# vtk DataFile Version 2.0
generated by CFD-lab course output (written by Tobias Neckel) 
ASCII

DATASET STRUCTURED_GRID
DIMENSIONS  82 60 1 
POINTS 4920 float

-1.500000 -0.500000 0
-1.402439 -0.500000 0
-1.304878 -0.500000 0
-1.207317 -0.500000 0
-1.109756 -0.500000 0
-1.012195 -0.500000 0
-0.914634 -0.500000 0
-0.817073 -0.500000 0
-0.719512 -0.500000 0
-0.621951 -0.500000 0
-0.524390 -0.500000 0
-0.426829 -0.500000 0
-0.329268 -0.500000 0
-0.231707 -0.500000 0
-0.134146 -0.500000 0
-0.036585 -0.500000 0
0.060976 -0.500000 0
0.158537 -0.500000 0
0.256098 -0.500000 0
0.353659 -0.500000 0
0.451220 -0.500000 0
0.548780 -0.500000 0
0.646341 -0.500000 0
0.743902 -0.500000 0
0.841463 -0.500000 0
0.939024 -0.500000 0
1.036585 -0.500000 0
1.134146 -0.500000 0
1.231707 -0.500000 0
1.329268 -0.500000 0
1.426829 -0.500000 0
1.524390 -0.500000 0
1.621951 -0.500000 0
1.719512 -0.500000 0
1.817073 -0.500000 0
1.914634 -0.500000 0
2.012195 -0.500000 0
2.109756 -0.500000 0
2.207317 -0.500000 0
2.304878 -0.500000 0
2.402439 -0.500000 0
2.500000 -0.500000 0
2.597561 -0.500000 0
2.695122 -0.500000 0
2.792683 -0.500000 0
2.890244 -0.500000 0
2.987805 -0.500000 0
3.085366 -0.500000 0
3.182927 -0.500000 0
3.280488 -0.500000 0
3.378049 -0.500000 0
3.475610 -0.500000 0
3.573171 -0.500000 0
3.670732 -0.500000 0
3.768293 -0.500000 0
3.865854 -0.500000 0
3.963415 -0.500000 0
4.060976 -0.500000 0
4.158537 -0.500000 0
4.256098 -0.500000 0
4.353659 -0.500000 0
4.451220 -0.500000 0
4.548780 -0.500000 0
4.646341 -0.500000 0
4.743902 -0.500000 0
4.841463 -0.500000 0
4.939024 -0.500000 0
5.036585 -0.500000 0
5.134146 -0.500000 0
5.231707 -0.500000 0
5.329268 -0.500000 0
5.426829 -0.500000 0
5.524390 -0.500000 0
5.621951 -0.500000 0
5.719512 -0.500000 0
5.817073 -0.500000 0
5.914634 -0.500000 0
6.012195 -0.500000 0
6.109756 -0.500000 0
6.207317 -0.500000 0
6.304878 -0.500000 0
6.402439 -0.500000 0
-1.500000 -0.451667 0
-1.402439 -0.451667 0
-1.304878 -0.451667 0
-1.207317 -0.451667 0
-1.109756 -0.451667 0
-1.012195 -0.451667 0
-0.914634 -0.451667 0
-0.817073 -0.451667 0
-0.719512 -0.451667 0
-0.621951 -0.451667 0
-0.524390 -0.451667 0
-0.426829 -0.451667 0
-0.329268 -0.451667 0
-0.231707 -0.451667 0
-0.134146 -0.451667 0
-0.036585 -0.451667 0
0.060976 -0.451667 0
0.158537 -0.451667 0
0.256098 -0.451667 0
0.353659 -0.451667 0
0.451220 -0.451667 0
0.548780 -0.451667 0
0.646341 -0.451667 0
0.743902 -0.451667 0
0.841463 -0.451667 0
0.939024 -0.451667 0
1.036585 -0.451667 0
1.134146 -0.451667 0
1.231707 -0.451667 0
1.329268 -0.451667 0
1.426829 -0.451667 0
1.524390 -0.451667 0
1.621951 -0.451667 0
1.719512 -0.451667 0
1.817073 -0.451667 0
1.914634 -0.451667 0
2.012195 -0.451667 0
2.109756 -0.451667 0
2.207317 -0.451667 0
2.304878 -0.451667 0
2.402439 -0.451667 0
2.500000 -0.451667 0
2.597561 -0.451667 0
2.695122 -0.451667 0
2.792683 -0.451667 0
2.890244 -0.451667 0
2.987805 -0.451667 0
3.085366 -0.451667 0
3.182927 -0.451667 0
3.280488 -0.451667 0
3.378049 -0.451667 0
3.475610 -0.451667 0
3.573171 -0.451667 0
3.670732 -0.451667 0
3.768293 -0.451667 0
3.865854 -0.451667 0
3.963415 -0.451667 0
4.060976 -0.451667 0
4.158537 -0.451667 0
4.256098 -0.451667 0
4.353659 -0.451667 0
4.451220 -0.451667 0
4.548780 -0.451667 0
4.646341 -0.451667 0
4.743902 -0.451667 0
4.841463 -0.451667 0
4.939024 -0.451667 0
5.036585 -0.451667 0
5.134146 -0.451667 0
5.231707 -0.451667 0
5.329268 -0.451667 0
5.426829 -0.451667 0
5.524390 -0.451667 0
5.621951 -0.451667 0
5.719512 -0.451667 0
5.817073 -0.451667 0
5.914634 -0.451667 0
6.012195 -0.451667 0
6.109756 -0.451667 0
6.207317 -0.451667 0
6.304878 -0.451667 0
6.402439 -0.451667 0
-1.500000 -0.403333 0
-1.402439 -0.403333 0
-1.304878 -0.403333 0
-1.207317 -0.403333 0
-1.109756 -0.403333 0
-1.012195 -0.403333 0
-0.914634 -0.403333 0
-0.817073 -0.403333 0
-0.719512 -0.403333 0
-0.621951 -0.403333 0
-0.524390 -0.403333 0
-0.426829 -0.403333 0
-0.329268 -0.403333 0
-0.231707 -0.403333 0
-0.134146 -0.403333 0
-0.036585 -0.403333 0
0.060976 -0.403333 0
0.158537 -0.403333 0
0.256098 -0.403333 0
0.353659 -0.403333 0
0.451220 -0.403333 0
0.548780 -0.403333 0
0.646341 -0.403333 0
0.743902 -0.403333 0
0.841463 -0.403333 0
0.939024 -0.403333 0
1.036585 -0.403333 0
1.134146 -0.403333 0
1.231707 -0.403333 0
1.329268 -0.403333 0
1.426829 -0.403333 0
1.524390 -0.403333 0
1.621951 -0.403333 0
1.719512 -0.403333 0
1.817073 -0.403333 0
1.914634 -0.403333 0
2.012195 -0.403333 0
2.109756 -0.403333 0
2.207317 -0.403333 0
2.304878 -0.403333 0
2.402439 -0.403333 0
2.500000 -0.403333 0
2.597561 -0.403333 0
2.695122 -0.403333 0
2.792683 -0.403333 0
2.890244 -0.403333 0
2.987805 -0.403333 0
3.085366 -0.403333 0
3.182927 -0.403333 0
3.280488 -0.403333 0
3.378049 -0.403333 0
3.475610 -0.403333 0
3.573171 -0.403333 0
3.670732 -0.403333 0
3.768293 -0.403333 0
3.865854 -0.403333 0
3.963415 -0.403333 0
4.060976 -0.403333 0
4.158537 -0.403333 0
4.256098 -0.403333 0
4.353659 -0.403333 0
4.451220 -0.403333 0
4.548780 -0.403333 0
4.646341 -0.403333 0
4.743902 -0.403333 0
4.841463 -0.403333 0
4.939024 -0.403333 0
5.036585 -0.403333 0
5.134146 -0.403333 0
5.231707 -0.403333 0
5.329268 -0.403333 0
5.426829 -0.403333 0
5.524390 -0.403333 0
5.621951 -0.403333 0
5.719512 -0.403333 0
5.817073 -0.403333 0
5.914634 -0.403333 0
6.012195 -0.403333 0
6.109756 -0.403333 0
6.207317 -0.403333 0
6.304878 -0.403333 0
6.402439 -0.403333 0
-1.500000 -0.355000 0
-1.402439 -0.355000 0
-1.304878 -0.355000 0
-1.207317 -0.355000 0
-1.109756 -0.355000 0
-1.012195 -0.355000 0
-0.914634 -0.355000 0
-0.817073 -0.355000 0
-0.719512 -0.355000 0
-0.621951 -0.355000 0
-0.524390 -0.355000 0
-0.426829 -0.355000 0
-0.329268 -0.355000 0
-0.231707 -0.355000 0
-0.134146 -0.355000 0
-0.036585 -0.355000 0
0.060976 -0.355000 0
0.158537 -0.355000 0
0.256098 -0.355000 0
0.353659 -0.355000 0
0.451220 -0.355000 0
0.548780 -0.355000 0
0.646341 -0.355000 0
0.743902 -0.355000 0
0.841463 -0.355000 0
0.939024 -0.355000 0
1.036585 -0.355000 0
1.134146 -0.355000 0
1.231707 -0.355000 0
1.329268 -0.355000 0
1.426829 -0.355000 0
1.524390 -0.355000 0
1.621951 -0.355000 0
1.719512 -0.355000 0
1.817073 -0.355000 0
1.914634 -0.355000 0
2.012195 -0.355000 0
2.109756 -0.355000 0
2.207317 -0.355000 0
2.304878 -0.355000 0
2.402439 -0.355000 0
2.500000 -0.355000 0
2.597561 -0.355000 0
2.695122 -0.355000 0
2.792683 -0.355000 0
2.890244 -0.355000 0
2.987805 -0.355000 0
3.085366 -0.355000 0
3.182927 -0.355000 0
3.280488 -0.355000 0
3.378049 -0.355000 0
3.475610 -0.355000 0
3.573171 -0.355000 0
3.670732 -0.355000 0
3.768293 -0.355000 0
3.865854 -0.355000 0
3.963415 -0.355000 0
4.060976 -0.355000 0
4.158537 -0.355000 0
4.256098 -0.355000 0
4.353659 -0.355000 0
4.451220 -0.355000 0
4.548780 -0.355000 0
4.646341 -0.355000 0
4.743902 -0.355000 0
4.841463 -0.355000 0
4.939024 -0.355000 0
5.036585 -0.355000 0
5.134146 -0.355000 0
5.231707 -0.355000 0
5.329268 -0.355000 0
5.426829 -0.355000 0
5.524390 -0.355000 0
5.621951 -0.355000 0
5.719512 -0.355000 0
5.817073 -0.355000 0
5.914634 -0.355000 0
6.012195 -0.355000 0
6.109756 -0.355000 0
6.207317 -0.355000 0
6.304878 -0.355000 0
6.402439 -0.355000 0
-1.500000 -0.306667 0
-1.402439 -0.306667 0
-1.304878 -0.306667 0
-1.207317 -0.306667 0
-1.109756 -0.306667 0
-1.012195 -0.306667 0
-0.914634 -0.306667 0
-0.817073 -0.306667 0
-0.719512 -0.306667 0
-0.621951 -0.306667 0
-0.524390 -0.306667 0
-0.426829 -0.306667 0
-0.329268 -0.306667 0
-0.231707 -0.306667 0
-0.134146 -0.306667 0
-0.036585 -0.306667 0
0.060976 -0.306667 0
0.158537 -0.306667 0
0.256098 -0.306667 0
0.353659 -0.306667 0
0.451220 -0.306667 0
0.548780 -0.306667 0
0.646341 -0.306667 0
0.743902 -0.306667 0
0.841463 -0.306667 0
0.939024 -0.306667 0
1.036585 -0.306667 0
1.134146 -0.306667 0
1.231707 -0.306667 0
1.329268 -0.306667 0
1.426829 -0.306667 0
1.524390 -0.306667 0
1.621951 -0.306667 0
1.719512 -0.306667 0
1.817073 -0.306667 0
1.914634 -0.306667 0
2.012195 -0.306667 0
2.109756 -0.306667 0
2.207317 -0.306667 0
2.304878 -0.306667 0
2.402439 -0.306667 0
2.500000 -0.306667 0
2.597561 -0.306667 0
2.695122 -0.306667 0
2.792683 -0.306667 0
2.890244 -0.306667 0
2.987805 -0.306667 0
3.085366 -0.306667 0
3.182927 -0.306667 0
3.280488 -0.306667 0
3.378049 -0.306667 0
3.475610 -0.306667 0
3.573171 -0.306667 0
3.670732 -0.306667 0
3.768293 -0.306667 0
3.865854 -0.306667 0
3.963415 -0.306667 0
4.060976 -0.306667 0
4.158537 -0.306667 0
4.256098 -0.306667 0
4.353659 -0.306667 0
4.451220 -0.306667 0
4.548780 -0.306667 0
4.646341 -0.306667 0
4.743902 -0.306667 0
4.841463 -0.306667 0
4.939024 -0.306667 0
5.036585 -0.306667 0
5.134146 -0.306667 0
5.231707 -0.306667 0
5.329268 -0.306667 0
5.426829 -0.306667 0
5.524390 -0.306667 0
5.621951 -0.306667 0
5.719512 -0.306667 0
5.817073 -0.306667 0
5.914634 -0.306667 0
6.012195 -0.306667 0
6.109756 -0.306667 0
6.207317 -0.306667 0
6.304878 -0.306667 0
6.402439 -0.306667 0
-1.500000 -0.258333 0
-1.402439 -0.258333 0
-1.304878 -0.258333 0
-1.207317 -0.258333 0
-1.109756 -0.258333 0
-1.012195 -0.258333 0
-0.914634 -0.258333 0
-0.817073 -0.258333 0
-0.719512 -0.258333 0
-0.621951 -0.258333 0
-0.524390 -0.258333 0
-0.426829 -0.258333 0
-0.329268 -0.258333 0
-0.231707 -0.258333 0
-0.134146 -0.258333 0
-0.036585 -0.258333 0
0.060976 -0.258333 0
0.158537 -0.258333 0
0.256098 -0.258333 0
0.353659 -0.258333 0
0.451220 -0.258333 0
0.548780 -0.258333 0
0.646341 -0.258333 0
0.743902 -0.258333 0
0.841463 -0.258333 0
0.939024 -0.258333 0
1.036585 -0.258333 0
1.134146 -0.258333 0
1.231707 -0.258333 0
1.329268 -0.258333 0
1.426829 -0.258333 0
1.524390 -0.258333 0
1.621951 -0.258333 0
1.719512 -0.258333 0
1.817073 -0.258333 0
1.914634 -0.258333 0
2.012195 -0.258333 0
2.109756 -0.258333 0
2.207317 -0.258333 0
2.304878 -0.258333 0
2.402439 -0.258333 0
2.500000 -0.258333 0
2.597561 -0.258333 0
2.695122 -0.258333 0
2.792683 -0.258333 0
2.890244 -0.258333 0
2.987805 -0.258333 0
3.085366 -0.258333 0
3.182927 -0.258333 0
3.280488 -0.258333 0
3.378049 -0.258333 0
3.475610 -0.258333 0
3.573171 -0.258333 0
[...]
POINT_DATA 4920 

VECTORS velocity float
0.000000 0.000000 0
0.000000 0.000000 0
0.000000 0.000000 0
0.000000 0.000000 0
0.000000 0.000000 0
0.000000 0.000000 0
0.000000 0.000000 0
0.000000 0.000000 0
0.000000 0.000000 0
0.000000 0.000000 0
0.000000 0.000000 0
0.000000 0.000000 0
0.000000 0.000000 0
0.000000 0.000000 0
0.000000 0.000000 0
-0.000005 0.000000 0
-0.000008 0.000000 0
-0.000010 0.000000 0
-0.000010 0.000000 0
-0.000009 0.000000 0
-0.000008 0.000000 0
-0.000007 0.000000 0
-0.000007 0.000000 0
-0.000007 0.000000 0
-0.000008 0.000000 0
-0.000008 0.000000 0
-0.000009 0.000000 0
-0.000009 0.000000 0
-0.000009 0.000000 0
-0.000008 0.000000 0
-0.000008 0.000000 0
-0.000007 0.000000 0
-0.000006 0.000000 0
-0.000006 0.000000 0
-0.000006 0.000000 0
-0.000006 0.000000 0
-0.000006 0.000000 0
-0.000006 0.000000 0
-0.000006 0.000000 0
-0.000006 0.000000 0
-0.000006 0.000000 0
-0.000006 0.000000 0
-0.000006 0.000000 0
-0.000006 0.000000 0
-0.000006 0.000000 0
-0.000006 0.000000 0
-0.000006 0.000000 0
-0.000006 0.000000 0
-0.000007 0.000000 0
-0.000007 0.000000 0
-0.000007 0.000000 0
-0.000007 0.000000 0
-0.000008 0.000000 0
-0.000009 0.000000 0
-0.000009 0.000000 0
-0.000010 0.000000 0
0.000000 0.000000 0
0.001941 0.000000 0
0.000000 0.000000 0
0.000000 0.000000 0
0.000000 0.000000 0
0.000000 0.000000 0
0.000000 0.000000 0
0.000000 0.000000 0
0.000000 0.000000 0
0.000000 0.000000 0
0.000000 0.000000 0
0.000000 0.000000 0
0.000000 0.000000 0
0.000000 0.000000 0
0.000000 0.000000 0
0.000000 0.000000 0
0.000000 0.000000 0
0.000000 0.000000 0
0.000000 0.000000 0
0.000000 0.000000 0
0.000000 0.000000 0
0.000000 0.000000 0
0.000000 0.000000 0
0.000000 0.000000 0
0.000000 0.000000 0
0.000000 0.000000 0
0.000000 0.000000 0
0.000000 0.000000 0
0.000000 0.000000 0
0.000000 0.000000 0
0.000000 0.000000 0
0.000000 0.000000 0
0.000000 0.000000 0
0.000000 0.000000 0
0.000000 0.000000 0
0.000000 0.000000 0
0.000000 0.000000 0
0.000000 0.000000 0
0.000000 0.000000 0
0.000000 0.000000 0
1.045987 -0.422364 0
2.517498 -0.737984 0
3.778813 -0.505074 0
4.621822 -0.265395 0
5.055321 -0.070114 0
5.166266 0.061975 0
5.062260 0.139827 0
4.828561 0.177866 0
4.529352 0.186636 0
4.211584 0.175109 0
3.907610 0.151171 0
3.637244 0.121580 0
3.409920 0.091655 0
3.227198 0.064984 0
3.085445 0.043411 0
2.978302 0.027339 0
2.898599 0.016224 0
2.839579 0.009082 0
2.795513 0.004854 0
2.761879 0.002614 0
2.735297 0.001641 0
2.713344 0.001420 0
2.694334 0.001612 0
2.677121 0.002009 0
2.660918 0.002500 0
2.645150 0.003046 0
2.629345 0.003652 0
2.613029 0.004364 0
2.595643 0.005260 0
2.576454 0.006451 0
2.554462 0.008086 0
2.528272 0.010367 0
2.495947 0.013559 0
2.454800 0.018012 0
2.401127 0.024173 0
2.329881 0.032588 0
2.234304 0.043859 0
2.105571 0.058468 0
1.932842 0.076477 0
1.703699 0.096393 0
1.408325 0.115044 0
1.037879 0.130400 0
0.616393 0.068598 0
-0.000000 0.000000 0
-0.001545 0.000000 0
0.000000 0.000000 0
0.000000 0.000000 0
0.000000 0.000000 0
0.000000 0.000000 0
0.000000 0.000000 0
0.000000 0.000000 0
0.000000 0.000000 0
0.000000 0.000000 0
0.000000 0.000000 0
0.000000 0.000000 0
0.000000 0.000000 0
0.000000 0.000000 0
0.000000 0.000000 0
0.000000 0.000000 0
0.000000 0.000000 0
0.000000 0.000000 0
0.000000 0.000000 0
0.000000 0.000000 0
0.000000 0.000000 0
0.000000 0.000000 0
0.000000 0.000000 0
0.000000 0.000000 0
0.000000 0.000000 0
0.000000 0.000000 0
0.000000 0.000000 0
0.000000 0.000000 0
0.000000 0.000000 0
0.000000 0.000000 0
0.000000 0.000000 0
0.000000 0.000000 0
0.000000 0.000000 0
0.000000 0.000000 0
0.000000 0.000000 0
0.000000 0.000000 0
0.000000 0.000000 0
0.000000 0.000000 0
1.159177 -0.516787 0
2.652865 -1.245593 0
3.827602 -1.353683 0
5.001502 -1.042517 0
5.862930 -0.632403 0
6.390077 -0.269727 0
6.646266 -0.003438 0
6.705949 0.167305 0
6.637260 0.264012 0
6.489749 0.305661 0
6.299653 0.308021 0
6.093082 0.284538 0
5.888189 0.246564 0
5.696769 0.203144 0
5.525551 0.160750 0
5.377351 0.123307 0
5.252148 0.092567 0
5.148075 0.068726 0
5.062266 0.051071 0
4.991523 0.038494 0
4.932765 0.029832 0
4.883277 0.024045 0
4.840810 0.020294 0
4.803577 0.017945 0
4.770191 0.016555 0
4.739572 0.015839 0
4.710858 0.015641 0
4.683302 0.015913 0
4.656187 0.016697 0
4.628735 0.018120 0
4.600005 0.020402 0
4.568783 0.023871 0
4.533436 0.028989 0
4.491725 0.036399 0
4.440548 0.046976 0
4.375592 0.061887 0
4.290857 0.082647 0
4.178027 0.111127 0
4.025664 0.149349 0
3.818292 0.199094 0
3.535754 0.259855 0
3.153820 0.329859 0
2.646782 0.391827 0
2.014517 0.511860 0
1.050925 0.303557 0
-0.000000 0.000000 0
-0.004712 0.000000 0
0.000000 0.000000 0
0.000000 0.000000 0
0.000000 0.000000 0
0.000000 0.000000 0
0.000000 0.000000 0
0.000000 0.000000 0
0.000000 0.000000 0
0.000000 0.000000 0
0.000000 0.000000 0
0.000000 0.000000 0
0.000000 0.000000 0
0.000000 0.000000 0
0.000000 0.000000 0
0.000000 0.000000 0
0.000000 0.000000 0
0.000000 0.000000 0
0.000000 0.000000 0
0.000000 0.000000 0
0.000000 0.000000 0
0.000000 0.000000 0
0.000000 0.000000 0
0.000000 0.000000 0
0.000000 0.000000 0
0.000000 0.000000 0
0.000000 0.000000 0
0.000000 0.000000 0
0.000000 0.000000 0
0.000000 0.000000 0
0.000000 0.000000 0
0.000000 0.000000 0
0.000000 0.000000 0
0.000000 0.000000 0
0.000000 0.000000 0
0.000000 0.000000 0
0.935672 -0.582309 0
2.633663 -1.320895 0
3.461321 -1.742934 0
4.643838 -1.901537 0
5.707167 -1.513410 0
6.430334 -0.953318 0
6.855318 -0.458192 0
7.078624 -0.094514 0
7.166753 0.144289 0
7.168530 0.284974 0
7.117182 0.353892 0
7.034981 0.371625 0
6.936830 0.355016 0
6.832855 0.317920 0
6.730032 0.271312 0
6.633050 0.223229 0
6.544748 0.178859 0
6.466421 0.140926 0
6.398150 0.110295 0
6.339184 0.086640 0
6.288310 0.069011 0
6.244154 0.056241 0
6.205390 0.047197 0
6.170847 0.040905 0
6.139552 0.036598 0
6.110719 0.033718 0
6.083712 0.031895 0
6.057997 0.030923 0
6.033088 0.030736 0
6.008489 0.031397 0
5.983631 0.033094 0
5.957805 0.036152 0
5.930067 0.041066 0
5.899127 0.048543 0
5.863188 0.059578 0
5.819721 0.075547 0
5.765143 0.098333 0
5.694341 0.130465 0
5.599970 0.175240 0
5.471423 0.236686 0
5.293192 0.319186 0
5.043184 0.425583 0
4.689568 0.555455 0
4.199830 0.694830 0
3.530216 0.855445 0
2.832189 0.996638 0
1.344128 0.523025 0
-0.000001 0.000000 0
-0.005827 0.000000 0
0.000000 0.000000 0
0.000000 0.000000 0
0.000000 0.000000 0
0.000000 0.000000 0
0.000000 0.000000 0
0.000000 0.000000 0
0.000000 0.000000 0
0.000000 0.000000 0
0.000000 0.000000 0
0.000000 0.000000 0
0.000000 0.000000 0
0.000000 0.000000 0
0.000000 0.000000 0
0.000000 0.000000 0
0.000000 0.000000 0
0.000000 0.000000 0
0.000000 0.000000 0
0.000000 0.000000 0
0.000000 0.000000 0
0.000000 0.000000 0
0.000000 0.000000 0
0.000000 0.000000 0
0.000000 0.000000 0
0.000000 0.000000 0
0.000000 0.000000 0
0.000000 0.000000 0
0.000000 0.000000 0
0.000000 0.000000 0
0.000000 0.000000 0
0.000000 0.000000 0
0.000000 0.000000 0
0.000000 0.000000 0
0.738007 -0.467159 0
2.143521 -1.316405 0
3.089321 -1.776068 0
3.863728 -2.241468 0
5.206481 -2.466313 0
6.161956 -1.927578 0
6.687476 -1.201217 0
6.945422 -0.590900 0
7.064238 -0.157728 0
7.110834 0.122764 0
7.114819 0.288570 0
7.096584 0.371823 0
7.067603 0.397371 0
7.033640 0.384674 0
6.997483 0.349015 0
6.960754 0.302130 0
6.924733 0.252543 0
6.890525 0.205858 0
6.858964 0.165194 0
6.830516 0.131761 0
6.805266 0.105487 0
6.783003 0.085573 0
6.763336 0.070912 0
6.745805 0.060363 0
6.729956 0.052911 0
6.715385 0.047734 0
6.701752 0.044220 0
6.688772 0.041959 0
6.676201 0.040721 0
6.663811 0.040440 0
6.651362 0.041198 0
6.638565 0.043229 0
6.625048 0.046939 0
6.610298 0.052941 0
6.593591 0.062122 0
6.573888 0.075738 0
6.549680 0.095549 0
6.518753 0.124002 0
6.477805 0.164476 0
6.421820 0.221564 0
6.342989 0.301332 0
6.228714 0.411251 0
6.058593 0.558900 0
5.798911 0.747670 0
5.406318 0.966190 0
4.837698 1.189412 0
4.168486 1.388764 0
3.380085 1.410374 0
1.503353 0.670981 0
-0.000001 0.000000 0
-0.005319 0.000000 0
0.000000 0.000000 0
0.000000 0.000000 0
0.000000 0.000000 0
0.000000 0.000000 0
0.000000 0.000000 0
0.000000 0.000000 0
0.000000 0.000000 0
0.000000 0.000000 0
0.000000 0.000000 0
0.000000 0.000000 0
0.000000 0.000000 0
0.000000 0.000000 0
0.000000 0.000000 0
0.000000 0.000000 0
0.000000 0.000000 0
0.000000 0.000000 0
0.000000 0.000000 0
0.000000 0.000000 0
0.000000 0.000000 0
0.000000 0.000000 0
0.000000 0.000000 0
0.000000 0.000000 0
0.000000 0.000000 0
0.000000 0.000000 0
0.000000 0.000000 0
0.000000 0.000000 0
0.000000 0.000000 0
0.000000 0.000000 0
0.000000 0.000000 0
0.000000 0.000000 0
0.535847 -0.369083 0
1.697806 -1.069009 0
2.544389 -1.750800 0
3.299712 -2.173114 0
4.125431 -2.791810 0
5.617538 -3.040118 0
6.350405 -2.247119 0
6.583140 -1.341460 0
6.616751 -0.644846 0
6.604751 -0.176462 0
6.590112 0.119230 0
6.580084 0.292034 0
6.578813 0.377284 0
6.585717 0.402808 0
6.597911 0.389755 0
6.611978 0.354029 0
6.625250 0.307353 0
6.636255 0.258022 0
6.644585 0.211442 0
6.650519 0.170655 0
6.654636 0.136898 0
6.657539 0.110179 0
6.659722 0.089784 0
6.661529 0.074670 0
6.663170 0.063734 0
6.664758 0.055975 0
6.666340 0.050570 0
6.667927 0.046903 0
6.669508 0.044553 0
6.671066 0.043289 0
6.672578 0.043042 0
6.674020 0.043905 0
6.675361 0.046130 0
6.676559 0.050156 0
6.677553 0.056650 0
6.678237 0.066581 0
6.678438 0.081332 0
6.677848 0.102862 0
6.675918 0.133941 0
6.671644 0.178487 0
6.663133 0.242030 0
6.646713 0.332354 0
6.614904 0.460081 0
6.552340 0.638515 0
6.427239 0.878604 0
6.183256 1.171031 0
5.771852 1.468688 0
5.221988 1.718764 0
4.584292 1.851552 0
3.676440 1.687872 0
1.561093 0.749931 0
-0.000001 0.000000 0
-0.004070 0.000000 0
0.000000 0.000000 0
0.000000 0.000000 0
0.000000 0.000000 0
0.000000 0.000000 0
0.000000 0.000000 0
0.000000 0.000000 0
0.000000 0.000000 0
0.000000 0.000000 0
0.000000 0.000000 0
0.000000 0.000000 0
0.000000 0.000000 0
0.000000 0.000000 0
0.000000 0.000000 0
0.000000 0.000000 0
0.000000 0.000000 0
0.000000 0.000000 0
0.000000 0.000000 0
0.000000 0.000000 0
0.000000 0.000000 0
0.000000 0.000000 0
0.000000 0.000000 0
0.000000 0.000000 0
0.000000 0.000000 0
0.000000 0.000000 0
0.000000 0.000000 0
0.000000 0.000000 0
0.000000 0.000000 0
0.000000 0.000000 0
0.376192 -0.266790 0
1.296683 -0.845905 0
2.060726 -1.465685 0
2.753551 -2.110016 0
3.393967 -2.559343 0
4.279757 -3.389757 0
5.829326 -3.568602 0
6.149872 -2.405953 0
5.979762 -1.333169 0
5.741096 -0.601606 0
5.588800 -0.144530 0
5.512853 0.134984 0
5.499980 0.294168 0
5.530345 0.369032 0
5.586143 0.387909 0
5.653889 0.371664 0
5.723866 0.335471 0
5.789899 0.290103 0
5.848741 0.242965 0
5.899304 0.198792 0
5.941880 0.160215 0
5.977493 0.128283 0
6.007426 0.102967 0
6.032934 0.083596 0
6.055103 0.069203 0
6.074803 0.058763 0
6.092702 0.051341 0
6.109293 0.046164 0
6.124938 0.042650 0
6.139908 0.040403 0
6.154417 0.039200 0
6.168660 0.038977 0
6.182834 0.039820 0
6.197175 0.041971 0
6.211981 0.045853 0
6.227652 0.052109 0
6.244722 0.061683 0
6.263911 0.075931 0
6.286172 0.096798 0
6.312737 0.127076 0
6.345125 0.170810 0
6.385015 0.233916 0
6.433792 0.325226 0
6.490981 0.458005 0
6.549852 0.651872 0
6.585781 0.930521 0
6.525002 1.290880 0
6.295721 1.665640 0
5.921775 1.977101 0
5.435733 2.176064 0
4.800048 2.179089 0
3.778906 1.835667 0
1.550116 0.777324 0
-0.000002 0.000000 0
-0.002753 0.000000 0
0.000000 0.000000 0
0.000000 0.000000 0
0.000000 0.000000 0
0.000000 0.000000 0
0.000000 0.000000 0
0.000000 0.000000 0
0.000000 0.000000 0
0.000000 0.000000 0
0.000000 0.000000 0
0.000000 0.000000 0
0.000000 0.000000 0
0.000000 0.000000 0
0.000000 0.000000 0
0.000000 0.000000 0
0.000000 0.000000 0
0.000000 0.000000 0
0.000000 0.000000 0
0.000000 0.000000 0
0.000000 0.000000 0
0.000000 0.000000 0
0.000000 0.000000 0
0.000000 0.000000 0
0.000000 0.000000 0
0.000000 0.000000 0
0.000000 0.000000 0
0.000000 0.000000 0
0.267737 -0.186313 0
0.995369 -0.643661 0
1.701848 -1.204951 0
2.319229 -1.790765 0
2.879888 -2.411310 0
3.394867 -2.929222 0
4.283249 -3.998327 0
5.742206 -3.966604 0
5.399632 -2.321647 0
4.736339 -1.138945 0
4.207616 -0.451157 0
3.918692 -0.063386 0
3.815093 0.163233 0
3.846697 0.283368 0
3.952811 0.334597 0
4.092898 0.341603 0
4.242897 0.321525 0
4.388196 0.286647 0
4.520828 0.245488 0
4.637270 0.203821 0
4.736887 0.165300 0
4.820783 0.131919 0
4.890955 0.104425 0
4.949704 0.082713 0
4.999275 0.066164 0
5.041658 0.053927 0
5.078516 0.045107 0
5.111187 0.038888 0
5.140713 0.034600 0
5.167904 0.031736 0
5.193392 0.029949 0
5.217698 0.029045 0
5.241285 0.028964 0
5.264622 0.029778 0
5.288238 0.031690 0
5.312790 0.035057 0
5.339140 0.040430 0
5.368455 0.048618 0
5.402328 0.060797 0
5.442951 0.078672 0
5.493325 0.104735 0
5.557526 0.142680 0
5.640999 0.198103 0
5.750745 0.279857 0
5.895045 0.402583 0
6.079663 0.591549 0
6.299014 0.890915 0
6.453564 1.314731 0
6.417869 1.767537 0
6.246691 2.144816 0
5.950102 2.407275 0
5.516603 2.508691 0
4.853455 2.369454 0
3.745756 1.884073 0
1.497077 0.770441 0
-0.000001 0.000000 0
-0.001765 0.000000 0
0.000000 0.000000 0
0.000000 0.000000 0
0.000000 0.000000 0
0.000000 0.000000 0
0.000000 0.000000 0
0.000000 0.000000 0
0.000000 0.000000 0
0.000000 0.000000 0
0.000000 0.000000 0
0.000000 0.000000 0
0.000000 0.000000 0
0.000000 0.000000 0
0.000000 0.000000 0
0.000000 0.000000 0
0.000000 0.000000 0
0.000000 0.000000 0
0.000000 0.000000 0
0.000000 0.000000 0
0.000000 0.000000 0
0.000000 0.000000 0
0.000000 0.000000 0
0.000000 0.000000 0
0.000000 0.000000 0
0.000000 0.000000 0
0.209046 -0.131743 0
0.804995 -0.492165 0
1.468034 -0.977213 0
2.052279 -1.501767 0
2.534729 -2.049306 0
2.938578 -2.642905 0
3.297373 -3.254592 0
4.067554 -4.552668 0
5.217346 -4.121677 0
3.914937 -1.907630 0
2.773206 -0.742624 0
1.999860 -0.196530 0
1.716571 0.049932 0
1.747336 0.170652 0
1.908069 0.225940 0
2.127665 0.247060 0
2.367250 0.244196 0
2.603786 0.225369 0
2.822580 0.197779 0
3.016307 0.166708 0
3.182458 0.135925 0
3.321618 0.107876 0
3.436223 0.083887 0
3.529646 0.064413 0
3.605547 0.049303 0
3.667439 0.038041 0
3.718447 0.029946 0
3.761201 0.024317 0
3.797822 0.020527 0
3.829967 0.018065 0
3.858911 0.016552 0
3.885636 0.015735 0
3.910925 0.015474 0
3.935459 0.015730 0
3.959903 0.016559 0
3.984997 0.018108 0
4.011660 0.020635 0
4.041102 0.024532 0
4.074978 0.030379 0
4.115586 0.039025 0
4.166148 0.051716 0
4.231193 0.070313 0
4.317099 0.097650 0
4.432902 0.138192 0
4.591290 0.199367 0
4.810900 0.295053 0
5.113601 0.451739 0
5.540050 0.745284 0
5.971565 1.231997 0
6.145396 1.768128 0
6.202349 2.208841 0
6.128821 2.537762 0
5.905462 2.722387 0
5.490602 2.712974 0
4.786647 2.447267 0
3.627078 1.864135 0
1.424133 0.742964 0
-0.000001 0.000000 0
-0.001297 0.000000 0
0.000000 0.000000 0
0.000000 0.000000 0
0.000000 0.000000 0
0.000000 0.000000 0
0.000000 0.000000 0
0.000000 0.000000 0
0.000000 0.000000 0
0.000000 0.000000 0
0.000000 0.000000 0
0.000000 0.000000 0
0.000000 0.000000 0
0.000000 0.000000 0
0.000000 0.000000 0
0.000000 0.000000 0
0.000000 0.000000 0
0.000000 0.000000 0
0.000000 0.000000 0
0.000000 0.000000 0
0.000000 0.000000 0
0.000000 0.000000 0
0.000000 0.000000 0
0.000000 0.000000 0
0.195163 -0.102197 0
0.723962 -0.396542 0
1.360058 -0.809139 0
1.928066 -1.261587 0
2.381115 -1.733409 0
2.709250 -2.229853 0
2.934345 -2.789137 0
3.100590 -3.488535 0
3.570433 -4.949514 0
4.019570 -3.890995 0
1.555319 -1.110780 0
0.419700 -0.190184 0
0.056330 0.072318 0
0.023004 0.061718 0
0.157119 0.068361 0
0.367466 0.094947 0
0.613179 0.107112 0
0.866157 0.105725 0
1.106089 0.095947 0
1.321064 0.082278 0
1.505307 0.067198 0
1.657564 0.052565 0
1.779672 0.039581 0
1.875312 0.028858 0
1.948998 0.020539 0
2.005331 0.014448 0
2.048517 0.010232 0
2.082117 0.007476 0
2.108963 0.005783 0
2.131201 0.004820 0
2.150397 0.004335 0
2.167667 0.004156 0
2.183808 0.004180 0
2.199427 0.004362 0
2.215042 0.004700 0
2.231178 0.005236 0
2.248465 0.006048 0
2.267730 0.007262 0
2.290117 0.009062 0
2.317248 0.011718 0
2.351438 0.015630 0
2.396019 0.021399 0
2.455827 0.029951 0
2.537946 0.042750 0
2.652933 0.062264 0
2.816888 0.092590 0
3.055356 0.143821 0
3.412453 0.230316 0
3.967193 0.465865 0
4.889065 1.014833 0
5.369865 1.653202 0
5.747934 2.153028 0
5.960753 2.554357 0
5.985077 2.824876 0
5.804666 2.923734 0
5.380995 2.807294 0
4.641415 2.440952 0
3.467818 1.802063 0
1.352084 0.706022 0
-0.000001 0.000000 0
-0.001473 0.000000 0
0.000000 0.000000 0
0.000000 0.000000 0
0.000000 0.000000 0
0.000000 0.000000 0
0.000000 0.000000 0
0.000000 0.000000 0
0.000000 0.000000 0
0.000000 0.000000 0
0.000000 0.000000 0
0.000000 0.000000 0
0.000000 0.000000 0
0.000000 0.000000 0
0.000000 0.000000 0
0.000000 0.000000 0
0.000000 0.000000 0
0.000000 0.000000 0
0.000000 0.000000 0
0.000000 0.000000 0
0.000000 0.000000 0
0.000000 0.000000 0
0.225007 -0.094993 0
0.750739 -0.355601 0
1.379755 -0.707484 0
1.940532 -1.088698 0
2.379644 -1.483062 0
2.678416 -1.888779 0
2.838069 -2.323385 0
2.877269 -2.836781 0
2.823963 -3.569720 0
2.795880 -5.007946 0
1.634127 -2.999161 0
0.000002 0.000000 0
0.000006 0.000000 0
0.000006 0.000000 0
0.000004 0.000000 0
0.000000 0.000000 0
-0.000003 0.000000 0
-0.000006 0.000000 0
-0.000007 0.000000 0
-0.000007 0.000000 0
-0.000007 0.000000 0
-0.000006 0.000000 0
-0.000005 0.000000 0
-0.000005 0.000000 0
-0.000005 0.000000 0
-0.000005 0.000000 0
-0.000005 0.000000 0
-0.000006 0.000000 0
-0.000006 0.000000 0
-0.000006 0.000000 0
-0.000007 0.000000 0
-0.000007 0.000000 0
-0.000007 0.000000 0
-0.000006 0.000000 0
-0.000006 0.000000 0
-0.000006 0.000000 0
-0.000006 0.000000 0
-0.000006 0.000000 0
-0.000006 0.000000 0
-0.000006 0.000000 0
-0.000006 0.000000 0
-0.000006 0.000000 0
-0.000006 0.000000 0
-0.000006 0.000000 0
-0.000005 0.000000 0
-0.000005 0.000000 0
-0.000004 0.000000 0
-0.000003 0.000000 0
-0.000000 0.000000 0
0.000005 0.000000 0
2.076436 0.523344 0
3.738296 1.342630 0
4.725826 1.916105 0
5.369425 2.420277 0
5.724166 2.799715 0
5.813900 3.012246 0
5.647810 3.023561 0
5.209337 2.811955 0
4.456498 2.375273 0
3.308140 1.720809 0
1.297793 0.669920 0
-0.000000 0.000000 0
-0.002308 0.000000 0
0.000000 0.000000 0
0.000000 0.000000 0
0.000000 0.000000 0
0.000000 0.000000 0
0.000000 0.000000 0
0.000000 0.000000 0
0.000000 0.000000 0
0.000000 0.000000 0
0.000000 0.000000 0
0.000000 0.000000 0
0.000000 0.000000 0
0.000000 0.000000 0
0.000000 0.000000 0
0.000000 0.000000 0
0.000000 0.000000 0
0.000000 0.000000 0
0.000000 0.000000 0
0.000000 0.000000 0
0.308794 -0.109417 0
0.896966 -0.368180 0
1.541087 -0.672584 0
2.095588 -0.985985 0
2.519029 -1.304500 0
2.796331 -1.627147 0
2.926189 -1.960520 0
2.917979 -2.328368 0
2.784301 -2.782149 0
2.521486 -3.448214 0
2.017043 -4.377062 0
0.037551 0.000011 0
-0.073033 2.448351 0
0.384493 0.000000 0
0.310859 0.000000 0
0.238516 0.000000 0
0.186275 0.000000 0
0.100522 0.000000 0
-0.005382 0.000000 0
-0.115688 0.000000 0
-0.218789 0.000000 0
-0.309356 0.000000 0
-0.384865 0.000000 0
-0.444994 0.000000 0
-0.490965 0.000000 0
-0.524888 0.000000 0
-0.549215 0.000000 0
-0.566346 0.000000 0
-0.578379 0.000000 0
-0.587000 0.000000 0
-0.593470 0.000000 0
-0.598674 0.000000 0
-0.603200 0.000000 0
-0.607425 0.000000 0
-0.611590 0.000000 0
-0.615863 0.000000 0
-0.620393 0.000000 0
-0.625350 0.000000 0
-0.630962 0.000000 0
-0.637558 0.000000 0
-0.645620 0.000000 0
-0.655849 0.000000 0
-0.669271 0.000000 0
-0.687397 0.000000 0
-0.712465 0.000000 0
-0.747853 0.000000 0
-0.798754 0.000000 0
-0.873532 0.000000 0
-0.985646 0.000000 0
-1.163832 0.000000 0
-1.450532 0.128943 0
0.000000 0.000010 0
1.699950 0.344024 0
3.292299 1.344939 0
4.401570 2.059763 0
5.130631 2.604676 0
5.524408 2.961562 0
5.623832 3.106805 0
5.452321 3.031148 0
5.009122 2.743948 0
4.273537 2.272488 0
3.186554 1.640619 0
1.278796 0.643068 0
0.000001 0.000000 0
-0.004007 0.000000 0
0.000000 0.000000 0
0.000000 0.000000 0
0.000000 0.000000 0
0.000000 0.000000 0
0.000000 0.000000 0
0.000000 0.000000 0
0.000000 0.000000 0
0.000000 0.000000 0
0.000000 0.000000 0
0.000000 0.000000 0
0.000000 0.000000 0
0.000000 0.000000 0
0.000000 0.000000 0
0.000000 0.000000 0
0.000000 0.000000 0