# vtk DataFile Version 2.0
generated by CFD-lab course output (written by Tobias Neckel) 
ASCII

DATASET STRUCTURED_GRID
DIMENSIONS  82 60 1 
POINTS 4920 float

-1.500000 -0.500000 0
-1.402439 -0.500000 0
-1.304878 -0.500000 0
-1.207317 -0.500000 0
-1.109756 -0.500000 0
-1.012195 -0.500000 0
-0.914634 -0.500000 0
-0.817073 -0.500000 0
-0.719512 -0.500000 0
-0.621951 -0.500000 0
-0.524390 -0.500000 0
-0.426829 -0.500000 0
-0.329268 -0.500000 0
-0.231707 -0.500000 0
-0.134146 -0.500000 0
-0.036585 -0.500000 0
0.060976 -0.500000 0
0.158537 -0.500000 0
0.256098 -0.500000 0
0.353659 -0.500000 0
0.451220 -0.500000 0
0.548780 -0.500000 0
0.646341 -0.500000 0
0.743902 -0.500000 0
0.841463 -0.500000 0
0.939024 -0.500000 0
1.036585 -0.500000 0
1.134146 -0.500000 0
1.231707 -0.500000 0
1.329268 -0.500000 0
1.426829 -0.500000 0
1.524390 -0.500000 0
1.621951 -0.500000 0
1.719512 -0.500000 0
1.817073 -0.500000 0
1.914634 -0.500000 0
2.012195 -0.500000 0
2.109756 -0.500000 0
2.207317 -0.500000 0
2.304878 -0.500000 0
2.402439 -0.500000 0
2.500000 -0.500000 0
2.597561 -0.500000 0
2.695122 -0.500000 0
2.792683 -0.500000 0
2.890244 -0.500000 0
2.987805 -0.500000 0
3.085366 -0.500000 0
3.182927 -0.500000 0
3.280488 -0.500000 0
3.378049 -0.500000 0
3.475610 -0.500000 0
3.573171 -0.500000 0
3.670732 -0.500000 0
3.768293 -0.500000 0
3.865854 -0.500000 0
3.963415 -0.500000 0
4.060976 -0.500000 0
4.158537 -0.500000 0
4.256098 -0.500000 0
4.353659 -0.500000 0
4.451220 -0.500000 0
4.548780 -0.500000 0
4.646341 -0.500000 0
4.743902 -0.500000 0
4.841463 -0.500000 0
4.939024 -0.500000 0
5.036585 -0.500000 0
5.134146 -0.500000 0
5.231707 -0.500000 0
5.329268 -0.500000 0
5.426829 -0.500000 0
5.524390 -0.500000 0
5.621951 -0.500000 0
5.719512 -0.500000 0
5.817073 -0.500000 0
5.914634 -0.500000 0
6.012195 -0.500000 0
6.109756 -0.500000 0
6.207317 -0.500000 0
6.304878 -0.500000 0
6.402439 -0.500000 0
-1.500000 -0.451667 0
-1.402439 -0.451667 0
-1.304878 -0.451667 0
-1.207317 -0.451667 0
-1.109756 -0.451667 0
-1.012195 -0.451667 0
-0.914634 -0.451667 0
-0.817073 -0.451667 0
-0.719512 -0.451667 0
-0.621951 -0.451667 0
-0.524390 -0.451667 0
-0.426829 -0.451667 0
-0.329268 -0.451667 0
-0.231707 -0.451667 0
-0.134146 -0.451667 0
-0.036585 -0.451667 0
0.060976 -0.451667 0
0.158537 -0.451667 0
0.256098 -0.451667 0
0.353659 -0.451667 0
0.451220 -0.451667 0
0.548780 -0.451667 0
0.646341 -0.451667 0
0.743902 -0.451667 0
0.841463 -0.451667 0
0.939024 -0.451667 0
1.036585 -0.451667 0
1.134146 -0.451667 0
1.231707 -0.451667 0
1.329268 -0.451667 0
1.426829 -0.451667 0
1.524390 -0.451667 0
1.621951 -0.451667 0
1.719512 -0.451667 0
1.817073 -0.451667 0
1.914634 -0.451667 0
2.012195 -0.451667 0
2.109756 -0.451667 0
2.207317 -0.451667 0
2.304878 -0.451667 0
2.402439 -0.451667 0
2.500000 -0.451667 0
2.597561 -0.451667 0
2.695122 -0.451667 0
2.792683 -0.451667 0
2.890244 -0.451667 0
2.987805 -0.451667 0
3.085366 -0.451667 0
3.182927 -0.451667 0
3.280488 -0.451667 0
3.378049 -0.451667 0
3.475610 -0.451667 0
3.573171 -0.451667 0
3.670732 -0.451667 0
3.768293 -0.451667 0
3.865854 -0.451667 0
3.963415 -0.451667 0
4.060976 -0.451667 0
4.158537 -0.451667 0
4.256098 -0.451667 0
4.353659 -0.451667 0
4.451220 -0.451667 0
4.548780 -0.451667 0
4.646341 -0.451667 0
4.743902 -0.451667 0
4.841463 -0.451667 0
4.939024 -0.451667 0
5.036585 -0.451667 0
5.134146 -0.451667 0
5.231707 -0.451667 0
5.329268 -0.451667 0
5.426829 -0.451667 0
5.524390 -0.451667 0
5.621951 -0.451667 0
5.719512 -0.451667 0
5.817073 -0.451667 0
5.914634 -0.451667 0
6.012195 -0.451667 0
6.109756 -0.451667 0
6.207317 -0.451667 0
6.304878 -0.451667 0
6.402439 -0.451667 0
-1.500000 -0.403333 0
-1.402439 -0.403333 0
-1.304878 -0.403333 0
-1.207317 -0.403333 0
-1.109756 -0.403333 0
-1.012195 -0.403333 0
-0.914634 -0.403333 0
-0.817073 -0.403333 0
-0.719512 -0.403333 0
-0.621951 -0.403333 0
-0.524390 -0.403333 0
-0.426829 -0.403333 0
-0.329268 -0.403333 0
-0.231707 -0.403333 0
-0.134146 -0.403333 0
-0.036585 -0.403333 0
0.060976 -0.403333 0
0.158537 -0.403333 0
0.256098 -0.403333 0
0.353659 -0.403333 0
0.451220 -0.403333 0
0.548780 -0.403333 0
0.646341 -0.403333 0
0.743902 -0.403333 0
0.841463 -0.403333 0
0.939024 -0.403333 0
1.036585 -0.403333 0
1.134146 -0.403333 0
1.231707 -0.403333 0
1.329268 -0.403333 0
1.426829 -0.403333 0
1.524390 -0.403333 0
1.621951 -0.403333 0
1.719512 -0.403333 0
1.817073 -0.403333 0
1.914634 -0.403333 0
2.012195 -0.403333 0
2.109756 -0.403333 0
2.207317 -0.403333 0
2.304878 -0.403333 0
2.402439 -0.403333 0
2.500000 -0.403333 0
2.597561 -0.403333 0
2.695122 -0.403333 0
2.792683 -0.403333 0
2.890244 -0.403333 0
2.987805 -0.403333 0
3.085366 -0.403333 0
3.182927 -0.403333 0
3.280488 -0.403333 0
3.378049 -0.403333 0
3.475610 -0.403333 0
3.573171 -0.403333 0
3.670732 -0.403333 0
3.768293 -0.403333 0
3.865854 -0.403333 0
3.963415 -0.403333 0
4.060976 -0.403333 0
4.158537 -0.403333 0
4.256098 -0.403333 0
4.353659 -0.403333 0
4.451220 -0.403333 0
4.548780 -0.403333 0
4.646341 -0.403333 0
4.743902 -0.403333 0
4.841463 -0.403333 0
4.939024 -0.403333 0
5.036585 -0.403333 0
5.134146 -0.403333 0
5.231707 -0.403333 0
5.329268 -0.403333 0
5.426829 -0.403333 0
5.524390 -0.403333 0
5.621951 -0.403333 0
5.719512 -0.403333 0
5.817073 -0.403333 0
5.914634 -0.403333 0
6.012195 -0.403333 0
6.109756 -0.403333 0
6.207317 -0.403333 0
6.304878 -0.403333 0
6.402439 -0.403333 0
-1.500000 -0.355000 0
-1.402439 -0.355000 0
-1.304878 -0.355000 0
-1.207317 -0.355000 0
-1.109756 -0.355000 0
-1.012195 -0.355000 0
-0.914634 -0.355000 0
-0.817073 -0.355000 0
-0.719512 -0.355000 0
-0.621951 -0.355000 0
-0.524390 -0.355000 0
-0.426829 -0.355000 0
-0.329268 -0.355000 0
-0.231707 -0.355000 0
-0.134146 -0.355000 0
-0.036585 -0.355000 0
0.060976 -0.355000 0
0.158537 -0.355000 0
0.256098 -0.355000 0
0.353659 -0.355000 0
0.451220 -0.355000 0
0.548780 -0.355000 0
0.646341 -0.355000 0
0.743902 -0.355000 0
0.841463 -0.355000 0
0.939024 -0.355000 0
1.036585 -0.355000 0
1.134146 -0.355000 0
1.231707 -0.355000 0
1.329268 -0.355000 0
1.426829 -0.355000 0
1.524390 -0.355000 0
1.621951 -0.355000 0
1.719512 -0.355000 0
1.817073 -0.355000 0
1.914634 -0.355000 0
2.012195 -0.355000 0
2.109756 -0.355000 0
2.207317 -0.355000 0
2.304878 -0.355000 0
2.402439 -0.355000 0
2.500000 -0.355000 0
2.597561 -0.355000 0
2.695122 -0.355000 0
2.792683 -0.355000 0
2.890244 -0.355000 0
2.987805 -0.355000 0
3.085366 -0.355000 0
3.182927 -0.355000 0
3.280488 -0.355000 0
3.378049 -0.355000 0
3.475610 -0.355000 0
3.573171 -0.355000 0
3.670732 -0.355000 0
3.768293 -0.355000 0
3.865854 -0.355000 0
3.963415 -0.355000 0
4.060976 -0.355000 0
4.158537 -0.355000 0
4.256098 -0.355000 0
4.353659 -0.355000 0
4.451220 -0.355000 0
4.548780 -0.355000 0
4.646341 -0.355000 0
4.743902 -0.355000 0
4.841463 -0.355000 0
4.939024 -0.355000 0
5.036585 -0.355000 0
5.134146 -0.355000 0
5.231707 -0.355000 0
5.329268 -0.355000 0
5.426829 -0.355000 0
5.524390 -0.355000 0
5.621951 -0.355000 0
5.719512 -0.355000 0
5.817073 -0.355000 0
5.914634 -0.355000 0
6.012195 -0.355000 0
6.109756 -0.355000 0
6.207317 -0.355000 0
6.304878 -0.355000 0
6.402439 -0.355000 0
-1.500000 -0.306667 0
-1.402439 -0.306667 0
-1.304878 -0.306667 0
-1.207317 -0.306667 0
-1.109756 -0.306667 0
-1.012195 -0.306667 0
-0.914634 -0.306667 0
-0.817073 -0.306667 0
-0.719512 -0.306667 0
-0.621951 -0.306667 0
-0.524390 -0.306667 0
-0.426829 -0.306667 0
-0.329268 -0.306667 0
-0.231707 -0.306667 0
-0.134146 -0.306667 0
-0.036585 -0.306667 0
0.060976 -0.306667 0
0.158537 -0.306667 0
0.256098 -0.306667 0
0.353659 -0.306667 0
0.451220 -0.306667 0
0.548780 -0.306667 0
0.646341 -0.306667 0
0.743902 -0.306667 0
0.841463 -0.306667 0
0.939024 -0.306667 0
1.036585 -0.306667 0
1.134146 -0.306667 0
1.231707 -0.306667 0
1.329268 -0.306667 0
1.426829 -0.306667 0
1.524390 -0.306667 0
1.621951 -0.306667 0
1.719512 -0.306667 0
1.817073 -0.306667 0
1.914634 -0.306667 0
2.012195 -0.306667 0
2.109756 -0.306667 0
2.207317 -0.306667 0
2.304878 -0.306667 0
2.402439 -0.306667 0
2.500000 -0.306667 0
2.597561 -0.306667 0
2.695122 -0.306667 0
2.792683 -0.306667 0
2.890244 -0.306667 0
2.987805 -0.306667 0
3.085366 -0.306667 0
3.182927 -0.306667 0
3.280488 -0.306667 0
3.378049 -0.306667 0
3.475610 -0.306667 0
3.573171 -0.306667 0
3.670732 -0.306667 0
3.768293 -0.306667 0
3.865854 -0.306667 0
3.963415 -0.306667 0
4.060976 -0.306667 0
4.158537 -0.306667 0
4.256098 -0.306667 0
4.353659 -0.306667 0
4.451220 -0.306667 0
4.548780 -0.306667 0
4.646341 -0.306667 0
4.743902 -0.306667 0
4.841463 -0.306667 0
4.939024 -0.306667 0
5.036585 -0.306667 0
5.134146 -0.306667 0
5.231707 -0.306667 0
5.329268 -0.306667 0
5.426829 -0.306667 0
5.524390 -0.306667 0
5.621951 -0.306667 0
5.719512 -0.306667 0
5.817073 -0.306667 0
5.914634 -0.306667 0
6.012195 -0.306667 0
6.109756 -0.306667 0
6.207317 -0.306667 0
6.304878 -0.306667 0
6.402439 -0.306667 0
-1.500000 -0.258333 0
-1.402439 -0.258333 0
-1.304878 -0.258333 0
-1.207317 -0.258333 0
-1.109756 -0.258333 0
-1.012195 -0.258333 0
-0.914634 -0.258333 0
-0.817073 -0.258333 0
-0.719512 -0.258333 0
-0.621951 -0.258333 0
-0.524390 -0.258333 0
-0.426829 -0.258333 0
-0.329268 -0.258333 0
-0.231707 -0.258333 0
-0.134146 -0.258333 0
-0.036585 -0.258333 0
0.060976 -0.258333 0
0.158537 -0.258333 0
0.256098 -0.258333 0
0.353659 -0.258333 0
0.451220 -0.258333 0
0.548780 -0.258333 0
0.646341 -0.258333 0
0.743902 -0.258333 0
0.841463 -0.258333 0
0.939024 -0.258333 0
1.036585 -0.258333 0
1.134146 -0.258333 0
1.231707 -0.258333 0
1.329268 -0.258333 0
1.426829 -0.258333 0
1.524390 -0.258333 0
1.621951 -0.258333 0
1.719512 -0.258333 0
1.817073 -0.258333 0
1.914634 -0.258333 0
2.012195 -0.258333 0
2.109756 -0.258333 0
2.207317 -0.258333 0
2.304878 -0.258333 0
2.402439 -0.258333 0
2.500000 -0.258333 0
2.597561 -0.258333 0
2.695122 -0.258333 0
2.792683 -0.258333 0
2.890244 -0.258333 0
2.987805 -0.258333 0
3.085366 -0.258333 0
3.182927 -0.258333 0
3.280488 -0.258333 0
3.378049 -0.258333 0
3.475610 -0.258333 0
3.573171 -0.258333 0
[...]
POINT_DATA 4920 

VECTORS velocity float
0.000000 0.000000 0
0.000000 0.000000 0
0.000000 0.000000 0
0.000000 0.000000 0
0.000000 0.000000 0
0.000000 0.000000 0
0.000000 0.000000 0
0.000000 0.000000 0
0.000000 0.000000 0
0.000000 0.000000 0
0.000000 0.000000 0
0.000000 0.000000 0
0.000000 0.000000 0
0.000000 0.000000 0
0.000000 0.000000 0
0.000003 0.000000 0
0.000004 0.000000 0
0.000005 0.000000 0
0.000005 0.000000 0
0.000005 0.000000 0
0.000005 0.000000 0
0.000005 0.000000 0
0.000006 0.000000 0
0.000006 0.000000 0
0.000007 0.000000 0
0.000007 0.000000 0
0.000007 0.000000 0
0.000007 0.000000 0
0.000007 0.000000 0
0.000006 0.000000 0
0.000006 0.000000 0
0.000005 0.000000 0
0.000005 0.000000 0
0.000005 0.000000 0
0.000005 0.000000 0
0.000005 0.000000 0
0.000005 0.000000 0
0.000006 0.000000 0
0.000006 0.000000 0
0.000006 0.000000 0
0.000006 0.000000 0
0.000006 0.000000 0
0.000006 0.000000 0
0.000006 0.000000 0
0.000006 0.000000 0
0.000006 0.000000 0
0.000006 0.000000 0
0.000006 0.000000 0
0.000006 0.000000 0
0.000006 0.000000 0
0.000006 0.000000 0
0.000006 0.000000 0
0.000006 0.000000 0
0.000006 0.000000 0
0.000006 0.000000 0
0.000005 0.000000 0
0.000000 0.000000 0
0.001912 0.000000 0
0.000000 0.000000 0
0.000000 0.000000 0
0.000000 0.000000 0
0.000000 0.000000 0
0.000000 0.000000 0
0.000000 0.000000 0
0.000000 0.000000 0
0.000000 0.000000 0
0.000000 0.000000 0
0.000000 0.000000 0
0.000000 0.000000 0
0.000000 0.000000 0
0.000000 0.000000 0
0.000000 0.000000 0
0.000000 0.000000 0
0.000000 0.000000 0
0.000000 0.000000 0
0.000000 0.000000 0
0.000000 0.000000 0
0.000000 0.000000 0
0.000000 0.000000 0
0.000000 0.000000 0
0.000000 0.000000 0
0.000000 0.000000 0
0.000000 0.000000 0
0.000000 0.000000 0
0.000000 0.000000 0
0.000000 0.000000 0
0.000000 0.000000 0
0.000000 0.000000 0
0.000000 0.000000 0
0.000000 0.000000 0
0.000000 0.000000 0
0.000000 0.000000 0
0.000000 0.000000 0
0.000000 0.000000 0
0.000000 0.000000 0
0.000000 0.000000 0
1.046327 -0.422507 0
2.518116 -0.738148 0
3.779441 -0.505073 0
4.622336 -0.265362 0
5.055747 -0.070123 0
5.166748 0.061895 0
5.062954 0.139680 0
4.829590 0.177685 0
4.530754 0.186469 0
4.213301 0.174997 0
3.909513 0.151133 0
3.639181 0.121610 0
3.411760 0.091726 0
3.228862 0.065067 0
3.086909 0.043482 0
2.979591 0.027384 0
2.899765 0.016240 0
2.840686 0.009074 0
2.796620 0.004830 0
2.763034 0.002582 0
2.736530 0.001607 0
2.714665 0.001390 0
2.695741 0.001589 0
2.678600 0.001994 0
2.662447 0.002494 0
2.646709 0.003046 0
2.630911 0.003658 0
2.614586 0.004374 0
2.597180 0.005272 0
2.577964 0.006463 0
2.555942 0.008098 0
2.529722 0.010378 0
2.497366 0.013571 0
2.456184 0.018026 0
2.402469 0.024191 0
2.331168 0.032613 0
2.235511 0.043894 0
2.106667 0.058515 0
1.933784 0.076537 0
1.704435 0.096463 0
1.408789 0.115149 0
1.038005 0.130637 0
0.615980 0.068766 0
0.000000 0.000000 0
-0.001565 0.000000 0
0.000000 0.000000 0
0.000000 0.000000 0
0.000000 0.000000 0
0.000000 0.000000 0
0.000000 0.000000 0
0.000000 0.000000 0
0.000000 0.000000 0
0.000000 0.000000 0
0.000000 0.000000 0
0.000000 0.000000 0
0.000000 0.000000 0
0.000000 0.000000 0
0.000000 0.000000 0
0.000000 0.000000 0
0.000000 0.000000 0
0.000000 0.000000 0
0.000000 0.000000 0
0.000000 0.000000 0
0.000000 0.000000 0
0.000000 0.000000 0
0.000000 0.000000 0
0.000000 0.000000 0
0.000000 0.000000 0
0.000000 0.000000 0
0.000000 0.000000 0
0.000000 0.000000 0
0.000000 0.000000 0
0.000000 0.000000 0
0.000000 0.000000 0
0.000000 0.000000 0
0.000000 0.000000 0
0.000000 0.000000 0
0.000000 0.000000 0
0.000000 0.000000 0
0.000000 0.000000 0
0.000000 0.000000 0
1.159502 -0.516966 0
2.653532 -1.245907 0
3.828232 -1.353822 0
5.002052 -1.042465 0
5.863319 -0.632303 0
6.390315 -0.269711 0
6.646481 -0.003571 0
6.706301 0.167034 0
6.637882 0.263661 0
6.490702 0.305320 0
6.300913 0.307773 0
6.094560 0.284429 0
5.889759 0.246595 0
5.698302 0.203279 0
5.526946 0.160937 0
5.378552 0.123493 0
5.253146 0.092715 0
5.148900 0.068816 0
5.062974 0.051100 0
4.992182 0.038470 0
4.933435 0.029770 0
4.884007 0.023963 0
4.841629 0.020207 0
4.804496 0.017867 0
4.771204 0.016494 0
4.740663 0.015800 0
4.712002 0.015624 0
4.684475 0.015914 0
4.657369 0.016711 0
4.629906 0.018143 0
4.601154 0.020430 0
4.569901 0.023900 0
4.534520 0.029019 0
4.492770 0.036432 0
4.441549 0.047013 0
4.376539 0.061935 0
4.291732 0.082714 0
4.178801 0.111221 0
4.026293 0.149481 0
3.818711 0.199272 0
3.535875 0.260091 0
3.153517 0.330161 0
2.645982 0.392263 0
2.013304 0.511942 0
1.049580 0.303372 0
0.000000 0.000000 0
-0.004707 0.000000 0
0.000000 0.000000 0
0.000000 0.000000 0
0.000000 0.000000 0
0.000000 0.000000 0
0.000000 0.000000 0
0.000000 0.000000 0
0.000000 0.000000 0
0.000000 0.000000 0
0.000000 0.000000 0
0.000000 0.000000 0
0.000000 0.000000 0
0.000000 0.000000 0
0.000000 0.000000 0
0.000000 0.000000 0
0.000000 0.000000 0
0.000000 0.000000 0
0.000000 0.000000 0
0.000000 0.000000 0
0.000000 0.000000 0
0.000000 0.000000 0
0.000000 0.000000 0
0.000000 0.000000 0
0.000000 0.000000 0
0.000000 0.000000 0
0.000000 0.000000 0
0.000000 0.000000 0
0.000000 0.000000 0
0.000000 0.000000 0
0.000000 0.000000 0
0.000000 0.000000 0
0.000000 0.000000 0
0.000000 0.000000 0
0.000000 0.000000 0
0.000000 0.000000 0
0.936008 -0.582484 0
2.634318 -1.321250 0
3.461962 -1.743239 0
4.644489 -1.901644 0
5.707730 -1.513290 0
6.430710 -0.953130 0
6.855497 -0.458114 0
7.078693 -0.094650 0
7.166872 0.143940 0
7.168832 0.284496 0
7.117738 0.353409 0
7.035792 0.371252 0
6.937844 0.354825 0
6.833989 0.317922 0
6.731195 0.271470 0
6.634162 0.223477 0
6.545755 0.179127 0
6.467299 0.141157 0
6.398905 0.110454 0
6.339846 0.086715 0
6.288918 0.069006 0
6.244751 0.056173 0
6.206011 0.047089 0
6.171518 0.040781 0
6.140287 0.036479 0
6.111518 0.033618 0
6.084569 0.031824 0
6.058898 0.030883 0
6.034017 0.030724 0
6.009430 0.031408 0
5.984572 0.033121 0
5.958733 0.036190 0
5.930975 0.041109 0
5.900008 0.048590 0
5.864038 0.059630 0
5.820533 0.075609 0
5.765906 0.098413 0
5.695038 0.130575 0
5.600574 0.175397 0
5.471889 0.236910 0
5.293455 0.319498 0
5.043143 0.426011 0
4.689085 0.556017 0
4.198730 0.695518 0
3.528510 0.855926 0
2.829152 0.996090 0
1.341430 0.522369 0
0.000000 0.000000 0
-0.005781 0.000000 0
0.000000 0.000000 0
0.000000 0.000000 0
0.000000 0.000000 0
0.000000 0.000000 0
0.000000 0.000000 0
0.000000 0.000000 0
0.000000 0.000000 0
0.000000 0.000000 0
0.000000 0.000000 0
0.000000 0.000000 0
0.000000 0.000000 0
0.000000 0.000000 0
0.000000 0.000000 0
0.000000 0.000000 0
0.000000 0.000000 0
0.000000 0.000000 0
0.000000 0.000000 0
0.000000 0.000000 0
0.000000 0.000000 0
0.000000 0.000000 0
0.000000 0.000000 0
0.000000 0.000000 0
0.000000 0.000000 0
0.000000 0.000000 0
0.000000 0.000000 0
0.000000 0.000000 0
0.000000 0.000000 0
0.000000 0.000000 0
0.000000 0.000000 0
0.000000 0.000000 0
0.000000 0.000000 0
0.000000 0.000000 0
0.738292 -0.467340 0
2.144138 -1.316758 0
3.089958 -1.776413 0
3.864371 -2.241779 0
5.207255 -2.466413 0
6.162679 -1.927389 0
6.688009 -1.200926 0
6.945721 -0.590732 0
7.064364 -0.157831 0
7.110933 0.122378 0
7.115022 0.288003 0
7.096964 0.371230 0
7.068174 0.396895 0
7.034376 0.384405 0
6.998336 0.348972 0
6.961673 0.302276 0
6.925669 0.252807 0
6.891441 0.206160 0
6.859840 0.165466 0
6.831346 0.131958 0
6.806057 0.105589 0
6.783770 0.085582 0
6.764098 0.070843 0
6.746577 0.060243 0
6.730752 0.052768 0
6.716211 0.047592 0
6.702609 0.044098 0
6.689656 0.041869 0
6.677106 0.040668 0
6.664729 0.040421 0
6.652283 0.041207 0
6.639484 0.043260 0
6.625958 0.046983 0
6.611194 0.052993 0
6.594469 0.062181 0
6.574746 0.075805 0
6.550513 0.095630 0
6.519553 0.124108 0
6.478562 0.164622 0
6.422512 0.221773 0
6.343584 0.301633 0
6.229157 0.411681 0
6.058797 0.559506 0
5.798737 0.748497 0
5.405538 0.967232 0
4.836021 1.190454 0
4.165109 1.389105 0
3.374065 1.408901 0
1.498449 0.669641 0
0.000000 0.000000 0
-0.005215 0.000000 0
0.000000 0.000000 0
0.000000 0.000000 0
0.000000 0.000000 0
0.000000 0.000000 0
0.000000 0.000000 0
0.000000 0.000000 0
0.000000 0.000000 0
0.000000 0.000000 0
0.000000 0.000000 0
0.000000 0.000000 0
0.000000 0.000000 0
0.000000 0.000000 0
0.000000 0.000000 0
0.000000 0.000000 0
0.000000 0.000000 0
0.000000 0.000000 0
0.000000 0.000000 0
0.000000 0.000000 0
0.000000 0.000000 0
0.000000 0.000000 0
0.000000 0.000000 0
0.000000 0.000000 0
0.000000 0.000000 0
0.000000 0.000000 0
0.000000 0.000000 0
0.000000 0.000000 0
0.000000 0.000000 0
0.000000 0.000000 0
0.000000 0.000000 0
0.000000 0.000000 0
0.536084 -0.369237 0
1.698319 -1.069342 0
2.544909 -1.751164 0
3.300326 -2.173482 0
4.126132 -2.792183 0
5.618542 -3.040264 0
6.351424 -2.246880 0
6.584007 -1.341062 0
6.617384 -0.644567 0
6.605160 -0.176498 0
6.590415 0.118843 0
6.580402 0.291417 0
6.579217 0.376618 0
6.586230 0.402259 0
6.598525 0.389424 0
6.612679 0.353941 0
6.626022 0.307471 0
6.637082 0.258271 0
6.645455 0.211740 0
6.651420 0.170929 0
6.655557 0.137099 0
6.658474 0.110285 0
6.660666 0.089794 0
6.662479 0.074599 0
6.664124 0.063609 0
6.665715 0.055825 0
6.667298 0.050421 0
6.668885 0.046774 0
6.670465 0.044458 0
6.672019 0.043232 0
6.673527 0.043022 0
6.674963 0.043915 0
6.676297 0.046164 0
6.677488 0.050205 0
6.678474 0.056709 0
6.679152 0.066647 0
6.679346 0.081407 0
6.678750 0.102952 0
6.676812 0.134059 0
6.672526 0.178651 0
6.663997 0.242267 0
6.647543 0.332701 0
6.615670 0.460586 0
6.552984 0.639249 0
6.427649 0.879652 0
6.183193 1.172463 0
5.770809 1.470456 0
5.218835 1.720367 0
4.577515 1.851659 0
3.665398 1.684872 0
1.552967 0.747478 0
0.000000 0.000000 0
-0.003904 0.000000 0
0.000000 0.000000 0
0.000000 0.000000 0
0.000000 0.000000 0
0.000000 0.000000 0
0.000000 0.000000 0
0.000000 0.000000 0
0.000000 0.000000 0
0.000000 0.000000 0
0.000000 0.000000 0
0.000000 0.000000 0
0.000000 0.000000 0
0.000000 0.000000 0
0.000000 0.000000 0
0.000000 0.000000 0
0.000000 0.000000 0
0.000000 0.000000 0
0.000000 0.000000 0
0.000000 0.000000 0
0.000000 0.000000 0
0.000000 0.000000 0
0.000000 0.000000 0
0.000000 0.000000 0
0.000000 0.000000 0
0.000000 0.000000 0
0.000000 0.000000 0
0.000000 0.000000 0
0.000000 0.000000 0
0.000000 0.000000 0
0.376382 -0.266918 0
1.297090 -0.846184 0
2.061135 -1.466020 0
2.754017 -2.110420 0
3.394595 -2.559778 0
4.280570 -3.390262 0
5.830646 -3.568860 0
6.151281 -2.405697 0
5.981118 -1.332686 0
5.742286 -0.601212 0
5.589761 -0.144470 0
5.513629 0.134643 0
5.500653 0.293551 0
5.530972 0.368343 0
5.586759 0.387330 0
5.654515 0.371302 0
5.724525 0.335350 0
5.790616 0.290186 0
5.849537 0.243179 0
5.900187 0.199057 0
5.942847 0.160461 0
5.978531 0.128463 0
6.008514 0.103058 0
6.034051 0.083598 0
6.056226 0.069130 0
6.075916 0.058640 0
6.093790 0.051196 0
6.110349 0.046022 0
6.125960 0.042530 0
6.140897 0.040316 0
6.155380 0.039151 0
6.169601 0.038963 0
6.183762 0.039835 0
6.198096 0.042009 0
6.212903 0.045904 0
6.228578 0.052169 0
6.245657 0.061749 0
6.264858 0.076004 0
6.287136 0.096885 0
6.313723 0.127191 0
6.346138 0.170971 0
6.386061 0.234150 0
6.434880 0.325575 0
6.492112 0.458526 0
6.551013 0.652655 0
6.586916 0.931697 0
6.525927 1.292641 0
6.295882 1.668213 0
5.919580 1.980283 0
5.429024 2.178500 0
4.787192 2.178371 0
3.760505 1.830092 0
1.538082 0.773240 0
0.000000 0.000000 0
-0.002538 0.000000 0
0.000000 0.000000 0
0.000000 0.000000 0
0.000000 0.000000 0
0.000000 0.000000 0
0.000000 0.000000 0
0.000000 0.000000 0
0.000000 0.000000 0
0.000000 0.000000 0
0.000000 0.000000 0
0.000000 0.000000 0
0.000000 0.000000 0
0.000000 0.000000 0
0.000000 0.000000 0
0.000000 0.000000 0
0.000000 0.000000 0
0.000000 0.000000 0
0.000000 0.000000 0
0.000000 0.000000 0
0.000000 0.000000 0
0.000000 0.000000 0
0.000000 0.000000 0
0.000000 0.000000 0
0.000000 0.000000 0
0.000000 0.000000 0
0.000000 0.000000 0
0.000000 0.000000 0
0.267892 -0.186417 0
0.995683 -0.643884 0
1.702148 -1.205225 0
2.319579 -1.791128 0
2.880351 -2.411783 0
3.395528 -2.929762 0
4.284196 -3.999043 0
5.743852 -3.967045 0
5.401423 -2.321426 0
4.738259 -1.138440 0
4.209556 -0.450682 0
3.920474 -0.063218 0
3.816662 0.162989 0
3.848016 0.282825 0
3.953897 0.333960 0
4.093808 0.341054 0
4.243690 0.321173 0
4.388948 0.286514 0
4.521612 0.245538 0
4.638144 0.203988 0
4.737882 0.165512 0
4.821902 0.132116 0
4.892178 0.104567 0
4.950998 0.082779 0
5.000599 0.066157 0
5.042972 0.053859 0
5.079790 0.044999 0
5.112398 0.038766 0
5.141852 0.034484 0
5.168973 0.031640 0
5.194400 0.029883 0
5.218659 0.029012 0
5.242218 0.028961 0
5.265543 0.029798 0
5.289162 0.031727 0
5.313729 0.035104 0
5.340102 0.040482 0
5.369445 0.048673 0
5.403352 0.060857 0
5.444014 0.078744 0
5.494436 0.104829 0
5.558699 0.142814 0
5.642252 0.198303 0
5.752110 0.280162 0
5.896560 0.403052 0
6.081372 0.592281 0
6.300955 0.892080 0
6.455681 1.316647 0
6.419818 1.770850 0
6.246354 2.149823 0
5.944397 2.412663 0
5.503110 2.511484 0
4.831605 2.366463 0
3.718486 1.874731 0
1.481277 0.764384 0
-0.000000 0.000000 0
-0.001521 0.000000 0
0.000000 0.000000 0
0.000000 0.000000 0
0.000000 0.000000 0
0.000000 0.000000 0
0.000000 0.000000 0
0.000000 0.000000 0
0.000000 0.000000 0
0.000000 0.000000 0
0.000000 0.000000 0
0.000000 0.000000 0
0.000000 0.000000 0
0.000000 0.000000 0
0.000000 0.000000 0
0.000000 0.000000 0
0.000000 0.000000 0
0.000000 0.000000 0
0.000000 0.000000 0
0.000000 0.000000 0
0.000000 0.000000 0
0.000000 0.000000 0
0.000000 0.000000 0
0.000000 0.000000 0
0.000000 0.000000 0
0.000000 0.000000 0
0.209177 -0.131828 0
0.805240 -0.492339 0
1.468250 -0.977423 0
2.052533 -1.502064 0
2.535078 -2.049721 0
2.939069 -2.643463 0
3.298063 -3.255266 0
4.068600 -4.553661 0
5.219192 -4.122353 0
3.916933 -1.907510 0
2.775595 -0.742215 0
2.002577 -0.196068 0
1.719317 0.050176 0
1.749867 0.170540 0
1.910251 0.225562 0
2.129431 0.246573 0
2.368654 0.243761 0
2.604920 0.225085 0
2.823579 0.197663 0
3.017301 0.166731 0
3.183546 0.136036 0
3.322850 0.108021 0
3.437608 0.084021 0
3.531158 0.064507 0
3.607136 0.049345 0
3.669048 0.038032 0
3.720024 0.029897 0
3.762707 0.024245 0
3.799234 0.020449 0
3.831280 0.017994 0
3.860135 0.016497 0
3.886791 0.015700 0
3.912036 0.015461 0
3.936551 0.015736 0
3.960998 0.016578 0
3.986114 0.018137 0
4.012809 0.020668 0
4.042290 0.024566 0
4.076207 0.030414 0
4.116860 0.039062 0
4.167471 0.051761 0
4.232575 0.070374 0
4.318560 0.097740 0
4.434474 0.138331 0
4.593025 0.199586 0
4.812875 0.295404 0
5.115921 0.452310 0
5.542890 0.746259 0
5.975057 1.233755 0
6.149878 1.771917 0
6.205045 2.215815 0
6.125302 2.546715 0
5.892371 2.729666 0
5.466903 2.714224 0
4.754031 2.439958 0
3.591324 1.850273 0
1.405736 0.735013 0
-0.000000 0.000000 0
-0.001040 0.000000 0
0.000000 0.000000 0
0.000000 0.000000 0
0.000000 0.000000 0
0.000000 0.000000 0
0.000000 0.000000 0
0.000000 0.000000 0
0.000000 0.000000 0
0.000000 0.000000 0
0.000000 0.000000 0
0.000000 0.000000 0
0.000000 0.000000 0
0.000000 0.000000 0
0.000000 0.000000 0
0.000000 0.000000 0
0.000000 0.000000 0
0.000000 0.000000 0
0.000000 0.000000 0
0.000000 0.000000 0
0.000000 0.000000 0
0.000000 0.000000 0
0.000000 0.000000 0
0.000000 0.000000 0
0.195277 -0.102269 0
0.724165 -0.396679 0
1.360220 -0.809293 0
1.928260 -1.261814 0
2.381394 -1.733750 0
2.709646 -2.230333 0
2.934878 -2.789778 0
3.101286 -3.489350 0
3.571464 -4.950802 0
4.021243 -3.891906 0
1.557135 -1.110827 0
0.421841 -0.190036 0
0.058971 0.072615 0
0.026079 0.061979 0
0.160250 0.068397 0
0.370314 0.094783 0
0.615549 0.106859 0
0.868024 0.105489 0
1.107581 0.095796 0
1.322357 0.082214 0
1.506565 0.067204 0
1.658904 0.052614 0
1.781154 0.039646 0
1.876944 0.028917 0
1.950750 0.020580 0
2.007152 0.014466 0
2.050353 0.010230 0
2.083920 0.007459 0
2.110701 0.005758 0
2.132859 0.004793 0
2.151976 0.004312 0
2.169179 0.004139 0
2.185275 0.004171 0
2.200871 0.004360 0
2.216482 0.004704 0
2.232633 0.005244 0
2.249946 0.006059 0
2.269242 0.007274 0
2.291664 0.009074 0
2.318829 0.011730 0
2.353054 0.015643 0
2.397675 0.021416 0
2.457534 0.029977 0
2.539725 0.042789 0
2.654822 0.062329 0
2.818948 0.092695 0
3.057688 0.144001 0
3.415222 0.230619 0
3.970678 0.466450 0
4.893700 1.015935 0
5.377957 1.656910 0
5.755579 2.161998 0
5.961299 2.567567 0
5.973796 2.837665 0
5.780310 2.930416 0
5.345268 2.803924 0
4.598715 2.427539 0
3.426342 1.783902 0
1.333192 0.696771 0
-0.000001 0.000000 0
-0.001214 0.000000 0
0.000000 0.000000 0
0.000000 0.000000 0
0.000000 0.000000 0
0.000000 0.000000 0
0.000000 0.000000 0
0.000000 0.000000 0
0.000000 0.000000 0
0.000000 0.000000 0
0.000000 0.000000 0
0.000000 0.000000 0
0.000000 0.000000 0
0.000000 0.000000 0
0.000000 0.000000 0
0.000000 0.000000 0
0.000000 0.000000 0
0.000000 0.000000 0
0.000000 0.000000 0
0.000000 0.000000 0
0.000000 0.000000 0
0.000000 0.000000 0
0.225108 -0.095056 0
0.750920 -0.355715 0
1.379895 -0.707600 0
1.940703 -1.088868 0
2.379899 -1.483330 0
2.678778 -1.889175 0
2.838541 -2.323926 0
2.877842 -2.837488 0
2.824632 -3.570642 0
2.796731 -5.009422 0
1.634883 -3.000114 0
0.000002 0.000000 0
0.000001 0.000000 0
0.000002 0.000000 0
0.000004 0.000000 0
0.000006 0.000000 0
0.000007 0.000000 0
0.000007 0.000000 0
0.000007 0.000000 0
0.000006 0.000000 0
0.000005 0.000000 0
0.000005 0.000000 0
0.000005 0.000000 0
0.000005 0.000000 0
0.000005 0.000000 0
0.000005 0.000000 0
0.000006 0.000000 0
0.000006 0.000000 0
0.000006 0.000000 0
0.000006 0.000000 0
0.000006 0.000000 0
0.000006 0.000000 0
0.000006 0.000000 0
0.000006 0.000000 0
0.000006 0.000000 0
0.000006 0.000000 0
0.000006 0.000000 0
0.000006 0.000000 0
0.000006 0.000000 0
0.000006 0.000000 0
0.000006 0.000000 0
0.000006 0.000000 0
0.000006 0.000000 0
0.000006 0.000000 0
0.000006 0.000000 0
0.000006 0.000000 0
0.000006 0.000000 0
0.000006 0.000000 0
0.000006 0.000000 0
0.000005 0.000000 0
2.078958 0.522769 0
3.750686 1.344928 0
4.740832 1.926817 0
5.376609 2.438607 0
5.716693 2.819331 0
5.790302 3.025607 0
5.610394 3.025340 0
5.162694 2.800940 0
4.407288 2.355164 0
3.265800 1.699763 0
1.281126 0.660425 0
-0.000001 0.000000 0
-0.002066 0.000000 0
0.000000 0.000000 0
0.000000 0.000000 0
0.000000 0.000000 0
0.000000 0.000000 0
0.000000 0.000000 0
0.000000 0.000000 0
0.000000 0.000000 0
0.000000 0.000000 0
0.000000 0.000000 0
0.000000 0.000000 0
0.000000 0.000000 0
0.000000 0.000000 0
0.000000 0.000000 0
0.000000 0.000000 0
0.000000 0.000000 0
0.000000 0.000000 0
0.000000 0.000000 0
0.000000 0.000000 0
0.308885 -0.109473 0
0.897142 -0.368281 0
1.541237 -0.672682 0
2.095775 -0.986117 0
2.519301 -1.304711 0
2.796708 -1.627468 0
2.926667 -1.960968 0
2.918533 -2.328953 0
2.784899 -2.782887 0
2.522098 -3.449167 0
2.017639 -4.378406 0
0.037593 -0.000008 0
-0.073834 2.449134 0
0.383631 0.000000 0
0.309753 0.000000 0
0.237060 0.000000 0
0.184653 0.000000 0
0.099004 0.000000 0
-0.006664 0.000000 0
-0.116692 0.000000 0
-0.219595 0.000000 0
-0.310057 0.000000 0
-0.385544 0.000000 0
-0.445710 0.000000 0
-0.491745 0.000000 0
-0.525735 0.000000 0
-0.550114 0.000000 0
-0.567275 0.000000 0
-0.579314 0.000000 0
-0.587923 0.000000 0
-0.594370 0.000000 0
-0.599545 0.000000 0
-0.604045 0.000000 0
-0.608249 0.000000 0
-0.612400 0.000000 0
-0.616668 0.000000 0
-0.621200 0.000000 0
-0.626164 0.000000 0
-0.631786 0.000000 0
-0.638394 0.000000 0
-0.646468 0.000000 0
-0.656709 0.000000 0
-0.670145 0.000000 0
-0.688285 0.000000 0
-0.713374 0.000000 0
-0.748793 0.000000 0
-0.799744 0.000000 0
-0.874603 0.000000 0
-0.986850 0.000000 0
-1.165270 0.000000 0
-1.452357 0.133084 0
0.000000 -0.000020 0
1.714941 0.341559 0
3.316515 1.356489 0
4.417544 2.084109 0
5.128729 2.632715 0
5.502909 2.983078 0
5.585873 3.114852 0
5.403291 3.023578 0
4.955712 2.723656 0
4.223720 2.246731 0
3.149514 1.619130 0
1.267328 0.634682 0
-0.000001 0.000000 0
-0.003820 0.000000 0
0.000000 0.000000 0
0.000000 0.000000 0
0.000000 0.000000 0
0.000000 0.000000 0
0.000000 0.000000 0
0.000000 0.000000 0
0.000000 0.000000 0
0.000000 0.000000 0
0.000000 0.000000 0
0.000000 0.000000 0
0.000000 0.000000 0
0.000000 0.000000 0
0.000000 0.000000 0
0.000000 0.000000 0
0.000000 0.000000 0
0.000000 0.000000 0
0.482515 -0.150447 0
1.207371 -0.439830 0