# vtk DataFile Version 2.0
generated by CFD-lab course output (written by Tobias Neckel) 
ASCII

DATASET STRUCTURED_GRID
DIMENSIONS  82 60 1 
POINTS 4920 float

-1.500000 -0.500000 0
-1.402439 -0.500000 0
-1.304878 -0.500000 0
-1.207317 -0.500000 0
-1.109756 -0.500000 0
-1.012195 -0.500000 0
-0.914634 -0.500000 0
-0.817073 -0.500000 0
-0.719512 -0.500000 0
-0.621951 -0.500000 0
-0.524390 -0.500000 0
-0.426829 -0.500000 0
-0.329268 -0.500000 0
-0.231707 -0.500000 0
-0.134146 -0.500000 0
-0.036585 -0.500000 0
0.060976 -0.500000 0
0.158537 -0.500000 0
0.256098 -0.500000 0
0.353659 -0.500000 0
0.451220 -0.500000 0
0.548780 -0.500000 0
0.646341 -0.500000 0
0.743902 -0.500000 0
0.841463 -0.500000 0
0.939024 -0.500000 0
1.036585 -0.500000 0
1.134146 -0.500000 0
1.231707 -0.500000 0
1.329268 -0.500000 0
1.426829 -0.500000 0
1.524390 -0.500000 0
1.621951 -0.500000 0
1.719512 -0.500000 0
1.817073 -0.500000 0
1.914634 -0.500000 0
2.012195 -0.500000 0
2.109756 -0.500000 0
2.207317 -0.500000 0
2.304878 -0.500000 0
2.402439 -0.500000 0
2.500000 -0.500000 0
2.597561 -0.500000 0
2.695122 -0.500000 0
2.792683 -0.500000 0
2.890244 -0.500000 0
2.987805 -0.500000 0
3.085366 -0.500000 0
3.182927 -0.500000 0
3.280488 -0.500000 0
3.378049 -0.500000 0
3.475610 -0.500000 0
3.573171 -0.500000 0
3.670732 -0.500000 0
3.768293 -0.500000 0
3.865854 -0.500000 0
3.963415 -0.500000 0
4.060976 -0.500000 0
4.158537 -0.500000 0
4.256098 -0.500000 0
4.353659 -0.500000 0
4.451220 -0.500000 0
4.548780 -0.500000 0
4.646341 -0.500000 0
4.743902 -0.500000 0
4.841463 -0.500000 0
4.939024 -0.500000 0
5.036585 -0.500000 0
5.134146 -0.500000 0
5.231707 -0.500000 0
5.329268 -0.500000 0
5.426829 -0.500000 0
5.524390 -0.500000 0
5.621951 -0.500000 0
5.719512 -0.500000 0
5.817073 -0.500000 0
5.914634 -0.500000 0
6.012195 -0.500000 0
6.109756 -0.500000 0
6.207317 -0.500000 0
6.304878 -0.500000 0
6.402439 -0.500000 0
-1.500000 -0.451667 0
-1.402439 -0.451667 0
-1.304878 -0.451667 0
-1.207317 -0.451667 0
-1.109756 -0.451667 0
-1.012195 -0.451667 0
-0.914634 -0.451667 0
-0.817073 -0.451667 0
-0.719512 -0.451667 0
-0.621951 -0.451667 0
-0.524390 -0.451667 0
-0.426829 -0.451667 0
-0.329268 -0.451667 0
-0.231707 -0.451667 0
-0.134146 -0.451667 0
-0.036585 -0.451667 0
0.060976 -0.451667 0
0.158537 -0.451667 0
0.256098 -0.451667 0
0.353659 -0.451667 0
0.451220 -0.451667 0
0.548780 -0.451667 0
0.646341 -0.451667 0
0.743902 -0.451667 0
0.841463 -0.451667 0
0.939024 -0.451667 0
1.036585 -0.451667 0
1.134146 -0.451667 0
1.231707 -0.451667 0
1.329268 -0.451667 0
1.426829 -0.451667 0
1.524390 -0.451667 0
1.621951 -0.451667 0
1.719512 -0.451667 0
1.817073 -0.451667 0
1.914634 -0.451667 0
2.012195 -0.451667 0
2.109756 -0.451667 0
2.207317 -0.451667 0
2.304878 -0.451667 0
2.402439 -0.451667 0
2.500000 -0.451667 0
2.597561 -0.451667 0
2.695122 -0.451667 0
2.792683 -0.451667 0
2.890244 -0.451667 0
2.987805 -0.451667 0
3.085366 -0.451667 0
3.182927 -0.451667 0
3.280488 -0.451667 0
3.378049 -0.451667 0
3.475610 -0.451667 0
3.573171 -0.451667 0
3.670732 -0.451667 0
3.768293 -0.451667 0
3.865854 -0.451667 0
3.963415 -0.451667 0
4.060976 -0.451667 0
4.158537 -0.451667 0
4.256098 -0.451667 0
4.353659 -0.451667 0
4.451220 -0.451667 0
4.548780 -0.451667 0
4.646341 -0.451667 0
4.743902 -0.451667 0
4.841463 -0.451667 0
4.939024 -0.451667 0
5.036585 -0.451667 0
5.134146 -0.451667 0
5.231707 -0.451667 0
5.329268 -0.451667 0
5.426829 -0.451667 0
5.524390 -0.451667 0
5.621951 -0.451667 0
5.719512 -0.451667 0
5.817073 -0.451667 0
5.914634 -0.451667 0
6.012195 -0.451667 0
6.109756 -0.451667 0
6.207317 -0.451667 0
6.304878 -0.451667 0
6.402439 -0.451667 0
-1.500000 -0.403333 0
-1.402439 -0.403333 0
-1.304878 -0.403333 0
-1.207317 -0.403333 0
-1.109756 -0.403333 0
-1.012195 -0.403333 0
-0.914634 -0.403333 0
-0.817073 -0.403333 0
-0.719512 -0.403333 0
-0.621951 -0.403333 0
-0.524390 -0.403333 0
-0.426829 -0.403333 0
-0.329268 -0.403333 0
-0.231707 -0.403333 0
-0.134146 -0.403333 0
-0.036585 -0.403333 0
0.060976 -0.403333 0
0.158537 -0.403333 0
0.256098 -0.403333 0
0.353659 -0.403333 0
0.451220 -0.403333 0
0.548780 -0.403333 0
0.646341 -0.403333 0
0.743902 -0.403333 0
0.841463 -0.403333 0
0.939024 -0.403333 0
1.036585 -0.403333 0
1.134146 -0.403333 0
1.231707 -0.403333 0
1.329268 -0.403333 0
1.426829 -0.403333 0
1.524390 -0.403333 0
1.621951 -0.403333 0
1.719512 -0.403333 0
1.817073 -0.403333 0
1.914634 -0.403333 0
2.012195 -0.403333 0
2.109756 -0.403333 0
2.207317 -0.403333 0
2.304878 -0.403333 0
2.402439 -0.403333 0
2.500000 -0.403333 0
2.597561 -0.403333 0
2.695122 -0.403333 0
2.792683 -0.403333 0
2.890244 -0.403333 0
2.987805 -0.403333 0
3.085366 -0.403333 0
3.182927 -0.403333 0
3.280488 -0.403333 0
3.378049 -0.403333 0
3.475610 -0.403333 0
3.573171 -0.403333 0
3.670732 -0.403333 0
3.768293 -0.403333 0
3.865854 -0.403333 0
3.963415 -0.403333 0
4.060976 -0.403333 0
4.158537 -0.403333 0
4.256098 -0.403333 0
4.353659 -0.403333 0
4.451220 -0.403333 0
4.548780 -0.403333 0
4.646341 -0.403333 0
4.743902 -0.403333 0
4.841463 -0.403333 0
4.939024 -0.403333 0
5.036585 -0.403333 0
5.134146 -0.403333 0
5.231707 -0.403333 0
5.329268 -0.403333 0
5.426829 -0.403333 0
5.524390 -0.403333 0
5.621951 -0.403333 0
5.719512 -0.403333 0
5.817073 -0.403333 0
5.914634 -0.403333 0
6.012195 -0.403333 0
6.109756 -0.403333 0
6.207317 -0.403333 0
6.304878 -0.403333 0
6.402439 -0.403333 0
-1.500000 -0.355000 0
-1.402439 -0.355000 0
-1.304878 -0.355000 0
-1.207317 -0.355000 0
-1.109756 -0.355000 0
-1.012195 -0.355000 0
-0.914634 -0.355000 0
-0.817073 -0.355000 0
-0.719512 -0.355000 0
-0.621951 -0.355000 0
-0.524390 -0.355000 0
-0.426829 -0.355000 0
-0.329268 -0.355000 0
-0.231707 -0.355000 0
-0.134146 -0.355000 0
-0.036585 -0.355000 0
0.060976 -0.355000 0
0.158537 -0.355000 0
0.256098 -0.355000 0
0.353659 -0.355000 0
0.451220 -0.355000 0
0.548780 -0.355000 0
0.646341 -0.355000 0
0.743902 -0.355000 0
0.841463 -0.355000 0
0.939024 -0.355000 0
1.036585 -0.355000 0
1.134146 -0.355000 0
1.231707 -0.355000 0
1.329268 -0.355000 0
1.426829 -0.355000 0
1.524390 -0.355000 0
1.621951 -0.355000 0
1.719512 -0.355000 0
1.817073 -0.355000 0
1.914634 -0.355000 0
2.012195 -0.355000 0
2.109756 -0.355000 0
2.207317 -0.355000 0
2.304878 -0.355000 0
2.402439 -0.355000 0
2.500000 -0.355000 0
2.597561 -0.355000 0
2.695122 -0.355000 0
2.792683 -0.355000 0
2.890244 -0.355000 0
2.987805 -0.355000 0
3.085366 -0.355000 0
3.182927 -0.355000 0
3.280488 -0.355000 0
3.378049 -0.355000 0
3.475610 -0.355000 0
3.573171 -0.355000 0
3.670732 -0.355000 0
3.768293 -0.355000 0
3.865854 -0.355000 0
3.963415 -0.355000 0
4.060976 -0.355000 0
4.158537 -0.355000 0
4.256098 -0.355000 0
4.353659 -0.355000 0
4.451220 -0.355000 0
4.548780 -0.355000 0
4.646341 -0.355000 0
4.743902 -0.355000 0
4.841463 -0.355000 0
4.939024 -0.355000 0
5.036585 -0.355000 0
5.134146 -0.355000 0
5.231707 -0.355000 0
5.329268 -0.355000 0
5.426829 -0.355000 0
5.524390 -0.355000 0
5.621951 -0.355000 0
5.719512 -0.355000 0
5.817073 -0.355000 0
5.914634 -0.355000 0
6.012195 -0.355000 0
6.109756 -0.355000 0
6.207317 -0.355000 0
6.304878 -0.355000 0
6.402439 -0.355000 0
-1.500000 -0.306667 0
-1.402439 -0.306667 0
-1.304878 -0.306667 0
-1.207317 -0.306667 0
-1.109756 -0.306667 0
-1.012195 -0.306667 0
-0.914634 -0.306667 0
-0.817073 -0.306667 0
-0.719512 -0.306667 0
-0.621951 -0.306667 0
-0.524390 -0.306667 0
-0.426829 -0.306667 0
-0.329268 -0.306667 0
-0.231707 -0.306667 0
-0.134146 -0.306667 0
-0.036585 -0.306667 0
0.060976 -0.306667 0
0.158537 -0.306667 0
0.256098 -0.306667 0
0.353659 -0.306667 0
0.451220 -0.306667 0
0.548780 -0.306667 0
0.646341 -0.306667 0
0.743902 -0.306667 0
0.841463 -0.306667 0
0.939024 -0.306667 0
1.036585 -0.306667 0
1.134146 -0.306667 0
1.231707 -0.306667 0
1.329268 -0.306667 0
1.426829 -0.306667 0
1.524390 -0.306667 0
1.621951 -0.306667 0
1.719512 -0.306667 0
1.817073 -0.306667 0
1.914634 -0.306667 0
2.012195 -0.306667 0
2.109756 -0.306667 0
2.207317 -0.306667 0
2.304878 -0.306667 0
2.402439 -0.306667 0
2.500000 -0.306667 0
2.597561 -0.306667 0
2.695122 -0.306667 0
2.792683 -0.306667 0
2.890244 -0.306667 0
2.987805 -0.306667 0
3.085366 -0.306667 0
3.182927 -0.306667 0
3.280488 -0.306667 0
3.378049 -0.306667 0
3.475610 -0.306667 0
3.573171 -0.306667 0
3.670732 -0.306667 0
3.768293 -0.306667 0
3.865854 -0.306667 0
3.963415 -0.306667 0
4.060976 -0.306667 0
4.158537 -0.306667 0
4.256098 -0.306667 0
4.353659 -0.306667 0
4.451220 -0.306667 0
4.548780 -0.306667 0
4.646341 -0.306667 0
4.743902 -0.306667 0
4.841463 -0.306667 0
4.939024 -0.306667 0
5.036585 -0.306667 0
5.134146 -0.306667 0
5.231707 -0.306667 0
5.329268 -0.306667 0
5.426829 -0.306667 0
5.524390 -0.306667 0
5.621951 -0.306667 0
5.719512 -0.306667 0
5.817073 -0.306667 0
5.914634 -0.306667 0
6.012195 -0.306667 0
6.109756 -0.306667 0
6.207317 -0.306667 0
6.304878 -0.306667 0
6.402439 -0.306667 0
-1.500000 -0.258333 0
-1.402439 -0.258333 0
-1.304878 -0.258333 0
-1.207317 -0.258333 0
-1.109756 -0.258333 0
-1.012195 -0.258333 0
-0.914634 -0.258333 0
-0.817073 -0.258333 0
-0.719512 -0.258333 0
-0.621951 -0.258333 0
-0.524390 -0.258333 0
-0.426829 -0.258333 0
-0.329268 -0.258333 0
-0.231707 -0.258333 0
-0.134146 -0.258333 0
-0.036585 -0.258333 0
0.060976 -0.258333 0
0.158537 -0.258333 0
0.256098 -0.258333 0
0.353659 -0.258333 0
0.451220 -0.258333 0
0.548780 -0.258333 0
0.646341 -0.258333 0
0.743902 -0.258333 0
0.841463 -0.258333 0
0.939024 -0.258333 0
1.036585 -0.258333 0
1.134146 -0.258333 0
1.231707 -0.258333 0
1.329268 -0.258333 0
1.426829 -0.258333 0
1.524390 -0.258333 0
1.621951 -0.258333 0
1.719512 -0.258333 0
1.817073 -0.258333 0
1.914634 -0.258333 0
2.012195 -0.258333 0
2.109756 -0.258333 0
2.207317 -0.258333 0
2.304878 -0.258333 0
2.402439 -0.258333 0
2.500000 -0.258333 0
2.597561 -0.258333 0
2.695122 -0.258333 0
2.792683 -0.258333 0
2.890244 -0.258333 0
2.987805 -0.258333 0
3.085366 -0.258333 0
3.182927 -0.258333 0
3.280488 -0.258333 0
3.378049 -0.258333 0
3.475610 -0.258333 0
3.573171 -0.258333 0
[...]
POINT_DATA 4920 

VECTORS velocity float
0.000000 0.000000 0
0.000000 0.000000 0
0.000000 0.000000 0
0.000000 0.000000 0
0.000000 0.000000 0
0.000000 0.000000 0
0.000000 0.000000 0
0.000000 0.000000 0
0.000000 0.000000 0
0.000000 0.000000 0
0.000000 0.000000 0
0.000000 0.000000 0
0.000000 0.000000 0
0.000000 0.000000 0
0.000000 0.000000 0
0.000000 0.000000 0
0.000000 0.000000 0
0.000000 0.000000 0
0.000001 0.000000 0
0.000000 0.000000 0
0.000000 0.000000 0
0.000000 0.000000 0
0.000000 0.000000 0
0.000000 0.000000 0
0.000001 0.000000 0
0.000001 0.000000 0
0.000001 0.000000 0
0.000001 0.000000 0
0.000001 0.000000 0
0.000001 0.000000 0
0.000000 0.000000 0
0.000000 0.000000 0
0.000000 0.000000 0
0.000000 0.000000 0
0.000000 0.000000 0
0.000000 0.000000 0
0.000000 0.000000 0
0.000000 0.000000 0
0.000000 0.000000 0
0.000000 0.000000 0
0.000000 0.000000 0
0.000000 0.000000 0
0.000000 0.000000 0
0.000000 0.000000 0
0.000000 0.000000 0
0.000000 0.000000 0
0.000000 0.000000 0
0.000000 0.000000 0
0.000000 0.000000 0
0.000000 0.000000 0
0.000000 0.000000 0
0.000000 0.000000 0
0.000000 0.000000 0
0.000000 0.000000 0
0.000001 0.000000 0
0.000000 0.000000 0
0.000000 0.000000 0
0.001915 0.000000 0
0.000000 0.000000 0
0.000000 0.000000 0
0.000000 0.000000 0
0.000000 0.000000 0
0.000000 0.000000 0
0.000000 0.000000 0
0.000000 0.000000 0
0.000000 0.000000 0
0.000000 0.000000 0
0.000000 0.000000 0
0.000000 0.000000 0
0.000000 0.000000 0
0.000000 0.000000 0
0.000000 0.000000 0
0.000000 0.000000 0
0.000000 0.000000 0
0.000000 0.000000 0
0.000000 0.000000 0
0.000000 0.000000 0
0.000000 0.000000 0
0.000000 0.000000 0
0.000000 0.000000 0
0.000000 0.000000 0
0.000000 0.000000 0
0.000000 0.000000 0
0.000000 0.000000 0
0.000000 0.000000 0
0.000000 0.000000 0
0.000000 0.000000 0
0.000000 0.000000 0
0.000000 0.000000 0
0.000000 0.000000 0
0.000000 0.000000 0
0.000000 0.000000 0
0.000000 0.000000 0
0.000000 0.000000 0
0.000000 0.000000 0
0.000000 0.000000 0
1.046403 -0.422533 0
2.518316 -0.738211 0
3.779790 -0.505137 0
4.622794 -0.265393 0
5.056239 -0.070114 0
5.167194 0.061934 0
5.063305 0.139736 0
4.829827 0.177739 0
4.530897 0.186507 0
4.213393 0.175009 0
3.909607 0.151123 0
3.639318 0.121588 0
3.411963 0.091703 0
3.229130 0.065051 0
3.087226 0.043477 0
2.979932 0.027389 0
2.900105 0.016253 0
2.841004 0.009091 0
2.796902 0.004848 0
2.763273 0.002597 0
2.736727 0.001619 0
2.714827 0.001398 0
2.695877 0.001592 0
2.678719 0.001994 0
2.662560 0.002492 0
2.646823 0.003042 0
2.631033 0.003653 0
2.614718 0.004369 0
2.597323 0.005267 0
2.578119 0.006459 0
2.556106 0.008095 0
2.529895 0.010375 0
2.497548 0.013567 0
2.456377 0.018021 0
2.402677 0.024184 0
2.331398 0.032602 0
2.235776 0.043878 0
2.106982 0.058493 0
1.934168 0.076508 0
1.704912 0.096432 0
1.409376 0.115116 0
1.038681 0.130702 0
0.616622 0.068848 0
0.000000 0.000000 0
-0.001572 0.000000 0
0.000000 0.000000 0
0.000000 0.000000 0
0.000000 0.000000 0
0.000000 0.000000 0
0.000000 0.000000 0
0.000000 0.000000 0
0.000000 0.000000 0
0.000000 0.000000 0
0.000000 0.000000 0
0.000000 0.000000 0
0.000000 0.000000 0
0.000000 0.000000 0
0.000000 0.000000 0
0.000000 0.000000 0
0.000000 0.000000 0
0.000000 0.000000 0
0.000000 0.000000 0
0.000000 0.000000 0
0.000000 0.000000 0
0.000000 0.000000 0
0.000000 0.000000 0
0.000000 0.000000 0
0.000000 0.000000 0
0.000000 0.000000 0
0.000000 0.000000 0
0.000000 0.000000 0
0.000000 0.000000 0
0.000000 0.000000 0
0.000000 0.000000 0
0.000000 0.000000 0
0.000000 0.000000 0
0.000000 0.000000 0
0.000000 0.000000 0
0.000000 0.000000 0
0.000000 0.000000 0
0.000000 0.000000 0
1.159614 -0.517000 0
2.653764 -1.246004 0
3.828597 -1.353959 0
5.002558 -1.042593 0
5.863934 -0.632374 0
6.390979 -0.269705 0
6.647117 -0.003500 0
6.706856 0.167137 0
6.638335 0.263764 0
6.491065 0.305392 0
6.301222 0.307797 0
6.094860 0.284407 0
5.890094 0.246541 0
5.698702 0.203214 0
5.527423 0.160880 0
5.379099 0.123457 0
5.253744 0.092703 0
5.149523 0.068827 0
5.063595 0.051129 0
4.992777 0.038509 0
4.933991 0.029812 0
4.884517 0.024001 0
4.842094 0.020238 0
4.804923 0.017888 0
4.771602 0.016506 0
4.741044 0.015802 0
4.712376 0.015619 0
4.684852 0.015905 0
4.657752 0.016700 0
4.630301 0.018132 0
4.601561 0.020420 0
4.570321 0.023891 0
4.534951 0.029011 0
4.493214 0.036422 0
4.442008 0.047001 0
4.377017 0.061917 0
4.292239 0.082686 0
4.179350 0.111180 0
4.026905 0.149422 0
3.819416 0.199192 0
3.536711 0.259991 0
3.154529 0.330062 0
2.647167 0.392234 0
2.014761 0.512272 0
1.050657 0.303686 0
0.000000 0.000000 0
-0.004730 0.000000 0
0.000000 0.000000 0
0.000000 0.000000 0
0.000000 0.000000 0
0.000000 0.000000 0
0.000000 0.000000 0
0.000000 0.000000 0
0.000000 0.000000 0
0.000000 0.000000 0
0.000000 0.000000 0
0.000000 0.000000 0
0.000000 0.000000 0
0.000000 0.000000 0
0.000000 0.000000 0
0.000000 0.000000 0
0.000000 0.000000 0
0.000000 0.000000 0
0.000000 0.000000 0
0.000000 0.000000 0
0.000000 0.000000 0
0.000000 0.000000 0
0.000000 0.000000 0
0.000000 0.000000 0
0.000000 0.000000 0
0.000000 0.000000 0
0.000000 0.000000 0
0.000000 0.000000 0
0.000000 0.000000 0
0.000000 0.000000 0
0.000000 0.000000 0
0.000000 0.000000 0
0.000000 0.000000 0
0.000000 0.000000 0
0.000000 0.000000 0
0.000000 0.000000 0
0.936098 -0.582538 0
2.634583 -1.321359 0
3.462301 -1.743386 0
4.644950 -1.901843 0
5.708329 -1.513477 0
6.431417 -0.953240 0
6.856254 -0.458116 0
7.079437 -0.094557 0
7.167546 0.144086 0
7.169410 0.284646 0
7.118226 0.353518 0
7.036215 0.371296 0
6.938239 0.354803 0
6.834390 0.317851 0
6.731628 0.271376 0
6.634642 0.223388 0
6.546285 0.179062 0
6.467870 0.141125 0
6.399503 0.110456 0
6.340452 0.086745 0
6.289516 0.069056 0
6.245328 0.056232 0
6.206561 0.047146 0
6.172038 0.040830 0
6.140780 0.036515 0
6.111989 0.033641 0
6.085025 0.031833 0
6.059346 0.030881 0
6.034464 0.030715 0
6.009881 0.031394 0
5.985030 0.033106 0
5.959200 0.036174 0
5.931451 0.041094 0
5.900495 0.048575 0
5.864536 0.059613 0
5.821045 0.075587 0
5.766436 0.098382 0
5.695594 0.130529 0
5.601169 0.175329 0
5.472544 0.236810 0
5.294200 0.319359 0
5.044024 0.425828 0
4.690167 0.555810 0
4.200091 0.695362 0
3.530230 0.856054 0
2.831518 0.996809 0
1.343076 0.522907 0
0.000000 0.000000 0
-0.005821 0.000000 0
0.000000 0.000000 0
0.000000 0.000000 0
0.000000 0.000000 0
0.000000 0.000000 0
0.000000 0.000000 0
0.000000 0.000000 0
0.000000 0.000000 0
0.000000 0.000000 0
0.000000 0.000000 0
0.000000 0.000000 0
0.000000 0.000000 0
0.000000 0.000000 0
0.000000 0.000000 0
0.000000 0.000000 0
0.000000 0.000000 0
0.000000 0.000000 0
0.000000 0.000000 0
0.000000 0.000000 0
0.000000 0.000000 0
0.000000 0.000000 0
0.000000 0.000000 0
0.000000 0.000000 0
0.000000 0.000000 0
0.000000 0.000000 0
0.000000 0.000000 0
0.000000 0.000000 0
0.000000 0.000000 0
0.000000 0.000000 0
0.000000 0.000000 0
0.000000 0.000000 0
0.000000 0.000000 0
0.000000 0.000000 0
0.738383 -0.467381 0
2.144366 -1.316884 0
3.090280 -1.776568 0
3.864747 -2.241973 0
5.207759 -2.466678 0
6.163318 -1.927639 0
6.688752 -1.201075 0
6.946519 -0.590745 0
7.065159 -0.157719 0
7.111669 0.122563 0
7.115671 0.288198 0
7.097527 0.371379 0
7.068670 0.396966 0
7.034829 0.384394 0
6.998771 0.348900 0
6.962109 0.302172 0
6.926118 0.252702 0
6.891910 0.206078 0
6.860328 0.165421 0
6.831848 0.131952 0
6.806565 0.105618 0
6.784277 0.085635 0
6.764597 0.070909 0
6.747065 0.060310 0
6.731227 0.052827 0
6.716674 0.047637 0
6.703062 0.044127 0
6.690104 0.041882 0
6.677551 0.040668 0
6.665174 0.040411 0
6.652732 0.041191 0
6.639937 0.043241 0
6.626416 0.046963 0
6.611659 0.052974 0
6.594941 0.062161 0
6.575225 0.075783 0
6.551001 0.095601 0
6.520053 0.124067 0
6.479078 0.164562 0
6.423055 0.221683 0
6.344168 0.301499 0
6.229810 0.411488 0
6.059564 0.559239 0
5.799697 0.748160 0
5.406832 0.966886 0
4.837839 1.190286 0
4.167786 1.389463 0
3.377718 1.410093 0
1.500867 0.670470 0
0.000000 0.000000 0
-0.005274 0.000000 0
0.000000 0.000000 0
0.000000 0.000000 0
0.000000 0.000000 0
0.000000 0.000000 0
0.000000 0.000000 0
0.000000 0.000000 0
0.000000 0.000000 0
0.000000 0.000000 0
0.000000 0.000000 0
0.000000 0.000000 0
0.000000 0.000000 0
0.000000 0.000000 0
0.000000 0.000000 0
0.000000 0.000000 0
0.000000 0.000000 0
0.000000 0.000000 0
0.000000 0.000000 0
0.000000 0.000000 0
0.000000 0.000000 0
0.000000 0.000000 0
0.000000 0.000000 0
0.000000 0.000000 0
0.000000 0.000000 0
0.000000 0.000000 0
0.000000 0.000000 0
0.000000 0.000000 0
0.000000 0.000000 0
0.000000 0.000000 0
0.000000 0.000000 0
0.000000 0.000000 0
0.536169 -0.369279 0
1.698537 -1.069449 0
2.545203 -1.751329 0
3.300665 -2.173664 0
4.126519 -2.792421 0
5.619052 -3.040593 0
6.352045 -2.247186 0
6.584710 -1.341250 0
6.618138 -0.644594 0
6.605932 -0.176375 0
6.591148 0.119062 0
6.581069 0.291652 0
6.579815 0.376803 0
6.586770 0.402358 0
6.599022 0.389432 0
6.613146 0.353878 0
6.626468 0.307370 0
6.637515 0.258165 0
6.645881 0.211655 0
6.651842 0.170881 0
6.655979 0.137091 0
6.658897 0.110313 0
6.661090 0.089848 0
6.662904 0.074667 0
6.664551 0.063679 0
6.666144 0.055886 0
6.667729 0.050468 0
6.669318 0.046804 0
6.670900 0.044472 0
6.672457 0.043231 0
6.673968 0.043011 0
6.675407 0.043897 0
6.676744 0.046143 0
6.677937 0.050183 0
6.678925 0.056687 0
6.679605 0.066625 0
6.679801 0.081382 0
6.679206 0.102920 0
6.677270 0.134014 0
6.672988 0.178584 0
6.664466 0.242165 0
6.648026 0.332547 0
6.616185 0.460357 0
6.553567 0.638913 0
6.428382 0.879185 0
6.184257 1.171882 0
5.772519 1.469898 0
5.221629 1.720177 0
4.581742 1.852353 0
3.670813 1.686731 0
1.556271 0.748698 0
0.000000 0.000000 0
-0.003978 0.000000 0
0.000000 0.000000 0
0.000000 0.000000 0
0.000000 0.000000 0
0.000000 0.000000 0
0.000000 0.000000 0
0.000000 0.000000 0
0.000000 0.000000 0
0.000000 0.000000 0
0.000000 0.000000 0
0.000000 0.000000 0
0.000000 0.000000 0
0.000000 0.000000 0
0.000000 0.000000 0
0.000000 0.000000 0
0.000000 0.000000 0
0.000000 0.000000 0
0.000000 0.000000 0
0.000000 0.000000 0
0.000000 0.000000 0
0.000000 0.000000 0
0.000000 0.000000 0
0.000000 0.000000 0
0.000000 0.000000 0
0.000000 0.000000 0
0.000000 0.000000 0
0.000000 0.000000 0
0.000000 0.000000 0
0.000000 0.000000 0
0.376464 -0.266958 0
1.297299 -0.846286 0
2.061408 -1.466162 0
2.754333 -2.110605 0
3.394925 -2.559979 0
4.280946 -3.390540 0
5.831114 -3.569241 0
6.151803 -2.406042 0
5.981673 -1.332902 0
5.742878 -0.601258 0
5.590392 -0.144348 0
5.514261 0.134880 0
5.501262 0.293812 0
5.531550 0.368554 0
5.587306 0.387450 0
5.655030 0.371328 0
5.725007 0.335303 0
5.791063 0.290099 0
5.849952 0.243084 0
5.900574 0.198981 0
5.943214 0.160418 0
5.978888 0.128458 0
6.008870 0.103086 0
6.034413 0.083649 0
6.056601 0.069194 0
6.076306 0.058705 0
6.094196 0.051253 0
6.110771 0.046065 0
6.126395 0.042557 0
6.141342 0.040327 0
6.155831 0.039148 0
6.170056 0.038950 0
6.184217 0.039816 0
6.198550 0.041987 0
6.213353 0.045882 0
6.229024 0.052148 0
6.246098 0.061727 0
6.265294 0.075981 0
6.287565 0.096855 0
6.314143 0.127147 0
6.346547 0.170905 0
6.386457 0.234049 0
6.435259 0.325418 0
6.492476 0.458284 0
6.551379 0.652280 0
6.587349 0.931123 0
6.526623 1.291812 0
6.297261 1.667188 0
5.922269 1.979394 0
5.433535 2.178393 0
4.793589 2.179710 0
3.767933 1.832862 0
1.542152 0.774911 0
0.000000 0.000000 0
-0.002619 0.000000 0
0.000000 0.000000 0
0.000000 0.000000 0
0.000000 0.000000 0
0.000000 0.000000 0
0.000000 0.000000 0
0.000000 0.000000 0
0.000000 0.000000 0
0.000000 0.000000 0
0.000000 0.000000 0
0.000000 0.000000 0
0.000000 0.000000 0
0.000000 0.000000 0
0.000000 0.000000 0
0.000000 0.000000 0
0.000000 0.000000 0
0.000000 0.000000 0
0.000000 0.000000 0
0.000000 0.000000 0
0.000000 0.000000 0
0.000000 0.000000 0
0.000000 0.000000 0
0.000000 0.000000 0
0.000000 0.000000 0
0.000000 0.000000 0
0.000000 0.000000 0
0.000000 0.000000 0
0.267969 -0.186455 0
0.995885 -0.643983 0
1.702410 -1.205359 0
2.319872 -1.791288 0
2.880662 -2.411976 0
3.395832 -2.929974 0
4.284538 -3.999349 0
5.744225 -3.967447 0
5.401757 -2.321775 0
4.738538 -1.138662 0
4.209840 -0.450748 0
3.920774 -0.063114 0
3.817028 0.163218 0
3.848444 0.283086 0
3.954364 0.334176 0
4.094294 0.341184 0
4.244173 0.321212 0
4.389404 0.286485 0
4.522028 0.245470 0
4.638514 0.203912 0
4.738211 0.165451 0
4.822202 0.132083 0
4.892465 0.104564 0
4.951289 0.082805 0
5.000907 0.066201 0
5.043307 0.053913 0
5.080156 0.045053 0
5.112796 0.038812 0
5.142279 0.034517 0
5.169421 0.031659 0
5.194862 0.029889 0
5.219128 0.029006 0
5.242687 0.028948 0
5.266007 0.029781 0
5.289618 0.031708 0
5.314175 0.035086 0
5.340537 0.040465 0
5.369869 0.048656 0
5.403763 0.060839 0
5.444412 0.078719 0
5.494816 0.104793 0
5.559055 0.142759 0
5.642576 0.198216 0
5.752386 0.280023 0
5.896772 0.402829 0
6.081506 0.591911 0
6.301026 0.891449 0
6.455864 1.315597 0
6.420612 1.769305 0
6.248655 2.148081 0
5.948953 2.411520 0
5.510096 2.511898 0
4.840465 2.368920 0
3.727622 1.878537 0
1.485681 0.766442 0
0.000000 0.000000 0
-0.001600 0.000000 0
0.000000 0.000000 0
0.000000 0.000000 0
0.000000 0.000000 0
0.000000 0.000000 0
0.000000 0.000000 0
0.000000 0.000000 0
0.000000 0.000000 0
0.000000 0.000000 0
0.000000 0.000000 0
0.000000 0.000000 0
0.000000 0.000000 0
0.000000 0.000000 0
0.000000 0.000000 0
0.000000 0.000000 0
0.000000 0.000000 0
0.000000 0.000000 0
0.000000 0.000000 0
0.000000 0.000000 0
0.000000 0.000000 0
0.000000 0.000000 0
0.000000 0.000000 0
0.000000 0.000000 0
0.000000 0.000000 0
0.000000 0.000000 0
0.209248 -0.131864 0
0.805434 -0.492434 0
1.468504 -0.977552 0
2.052813 -1.502212 0
2.535367 -2.049887 0
2.939356 -2.643653 0
3.298329 -3.255482 0
4.068883 -4.553973 0
5.219428 -4.122730 0
3.916993 -1.907808 0
2.775478 -0.742407 0
2.002360 -0.196125 0
1.719141 0.050257 0
1.749826 0.170714 0
1.910370 0.225774 0
2.129682 0.246756 0
2.368999 0.243874 0
2.605305 0.225125 0
2.823955 0.197649 0
3.017637 0.166686 0
3.183827 0.135984 0
3.323083 0.107979 0
3.437807 0.083998 0
3.531345 0.064506 0
3.607334 0.049362 0
3.669275 0.038062 0
3.720291 0.029933 0
3.763017 0.024279 0
3.799585 0.020476 0
3.831665 0.018012 0
3.860543 0.016506 0
3.887210 0.015701 0
3.912456 0.015454 0
3.936965 0.015725 0
3.961400 0.016566 0
3.986501 0.018124 0
4.013182 0.020656 0
4.042648 0.024556 0
4.076552 0.030404 0
4.117191 0.039051 0
4.167786 0.051746 0
4.232869 0.070351 0
4.318824 0.097703 0
4.434691 0.138270 0
4.593170 0.199485 0
4.812910 0.295233 0
5.115794 0.452005 0
5.542519 0.745660 0
5.974523 1.232567 0
6.149728 1.769842 0
6.206581 2.213061 0
6.129629 2.544287 0
5.899734 2.728873 0
5.476699 2.715929 0
4.764938 2.443945 0
3.601163 1.854952 0
1.409779 0.737239 0
0.000000 0.000000 0
-0.001112 0.000000 0
0.000000 0.000000 0
0.000000 0.000000 0
0.000000 0.000000 0
0.000000 0.000000 0
0.000000 0.000000 0
0.000000 0.000000 0
0.000000 0.000000 0
0.000000 0.000000 0
0.000000 0.000000 0
0.000000 0.000000 0
0.000000 0.000000 0
0.000000 0.000000 0
0.000000 0.000000 0
0.000000 0.000000 0
0.000000 0.000000 0
0.000000 0.000000 0
0.000000 0.000000 0
0.000000 0.000000 0
0.000000 0.000000 0
0.000000 0.000000 0
0.000000 0.000000 0
0.000000 0.000000 0
0.195342 -0.102302 0
0.724347 -0.396770 0
1.360465 -0.809419 0
1.928527 -1.261955 0
2.381666 -1.733901 0
2.709909 -2.230496 0
2.935125 -2.789960 0
3.101507 -3.489560 0
3.571675 -4.951094 0
4.021338 -3.892199 0
1.556872 -1.111002 0
0.421334 -0.190121 0
0.058322 0.072579 0
0.025456 0.061995 0
0.159766 0.068481 0
0.370043 0.094899 0
0.615492 0.106963 0
0.868120 0.105552 0
1.107752 0.095820 0
1.322535 0.082209 0
1.506707 0.067184 0
1.658991 0.052589 0
1.781191 0.039626 0
1.876947 0.028906 0
1.950740 0.020578 0
2.007152 0.014472 0
2.050379 0.010240 0
2.083980 0.007471 0
2.110798 0.005769 0
2.132988 0.004802 0
2.152129 0.004317 0
2.169346 0.004141 0
2.185446 0.004170 0
2.201038 0.004357 0
2.216641 0.004700 0
2.232779 0.005240 0
2.250079 0.006055 0
2.269363 0.007270 0
2.291774 0.009070 0
2.318930 0.011727 0
2.353145 0.015639 0
2.397754 0.021410 0
2.457594 0.029967 0
2.539757 0.042773 0
2.654807 0.062301 0
2.818856 0.092647 0
3.057469 0.143912 0
3.414784 0.230451 0
3.969843 0.466021 0
4.892115 1.014776 0
5.376133 1.654340 0
5.755601 2.158038 0
5.964882 2.563537 0
5.981264 2.835371 0
5.790820 2.931117 0
5.357324 2.807708 0
4.610383 2.433120 0
3.435279 1.788940 0
1.336039 0.698816 0
-0.000000 0.000000 0
-0.001273 0.000000 0
0.000000 0.000000 0
0.000000 0.000000 0
0.000000 0.000000 0
0.000000 0.000000 0
0.000000 0.000000 0
0.000000 0.000000 0
0.000000 0.000000 0
0.000000 0.000000 0
0.000000 0.000000 0
0.000000 0.000000 0
0.000000 0.000000 0
0.000000 0.000000 0
0.000000 0.000000 0
0.000000 0.000000 0
0.000000 0.000000 0
0.000000 0.000000 0
0.000000 0.000000 0
0.000000 0.000000 0
0.000000 0.000000 0
0.000000 0.000000 0
0.225166 -0.095086 0
0.751086 -0.355801 0
1.380123 -0.707723 0
1.940951 -1.089006 0
2.380146 -1.483473 0
2.679013 -1.889321 0
2.838758 -2.324080 0
2.878039 -2.837657 0
2.824804 -3.570840 0
2.796876 -5.009673 0
1.634897 -3.000257 0
0.000000 0.000000 0
-0.000000 0.000000 0
-0.000000 0.000000 0
0.000000 0.000000 0
0.000000 0.000000 0
0.000000 0.000000 0
0.000001 0.000000 0
0.000001 0.000000 0
0.000000 0.000000 0
0.000000 0.000000 0
0.000000 0.000000 0
0.000000 0.000000 0
0.000000 0.000000 0
0.000000 0.000000 0
0.000000 0.000000 0
0.000000 0.000000 0
0.000000 0.000000 0
0.000000 0.000000 0
0.000000 0.000000 0
0.000000 0.000000 0
0.000000 0.000000 0
0.000000 0.000000 0
0.000000 0.000000 0
0.000000 0.000000 0
0.000000 0.000000 0
0.000000 0.000000 0
0.000000 0.000000 0
0.000000 0.000000 0
0.000000 0.000000 0
0.000000 0.000000 0
0.000000 0.000000 0
0.000000 0.000000 0
0.000000 0.000000 0
0.000000 0.000000 0
0.000000 0.000000 0
0.000000 0.000000 0
0.000000 0.000000 0
0.000000 0.000000 0
0.000000 0.000000 0
2.077851 0.522102 0
3.746579 1.342057 0
4.738433 1.921385 0
5.378738 2.432490 0
5.723859 2.815107 0
5.801316 3.025040 0
5.623359 3.028753 0
5.175490 2.807165 0
4.417740 2.361882 0
3.271929 1.704348 0
1.281945 0.661871 0
-0.000000 0.000000 0
-0.002100 0.000000 0
0.000000 0.000000 0
0.000000 0.000000 0
0.000000 0.000000 0
0.000000 0.000000 0
0.000000 0.000000 0
0.000000 0.000000 0
0.000000 0.000000 0
0.000000 0.000000 0
0.000000 0.000000 0
0.000000 0.000000 0
0.000000 0.000000 0
0.000000 0.000000 0
0.000000 0.000000 0
0.000000 0.000000 0
0.000000 0.000000 0
0.000000 0.000000 0
0.000000 0.000000 0
0.000000 0.000000 0
0.308935 -0.109500 0
0.897286 -0.368360 0
1.541438 -0.672798 0
2.095991 -0.986249 0
2.519512 -1.304848 0
2.796902 -1.627603 0
2.926842 -1.961105 0
2.918691 -2.329096 0
2.785042 -2.783046 0
2.522225 -3.449351 0
2.017735 -4.378620 0
0.037592 -0.000001 0
-0.073621 2.449255 0
0.383967 0.000000 0
0.310138 0.000000 0
0.237466 0.000000 0
0.185000 0.000000 0
0.099238 0.000000 0
-0.006554 0.000000 0
-0.116667 0.000000 0
-0.219611 0.000000 0
-0.310079 0.000000 0
-0.385550 0.000000 0
-0.445690 0.000000 0
-0.491701 0.000000 0
-0.525674 0.000000 0
-0.550048 0.000000 0
-0.567211 0.000000 0
-0.579260 0.000000 0
-0.587881 0.000000 0
-0.594340 0.000000 0
-0.599526 0.000000 0
-0.604033 0.000000 0
-0.608241 0.000000 0
-0.612392 0.000000 0
-0.616658 0.000000 0
-0.621186 0.000000 0
-0.626145 0.000000 0
-0.631763 0.000000 0
-0.638367 0.000000 0
-0.646437 0.000000 0
-0.656675 0.000000 0
-0.670107 0.000000 0
-0.688243 0.000000 0
-0.713324 0.000000 0
-0.748731 0.000000 0
-0.799662 0.000000 0
-0.874485 0.000000 0
-0.986670 0.000000 0
-1.164972 0.000000 0
-1.451836 0.132464 0
0.000000 -0.000001 0
1.708993 0.339622 0
3.311381 1.349439 0
4.417922 2.075340 0
5.135410 2.626019 0
5.514337 2.980906 0
5.599688 3.117754 0
5.417034 3.030404 0
4.967063 2.731996 0
4.230695 2.253659 0
3.150980 1.622304 0
1.265406 0.635115 0
-0.000000 0.000000 0
-0.003812 0.000000 0
0.000000 0.000000 0
0.000000 0.000000 0
0.000000 0.000000 0
0.000000 0.000000 0
0.000000 0.000000 0
0.000000 0.000000 0
0.000000 0.000000 0
0.000000 0.000000 0
0.000000 0.000000 0
0.000000 0.000000 0
0.000000 0.000000 0
0.000000 0.000000 0
0.000000 0.000000 0
0.000000 0.000000 0
0.000000 0.000000 0
0.000000 0.000000 0
0.482555 -0.150470 0
1.207486 -0.439898 0