# vtk DataFile Version 2.0
generated by CFD-lab course output (written by Tobias Neckel) 
ASCII

DATASET STRUCTURED_GRID
DIMENSIONS  82 60 1 
POINTS 4920 float

-1.500000 -0.500000 0
-1.402439 -0.500000 0
-1.304878 -0.500000 0
-1.207317 -0.500000 0
-1.109756 -0.500000 0
-1.012195 -0.500000 0
-0.914634 -0.500000 0
-0.817073 -0.500000 0
-0.719512 -0.500000 0
-0.621951 -0.500000 0
-0.524390 -0.500000 0
-0.426829 -0.500000 0
-0.329268 -0.500000 0
-0.231707 -0.500000 0
-0.134146 -0.500000 0
-0.036585 -0.500000 0
0.060976 -0.500000 0
0.158537 -0.500000 0
0.256098 -0.500000 0
0.353659 -0.500000 0
0.451220 -0.500000 0
0.548780 -0.500000 0
0.646341 -0.500000 0
0.743902 -0.500000 0
0.841463 -0.500000 0
0.939024 -0.500000 0
1.036585 -0.500000 0
1.134146 -0.500000 0
1.231707 -0.500000 0
1.329268 -0.500000 0
1.426829 -0.500000 0
1.524390 -0.500000 0
1.621951 -0.500000 0
1.719512 -0.500000 0
1.817073 -0.500000 0
1.914634 -0.500000 0
2.012195 -0.500000 0
2.109756 -0.500000 0
2.207317 -0.500000 0
2.304878 -0.500000 0
2.402439 -0.500000 0
2.500000 -0.500000 0
2.597561 -0.500000 0
2.695122 -0.500000 0
2.792683 -0.500000 0
2.890244 -0.500000 0
2.987805 -0.500000 0
3.085366 -0.500000 0
3.182927 -0.500000 0
3.280488 -0.500000 0
3.378049 -0.500000 0
3.475610 -0.500000 0
3.573171 -0.500000 0
3.670732 -0.500000 0
3.768293 -0.500000 0
3.865854 -0.500000 0
3.963415 -0.500000 0
4.060976 -0.500000 0
4.158537 -0.500000 0
4.256098 -0.500000 0
4.353659 -0.500000 0
4.451220 -0.500000 0
4.548780 -0.500000 0
4.646341 -0.500000 0
4.743902 -0.500000 0
4.841463 -0.500000 0
4.939024 -0.500000 0
5.036585 -0.500000 0
5.134146 -0.500000 0
5.231707 -0.500000 0
5.329268 -0.500000 0
5.426829 -0.500000 0
5.524390 -0.500000 0
5.621951 -0.500000 0
5.719512 -0.500000 0
5.817073 -0.500000 0
5.914634 -0.500000 0
6.012195 -0.500000 0
6.109756 -0.500000 0
6.207317 -0.500000 0
6.304878 -0.500000 0
6.402439 -0.500000 0
-1.500000 -0.451667 0
-1.402439 -0.451667 0
-1.304878 -0.451667 0
-1.207317 -0.451667 0
-1.109756 -0.451667 0
-1.012195 -0.451667 0
-0.914634 -0.451667 0
-0.817073 -0.451667 0
-0.719512 -0.451667 0
-0.621951 -0.451667 0
-0.524390 -0.451667 0
-0.426829 -0.451667 0
-0.329268 -0.451667 0
-0.231707 -0.451667 0
-0.134146 -0.451667 0
-0.036585 -0.451667 0
0.060976 -0.451667 0
0.158537 -0.451667 0
0.256098 -0.451667 0
0.353659 -0.451667 0
0.451220 -0.451667 0
0.548780 -0.451667 0
0.646341 -0.451667 0
0.743902 -0.451667 0
0.841463 -0.451667 0
0.939024 -0.451667 0
1.036585 -0.451667 0
1.134146 -0.451667 0
1.231707 -0.451667 0
1.329268 -0.451667 0
1.426829 -0.451667 0
1.524390 -0.451667 0
1.621951 -0.451667 0
1.719512 -0.451667 0
1.817073 -0.451667 0
1.914634 -0.451667 0
2.012195 -0.451667 0
2.109756 -0.451667 0
2.207317 -0.451667 0
2.304878 -0.451667 0
2.402439 -0.451667 0
2.500000 -0.451667 0
2.597561 -0.451667 0
2.695122 -0.451667 0
2.792683 -0.451667 0
2.890244 -0.451667 0
2.987805 -0.451667 0
3.085366 -0.451667 0
3.182927 -0.451667 0
3.280488 -0.451667 0
3.378049 -0.451667 0
3.475610 -0.451667 0
3.573171 -0.451667 0
3.670732 -0.451667 0
3.768293 -0.451667 0
3.865854 -0.451667 0
3.963415 -0.451667 0
4.060976 -0.451667 0
4.158537 -0.451667 0
4.256098 -0.451667 0
4.353659 -0.451667 0
4.451220 -0.451667 0
4.548780 -0.451667 0
4.646341 -0.451667 0
4.743902 -0.451667 0
4.841463 -0.451667 0
4.939024 -0.451667 0
5.036585 -0.451667 0
5.134146 -0.451667 0
5.231707 -0.451667 0
5.329268 -0.451667 0
5.426829 -0.451667 0
5.524390 -0.451667 0
5.621951 -0.451667 0
5.719512 -0.451667 0
5.817073 -0.451667 0
5.914634 -0.451667 0
6.012195 -0.451667 0
6.109756 -0.451667 0
6.207317 -0.451667 0
6.304878 -0.451667 0
6.402439 -0.451667 0
-1.500000 -0.403333 0
-1.402439 -0.403333 0
-1.304878 -0.403333 0
-1.207317 -0.403333 0
-1.109756 -0.403333 0
-1.012195 -0.403333 0
-0.914634 -0.403333 0
-0.817073 -0.403333 0
-0.719512 -0.403333 0
-0.621951 -0.403333 0
-0.524390 -0.403333 0
-0.426829 -0.403333 0
-0.329268 -0.403333 0
-0.231707 -0.403333 0
-0.134146 -0.403333 0
-0.036585 -0.403333 0
0.060976 -0.403333 0
0.158537 -0.403333 0
0.256098 -0.403333 0
0.353659 -0.403333 0
0.451220 -0.403333 0
0.548780 -0.403333 0
0.646341 -0.403333 0
0.743902 -0.403333 0
0.841463 -0.403333 0
0.939024 -0.403333 0
1.036585 -0.403333 0
1.134146 -0.403333 0
1.231707 -0.403333 0
1.329268 -0.403333 0
1.426829 -0.403333 0
1.524390 -0.403333 0
1.621951 -0.403333 0
1.719512 -0.403333 0
1.817073 -0.403333 0
1.914634 -0.403333 0
2.012195 -0.403333 0
2.109756 -0.403333 0
2.207317 -0.403333 0
2.304878 -0.403333 0
2.402439 -0.403333 0
2.500000 -0.403333 0
2.597561 -0.403333 0
2.695122 -0.403333 0
2.792683 -0.403333 0
2.890244 -0.403333 0
2.987805 -0.403333 0
3.085366 -0.403333 0
3.182927 -0.403333 0
3.280488 -0.403333 0
3.378049 -0.403333 0
3.475610 -0.403333 0
3.573171 -0.403333 0
3.670732 -0.403333 0
3.768293 -0.403333 0
3.865854 -0.403333 0
3.963415 -0.403333 0
4.060976 -0.403333 0
4.158537 -0.403333 0
4.256098 -0.403333 0
4.353659 -0.403333 0
4.451220 -0.403333 0
4.548780 -0.403333 0
4.646341 -0.403333 0
4.743902 -0.403333 0
4.841463 -0.403333 0
4.939024 -0.403333 0
5.036585 -0.403333 0
5.134146 -0.403333 0
5.231707 -0.403333 0
5.329268 -0.403333 0
5.426829 -0.403333 0
5.524390 -0.403333 0
5.621951 -0.403333 0
5.719512 -0.403333 0
5.817073 -0.403333 0
5.914634 -0.403333 0
6.012195 -0.403333 0
6.109756 -0.403333 0
6.207317 -0.403333 0
6.304878 -0.403333 0
6.402439 -0.403333 0
-1.500000 -0.355000 0
-1.402439 -0.355000 0
-1.304878 -0.355000 0
-1.207317 -0.355000 0
-1.109756 -0.355000 0
-1.012195 -0.355000 0
-0.914634 -0.355000 0
-0.817073 -0.355000 0
-0.719512 -0.355000 0
-0.621951 -0.355000 0
-0.524390 -0.355000 0
-0.426829 -0.355000 0
-0.329268 -0.355000 0
-0.231707 -0.355000 0
-0.134146 -0.355000 0
-0.036585 -0.355000 0
0.060976 -0.355000 0
0.158537 -0.355000 0
0.256098 -0.355000 0
0.353659 -0.355000 0
0.451220 -0.355000 0
0.548780 -0.355000 0
0.646341 -0.355000 0
0.743902 -0.355000 0
0.841463 -0.355000 0
0.939024 -0.355000 0
1.036585 -0.355000 0
1.134146 -0.355000 0
1.231707 -0.355000 0
1.329268 -0.355000 0
1.426829 -0.355000 0
1.524390 -0.355000 0
1.621951 -0.355000 0
1.719512 -0.355000 0
1.817073 -0.355000 0
1.914634 -0.355000 0
2.012195 -0.355000 0
2.109756 -0.355000 0
2.207317 -0.355000 0
2.304878 -0.355000 0
2.402439 -0.355000 0
2.500000 -0.355000 0
2.597561 -0.355000 0
2.695122 -0.355000 0
2.792683 -0.355000 0
2.890244 -0.355000 0
2.987805 -0.355000 0
3.085366 -0.355000 0
3.182927 -0.355000 0
3.280488 -0.355000 0
3.378049 -0.355000 0
3.475610 -0.355000 0
3.573171 -0.355000 0
3.670732 -0.355000 0
3.768293 -0.355000 0
3.865854 -0.355000 0
3.963415 -0.355000 0
4.060976 -0.355000 0
4.158537 -0.355000 0
4.256098 -0.355000 0
4.353659 -0.355000 0
4.451220 -0.355000 0
4.548780 -0.355000 0
4.646341 -0.355000 0
4.743902 -0.355000 0
4.841463 -0.355000 0
4.939024 -0.355000 0
5.036585 -0.355000 0
5.134146 -0.355000 0
5.231707 -0.355000 0
5.329268 -0.355000 0
5.426829 -0.355000 0
5.524390 -0.355000 0
5.621951 -0.355000 0
5.719512 -0.355000 0
5.817073 -0.355000 0
5.914634 -0.355000 0
6.012195 -0.355000 0
6.109756 -0.355000 0
6.207317 -0.355000 0
6.304878 -0.355000 0
6.402439 -0.355000 0
-1.500000 -0.306667 0
-1.402439 -0.306667 0
-1.304878 -0.306667 0
-1.207317 -0.306667 0
-1.109756 -0.306667 0
-1.012195 -0.306667 0
-0.914634 -0.306667 0
-0.817073 -0.306667 0
-0.719512 -0.306667 0
-0.621951 -0.306667 0
-0.524390 -0.306667 0
-0.426829 -0.306667 0
-0.329268 -0.306667 0
-0.231707 -0.306667 0
-0.134146 -0.306667 0
-0.036585 -0.306667 0
0.060976 -0.306667 0
0.158537 -0.306667 0
0.256098 -0.306667 0
0.353659 -0.306667 0
0.451220 -0.306667 0
0.548780 -0.306667 0
0.646341 -0.306667 0
0.743902 -0.306667 0
0.841463 -0.306667 0
0.939024 -0.306667 0
1.036585 -0.306667 0
1.134146 -0.306667 0
1.231707 -0.306667 0
1.329268 -0.306667 0
1.426829 -0.306667 0
1.524390 -0.306667 0
1.621951 -0.306667 0
1.719512 -0.306667 0
1.817073 -0.306667 0
1.914634 -0.306667 0
2.012195 -0.306667 0
2.109756 -0.306667 0
2.207317 -0.306667 0
2.304878 -0.306667 0
2.402439 -0.306667 0
2.500000 -0.306667 0
2.597561 -0.306667 0
2.695122 -0.306667 0
2.792683 -0.306667 0
2.890244 -0.306667 0
2.987805 -0.306667 0
3.085366 -0.306667 0
3.182927 -0.306667 0
3.280488 -0.306667 0
3.378049 -0.306667 0
3.475610 -0.306667 0
3.573171 -0.306667 0
3.670732 -0.306667 0
3.768293 -0.306667 0
3.865854 -0.306667 0
3.963415 -0.306667 0
4.060976 -0.306667 0
4.158537 -0.306667 0
4.256098 -0.306667 0
4.353659 -0.306667 0
4.451220 -0.306667 0
4.548780 -0.306667 0
4.646341 -0.306667 0
4.743902 -0.306667 0
4.841463 -0.306667 0
4.939024 -0.306667 0
5.036585 -0.306667 0
5.134146 -0.306667 0
5.231707 -0.306667 0
5.329268 -0.306667 0
5.426829 -0.306667 0
5.524390 -0.306667 0
5.621951 -0.306667 0
5.719512 -0.306667 0
5.817073 -0.306667 0
5.914634 -0.306667 0
6.012195 -0.306667 0
6.109756 -0.306667 0
6.207317 -0.306667 0
6.304878 -0.306667 0
6.402439 -0.306667 0
-1.500000 -0.258333 0
-1.402439 -0.258333 0
-1.304878 -0.258333 0
-1.207317 -0.258333 0
-1.109756 -0.258333 0
-1.012195 -0.258333 0
-0.914634 -0.258333 0
-0.817073 -0.258333 0
-0.719512 -0.258333 0
-0.621951 -0.258333 0
-0.524390 -0.258333 0
-0.426829 -0.258333 0
-0.329268 -0.258333 0
-0.231707 -0.258333 0
-0.134146 -0.258333 0
-0.036585 -0.258333 0
0.060976 -0.258333 0
0.158537 -0.258333 0
0.256098 -0.258333 0
0.353659 -0.258333 0
0.451220 -0.258333 0
0.548780 -0.258333 0
0.646341 -0.258333 0
0.743902 -0.258333 0
0.841463 -0.258333 0
0.939024 -0.258333 0
1.036585 -0.258333 0
1.134146 -0.258333 0
1.231707 -0.258333 0
1.329268 -0.258333 0
1.426829 -0.258333 0
1.524390 -0.258333 0
1.621951 -0.258333 0
1.719512 -0.258333 0
1.817073 -0.258333 0
1.914634 -0.258333 0
2.012195 -0.258333 0
2.109756 -0.258333 0
2.207317 -0.258333 0
2.304878 -0.258333 0
2.402439 -0.258333 0
2.500000 -0.258333 0
2.597561 -0.258333 0
2.695122 -0.258333 0
2.792683 -0.258333 0
2.890244 -0.258333 0
2.987805 -0.258333 0
3.085366 -0.258333 0
3.182927 -0.258333 0
3.280488 -0.258333 0
3.378049 -0.258333 0
3.475610 -0.258333 0
3.573171 -0.258333 0
[...]
POINT_DATA 4920 

VECTORS velocity float
0.000000 0.000000 0
0.000000 0.000000 0
0.000000 0.000000 0
0.000000 0.000000 0
0.000000 0.000000 0
0.000000 0.000000 0
0.000000 0.000000 0
0.000000 0.000000 0
0.000000 0.000000 0
0.000000 0.000000 0
0.000000 0.000000 0
0.000000 0.000000 0
0.000000 0.000000 0
0.000000 0.000000 0
0.000000 0.000000 0
-0.000006 0.000000 0
-0.000009 0.000000 0
-0.000011 0.000000 0
-0.000012 0.000000 0
-0.000013 0.000000 0
-0.000014 0.000000 0
-0.000014 0.000000 0
-0.000012 0.000000 0
-0.000010 0.000000 0
-0.000006 0.000000 0
-0.000001 0.000000 0
0.000003 0.000000 0
0.000008 0.000000 0
0.000012 0.000000 0
0.000015 0.000000 0
0.000018 0.000000 0
0.000021 0.000000 0
0.000024 0.000000 0
0.000027 0.000000 0
0.000031 0.000000 0
0.000034 0.000000 0
0.000038 0.000000 0
0.000041 0.000000 0
0.000043 0.000000 0
0.000045 0.000000 0
0.000046 0.000000 0
0.000046 0.000000 0
0.000045 0.000000 0
0.000044 0.000000 0
0.000041 0.000000 0
0.000039 0.000000 0
0.000035 0.000000 0
0.000032 0.000000 0
0.000028 0.000000 0
0.000023 0.000000 0
0.000018 0.000000 0
0.000013 0.000000 0
0.000008 0.000000 0
0.000004 0.000000 0
0.000000 0.000000 0
-0.000001 0.000000 0
-0.000000 0.000000 0
0.001786 0.000000 0
0.000000 0.000000 0
0.000000 0.000000 0
0.000000 0.000000 0
0.000000 0.000000 0
0.000000 0.000000 0
0.000000 0.000000 0
0.000000 0.000000 0
0.000000 0.000000 0
0.000000 0.000000 0
0.000000 0.000000 0
0.000000 0.000000 0
0.000000 0.000000 0
0.000000 0.000000 0
0.000000 0.000000 0
0.000000 0.000000 0
0.000000 0.000000 0
0.000000 0.000000 0
0.000000 0.000000 0
0.000000 0.000000 0
0.000000 0.000000 0
0.000000 0.000000 0
0.000000 0.000000 0
0.000000 0.000000 0
0.000000 0.000000 0
0.000000 0.000000 0
0.000000 0.000000 0
0.000000 0.000000 0
0.000000 0.000000 0
0.000000 0.000000 0
0.000000 0.000000 0
0.000000 0.000000 0
0.000000 0.000000 0
0.000000 0.000000 0
0.000000 0.000000 0
0.000000 0.000000 0
0.000000 0.000000 0
0.000000 0.000000 0
0.000000 0.000000 0
1.048475 -0.423198 0
2.522246 -0.739282 0
3.785016 -0.505799 0
4.628948 -0.265822 0
5.063091 -0.070388 0
5.174599 0.061783 0
5.071093 0.139687 0
4.837818 0.177819 0
4.538841 0.186747 0
4.220960 0.175434 0
3.916414 0.151727 0
3.644978 0.122336 0
3.416134 0.092539 0
3.231546 0.065916 0
3.087698 0.044329 0
2.978327 0.028209 0
2.896318 0.017046 0
2.834930 0.009872 0
2.788418 0.005638 0
2.752234 0.003413 0
2.722969 0.002470 0
2.698179 0.002284 0
2.676182 0.002505 0
2.655851 0.002916 0
2.636443 0.003400 0
2.617450 0.003912 0
2.598474 0.004456 0
2.579131 0.005077 0
2.558949 0.005855 0
2.537284 0.006901 0
2.513219 0.008366 0
2.485441 0.010449 0
2.452094 0.013412 0
2.410581 0.017599 0
2.357301 0.023447 0
2.287335 0.031493 0
2.194070 0.042338 0
2.068849 0.056475 0
1.900975 0.074016 0
1.678080 0.093602 0
1.390109 0.112286 0
1.027498 0.130258 0
0.610899 0.069764 0
-0.000000 0.000000 0
-0.001647 0.000000 0
0.000000 0.000000 0
0.000000 0.000000 0
0.000000 0.000000 0
0.000000 0.000000 0
0.000000 0.000000 0
0.000000 0.000000 0
0.000000 0.000000 0
0.000000 0.000000 0
0.000000 0.000000 0
0.000000 0.000000 0
0.000000 0.000000 0
0.000000 0.000000 0
0.000000 0.000000 0
0.000000 0.000000 0
0.000000 0.000000 0
0.000000 0.000000 0
0.000000 0.000000 0
0.000000 0.000000 0
0.000000 0.000000 0
0.000000 0.000000 0
0.000000 0.000000 0
0.000000 0.000000 0
0.000000 0.000000 0
0.000000 0.000000 0
0.000000 0.000000 0
0.000000 0.000000 0
0.000000 0.000000 0
0.000000 0.000000 0
0.000000 0.000000 0
0.000000 0.000000 0
0.000000 0.000000 0
0.000000 0.000000 0
0.000000 0.000000 0
0.000000 0.000000 0
0.000000 0.000000 0
0.000000 0.000000 0
1.161993 -0.518022 0
2.658716 -1.247946 0
3.834195 -1.355521 0
5.008887 -1.043695 0
5.870967 -0.633180 0
6.398629 -0.270325 0
6.655373 -0.003964 0
6.715647 0.166847 0
6.647575 0.263687 0
6.500606 0.305602 0
6.310832 0.308360 0
6.104230 0.285351 0
5.898856 0.247847 0
5.706462 0.204821 0
5.533788 0.162713 0
5.383700 0.125449 0
5.256244 0.094813 0
5.149611 0.071042 0
5.060980 0.053456 0
4.987171 0.040969 0
4.925096 0.032425 0
4.872026 0.026780 0
4.825695 0.023179 0
4.784313 0.020970 0
4.746508 0.019687 0
4.711247 0.019025 0
4.677734 0.018810 0
4.645315 0.018984 0
4.613380 0.019582 0
4.581265 0.020731 0
4.548148 0.022656 0
4.512928 0.025684 0
4.474082 0.030282 0
4.429477 0.037087 0
4.376118 0.046962 0
4.309808 0.061058 0
4.224685 0.080867 0
4.112597 0.108241 0
3.962311 0.145204 0
3.758583 0.193593 0
3.481481 0.253091 0
3.106958 0.322309 0
2.609126 0.385527 0
1.990994 0.506830 0
1.039238 0.300946 0
-0.000000 0.000000 0
-0.004733 0.000000 0
0.000000 0.000000 0
0.000000 0.000000 0
0.000000 0.000000 0
0.000000 0.000000 0
0.000000 0.000000 0
0.000000 0.000000 0
0.000000 0.000000 0
0.000000 0.000000 0
0.000000 0.000000 0
0.000000 0.000000 0
0.000000 0.000000 0
0.000000 0.000000 0
0.000000 0.000000 0
0.000000 0.000000 0
0.000000 0.000000 0
0.000000 0.000000 0
0.000000 0.000000 0
0.000000 0.000000 0
0.000000 0.000000 0
0.000000 0.000000 0
0.000000 0.000000 0
0.000000 0.000000 0
0.000000 0.000000 0
0.000000 0.000000 0
0.000000 0.000000 0
0.000000 0.000000 0
0.000000 0.000000 0
0.000000 0.000000 0
0.000000 0.000000 0
0.000000 0.000000 0
0.000000 0.000000 0
0.000000 0.000000 0
0.000000 0.000000 0
0.000000 0.000000 0
0.938719 -0.583727 0
2.639968 -1.323818 0
3.468066 -1.745640 0
4.650876 -1.903597 0
5.714743 -1.514849 0
6.438359 -0.954323 0
6.863675 -0.458996 0
7.087297 -0.095273 0
7.175863 0.143550 0
7.178171 0.284354 0
7.127374 0.353575 0
7.045637 0.371806 0
6.947759 0.355827 0
6.843781 0.319396 0
6.740624 0.273399 0
6.642951 0.225817 0
6.553606 0.181829 0
6.473909 0.144181 0
6.403971 0.113782 0
6.343064 0.090348 0
6.289985 0.072957 0
6.243356 0.060458 0
6.201835 0.051715 0
6.164237 0.045739 0
6.129580 0.041735 0
6.097083 0.039114 0
6.066136 0.037472 0
6.036249 0.036576 0
6.006999 0.036338 0
5.977970 0.036809 0
5.948679 0.038172 0
5.918507 0.040757 0
5.886601 0.045059 0
5.851756 0.051792 0
5.812255 0.061945 0
5.765644 0.076885 0
5.708415 0.098469 0
5.635540 0.129195 0
5.539776 0.172323 0
5.410652 0.231860 0
5.232850 0.312227 0
4.984528 0.416427 0
4.634249 0.544465 0
4.149893 0.683125 0
3.490437 0.843979 0
2.803067 0.985234 0
1.331795 0.517251 0
0.000000 0.000000 0
-0.005823 0.000000 0
0.000000 0.000000 0
0.000000 0.000000 0
0.000000 0.000000 0
0.000000 0.000000 0
0.000000 0.000000 0
0.000000 0.000000 0
0.000000 0.000000 0
0.000000 0.000000 0
0.000000 0.000000 0
0.000000 0.000000 0
0.000000 0.000000 0
0.000000 0.000000 0
0.000000 0.000000 0
0.000000 0.000000 0
0.000000 0.000000 0
0.000000 0.000000 0
0.000000 0.000000 0
0.000000 0.000000 0
0.000000 0.000000 0
0.000000 0.000000 0
0.000000 0.000000 0
0.000000 0.000000 0
0.000000 0.000000 0
0.000000 0.000000 0
0.000000 0.000000 0
0.000000 0.000000 0
0.000000 0.000000 0
0.000000 0.000000 0
0.000000 0.000000 0
0.000000 0.000000 0
0.000000 0.000000 0
0.000000 0.000000 0
0.741095 -0.468690 0
2.149987 -1.319574 0
3.096160 -1.779158 0
3.870171 -2.244183 0
5.213400 -2.468562 0
6.169451 -1.929244 0
6.695301 -1.202380 0
6.953388 -0.591820 0
7.072309 -0.158627 0
7.119148 0.121827 0
7.123509 0.287709 0
7.105725 0.371261 0
7.077190 0.397345 0
7.043605 0.385354 0
7.007709 0.350465 0
6.971086 0.304316 0
6.934993 0.255364 0
6.900525 0.209195 0
6.868520 0.168945 0
6.839452 0.135864 0
6.813416 0.109926 0
6.790205 0.090366 0
6.769423 0.076096 0
6.750600 0.065977 0
6.733266 0.058976 0
6.717007 0.054239 0
6.701477 0.051119 0
6.686397 0.049163 0
6.671538 0.048107 0
6.656699 0.047856 0
6.641675 0.048475 0
6.626220 0.050190 0
6.610002 0.053410 0
6.592547 0.058753 0
6.573165 0.067114 0
6.550840 0.079748 0
6.524075 0.098406 0
6.490658 0.125514 0
6.447280 0.164414 0
6.388916 0.219655 0
6.307765 0.297260 0
6.191276 0.404702 0
6.019200 0.549648 0
5.758177 0.735801 0
5.365582 0.952191 0
4.799811 1.174070 0
4.135888 1.372700 0
3.353645 1.396019 0
1.492932 0.664800 0
0.000000 0.000000 0
-0.005295 0.000000 0
0.000000 0.000000 0
0.000000 0.000000 0
0.000000 0.000000 0
0.000000 0.000000 0
0.000000 0.000000 0
0.000000 0.000000 0
0.000000 0.000000 0
0.000000 0.000000 0
0.000000 0.000000 0
0.000000 0.000000 0
0.000000 0.000000 0
0.000000 0.000000 0
0.000000 0.000000 0
0.000000 0.000000 0
0.000000 0.000000 0
0.000000 0.000000 0
0.000000 0.000000 0
0.000000 0.000000 0
0.000000 0.000000 0
0.000000 0.000000 0
0.000000 0.000000 0
0.000000 0.000000 0
0.000000 0.000000 0
0.000000 0.000000 0
0.000000 0.000000 0
0.000000 0.000000 0
0.000000 0.000000 0
0.000000 0.000000 0
0.000000 0.000000 0
0.000000 0.000000 0
0.538800 -0.370638 0
1.704172 -1.072260 0
2.550913 -1.754099 0
3.305963 -2.176026 0
4.131224 -2.794556 0
5.624337 -3.042698 0
6.357817 -2.249008 0
6.590710 -1.342699 0
6.624224 -0.645771 0
6.612069 -0.177393 0
6.597441 0.118185 0
6.587591 0.291004 0
6.586623 0.376523 0
6.593891 0.402581 0
6.606476 0.390250 0
6.620946 0.355324 0
6.634623 0.309424 0
6.646024 0.260775 0
6.654733 0.214761 0
6.661021 0.174438 0
6.665468 0.141082 0
6.668679 0.114745 0
6.671150 0.094752 0
6.673223 0.080079 0
6.675106 0.069628 0
6.676903 0.062381 0
6.678652 0.057484 0
6.680354 0.054279 0
6.681990 0.052304 0
6.683536 0.051288 0
6.684962 0.051132 0
6.686240 0.051909 0
6.687334 0.053864 0
6.688194 0.057439 0
6.688745 0.063309 0
6.688861 0.072454 0
6.688332 0.086265 0
6.686798 0.106700 0
6.683639 0.136515 0
6.677755 0.179599 0
6.667137 0.241441 0
6.647981 0.329774 0
6.612699 0.455187 0
6.545891 0.630991 0
6.415962 0.868278 0
6.167195 1.157916 0
5.752111 1.453190 0
5.200103 1.701689 0
4.561125 1.834783 0
3.655669 1.674730 0
1.552359 0.744735 0
0.000000 0.000000 0
-0.003996 0.000000 0
0.000000 0.000000 0
0.000000 0.000000 0
0.000000 0.000000 0
0.000000 0.000000 0
0.000000 0.000000 0
0.000000 0.000000 0
0.000000 0.000000 0
0.000000 0.000000 0
0.000000 0.000000 0
0.000000 0.000000 0
0.000000 0.000000 0
0.000000 0.000000 0
0.000000 0.000000 0
0.000000 0.000000 0
0.000000 0.000000 0
0.000000 0.000000 0
0.000000 0.000000 0
0.000000 0.000000 0
0.000000 0.000000 0
0.000000 0.000000 0
0.000000 0.000000 0
0.000000 0.000000 0
0.000000 0.000000 0
0.000000 0.000000 0
0.000000 0.000000 0
0.000000 0.000000 0
0.000000 0.000000 0
0.000000 0.000000 0
0.378834 -0.268271 0
1.302673 -0.849103 0
2.066883 -1.469012 0
2.759261 -2.113128 0
3.399280 -2.562071 0
4.284983 -3.392744 0
5.836067 -3.571654 0
6.157052 -2.408001 0
5.986837 -1.334362 0
5.747791 -0.602401 0
5.595067 -0.145359 0
5.518832 0.133953 0
5.505851 0.293068 0
5.536294 0.368140 0
5.592309 0.387509 0
5.660406 0.371950 0
5.730876 0.336520 0
5.797553 0.291891 0
5.857188 0.245402 0
5.908677 0.201765 0
5.952303 0.163626 0
5.989081 0.132070 0
6.020292 0.107111 0
6.047196 0.088114 0
6.070882 0.074136 0
6.092230 0.064154 0
6.111908 0.057219 0
6.130407 0.052530 0
6.148079 0.049465 0
6.165177 0.047587 0
6.181891 0.046635 0
6.198381 0.046516 0
6.214804 0.047300 0
6.231349 0.049222 0
6.248259 0.052711 0
6.265872 0.058423 0
6.284652 0.067319 0
6.305235 0.080770 0
6.328474 0.100731 0
6.355477 0.129994 0
6.387610 0.172590 0
6.426369 0.234405 0
6.472924 0.324230 0
6.526567 0.455279 0
6.580376 0.647115 0
6.609679 0.923414 0
6.541061 1.281074 0
6.303652 1.653184 0
5.921536 1.962734 0
5.427086 2.161157 0
4.784851 2.165734 0
3.761957 1.825353 0
1.541337 0.772997 0
0.000000 0.000000 0
-0.002612 0.000000 0
0.000000 0.000000 0
0.000000 0.000000 0
0.000000 0.000000 0
0.000000 0.000000 0
0.000000 0.000000 0
0.000000 0.000000 0
0.000000 0.000000 0
0.000000 0.000000 0
0.000000 0.000000 0
0.000000 0.000000 0
0.000000 0.000000 0
0.000000 0.000000 0
0.000000 0.000000 0
0.000000 0.000000 0
0.000000 0.000000 0
0.000000 0.000000 0
0.000000 0.000000 0
0.000000 0.000000 0
0.000000 0.000000 0
0.000000 0.000000 0
0.000000 0.000000 0
0.000000 0.000000 0
0.000000 0.000000 0
0.000000 0.000000 0
0.000000 0.000000 0
0.000000 0.000000 0
0.269947 -0.187634 0
1.000737 -0.646660 0
1.707513 -1.208267 0
2.324455 -1.793878 0
2.884582 -2.414191 0
3.399238 -2.931894 0
4.288017 -4.001781 0
5.748742 -3.970152 0
5.406124 -2.323702 0
4.742409 -1.139944 0
4.212990 -0.451682 0
3.923542 -0.063963 0
3.819278 0.162384 0
3.850365 0.282353 0
3.956227 0.333690 0
4.096289 0.341094 0
4.246518 0.321601 0
4.392335 0.287378 0
4.525784 0.246847 0
4.643334 0.205722 0
4.744327 0.167639 0
4.829841 0.134604 0
4.901854 0.107399 0
4.962663 0.085954 0
5.014514 0.069689 0
5.059414 0.057768 0
5.099044 0.049303 0
5.134755 0.043468 0
5.167598 0.039564 0
5.198372 0.037053 0
5.227684 0.035553 0
5.256009 0.034838 0
5.283748 0.034827 0
5.311293 0.035576 0
5.339082 0.037290 0
5.367677 0.040335 0
5.397840 0.045279 0
5.430630 0.052953 0
5.467536 0.064555 0
5.510632 0.081809 0
5.562791 0.107218 0
5.627941 0.144478 0
5.711347 0.199175 0
5.819801 0.280135 0
5.961339 0.401954 0
6.141455 0.589816 0
6.354337 0.887756 0
6.500445 1.309527 0
6.455377 1.760113 0
6.273100 2.135954 0
5.963167 2.397916 0
5.515787 2.499662 0
4.841718 2.361067 0
3.728276 1.875651 0
1.486370 0.766077 0
0.000001 0.000000 0
-0.001564 0.000000 0
0.000000 0.000000 0
0.000000 0.000000 0
0.000000 0.000000 0
0.000000 0.000000 0
0.000000 0.000000 0
0.000000 0.000000 0
0.000000 0.000000 0
0.000000 0.000000 0
0.000000 0.000000 0
0.000000 0.000000 0
0.000000 0.000000 0
0.000000 0.000000 0
0.000000 0.000000 0
0.000000 0.000000 0
0.000000 0.000000 0
0.000000 0.000000 0
0.000000 0.000000 0
0.000000 0.000000 0
0.000000 0.000000 0
0.000000 0.000000 0
0.000000 0.000000 0
0.000000 0.000000 0
0.000000 0.000000 0
0.000000 0.000000 0
0.210811 -0.132844 0
0.809581 -0.494843 0
1.473114 -0.980419 0
2.057008 -1.504895 0
2.538879 -2.052152 0
2.942259 -2.645593 0
3.300877 -3.257356 0
4.071813 -4.556728 0
5.223247 -4.125582 0
3.919942 -1.909447 0
2.777484 -0.743264 0
2.003168 -0.196720 0
1.719062 0.049693 0
1.749203 0.170206 0
1.909256 0.225221 0
2.128310 0.246305 0
2.367529 0.243694 0
2.604044 0.225284 0
2.823242 0.198168 0
3.017812 0.167542 0
3.185222 0.137132 0
3.326004 0.109367 0
3.442541 0.085584 0
3.538167 0.066268 0
3.616519 0.051297 0
3.681114 0.040182 0
3.735097 0.032258 0
3.781125 0.026828 0
3.821344 0.023256 0
3.857422 0.021013 0
3.890621 0.019697 0
3.921884 0.019032 0
3.951928 0.018860 0
3.981344 0.019128 0
4.010692 0.019887 0
4.040598 0.021288 0
4.071868 0.023601 0
4.105603 0.027235 0
4.143363 0.032790 0
4.187364 0.041136 0
4.240753 0.053540 0
4.307994 0.071877 0
4.395396 0.098993 0
4.511913 0.139354 0
4.670128 0.200380 0
4.888545 0.295927 0
5.188798 0.452417 0
5.611353 0.745564 0
6.037035 1.231017 0
6.205149 1.765814 0
6.253036 2.206583 0
6.165194 2.536342 0
5.923579 2.721319 0
5.490608 2.710916 0
4.772455 2.442369 0
3.604828 1.855356 0
1.410492 0.737602 0
0.000001 0.000000 0
-0.001056 0.000000 0
0.000000 0.000000 0
0.000000 0.000000 0
0.000000 0.000000 0
0.000000 0.000000 0
0.000000 0.000000 0
0.000000 0.000000 0
0.000000 0.000000 0
0.000000 0.000000 0
0.000000 0.000000 0
0.000000 0.000000 0
0.000000 0.000000 0
0.000000 0.000000 0
0.000000 0.000000 0
0.000000 0.000000 0
0.000000 0.000000 0
0.000000 0.000000 0
0.000000 0.000000 0
0.000000 0.000000 0
0.000000 0.000000 0
0.000000 0.000000 0
0.000000 0.000000 0
0.000000 0.000000 0
0.196562 -0.103072 0
0.727745 -0.398820 0
1.364504 -0.812107 0
1.932278 -1.264656 0
2.384772 -1.736264 0
2.712336 -2.232446 0
2.937074 -2.791697 0
3.103304 -3.491494 0
3.573968 -4.954155 0
4.024051 -3.894913 0
1.557768 -1.112030 0
0.421040 -0.190342 0
0.057487 0.072678 0
0.023960 0.061855 0
0.157792 0.068159 0
0.367522 0.094537 0
0.612402 0.106654 0
0.864689 0.105407 0
1.104299 0.095833 0
1.319426 0.082391 0
1.504301 0.067516 0
1.657611 0.053039 0
1.781102 0.040159 0
1.878368 0.029495 0
1.953855 0.021207 0
2.012130 0.015136 0
2.057399 0.010943 0
2.093239 0.008221 0
2.122512 0.006575 0
2.147391 0.005669 0
2.169454 0.005243 0
2.189806 0.005117 0
2.209212 0.005181 0
2.228222 0.005381 0
2.247281 0.005714 0
2.266832 0.006220 0
2.287422 0.006982 0
2.309803 0.008131 0
2.335061 0.009859 0
2.364777 0.012448 0
2.401248 0.016306 0
2.447809 0.022047 0
2.509318 0.030605 0
2.592894 0.043453 0
2.709135 0.063068 0
2.874180 0.093544 0
3.113602 0.144996 0
3.471509 0.231726 0
4.026806 0.467525 0
4.948364 1.015351 0
5.433473 1.653103 0
5.811474 2.155748 0
6.014957 2.561134 0
6.021212 2.833864 0
5.818785 2.931353 0
5.374701 2.809897 0
4.619834 2.436153 0
3.438689 1.790778 0
1.335844 0.699164 0
0.000001 0.000000 0
-0.001210 0.000000 0
0.000000 0.000000 0
0.000000 0.000000 0
0.000000 0.000000 0
0.000000 0.000000 0
0.000000 0.000000 0
0.000000 0.000000 0
0.000000 0.000000 0
0.000000 0.000000 0
0.000000 0.000000 0
0.000000 0.000000 0
0.000000 0.000000 0
0.000000 0.000000 0
0.000000 0.000000 0
0.000000 0.000000 0
0.000000 0.000000 0
0.000000 0.000000 0
0.000000 0.000000 0
0.000000 0.000000 0
0.000000 0.000000 0
0.000000 0.000000 0
0.226135 -0.095685 0
0.753808 -0.357475 0
1.383548 -0.710095 0
1.944212 -1.091588 0
2.382820 -1.485877 0
2.680988 -1.891349 0
2.840155 -2.325771 0
2.879147 -2.839286 0
2.825958 -3.572884 0
2.798434 -5.012881 0
1.635964 -3.002267 0
-0.000002 0.000000 0
-0.000001 0.000000 0
-0.000002 0.000000 0
-0.000002 0.000000 0
0.000001 0.000000 0
0.000004 0.000000 0
0.000007 0.000000 0
0.000008 0.000000 0
0.000006 0.000000 0
0.000004 0.000000 0
0.000001 0.000000 0
-0.000002 0.000000 0
-0.000006 0.000000 0
-0.000009 0.000000 0
-0.000012 0.000000 0
-0.000014 0.000000 0
-0.000018 0.000000 0
-0.000021 0.000000 0
-0.000025 0.000000 0
-0.000028 0.000000 0
-0.000033 0.000000 0
-0.000037 0.000000 0
-0.000040 0.000000 0
-0.000043 0.000000 0
-0.000046 0.000000 0
-0.000048 0.000000 0
-0.000049 0.000000 0
-0.000049 0.000000 0
-0.000049 0.000000 0
-0.000048 0.000000 0
-0.000047 0.000000 0
-0.000045 0.000000 0
-0.000044 0.000000 0
-0.000043 0.000000 0
-0.000043 0.000000 0
-0.000043 0.000000 0
-0.000044 0.000000 0
-0.000046 0.000000 0
-0.000051 0.000000 0
2.100657 0.520225 0
3.783365 1.338215 0
4.785604 1.918506 0
5.430271 2.432435 0
5.771894 2.818505 0
5.839714 3.031209 0
5.650091 3.036349 0
5.191714 2.814488 0
4.425452 2.366997 0
3.272968 1.705986 0
1.280478 0.661749 0
0.000001 0.000000 0
-0.002036 0.000000 0
0.000000 0.000000 0
0.000000 0.000000 0
0.000000 0.000000 0
0.000000 0.000000 0
0.000000 0.000000 0
0.000000 0.000000 0
0.000000 0.000000 0
0.000000 0.000000 0
0.000000 0.000000 0
0.000000 0.000000 0
0.000000 0.000000 0
0.000000 0.000000 0
0.000000 0.000000 0
0.000000 0.000000 0
0.000000 0.000000 0
0.000000 0.000000 0
0.000000 0.000000 0
0.000000 0.000000 0
0.309707 -0.109974 0
0.899432 -0.369697 0
1.544215 -0.674779 0
2.098703 -0.988566 0
2.521712 -1.307163 0
2.798414 -1.629667 0
2.927724 -1.962836 0
2.919182 -2.330618 0
2.785467 -2.784664 0
2.522855 -3.451507 0
2.018619 -4.381652 0
0.037665 0.000008 0
-0.073475 2.451021 0
0.384720 0.000000 0
0.310730 0.000000 0
0.238018 0.000000 0
0.185878 0.000000 0
0.100446 0.000000 0
-0.004939 0.000000 0
-0.114831 0.000000 0
-0.217704 0.000000 0
-0.308275 0.000000 0
-0.384015 0.000000 0
-0.444562 0.000000 0
-0.491081 0.000000 0
-0.525629 0.000000 0
-0.550623 0.000000 0
-0.568441 0.000000 0
-0.581181 0.000000 0
-0.590537 0.000000 0
-0.597783 0.000000 0
-0.603816 0.000000 0
-0.609233 0.000000 0
-0.614408 0.000000 0
-0.619570 0.000000 0
-0.624872 0.000000 0
-0.630437 0.000000 0
-0.636410 0.000000 0
-0.642996 0.000000 0
-0.650505 0.000000 0
-0.659408 0.000000 0
-0.670405 0.000000 0
-0.684532 0.000000 0
-0.703317 0.000000 0
-0.729031 0.000000 0
-0.765092 0.000000 0
-0.816740 0.000000 0
-0.892394 0.000000 0
-1.005560 0.000000 0
-1.185073 0.000000 0
-1.473306 0.139621 0
0.000000 0.000011 0
1.720140 0.326348 0
3.340022 1.339843 0
4.460408 2.072509 0
5.182473 2.631019 0
5.556670 2.991696 0
5.632119 3.130928 0
5.438612 3.042859 0
4.978969 2.741357 0
4.234568 2.258485 0
3.148913 1.622717 0
1.262819 0.634356 0
0.000001 0.000000 0
-0.003743 0.000000 0
0.000000 0.000000 0
0.000000 0.000000 0
0.000000 0.000000 0
0.000000 0.000000 0
0.000000 0.000000 0
0.000000 0.000000 0
0.000000 0.000000 0
0.000000 0.000000 0
0.000000 0.000000 0
0.000000 0.000000 0
0.000000 0.000000 0
0.000000 0.000000 0
0.000000 0.000000 0
0.000000 0.000000 0
0.000000 0.000000 0
0.000000 0.000000 0