# vtk DataFile Version 2.0
generated by CFD-lab course output (written by Tobias Neckel) 
ASCII

DATASET STRUCTURED_GRID
DIMENSIONS  82 60 1 
POINTS 4920 float

-1.500000 -0.500000 0
-1.402439 -0.500000 0
-1.304878 -0.500000 0
-1.207317 -0.500000 0
-1.109756 -0.500000 0
-1.012195 -0.500000 0
-0.914634 -0.500000 0
-0.817073 -0.500000 0
-0.719512 -0.500000 0
-0.621951 -0.500000 0
-0.524390 -0.500000 0
-0.426829 -0.500000 0
-0.329268 -0.500000 0
-0.231707 -0.500000 0
-0.134146 -0.500000 0
-0.036585 -0.500000 0
0.060976 -0.500000 0
0.158537 -0.500000 0
0.256098 -0.500000 0
0.353659 -0.500000 0
0.451220 -0.500000 0
0.548780 -0.500000 0
0.646341 -0.500000 0
0.743902 -0.500000 0
0.841463 -0.500000 0
0.939024 -0.500000 0
1.036585 -0.500000 0
1.134146 -0.500000 0
1.231707 -0.500000 0
1.329268 -0.500000 0
1.426829 -0.500000 0
1.524390 -0.500000 0
1.621951 -0.500000 0
1.719512 -0.500000 0
1.817073 -0.500000 0
1.914634 -0.500000 0
2.012195 -0.500000 0
2.109756 -0.500000 0
2.207317 -0.500000 0
2.304878 -0.500000 0
2.402439 -0.500000 0
2.500000 -0.500000 0
2.597561 -0.500000 0
2.695122 -0.500000 0
2.792683 -0.500000 0
2.890244 -0.500000 0
2.987805 -0.500000 0
3.085366 -0.500000 0
3.182927 -0.500000 0
3.280488 -0.500000 0
3.378049 -0.500000 0
3.475610 -0.500000 0
3.573171 -0.500000 0
3.670732 -0.500000 0
3.768293 -0.500000 0
3.865854 -0.500000 0
3.963415 -0.500000 0
4.060976 -0.500000 0
4.158537 -0.500000 0
4.256098 -0.500000 0
4.353659 -0.500000 0
4.451220 -0.500000 0
4.548780 -0.500000 0
4.646341 -0.500000 0
4.743902 -0.500000 0
4.841463 -0.500000 0
4.939024 -0.500000 0
5.036585 -0.500000 0
5.134146 -0.500000 0
5.231707 -0.500000 0
5.329268 -0.500000 0
5.426829 -0.500000 0
5.524390 -0.500000 0
5.621951 -0.500000 0
5.719512 -0.500000 0
5.817073 -0.500000 0
5.914634 -0.500000 0
6.012195 -0.500000 0
6.109756 -0.500000 0
6.207317 -0.500000 0
6.304878 -0.500000 0
6.402439 -0.500000 0
-1.500000 -0.451667 0
-1.402439 -0.451667 0
-1.304878 -0.451667 0
-1.207317 -0.451667 0
-1.109756 -0.451667 0
-1.012195 -0.451667 0
-0.914634 -0.451667 0
-0.817073 -0.451667 0
-0.719512 -0.451667 0
-0.621951 -0.451667 0
-0.524390 -0.451667 0
-0.426829 -0.451667 0
-0.329268 -0.451667 0
-0.231707 -0.451667 0
-0.134146 -0.451667 0
-0.036585 -0.451667 0
0.060976 -0.451667 0
0.158537 -0.451667 0
0.256098 -0.451667 0
0.353659 -0.451667 0
0.451220 -0.451667 0
0.548780 -0.451667 0
0.646341 -0.451667 0
0.743902 -0.451667 0
0.841463 -0.451667 0
0.939024 -0.451667 0
1.036585 -0.451667 0
1.134146 -0.451667 0
1.231707 -0.451667 0
1.329268 -0.451667 0
1.426829 -0.451667 0
1.524390 -0.451667 0
1.621951 -0.451667 0
1.719512 -0.451667 0
1.817073 -0.451667 0
1.914634 -0.451667 0
2.012195 -0.451667 0
2.109756 -0.451667 0
2.207317 -0.451667 0
2.304878 -0.451667 0
2.402439 -0.451667 0
2.500000 -0.451667 0
2.597561 -0.451667 0
2.695122 -0.451667 0
2.792683 -0.451667 0
2.890244 -0.451667 0
2.987805 -0.451667 0
3.085366 -0.451667 0
3.182927 -0.451667 0
3.280488 -0.451667 0
3.378049 -0.451667 0
3.475610 -0.451667 0
3.573171 -0.451667 0
3.670732 -0.451667 0
3.768293 -0.451667 0
3.865854 -0.451667 0
3.963415 -0.451667 0
4.060976 -0.451667 0
4.158537 -0.451667 0
4.256098 -0.451667 0
4.353659 -0.451667 0
4.451220 -0.451667 0
4.548780 -0.451667 0
4.646341 -0.451667 0
4.743902 -0.451667 0
4.841463 -0.451667 0
4.939024 -0.451667 0
5.036585 -0.451667 0
5.134146 -0.451667 0
5.231707 -0.451667 0
5.329268 -0.451667 0
5.426829 -0.451667 0
5.524390 -0.451667 0
5.621951 -0.451667 0
5.719512 -0.451667 0
5.817073 -0.451667 0
5.914634 -0.451667 0
6.012195 -0.451667 0
6.109756 -0.451667 0
6.207317 -0.451667 0
6.304878 -0.451667 0
6.402439 -0.451667 0
-1.500000 -0.403333 0
-1.402439 -0.403333 0
-1.304878 -0.403333 0
-1.207317 -0.403333 0
-1.109756 -0.403333 0
-1.012195 -0.403333 0
-0.914634 -0.403333 0
-0.817073 -0.403333 0
-0.719512 -0.403333 0
-0.621951 -0.403333 0
-0.524390 -0.403333 0
-0.426829 -0.403333 0
-0.329268 -0.403333 0
-0.231707 -0.403333 0
-0.134146 -0.403333 0
-0.036585 -0.403333 0
0.060976 -0.403333 0
0.158537 -0.403333 0
0.256098 -0.403333 0
0.353659 -0.403333 0
0.451220 -0.403333 0
0.548780 -0.403333 0
0.646341 -0.403333 0
0.743902 -0.403333 0
0.841463 -0.403333 0
0.939024 -0.403333 0
1.036585 -0.403333 0
1.134146 -0.403333 0
1.231707 -0.403333 0
1.329268 -0.403333 0
1.426829 -0.403333 0
1.524390 -0.403333 0
1.621951 -0.403333 0
1.719512 -0.403333 0
1.817073 -0.403333 0
1.914634 -0.403333 0
2.012195 -0.403333 0
2.109756 -0.403333 0
2.207317 -0.403333 0
2.304878 -0.403333 0
2.402439 -0.403333 0
2.500000 -0.403333 0
2.597561 -0.403333 0
2.695122 -0.403333 0
2.792683 -0.403333 0
2.890244 -0.403333 0
2.987805 -0.403333 0
3.085366 -0.403333 0
3.182927 -0.403333 0
3.280488 -0.403333 0
3.378049 -0.403333 0
3.475610 -0.403333 0
3.573171 -0.403333 0
3.670732 -0.403333 0
3.768293 -0.403333 0
3.865854 -0.403333 0
3.963415 -0.403333 0
4.060976 -0.403333 0
4.158537 -0.403333 0
4.256098 -0.403333 0
4.353659 -0.403333 0
4.451220 -0.403333 0
4.548780 -0.403333 0
4.646341 -0.403333 0
4.743902 -0.403333 0
4.841463 -0.403333 0
4.939024 -0.403333 0
5.036585 -0.403333 0
5.134146 -0.403333 0
5.231707 -0.403333 0
5.329268 -0.403333 0
5.426829 -0.403333 0
5.524390 -0.403333 0
5.621951 -0.403333 0
5.719512 -0.403333 0
5.817073 -0.403333 0
5.914634 -0.403333 0
6.012195 -0.403333 0
6.109756 -0.403333 0
6.207317 -0.403333 0
6.304878 -0.403333 0
6.402439 -0.403333 0
-1.500000 -0.355000 0
-1.402439 -0.355000 0
-1.304878 -0.355000 0
-1.207317 -0.355000 0
-1.109756 -0.355000 0
-1.012195 -0.355000 0
-0.914634 -0.355000 0
-0.817073 -0.355000 0
-0.719512 -0.355000 0
-0.621951 -0.355000 0
-0.524390 -0.355000 0
-0.426829 -0.355000 0
-0.329268 -0.355000 0
-0.231707 -0.355000 0
-0.134146 -0.355000 0
-0.036585 -0.355000 0
0.060976 -0.355000 0
0.158537 -0.355000 0
0.256098 -0.355000 0
0.353659 -0.355000 0
0.451220 -0.355000 0
0.548780 -0.355000 0
0.646341 -0.355000 0
0.743902 -0.355000 0
0.841463 -0.355000 0
0.939024 -0.355000 0
1.036585 -0.355000 0
1.134146 -0.355000 0
1.231707 -0.355000 0
1.329268 -0.355000 0
1.426829 -0.355000 0
1.524390 -0.355000 0
1.621951 -0.355000 0
1.719512 -0.355000 0
1.817073 -0.355000 0
1.914634 -0.355000 0
2.012195 -0.355000 0
2.109756 -0.355000 0
2.207317 -0.355000 0
2.304878 -0.355000 0
2.402439 -0.355000 0
2.500000 -0.355000 0
2.597561 -0.355000 0
2.695122 -0.355000 0
2.792683 -0.355000 0
2.890244 -0.355000 0
2.987805 -0.355000 0
3.085366 -0.355000 0
3.182927 -0.355000 0
3.280488 -0.355000 0
3.378049 -0.355000 0
3.475610 -0.355000 0
3.573171 -0.355000 0
3.670732 -0.355000 0
3.768293 -0.355000 0
3.865854 -0.355000 0
3.963415 -0.355000 0
4.060976 -0.355000 0
4.158537 -0.355000 0
4.256098 -0.355000 0
4.353659 -0.355000 0
4.451220 -0.355000 0
4.548780 -0.355000 0
4.646341 -0.355000 0
4.743902 -0.355000 0
4.841463 -0.355000 0
4.939024 -0.355000 0
5.036585 -0.355000 0
5.134146 -0.355000 0
5.231707 -0.355000 0
5.329268 -0.355000 0
5.426829 -0.355000 0
5.524390 -0.355000 0
5.621951 -0.355000 0
5.719512 -0.355000 0
5.817073 -0.355000 0
5.914634 -0.355000 0
6.012195 -0.355000 0
6.109756 -0.355000 0
6.207317 -0.355000 0
6.304878 -0.355000 0
6.402439 -0.355000 0
-1.500000 -0.306667 0
-1.402439 -0.306667 0
-1.304878 -0.306667 0
-1.207317 -0.306667 0
-1.109756 -0.306667 0
-1.012195 -0.306667 0
-0.914634 -0.306667 0
-0.817073 -0.306667 0
-0.719512 -0.306667 0
-0.621951 -0.306667 0
-0.524390 -0.306667 0
-0.426829 -0.306667 0
-0.329268 -0.306667 0
-0.231707 -0.306667 0
-0.134146 -0.306667 0
-0.036585 -0.306667 0
0.060976 -0.306667 0
0.158537 -0.306667 0
0.256098 -0.306667 0
0.353659 -0.306667 0
0.451220 -0.306667 0
0.548780 -0.306667 0
0.646341 -0.306667 0
0.743902 -0.306667 0
0.841463 -0.306667 0
0.939024 -0.306667 0
1.036585 -0.306667 0
1.134146 -0.306667 0
1.231707 -0.306667 0
1.329268 -0.306667 0
1.426829 -0.306667 0
1.524390 -0.306667 0
1.621951 -0.306667 0
1.719512 -0.306667 0
1.817073 -0.306667 0
1.914634 -0.306667 0
2.012195 -0.306667 0
2.109756 -0.306667 0
2.207317 -0.306667 0
2.304878 -0.306667 0
2.402439 -0.306667 0
2.500000 -0.306667 0
2.597561 -0.306667 0
2.695122 -0.306667 0
2.792683 -0.306667 0
2.890244 -0.306667 0
2.987805 -0.306667 0
3.085366 -0.306667 0
3.182927 -0.306667 0
3.280488 -0.306667 0
3.378049 -0.306667 0
3.475610 -0.306667 0
3.573171 -0.306667 0
3.670732 -0.306667 0
3.768293 -0.306667 0
3.865854 -0.306667 0
3.963415 -0.306667 0
4.060976 -0.306667 0
4.158537 -0.306667 0
4.256098 -0.306667 0
4.353659 -0.306667 0
4.451220 -0.306667 0
4.548780 -0.306667 0
4.646341 -0.306667 0
4.743902 -0.306667 0
4.841463 -0.306667 0
4.939024 -0.306667 0
5.036585 -0.306667 0
5.134146 -0.306667 0
5.231707 -0.306667 0
5.329268 -0.306667 0
5.426829 -0.306667 0
5.524390 -0.306667 0
5.621951 -0.306667 0
5.719512 -0.306667 0
5.817073 -0.306667 0
5.914634 -0.306667 0
6.012195 -0.306667 0
6.109756 -0.306667 0
6.207317 -0.306667 0
6.304878 -0.306667 0
6.402439 -0.306667 0
-1.500000 -0.258333 0
-1.402439 -0.258333 0
-1.304878 -0.258333 0
-1.207317 -0.258333 0
-1.109756 -0.258333 0
-1.012195 -0.258333 0
-0.914634 -0.258333 0
-0.817073 -0.258333 0
-0.719512 -0.258333 0
-0.621951 -0.258333 0
-0.524390 -0.258333 0
-0.426829 -0.258333 0
-0.329268 -0.258333 0
-0.231707 -0.258333 0
-0.134146 -0.258333 0
-0.036585 -0.258333 0
0.060976 -0.258333 0
0.158537 -0.258333 0
0.256098 -0.258333 0
0.353659 -0.258333 0
0.451220 -0.258333 0
0.548780 -0.258333 0
0.646341 -0.258333 0
0.743902 -0.258333 0
0.841463 -0.258333 0
0.939024 -0.258333 0
1.036585 -0.258333 0
1.134146 -0.258333 0
1.231707 -0.258333 0
1.329268 -0.258333 0
1.426829 -0.258333 0
1.524390 -0.258333 0
1.621951 -0.258333 0
1.719512 -0.258333 0
1.817073 -0.258333 0
1.914634 -0.258333 0
2.012195 -0.258333 0
2.109756 -0.258333 0
2.207317 -0.258333 0
2.304878 -0.258333 0
2.402439 -0.258333 0
2.500000 -0.258333 0
2.597561 -0.258333 0
2.695122 -0.258333 0
2.792683 -0.258333 0
2.890244 -0.258333 0
2.987805 -0.258333 0
3.085366 -0.258333 0
3.182927 -0.258333 0
3.280488 -0.258333 0
3.378049 -0.258333 0
3.475610 -0.258333 0
3.573171 -0.258333 0
[...]
POINT_DATA 4920 

VECTORS velocity float
0.000000 0.000000 0
0.000000 0.000000 0
0.000000 0.000000 0
0.000000 0.000000 0
0.000000 0.000000 0
0.000000 0.000000 0
0.000000 0.000000 0
0.000000 0.000000 0
0.000000 0.000000 0
0.000000 0.000000 0
0.000000 0.000000 0
0.000000 0.000000 0
0.000000 0.000000 0
0.000000 0.000000 0
0.000000 0.000000 0
-0.000120 0.000000 0
0.000022 0.000000 0
0.000248 0.000000 0
0.000466 0.000000 0
0.000613 0.000000 0
0.000711 0.000000 0
0.000768 0.000000 0
0.000784 0.000000 0
0.000748 0.000000 0
0.000651 0.000000 0
0.000487 0.000000 0
0.000271 0.000000 0
0.000033 0.000000 0
-0.000239 0.000000 0
-0.000580 0.000000 0
-0.000794 0.000000 0
-0.000921 0.000000 0
-0.000998 0.000000 0
-0.001022 0.000000 0
-0.001002 0.000000 0
-0.000958 0.000000 0
-0.000904 0.000000 0
-0.000853 0.000000 0
-0.000809 0.000000 0
-0.000775 0.000000 0
-0.000750 0.000000 0
-0.000734 0.000000 0
-0.000721 0.000000 0
-0.000713 0.000000 0
-0.000709 0.000000 0
-0.000708 0.000000 0
-0.000712 0.000000 0
-0.000718 0.000000 0
-0.000727 0.000000 0
-0.000736 0.000000 0
-0.000743 0.000000 0
-0.000743 0.000000 0
-0.000725 0.000000 0
-0.000678 0.000000 0
-0.000571 0.000000 0
-0.000412 0.000000 0
0.000002 0.000000 0
0.002572 0.000000 0
0.000000 0.000000 0
0.000000 0.000000 0
0.000000 0.000000 0
0.000000 0.000000 0
0.000000 0.000000 0
0.000000 0.000000 0
0.000000 0.000000 0
0.000000 0.000000 0
0.000000 0.000000 0
0.000000 0.000000 0
0.000000 0.000000 0
0.000000 0.000000 0
0.000000 0.000000 0
0.000000 0.000000 0
0.000000 0.000000 0
0.000000 0.000000 0
0.000000 0.000000 0
0.000000 0.000000 0
0.000000 0.000000 0
0.000000 0.000000 0
0.000000 0.000000 0
0.000000 0.000000 0
0.000000 0.000000 0
0.000000 0.000000 0
0.000000 0.000000 0
0.000000 0.000000 0
0.000000 0.000000 0
0.000000 0.000000 0
0.000000 0.000000 0
0.000000 0.000000 0
0.000000 0.000000 0
0.000000 0.000000 0
0.000000 0.000000 0
0.000000 0.000000 0
0.000000 0.000000 0
0.000000 0.000000 0
0.000000 0.000000 0
0.000000 0.000000 0
1.129440 -0.443387 0
2.647908 -0.761729 0
3.906752 -0.500214 0
4.718418 -0.244043 0
5.102757 -0.041966 0
5.154166 0.091802 0
4.983959 0.170719 0
4.681003 0.207151 0
4.314918 0.210995 0
3.938886 0.191413 0
3.590871 0.157320 0
3.294548 0.117118 0
3.060662 0.078132 0
2.889530 0.045163 0
2.776202 0.018254 0
2.711925 -0.002167 0
2.684169 -0.013106 0
2.683532 -0.016461 0
2.699887 -0.016395 0
2.723673 -0.014543 0
2.748529 -0.011812 0
2.770756 -0.008919 0
2.788741 -0.006332 0
2.802234 -0.004247 0
2.811693 -0.002663 0
2.817823 -0.001484 0
2.821285 -0.000605 0
2.822554 0.000125 0
2.821941 0.000900 0
2.819270 0.001877 0
2.814013 0.003201 0
2.805234 0.005077 0
2.791431 0.007804 0
2.770283 0.011812 0
2.738285 0.017713 0
2.690225 0.026358 0
2.618511 0.038868 0
2.512251 0.056561 0
2.356705 0.080633 0
2.132252 0.111248 0
1.819564 0.144916 0
1.391004 0.188741 0
0.866780 0.107877 0
0.000001 0.000000 0
-0.003893 0.000000 0
0.000000 0.000000 0
0.000000 0.000000 0
0.000000 0.000000 0
0.000000 0.000000 0
0.000000 0.000000 0
0.000000 0.000000 0
0.000000 0.000000 0
0.000000 0.000000 0
0.000000 0.000000 0
0.000000 0.000000 0
0.000000 0.000000 0
0.000000 0.000000 0
0.000000 0.000000 0
0.000000 0.000000 0
0.000000 0.000000 0
0.000000 0.000000 0
0.000000 0.000000 0
0.000000 0.000000 0
0.000000 0.000000 0
0.000000 0.000000 0
0.000000 0.000000 0
0.000000 0.000000 0
0.000000 0.000000 0
0.000000 0.000000 0
0.000000 0.000000 0
0.000000 0.000000 0
0.000000 0.000000 0
0.000000 0.000000 0
0.000000 0.000000 0
0.000000 0.000000 0
0.000000 0.000000 0
0.000000 0.000000 0
0.000000 0.000000 0
0.000000 0.000000 0
0.000000 0.000000 0
0.000000 0.000000 0
1.251624 -0.558221 0
2.847042 -1.310255 0
4.011762 -1.375687 0
5.162652 -1.025765 0
5.994092 -0.592520 0
6.484879 -0.215876 0
6.689204 0.058855 0
6.689505 0.234413 0
6.554608 0.331455 0
6.337450 0.367658 0
6.078692 0.358705 0
5.809043 0.319216 0
5.550928 0.262675 0
5.319669 0.200653 0
5.125178 0.140927 0
4.972494 0.087989 0
4.857838 0.045595 0
4.777217 0.014067 0
4.727909 -0.007787 0
4.702590 -0.019886 0
4.693794 -0.024098 0
4.694453 -0.023325 0
4.699470 -0.019921 0
4.705647 -0.015594 0
4.711259 -0.011370 0
4.715579 -0.007723 0
4.718441 -0.004752 0
4.719890 -0.002343 0
4.719970 -0.000324 0
4.718598 0.001627 0
4.715492 0.003928 0
4.710063 0.006954 0
4.701327 0.011188 0
4.687743 0.017316 0
4.666962 0.026330 0
4.635439 0.039663 0
4.587849 0.059338 0
4.516266 0.088172 0
4.408906 0.129703 0
4.248755 0.188259 0
4.011027 0.266109 0
3.664984 0.367227 0
3.162444 0.471374 0
2.514640 0.685480 0
1.298172 0.426422 0
-0.000010 0.000000 0
-0.007470 0.000000 0
0.000000 0.000000 0
0.000000 0.000000 0
0.000000 0.000000 0
0.000000 0.000000 0
0.000000 0.000000 0
0.000000 0.000000 0
0.000000 0.000000 0
0.000000 0.000000 0
0.000000 0.000000 0
0.000000 0.000000 0
0.000000 0.000000 0
0.000000 0.000000 0
0.000000 0.000000 0
0.000000 0.000000 0
0.000000 0.000000 0
0.000000 0.000000 0
0.000000 0.000000 0
0.000000 0.000000 0
0.000000 0.000000 0
0.000000 0.000000 0
0.000000 0.000000 0
0.000000 0.000000 0
0.000000 0.000000 0
0.000000 0.000000 0
0.000000 0.000000 0
0.000000 0.000000 0
0.000000 0.000000 0
0.000000 0.000000 0
0.000000 0.000000 0
0.000000 0.000000 0
0.000000 0.000000 0
0.000000 0.000000 0
0.000000 0.000000 0
0.000000 0.000000 0
1.050736 -0.628149 0
2.848978 -1.417223 0
3.676485 -1.809482 0
4.820487 -1.908921 0
5.856338 -1.482293 0
6.558462 -0.899096 0
6.960571 -0.386336 0
7.152598 -0.009573 0
7.201442 0.237400 0
7.157100 0.381565 0
7.054984 0.446772 0
6.919929 0.453195 0
6.769395 0.418783 0
6.616056 0.359562 0
6.469502 0.289056 0
6.337116 0.217160 0
6.222549 0.150699 0
6.126568 0.094576 0
6.049329 0.051263 0
5.986223 0.020511 0
5.934125 0.000506 0
5.891489 -0.010511 0
5.856591 -0.014624 0
5.827919 -0.014465 0
5.804321 -0.012172 0
5.784991 -0.009168 0
5.769360 -0.006221 0
5.756954 -0.003620 0
5.747287 -0.001363 0
5.739760 0.000765 0
5.733522 0.003119 0
5.727813 0.006105 0
5.721755 0.010218 0
5.714265 0.016135 0
5.703956 0.024829 0
5.688947 0.037724 0
5.666561 0.056907 0
5.632855 0.085398 0
5.581880 0.127520 0
5.504525 0.189091 0
5.386554 0.277749 0
5.206120 0.400458 0
4.928756 0.565319 0
4.514971 0.758641 0
3.900374 1.025944 0
3.271103 1.245851 0
1.518628 0.648717 0
-0.000007 0.000000 0
-0.007435 0.000000 0
0.000000 0.000000 0
0.000000 0.000000 0
0.000000 0.000000 0
0.000000 0.000000 0
0.000000 0.000000 0
0.000000 0.000000 0
0.000000 0.000000 0
0.000000 0.000000 0
0.000000 0.000000 0
0.000000 0.000000 0
0.000000 0.000000 0
0.000000 0.000000 0
0.000000 0.000000 0
0.000000 0.000000 0
0.000000 0.000000 0
0.000000 0.000000 0
0.000000 0.000000 0
0.000000 0.000000 0
0.000000 0.000000 0
0.000000 0.000000 0
0.000000 0.000000 0
0.000000 0.000000 0
0.000000 0.000000 0
0.000000 0.000000 0
0.000000 0.000000 0
0.000000 0.000000 0
0.000000 0.000000 0
0.000000 0.000000 0
0.000000 0.000000 0
0.000000 0.000000 0
0.000000 0.000000 0
0.000000 0.000000 0
0.864142 -0.524675 0
2.387712 -1.423628 0
3.322216 -1.867134 0
4.044645 -2.286973 0
5.348446 -2.455622 0
6.289614 -1.886786 0
6.810941 -1.139575 0
7.062744 -0.510221 0
7.171266 -0.060477 0
7.196906 0.232183 0
7.173852 0.404013 0
7.124840 0.485156 0
7.063122 0.500191 0
6.995431 0.469760 0
6.925254 0.411247 0
6.855115 0.338845 0
6.787278 0.263271 0
6.722817 0.192298 0
6.662099 0.131412 0
6.605175 0.083597 0
6.551466 0.049287 0
6.499594 0.027047 0
6.448436 0.014314 0
6.398795 0.008169 0
6.351892 0.005974 0
6.308997 0.005673 0
6.271197 0.005950 0
6.239199 0.006167 0
6.213217 0.006184 0
6.192964 0.006175 0
6.177673 0.006495 0
6.166344 0.007546 0
6.157879 0.009758 0
6.151143 0.013666 0
6.144994 0.020006 0
6.138253 0.029859 0
6.129596 0.044856 0
6.117366 0.067451 0
6.099263 0.101291 0
6.071814 0.151748 0
6.029465 0.226471 0
5.962630 0.336094 0
5.854858 0.492909 0
5.675335 0.709634 0
5.384900 0.980852 0
4.924782 1.301713 0
4.415282 1.612610 0
3.673196 1.634236 0
1.591912 0.759800 0
0.000001 0.000000 0
-0.005622 0.000000 0
0.000000 0.000000 0
0.000000 0.000000 0
0.000000 0.000000 0
0.000000 0.000000 0
0.000000 0.000000 0
0.000000 0.000000 0
0.000000 0.000000 0
0.000000 0.000000 0
0.000000 0.000000 0
0.000000 0.000000 0
0.000000 0.000000 0
0.000000 0.000000 0
0.000000 0.000000 0
0.000000 0.000000 0
0.000000 0.000000 0
0.000000 0.000000 0
0.000000 0.000000 0
0.000000 0.000000 0
0.000000 0.000000 0
0.000000 0.000000 0
0.000000 0.000000 0
0.000000 0.000000 0
0.000000 0.000000 0
0.000000 0.000000 0
0.000000 0.000000 0
0.000000 0.000000 0
0.000000 0.000000 0
0.000000 0.000000 0
0.000000 0.000000 0
0.000000 0.000000 0
0.665294 -0.432199 0
1.956328 -1.191124 0
2.779451 -1.850043 0
3.488698 -2.238095 0
4.252419 -2.813310 0
5.731540 -3.021116 0
6.471077 -2.206837 0
6.719421 -1.282118 0
6.766995 -0.564847 0
6.766147 -0.076039 0
6.751150 0.236119 0
6.734168 0.417268 0
6.721863 0.501630 0
6.715791 0.517307 0
6.713503 0.487086 0
6.711270 0.429077 0
6.706066 0.357411 0
6.696116 0.282702 0
6.680341 0.212715 0
6.658349 0.152858 0
6.630391 0.106072 0
6.597062 0.072817 0
6.559218 0.051549 0
6.518246 0.039427 0
6.475974 0.033206 0
6.434568 0.030023 0
6.396101 0.027805 0
6.362192 0.025411 0
6.333797 0.022503 0
6.311163 0.019286 0
6.293933 0.016247 0
6.281358 0.013953 0
6.272523 0.012925 0
6.266476 0.013636 0
6.262349 0.016602 0
6.259403 0.022521 0
6.257017 0.032458 0
6.254649 0.048072 0
6.251752 0.071934 0
6.247647 0.107966 0
6.241254 0.162099 0
6.230538 0.243182 0
6.210899 0.364253 0
6.172052 0.542789 0
6.088924 0.798143 0
5.916786 1.130478 0
5.607144 1.506309 0
5.217854 1.865908 0
4.726117 2.060530 0
3.808859 1.838580 0
1.565035 0.794409 0
0.000007 0.000000 0
-0.003467 0.000000 0
0.000000 0.000000 0
0.000000 0.000000 0
0.000000 0.000000 0
0.000000 0.000000 0
0.000000 0.000000 0
0.000000 0.000000 0
0.000000 0.000000 0
0.000000 0.000000 0
0.000000 0.000000 0
0.000000 0.000000 0
0.000000 0.000000 0
0.000000 0.000000 0
0.000000 0.000000 0
0.000000 0.000000 0
0.000000 0.000000 0
0.000000 0.000000 0
0.000000 0.000000 0
0.000000 0.000000 0
0.000000 0.000000 0
0.000000 0.000000 0
0.000000 0.000000 0
0.000000 0.000000 0
0.000000 0.000000 0
0.000000 0.000000 0
0.000000 0.000000 0
0.000000 0.000000 0
0.000000 0.000000 0
0.000000 0.000000 0
0.499284 -0.331425 0
1.555560 -0.975114 0
2.297011 -1.576153 0
2.931763 -2.182790 0
3.521808 -2.596867 0
4.365554 -3.398114 0
5.932378 -3.554782 0
6.275644 -2.376199 0
6.138291 -1.286177 0
5.934632 -0.533370 0
5.816530 -0.052627 0
5.768324 0.248026 0
5.775536 0.418522 0
5.819283 0.494260 0
5.884861 0.504333 0
5.959319 0.472000 0
6.032467 0.414932 0
6.097371 0.346352 0
6.150046 0.276016 0
6.188667 0.211009 0
6.213128 0.156158 0
6.224674 0.113959 0
6.225459 0.084548 0
6.218237 0.066094 0
6.206093 0.055555 0
6.191988 0.049624 0
6.178419 0.045545 0
6.167082 0.041530 0
6.158772 0.036817 0
6.153501 0.031448 0
6.150770 0.025933 0
6.149865 0.020941 0
6.150115 0.017102 0
6.151043 0.014919 0
6.152394 0.014798 0
6.154131 0.017171 0
6.156408 0.022648 0
6.159552 0.032214 0
6.164072 0.047465 0
6.170705 0.070920 0
6.180483 0.106492 0
6.194762 0.160225 0
6.215113 0.241510 0
6.242291 0.365068 0
6.273076 0.553338 0
6.289474 0.836097 0
6.231185 1.219534 0
6.040658 1.647976 0
5.763977 2.049086 0
5.407549 2.332276 0
4.830360 2.338984 0
3.748208 1.903597 0
1.473186 0.778837 0
0.000009 0.000000 0
-0.001807 0.000000 0
0.000000 0.000000 0
0.000000 0.000000 0
0.000000 0.000000 0
0.000000 0.000000 0
0.000000 0.000000 0
0.000000 0.000000 0
0.000000 0.000000 0
0.000000 0.000000 0
0.000000 0.000000 0
0.000000 0.000000 0
0.000000 0.000000 0
0.000000 0.000000 0
0.000000 0.000000 0
0.000000 0.000000 0
0.000000 0.000000 0
0.000000 0.000000 0
0.000000 0.000000 0
0.000000 0.000000 0
0.000000 0.000000 0
0.000000 0.000000 0
0.000000 0.000000 0
0.000000 0.000000 0
0.000000 0.000000 0
0.000000 0.000000 0
0.000000 0.000000 0
0.000000 0.000000 0
0.374865 -0.247579 0
1.238650 -0.772703 0
1.930082 -1.324650 0
2.491038 -1.872918 0
2.993524 -2.456828 0
3.469930 -2.948419 0
4.346040 -4.007547 0
5.842060 -3.967406 0
5.527149 -2.308850 0
4.906971 -1.113174 0
4.432932 -0.405441 0
4.192497 0.006353 0
4.153381 0.256428 0
4.237393 0.392022 0
4.384562 0.447468 0
4.560637 0.447931 0
4.741926 0.413959 0
4.913201 0.360683 0
5.065555 0.299161 0
5.194716 0.237473 0
5.299685 0.181464 0
5.381864 0.135020 0
5.444365 0.099963 0
5.491303 0.076006 0
5.527146 0.061144 0
5.556065 0.052431 0
5.581328 0.046916 0
5.604966 0.042362 0
5.627741 0.037539 0
5.649445 0.032140 0
5.669378 0.026468 0
5.686823 0.021088 0
5.701366 0.016572 0
5.713034 0.013370 0
5.722275 0.011797 0
5.729844 0.012106 0
5.736709 0.014613 0
5.743999 0.019836 0
5.753042 0.028661 0
5.765483 0.042547 0
5.783502 0.063805 0
5.810121 0.096048 0
5.849608 0.144943 0
5.907907 0.219636 0
5.992765 0.335537 0
6.110835 0.519413 0
6.259887 0.818897 0
6.348990 1.253746 0
6.272322 1.737772 0
6.106416 2.179560 0
5.853321 2.523060 0
5.450790 2.660646 0
4.748804 2.467575 0
3.550794 1.868463 0
1.347595 0.731413 0
0.000007 0.000000 0
-0.000950 0.000000 0
0.000000 0.000000 0
0.000000 0.000000 0
0.000000 0.000000 0
0.000000 0.000000 0
0.000000 0.000000 0
0.000000 0.000000 0
0.000000 0.000000 0
0.000000 0.000000 0
0.000000 0.000000 0
0.000000 0.000000 0
0.000000 0.000000 0
0.000000 0.000000 0
0.000000 0.000000 0
0.000000 0.000000 0
0.000000 0.000000 0
0.000000 0.000000 0
0.000000 0.000000 0
0.000000 0.000000 0
0.000000 0.000000 0
0.000000 0.000000 0
0.000000 0.000000 0
0.000000 0.000000 0
0.000000 0.000000 0
0.000000 0.000000 0
0.294613 -0.184821 0
1.017719 -0.612980 0
1.678413 -1.102131 0
2.213819 -1.595568 0
2.638005 -2.102999 0
2.996637 -2.667748 0
3.334211 -3.266926 0
4.116865 -4.573307 0
5.309248 -4.139923 0
4.026587 -1.912940 0
2.925672 -0.744084 0
2.217229 -0.179407 0
1.982724 0.085867 0
2.076671 0.225784 0
2.307187 0.303992 0
2.595039 0.334120 0
2.902909 0.327289 0
3.201904 0.297334 0
3.474802 0.254600 0
3.712515 0.206885 0
3.911689 0.160025 0
4.073073 0.118292 0
4.200384 0.084481 0
4.299304 0.059742 0
4.376410 0.043537 0
4.438082 0.034010 0
4.489564 0.028712 0
4.534377 0.025397 0
4.574281 0.022551 0
4.609706 0.019495 0
4.640405 0.016190 0
4.666064 0.012931 0
4.686691 0.010086 0
4.702746 0.007955 0
4.715101 0.006744 0
4.724915 0.006591 0
4.733524 0.007648 0
4.742396 0.010158 0
4.753197 0.014556 0
4.767952 0.021571 0
4.789322 0.032375 0
4.821027 0.048806 0
4.868432 0.073742 0
4.939442 0.111781 0
5.045615 0.170587 0
5.204772 0.264534 0
5.438339 0.421002 0
5.788141 0.718111 0
6.135427 1.213373 0
6.232543 1.768151 0
6.232639 2.256666 0
6.104806 2.657084 0
5.826692 2.886180 0
5.334947 2.844887 0
4.523889 2.469935 0
3.278379 1.765492 0
1.218526 0.667908 0
0.000004 0.000000 0
-0.000824 0.000000 0
0.000000 0.000000 0
0.000000 0.000000 0
0.000000 0.000000 0
0.000000 0.000000 0
0.000000 0.000000 0
0.000000 0.000000 0
0.000000 0.000000 0
0.000000 0.000000 0
0.000000 0.000000 0
0.000000 0.000000 0
0.000000 0.000000 0
0.000000 0.000000 0
0.000000 0.000000 0
0.000000 0.000000 0
0.000000 0.000000 0
0.000000 0.000000 0
0.000000 0.000000 0
0.000000 0.000000 0
0.000000 0.000000 0
0.000000 0.000000 0
0.000000 0.000000 0
0.000000 0.000000 0
0.259617 -0.144365 0
0.897540 -0.501710 0
1.544515 -0.932243 0
2.074036 -1.365270 0
2.473652 -1.800048 0
2.753390 -2.260739 0
2.949407 -2.801739 0
3.111495 -3.503398 0
3.606971 -4.986013 0
4.089322 -3.922681 0
1.627160 -1.127986 0
0.485206 -0.216788 0
0.125225 0.061712 0
0.123073 0.075988 0
0.298549 0.095684 0
0.578819 0.135214 0
0.912158 0.152337 0
1.253243 0.147280 0
1.572792 0.130634 0
1.853413 0.107718 0
2.086704 0.082720 0
2.271011 0.058846 0
2.409715 0.038439 0
2.509785 0.022942 0
2.580240 0.012757 0
2.630374 0.007254 0
2.668121 0.005086 0
2.699024 0.004725 0
2.726076 0.004946 0
2.750289 0.005042 0
2.771596 0.004780 0
2.789640 0.004219 0
2.804275 0.003537 0
2.815741 0.002915 0
2.824633 0.002497 0
2.831799 0.002387 0
2.838245 0.002670 0
2.845104 0.003446 0
2.853682 0.004866 0
2.865608 0.007175 0
2.883064 0.010764 0
2.909149 0.016253 0
2.948413 0.024613 0
3.007664 0.037383 0
3.097262 0.057163 0
3.233294 0.088187 0
3.441593 0.140975 0
3.767257 0.230403 0
4.291386 0.473548 0
5.185052 1.033581 0
5.643430 1.689612 0
5.995661 2.242843 0
6.108386 2.724172 0
5.989621 3.042047 0
5.659145 3.113006 0
5.086784 2.887321 0
4.217802 2.371852 0
2.996455 1.626765 0
1.114019 0.603372 0
0.000001 0.000000 0
-0.001271 0.000000 0
0.000000 0.000000 0
0.000000 0.000000 0
0.000000 0.000000 0
0.000000 0.000000 0
0.000000 0.000000 0
0.000000 0.000000 0
0.000000 0.000000 0
0.000000 0.000000 0
0.000000 0.000000 0
0.000000 0.000000 0
0.000000 0.000000 0
0.000000 0.000000 0
0.000000 0.000000 0
0.000000 0.000000 0
0.000000 0.000000 0
0.000000 0.000000 0
0.000000 0.000000 0
0.000000 0.000000 0
0.000000 0.000000 0
0.000000 0.000000 0
0.272842 -0.126588 0
0.885249 -0.441034 0
1.533852 -0.819790 0
2.066818 -1.195836 0
2.459020 -1.562441 0
2.710308 -1.932130 0
2.835317 -2.338696 0
2.861440 -2.845160 0
2.817448 -3.592694 0
2.816653 -5.057739 0
1.662497 -3.031691 0
-0.000418 0.000000 0
-0.000291 0.000000 0
-0.000102 0.000000 0
-0.000189 0.000000 0
-0.000378 0.000000 0
-0.000655 0.000000 0
-0.000903 0.000000 0
-0.001119 0.000000 0
-0.001271 0.000000 0
-0.001347 0.000000 0
-0.001345 0.000000 0
-0.001282 0.000000 0
-0.001183 0.000000 0
-0.001083 0.000000 0
-0.001008 0.000000 0
-0.000971 0.000000 0
-0.000966 0.000000 0
-0.000974 0.000000 0
-0.000976 0.000000 0
-0.000961 0.000000 0
-0.000928 0.000000 0
-0.000883 0.000000 0
-0.000833 0.000000 0
-0.000787 0.000000 0
-0.000748 0.000000 0
-0.000716 0.000000 0
-0.000693 0.000000 0
-0.000675 0.000000 0
-0.000660 0.000000 0
-0.000647 0.000000 0
-0.000634 0.000000 0
-0.000620 0.000000 0
-0.000605 0.000000 0
-0.000588 0.000000 0
-0.000571 0.000000 0
-0.000556 0.000000 0
-0.000547 0.000000 0
-0.000556 0.000000 0
-0.000595 0.000000 0
2.226315 0.527836 0
4.027689 1.366562 0
5.133800 2.026319 0
5.707680 2.660077 0
5.869296 3.108741 0
5.737836 3.292167 0
5.368887 3.184001 0
4.761266 2.801076 0
3.899875 2.206639 0
2.763804 1.485186 0
1.053607 0.551531 0
0.000001 0.000000 0
-0.002183 0.000000 0
0.000000 0.000000 0
0.000000 0.000000 0
0.000000 0.000000 0
0.000000 0.000000 0
0.000000 0.000000 0
0.000000 0.000000 0
0.000000 0.000000 0
0.000000 0.000000 0
0.000000 0.000000 0
0.000000 0.000000 0
0.000000 0.000000 0
0.000000 0.000000 0
0.000000 0.000000 0
0.000000 0.000000 0
0.000000 0.000000 0
0.000000 0.000000 0
0.000000 0.000000 0
0.000000 0.000000 0
0.344544 -0.132775 0
0.998004 -0.434140 0
1.663518 -0.767059 0
2.199583 -1.087079 0
2.583141 -1.390587 0
2.815616 -1.684066 0
2.908849 -1.986472 0
2.881157 -2.335612 0
2.748629 -2.792886 0
2.503686 -3.481210 0
2.022782 -4.430993 0
0.039662 -0.000187 0
-0.096362 2.478477 0
0.385372 0.000000 0
0.341541 0.000000 0
0.260909 0.000000 0
0.187884 0.000000 0
0.067305 0.000000 0
-0.085571 0.000000 0
-0.240653 0.000000 0
-0.383225 0.000000 0
-0.504566 0.000000 0
-0.600729 0.000000 0
-0.671472 0.000000 0
-0.719349 0.000000 0
-0.748863 0.000000 0
-0.765481 0.000000 0
-0.774501 0.000000 0
-0.780081 0.000000 0
-0.784770 0.000000 0
-0.789630 0.000000 0
-0.794741 0.000000 0
-0.799760 0.000000 0
-0.804311 0.000000 0
-0.808181 0.000000 0
-0.811354 0.000000 0
-0.813980 0.000000 0
-0.816324 0.000000 0
-0.818743 0.000000 0
-0.821672 0.000000 0
-0.825666 0.000000 0
-0.831467 0.000000 0
-0.840123 0.000000 0
-0.853168 0.000000 0
-0.872900 0.000000 0
-0.902817 0.000000 0
-0.948324 0.000000 0
-1.018169 0.000000 0
-1.126306 0.000000 0
-1.302728 0.000000 0
-1.591423 0.186412 0
0.000000 0.000876 0
1.912875 0.253052 0
3.827504 1.410548 0
4.918217 2.359796 0
5.430851 3.027107 0
5.551811 3.360916 0
5.400034 3.371130 0
5.023128 3.099626 0
4.432724 2.616341 0
3.637076 2.013969 0
2.626739 1.369694 0
1.052150 0.521925 0
0.000001 0.000000 0
-0.003784 0.000000 0
0.000000 0.000000 0
0.000000 0.000000 0
0.000000 0.000000 0
0.000000 0.000000 0
0.000000 0.000000 0
0.000000 0.000000 0
0.000000 0.000000 0
0.000000 0.000000 0
0.000000 0.000000 0
0.000000 0.000000 0
0.000000 0.000000 0
0.000000 0.000000 0
0.000000 0.000000 0
0.000000 0.000000 0