# vtk DataFile Version 2.0
generated by CFD-lab course output (written by Tobias Neckel) 
ASCII

DATASET STRUCTURED_GRID
DIMENSIONS  82 60 1 
POINTS 4920 float

-1.500000 -0.500000 0
-1.402439 -0.500000 0
-1.304878 -0.500000 0
-1.207317 -0.500000 0
-1.109756 -0.500000 0
-1.012195 -0.500000 0
-0.914634 -0.500000 0
-0.817073 -0.500000 0
-0.719512 -0.500000 0
-0.621951 -0.500000 0
-0.524390 -0.500000 0
-0.426829 -0.500000 0
-0.329268 -0.500000 0
-0.231707 -0.500000 0
-0.134146 -0.500000 0
-0.036585 -0.500000 0
0.060976 -0.500000 0
0.158537 -0.500000 0
0.256098 -0.500000 0
0.353659 -0.500000 0
0.451220 -0.500000 0
0.548780 -0.500000 0
0.646341 -0.500000 0
0.743902 -0.500000 0
0.841463 -0.500000 0
0.939024 -0.500000 0
1.036585 -0.500000 0
1.134146 -0.500000 0
1.231707 -0.500000 0
1.329268 -0.500000 0
1.426829 -0.500000 0
1.524390 -0.500000 0
1.621951 -0.500000 0
1.719512 -0.500000 0
1.817073 -0.500000 0
1.914634 -0.500000 0
2.012195 -0.500000 0
2.109756 -0.500000 0
2.207317 -0.500000 0
2.304878 -0.500000 0
2.402439 -0.500000 0
2.500000 -0.500000 0
2.597561 -0.500000 0
2.695122 -0.500000 0
2.792683 -0.500000 0
2.890244 -0.500000 0
2.987805 -0.500000 0
3.085366 -0.500000 0
3.182927 -0.500000 0
3.280488 -0.500000 0
3.378049 -0.500000 0
3.475610 -0.500000 0
3.573171 -0.500000 0
3.670732 -0.500000 0
3.768293 -0.500000 0
3.865854 -0.500000 0
3.963415 -0.500000 0
4.060976 -0.500000 0
4.158537 -0.500000 0
4.256098 -0.500000 0
4.353659 -0.500000 0
4.451220 -0.500000 0
4.548780 -0.500000 0
4.646341 -0.500000 0
4.743902 -0.500000 0
4.841463 -0.500000 0
4.939024 -0.500000 0
5.036585 -0.500000 0
5.134146 -0.500000 0
5.231707 -0.500000 0
5.329268 -0.500000 0
5.426829 -0.500000 0
5.524390 -0.500000 0
5.621951 -0.500000 0
5.719512 -0.500000 0
5.817073 -0.500000 0
5.914634 -0.500000 0
6.012195 -0.500000 0
6.109756 -0.500000 0
6.207317 -0.500000 0
6.304878 -0.500000 0
6.402439 -0.500000 0
-1.500000 -0.451667 0
-1.402439 -0.451667 0
-1.304878 -0.451667 0
-1.207317 -0.451667 0
-1.109756 -0.451667 0
-1.012195 -0.451667 0
-0.914634 -0.451667 0
-0.817073 -0.451667 0
-0.719512 -0.451667 0
-0.621951 -0.451667 0
-0.524390 -0.451667 0
-0.426829 -0.451667 0
-0.329268 -0.451667 0
-0.231707 -0.451667 0
-0.134146 -0.451667 0
-0.036585 -0.451667 0
0.060976 -0.451667 0
0.158537 -0.451667 0
0.256098 -0.451667 0
0.353659 -0.451667 0
0.451220 -0.451667 0
0.548780 -0.451667 0
0.646341 -0.451667 0
0.743902 -0.451667 0
0.841463 -0.451667 0
0.939024 -0.451667 0
1.036585 -0.451667 0
1.134146 -0.451667 0
1.231707 -0.451667 0
1.329268 -0.451667 0
1.426829 -0.451667 0
1.524390 -0.451667 0
1.621951 -0.451667 0
1.719512 -0.451667 0
1.817073 -0.451667 0
1.914634 -0.451667 0
2.012195 -0.451667 0
2.109756 -0.451667 0
2.207317 -0.451667 0
2.304878 -0.451667 0
2.402439 -0.451667 0
2.500000 -0.451667 0
2.597561 -0.451667 0
2.695122 -0.451667 0
2.792683 -0.451667 0
2.890244 -0.451667 0
2.987805 -0.451667 0
3.085366 -0.451667 0
3.182927 -0.451667 0
3.280488 -0.451667 0
3.378049 -0.451667 0
3.475610 -0.451667 0
3.573171 -0.451667 0
3.670732 -0.451667 0
3.768293 -0.451667 0
3.865854 -0.451667 0
3.963415 -0.451667 0
4.060976 -0.451667 0
4.158537 -0.451667 0
4.256098 -0.451667 0
4.353659 -0.451667 0
4.451220 -0.451667 0
4.548780 -0.451667 0
4.646341 -0.451667 0
4.743902 -0.451667 0
4.841463 -0.451667 0
4.939024 -0.451667 0
5.036585 -0.451667 0
5.134146 -0.451667 0
5.231707 -0.451667 0
5.329268 -0.451667 0
5.426829 -0.451667 0
5.524390 -0.451667 0
5.621951 -0.451667 0
5.719512 -0.451667 0
5.817073 -0.451667 0
5.914634 -0.451667 0
6.012195 -0.451667 0
6.109756 -0.451667 0
6.207317 -0.451667 0
6.304878 -0.451667 0
6.402439 -0.451667 0
-1.500000 -0.403333 0
-1.402439 -0.403333 0
-1.304878 -0.403333 0
-1.207317 -0.403333 0
-1.109756 -0.403333 0
-1.012195 -0.403333 0
-0.914634 -0.403333 0
-0.817073 -0.403333 0
-0.719512 -0.403333 0
-0.621951 -0.403333 0
-0.524390 -0.403333 0
-0.426829 -0.403333 0
-0.329268 -0.403333 0
-0.231707 -0.403333 0
-0.134146 -0.403333 0
-0.036585 -0.403333 0
0.060976 -0.403333 0
0.158537 -0.403333 0
0.256098 -0.403333 0
0.353659 -0.403333 0
0.451220 -0.403333 0
0.548780 -0.403333 0
0.646341 -0.403333 0
0.743902 -0.403333 0
0.841463 -0.403333 0
0.939024 -0.403333 0
1.036585 -0.403333 0
1.134146 -0.403333 0
1.231707 -0.403333 0
1.329268 -0.403333 0
1.426829 -0.403333 0
1.524390 -0.403333 0
1.621951 -0.403333 0
1.719512 -0.403333 0
1.817073 -0.403333 0
1.914634 -0.403333 0
2.012195 -0.403333 0
2.109756 -0.403333 0
2.207317 -0.403333 0
2.304878 -0.403333 0
2.402439 -0.403333 0
2.500000 -0.403333 0
2.597561 -0.403333 0
2.695122 -0.403333 0
2.792683 -0.403333 0
2.890244 -0.403333 0
2.987805 -0.403333 0
3.085366 -0.403333 0
3.182927 -0.403333 0
3.280488 -0.403333 0
3.378049 -0.403333 0
3.475610 -0.403333 0
3.573171 -0.403333 0
3.670732 -0.403333 0
3.768293 -0.403333 0
3.865854 -0.403333 0
3.963415 -0.403333 0
4.060976 -0.403333 0
4.158537 -0.403333 0
4.256098 -0.403333 0
4.353659 -0.403333 0
4.451220 -0.403333 0
4.548780 -0.403333 0
4.646341 -0.403333 0
4.743902 -0.403333 0
4.841463 -0.403333 0
4.939024 -0.403333 0
5.036585 -0.403333 0
5.134146 -0.403333 0
5.231707 -0.403333 0
5.329268 -0.403333 0
5.426829 -0.403333 0
5.524390 -0.403333 0
5.621951 -0.403333 0
5.719512 -0.403333 0
5.817073 -0.403333 0
5.914634 -0.403333 0
6.012195 -0.403333 0
6.109756 -0.403333 0
6.207317 -0.403333 0
6.304878 -0.403333 0
6.402439 -0.403333 0
-1.500000 -0.355000 0
-1.402439 -0.355000 0
-1.304878 -0.355000 0
-1.207317 -0.355000 0
-1.109756 -0.355000 0
-1.012195 -0.355000 0
-0.914634 -0.355000 0
-0.817073 -0.355000 0
-0.719512 -0.355000 0
-0.621951 -0.355000 0
-0.524390 -0.355000 0
-0.426829 -0.355000 0
-0.329268 -0.355000 0
-0.231707 -0.355000 0
-0.134146 -0.355000 0
-0.036585 -0.355000 0
0.060976 -0.355000 0
0.158537 -0.355000 0
0.256098 -0.355000 0
0.353659 -0.355000 0
0.451220 -0.355000 0
0.548780 -0.355000 0
0.646341 -0.355000 0
0.743902 -0.355000 0
0.841463 -0.355000 0
0.939024 -0.355000 0
1.036585 -0.355000 0
1.134146 -0.355000 0
1.231707 -0.355000 0
1.329268 -0.355000 0
1.426829 -0.355000 0
1.524390 -0.355000 0
1.621951 -0.355000 0
1.719512 -0.355000 0
1.817073 -0.355000 0
1.914634 -0.355000 0
2.012195 -0.355000 0
2.109756 -0.355000 0
2.207317 -0.355000 0
2.304878 -0.355000 0
2.402439 -0.355000 0
2.500000 -0.355000 0
2.597561 -0.355000 0
2.695122 -0.355000 0
2.792683 -0.355000 0
2.890244 -0.355000 0
2.987805 -0.355000 0
3.085366 -0.355000 0
3.182927 -0.355000 0
3.280488 -0.355000 0
3.378049 -0.355000 0
3.475610 -0.355000 0
3.573171 -0.355000 0
3.670732 -0.355000 0
3.768293 -0.355000 0
3.865854 -0.355000 0
3.963415 -0.355000 0
4.060976 -0.355000 0
4.158537 -0.355000 0
4.256098 -0.355000 0
4.353659 -0.355000 0
4.451220 -0.355000 0
4.548780 -0.355000 0
4.646341 -0.355000 0
4.743902 -0.355000 0
4.841463 -0.355000 0
4.939024 -0.355000 0
5.036585 -0.355000 0
5.134146 -0.355000 0
5.231707 -0.355000 0
5.329268 -0.355000 0
5.426829 -0.355000 0
5.524390 -0.355000 0
5.621951 -0.355000 0
5.719512 -0.355000 0
5.817073 -0.355000 0
5.914634 -0.355000 0
6.012195 -0.355000 0
6.109756 -0.355000 0
6.207317 -0.355000 0
6.304878 -0.355000 0
6.402439 -0.355000 0
-1.500000 -0.306667 0
-1.402439 -0.306667 0
-1.304878 -0.306667 0
-1.207317 -0.306667 0
-1.109756 -0.306667 0
-1.012195 -0.306667 0
-0.914634 -0.306667 0
-0.817073 -0.306667 0
-0.719512 -0.306667 0
-0.621951 -0.306667 0
-0.524390 -0.306667 0
-0.426829 -0.306667 0
-0.329268 -0.306667 0
-0.231707 -0.306667 0
-0.134146 -0.306667 0
-0.036585 -0.306667 0
0.060976 -0.306667 0
0.158537 -0.306667 0
0.256098 -0.306667 0
0.353659 -0.306667 0
0.451220 -0.306667 0
0.548780 -0.306667 0
0.646341 -0.306667 0
0.743902 -0.306667 0
0.841463 -0.306667 0
0.939024 -0.306667 0
1.036585 -0.306667 0
1.134146 -0.306667 0
1.231707 -0.306667 0
1.329268 -0.306667 0
1.426829 -0.306667 0
1.524390 -0.306667 0
1.621951 -0.306667 0
1.719512 -0.306667 0
1.817073 -0.306667 0
1.914634 -0.306667 0
2.012195 -0.306667 0
2.109756 -0.306667 0
2.207317 -0.306667 0
2.304878 -0.306667 0
2.402439 -0.306667 0
2.500000 -0.306667 0
2.597561 -0.306667 0
2.695122 -0.306667 0
2.792683 -0.306667 0
2.890244 -0.306667 0
2.987805 -0.306667 0
3.085366 -0.306667 0
3.182927 -0.306667 0
3.280488 -0.306667 0
3.378049 -0.306667 0
3.475610 -0.306667 0
3.573171 -0.306667 0
3.670732 -0.306667 0
3.768293 -0.306667 0
3.865854 -0.306667 0
3.963415 -0.306667 0
4.060976 -0.306667 0
4.158537 -0.306667 0
4.256098 -0.306667 0
4.353659 -0.306667 0
4.451220 -0.306667 0
4.548780 -0.306667 0
4.646341 -0.306667 0
4.743902 -0.306667 0
4.841463 -0.306667 0
4.939024 -0.306667 0
5.036585 -0.306667 0
5.134146 -0.306667 0
5.231707 -0.306667 0
5.329268 -0.306667 0
5.426829 -0.306667 0
5.524390 -0.306667 0
5.621951 -0.306667 0
5.719512 -0.306667 0
5.817073 -0.306667 0
5.914634 -0.306667 0
6.012195 -0.306667 0
6.109756 -0.306667 0
6.207317 -0.306667 0
6.304878 -0.306667 0
6.402439 -0.306667 0
-1.500000 -0.258333 0
-1.402439 -0.258333 0
-1.304878 -0.258333 0
-1.207317 -0.258333 0
-1.109756 -0.258333 0
-1.012195 -0.258333 0
-0.914634 -0.258333 0
-0.817073 -0.258333 0
-0.719512 -0.258333 0
-0.621951 -0.258333 0
-0.524390 -0.258333 0
-0.426829 -0.258333 0
-0.329268 -0.258333 0
-0.231707 -0.258333 0
-0.134146 -0.258333 0
-0.036585 -0.258333 0
0.060976 -0.258333 0
0.158537 -0.258333 0
0.256098 -0.258333 0
0.353659 -0.258333 0
0.451220 -0.258333 0
0.548780 -0.258333 0
0.646341 -0.258333 0
0.743902 -0.258333 0
0.841463 -0.258333 0
0.939024 -0.258333 0
1.036585 -0.258333 0
1.134146 -0.258333 0
1.231707 -0.258333 0
1.329268 -0.258333 0
1.426829 -0.258333 0
1.524390 -0.258333 0
1.621951 -0.258333 0
1.719512 -0.258333 0
1.817073 -0.258333 0
1.914634 -0.258333 0
2.012195 -0.258333 0
2.109756 -0.258333 0
2.207317 -0.258333 0
2.304878 -0.258333 0
2.402439 -0.258333 0
2.500000 -0.258333 0
2.597561 -0.258333 0
2.695122 -0.258333 0
2.792683 -0.258333 0
2.890244 -0.258333 0
2.987805 -0.258333 0
3.085366 -0.258333 0
3.182927 -0.258333 0
3.280488 -0.258333 0
3.378049 -0.258333 0
3.475610 -0.258333 0
3.573171 -0.258333 0
[...]
POINT_DATA 4920 

VECTORS velocity float
0.000000 0.000000 0
0.000000 0.000000 0
0.000000 0.000000 0
0.000000 0.000000 0
0.000000 0.000000 0
0.000000 0.000000 0
0.000000 0.000000 0
0.000000 0.000000 0
0.000000 0.000000 0
0.000000 0.000000 0
0.000000 0.000000 0
0.000000 0.000000 0
0.000000 0.000000 0
0.000000 0.000000 0
0.000000 0.000000 0
-0.000010 0.000000 0
-0.000017 0.000000 0
-0.000022 0.000000 0
-0.000023 0.000000 0
-0.000022 0.000000 0
-0.000018 0.000000 0
-0.000013 0.000000 0
-0.000007 0.000000 0
0.000000 0.000000 0
0.000007 0.000000 0
0.000015 0.000000 0
0.000022 0.000000 0
0.000031 0.000000 0
0.000040 0.000000 0
0.000049 0.000000 0
0.000058 0.000000 0
0.000065 0.000000 0
0.000072 0.000000 0
0.000076 0.000000 0
0.000079 0.000000 0
0.000080 0.000000 0
0.000079 0.000000 0
0.000077 0.000000 0
0.000073 0.000000 0
0.000069 0.000000 0
0.000064 0.000000 0
0.000058 0.000000 0
0.000052 0.000000 0
0.000047 0.000000 0
0.000041 0.000000 0
0.000035 0.000000 0
0.000030 0.000000 0
0.000024 0.000000 0
0.000018 0.000000 0
0.000012 0.000000 0
0.000005 0.000000 0
-0.000001 0.000000 0
-0.000007 0.000000 0
-0.000011 0.000000 0
-0.000011 0.000000 0
-0.000006 0.000000 0
0.000000 0.000000 0
0.001835 0.000000 0
0.000000 0.000000 0
0.000000 0.000000 0
0.000000 0.000000 0
0.000000 0.000000 0
0.000000 0.000000 0
0.000000 0.000000 0
0.000000 0.000000 0
0.000000 0.000000 0
0.000000 0.000000 0
0.000000 0.000000 0
0.000000 0.000000 0
0.000000 0.000000 0
0.000000 0.000000 0
0.000000 0.000000 0
0.000000 0.000000 0
0.000000 0.000000 0
0.000000 0.000000 0
0.000000 0.000000 0
0.000000 0.000000 0
0.000000 0.000000 0
0.000000 0.000000 0
0.000000 0.000000 0
0.000000 0.000000 0
0.000000 0.000000 0
0.000000 0.000000 0
0.000000 0.000000 0
0.000000 0.000000 0
0.000000 0.000000 0
0.000000 0.000000 0
0.000000 0.000000 0
0.000000 0.000000 0
0.000000 0.000000 0
0.000000 0.000000 0
0.000000 0.000000 0
0.000000 0.000000 0
0.000000 0.000000 0
0.000000 0.000000 0
0.000000 0.000000 0
1.050549 -0.423815 0
2.526024 -0.740280 0
3.789986 -0.506431 0
4.634850 -0.266233 0
5.069695 -0.070587 0
5.181540 0.061836 0
5.077859 0.140026 0
4.843818 0.178448 0
4.543490 0.187621 0
4.223779 0.176465 0
3.917075 0.152819 0
3.643295 0.123416 0
3.412003 0.093575 0
3.224877 0.066912 0
3.078364 0.045305 0
2.966154 0.029183 0
2.881111 0.018019 0
2.816518 0.010828 0
2.766705 0.006544 0
2.727241 0.004231 0
2.694860 0.003158 0
2.667272 0.002808 0
2.642929 0.002839 0
2.620812 0.003049 0
2.600244 0.003334 0
2.580738 0.003660 0
2.561880 0.004040 0
2.543232 0.004523 0
2.524254 0.005191 0
2.504216 0.006155 0
2.482118 0.007559 0
2.456580 0.009597 0
2.425696 0.012525 0
2.386841 0.016677 0
2.336414 0.022490 0
2.269503 0.030504 0
2.179508 0.041334 0
2.057750 0.055503 0
1.893459 0.073179 0
1.674052 0.093061 0
1.389193 0.112314 0
1.028610 0.130314 0
0.613896 0.069618 0
0.000001 0.000000 0
-0.001642 0.000000 0
0.000000 0.000000 0
0.000000 0.000000 0
0.000000 0.000000 0
0.000000 0.000000 0
0.000000 0.000000 0
0.000000 0.000000 0
0.000000 0.000000 0
0.000000 0.000000 0
0.000000 0.000000 0
0.000000 0.000000 0
0.000000 0.000000 0
0.000000 0.000000 0
0.000000 0.000000 0
0.000000 0.000000 0
0.000000 0.000000 0
0.000000 0.000000 0
0.000000 0.000000 0
0.000000 0.000000 0
0.000000 0.000000 0
0.000000 0.000000 0
0.000000 0.000000 0
0.000000 0.000000 0
0.000000 0.000000 0
0.000000 0.000000 0
0.000000 0.000000 0
0.000000 0.000000 0
0.000000 0.000000 0
0.000000 0.000000 0
0.000000 0.000000 0
0.000000 0.000000 0
0.000000 0.000000 0
0.000000 0.000000 0
0.000000 0.000000 0
0.000000 0.000000 0
0.000000 0.000000 0
0.000000 0.000000 0
1.164392 -0.519046 0
2.663697 -1.249814 0
3.839660 -1.356956 0
5.014977 -1.044748 0
5.877802 -0.633989 0
6.406198 -0.270839 0
6.663496 -0.004045 0
6.723930 0.167314 0
6.655522 0.264736 0
6.507691 0.307178 0
6.316570 0.310336 0
6.108213 0.287581 0
5.900748 0.250221 0
5.705965 0.207291 0
5.530599 0.165291 0
5.377480 0.128176 0
5.246604 0.097722 0
5.136137 0.074132 0
5.043272 0.056679 0
4.964902 0.044229 0
4.898074 0.035593 0
4.840236 0.029710 0
4.789326 0.025728 0
4.743759 0.023017 0
4.702344 0.021147 0
4.664187 0.019854 0
4.628578 0.019006 0
4.594896 0.018581 0
4.562515 0.018641 0
4.530713 0.019330 0
4.498589 0.020875 0
4.464953 0.023599 0
4.428200 0.027953 0
4.386133 0.034550 0
4.335721 0.044232 0
4.272763 0.058132 0
4.191416 0.077734 0
4.083570 0.104906 0
3.938031 0.141713 0
3.739576 0.190091 0
3.468236 0.249822 0
3.099832 0.319763 0
2.608147 0.383594 0
1.994548 0.507341 0
1.043016 0.302386 0
-0.000000 0.000000 0
-0.004752 0.000000 0
0.000000 0.000000 0
0.000000 0.000000 0
0.000000 0.000000 0
0.000000 0.000000 0
0.000000 0.000000 0
0.000000 0.000000 0
0.000000 0.000000 0
0.000000 0.000000 0
0.000000 0.000000 0
0.000000 0.000000 0
0.000000 0.000000 0
0.000000 0.000000 0
0.000000 0.000000 0
0.000000 0.000000 0
0.000000 0.000000 0
0.000000 0.000000 0
0.000000 0.000000 0
0.000000 0.000000 0
0.000000 0.000000 0
0.000000 0.000000 0
0.000000 0.000000 0
0.000000 0.000000 0
0.000000 0.000000 0
0.000000 0.000000 0
0.000000 0.000000 0
0.000000 0.000000 0
0.000000 0.000000 0
0.000000 0.000000 0
0.000000 0.000000 0
0.000000 0.000000 0
0.000000 0.000000 0
0.000000 0.000000 0
0.000000 0.000000 0
0.000000 0.000000 0
0.941460 -0.584924 0
2.645442 -1.326292 0
3.473852 -1.747774 0
4.656550 -1.905143 0
5.720780 -1.516160 0
6.445016 -0.955467 0
6.871026 -0.459832 0
7.095270 -0.095573 0
7.184201 0.143976 0
7.186514 0.285577 0
7.135338 0.355543 0
7.052867 0.374373 0
6.953951 0.358825 0
6.848669 0.322696 0
6.743953 0.276953 0
6.644453 0.229649 0
6.552975 0.186001 0
6.470795 0.148748 0
6.397989 0.118753 0
6.333822 0.095661 0
6.277120 0.078478 0
6.226584 0.065993 0
6.180988 0.057034 0
6.139293 0.050604 0
6.100677 0.045931 0
6.064511 0.042470 0
6.030318 0.039879 0
5.997710 0.037988 0
5.966325 0.036769 0
5.935771 0.036321 0
5.905558 0.036861 0
5.875034 0.038733 0
5.843303 0.042431 0
5.809112 0.048646 0
5.770707 0.058340 0
5.725616 0.072843 0
5.670328 0.093982 0
5.599839 0.124234 0
5.506949 0.166866 0
5.381254 0.225924 0
5.207514 0.305923 0
4.964007 0.410000 0
4.619334 0.538417 0
4.141549 0.677890 0
3.487987 0.841400 0
2.808096 0.986940 0
1.335943 0.519145 0
-0.000001 0.000000 0
-0.005844 0.000000 0
0.000000 0.000000 0
0.000000 0.000000 0
0.000000 0.000000 0
0.000000 0.000000 0
0.000000 0.000000 0
0.000000 0.000000 0
0.000000 0.000000 0
0.000000 0.000000 0
0.000000 0.000000 0
0.000000 0.000000 0
0.000000 0.000000 0
0.000000 0.000000 0
0.000000 0.000000 0
0.000000 0.000000 0
0.000000 0.000000 0
0.000000 0.000000 0
0.000000 0.000000 0
0.000000 0.000000 0
0.000000 0.000000 0
0.000000 0.000000 0
0.000000 0.000000 0
0.000000 0.000000 0
0.000000 0.000000 0
0.000000 0.000000 0
0.000000 0.000000 0
0.000000 0.000000 0
0.000000 0.000000 0
0.000000 0.000000 0
0.000000 0.000000 0
0.000000 0.000000 0
0.000000 0.000000 0
0.000000 0.000000 0
0.744015 -0.470061 0
2.155898 -1.322306 0
3.102151 -1.781700 0
3.875485 -2.246151 0
5.218551 -2.470122 0
6.174963 -1.930784 0
6.701353 -1.203840 0
6.960068 -0.592986 0
7.079619 -0.159197 0
7.126948 0.122110 0
7.131538 0.288943 0
7.113719 0.373389 0
7.084934 0.400199 0
7.050942 0.388745 0
7.014514 0.354257 0
6.977236 0.308464 0
6.940349 0.259904 0
6.904920 0.214209 0
6.871754 0.174505 0
6.841296 0.141991 0
6.813622 0.116559 0
6.788528 0.097357 0
6.765644 0.083219 0
6.744548 0.072955 0
6.724843 0.065515 0
6.706194 0.060065 0
6.688339 0.056004 0
6.671076 0.052948 0
6.654243 0.050710 0
6.637683 0.049266 0
6.621215 0.048746 0
6.604602 0.049419 0
6.587503 0.051717 0
6.569430 0.056259 0
6.549672 0.063917 0
6.527196 0.075915 0
6.500495 0.093962 0
6.467351 0.120443 0
6.424461 0.158675 0
6.366818 0.213197 0
6.286667 0.290059 0
6.171540 0.396801 0
6.001352 0.541216 0
5.742940 0.727222 0
5.354083 0.944082 0
4.792737 1.167955 0
4.135998 1.370867 0
3.360800 1.398532 0
1.498017 0.666881 0
-0.000001 0.000000 0
-0.005308 0.000000 0
0.000000 0.000000 0
0.000000 0.000000 0
0.000000 0.000000 0
0.000000 0.000000 0
0.000000 0.000000 0
0.000000 0.000000 0
0.000000 0.000000 0
0.000000 0.000000 0
0.000000 0.000000 0
0.000000 0.000000 0
0.000000 0.000000 0
0.000000 0.000000 0
0.000000 0.000000 0
0.000000 0.000000 0
0.000000 0.000000 0
0.000000 0.000000 0
0.000000 0.000000 0
0.000000 0.000000 0
0.000000 0.000000 0
0.000000 0.000000 0
0.000000 0.000000 0
0.000000 0.000000 0
0.000000 0.000000 0
0.000000 0.000000 0
0.000000 0.000000 0
0.000000 0.000000 0
0.000000 0.000000 0
0.000000 0.000000 0
0.000000 0.000000 0
0.000000 0.000000 0
0.541693 -0.372101 0
1.710251 -1.075217 0
2.556908 -1.756829 0
3.311266 -2.178204 0
4.135615 -2.796274 0
5.628872 -3.044342 0
6.362709 -2.250765 0
6.595949 -1.344421 0
6.629886 -0.647232 0
6.618262 -0.178248 0
6.604189 0.118255 0
6.594749 0.292131 0
6.594048 0.378632 0
6.601501 0.405474 0
6.614259 0.393712 0
6.628924 0.359212 0
6.642818 0.313695 0
6.654445 0.265476 0
6.663372 0.219984 0
6.669856 0.180269 0
6.674455 0.147553 0
6.677760 0.121803 0
6.680248 0.102247 0
6.682253 0.087781 0
6.683975 0.077247 0
6.685519 0.069605 0
6.686930 0.064016 0
6.688220 0.059868 0
6.689387 0.056771 0
6.690418 0.054532 0
6.691297 0.053131 0
6.692004 0.052710 0
6.692506 0.053563 0
6.692752 0.056158 0
6.692662 0.061173 0
6.692104 0.069569 0
6.690856 0.082703 0
6.688542 0.102491 0
6.684522 0.131651 0
6.677669 0.174039 0
6.665949 0.235131 0
6.645548 0.322668 0
6.608905 0.447273 0
6.540738 0.622336 0
6.409674 0.859085 0
6.160476 1.148637 0
5.746214 1.444859 0
5.198144 1.696346 0
4.566228 1.834244 0
3.666111 1.678323 0
1.558634 0.747270 0
-0.000001 0.000000 0
-0.003990 0.000000 0
0.000000 0.000000 0
0.000000 0.000000 0
0.000000 0.000000 0
0.000000 0.000000 0
0.000000 0.000000 0
0.000000 0.000000 0
0.000000 0.000000 0
0.000000 0.000000 0
0.000000 0.000000 0
0.000000 0.000000 0
0.000000 0.000000 0
0.000000 0.000000 0
0.000000 0.000000 0
0.000000 0.000000 0
0.000000 0.000000 0
0.000000 0.000000 0
0.000000 0.000000 0
0.000000 0.000000 0
0.000000 0.000000 0
0.000000 0.000000 0
0.000000 0.000000 0
0.000000 0.000000 0
0.000000 0.000000 0
0.000000 0.000000 0
0.000000 0.000000 0
0.000000 0.000000 0
0.000000 0.000000 0
0.000000 0.000000 0
0.381475 -0.269716 0
1.308586 -0.852143 0
2.072769 -1.471935 0
2.764336 -2.115476 0
3.403482 -2.563818 0
4.288506 -3.394331 0
5.840052 -3.573461 0
6.161218 -2.409890 0
5.990970 -1.336204 0
5.751934 -0.604040 0
5.599472 -0.146466 0
5.523764 0.133759 0
5.511341 0.293967 0
5.542383 0.370043 0
5.599064 0.390186 0
5.667958 0.375159 0
5.739375 0.340109 0
5.807143 0.295820 0
5.868006 0.249722 0
5.920863 0.206574 0
5.965999 0.169014 0
6.004427 0.138075 0
6.037418 0.113689 0
6.066202 0.095131 0
6.091832 0.081373 0
6.115129 0.071337 0
6.136702 0.064051 0
6.156980 0.058727 0
6.176257 0.054787 0
6.194736 0.051860 0
6.212570 0.049763 0
6.229893 0.048480 0
6.246849 0.048147 0
6.263622 0.049049 0
6.280460 0.051640 0
6.297705 0.056580 0
6.315828 0.064812 0
6.335463 0.077680 0
6.357450 0.097099 0
6.382869 0.125830 0
6.413041 0.167876 0
6.449406 0.229110 0
6.493077 0.318319 0
6.543313 0.448727 0
6.593219 0.639918 0
6.618253 0.915610 0
6.545360 1.272771 0
6.304636 1.644711 0
5.922420 1.955451 0
5.432126 2.157527 0
4.795801 2.167269 0
3.775881 1.830576 0
1.548428 0.776121 0
-0.000001 0.000000 0
-0.002586 0.000000 0
0.000000 0.000000 0
0.000000 0.000000 0
0.000000 0.000000 0
0.000000 0.000000 0
0.000000 0.000000 0
0.000000 0.000000 0
0.000000 0.000000 0
0.000000 0.000000 0
0.000000 0.000000 0
0.000000 0.000000 0
0.000000 0.000000 0
0.000000 0.000000 0
0.000000 0.000000 0
0.000000 0.000000 0
0.000000 0.000000 0
0.000000 0.000000 0
0.000000 0.000000 0
0.000000 0.000000 0
0.000000 0.000000 0
0.000000 0.000000 0
0.000000 0.000000 0
0.000000 0.000000 0
0.000000 0.000000 0
0.000000 0.000000 0
0.000000 0.000000 0
0.000000 0.000000 0
0.272161 -0.188948 0
1.006144 -0.649607 0
1.713099 -1.211349 0
2.329294 -1.796420 0
2.888478 -2.416087 0
3.402347 -2.933303 0
4.290842 -4.003392 0
5.752177 -3.972115 0
5.409346 -2.325533 0
4.745058 -1.141655 0
4.214937 -0.453277 0
3.925542 -0.065209 0
3.821432 0.161917 0
3.853050 0.282906 0
3.959812 0.335172 0
4.101021 0.343262 0
4.252671 0.324200 0
4.400148 0.290257 0
4.535476 0.249969 0
4.655125 0.209136 0
4.758462 0.171437 0
4.846599 0.138870 0
4.921541 0.112170 0
4.985583 0.091198 0
5.040941 0.075290 0
5.089550 0.063542 0
5.132987 0.055018 0
5.172476 0.048871 0
5.208930 0.044420 0
5.243014 0.041163 0
5.275222 0.038781 0
5.305940 0.037114 0
5.335514 0.036149 0
5.364311 0.036000 0
5.392775 0.036912 0
5.421491 0.039273 0
5.451258 0.043651 0
5.483174 0.050864 0
5.518757 0.062083 0
5.560093 0.079005 0
5.610049 0.104110 0
5.672522 0.141076 0
5.752733 0.195480 0
5.857420 0.276144 0
5.994567 0.397661 0
6.169643 0.585209 0
6.376822 0.882795 0
6.516606 1.304008 0
6.465284 1.753474 0
6.279845 2.128602 0
5.971116 2.392390 0
5.527950 2.498855 0
4.857870 2.365544 0
3.744481 1.882585 0
1.493455 0.769597 0
-0.000001 0.000000 0
-0.001530 0.000000 0
0.000000 0.000000 0
0.000000 0.000000 0
0.000000 0.000000 0
0.000000 0.000000 0
0.000000 0.000000 0
0.000000 0.000000 0
0.000000 0.000000 0
0.000000 0.000000 0
0.000000 0.000000 0
0.000000 0.000000 0
0.000000 0.000000 0
0.000000 0.000000 0
0.000000 0.000000 0
0.000000 0.000000 0
0.000000 0.000000 0
0.000000 0.000000 0
0.000000 0.000000 0
0.000000 0.000000 0
0.000000 0.000000 0
0.000000 0.000000 0
0.000000 0.000000 0
0.000000 0.000000 0
0.000000 0.000000 0
0.000000 0.000000 0
0.212558 -0.133939 0
0.814231 -0.497525 0
1.478223 -0.983540 0
2.061520 -1.507654 0
2.542459 -2.054237 0
2.944978 -2.647085 0
3.303023 -3.258572 0
4.074035 -4.558476 0
5.226027 -4.127587 0
3.921930 -1.910946 0
2.778293 -0.744474 0
2.002558 -0.198039 0
1.717482 0.048483 0
1.747460 0.169672 0
1.907896 0.225412 0
2.127983 0.247195 0
2.368614 0.245099 0
2.606938 0.226966 0
2.828212 0.200003 0
3.025075 0.169500 0
3.195010 0.139251 0
3.338607 0.111714 0
3.458322 0.088222 0
3.557542 0.069221 0
3.639916 0.054537 0
3.708911 0.043624 0
3.767560 0.035771 0
3.818356 0.030254 0
3.863248 0.026428 0
3.903699 0.023782 0
3.940785 0.021944 0
3.975298 0.020685 0
4.007858 0.019893 0
4.039011 0.019562 0
4.069323 0.019779 0
4.099472 0.020721 0
4.130338 0.022666 0
4.163112 0.026021 0
4.199438 0.031372 0
4.241603 0.039573 0
4.292802 0.051872 0
4.357523 0.070131 0
4.442082 0.097188 0
4.555428 0.137509 0
4.710132 0.198510 0
4.924679 0.294046 0
5.220677 0.450543 0
5.638528 0.743719 0
6.058705 1.228946 0
6.220036 1.762006 0
6.264254 2.200270 0
6.176832 2.530028 0
5.938104 2.718790 0
5.508460 2.714137 0
4.791740 2.449993 0
3.621293 1.863385 0
1.416800 0.741104 0
-0.000001 0.000000 0
-0.001036 0.000000 0
0.000000 0.000000 0
0.000000 0.000000 0
0.000000 0.000000 0
0.000000 0.000000 0
0.000000 0.000000 0
0.000000 0.000000 0
0.000000 0.000000 0
0.000000 0.000000 0
0.000000 0.000000 0
0.000000 0.000000 0
0.000000 0.000000 0
0.000000 0.000000 0
0.000000 0.000000 0
0.000000 0.000000 0
0.000000 0.000000 0
0.000000 0.000000 0
0.000000 0.000000 0
0.000000 0.000000 0
0.000000 0.000000 0
0.000000 0.000000 0
0.000000 0.000000 0
0.000000 0.000000 0
0.197922 -0.103932 0
0.731562 -0.401117 0
1.369021 -0.815086 0
1.936363 -1.267534 0
2.387993 -1.738589 0
2.714646 -2.234099 0
2.938709 -2.792883 0
3.104643 -3.492657 0
3.575601 -4.956080 0
4.025977 -3.896760 0
1.558207 -1.112884 0
0.420155 -0.190766 0
0.055483 0.072267 0
0.020413 0.061171 0
0.153346 0.067582 0
0.362897 0.094389 0
0.608340 0.106925 0
0.861860 0.105980 0
1.103073 0.096508 0
1.319992 0.083105 0
1.506779 0.068251 0
1.662130 0.053808 0
1.787856 0.040988 0
1.887625 0.030406 0
1.965933 0.022206 0
2.027347 0.016208 0
2.076015 0.012053 0
2.115402 0.009322 0
2.148220 0.007612 0
2.176470 0.006591 0
2.201565 0.006007 0
2.224473 0.005692 0
2.245860 0.005552 0
2.266226 0.005550 0
2.286015 0.005698 0
2.305712 0.006046 0
2.325939 0.006684 0
2.347538 0.007745 0
2.371690 0.009417 0
2.400061 0.011978 0
2.435016 0.015829 0
2.479939 0.021577 0
2.539719 0.030154 0
2.621499 0.043030 0
2.735894 0.062684 0
2.899060 0.093212 0
3.136587 0.144728 0
3.492593 0.231557 0
4.046009 0.467622 0
4.965664 1.015919 0
5.444611 1.651642 0
5.821020 2.150006 0
6.027415 2.553970 0
6.037454 2.829977 0
5.838034 2.933472 0
5.395503 2.817520 0
4.639567 2.446077 0
3.453563 1.798890 0
1.340947 0.702269 0
-0.000001 0.000000 0
-0.001221 0.000000 0
0.000000 0.000000 0
0.000000 0.000000 0
0.000000 0.000000 0
0.000000 0.000000 0
0.000000 0.000000 0
0.000000 0.000000 0
0.000000 0.000000 0
0.000000 0.000000 0
0.000000 0.000000 0
0.000000 0.000000 0
0.000000 0.000000 0
0.000000 0.000000 0
0.000000 0.000000 0
0.000000 0.000000 0
0.000000 0.000000 0
0.000000 0.000000 0
0.000000 0.000000 0
0.000000 0.000000 0
0.000000 0.000000 0
0.000000 0.000000 0
0.227213 -0.096352 0
0.756864 -0.359354 0
1.387393 -0.712748 0
1.947791 -1.094404 0
2.385616 -1.488355 0
2.682865 -1.893228 0
2.841269 -2.327071 0
2.879847 -2.840296 0
2.826645 -3.574099 0
2.799466 -5.014920 0
1.636719 -3.003575 0
0.000006 0.000000 0
0.000014 0.000000 0
0.000017 0.000000 0
0.000019 0.000000 0
0.000020 0.000000 0
0.000018 0.000000 0
0.000014 0.000000 0
0.000010 0.000000 0
0.000006 0.000000 0
0.000002 0.000000 0
-0.000003 0.000000 0
-0.000009 0.000000 0
-0.000016 0.000000 0
-0.000025 0.000000 0
-0.000034 0.000000 0
-0.000044 0.000000 0
-0.000054 0.000000 0
-0.000062 0.000000 0
-0.000069 0.000000 0
-0.000075 0.000000 0
-0.000078 0.000000 0
-0.000079 0.000000 0
-0.000079 0.000000 0
-0.000077 0.000000 0
-0.000075 0.000000 0
-0.000072 0.000000 0
-0.000068 0.000000 0
-0.000064 0.000000 0
-0.000060 0.000000 0
-0.000056 0.000000 0
-0.000052 0.000000 0
-0.000048 0.000000 0
-0.000044 0.000000 0
-0.000039 0.000000 0
-0.000035 0.000000 0
-0.000030 0.000000 0
-0.000025 0.000000 0
-0.000020 0.000000 0
-0.000012 0.000000 0
2.106997 0.522120 0
3.782419 1.338248 0
4.785980 1.911539 0
5.438631 2.422803 0
5.787240 2.812612 0
5.858998 3.032170 0
5.671113 3.043734 0
5.212547 2.825455 0
4.443449 2.377697 0
3.285204 1.713285 0
1.284287 0.664258 0
-0.000001 0.000000 0
-0.002088 0.000000 0
0.000000 0.000000 0
0.000000 0.000000 0
0.000000 0.000000 0
0.000000 0.000000 0
0.000000 0.000000 0
0.000000 0.000000 0
0.000000 0.000000 0
0.000000 0.000000 0
0.000000 0.000000 0
0.000000 0.000000 0
0.000000 0.000000 0
0.000000 0.000000 0
0.000000 0.000000 0
0.000000 0.000000 0
0.000000 0.000000 0
0.000000 0.000000 0
0.000000 0.000000 0
0.000000 0.000000 0
0.310564 -0.110502 0
0.901833 -0.371197 0
1.547327 -0.677003 0
2.101680 -0.991123 0
2.524008 -1.309622 0
2.799818 -1.631702 0
2.928316 -1.964327 0
2.919262 -2.331688 0
2.785434 -2.785638 0
2.523047 -3.452835 0
2.019132 -4.383618 0
0.037722 0.000012 0
-0.073259 2.452177 0
0.385527 0.000000 0
0.311813 0.000000 0
0.239662 0.000000 0
0.188342 0.000000 0
0.103245 0.000000 0
-0.002188 0.000000 0
-0.112590 0.000000 0
-0.216116 0.000000 0
-0.307400 0.000000 0
-0.383873 0.000000 0
-0.445175 0.000000 0
-0.492497 0.000000 0
-0.527925 0.000000 0
-0.553890 0.000000 0
-0.572766 0.000000 0
-0.586624 0.000000 0
-0.597114 0.000000 0
-0.605455 0.000000 0
-0.612491 0.000000 0
-0.618767 0.000000 0
-0.624620 0.000000 0
-0.630258 0.000000 0
-0.635825 0.000000 0
-0.641457 0.000000 0
-0.647320 0.000000 0
-0.653654 0.000000 0
-0.660805 0.000000 0
-0.669278 0.000000 0
-0.679806 0.000000 0
-0.693447 0.000000 0
-0.711749 0.000000 0
-0.736992 0.000000 0
-0.772606 0.000000 0
-0.823840 0.000000 0
-0.899125 0.000000 0
-1.011979 0.000000 0
-1.191249 0.000000 0
-1.479363 0.135571 0
0.000000 -0.000004 0
1.711677 0.327849 0
3.329431 1.329491 0
4.462690 2.057929 0
5.195052 2.621721 0
5.574360 2.991003 0
5.651919 3.137782 0
5.458965 3.054283 0
4.998027 2.753728 0
4.249801 2.268572 0
3.158262 1.628727 0
1.265370 0.636238 0
-0.000001 0.000000 0
-0.003834 0.000000 0
0.000000 0.000000 0
0.000000 0.000000 0
0.000000 0.000000 0
0.000000 0.000000 0
0.000000 0.000000 0
0.000000 0.000000 0
0.000000 0.000000 0
0.000000 0.000000 0
0.000000 0.000000 0
0.000000 0.000000 0
0.000000 0.000000 0
0.000000 0.000000 0
0.000000 0.000000 0
0.000000 0.000000 0
0.000000 0.000000 0
0.000000 0.000000 0