# vtk DataFile Version 2.0
generated by CFD-lab course output (written by Tobias Neckel) 
ASCII

DATASET STRUCTURED_GRID
DIMENSIONS  82 60 1 
POINTS 4920 float

-1.500000 -0.500000 0
-1.402439 -0.500000 0
-1.304878 -0.500000 0
-1.207317 -0.500000 0
-1.109756 -0.500000 0
-1.012195 -0.500000 0
-0.914634 -0.500000 0
-0.817073 -0.500000 0
-0.719512 -0.500000 0
-0.621951 -0.500000 0
-0.524390 -0.500000 0
-0.426829 -0.500000 0
-0.329268 -0.500000 0
-0.231707 -0.500000 0
-0.134146 -0.500000 0
-0.036585 -0.500000 0
0.060976 -0.500000 0
0.158537 -0.500000 0
0.256098 -0.500000 0
0.353659 -0.500000 0
0.451220 -0.500000 0
0.548780 -0.500000 0
0.646341 -0.500000 0
0.743902 -0.500000 0
0.841463 -0.500000 0
0.939024 -0.500000 0
1.036585 -0.500000 0
1.134146 -0.500000 0
1.231707 -0.500000 0
1.329268 -0.500000 0
1.426829 -0.500000 0
1.524390 -0.500000 0
1.621951 -0.500000 0
1.719512 -0.500000 0
1.817073 -0.500000 0
1.914634 -0.500000 0
2.012195 -0.500000 0
2.109756 -0.500000 0
2.207317 -0.500000 0
2.304878 -0.500000 0
2.402439 -0.500000 0
2.500000 -0.500000 0
2.597561 -0.500000 0
2.695122 -0.500000 0
2.792683 -0.500000 0
2.890244 -0.500000 0
2.987805 -0.500000 0
3.085366 -0.500000 0
3.182927 -0.500000 0
3.280488 -0.500000 0
3.378049 -0.500000 0
3.475610 -0.500000 0
3.573171 -0.500000 0
3.670732 -0.500000 0
3.768293 -0.500000 0
3.865854 -0.500000 0
3.963415 -0.500000 0
4.060976 -0.500000 0
4.158537 -0.500000 0
4.256098 -0.500000 0
4.353659 -0.500000 0
4.451220 -0.500000 0
4.548780 -0.500000 0
4.646341 -0.500000 0
4.743902 -0.500000 0
4.841463 -0.500000 0
4.939024 -0.500000 0
5.036585 -0.500000 0
5.134146 -0.500000 0
5.231707 -0.500000 0
5.329268 -0.500000 0
5.426829 -0.500000 0
5.524390 -0.500000 0
5.621951 -0.500000 0
5.719512 -0.500000 0
5.817073 -0.500000 0
5.914634 -0.500000 0
6.012195 -0.500000 0
6.109756 -0.500000 0
6.207317 -0.500000 0
6.304878 -0.500000 0
6.402439 -0.500000 0
-1.500000 -0.451667 0
-1.402439 -0.451667 0
-1.304878 -0.451667 0
-1.207317 -0.451667 0
-1.109756 -0.451667 0
-1.012195 -0.451667 0
-0.914634 -0.451667 0
-0.817073 -0.451667 0
-0.719512 -0.451667 0
-0.621951 -0.451667 0
-0.524390 -0.451667 0
-0.426829 -0.451667 0
-0.329268 -0.451667 0
-0.231707 -0.451667 0
-0.134146 -0.451667 0
-0.036585 -0.451667 0
0.060976 -0.451667 0
0.158537 -0.451667 0
0.256098 -0.451667 0
0.353659 -0.451667 0
0.451220 -0.451667 0
0.548780 -0.451667 0
0.646341 -0.451667 0
0.743902 -0.451667 0
0.841463 -0.451667 0
0.939024 -0.451667 0
1.036585 -0.451667 0
1.134146 -0.451667 0
1.231707 -0.451667 0
1.329268 -0.451667 0
1.426829 -0.451667 0
1.524390 -0.451667 0
1.621951 -0.451667 0
1.719512 -0.451667 0
1.817073 -0.451667 0
1.914634 -0.451667 0
2.012195 -0.451667 0
2.109756 -0.451667 0
2.207317 -0.451667 0
2.304878 -0.451667 0
2.402439 -0.451667 0
2.500000 -0.451667 0
2.597561 -0.451667 0
2.695122 -0.451667 0
2.792683 -0.451667 0
2.890244 -0.451667 0
2.987805 -0.451667 0
3.085366 -0.451667 0
3.182927 -0.451667 0
3.280488 -0.451667 0
3.378049 -0.451667 0
3.475610 -0.451667 0
3.573171 -0.451667 0
3.670732 -0.451667 0
3.768293 -0.451667 0
3.865854 -0.451667 0
3.963415 -0.451667 0
4.060976 -0.451667 0
4.158537 -0.451667 0
4.256098 -0.451667 0
4.353659 -0.451667 0
4.451220 -0.451667 0
4.548780 -0.451667 0
4.646341 -0.451667 0
4.743902 -0.451667 0
4.841463 -0.451667 0
4.939024 -0.451667 0
5.036585 -0.451667 0
5.134146 -0.451667 0
5.231707 -0.451667 0
5.329268 -0.451667 0
5.426829 -0.451667 0
5.524390 -0.451667 0
5.621951 -0.451667 0
5.719512 -0.451667 0
5.817073 -0.451667 0
5.914634 -0.451667 0
6.012195 -0.451667 0
6.109756 -0.451667 0
6.207317 -0.451667 0
6.304878 -0.451667 0
6.402439 -0.451667 0
-1.500000 -0.403333 0
-1.402439 -0.403333 0
-1.304878 -0.403333 0
-1.207317 -0.403333 0
-1.109756 -0.403333 0
-1.012195 -0.403333 0
-0.914634 -0.403333 0
-0.817073 -0.403333 0
-0.719512 -0.403333 0
-0.621951 -0.403333 0
-0.524390 -0.403333 0
-0.426829 -0.403333 0
-0.329268 -0.403333 0
-0.231707 -0.403333 0
-0.134146 -0.403333 0
-0.036585 -0.403333 0
0.060976 -0.403333 0
0.158537 -0.403333 0
0.256098 -0.403333 0
0.353659 -0.403333 0
0.451220 -0.403333 0
0.548780 -0.403333 0
0.646341 -0.403333 0
0.743902 -0.403333 0
0.841463 -0.403333 0
0.939024 -0.403333 0
1.036585 -0.403333 0
1.134146 -0.403333 0
1.231707 -0.403333 0
1.329268 -0.403333 0
1.426829 -0.403333 0
1.524390 -0.403333 0
1.621951 -0.403333 0
1.719512 -0.403333 0
1.817073 -0.403333 0
1.914634 -0.403333 0
2.012195 -0.403333 0
2.109756 -0.403333 0
2.207317 -0.403333 0
2.304878 -0.403333 0
2.402439 -0.403333 0
2.500000 -0.403333 0
2.597561 -0.403333 0
2.695122 -0.403333 0
2.792683 -0.403333 0
2.890244 -0.403333 0
2.987805 -0.403333 0
3.085366 -0.403333 0
3.182927 -0.403333 0
3.280488 -0.403333 0
3.378049 -0.403333 0
3.475610 -0.403333 0
3.573171 -0.403333 0
3.670732 -0.403333 0
3.768293 -0.403333 0
3.865854 -0.403333 0
3.963415 -0.403333 0
4.060976 -0.403333 0
4.158537 -0.403333 0
4.256098 -0.403333 0
4.353659 -0.403333 0
4.451220 -0.403333 0
4.548780 -0.403333 0
4.646341 -0.403333 0
4.743902 -0.403333 0
4.841463 -0.403333 0
4.939024 -0.403333 0
5.036585 -0.403333 0
5.134146 -0.403333 0
5.231707 -0.403333 0
5.329268 -0.403333 0
5.426829 -0.403333 0
5.524390 -0.403333 0
5.621951 -0.403333 0
5.719512 -0.403333 0
5.817073 -0.403333 0
5.914634 -0.403333 0
6.012195 -0.403333 0
6.109756 -0.403333 0
6.207317 -0.403333 0
6.304878 -0.403333 0
6.402439 -0.403333 0
-1.500000 -0.355000 0
-1.402439 -0.355000 0
-1.304878 -0.355000 0
-1.207317 -0.355000 0
-1.109756 -0.355000 0
-1.012195 -0.355000 0
-0.914634 -0.355000 0
-0.817073 -0.355000 0
-0.719512 -0.355000 0
-0.621951 -0.355000 0
-0.524390 -0.355000 0
-0.426829 -0.355000 0
-0.329268 -0.355000 0
-0.231707 -0.355000 0
-0.134146 -0.355000 0
-0.036585 -0.355000 0
0.060976 -0.355000 0
0.158537 -0.355000 0
0.256098 -0.355000 0
0.353659 -0.355000 0
0.451220 -0.355000 0
0.548780 -0.355000 0
0.646341 -0.355000 0
0.743902 -0.355000 0
0.841463 -0.355000 0
0.939024 -0.355000 0
1.036585 -0.355000 0
1.134146 -0.355000 0
1.231707 -0.355000 0
1.329268 -0.355000 0
1.426829 -0.355000 0
1.524390 -0.355000 0
1.621951 -0.355000 0
1.719512 -0.355000 0
1.817073 -0.355000 0
1.914634 -0.355000 0
2.012195 -0.355000 0
2.109756 -0.355000 0
2.207317 -0.355000 0
2.304878 -0.355000 0
2.402439 -0.355000 0
2.500000 -0.355000 0
2.597561 -0.355000 0
2.695122 -0.355000 0
2.792683 -0.355000 0
2.890244 -0.355000 0
2.987805 -0.355000 0
3.085366 -0.355000 0
3.182927 -0.355000 0
3.280488 -0.355000 0
3.378049 -0.355000 0
3.475610 -0.355000 0
3.573171 -0.355000 0
3.670732 -0.355000 0
3.768293 -0.355000 0
3.865854 -0.355000 0
3.963415 -0.355000 0
4.060976 -0.355000 0
4.158537 -0.355000 0
4.256098 -0.355000 0
4.353659 -0.355000 0
4.451220 -0.355000 0
4.548780 -0.355000 0
4.646341 -0.355000 0
4.743902 -0.355000 0
4.841463 -0.355000 0
4.939024 -0.355000 0
5.036585 -0.355000 0
5.134146 -0.355000 0
5.231707 -0.355000 0
5.329268 -0.355000 0
5.426829 -0.355000 0
5.524390 -0.355000 0
5.621951 -0.355000 0
5.719512 -0.355000 0
5.817073 -0.355000 0
5.914634 -0.355000 0
6.012195 -0.355000 0
6.109756 -0.355000 0
6.207317 -0.355000 0
6.304878 -0.355000 0
6.402439 -0.355000 0
-1.500000 -0.306667 0
-1.402439 -0.306667 0
-1.304878 -0.306667 0
-1.207317 -0.306667 0
-1.109756 -0.306667 0
-1.012195 -0.306667 0
-0.914634 -0.306667 0
-0.817073 -0.306667 0
-0.719512 -0.306667 0
-0.621951 -0.306667 0
-0.524390 -0.306667 0
-0.426829 -0.306667 0
-0.329268 -0.306667 0
-0.231707 -0.306667 0
-0.134146 -0.306667 0
-0.036585 -0.306667 0
0.060976 -0.306667 0
0.158537 -0.306667 0
0.256098 -0.306667 0
0.353659 -0.306667 0
0.451220 -0.306667 0
0.548780 -0.306667 0
0.646341 -0.306667 0
0.743902 -0.306667 0
0.841463 -0.306667 0
0.939024 -0.306667 0
1.036585 -0.306667 0
1.134146 -0.306667 0
1.231707 -0.306667 0
1.329268 -0.306667 0
1.426829 -0.306667 0
1.524390 -0.306667 0
1.621951 -0.306667 0
1.719512 -0.306667 0
1.817073 -0.306667 0
1.914634 -0.306667 0
2.012195 -0.306667 0
2.109756 -0.306667 0
2.207317 -0.306667 0
2.304878 -0.306667 0
2.402439 -0.306667 0
2.500000 -0.306667 0
2.597561 -0.306667 0
2.695122 -0.306667 0
2.792683 -0.306667 0
2.890244 -0.306667 0
2.987805 -0.306667 0
3.085366 -0.306667 0
3.182927 -0.306667 0
3.280488 -0.306667 0
3.378049 -0.306667 0
3.475610 -0.306667 0
3.573171 -0.306667 0
3.670732 -0.306667 0
3.768293 -0.306667 0
3.865854 -0.306667 0
3.963415 -0.306667 0
4.060976 -0.306667 0
4.158537 -0.306667 0
4.256098 -0.306667 0
4.353659 -0.306667 0
4.451220 -0.306667 0
4.548780 -0.306667 0
4.646341 -0.306667 0
4.743902 -0.306667 0
4.841463 -0.306667 0
4.939024 -0.306667 0
5.036585 -0.306667 0
5.134146 -0.306667 0
5.231707 -0.306667 0
5.329268 -0.306667 0
5.426829 -0.306667 0
5.524390 -0.306667 0
5.621951 -0.306667 0
5.719512 -0.306667 0
5.817073 -0.306667 0
5.914634 -0.306667 0
6.012195 -0.306667 0
6.109756 -0.306667 0
6.207317 -0.306667 0
6.304878 -0.306667 0
6.402439 -0.306667 0
-1.500000 -0.258333 0
-1.402439 -0.258333 0
-1.304878 -0.258333 0
-1.207317 -0.258333 0
-1.109756 -0.258333 0
-1.012195 -0.258333 0
-0.914634 -0.258333 0
-0.817073 -0.258333 0
-0.719512 -0.258333 0
-0.621951 -0.258333 0
-0.524390 -0.258333 0
-0.426829 -0.258333 0
-0.329268 -0.258333 0
-0.231707 -0.258333 0
-0.134146 -0.258333 0
-0.036585 -0.258333 0
0.060976 -0.258333 0
0.158537 -0.258333 0
0.256098 -0.258333 0
0.353659 -0.258333 0
0.451220 -0.258333 0
0.548780 -0.258333 0
0.646341 -0.258333 0
0.743902 -0.258333 0
0.841463 -0.258333 0
0.939024 -0.258333 0
1.036585 -0.258333 0
1.134146 -0.258333 0
1.231707 -0.258333 0
1.329268 -0.258333 0
1.426829 -0.258333 0
1.524390 -0.258333 0
1.621951 -0.258333 0
1.719512 -0.258333 0
1.817073 -0.258333 0
1.914634 -0.258333 0
2.012195 -0.258333 0
2.109756 -0.258333 0
2.207317 -0.258333 0
2.304878 -0.258333 0
2.402439 -0.258333 0
2.500000 -0.258333 0
2.597561 -0.258333 0
2.695122 -0.258333 0
2.792683 -0.258333 0
2.890244 -0.258333 0
2.987805 -0.258333 0
3.085366 -0.258333 0
3.182927 -0.258333 0
3.280488 -0.258333 0
3.378049 -0.258333 0
3.475610 -0.258333 0
3.573171 -0.258333 0
[...]
POINT_DATA 4920 

VECTORS velocity float
0.000000 0.000000 0
0.000000 0.000000 0
0.000000 0.000000 0
0.000000 0.000000 0
0.000000 0.000000 0
0.000000 0.000000 0
0.000000 0.000000 0
0.000000 0.000000 0
0.000000 0.000000 0
0.000000 0.000000 0
0.000000 0.000000 0
0.000000 0.000000 0
0.000000 0.000000 0
0.000000 0.000000 0
0.000000 0.000000 0
0.000000 0.000000 0
0.000000 0.000000 0
0.000000 0.000000 0
0.000000 0.000000 0
0.000000 0.000000 0
0.000000 0.000000 0
0.000000 0.000000 0
0.000000 0.000000 0
0.000000 0.000000 0
0.000000 0.000000 0
0.000000 0.000000 0
0.000000 0.000000 0
0.000000 0.000000 0
0.000000 0.000000 0
0.000000 0.000000 0
0.000000 0.000000 0
0.000000 0.000000 0
0.000000 0.000000 0
0.000000 0.000000 0
0.000000 0.000000 0
0.000000 0.000000 0
0.000000 0.000000 0
0.000000 0.000000 0
0.000000 0.000000 0
0.000000 0.000000 0
0.000000 0.000000 0
0.000000 0.000000 0
0.000000 0.000000 0
0.000000 0.000000 0
0.000000 0.000000 0
0.000000 0.000000 0
0.000000 0.000000 0
0.000000 0.000000 0
0.000000 0.000000 0
0.000000 0.000000 0
0.000000 0.000000 0
0.000000 0.000000 0
0.000000 0.000000 0
0.000000 0.000000 0
0.000000 0.000000 0
0.000000 0.000000 0
0.000000 0.000000 0
0.001915 0.000000 0
0.000000 0.000000 0
0.000000 0.000000 0
0.000000 0.000000 0
0.000000 0.000000 0
0.000000 0.000000 0
0.000000 0.000000 0
0.000000 0.000000 0
0.000000 0.000000 0
0.000000 0.000000 0
0.000000 0.000000 0
0.000000 0.000000 0
0.000000 0.000000 0
0.000000 0.000000 0
0.000000 0.000000 0
0.000000 0.000000 0
0.000000 0.000000 0
0.000000 0.000000 0
0.000000 0.000000 0
0.000000 0.000000 0
0.000000 0.000000 0
0.000000 0.000000 0
0.000000 0.000000 0
0.000000 0.000000 0
0.000000 0.000000 0
0.000000 0.000000 0
0.000000 0.000000 0
0.000000 0.000000 0
0.000000 0.000000 0
0.000000 0.000000 0
0.000000 0.000000 0
0.000000 0.000000 0
0.000000 0.000000 0
0.000000 0.000000 0
0.000000 0.000000 0
0.000000 0.000000 0
0.000000 0.000000 0
0.000000 0.000000 0
0.000000 0.000000 0
1.046410 -0.422536 0
2.518332 -0.738216 0
3.779812 -0.505140 0
4.622819 -0.265394 0
5.056264 -0.070114 0
5.167218 0.061935 0
5.063327 0.139736 0
4.829849 0.177739 0
4.530918 0.186506 0
4.213416 0.175009 0
3.909632 0.151122 0
3.639345 0.121587 0
3.411992 0.091703 0
3.229160 0.065051 0
3.087256 0.043477 0
2.979961 0.027390 0
2.900132 0.016254 0
2.841029 0.009092 0
2.796926 0.004848 0
2.763296 0.002598 0
2.736749 0.001619 0
2.714848 0.001398 0
2.695898 0.001592 0
2.678741 0.001994 0
2.662582 0.002492 0
2.646845 0.003042 0
2.631055 0.003653 0
2.614741 0.004369 0
2.597346 0.005267 0
2.578142 0.006459 0
2.556129 0.008095 0
2.529918 0.010375 0
2.497571 0.013567 0
2.456400 0.018021 0
2.402700 0.024184 0
2.331422 0.032602 0
2.235800 0.043878 0
2.107007 0.058492 0
1.934194 0.076508 0
1.704939 0.096431 0
1.409404 0.115115 0
1.038710 0.130707 0
0.616644 0.068853 0
0.000000 0.000000 0
-0.001573 0.000000 0
0.000000 0.000000 0
0.000000 0.000000 0
0.000000 0.000000 0
0.000000 0.000000 0
0.000000 0.000000 0
0.000000 0.000000 0
0.000000 0.000000 0
0.000000 0.000000 0
0.000000 0.000000 0
0.000000 0.000000 0
0.000000 0.000000 0
0.000000 0.000000 0
0.000000 0.000000 0
0.000000 0.000000 0
0.000000 0.000000 0
0.000000 0.000000 0
0.000000 0.000000 0
0.000000 0.000000 0
0.000000 0.000000 0
0.000000 0.000000 0
0.000000 0.000000 0
0.000000 0.000000 0
0.000000 0.000000 0
0.000000 0.000000 0
0.000000 0.000000 0
0.000000 0.000000 0
0.000000 0.000000 0
0.000000 0.000000 0
0.000000 0.000000 0
0.000000 0.000000 0
0.000000 0.000000 0
0.000000 0.000000 0
0.000000 0.000000 0
0.000000 0.000000 0
0.000000 0.000000 0
0.000000 0.000000 0
1.159623 -0.517003 0
2.653781 -1.246011 0
3.828620 -1.353966 0
5.002585 -1.042598 0
5.863964 -0.632376 0
6.391009 -0.269704 0
6.647145 -0.003499 0
6.706883 0.167138 0
6.638361 0.263764 0
6.491091 0.305391 0
6.301249 0.307795 0
6.094889 0.284404 0
5.890126 0.246539 0
5.698736 0.203213 0
5.527458 0.160879 0
5.379135 0.123457 0
5.253780 0.092704 0
5.149558 0.068829 0
5.063629 0.051130 0
4.992809 0.038510 0
4.934022 0.029813 0
4.884546 0.024002 0
4.842122 0.020238 0
4.804950 0.017888 0
4.771630 0.016505 0
4.741071 0.015802 0
4.712404 0.015619 0
4.684880 0.015905 0
4.657781 0.016700 0
4.630331 0.018132 0
4.601591 0.020420 0
4.570351 0.023891 0
4.534981 0.029011 0
4.493244 0.036422 0
4.442038 0.047000 0
4.377047 0.061916 0
4.292269 0.082685 0
4.179381 0.111179 0
4.026937 0.149421 0
3.819450 0.199191 0
3.536746 0.259990 0
3.154567 0.330061 0
2.647207 0.392238 0
2.014806 0.512286 0
1.050686 0.303696 0
0.000000 0.000000 0
-0.004731 0.000000 0
0.000000 0.000000 0
0.000000 0.000000 0
0.000000 0.000000 0
0.000000 0.000000 0
0.000000 0.000000 0
0.000000 0.000000 0
0.000000 0.000000 0
0.000000 0.000000 0
0.000000 0.000000 0
0.000000 0.000000 0
0.000000 0.000000 0
0.000000 0.000000 0
0.000000 0.000000 0
0.000000 0.000000 0
0.000000 0.000000 0
0.000000 0.000000 0
0.000000 0.000000 0
0.000000 0.000000 0
0.000000 0.000000 0
0.000000 0.000000 0
0.000000 0.000000 0
0.000000 0.000000 0
0.000000 0.000000 0
0.000000 0.000000 0
0.000000 0.000000 0
0.000000 0.000000 0
0.000000 0.000000 0
0.000000 0.000000 0
0.000000 0.000000 0
0.000000 0.000000 0
0.000000 0.000000 0
0.000000 0.000000 0
0.000000 0.000000 0
0.000000 0.000000 0
0.936106 -0.582542 0
2.634601 -1.321367 0
3.462322 -1.743396 0
4.644976 -1.901852 0
5.708360 -1.513484 0
6.431450 -0.953242 0
6.856288 -0.458115 0
7.079469 -0.094554 0
7.167575 0.144088 0
7.169437 0.284647 0
7.118252 0.353517 0
7.036242 0.371294 0
6.938266 0.354800 0
6.834419 0.317848 0
6.731659 0.271374 0
6.634675 0.223387 0
6.546318 0.179062 0
6.467904 0.141126 0
6.399536 0.110458 0
6.340484 0.086748 0
6.289548 0.069058 0
6.245359 0.056233 0
6.206591 0.047148 0
6.172067 0.040831 0
6.140808 0.036515 0
6.112018 0.033641 0
6.085053 0.031833 0
6.059375 0.030880 0
6.034493 0.030714 0
6.009910 0.031394 0
5.985059 0.033105 0
5.959229 0.036174 0
5.931481 0.041094 0
5.900525 0.048575 0
5.864566 0.059613 0
5.821075 0.075587 0
5.766466 0.098382 0
5.695625 0.130529 0
5.601200 0.175328 0
5.472576 0.236808 0
5.294233 0.319357 0
5.044060 0.425825 0
4.690205 0.555808 0
4.200134 0.695363 0
3.530282 0.856065 0
2.831581 0.996832 0
1.343114 0.522922 0
0.000000 0.000000 0
-0.005823 0.000000 0
0.000000 0.000000 0
0.000000 0.000000 0
0.000000 0.000000 0
0.000000 0.000000 0
0.000000 0.000000 0
0.000000 0.000000 0
0.000000 0.000000 0
0.000000 0.000000 0
0.000000 0.000000 0
0.000000 0.000000 0
0.000000 0.000000 0
0.000000 0.000000 0
0.000000 0.000000 0
0.000000 0.000000 0
0.000000 0.000000 0
0.000000 0.000000 0
0.000000 0.000000 0
0.000000 0.000000 0
0.000000 0.000000 0
0.000000 0.000000 0
0.000000 0.000000 0
0.000000 0.000000 0
0.000000 0.000000 0
0.000000 0.000000 0
0.000000 0.000000 0
0.000000 0.000000 0
0.000000 0.000000 0
0.000000 0.000000 0
0.000000 0.000000 0
0.000000 0.000000 0
0.000000 0.000000 0
0.000000 0.000000 0
0.738390 -0.467385 0
2.144382 -1.316893 0
3.090300 -1.776578 0
3.864770 -2.241984 0
5.207789 -2.466691 0
6.163353 -1.927647 0
6.688789 -1.201078 0
6.946555 -0.590743 0
7.065194 -0.157716 0
7.111700 0.122566 0
7.115700 0.288200 0
7.097555 0.371378 0
7.068697 0.396963 0
7.034856 0.384391 0
6.998799 0.348896 0
6.962137 0.302169 0
6.926147 0.252700 0
6.891940 0.206078 0
6.860358 0.165422 0
6.831878 0.131954 0
6.806595 0.105620 0
6.784306 0.085637 0
6.764626 0.070911 0
6.747094 0.060312 0
6.731255 0.052828 0
6.716703 0.047638 0
6.703091 0.044127 0
6.690132 0.041882 0
6.677579 0.040667 0
6.665203 0.040410 0
6.652760 0.041191 0
6.639966 0.043240 0
6.626445 0.046963 0
6.611688 0.052974 0
6.594971 0.062161 0
6.575254 0.075783 0
6.551030 0.095601 0
6.520082 0.124066 0
6.479108 0.164561 0
6.423085 0.221681 0
6.344199 0.301497 0
6.229842 0.411485 0
6.059598 0.559235 0
5.799735 0.748156 0
5.406876 0.966884 0
4.837895 1.190290 0
4.167858 1.389481 0
3.377800 1.410125 0
1.500911 0.670489 0
0.000000 0.000000 0
-0.005276 0.000000 0
0.000000 0.000000 0
0.000000 0.000000 0
0.000000 0.000000 0
0.000000 0.000000 0
0.000000 0.000000 0
0.000000 0.000000 0
0.000000 0.000000 0
0.000000 0.000000 0
0.000000 0.000000 0
0.000000 0.000000 0
0.000000 0.000000 0
0.000000 0.000000 0
0.000000 0.000000 0
0.000000 0.000000 0
0.000000 0.000000 0
0.000000 0.000000 0
0.000000 0.000000 0
0.000000 0.000000 0
0.000000 0.000000 0
0.000000 0.000000 0
0.000000 0.000000 0
0.000000 0.000000 0
0.000000 0.000000 0
0.000000 0.000000 0
0.000000 0.000000 0
0.000000 0.000000 0
0.000000 0.000000 0
0.000000 0.000000 0
0.000000 0.000000 0
0.000000 0.000000 0
0.536176 -0.369283 0
1.698552 -1.069457 0
2.545221 -1.751340 0
3.300686 -2.173676 0
4.126543 -2.792435 0
5.619084 -3.040609 0
6.352082 -2.247196 0
6.584749 -1.341254 0
6.618177 -0.644592 0
6.605968 -0.176370 0
6.591182 0.119067 0
6.581100 0.291655 0
6.579844 0.376804 0
6.586798 0.402356 0
6.599050 0.389428 0
6.613173 0.353874 0
6.626495 0.307367 0
6.637543 0.258164 0
6.645908 0.211655 0
6.651870 0.170882 0
6.656007 0.137093 0
6.658925 0.110315 0
6.661118 0.089850 0
6.662932 0.074669 0
6.664580 0.063680 0
6.666172 0.055887 0
6.667758 0.050469 0
6.669346 0.046804 0
6.670929 0.044471 0
6.672486 0.043231 0
6.673997 0.043010 0
6.675436 0.043897 0
6.676772 0.046142 0
6.677966 0.050183 0
6.678954 0.056687 0
6.679634 0.066625 0
6.679830 0.081382 0
6.679235 0.102920 0
6.677299 0.134013 0
6.673017 0.178583 0
6.664495 0.242164 0
6.648055 0.332544 0
6.616215 0.460353 0
6.553598 0.638908 0
6.428417 0.879177 0
6.184300 1.171875 0
5.772577 1.469895 0
5.221708 1.720187 0
4.581839 1.852383 0
3.670912 1.686774 0
1.556315 0.748721 0
0.000000 0.000000 0
-0.003979 0.000000 0
0.000000 0.000000 0
0.000000 0.000000 0
0.000000 0.000000 0
0.000000 0.000000 0
0.000000 0.000000 0
0.000000 0.000000 0
0.000000 0.000000 0
0.000000 0.000000 0
0.000000 0.000000 0
0.000000 0.000000 0
0.000000 0.000000 0
0.000000 0.000000 0
0.000000 0.000000 0
0.000000 0.000000 0
0.000000 0.000000 0
0.000000 0.000000 0
0.000000 0.000000 0
0.000000 0.000000 0
0.000000 0.000000 0
0.000000 0.000000 0
0.000000 0.000000 0
0.000000 0.000000 0
0.000000 0.000000 0
0.000000 0.000000 0
0.000000 0.000000 0
0.000000 0.000000 0
0.000000 0.000000 0
0.000000 0.000000 0
0.376469 -0.266961 0
1.297312 -0.846294 0
2.061424 -1.466171 0
2.754351 -2.110617 0
3.394946 -2.559992 0
4.280971 -3.390558 0
5.831148 -3.569260 0
6.151840 -2.406053 0
5.981711 -1.332906 0
5.742916 -0.601256 0
5.590429 -0.144342 0
5.514296 0.134886 0
5.501295 0.293817 0
5.531581 0.368555 0
5.587335 0.387449 0
5.655059 0.371324 0
5.725034 0.335300 0
5.791090 0.290096 0
5.849978 0.243083 0
5.900600 0.198980 0
5.943240 0.160419 0
5.978914 0.128459 0
6.008897 0.103088 0
6.034441 0.083652 0
6.056629 0.069196 0
6.076334 0.058707 0
6.094225 0.051254 0
6.110800 0.046065 0
6.126424 0.042556 0
6.141371 0.040326 0
6.155860 0.039147 0
6.170085 0.038949 0
6.184246 0.039816 0
6.198579 0.041986 0
6.213382 0.045882 0
6.229053 0.052148 0
6.246127 0.061727 0
6.265323 0.075981 0
6.287594 0.096855 0
6.314172 0.127147 0
6.346575 0.170904 0
6.386485 0.234048 0
6.435286 0.325416 0
6.492503 0.458280 0
6.551407 0.652273 0
6.587379 0.931112 0
6.526662 1.291797 0
6.297319 1.667174 0
5.922354 1.979392 0
5.433645 2.178415 0
4.793708 2.179756 0
3.768032 1.832913 0
1.542184 0.774934 0
0.000000 0.000000 0
-0.002620 0.000000 0
0.000000 0.000000 0
0.000000 0.000000 0
0.000000 0.000000 0
0.000000 0.000000 0
0.000000 0.000000 0
0.000000 0.000000 0
0.000000 0.000000 0
0.000000 0.000000 0
0.000000 0.000000 0
0.000000 0.000000 0
0.000000 0.000000 0
0.000000 0.000000 0
0.000000 0.000000 0
0.000000 0.000000 0
0.000000 0.000000 0
0.000000 0.000000 0
0.000000 0.000000 0
0.000000 0.000000 0
0.000000 0.000000 0
0.000000 0.000000 0
0.000000 0.000000 0
0.000000 0.000000 0
0.000000 0.000000 0
0.000000 0.000000 0
0.000000 0.000000 0
0.000000 0.000000 0
0.267974 -0.186458 0
0.995897 -0.643989 0
1.702424 -1.205368 0
2.319888 -1.791298 0
2.880680 -2.411989 0
3.395852 -2.929989 0
4.284562 -3.999370 0
5.744259 -3.967469 0
5.401790 -2.321787 0
4.738571 -1.138665 0
4.209873 -0.450745 0
3.920806 -0.063108 0
3.817061 0.163225 0
3.848476 0.283091 0
3.954396 0.334178 0
4.094325 0.341183 0
4.244202 0.321210 0
4.389432 0.286482 0
4.522054 0.245468 0
4.638539 0.203911 0
4.738236 0.165451 0
4.822227 0.132083 0
4.892491 0.104566 0
4.951315 0.082807 0
5.000934 0.066203 0
5.043336 0.053914 0
5.080186 0.045054 0
5.112826 0.038812 0
5.142309 0.034517 0
5.169451 0.031659 0
5.194893 0.029888 0
5.219159 0.029005 0
5.242717 0.028947 0
5.266037 0.029780 0
5.289647 0.031708 0
5.314203 0.035086 0
5.340566 0.040465 0
5.369897 0.048656 0
5.403792 0.060838 0
5.444440 0.078719 0
5.494844 0.104793 0
5.559083 0.142758 0
5.642603 0.198215 0
5.752412 0.280021 0
5.896797 0.402825 0
6.081531 0.591904 0
6.301051 0.891437 0
6.455895 1.315576 0
6.420666 1.769279 0
6.248745 2.148065 0
5.949076 2.411533 0
5.510232 2.511946 0
4.840584 2.368987 0
3.727692 1.878589 0
1.485685 0.766459 0
0.000000 0.000000 0
-0.001601 0.000000 0
0.000000 0.000000 0
0.000000 0.000000 0
0.000000 0.000000 0
0.000000 0.000000 0
0.000000 0.000000 0
0.000000 0.000000 0
0.000000 0.000000 0
0.000000 0.000000 0
0.000000 0.000000 0
0.000000 0.000000 0
0.000000 0.000000 0
0.000000 0.000000 0
0.000000 0.000000 0
0.000000 0.000000 0
0.000000 0.000000 0
0.000000 0.000000 0
0.000000 0.000000 0
0.000000 0.000000 0
0.000000 0.000000 0
0.000000 0.000000 0
0.000000 0.000000 0
0.000000 0.000000 0
0.000000 0.000000 0
0.000000 0.000000 0
0.209253 -0.131867 0
0.805445 -0.492440 0
1.468517 -0.977560 0
2.052828 -1.502221 0
2.535383 -2.049899 0
2.939374 -2.643667 0
3.298348 -3.255499 0
4.068906 -4.553997 0
5.219459 -4.122753 0
3.917018 -1.907819 0
2.775500 -0.742410 0
2.002381 -0.196122 0
1.719165 0.050264 0
1.749852 0.170720 0
1.910399 0.225779 0
2.129713 0.246758 0
2.369030 0.243874 0
2.605334 0.225123 0
2.823982 0.197647 0
3.017662 0.166684 0
3.183851 0.135983 0
3.323106 0.107979 0
3.437830 0.083998 0
3.531369 0.064507 0
3.607359 0.049364 0
3.669302 0.038063 0
3.720319 0.029933 0
3.763047 0.024280 0
3.799616 0.020476 0
3.831696 0.018012 0
3.860574 0.016506 0
3.887240 0.015700 0
3.912486 0.015454 0
3.936994 0.015725 0
3.961429 0.016566 0
3.986530 0.018124 0
4.013210 0.020656 0
4.042676 0.024556 0
4.076580 0.030404 0
4.117219 0.039051 0
4.167814 0.051746 0
4.232897 0.070351 0
4.318851 0.097702 0
4.434717 0.138269 0
4.593195 0.199484 0
4.812934 0.295230 0
5.115815 0.451999 0
5.542536 0.745646 0
5.974540 1.232538 0
6.149772 1.769800 0
6.206673 2.213026 0
6.129767 2.544287 0
5.899890 2.728922 0
5.476837 2.716013 0
4.765021 2.444027 0
3.601167 1.854990 0
1.409738 0.737242 0
0.000000 0.000000 0
-0.001112 0.000000 0
0.000000 0.000000 0
0.000000 0.000000 0
0.000000 0.000000 0
0.000000 0.000000 0
0.000000 0.000000 0
0.000000 0.000000 0
0.000000 0.000000 0
0.000000 0.000000 0
0.000000 0.000000 0
0.000000 0.000000 0
0.000000 0.000000 0
0.000000 0.000000 0
0.000000 0.000000 0
0.000000 0.000000 0
0.000000 0.000000 0
0.000000 0.000000 0
0.000000 0.000000 0
0.000000 0.000000 0
0.000000 0.000000 0
0.000000 0.000000 0
0.000000 0.000000 0
0.000000 0.000000 0
0.195346 -0.102304 0
0.724357 -0.396776 0
1.360476 -0.809426 0
1.928541 -1.261964 0
2.381680 -1.733911 0
2.709925 -2.230508 0
2.935141 -2.789974 0
3.101524 -3.489578 0
3.571695 -4.951120 0
4.021360 -3.892221 0
1.556881 -1.111009 0
0.421337 -0.190122 0
0.058324 0.072581 0
0.025464 0.061999 0
0.159781 0.068485 0
0.370063 0.094902 0
0.615516 0.106965 0
0.868145 0.105552 0
1.107776 0.095819 0
1.322557 0.082208 0
1.506726 0.067183 0
1.659010 0.052589 0
1.781209 0.039626 0
1.876965 0.028906 0
1.950759 0.020578 0
2.007172 0.014473 0
2.050400 0.010241 0
2.084003 0.007471 0
2.110821 0.005769 0
2.133012 0.004802 0
2.152153 0.004317 0
2.169370 0.004141 0
2.185469 0.004170 0
2.201061 0.004357 0
2.216663 0.004700 0
2.232802 0.005240 0
2.250101 0.006055 0
2.269385 0.007270 0
2.291796 0.009070 0
2.318951 0.011727 0
2.353167 0.015639 0
2.397775 0.021410 0
2.457616 0.029967 0
2.539778 0.042773 0
2.654828 0.062300 0
2.818875 0.092646 0
3.057486 0.143910 0
3.414797 0.230447 0
3.969848 0.466010 0
4.892102 1.014741 0
5.376149 1.654276 0
5.755687 2.157976 0
5.965035 2.563518 0
5.981445 2.835419 0
5.790981 2.931220 0
5.357420 2.807827 0
4.610384 2.433200 0
3.435180 1.788944 0
1.335942 0.698796 0
0.000000 0.000000 0
-0.001272 0.000000 0
0.000000 0.000000 0
0.000000 0.000000 0
0.000000 0.000000 0
0.000000 0.000000 0
0.000000 0.000000 0
0.000000 0.000000 0
0.000000 0.000000 0
0.000000 0.000000 0
0.000000 0.000000 0
0.000000 0.000000 0
0.000000 0.000000 0
0.000000 0.000000 0
0.000000 0.000000 0
0.000000 0.000000 0
0.000000 0.000000 0
0.000000 0.000000 0
0.000000 0.000000 0
0.000000 0.000000 0
0.000000 0.000000 0
0.000000 0.000000 0
0.225170 -0.095088 0
0.751095 -0.355806 0
1.380134 -0.707729 0
1.940964 -1.089013 0
2.380160 -1.483481 0
2.679027 -1.889332 0
2.838772 -2.324093 0
2.878053 -2.837672 0
2.824818 -3.570858 0
2.796892 -5.009700 0
1.634906 -3.000273 0
-0.000000 0.000000 0
-0.000000 0.000000 0
-0.000000 0.000000 0
-0.000000 0.000000 0
0.000000 0.000000 0
0.000000 0.000000 0
0.000000 0.000000 0
0.000000 0.000000 0
0.000000 0.000000 0
0.000000 0.000000 0
0.000000 0.000000 0
0.000000 0.000000 0
0.000000 0.000000 0
0.000000 0.000000 0
0.000000 0.000000 0
0.000000 0.000000 0
0.000000 0.000000 0
0.000000 0.000000 0
0.000000 0.000000 0
0.000000 0.000000 0
0.000000 0.000000 0
0.000000 0.000000 0
0.000000 0.000000 0
0.000000 0.000000 0
0.000000 0.000000 0
0.000000 0.000000 0
0.000000 0.000000 0
0.000000 0.000000 0
0.000000 0.000000 0
0.000000 0.000000 0
0.000000 0.000000 0
0.000000 0.000000 0
0.000000 0.000000 0
0.000000 0.000000 0
0.000000 0.000000 0
0.000000 0.000000 0
0.000000 0.000000 0
0.000000 0.000000 0
-0.000000 0.000000 0
2.077834 0.522068 0
3.746548 1.341965 0
4.738501 1.921282 0
5.378905 2.432443 0
5.724070 2.815151 0
5.801507 3.025165 0
5.623475 3.028914 0
5.175493 2.807299 0
4.417616 2.361934 0
3.271701 1.704299 0
1.281788 0.661823 0
-0.000000 0.000000 0
-0.002099 0.000000 0
0.000000 0.000000 0
0.000000 0.000000 0
0.000000 0.000000 0
0.000000 0.000000 0
0.000000 0.000000 0
0.000000 0.000000 0
0.000000 0.000000 0
0.000000 0.000000 0
0.000000 0.000000 0
0.000000 0.000000 0
0.000000 0.000000 0
0.000000 0.000000 0
0.000000 0.000000 0
0.000000 0.000000 0
0.000000 0.000000 0
0.000000 0.000000 0
0.000000 0.000000 0
0.000000 0.000000 0
0.308939 -0.109501 0
0.897294 -0.368365 0
1.541448 -0.672804 0
2.096003 -0.986256 0
2.519523 -1.304856 0
2.796914 -1.627612 0
2.926854 -1.961115 0
2.918704 -2.329109 0
2.785055 -2.783061 0
2.522237 -3.449369 0
2.017746 -4.378644 0
0.037593 -0.000001 0
-0.073621 2.449269 0
0.383971 0.000000 0
0.310142 0.000000 0
0.237467 0.000000 0
0.184997 0.000000 0
0.099231 0.000000 0
-0.006563 0.000000 0
-0.116677 0.000000 0
-0.219621 0.000000 0
-0.310088 0.000000 0
-0.385558 0.000000 0
-0.445697 0.000000 0
-0.491708 0.000000 0
-0.525681 0.000000 0
-0.550055 0.000000 0
-0.567219 0.000000 0
-0.579268 0.000000 0
-0.587890 0.000000 0
-0.594349 0.000000 0
-0.599535 0.000000 0
-0.604042 0.000000 0
-0.608249 0.000000 0
-0.612401 0.000000 0
-0.616667 0.000000 0
-0.621195 0.000000 0
-0.626153 0.000000 0
-0.631771 0.000000 0
-0.638375 0.000000 0
-0.646445 0.000000 0
-0.656683 0.000000 0
-0.670115 0.000000 0
-0.688251 0.000000 0
-0.713332 0.000000 0
-0.748739 0.000000 0
-0.799669 0.000000 0
-0.874492 0.000000 0
-0.986676 0.000000 0
-1.164976 0.000000 0
-1.451835 0.132484 0
0.000000 -0.000001 0
1.708917 0.339516 0
3.311438 1.349279 0
4.418114 2.075251 0
5.135663 2.626055 0
5.514570 2.981057 0
5.599834 3.117964 0
5.417051 3.030603 0
4.966929 2.732114 0
4.230417 2.253656 0
3.150614 1.622191 0
1.265192 0.635036 0
-0.000000 0.000000 0
-0.003809 0.000000 0
0.000000 0.000000 0
0.000000 0.000000 0
0.000000 0.000000 0
0.000000 0.000000 0
0.000000 0.000000 0
0.000000 0.000000 0
0.000000 0.000000 0
0.000000 0.000000 0
0.000000 0.000000 0
0.000000 0.000000 0
0.000000 0.000000 0
0.000000 0.000000 0
0.000000 0.000000 0
0.000000 0.000000 0
0.000000 0.000000 0
0.000000 0.000000 0
0.482558 -0.150472 0
1.207493 -0.439902 0