# vtk DataFile Version 2.0
generated by CFD-lab course output (written by Tobias Neckel) 
ASCII

DATASET STRUCTURED_GRID
DIMENSIONS  82 60 1 
POINTS 4920 float

-1.500000 -0.500000 0
-1.402439 -0.500000 0
-1.304878 -0.500000 0
-1.207317 -0.500000 0
-1.109756 -0.500000 0
-1.012195 -0.500000 0
-0.914634 -0.500000 0
-0.817073 -0.500000 0
-0.719512 -0.500000 0
-0.621951 -0.500000 0
-0.524390 -0.500000 0
-0.426829 -0.500000 0
-0.329268 -0.500000 0
-0.231707 -0.500000 0
-0.134146 -0.500000 0
-0.036585 -0.500000 0
0.060976 -0.500000 0
0.158537 -0.500000 0
0.256098 -0.500000 0
0.353659 -0.500000 0
0.451220 -0.500000 0
0.548780 -0.500000 0
0.646341 -0.500000 0
0.743902 -0.500000 0
0.841463 -0.500000 0
0.939024 -0.500000 0
1.036585 -0.500000 0
1.134146 -0.500000 0
1.231707 -0.500000 0
1.329268 -0.500000 0
1.426829 -0.500000 0
1.524390 -0.500000 0
1.621951 -0.500000 0
1.719512 -0.500000 0
1.817073 -0.500000 0
1.914634 -0.500000 0
2.012195 -0.500000 0
2.109756 -0.500000 0
2.207317 -0.500000 0
2.304878 -0.500000 0
2.402439 -0.500000 0
2.500000 -0.500000 0
2.597561 -0.500000 0
2.695122 -0.500000 0
2.792683 -0.500000 0
2.890244 -0.500000 0
2.987805 -0.500000 0
3.085366 -0.500000 0
3.182927 -0.500000 0
3.280488 -0.500000 0
3.378049 -0.500000 0
3.475610 -0.500000 0
3.573171 -0.500000 0
3.670732 -0.500000 0
3.768293 -0.500000 0
3.865854 -0.500000 0
3.963415 -0.500000 0
4.060976 -0.500000 0
4.158537 -0.500000 0
4.256098 -0.500000 0
4.353659 -0.500000 0
4.451220 -0.500000 0
4.548780 -0.500000 0
4.646341 -0.500000 0
4.743902 -0.500000 0
4.841463 -0.500000 0
4.939024 -0.500000 0
5.036585 -0.500000 0
5.134146 -0.500000 0
5.231707 -0.500000 0
5.329268 -0.500000 0
5.426829 -0.500000 0
5.524390 -0.500000 0
5.621951 -0.500000 0
5.719512 -0.500000 0
5.817073 -0.500000 0
5.914634 -0.500000 0
6.012195 -0.500000 0
6.109756 -0.500000 0
6.207317 -0.500000 0
6.304878 -0.500000 0
6.402439 -0.500000 0
-1.500000 -0.451667 0
-1.402439 -0.451667 0
-1.304878 -0.451667 0
-1.207317 -0.451667 0
-1.109756 -0.451667 0
-1.012195 -0.451667 0
-0.914634 -0.451667 0
-0.817073 -0.451667 0
-0.719512 -0.451667 0
-0.621951 -0.451667 0
-0.524390 -0.451667 0
-0.426829 -0.451667 0
-0.329268 -0.451667 0
-0.231707 -0.451667 0
-0.134146 -0.451667 0
-0.036585 -0.451667 0
0.060976 -0.451667 0
0.158537 -0.451667 0
0.256098 -0.451667 0
0.353659 -0.451667 0
0.451220 -0.451667 0
0.548780 -0.451667 0
0.646341 -0.451667 0
0.743902 -0.451667 0
0.841463 -0.451667 0
0.939024 -0.451667 0
1.036585 -0.451667 0
1.134146 -0.451667 0
1.231707 -0.451667 0
1.329268 -0.451667 0
1.426829 -0.451667 0
1.524390 -0.451667 0
1.621951 -0.451667 0
1.719512 -0.451667 0
1.817073 -0.451667 0
1.914634 -0.451667 0
2.012195 -0.451667 0
2.109756 -0.451667 0
2.207317 -0.451667 0
2.304878 -0.451667 0
2.402439 -0.451667 0
2.500000 -0.451667 0
2.597561 -0.451667 0
2.695122 -0.451667 0
2.792683 -0.451667 0
2.890244 -0.451667 0
2.987805 -0.451667 0
3.085366 -0.451667 0
3.182927 -0.451667 0
3.280488 -0.451667 0
3.378049 -0.451667 0
3.475610 -0.451667 0
3.573171 -0.451667 0
3.670732 -0.451667 0
3.768293 -0.451667 0
3.865854 -0.451667 0
3.963415 -0.451667 0
4.060976 -0.451667 0
4.158537 -0.451667 0
4.256098 -0.451667 0
4.353659 -0.451667 0
4.451220 -0.451667 0
4.548780 -0.451667 0
4.646341 -0.451667 0
4.743902 -0.451667 0
4.841463 -0.451667 0
4.939024 -0.451667 0
5.036585 -0.451667 0
5.134146 -0.451667 0
5.231707 -0.451667 0
5.329268 -0.451667 0
5.426829 -0.451667 0
5.524390 -0.451667 0
5.621951 -0.451667 0
5.719512 -0.451667 0
5.817073 -0.451667 0
5.914634 -0.451667 0
6.012195 -0.451667 0
6.109756 -0.451667 0
6.207317 -0.451667 0
6.304878 -0.451667 0
6.402439 -0.451667 0
-1.500000 -0.403333 0
-1.402439 -0.403333 0
-1.304878 -0.403333 0
-1.207317 -0.403333 0
-1.109756 -0.403333 0
-1.012195 -0.403333 0
-0.914634 -0.403333 0
-0.817073 -0.403333 0
-0.719512 -0.403333 0
-0.621951 -0.403333 0
-0.524390 -0.403333 0
-0.426829 -0.403333 0
-0.329268 -0.403333 0
-0.231707 -0.403333 0
-0.134146 -0.403333 0
-0.036585 -0.403333 0
0.060976 -0.403333 0
0.158537 -0.403333 0
0.256098 -0.403333 0
0.353659 -0.403333 0
0.451220 -0.403333 0
0.548780 -0.403333 0
0.646341 -0.403333 0
0.743902 -0.403333 0
0.841463 -0.403333 0
0.939024 -0.403333 0
1.036585 -0.403333 0
1.134146 -0.403333 0
1.231707 -0.403333 0
1.329268 -0.403333 0
1.426829 -0.403333 0
1.524390 -0.403333 0
1.621951 -0.403333 0
1.719512 -0.403333 0
1.817073 -0.403333 0
1.914634 -0.403333 0
2.012195 -0.403333 0
2.109756 -0.403333 0
2.207317 -0.403333 0
2.304878 -0.403333 0
2.402439 -0.403333 0
2.500000 -0.403333 0
2.597561 -0.403333 0
2.695122 -0.403333 0
2.792683 -0.403333 0
2.890244 -0.403333 0
2.987805 -0.403333 0
3.085366 -0.403333 0
3.182927 -0.403333 0
3.280488 -0.403333 0
3.378049 -0.403333 0
3.475610 -0.403333 0
3.573171 -0.403333 0
3.670732 -0.403333 0
3.768293 -0.403333 0
3.865854 -0.403333 0
3.963415 -0.403333 0
4.060976 -0.403333 0
4.158537 -0.403333 0
4.256098 -0.403333 0
4.353659 -0.403333 0
4.451220 -0.403333 0
4.548780 -0.403333 0
4.646341 -0.403333 0
4.743902 -0.403333 0
4.841463 -0.403333 0
4.939024 -0.403333 0
5.036585 -0.403333 0
5.134146 -0.403333 0
5.231707 -0.403333 0
5.329268 -0.403333 0
5.426829 -0.403333 0
5.524390 -0.403333 0
5.621951 -0.403333 0
5.719512 -0.403333 0
5.817073 -0.403333 0
5.914634 -0.403333 0
6.012195 -0.403333 0
6.109756 -0.403333 0
6.207317 -0.403333 0
6.304878 -0.403333 0
6.402439 -0.403333 0
-1.500000 -0.355000 0
-1.402439 -0.355000 0
-1.304878 -0.355000 0
-1.207317 -0.355000 0
-1.109756 -0.355000 0
-1.012195 -0.355000 0
-0.914634 -0.355000 0
-0.817073 -0.355000 0
-0.719512 -0.355000 0
-0.621951 -0.355000 0
-0.524390 -0.355000 0
-0.426829 -0.355000 0
-0.329268 -0.355000 0
-0.231707 -0.355000 0
-0.134146 -0.355000 0
-0.036585 -0.355000 0
0.060976 -0.355000 0
0.158537 -0.355000 0
0.256098 -0.355000 0
0.353659 -0.355000 0
0.451220 -0.355000 0
0.548780 -0.355000 0
0.646341 -0.355000 0
0.743902 -0.355000 0
0.841463 -0.355000 0
0.939024 -0.355000 0
1.036585 -0.355000 0
1.134146 -0.355000 0
1.231707 -0.355000 0
1.329268 -0.355000 0
1.426829 -0.355000 0
1.524390 -0.355000 0
1.621951 -0.355000 0
1.719512 -0.355000 0
1.817073 -0.355000 0
1.914634 -0.355000 0
2.012195 -0.355000 0
2.109756 -0.355000 0
2.207317 -0.355000 0
2.304878 -0.355000 0
2.402439 -0.355000 0
2.500000 -0.355000 0
2.597561 -0.355000 0
2.695122 -0.355000 0
2.792683 -0.355000 0
2.890244 -0.355000 0
2.987805 -0.355000 0
3.085366 -0.355000 0
3.182927 -0.355000 0
3.280488 -0.355000 0
3.378049 -0.355000 0
3.475610 -0.355000 0
3.573171 -0.355000 0
3.670732 -0.355000 0
3.768293 -0.355000 0
3.865854 -0.355000 0
3.963415 -0.355000 0
4.060976 -0.355000 0
4.158537 -0.355000 0
4.256098 -0.355000 0
4.353659 -0.355000 0
4.451220 -0.355000 0
4.548780 -0.355000 0
4.646341 -0.355000 0
4.743902 -0.355000 0
4.841463 -0.355000 0
4.939024 -0.355000 0
5.036585 -0.355000 0
5.134146 -0.355000 0
5.231707 -0.355000 0
5.329268 -0.355000 0
5.426829 -0.355000 0
5.524390 -0.355000 0
5.621951 -0.355000 0
5.719512 -0.355000 0
5.817073 -0.355000 0
5.914634 -0.355000 0
6.012195 -0.355000 0
6.109756 -0.355000 0
6.207317 -0.355000 0
6.304878 -0.355000 0
6.402439 -0.355000 0
-1.500000 -0.306667 0
-1.402439 -0.306667 0
-1.304878 -0.306667 0
-1.207317 -0.306667 0
-1.109756 -0.306667 0
-1.012195 -0.306667 0
-0.914634 -0.306667 0
-0.817073 -0.306667 0
-0.719512 -0.306667 0
-0.621951 -0.306667 0
-0.524390 -0.306667 0
-0.426829 -0.306667 0
-0.329268 -0.306667 0
-0.231707 -0.306667 0
-0.134146 -0.306667 0
-0.036585 -0.306667 0
0.060976 -0.306667 0
0.158537 -0.306667 0
0.256098 -0.306667 0
0.353659 -0.306667 0
0.451220 -0.306667 0
0.548780 -0.306667 0
0.646341 -0.306667 0
0.743902 -0.306667 0
0.841463 -0.306667 0
0.939024 -0.306667 0
1.036585 -0.306667 0
1.134146 -0.306667 0
1.231707 -0.306667 0
1.329268 -0.306667 0
1.426829 -0.306667 0
1.524390 -0.306667 0
1.621951 -0.306667 0
1.719512 -0.306667 0
1.817073 -0.306667 0
1.914634 -0.306667 0
2.012195 -0.306667 0
2.109756 -0.306667 0
2.207317 -0.306667 0
2.304878 -0.306667 0
2.402439 -0.306667 0
2.500000 -0.306667 0
2.597561 -0.306667 0
2.695122 -0.306667 0
2.792683 -0.306667 0
2.890244 -0.306667 0
2.987805 -0.306667 0
3.085366 -0.306667 0
3.182927 -0.306667 0
3.280488 -0.306667 0
3.378049 -0.306667 0
3.475610 -0.306667 0
3.573171 -0.306667 0
3.670732 -0.306667 0
3.768293 -0.306667 0
3.865854 -0.306667 0
3.963415 -0.306667 0
4.060976 -0.306667 0
4.158537 -0.306667 0
4.256098 -0.306667 0
4.353659 -0.306667 0
4.451220 -0.306667 0
4.548780 -0.306667 0
4.646341 -0.306667 0
4.743902 -0.306667 0
4.841463 -0.306667 0
4.939024 -0.306667 0
5.036585 -0.306667 0
5.134146 -0.306667 0
5.231707 -0.306667 0
5.329268 -0.306667 0
5.426829 -0.306667 0
5.524390 -0.306667 0
5.621951 -0.306667 0
5.719512 -0.306667 0
5.817073 -0.306667 0
5.914634 -0.306667 0
6.012195 -0.306667 0
6.109756 -0.306667 0
6.207317 -0.306667 0
6.304878 -0.306667 0
6.402439 -0.306667 0
-1.500000 -0.258333 0
-1.402439 -0.258333 0
-1.304878 -0.258333 0
-1.207317 -0.258333 0
-1.109756 -0.258333 0
-1.012195 -0.258333 0
-0.914634 -0.258333 0
-0.817073 -0.258333 0
-0.719512 -0.258333 0
-0.621951 -0.258333 0
-0.524390 -0.258333 0
-0.426829 -0.258333 0
-0.329268 -0.258333 0
-0.231707 -0.258333 0
-0.134146 -0.258333 0
-0.036585 -0.258333 0
0.060976 -0.258333 0
0.158537 -0.258333 0
0.256098 -0.258333 0
0.353659 -0.258333 0
0.451220 -0.258333 0
0.548780 -0.258333 0
0.646341 -0.258333 0
0.743902 -0.258333 0
0.841463 -0.258333 0
0.939024 -0.258333 0
1.036585 -0.258333 0
1.134146 -0.258333 0
1.231707 -0.258333 0
1.329268 -0.258333 0
1.426829 -0.258333 0
1.524390 -0.258333 0
1.621951 -0.258333 0
1.719512 -0.258333 0
1.817073 -0.258333 0
1.914634 -0.258333 0
2.012195 -0.258333 0
2.109756 -0.258333 0
2.207317 -0.258333 0
2.304878 -0.258333 0
2.402439 -0.258333 0
2.500000 -0.258333 0
2.597561 -0.258333 0
2.695122 -0.258333 0
2.792683 -0.258333 0
2.890244 -0.258333 0
2.987805 -0.258333 0
3.085366 -0.258333 0
3.182927 -0.258333 0
3.280488 -0.258333 0
3.378049 -0.258333 0
3.475610 -0.258333 0
3.573171 -0.258333 0
[...]
POINT_DATA 4920 

VECTORS velocity float
0.000000 0.000000 0
0.000000 0.000000 0
0.000000 0.000000 0
0.000000 0.000000 0
0.000000 0.000000 0
0.000000 0.000000 0
0.000000 0.000000 0
0.000000 0.000000 0
0.000000 0.000000 0
0.000000 0.000000 0
0.000000 0.000000 0
0.000000 0.000000 0
0.000000 0.000000 0
0.000000 0.000000 0
0.000000 0.000000 0
-0.000001 0.000000 0
-0.000002 0.000000 0
-0.000002 0.000000 0
-0.000002 0.000000 0
-0.000002 0.000000 0
-0.000002 0.000000 0
-0.000001 0.000000 0
-0.000001 0.000000 0
-0.000001 0.000000 0
-0.000001 0.000000 0
-0.000001 0.000000 0
-0.000002 0.000000 0
-0.000002 0.000000 0
-0.000002 0.000000 0
-0.000002 0.000000 0
-0.000001 0.000000 0
-0.000001 0.000000 0
-0.000001 0.000000 0
-0.000001 0.000000 0
-0.000001 0.000000 0
-0.000001 0.000000 0
-0.000001 0.000000 0
-0.000001 0.000000 0
-0.000001 0.000000 0
-0.000001 0.000000 0
-0.000001 0.000000 0
-0.000001 0.000000 0
-0.000001 0.000000 0
-0.000001 0.000000 0
-0.000001 0.000000 0
-0.000001 0.000000 0
-0.000001 0.000000 0
-0.000001 0.000000 0
-0.000001 0.000000 0
-0.000001 0.000000 0
-0.000001 0.000000 0
-0.000001 0.000000 0
-0.000002 0.000000 0
-0.000002 0.000000 0
-0.000002 0.000000 0
-0.000002 0.000000 0
0.000000 0.000000 0
0.001924 0.000000 0
0.000000 0.000000 0
0.000000 0.000000 0
0.000000 0.000000 0
0.000000 0.000000 0
0.000000 0.000000 0
0.000000 0.000000 0
0.000000 0.000000 0
0.000000 0.000000 0
0.000000 0.000000 0
0.000000 0.000000 0
0.000000 0.000000 0
0.000000 0.000000 0
0.000000 0.000000 0
0.000000 0.000000 0
0.000000 0.000000 0
0.000000 0.000000 0
0.000000 0.000000 0
0.000000 0.000000 0
0.000000 0.000000 0
0.000000 0.000000 0
0.000000 0.000000 0
0.000000 0.000000 0
0.000000 0.000000 0
0.000000 0.000000 0
0.000000 0.000000 0
0.000000 0.000000 0
0.000000 0.000000 0
0.000000 0.000000 0
0.000000 0.000000 0
0.000000 0.000000 0
0.000000 0.000000 0
0.000000 0.000000 0
0.000000 0.000000 0
0.000000 0.000000 0
0.000000 0.000000 0
0.000000 0.000000 0
0.000000 0.000000 0
0.000000 0.000000 0
1.046247 -0.422470 0
2.518002 -0.738123 0
3.779398 -0.505106 0
4.622386 -0.265389 0
5.055846 -0.070116 0
5.166806 0.061942 0
5.062892 0.139759 0
4.829355 0.177775 0
4.530341 0.186546 0
4.212752 0.175043 0
3.908899 0.151142 0
3.638575 0.121589 0
3.411219 0.091690 0
3.228414 0.065030 0
3.086556 0.043455 0
2.979311 0.027370 0
2.899528 0.016241 0
2.840459 0.009085 0
2.796375 0.004847 0
2.762751 0.002601 0
2.736199 0.001625 0
2.714286 0.001404 0
2.695319 0.001599 0
2.678145 0.001999 0
2.661971 0.002495 0
2.646223 0.003044 0
2.630426 0.003654 0
2.614110 0.004368 0
2.596716 0.005266 0
2.577515 0.006457 0
2.555508 0.008092 0
2.529303 0.010373 0
2.496963 0.013565 0
2.455798 0.018019 0
2.402106 0.024181 0
2.330835 0.032599 0
2.235223 0.043874 0
2.106443 0.058488 0
1.933648 0.076502 0
1.704417 0.096423 0
1.408920 0.115096 0
1.038297 0.130587 0
0.616443 0.068748 0
-0.000000 0.000000 0
-0.001562 0.000000 0
0.000000 0.000000 0
0.000000 0.000000 0
0.000000 0.000000 0
0.000000 0.000000 0
0.000000 0.000000 0
0.000000 0.000000 0
0.000000 0.000000 0
0.000000 0.000000 0
0.000000 0.000000 0
0.000000 0.000000 0
0.000000 0.000000 0
0.000000 0.000000 0
0.000000 0.000000 0
0.000000 0.000000 0
0.000000 0.000000 0
0.000000 0.000000 0
0.000000 0.000000 0
0.000000 0.000000 0
0.000000 0.000000 0
0.000000 0.000000 0
0.000000 0.000000 0
0.000000 0.000000 0
0.000000 0.000000 0
0.000000 0.000000 0
0.000000 0.000000 0
0.000000 0.000000 0
0.000000 0.000000 0
0.000000 0.000000 0
0.000000 0.000000 0
0.000000 0.000000 0
0.000000 0.000000 0
0.000000 0.000000 0
0.000000 0.000000 0
0.000000 0.000000 0
0.000000 0.000000 0
0.000000 0.000000 0
1.159445 -0.516921 0
2.653417 -1.245847 0
3.828195 -1.353842 0
5.002113 -1.042547 0
5.863490 -0.632374 0
6.390564 -0.269714 0
6.646725 -0.003491 0
6.706459 0.167179 0
6.637896 0.263834 0
6.490556 0.305475 0
6.300632 0.307873 0
6.094197 0.284457 0
5.889381 0.246559 0
5.697968 0.203200 0
5.526697 0.160844 0
5.378405 0.123410 0
5.253095 0.092657 0
5.148922 0.068790 0
5.063037 0.051104 0
4.992249 0.038498 0
4.933479 0.029812 0
4.884007 0.024011 0
4.841576 0.020253 0
4.804389 0.017905 0
4.771050 0.016521 0
4.740473 0.015815 0
4.711790 0.015628 0
4.684254 0.015909 0
4.657148 0.016701 0
4.629695 0.018129 0
4.600957 0.020415 0
4.569721 0.023885 0
4.534358 0.029004 0
4.492628 0.036416 0
4.441430 0.046994 0
4.376448 0.061909 0
4.291681 0.082676 0
4.178805 0.111168 0
4.026380 0.149406 0
3.818918 0.199171 0
3.536250 0.259959 0
3.154127 0.330007 0
2.646852 0.392097 0
2.014452 0.512077 0
1.050585 0.303592 0
-0.000000 0.000000 0
-0.004720 0.000000 0
0.000000 0.000000 0
0.000000 0.000000 0
0.000000 0.000000 0
0.000000 0.000000 0
0.000000 0.000000 0
0.000000 0.000000 0
0.000000 0.000000 0
0.000000 0.000000 0
0.000000 0.000000 0
0.000000 0.000000 0
0.000000 0.000000 0
0.000000 0.000000 0
0.000000 0.000000 0
0.000000 0.000000 0
0.000000 0.000000 0
0.000000 0.000000 0
0.000000 0.000000 0
0.000000 0.000000 0
0.000000 0.000000 0
0.000000 0.000000 0
0.000000 0.000000 0
0.000000 0.000000 0
0.000000 0.000000 0
0.000000 0.000000 0
0.000000 0.000000 0
0.000000 0.000000 0
0.000000 0.000000 0
0.000000 0.000000 0
0.000000 0.000000 0
0.000000 0.000000 0
0.000000 0.000000 0
0.000000 0.000000 0
0.000000 0.000000 0
0.000000 0.000000 0
0.935937 -0.582450 0
2.634223 -1.321181 0
3.461909 -1.743206 0
4.644492 -1.901706 0
5.707832 -1.513425 0
6.430930 -0.953251 0
6.855812 -0.458144 0
7.079040 -0.094558 0
7.167169 0.144133 0
7.169018 0.284737 0
7.117792 0.353633 0
7.035724 0.371405 0
6.937691 0.354883 0
6.833796 0.317888 0
6.731007 0.271370 0
6.634015 0.223347 0
6.545669 0.179001 0
6.467278 0.141060 0
6.398940 0.110399 0
6.339918 0.086703 0
6.289005 0.069032 0
6.244832 0.056226 0
6.206070 0.047155 0
6.171545 0.040849 0
6.140278 0.036539 0
6.111476 0.033664 0
6.084499 0.031853 0
6.058809 0.030896 0
6.033918 0.030724 0
6.009328 0.031397 0
5.984474 0.033104 0
5.958644 0.036169 0
5.930897 0.041087 0
5.899946 0.048566 0
5.863992 0.059603 0
5.820507 0.075576 0
5.765906 0.098370 0
5.695074 0.130514 0
5.600662 0.175308 0
5.472055 0.236782 0
5.293737 0.319320 0
5.043599 0.425771 0
4.689795 0.555719 0
4.199794 0.695201 0
3.529963 0.855822 0
2.831389 0.996639 0
1.343190 0.522866 0
-0.000000 0.000000 0
-0.005817 0.000000 0
0.000000 0.000000 0
0.000000 0.000000 0
0.000000 0.000000 0
0.000000 0.000000 0
0.000000 0.000000 0
0.000000 0.000000 0
0.000000 0.000000 0
0.000000 0.000000 0
0.000000 0.000000 0
0.000000 0.000000 0
0.000000 0.000000 0
0.000000 0.000000 0
0.000000 0.000000 0
0.000000 0.000000 0
0.000000 0.000000 0
0.000000 0.000000 0
0.000000 0.000000 0
0.000000 0.000000 0
0.000000 0.000000 0
0.000000 0.000000 0
0.000000 0.000000 0
0.000000 0.000000 0
0.000000 0.000000 0
0.000000 0.000000 0
0.000000 0.000000 0
0.000000 0.000000 0
0.000000 0.000000 0
0.000000 0.000000 0
0.000000 0.000000 0
0.000000 0.000000 0
0.000000 0.000000 0
0.000000 0.000000 0
0.738239 -0.467298 0
2.144038 -1.316698 0
3.089898 -1.776371 0
3.864335 -2.241767 0
5.207236 -2.466510 0
6.162744 -1.927579 0
6.688192 -1.201102 0
6.946013 -0.590799 0
7.064716 -0.157742 0
7.111266 0.122602 0
7.115277 0.288297 0
7.097115 0.371511 0
7.068226 0.397098 0
7.034349 0.384496 0
6.998259 0.348953 0
6.961573 0.302175 0
6.925569 0.252664 0
6.891357 0.206014 0
6.859780 0.165348 0
6.831309 0.131886 0
6.806037 0.105567 0
6.783758 0.085605 0
6.764083 0.070899 0
6.746554 0.060318 0
6.730714 0.052847 0
6.716157 0.047664 0
6.702539 0.044155 0
6.689573 0.041907 0
6.677015 0.040687 0
6.664633 0.040423 0
6.652188 0.041196 0
6.639392 0.043239 0
6.625872 0.046958 0
6.611116 0.052965 0
6.594401 0.062150 0
6.574688 0.075771 0
6.550468 0.095587 0
6.519526 0.124050 0
6.478558 0.164541 0
6.422544 0.221655 0
6.343671 0.301461 0
6.229331 0.411435 0
6.059111 0.559162 0
5.799279 0.748042 0
5.406457 0.966697 0
4.837513 1.190008 0
4.167620 1.389165 0
3.377982 1.410008 0
1.501362 0.670521 0
-0.000000 0.000000 0
-0.005281 0.000000 0
0.000000 0.000000 0
0.000000 0.000000 0
0.000000 0.000000 0
0.000000 0.000000 0
0.000000 0.000000 0
0.000000 0.000000 0
0.000000 0.000000 0
0.000000 0.000000 0
0.000000 0.000000 0
0.000000 0.000000 0
0.000000 0.000000 0
0.000000 0.000000 0
0.000000 0.000000 0
0.000000 0.000000 0
0.000000 0.000000 0
0.000000 0.000000 0
0.000000 0.000000 0
0.000000 0.000000 0
0.000000 0.000000 0
0.000000 0.000000 0
0.000000 0.000000 0
0.000000 0.000000 0
0.000000 0.000000 0
0.000000 0.000000 0
0.000000 0.000000 0
0.000000 0.000000 0
0.000000 0.000000 0
0.000000 0.000000 0
0.000000 0.000000 0
0.000000 0.000000 0
0.536045 -0.369205 0
1.698250 -1.069280 0
2.544875 -1.751120 0
3.300282 -2.173445 0
4.126081 -2.792171 0
5.618446 -3.040376 0
6.351376 -2.247115 0
6.584053 -1.341295 0
6.617537 -0.644680 0
6.605400 -0.176427 0
6.590674 0.119084 0
6.580624 0.291747 0
6.579376 0.376943 0
6.586322 0.402501 0
6.598561 0.389545 0
6.612670 0.353942 0
6.625978 0.307381 0
6.637012 0.258133 0
6.645366 0.211594 0
6.651319 0.170809 0
6.655449 0.137024 0
6.658361 0.110261 0
6.660551 0.089817 0
6.662362 0.074657 0
6.664007 0.063687 0
6.665598 0.055908 0
6.667181 0.050497 0
6.668769 0.046834 0
6.670350 0.044499 0
6.671908 0.043252 0
6.673418 0.043024 0
6.674858 0.043903 0
6.676195 0.046141 0
6.677390 0.050177 0
6.678380 0.056678 0
6.679061 0.066613 0
6.679259 0.081368 0
6.678665 0.102904 0
6.676731 0.133995 0
6.672452 0.178560 0
6.663932 0.242134 0
6.647497 0.332503 0
6.615662 0.460296 0
6.553053 0.638826 0
6.427874 0.879055 0
6.183747 1.171676 0
5.772026 1.469563 0
5.221325 1.719715 0
4.581980 1.851968 0
3.671942 1.686843 0
1.557446 0.748941 0
-0.000000 0.000000 0
-0.003998 0.000000 0
0.000000 0.000000 0
0.000000 0.000000 0
0.000000 0.000000 0
0.000000 0.000000 0
0.000000 0.000000 0
0.000000 0.000000 0
0.000000 0.000000 0
0.000000 0.000000 0
0.000000 0.000000 0
0.000000 0.000000 0
0.000000 0.000000 0
0.000000 0.000000 0
0.000000 0.000000 0
0.000000 0.000000 0
0.000000 0.000000 0
0.000000 0.000000 0
0.000000 0.000000 0
0.000000 0.000000 0
0.000000 0.000000 0
0.000000 0.000000 0
0.000000 0.000000 0
0.000000 0.000000 0
0.000000 0.000000 0
0.000000 0.000000 0
0.000000 0.000000 0
0.000000 0.000000 0
0.000000 0.000000 0
0.000000 0.000000 0
0.376357 -0.266894 0
1.297053 -0.846139 0
2.061129 -1.465975 0
2.754012 -2.110372 0
3.394541 -2.559727 0
4.280474 -3.390224 0
5.830419 -3.568958 0
6.151048 -2.405957 0
5.980920 -1.332962 0
5.742163 -0.601375 0
5.589738 -0.144434 0
5.513671 0.134877 0
5.500721 0.293894 0
5.531041 0.368688 0
5.586817 0.387593 0
5.654554 0.371443 0
5.724536 0.335371 0
5.790590 0.290115 0
5.849468 0.243058 0
5.900074 0.198927 0
5.942695 0.160353 0
5.978349 0.128397 0
6.008314 0.103040 0
6.033844 0.083622 0
6.056023 0.069187 0
6.075724 0.058715 0
6.093615 0.051275 0
6.110193 0.046093 0
6.125822 0.042585 0
6.140775 0.040352 0
6.155271 0.039167 0
6.169501 0.038961 0
6.183667 0.039820 0
6.198003 0.041985 0
6.212807 0.045875 0
6.228479 0.052137 0
6.245552 0.061715 0
6.264747 0.075967 0
6.287015 0.096839 0
6.313590 0.127129 0
6.345990 0.170882 0
6.385895 0.234018 0
6.434691 0.325375 0
6.491901 0.458224 0
6.550793 0.652196 0
6.586738 0.931002 0
6.525953 1.291616 0
6.296513 1.666808 0
5.921682 1.978733 0
5.433604 2.177598 0
4.794854 2.179286 0
3.770621 1.833414 0
1.544312 0.775496 0
-0.000001 0.000000 0
-0.002652 0.000000 0
0.000000 0.000000 0
0.000000 0.000000 0
0.000000 0.000000 0
0.000000 0.000000 0
0.000000 0.000000 0
0.000000 0.000000 0
0.000000 0.000000 0
0.000000 0.000000 0
0.000000 0.000000 0
0.000000 0.000000 0
0.000000 0.000000 0
0.000000 0.000000 0
0.000000 0.000000 0
0.000000 0.000000 0
0.000000 0.000000 0
0.000000 0.000000 0
0.000000 0.000000 0
0.000000 0.000000 0
0.000000 0.000000 0
0.000000 0.000000 0
0.000000 0.000000 0
0.000000 0.000000 0
0.000000 0.000000 0
0.000000 0.000000 0
0.000000 0.000000 0
0.000000 0.000000 0
0.267877 -0.186400 0
0.995675 -0.643856 0
1.702175 -1.205197 0
2.319603 -1.791082 0
2.880344 -2.411714 0
3.395449 -2.929679 0
4.284036 -3.998945 0
5.743464 -3.967090 0
5.400965 -2.321675 0
4.737728 -1.138726 0
4.209019 -0.450882 0
3.920000 -0.063228 0
3.816295 0.163185 0
3.847766 0.283142 0
3.953748 0.334289 0
4.093731 0.341311 0
4.243653 0.321317 0
4.388913 0.286548 0
4.521546 0.245488 0
4.638025 0.203893 0
4.737700 0.165408 0
4.821663 0.132030 0
4.891896 0.104516 0
4.950693 0.082768 0
5.000291 0.066181 0
5.042681 0.053909 0
5.079528 0.045063 0
5.112174 0.038831 0
5.141668 0.034541 0
5.168824 0.031683 0
5.194279 0.029909 0
5.218558 0.029021 0
5.242127 0.028956 0
5.265454 0.029782 0
5.289068 0.031705 0
5.313624 0.035079 0
5.339984 0.040455 0
5.369311 0.048646 0
5.403200 0.060827 0
5.443842 0.078706 0
5.494238 0.104778 0
5.558468 0.142739 0
5.641977 0.198190 0
5.751772 0.279986 0
5.896138 0.402777 0
6.080844 0.591842 0
6.300315 0.891361 0
6.455034 1.315458 0
6.419533 1.768929 0
6.247613 2.147214 0
5.948646 2.410217 0
5.511282 2.510713 0
4.843632 2.368722 0
3.732561 1.879883 0
1.489003 0.767524 0
-0.000001 0.000000 0
-0.001645 0.000000 0
0.000000 0.000000 0
0.000000 0.000000 0
0.000000 0.000000 0
0.000000 0.000000 0
0.000000 0.000000 0
0.000000 0.000000 0
0.000000 0.000000 0
0.000000 0.000000 0
0.000000 0.000000 0
0.000000 0.000000 0
0.000000 0.000000 0
0.000000 0.000000 0
0.000000 0.000000 0
0.000000 0.000000 0
0.000000 0.000000 0
0.000000 0.000000 0
0.000000 0.000000 0
0.000000 0.000000 0
0.000000 0.000000 0
0.000000 0.000000 0
0.000000 0.000000 0
0.000000 0.000000 0
0.000000 0.000000 0
0.000000 0.000000 0
0.209167 -0.131817 0
0.805251 -0.492326 0
1.468302 -0.977415 0
2.052584 -1.502035 0
2.535100 -2.049660 0
2.939040 -2.643364 0
3.297955 -3.255139 0
4.068376 -4.553470 0
5.218668 -4.122304 0
3.916269 -1.907698 0
2.774706 -0.742453 0
2.001523 -0.196259 0
1.718272 0.050129 0
1.748962 0.170663 0
1.909546 0.225797 0
2.128936 0.246833 0
2.368333 0.243970 0
2.604713 0.225205 0
2.823416 0.197698 0
3.017121 0.166701 0
3.183307 0.135972 0
3.322537 0.107950 0
3.437224 0.083962 0
3.530724 0.064473 0
3.606680 0.049339 0
3.668599 0.038050 0
3.719606 0.029932 0
3.762335 0.024287 0
3.798915 0.020490 0
3.831013 0.018028 0
3.859911 0.016521 0
3.886596 0.015713 0
3.911857 0.015462 0
3.936376 0.015729 0
3.960816 0.016565 0
3.985917 0.018120 0
4.012593 0.020651 0
4.042053 0.024549 0
4.075949 0.030397 0
4.116580 0.039043 0
4.167166 0.051738 0
4.232238 0.070341 0
4.318181 0.097690 0
4.434033 0.138252 0
4.592491 0.199459 0
4.812203 0.295196 0
5.115048 0.451960 0
5.541715 0.745622 0
5.973573 1.232553 0
6.148239 1.769568 0
6.204865 2.212019 0
6.128669 2.542389 0
5.900582 2.726728 0
5.480033 2.714622 0
4.770852 2.444478 0
3.608747 1.857444 0
1.414217 0.738905 0
-0.000000 0.000000 0
-0.001165 0.000000 0
0.000000 0.000000 0
0.000000 0.000000 0
0.000000 0.000000 0
0.000000 0.000000 0
0.000000 0.000000 0
0.000000 0.000000 0
0.000000 0.000000 0
0.000000 0.000000 0
0.000000 0.000000 0
0.000000 0.000000 0
0.000000 0.000000 0
0.000000 0.000000 0
0.000000 0.000000 0
0.000000 0.000000 0
0.000000 0.000000 0
0.000000 0.000000 0
0.000000 0.000000 0
0.000000 0.000000 0
0.000000 0.000000 0
0.000000 0.000000 0
0.000000 0.000000 0
0.000000 0.000000 0
0.195269 -0.102260 0
0.724185 -0.396677 0
1.360285 -0.809302 0
1.928325 -1.261806 0
2.381431 -1.733707 0
2.709638 -2.230247 0
2.934814 -2.789645 0
3.101153 -3.489171 0
3.571210 -4.950499 0
4.020709 -3.891734 0
1.556376 -1.110896 0
0.420848 -0.190129 0
0.057733 0.072493 0
0.024700 0.061895 0
0.158918 0.068424 0
0.369183 0.094896 0
0.614690 0.106998 0
0.867417 0.105603 0
1.107143 0.095861 0
1.321993 0.082234 0
1.506196 0.067192 0
1.658480 0.052585 0
1.780656 0.039613 0
1.876377 0.028891 0
1.950135 0.020564 0
2.006517 0.014463 0
2.049725 0.010236 0
2.083321 0.007471 0
2.110142 0.005772 0
2.132345 0.004807 0
2.151501 0.004323 0
2.168734 0.004146 0
2.184849 0.004174 0
2.200451 0.004359 0
2.216059 0.004701 0
2.232199 0.005239 0
2.249496 0.006053 0
2.268775 0.007268 0
2.291179 0.009068 0
2.318327 0.011724 0
2.352535 0.015637 0
2.397136 0.021407 0
2.456968 0.029963 0
2.539120 0.042767 0
2.654155 0.062292 0
2.818183 0.092635 0
3.056765 0.143894 0
3.414037 0.230430 0
3.969047 0.466033 0
4.891296 1.014976 0
5.374228 1.654343 0
5.752922 2.156909 0
5.962874 2.560964 0
5.981417 2.832058 0
5.794011 2.928410 0
5.363737 2.806950 0
4.619480 2.434979 0
3.445380 1.792770 0
1.341291 0.701041 0
-0.000000 0.000000 0
-0.001333 0.000000 0
0.000000 0.000000 0
0.000000 0.000000 0
0.000000 0.000000 0
0.000000 0.000000 0
0.000000 0.000000 0
0.000000 0.000000 0
0.000000 0.000000 0
0.000000 0.000000 0
0.000000 0.000000 0
0.000000 0.000000 0
0.000000 0.000000 0
0.000000 0.000000 0
0.000000 0.000000 0
0.000000 0.000000 0
0.000000 0.000000 0
0.000000 0.000000 0
0.000000 0.000000 0
0.000000 0.000000 0
0.000000 0.000000 0
0.000000 0.000000 0
0.225102 -0.095049 0
0.750939 -0.355718 0
1.379959 -0.707621 0
1.940766 -1.088878 0
2.379932 -1.483308 0
2.678768 -1.889110 0
2.838483 -2.323815 0
2.877739 -2.837326 0
2.824483 -3.570420 0
2.796507 -5.009033 0
1.634628 -2.999854 0
0.000001 0.000000 0
0.000002 0.000000 0
0.000002 0.000000 0
0.000002 0.000000 0
0.000001 0.000000 0
0.000000 0.000000 0
-0.000001 0.000000 0
-0.000001 0.000000 0
-0.000001 0.000000 0
-0.000001 0.000000 0
-0.000001 0.000000 0
-0.000001 0.000000 0
-0.000001 0.000000 0
-0.000001 0.000000 0
-0.000001 0.000000 0
-0.000001 0.000000 0
-0.000001 0.000000 0
-0.000001 0.000000 0
-0.000001 0.000000 0
-0.000001 0.000000 0
-0.000001 0.000000 0
-0.000001 0.000000 0
-0.000001 0.000000 0
-0.000001 0.000000 0
-0.000001 0.000000 0
-0.000001 0.000000 0
-0.000001 0.000000 0
-0.000001 0.000000 0
-0.000001 0.000000 0
-0.000001 0.000000 0
-0.000001 0.000000 0
-0.000001 0.000000 0
-0.000001 0.000000 0
-0.000001 0.000000 0
-0.000001 0.000000 0
-0.000000 0.000000 0
0.000000 0.000000 0
0.000001 0.000000 0
0.000003 0.000000 0
2.077529 0.522639 0
3.744324 1.342704 0
4.734413 1.920394 0
5.375142 2.429189 0
5.722821 2.810386 0
5.803967 3.020631 0
5.629887 3.026360 0
5.185392 2.807830 0
4.429802 2.365517 0
3.283836 1.709445 0
1.287489 0.664502 0
-0.000000 0.000000 0
-0.002168 0.000000 0
0.000000 0.000000 0
0.000000 0.000000 0
0.000000 0.000000 0
0.000000 0.000000 0
0.000000 0.000000 0
0.000000 0.000000 0
0.000000 0.000000 0
0.000000 0.000000 0
0.000000 0.000000 0
0.000000 0.000000 0
0.000000 0.000000 0
0.000000 0.000000 0
0.000000 0.000000 0
0.000000 0.000000 0
0.000000 0.000000 0
0.000000 0.000000 0
0.000000 0.000000 0
0.000000 0.000000 0
0.308878 -0.109467 0
0.897152 -0.368285 0
1.541283 -0.672705 0
2.095816 -0.986137 0
2.519310 -1.304706 0
2.796671 -1.627424 0
2.926585 -1.960880 0
2.918417 -2.328821 0
2.784760 -2.782710 0
2.521947 -3.448927 0
2.017479 -4.378046 0
0.037578 0.000002 0
-0.073451 2.448922 0
0.384095 0.000000 0
0.310326 0.000000 0
0.237767 0.000000 0
0.185390 0.000000 0
0.099650 0.000000 0
-0.006161 0.000000 0
-0.116328 0.000000 0
-0.219321 0.000000 0
-0.309823 0.000000 0
-0.385310 0.000000 0
-0.445451 0.000000 0
-0.491452 0.000000 0
-0.525410 0.000000 0
-0.549768 0.000000 0
-0.566919 0.000000 0
-0.578961 0.000000 0
-0.587580 0.000000 0
-0.594041 0.000000 0
-0.599232 0.000000 0
-0.603745 0.000000 0
-0.607958 0.000000 0
-0.612114 0.000000 0
-0.616383 0.000000 0
-0.620912 0.000000 0
-0.625871 0.000000 0
-0.631487 0.000000 0
-0.638089 0.000000 0
-0.646157 0.000000 0
-0.656392 0.000000 0
-0.669822 0.000000 0
-0.687955 0.000000 0
-0.713032 0.000000 0
-0.748434 0.000000 0
-0.799358 0.000000 0
-0.874171 0.000000 0
-0.986341 0.000000 0
-1.164620 0.000000 0
-1.451461 0.131330 0
0.000000 -0.000000 0
1.706744 0.341457 0
3.305544 1.348975 0
4.412139 2.071290 0
5.132655 2.619611 0
5.516018 2.974451 0
5.605949 3.113402 0
5.427277 3.029521 0
4.980144 2.734833 0
4.244831 2.259190 0
3.163494 1.628312 0
1.270564 0.637893 0
-0.000000 0.000000 0
-0.003883 0.000000 0
0.000000 0.000000 0
0.000000 0.000000 0
0.000000 0.000000 0
0.000000 0.000000 0
0.000000 0.000000 0
0.000000 0.000000 0
0.000000 0.000000 0
0.000000 0.000000 0
0.000000 0.000000 0
0.000000 0.000000 0
0.000000 0.000000 0
0.000000 0.000000 0
0.000000 0.000000 0
0.000000 0.000000 0
0.000000 0.000000 0