# vtk DataFile Version 2.0
generated by CFD-lab course output (written by Tobias Neckel) 
ASCII

DATASET STRUCTURED_GRID
DIMENSIONS  82 60 1 
POINTS 4920 float

-1.500000 -0.500000 0
-1.402439 -0.500000 0
-1.304878 -0.500000 0
-1.207317 -0.500000 0
-1.109756 -0.500000 0
-1.012195 -0.500000 0
-0.914634 -0.500000 0
-0.817073 -0.500000 0
-0.719512 -0.500000 0
-0.621951 -0.500000 0
-0.524390 -0.500000 0
-0.426829 -0.500000 0
-0.329268 -0.500000 0
-0.231707 -0.500000 0
-0.134146 -0.500000 0
-0.036585 -0.500000 0
0.060976 -0.500000 0
0.158537 -0.500000 0
0.256098 -0.500000 0
0.353659 -0.500000 0
0.451220 -0.500000 0
0.548780 -0.500000 0
0.646341 -0.500000 0
0.743902 -0.500000 0
0.841463 -0.500000 0
0.939024 -0.500000 0
1.036585 -0.500000 0
1.134146 -0.500000 0
1.231707 -0.500000 0
1.329268 -0.500000 0
1.426829 -0.500000 0
1.524390 -0.500000 0
1.621951 -0.500000 0
1.719512 -0.500000 0
1.817073 -0.500000 0
1.914634 -0.500000 0
2.012195 -0.500000 0
2.109756 -0.500000 0
2.207317 -0.500000 0
2.304878 -0.500000 0
2.402439 -0.500000 0
2.500000 -0.500000 0
2.597561 -0.500000 0
2.695122 -0.500000 0
2.792683 -0.500000 0
2.890244 -0.500000 0
2.987805 -0.500000 0
3.085366 -0.500000 0
3.182927 -0.500000 0
3.280488 -0.500000 0
3.378049 -0.500000 0
3.475610 -0.500000 0
3.573171 -0.500000 0
3.670732 -0.500000 0
3.768293 -0.500000 0
3.865854 -0.500000 0
3.963415 -0.500000 0
4.060976 -0.500000 0
4.158537 -0.500000 0
4.256098 -0.500000 0
4.353659 -0.500000 0
4.451220 -0.500000 0
4.548780 -0.500000 0
4.646341 -0.500000 0
4.743902 -0.500000 0
4.841463 -0.500000 0
4.939024 -0.500000 0
5.036585 -0.500000 0
5.134146 -0.500000 0
5.231707 -0.500000 0
5.329268 -0.500000 0
5.426829 -0.500000 0
5.524390 -0.500000 0
5.621951 -0.500000 0
5.719512 -0.500000 0
5.817073 -0.500000 0
5.914634 -0.500000 0
6.012195 -0.500000 0
6.109756 -0.500000 0
6.207317 -0.500000 0
6.304878 -0.500000 0
6.402439 -0.500000 0
-1.500000 -0.451667 0
-1.402439 -0.451667 0
-1.304878 -0.451667 0
-1.207317 -0.451667 0
-1.109756 -0.451667 0
-1.012195 -0.451667 0
-0.914634 -0.451667 0
-0.817073 -0.451667 0
-0.719512 -0.451667 0
-0.621951 -0.451667 0
-0.524390 -0.451667 0
-0.426829 -0.451667 0
-0.329268 -0.451667 0
-0.231707 -0.451667 0
-0.134146 -0.451667 0
-0.036585 -0.451667 0
0.060976 -0.451667 0
0.158537 -0.451667 0
0.256098 -0.451667 0
0.353659 -0.451667 0
0.451220 -0.451667 0
0.548780 -0.451667 0
0.646341 -0.451667 0
0.743902 -0.451667 0
0.841463 -0.451667 0
0.939024 -0.451667 0
1.036585 -0.451667 0
1.134146 -0.451667 0
1.231707 -0.451667 0
1.329268 -0.451667 0
1.426829 -0.451667 0
1.524390 -0.451667 0
1.621951 -0.451667 0
1.719512 -0.451667 0
1.817073 -0.451667 0
1.914634 -0.451667 0
2.012195 -0.451667 0
2.109756 -0.451667 0
2.207317 -0.451667 0
2.304878 -0.451667 0
2.402439 -0.451667 0
2.500000 -0.451667 0
2.597561 -0.451667 0
2.695122 -0.451667 0
2.792683 -0.451667 0
2.890244 -0.451667 0
2.987805 -0.451667 0
3.085366 -0.451667 0
3.182927 -0.451667 0
3.280488 -0.451667 0
3.378049 -0.451667 0
3.475610 -0.451667 0
3.573171 -0.451667 0
3.670732 -0.451667 0
3.768293 -0.451667 0
3.865854 -0.451667 0
3.963415 -0.451667 0
4.060976 -0.451667 0
4.158537 -0.451667 0
4.256098 -0.451667 0
4.353659 -0.451667 0
4.451220 -0.451667 0
4.548780 -0.451667 0
4.646341 -0.451667 0
4.743902 -0.451667 0
4.841463 -0.451667 0
4.939024 -0.451667 0
5.036585 -0.451667 0
5.134146 -0.451667 0
5.231707 -0.451667 0
5.329268 -0.451667 0
5.426829 -0.451667 0
5.524390 -0.451667 0
5.621951 -0.451667 0
5.719512 -0.451667 0
5.817073 -0.451667 0
5.914634 -0.451667 0
6.012195 -0.451667 0
6.109756 -0.451667 0
6.207317 -0.451667 0
6.304878 -0.451667 0
6.402439 -0.451667 0
-1.500000 -0.403333 0
-1.402439 -0.403333 0
-1.304878 -0.403333 0
-1.207317 -0.403333 0
-1.109756 -0.403333 0
-1.012195 -0.403333 0
-0.914634 -0.403333 0
-0.817073 -0.403333 0
-0.719512 -0.403333 0
-0.621951 -0.403333 0
-0.524390 -0.403333 0
-0.426829 -0.403333 0
-0.329268 -0.403333 0
-0.231707 -0.403333 0
-0.134146 -0.403333 0
-0.036585 -0.403333 0
0.060976 -0.403333 0
0.158537 -0.403333 0
0.256098 -0.403333 0
0.353659 -0.403333 0
0.451220 -0.403333 0
0.548780 -0.403333 0
0.646341 -0.403333 0
0.743902 -0.403333 0
0.841463 -0.403333 0
0.939024 -0.403333 0
1.036585 -0.403333 0
1.134146 -0.403333 0
1.231707 -0.403333 0
1.329268 -0.403333 0
1.426829 -0.403333 0
1.524390 -0.403333 0
1.621951 -0.403333 0
1.719512 -0.403333 0
1.817073 -0.403333 0
1.914634 -0.403333 0
2.012195 -0.403333 0
2.109756 -0.403333 0
2.207317 -0.403333 0
2.304878 -0.403333 0
2.402439 -0.403333 0
2.500000 -0.403333 0
2.597561 -0.403333 0
2.695122 -0.403333 0
2.792683 -0.403333 0
2.890244 -0.403333 0
2.987805 -0.403333 0
3.085366 -0.403333 0
3.182927 -0.403333 0
3.280488 -0.403333 0
3.378049 -0.403333 0
3.475610 -0.403333 0
3.573171 -0.403333 0
3.670732 -0.403333 0
3.768293 -0.403333 0
3.865854 -0.403333 0
3.963415 -0.403333 0
4.060976 -0.403333 0
4.158537 -0.403333 0
4.256098 -0.403333 0
4.353659 -0.403333 0
4.451220 -0.403333 0
4.548780 -0.403333 0
4.646341 -0.403333 0
4.743902 -0.403333 0
4.841463 -0.403333 0
4.939024 -0.403333 0
5.036585 -0.403333 0
5.134146 -0.403333 0
5.231707 -0.403333 0
5.329268 -0.403333 0
5.426829 -0.403333 0
5.524390 -0.403333 0
5.621951 -0.403333 0
5.719512 -0.403333 0
5.817073 -0.403333 0
5.914634 -0.403333 0
6.012195 -0.403333 0
6.109756 -0.403333 0
6.207317 -0.403333 0
6.304878 -0.403333 0
6.402439 -0.403333 0
-1.500000 -0.355000 0
-1.402439 -0.355000 0
-1.304878 -0.355000 0
-1.207317 -0.355000 0
-1.109756 -0.355000 0
-1.012195 -0.355000 0
-0.914634 -0.355000 0
-0.817073 -0.355000 0
-0.719512 -0.355000 0
-0.621951 -0.355000 0
-0.524390 -0.355000 0
-0.426829 -0.355000 0
-0.329268 -0.355000 0
-0.231707 -0.355000 0
-0.134146 -0.355000 0
-0.036585 -0.355000 0
0.060976 -0.355000 0
0.158537 -0.355000 0
0.256098 -0.355000 0
0.353659 -0.355000 0
0.451220 -0.355000 0
0.548780 -0.355000 0
0.646341 -0.355000 0
0.743902 -0.355000 0
0.841463 -0.355000 0
0.939024 -0.355000 0
1.036585 -0.355000 0
1.134146 -0.355000 0
1.231707 -0.355000 0
1.329268 -0.355000 0
1.426829 -0.355000 0
1.524390 -0.355000 0
1.621951 -0.355000 0
1.719512 -0.355000 0
1.817073 -0.355000 0
1.914634 -0.355000 0
2.012195 -0.355000 0
2.109756 -0.355000 0
2.207317 -0.355000 0
2.304878 -0.355000 0
2.402439 -0.355000 0
2.500000 -0.355000 0
2.597561 -0.355000 0
2.695122 -0.355000 0
2.792683 -0.355000 0
2.890244 -0.355000 0
2.987805 -0.355000 0
3.085366 -0.355000 0
3.182927 -0.355000 0
3.280488 -0.355000 0
3.378049 -0.355000 0
3.475610 -0.355000 0
3.573171 -0.355000 0
3.670732 -0.355000 0
3.768293 -0.355000 0
3.865854 -0.355000 0
3.963415 -0.355000 0
4.060976 -0.355000 0
4.158537 -0.355000 0
4.256098 -0.355000 0
4.353659 -0.355000 0
4.451220 -0.355000 0
4.548780 -0.355000 0
4.646341 -0.355000 0
4.743902 -0.355000 0
4.841463 -0.355000 0
4.939024 -0.355000 0
5.036585 -0.355000 0
5.134146 -0.355000 0
5.231707 -0.355000 0
5.329268 -0.355000 0
5.426829 -0.355000 0
5.524390 -0.355000 0
5.621951 -0.355000 0
5.719512 -0.355000 0
5.817073 -0.355000 0
5.914634 -0.355000 0
6.012195 -0.355000 0
6.109756 -0.355000 0
6.207317 -0.355000 0
6.304878 -0.355000 0
6.402439 -0.355000 0
-1.500000 -0.306667 0
-1.402439 -0.306667 0
-1.304878 -0.306667 0
-1.207317 -0.306667 0
-1.109756 -0.306667 0
-1.012195 -0.306667 0
-0.914634 -0.306667 0
-0.817073 -0.306667 0
-0.719512 -0.306667 0
-0.621951 -0.306667 0
-0.524390 -0.306667 0
-0.426829 -0.306667 0
-0.329268 -0.306667 0
-0.231707 -0.306667 0
-0.134146 -0.306667 0
-0.036585 -0.306667 0
0.060976 -0.306667 0
0.158537 -0.306667 0
0.256098 -0.306667 0
0.353659 -0.306667 0
0.451220 -0.306667 0
0.548780 -0.306667 0
0.646341 -0.306667 0
0.743902 -0.306667 0
0.841463 -0.306667 0
0.939024 -0.306667 0
1.036585 -0.306667 0
1.134146 -0.306667 0
1.231707 -0.306667 0
1.329268 -0.306667 0
1.426829 -0.306667 0
1.524390 -0.306667 0
1.621951 -0.306667 0
1.719512 -0.306667 0
1.817073 -0.306667 0
1.914634 -0.306667 0
2.012195 -0.306667 0
2.109756 -0.306667 0
2.207317 -0.306667 0
2.304878 -0.306667 0
2.402439 -0.306667 0
2.500000 -0.306667 0
2.597561 -0.306667 0
2.695122 -0.306667 0
2.792683 -0.306667 0
2.890244 -0.306667 0
2.987805 -0.306667 0
3.085366 -0.306667 0
3.182927 -0.306667 0
3.280488 -0.306667 0
3.378049 -0.306667 0
3.475610 -0.306667 0
3.573171 -0.306667 0
3.670732 -0.306667 0
3.768293 -0.306667 0
3.865854 -0.306667 0
3.963415 -0.306667 0
4.060976 -0.306667 0
4.158537 -0.306667 0
4.256098 -0.306667 0
4.353659 -0.306667 0
4.451220 -0.306667 0
4.548780 -0.306667 0
4.646341 -0.306667 0
4.743902 -0.306667 0
4.841463 -0.306667 0
4.939024 -0.306667 0
5.036585 -0.306667 0
5.134146 -0.306667 0
5.231707 -0.306667 0
5.329268 -0.306667 0
5.426829 -0.306667 0
5.524390 -0.306667 0
5.621951 -0.306667 0
5.719512 -0.306667 0
5.817073 -0.306667 0
5.914634 -0.306667 0
6.012195 -0.306667 0
6.109756 -0.306667 0
6.207317 -0.306667 0
6.304878 -0.306667 0
6.402439 -0.306667 0
-1.500000 -0.258333 0
-1.402439 -0.258333 0
-1.304878 -0.258333 0
-1.207317 -0.258333 0
-1.109756 -0.258333 0
-1.012195 -0.258333 0
-0.914634 -0.258333 0
-0.817073 -0.258333 0
-0.719512 -0.258333 0
-0.621951 -0.258333 0
-0.524390 -0.258333 0
-0.426829 -0.258333 0
-0.329268 -0.258333 0
-0.231707 -0.258333 0
-0.134146 -0.258333 0
-0.036585 -0.258333 0
0.060976 -0.258333 0
0.158537 -0.258333 0
0.256098 -0.258333 0
0.353659 -0.258333 0
0.451220 -0.258333 0
0.548780 -0.258333 0
0.646341 -0.258333 0
0.743902 -0.258333 0
0.841463 -0.258333 0
0.939024 -0.258333 0
1.036585 -0.258333 0
1.134146 -0.258333 0
1.231707 -0.258333 0
1.329268 -0.258333 0
1.426829 -0.258333 0
1.524390 -0.258333 0
1.621951 -0.258333 0
1.719512 -0.258333 0
1.817073 -0.258333 0
1.914634 -0.258333 0
2.012195 -0.258333 0
2.109756 -0.258333 0
2.207317 -0.258333 0
2.304878 -0.258333 0
2.402439 -0.258333 0
2.500000 -0.258333 0
2.597561 -0.258333 0
2.695122 -0.258333 0
2.792683 -0.258333 0
2.890244 -0.258333 0
2.987805 -0.258333 0
3.085366 -0.258333 0
3.182927 -0.258333 0
3.280488 -0.258333 0
3.378049 -0.258333 0
3.475610 -0.258333 0
3.573171 -0.258333 0
[...]
POINT_DATA 4920 

VECTORS velocity float
0.000000 0.000000 0
0.000000 0.000000 0
0.000000 0.000000 0
0.000000 0.000000 0
0.000000 0.000000 0
0.000000 0.000000 0
0.000000 0.000000 0
0.000000 0.000000 0
0.000000 0.000000 0
0.000000 0.000000 0
0.000000 0.000000 0
0.000000 0.000000 0
0.000000 0.000000 0
0.000000 0.000000 0
0.000000 0.000000 0
0.000004 0.000000 0
0.000007 0.000000 0
0.000008 0.000000 0
0.000008 0.000000 0
0.000008 0.000000 0
0.000007 0.000000 0
0.000006 0.000000 0
0.000006 0.000000 0
0.000006 0.000000 0
0.000006 0.000000 0
0.000007 0.000000 0
0.000007 0.000000 0
0.000007 0.000000 0
0.000007 0.000000 0
0.000007 0.000000 0
0.000006 0.000000 0
0.000006 0.000000 0
0.000005 0.000000 0
0.000005 0.000000 0
0.000005 0.000000 0
0.000004 0.000000 0
0.000004 0.000000 0
0.000005 0.000000 0
0.000005 0.000000 0
0.000005 0.000000 0
0.000005 0.000000 0
0.000005 0.000000 0
0.000005 0.000000 0
0.000005 0.000000 0
0.000005 0.000000 0
0.000005 0.000000 0
0.000005 0.000000 0
0.000005 0.000000 0
0.000005 0.000000 0
0.000006 0.000000 0
0.000006 0.000000 0
0.000006 0.000000 0
0.000007 0.000000 0
0.000007 0.000000 0
0.000008 0.000000 0
0.000008 0.000000 0
-0.000000 0.000000 0
0.001894 0.000000 0
0.000000 0.000000 0
0.000000 0.000000 0
0.000000 0.000000 0
0.000000 0.000000 0
0.000000 0.000000 0
0.000000 0.000000 0
0.000000 0.000000 0
0.000000 0.000000 0
0.000000 0.000000 0
0.000000 0.000000 0
0.000000 0.000000 0
0.000000 0.000000 0
0.000000 0.000000 0
0.000000 0.000000 0
0.000000 0.000000 0
0.000000 0.000000 0
0.000000 0.000000 0
0.000000 0.000000 0
0.000000 0.000000 0
0.000000 0.000000 0
0.000000 0.000000 0
0.000000 0.000000 0
0.000000 0.000000 0
0.000000 0.000000 0
0.000000 0.000000 0
0.000000 0.000000 0
0.000000 0.000000 0
0.000000 0.000000 0
0.000000 0.000000 0
0.000000 0.000000 0
0.000000 0.000000 0
0.000000 0.000000 0
0.000000 0.000000 0
0.000000 0.000000 0
0.000000 0.000000 0
0.000000 0.000000 0
0.000000 0.000000 0
0.000000 0.000000 0
1.046760 -0.422677 0
2.519029 -0.738411 0
3.780659 -0.505200 0
4.623673 -0.265395 0
5.057076 -0.070111 0
5.168027 0.061909 0
5.064216 0.139669 0
4.830905 0.177642 0
4.532194 0.186402 0
4.214909 0.174925 0
3.911287 0.151079 0
3.641077 0.121587 0
3.413712 0.091738 0
3.230800 0.065104 0
3.088780 0.043531 0
2.981362 0.027433 0
2.901430 0.016281 0
2.842254 0.009103 0
2.798114 0.004846 0
2.764481 0.002586 0
2.737957 0.001603 0
2.716095 0.001380 0
2.697190 0.001577 0
2.680077 0.001982 0
2.663955 0.002484 0
2.648244 0.003039 0
2.632468 0.003654 0
2.616157 0.004373 0
2.598756 0.005273 0
2.579540 0.006465 0
2.557512 0.008101 0
2.531284 0.010382 0
2.498919 0.013574 0
2.457728 0.018028 0
2.404006 0.024193 0
2.332700 0.032613 0
2.237042 0.043893 0
2.108200 0.058512 0
1.935322 0.076532 0
1.705978 0.096461 0
1.410317 0.115171 0
1.039425 0.130960 0
0.616882 0.069067 0
0.000000 0.000000 0
-0.001596 0.000000 0
0.000000 0.000000 0
0.000000 0.000000 0
0.000000 0.000000 0
0.000000 0.000000 0
0.000000 0.000000 0
0.000000 0.000000 0
0.000000 0.000000 0
0.000000 0.000000 0
0.000000 0.000000 0
0.000000 0.000000 0
0.000000 0.000000 0
0.000000 0.000000 0
0.000000 0.000000 0
0.000000 0.000000 0
0.000000 0.000000 0
0.000000 0.000000 0
0.000000 0.000000 0
0.000000 0.000000 0
0.000000 0.000000 0
0.000000 0.000000 0
0.000000 0.000000 0
0.000000 0.000000 0
0.000000 0.000000 0
0.000000 0.000000 0
0.000000 0.000000 0
0.000000 0.000000 0
0.000000 0.000000 0
0.000000 0.000000 0
0.000000 0.000000 0
0.000000 0.000000 0
0.000000 0.000000 0
0.000000 0.000000 0
0.000000 0.000000 0
0.000000 0.000000 0
0.000000 0.000000 0
0.000000 0.000000 0
1.159996 -0.517182 0
2.654547 -1.246360 0
3.829484 -1.354210 0
5.003518 -1.042676 0
5.864869 -0.632358 0
6.391832 -0.269682 0
6.647917 -0.003537 0
6.707686 0.167016 0
6.639286 0.263573 0
6.492202 0.305175 0
6.302566 0.307607 0
6.096384 0.284286 0
5.891735 0.246507 0
5.700383 0.203258 0
5.529069 0.160977 0
5.380656 0.123576 0
5.255182 0.092816 0
5.150839 0.068916 0
5.064810 0.051184 0
4.993923 0.038530 0
4.935105 0.029803 0
4.885633 0.023971 0
4.843239 0.020196 0
4.806112 0.017844 0
4.772842 0.016465 0
4.742332 0.015771 0
4.713704 0.015599 0
4.686207 0.015896 0
4.659122 0.016701 0
4.631674 0.018141 0
4.602927 0.020433 0
4.571674 0.023907 0
4.536286 0.029028 0
4.494529 0.036441 0
4.443298 0.047021 0
4.378279 0.061941 0
4.293466 0.082717 0
4.180531 0.111221 0
4.028022 0.149477 0
3.820442 0.199267 0
3.537608 0.260096 0
3.155234 0.330222 0
2.647614 0.392572 0
2.015115 0.512652 0
1.050539 0.303826 0
0.000000 0.000000 0
-0.004747 0.000000 0
0.000000 0.000000 0
0.000000 0.000000 0
0.000000 0.000000 0
0.000000 0.000000 0
0.000000 0.000000 0
0.000000 0.000000 0
0.000000 0.000000 0
0.000000 0.000000 0
0.000000 0.000000 0
0.000000 0.000000 0
0.000000 0.000000 0
0.000000 0.000000 0
0.000000 0.000000 0
0.000000 0.000000 0
0.000000 0.000000 0
0.000000 0.000000 0
0.000000 0.000000 0
0.000000 0.000000 0
0.000000 0.000000 0
0.000000 0.000000 0
0.000000 0.000000 0
0.000000 0.000000 0
0.000000 0.000000 0
0.000000 0.000000 0
0.000000 0.000000 0
0.000000 0.000000 0
0.000000 0.000000 0
0.000000 0.000000 0
0.000000 0.000000 0
0.000000 0.000000 0
0.000000 0.000000 0
0.000000 0.000000 0
0.000000 0.000000 0
0.000000 0.000000 0
0.936465 -0.582736 0
2.635389 -1.321761 0
3.463170 -1.743786 0
4.645950 -1.902130 0
5.709396 -1.513563 0
6.432434 -0.953189 0
6.857154 -0.458047 0
7.080228 -0.094571 0
7.168303 0.143945 0
7.170221 0.284396 0
7.119156 0.353219 0
7.037296 0.371020 0
6.939463 0.354611 0
6.835724 0.317773 0
6.733023 0.271408 0
6.636045 0.223502 0
6.547651 0.179219 0
6.469171 0.141288 0
6.400728 0.110595 0
6.341605 0.086842 0
6.290615 0.069104 0
6.246396 0.056235 0
6.207620 0.047115 0
6.173109 0.040776 0
6.141875 0.036452 0
6.113118 0.033580 0
6.086187 0.031782 0
6.060538 0.030845 0
6.035679 0.030695 0
6.011110 0.031389 0
5.986265 0.033113 0
5.960433 0.036190 0
5.932677 0.041116 0
5.901710 0.048601 0
5.865735 0.059642 0
5.822224 0.075620 0
5.767591 0.098422 0
5.696718 0.130581 0
5.602249 0.175398 0
5.473563 0.236906 0
5.295131 0.319492 0
5.044827 0.426017 0
4.690785 0.556088 0
4.200449 0.695793 0
3.530414 0.856581 0
2.831190 0.997025 0
1.342352 0.522862 0
0.000001 0.000000 0
-0.005821 0.000000 0
0.000000 0.000000 0
0.000000 0.000000 0
0.000000 0.000000 0
0.000000 0.000000 0
0.000000 0.000000 0
0.000000 0.000000 0
0.000000 0.000000 0
0.000000 0.000000 0
0.000000 0.000000 0
0.000000 0.000000 0
0.000000 0.000000 0
0.000000 0.000000 0
0.000000 0.000000 0
0.000000 0.000000 0
0.000000 0.000000 0
0.000000 0.000000 0
0.000000 0.000000 0
0.000000 0.000000 0
0.000000 0.000000 0
0.000000 0.000000 0
0.000000 0.000000 0
0.000000 0.000000 0
0.000000 0.000000 0
0.000000 0.000000 0
0.000000 0.000000 0
0.000000 0.000000 0
0.000000 0.000000 0
0.000000 0.000000 0
0.000000 0.000000 0
0.000000 0.000000 0
0.000000 0.000000 0
0.000000 0.000000 0
0.738708 -0.467572 0
2.145102 -1.317302 0
3.091127 -1.777008 0
3.865656 -2.242425 0
5.208908 -2.467028 0
6.164562 -1.927730 0
6.689941 -1.200977 0
6.947565 -0.590609 0
7.066055 -0.157685 0
7.112476 0.122432 0
7.116474 0.287921 0
7.098389 0.371028 0
7.069624 0.396630 0
7.035880 0.384148 0
6.999903 0.348781 0
6.963298 0.302182 0
6.927337 0.252813 0
6.893134 0.206248 0
6.861538 0.165605 0
6.833033 0.132115 0
6.807724 0.105736 0
6.785413 0.085699 0
6.765720 0.070920 0
6.748186 0.060279 0
6.732354 0.052767 0
6.717814 0.047564 0
6.704219 0.044054 0
6.691277 0.041819 0
6.678740 0.040621 0
6.666374 0.040384 0
6.653939 0.041182 0
6.641146 0.043247 0
6.627624 0.046981 0
6.612861 0.053000 0
6.596136 0.062193 0
6.576409 0.075819 0
6.552172 0.095643 0
6.521207 0.124119 0
6.480211 0.164630 0
6.424158 0.221776 0
6.345228 0.301629 0
6.230806 0.411670 0
6.060464 0.559499 0
5.800459 0.748540 0
5.407396 0.967439 0
4.838138 1.191006 0
4.167465 1.390088 0
3.376087 1.409975 0
1.499008 0.670121 0
0.000001 0.000000 0
-0.005243 0.000000 0
0.000000 0.000000 0
0.000000 0.000000 0
0.000000 0.000000 0
0.000000 0.000000 0
0.000000 0.000000 0
0.000000 0.000000 0
0.000000 0.000000 0
0.000000 0.000000 0
0.000000 0.000000 0
0.000000 0.000000 0
0.000000 0.000000 0
0.000000 0.000000 0
0.000000 0.000000 0
0.000000 0.000000 0
0.000000 0.000000 0
0.000000 0.000000 0
0.000000 0.000000 0
0.000000 0.000000 0
0.000000 0.000000 0
0.000000 0.000000 0
0.000000 0.000000 0
0.000000 0.000000 0
0.000000 0.000000 0
0.000000 0.000000 0
0.000000 0.000000 0
0.000000 0.000000 0
0.000000 0.000000 0
0.000000 0.000000 0
0.000000 0.000000 0
0.000000 0.000000 0
0.536449 -0.369449 0
1.699177 -1.069831 0
2.545925 -1.751795 0
3.301512 -2.174153 0
4.127489 -2.792970 0
5.620402 -3.041046 0
6.353519 -2.247292 0
6.586142 -1.341101 0
6.619426 -0.644380 0
6.607047 -0.176271 0
6.592131 0.118966 0
6.581994 0.291375 0
6.580739 0.376429 0
6.587726 0.401989 0
6.600019 0.389152 0
6.614184 0.353731 0
6.627545 0.307359 0
6.638626 0.258263 0
6.647020 0.211818 0
6.653005 0.171063 0
6.657158 0.137255 0
6.660088 0.110433 0
6.662291 0.089913 0
6.664112 0.074678 0
6.665764 0.063645 0
6.667361 0.055823 0
6.668950 0.050391 0
6.670541 0.046727 0
6.672124 0.044405 0
6.673682 0.043182 0
6.675192 0.042981 0
6.676628 0.043888 0
6.677962 0.046149 0
6.679153 0.050203 0
6.680137 0.056716 0
6.680813 0.066660 0
6.681004 0.081422 0
6.680405 0.102967 0
6.678464 0.134072 0
6.674177 0.178661 0
6.665645 0.242271 0
6.649190 0.332696 0
6.617325 0.460569 0
6.554667 0.639217 0
6.429423 0.879629 0
6.185210 1.172543 0
5.773252 1.470863 0
5.221610 1.721350 0
4.580021 1.853099 0
3.666608 1.685954 0
1.552522 0.747778 0
0.000001 0.000000 0
-0.003909 0.000000 0
0.000000 0.000000 0
0.000000 0.000000 0
0.000000 0.000000 0
0.000000 0.000000 0
0.000000 0.000000 0
0.000000 0.000000 0
0.000000 0.000000 0
0.000000 0.000000 0
0.000000 0.000000 0
0.000000 0.000000 0
0.000000 0.000000 0
0.000000 0.000000 0
0.000000 0.000000 0
0.000000 0.000000 0
0.000000 0.000000 0
0.000000 0.000000 0
0.000000 0.000000 0
0.000000 0.000000 0
0.000000 0.000000 0
0.000000 0.000000 0
0.000000 0.000000 0
0.000000 0.000000 0
0.000000 0.000000 0
0.000000 0.000000 0
0.000000 0.000000 0
0.000000 0.000000 0
0.000000 0.000000 0
0.000000 0.000000 0
0.376702 -0.267103 0
1.297842 -0.846619 0
2.062017 -1.466580 0
2.755034 -2.111125 0
3.395777 -2.560542 0
4.282002 -3.391241 0
5.832687 -3.569840 0
6.153507 -2.406174 0
5.983367 -1.332712 0
5.744473 -0.600966 0
5.591835 -0.144163 0
5.515547 0.134843 0
5.502437 0.293564 0
5.532651 0.368188 0
5.588364 0.387079 0
5.656063 0.371040 0
5.726032 0.335145 0
5.792101 0.290073 0
5.851020 0.243164 0
5.901687 0.199124 0
5.944379 0.160582 0
5.980102 0.128605 0
6.010126 0.103193 0
6.035700 0.083705 0
6.057907 0.069199 0
6.077618 0.058669 0
6.095506 0.051189 0
6.112069 0.045989 0
6.127677 0.042482 0
6.142607 0.040263 0
6.157080 0.039102 0
6.171291 0.038924 0
6.185441 0.039809 0
6.199767 0.041996 0
6.214567 0.045904 0
6.230238 0.052177 0
6.247315 0.061763 0
6.266516 0.076021 0
6.288794 0.096902 0
6.315382 0.127205 0
6.347798 0.170981 0
6.387724 0.234154 0
6.436544 0.325567 0
6.493783 0.458499 0
6.552714 0.652589 0
6.588724 0.931576 0
6.528066 1.292517 0
6.298701 1.668389 0
5.922965 1.981234 0
5.432154 2.180348 0
4.788795 2.180375 0
3.759401 1.830772 0
1.535801 0.773037 0
0.000001 0.000000 0
-0.002516 0.000000 0
0.000000 0.000000 0
0.000000 0.000000 0
0.000000 0.000000 0
0.000000 0.000000 0
0.000000 0.000000 0
0.000000 0.000000 0
0.000000 0.000000 0
0.000000 0.000000 0
0.000000 0.000000 0
0.000000 0.000000 0
0.000000 0.000000 0
0.000000 0.000000 0
0.000000 0.000000 0
0.000000 0.000000 0
0.000000 0.000000 0
0.000000 0.000000 0
0.000000 0.000000 0
0.000000 0.000000 0
0.000000 0.000000 0
0.000000 0.000000 0
0.000000 0.000000 0
0.000000 0.000000 0
0.000000 0.000000 0
0.000000 0.000000 0
0.000000 0.000000 0
0.000000 0.000000 0
0.268174 -0.186578 0
0.996345 -0.644264 0
1.702918 -1.205719 0
2.320454 -1.791748 0
2.881358 -2.412562 0
3.396689 -2.930638 0
4.285673 -4.000255 0
5.745977 -3.968221 0
5.403591 -2.321941 0
4.740427 -1.138459 0
4.211756 -0.450408 0
3.922576 -0.062857 0
3.818720 0.163256 0
3.849989 0.282901 0
3.955752 0.333859 0
4.095551 0.340849 0
4.245324 0.320949 0
4.390491 0.286336 0
4.523098 0.245437 0
4.639611 0.203972 0
4.739366 0.165566 0
4.823431 0.132215 0
4.893770 0.104683 0
4.952658 0.082888 0
5.002319 0.066242 0
5.044740 0.053911 0
5.081588 0.045018 0
5.114208 0.038755 0
5.143659 0.034452 0
5.170763 0.031597 0
5.196168 0.029838 0
5.220401 0.028972 0
5.243936 0.028931 0
5.267241 0.029780 0
5.290845 0.031720 0
5.315404 0.035107 0
5.341774 0.040492 0
5.371119 0.048687 0
5.405030 0.060872 0
5.445699 0.078758 0
5.496128 0.104841 0
5.560396 0.142822 0
5.643955 0.198305 0
5.753814 0.280152 0
5.898266 0.403016 0
6.083091 0.592182 0
6.302746 0.891840 0
6.457835 1.316225 0
6.423012 1.770640 0
6.250561 2.150652 0
5.948478 2.414986 0
5.505345 2.514664 0
4.830389 2.368740 0
3.713151 1.874238 0
1.476405 0.763256 0
0.000001 0.000000 0
-0.001473 0.000000 0
0.000000 0.000000 0
0.000000 0.000000 0
0.000000 0.000000 0
0.000000 0.000000 0
0.000000 0.000000 0
0.000000 0.000000 0
0.000000 0.000000 0
0.000000 0.000000 0
0.000000 0.000000 0
0.000000 0.000000 0
0.000000 0.000000 0
0.000000 0.000000 0
0.000000 0.000000 0
0.000000 0.000000 0
0.000000 0.000000 0
0.000000 0.000000 0
0.000000 0.000000 0
0.000000 0.000000 0
0.000000 0.000000 0
0.000000 0.000000 0
0.000000 0.000000 0
0.000000 0.000000 0
0.000000 0.000000 0
0.000000 0.000000 0
0.209429 -0.131971 0
0.805830 -0.492672 0
1.468936 -0.977854 0
2.053305 -1.502604 0
2.535948 -2.050399 0
2.940055 -2.644310 0
3.299174 -3.256262 0
4.070042 -4.555118 0
5.221209 -4.123675 0
3.918723 -1.908008 0
2.777360 -0.742257 0
2.004422 -0.195789 0
1.721277 0.050554 0
1.751922 0.170804 0
1.912339 0.225676 0
2.131437 0.246532 0
2.370543 0.243620 0
2.606657 0.224922 0
2.825180 0.197531 0
3.018811 0.166655 0
3.185022 0.136022 0
3.324346 0.108056 0
3.439165 0.084087 0
3.532798 0.064585 0
3.608864 0.049416 0
3.670853 0.038086 0
3.721884 0.029928 0
3.764596 0.024254 0
3.801127 0.020438 0
3.833158 0.017970 0
3.861983 0.016468 0
3.888603 0.015672 0
3.913813 0.015437 0
3.938298 0.015719 0
3.962724 0.016570 0
3.987828 0.018136 0
4.014520 0.020673 0
4.044004 0.024575 0
4.077930 0.030425 0
4.118594 0.039072 0
4.169217 0.051770 0
4.234331 0.070382 0
4.320324 0.097745 0
4.436242 0.138332 0
4.594792 0.199577 0
4.814632 0.295369 0
5.117654 0.452202 0
5.544587 0.745921 0
5.976985 1.232935 0
6.153372 1.771077 0
6.210328 2.216327 0
6.130805 2.549541 0
5.895713 2.734295 0
5.465983 2.718654 0
4.747629 2.441587 0
3.580045 1.847634 0
1.397867 0.732583 0
0.000001 0.000000 0
-0.000967 0.000000 0
0.000000 0.000000 0
0.000000 0.000000 0
0.000000 0.000000 0
0.000000 0.000000 0
0.000000 0.000000 0
0.000000 0.000000 0
0.000000 0.000000 0
0.000000 0.000000 0
0.000000 0.000000 0
0.000000 0.000000 0
0.000000 0.000000 0
0.000000 0.000000 0
0.000000 0.000000 0
0.000000 0.000000 0
0.000000 0.000000 0
0.000000 0.000000 0
0.000000 0.000000 0
0.000000 0.000000 0
0.000000 0.000000 0
0.000000 0.000000 0
0.000000 0.000000 0
0.000000 0.000000 0
0.195502 -0.102395 0
0.724697 -0.396975 0
1.360843 -0.809672 0
1.928957 -1.262283 0
2.382173 -1.734335 0
2.710507 -2.231059 0
2.935822 -2.790677 0
3.102314 -3.490453 0
3.572751 -4.952463 0
4.022832 -3.893255 0
1.558124 -1.111218 0
0.422613 -0.190082 0
0.059877 0.072793 0
0.027412 0.062235 0
0.161919 0.068601 0
0.372181 0.094883 0
0.617447 0.106857 0
0.869807 0.105417 0
1.109194 0.095714 0
1.323812 0.082147 0
1.507911 0.067166 0
1.660206 0.052604 0
1.782471 0.039659 0
1.878318 0.028944 0
1.952202 0.020611 0
2.008682 0.014494 0
2.051949 0.010250 0
2.085559 0.007469 0
2.112359 0.005760 0
2.134515 0.004788 0
2.153613 0.004303 0
2.170788 0.004129 0
2.186854 0.004161 0
2.202422 0.004352 0
2.218012 0.004699 0
2.234151 0.005242 0
2.251458 0.006060 0
2.270757 0.007276 0
2.293186 0.009077 0
2.320362 0.011734 0
2.354598 0.015648 0
2.399230 0.021420 0
2.459097 0.029980 0
2.541295 0.042792 0
2.656395 0.062329 0
2.820518 0.092691 0
3.059242 0.143981 0
3.416723 0.230550 0
3.972014 0.466114 0
4.894552 1.014623 0
5.381220 1.655038 0
5.762084 2.161832 0
5.968804 2.570852 0
5.978914 2.844028 0
5.780281 2.937520 0
5.338510 2.808563 0
4.585095 2.427115 0
3.408234 1.778261 0
1.322439 0.692841 0
0.000001 0.000000 0
-0.001113 0.000000 0
0.000000 0.000000 0
0.000000 0.000000 0
0.000000 0.000000 0
0.000000 0.000000 0
0.000000 0.000000 0
0.000000 0.000000 0
0.000000 0.000000 0
0.000000 0.000000 0
0.000000 0.000000 0
0.000000 0.000000 0
0.000000 0.000000 0
0.000000 0.000000 0
0.000000 0.000000 0
0.000000 0.000000 0
0.000000 0.000000 0
0.000000 0.000000 0
0.000000 0.000000 0
0.000000 0.000000 0
0.000000 0.000000 0
0.000000 0.000000 0
0.225309 -0.095169 0
0.751404 -0.355982 0
1.380468 -0.707941 0
1.941345 -1.089283 0
2.380610 -1.483837 0
2.679556 -1.889797 0
2.839376 -2.324686 0
2.878721 -2.838417 0
2.825540 -3.571808 0
2.797736 -5.011158 0
1.635543 -3.001197 0
-0.000002 0.000000 0
-0.000006 0.000000 0
-0.000006 0.000000 0
-0.000004 0.000000 0
-0.000001 0.000000 0
0.000002 0.000000 0
0.000005 0.000000 0
0.000006 0.000000 0
0.000006 0.000000 0
0.000006 0.000000 0
0.000005 0.000000 0
0.000004 0.000000 0
0.000004 0.000000 0
0.000004 0.000000 0
0.000004 0.000000 0
0.000004 0.000000 0
0.000004 0.000000 0
0.000005 0.000000 0
0.000005 0.000000 0
0.000005 0.000000 0
0.000005 0.000000 0
0.000005 0.000000 0
0.000005 0.000000 0
0.000005 0.000000 0
0.000005 0.000000 0
0.000005 0.000000 0
0.000005 0.000000 0
0.000005 0.000000 0
0.000005 0.000000 0
0.000005 0.000000 0
0.000005 0.000000 0
0.000005 0.000000 0
0.000005 0.000000 0
0.000004 0.000000 0
0.000004 0.000000 0
0.000003 0.000000 0
0.000002 0.000000 0
-0.000000 0.000000 0
-0.000005 0.000000 0
2.078945 0.521011 0
3.753069 1.341287 0
4.748794 1.925228 0
5.386896 2.442119 0
5.724487 2.827692 0
5.791978 3.035921 0
5.604052 3.033702 0
5.147956 2.803925 0
4.385506 2.351249 0
3.241174 1.690684 0
1.268138 0.655054 0
0.000000 0.000000 0
-0.001929 0.000000 0
0.000000 0.000000 0
0.000000 0.000000 0
0.000000 0.000000 0
0.000000 0.000000 0
0.000000 0.000000 0
0.000000 0.000000 0
0.000000 0.000000 0
0.000000 0.000000 0
0.000000 0.000000 0
0.000000 0.000000 0
0.000000 0.000000 0
0.000000 0.000000 0
0.000000 0.000000 0
0.000000 0.000000 0
0.000000 0.000000 0
0.000000 0.000000 0
0.000000 0.000000 0
0.000000 0.000000 0
0.309063 -0.109573 0
0.897580 -0.368524 0
1.541766 -0.672995 0
2.096367 -0.986491 0
2.519954 -1.305159 0
2.797418 -1.628006 0
2.927424 -1.961615 0
2.919321 -2.329729 0
2.785694 -2.783823 0
2.522870 -3.450331 0
2.018333 -4.379957 0
0.037626 -0.000009 0
-0.074075 2.450031 0
0.383587 0.000000 0
0.309603 0.000000 0
0.236656 0.000000 0
0.183986 0.000000 0
0.098192 0.000000 0
-0.007530 0.000000 0
-0.117496 0.000000 0
-0.220313 0.000000 0
-0.310696 0.000000 0
-0.386129 0.000000 0
-0.446271 0.000000 0
-0.492311 0.000000 0
-0.526324 0.000000 0
-0.550736 0.000000 0
-0.567927 0.000000 0
-0.579991 0.000000 0
-0.588615 0.000000 0
-0.595067 0.000000 0
-0.600241 0.000000 0
-0.604732 0.000000 0
-0.608926 0.000000 0
-0.613066 0.000000 0
-0.617325 0.000000 0
-0.621851 0.000000 0
-0.626811 0.000000 0
-0.632432 0.000000 0
-0.639043 0.000000 0
-0.647120 0.000000 0
-0.657365 0.000000 0
-0.670805 0.000000 0
-0.688950 0.000000 0
-0.714042 0.000000 0
-0.749464 0.000000 0
-0.800418 0.000000 0
-0.875277 0.000000 0
-0.987518 0.000000 0
-1.165908 0.000000 0
-1.452891 0.135317 0
0.000000 -0.000006 0
1.715915 0.335732 0
3.326874 1.352407 0
4.431849 2.087477 0
5.140333 2.643344 0
5.507276 2.997185 0
5.580839 3.127622 0
5.388447 3.030804 0
4.932122 2.722913 0
4.194268 2.238343 0
3.119898 1.606773 0
1.253206 0.628192 0
-0.000000 0.000000 0
-0.003642 0.000000 0
0.000000 0.000000 0
0.000000 0.000000 0
0.000000 0.000000 0
0.000000 0.000000 0
0.000000 0.000000 0
0.000000 0.000000 0
0.000000 0.000000 0
0.000000 0.000000 0
0.000000 0.000000 0
0.000000 0.000000 0
0.000000 0.000000 0
0.000000 0.000000 0
0.000000 0.000000 0
0.000000 0.000000 0
0.000000 0.000000 0
0.000000 0.000000 0
0.482669 -0.150536 0
1.207758 -0.440049 0