# vtk DataFile Version 2.0
generated by CFD-lab course output (written by Tobias Neckel) 
ASCII

DATASET STRUCTURED_GRID
DIMENSIONS  82 60 1 
POINTS 4920 float

-1.500000 -0.500000 0
-1.402439 -0.500000 0
-1.304878 -0.500000 0
-1.207317 -0.500000 0
-1.109756 -0.500000 0
-1.012195 -0.500000 0
-0.914634 -0.500000 0
-0.817073 -0.500000 0
-0.719512 -0.500000 0
-0.621951 -0.500000 0
-0.524390 -0.500000 0
-0.426829 -0.500000 0
-0.329268 -0.500000 0
-0.231707 -0.500000 0
-0.134146 -0.500000 0
-0.036585 -0.500000 0
0.060976 -0.500000 0
0.158537 -0.500000 0
0.256098 -0.500000 0
0.353659 -0.500000 0
0.451220 -0.500000 0
0.548780 -0.500000 0
0.646341 -0.500000 0
0.743902 -0.500000 0
0.841463 -0.500000 0
0.939024 -0.500000 0
1.036585 -0.500000 0
1.134146 -0.500000 0
1.231707 -0.500000 0
1.329268 -0.500000 0
1.426829 -0.500000 0
1.524390 -0.500000 0
1.621951 -0.500000 0
1.719512 -0.500000 0
1.817073 -0.500000 0
1.914634 -0.500000 0
2.012195 -0.500000 0
2.109756 -0.500000 0
2.207317 -0.500000 0
2.304878 -0.500000 0
2.402439 -0.500000 0
2.500000 -0.500000 0
2.597561 -0.500000 0
2.695122 -0.500000 0
2.792683 -0.500000 0
2.890244 -0.500000 0
2.987805 -0.500000 0
3.085366 -0.500000 0
3.182927 -0.500000 0
3.280488 -0.500000 0
3.378049 -0.500000 0
3.475610 -0.500000 0
3.573171 -0.500000 0
3.670732 -0.500000 0
3.768293 -0.500000 0
3.865854 -0.500000 0
3.963415 -0.500000 0
4.060976 -0.500000 0
4.158537 -0.500000 0
4.256098 -0.500000 0
4.353659 -0.500000 0
4.451220 -0.500000 0
4.548780 -0.500000 0
4.646341 -0.500000 0
4.743902 -0.500000 0
4.841463 -0.500000 0
4.939024 -0.500000 0
5.036585 -0.500000 0
5.134146 -0.500000 0
5.231707 -0.500000 0
5.329268 -0.500000 0
5.426829 -0.500000 0
5.524390 -0.500000 0
5.621951 -0.500000 0
5.719512 -0.500000 0
5.817073 -0.500000 0
5.914634 -0.500000 0
6.012195 -0.500000 0
6.109756 -0.500000 0
6.207317 -0.500000 0
6.304878 -0.500000 0
6.402439 -0.500000 0
-1.500000 -0.451667 0
-1.402439 -0.451667 0
-1.304878 -0.451667 0
-1.207317 -0.451667 0
-1.109756 -0.451667 0
-1.012195 -0.451667 0
-0.914634 -0.451667 0
-0.817073 -0.451667 0
-0.719512 -0.451667 0
-0.621951 -0.451667 0
-0.524390 -0.451667 0
-0.426829 -0.451667 0
-0.329268 -0.451667 0
-0.231707 -0.451667 0
-0.134146 -0.451667 0
-0.036585 -0.451667 0
0.060976 -0.451667 0
0.158537 -0.451667 0
0.256098 -0.451667 0
0.353659 -0.451667 0
0.451220 -0.451667 0
0.548780 -0.451667 0
0.646341 -0.451667 0
0.743902 -0.451667 0
0.841463 -0.451667 0
0.939024 -0.451667 0
1.036585 -0.451667 0
1.134146 -0.451667 0
1.231707 -0.451667 0
1.329268 -0.451667 0
1.426829 -0.451667 0
1.524390 -0.451667 0
1.621951 -0.451667 0
1.719512 -0.451667 0
1.817073 -0.451667 0
1.914634 -0.451667 0
2.012195 -0.451667 0
2.109756 -0.451667 0
2.207317 -0.451667 0
2.304878 -0.451667 0
2.402439 -0.451667 0
2.500000 -0.451667 0
2.597561 -0.451667 0
2.695122 -0.451667 0
2.792683 -0.451667 0
2.890244 -0.451667 0
2.987805 -0.451667 0
3.085366 -0.451667 0
3.182927 -0.451667 0
3.280488 -0.451667 0
3.378049 -0.451667 0
3.475610 -0.451667 0
3.573171 -0.451667 0
3.670732 -0.451667 0
3.768293 -0.451667 0
3.865854 -0.451667 0
3.963415 -0.451667 0
4.060976 -0.451667 0
4.158537 -0.451667 0
4.256098 -0.451667 0
4.353659 -0.451667 0
4.451220 -0.451667 0
4.548780 -0.451667 0
4.646341 -0.451667 0
4.743902 -0.451667 0
4.841463 -0.451667 0
4.939024 -0.451667 0
5.036585 -0.451667 0
5.134146 -0.451667 0
5.231707 -0.451667 0
5.329268 -0.451667 0
5.426829 -0.451667 0
5.524390 -0.451667 0
5.621951 -0.451667 0
5.719512 -0.451667 0
5.817073 -0.451667 0
5.914634 -0.451667 0
6.012195 -0.451667 0
6.109756 -0.451667 0
6.207317 -0.451667 0
6.304878 -0.451667 0
6.402439 -0.451667 0
-1.500000 -0.403333 0
-1.402439 -0.403333 0
-1.304878 -0.403333 0
-1.207317 -0.403333 0
-1.109756 -0.403333 0
-1.012195 -0.403333 0
-0.914634 -0.403333 0
-0.817073 -0.403333 0
-0.719512 -0.403333 0
-0.621951 -0.403333 0
-0.524390 -0.403333 0
-0.426829 -0.403333 0
-0.329268 -0.403333 0
-0.231707 -0.403333 0
-0.134146 -0.403333 0
-0.036585 -0.403333 0
0.060976 -0.403333 0
0.158537 -0.403333 0
0.256098 -0.403333 0
0.353659 -0.403333 0
0.451220 -0.403333 0
0.548780 -0.403333 0
0.646341 -0.403333 0
0.743902 -0.403333 0
0.841463 -0.403333 0
0.939024 -0.403333 0
1.036585 -0.403333 0
1.134146 -0.403333 0
1.231707 -0.403333 0
1.329268 -0.403333 0
1.426829 -0.403333 0
1.524390 -0.403333 0
1.621951 -0.403333 0
1.719512 -0.403333 0
1.817073 -0.403333 0
1.914634 -0.403333 0
2.012195 -0.403333 0
2.109756 -0.403333 0
2.207317 -0.403333 0
2.304878 -0.403333 0
2.402439 -0.403333 0
2.500000 -0.403333 0
2.597561 -0.403333 0
2.695122 -0.403333 0
2.792683 -0.403333 0
2.890244 -0.403333 0
2.987805 -0.403333 0
3.085366 -0.403333 0
3.182927 -0.403333 0
3.280488 -0.403333 0
3.378049 -0.403333 0
3.475610 -0.403333 0
3.573171 -0.403333 0
3.670732 -0.403333 0
3.768293 -0.403333 0
3.865854 -0.403333 0
3.963415 -0.403333 0
4.060976 -0.403333 0
4.158537 -0.403333 0
4.256098 -0.403333 0
4.353659 -0.403333 0
4.451220 -0.403333 0
4.548780 -0.403333 0
4.646341 -0.403333 0
4.743902 -0.403333 0
4.841463 -0.403333 0
4.939024 -0.403333 0
5.036585 -0.403333 0
5.134146 -0.403333 0
5.231707 -0.403333 0
5.329268 -0.403333 0
5.426829 -0.403333 0
5.524390 -0.403333 0
5.621951 -0.403333 0
5.719512 -0.403333 0
5.817073 -0.403333 0
5.914634 -0.403333 0
6.012195 -0.403333 0
6.109756 -0.403333 0
6.207317 -0.403333 0
6.304878 -0.403333 0
6.402439 -0.403333 0
-1.500000 -0.355000 0
-1.402439 -0.355000 0
-1.304878 -0.355000 0
-1.207317 -0.355000 0
-1.109756 -0.355000 0
-1.012195 -0.355000 0
-0.914634 -0.355000 0
-0.817073 -0.355000 0
-0.719512 -0.355000 0
-0.621951 -0.355000 0
-0.524390 -0.355000 0
-0.426829 -0.355000 0
-0.329268 -0.355000 0
-0.231707 -0.355000 0
-0.134146 -0.355000 0
-0.036585 -0.355000 0
0.060976 -0.355000 0
0.158537 -0.355000 0
0.256098 -0.355000 0
0.353659 -0.355000 0
0.451220 -0.355000 0
0.548780 -0.355000 0
0.646341 -0.355000 0
0.743902 -0.355000 0
0.841463 -0.355000 0
0.939024 -0.355000 0
1.036585 -0.355000 0
1.134146 -0.355000 0
1.231707 -0.355000 0
1.329268 -0.355000 0
1.426829 -0.355000 0
1.524390 -0.355000 0
1.621951 -0.355000 0
1.719512 -0.355000 0
1.817073 -0.355000 0
1.914634 -0.355000 0
2.012195 -0.355000 0
2.109756 -0.355000 0
2.207317 -0.355000 0
2.304878 -0.355000 0
2.402439 -0.355000 0
2.500000 -0.355000 0
2.597561 -0.355000 0
2.695122 -0.355000 0
2.792683 -0.355000 0
2.890244 -0.355000 0
2.987805 -0.355000 0
3.085366 -0.355000 0
3.182927 -0.355000 0
3.280488 -0.355000 0
3.378049 -0.355000 0
3.475610 -0.355000 0
3.573171 -0.355000 0
3.670732 -0.355000 0
3.768293 -0.355000 0
3.865854 -0.355000 0
3.963415 -0.355000 0
4.060976 -0.355000 0
4.158537 -0.355000 0
4.256098 -0.355000 0
4.353659 -0.355000 0
4.451220 -0.355000 0
4.548780 -0.355000 0
4.646341 -0.355000 0
4.743902 -0.355000 0
4.841463 -0.355000 0
4.939024 -0.355000 0
5.036585 -0.355000 0
5.134146 -0.355000 0
5.231707 -0.355000 0
5.329268 -0.355000 0
5.426829 -0.355000 0
5.524390 -0.355000 0
5.621951 -0.355000 0
5.719512 -0.355000 0
5.817073 -0.355000 0
5.914634 -0.355000 0
6.012195 -0.355000 0
6.109756 -0.355000 0
6.207317 -0.355000 0
6.304878 -0.355000 0
6.402439 -0.355000 0
-1.500000 -0.306667 0
-1.402439 -0.306667 0
-1.304878 -0.306667 0
-1.207317 -0.306667 0
-1.109756 -0.306667 0
-1.012195 -0.306667 0
-0.914634 -0.306667 0
-0.817073 -0.306667 0
-0.719512 -0.306667 0
-0.621951 -0.306667 0
-0.524390 -0.306667 0
-0.426829 -0.306667 0
-0.329268 -0.306667 0
-0.231707 -0.306667 0
-0.134146 -0.306667 0
-0.036585 -0.306667 0
0.060976 -0.306667 0
0.158537 -0.306667 0
0.256098 -0.306667 0
0.353659 -0.306667 0
0.451220 -0.306667 0
0.548780 -0.306667 0
0.646341 -0.306667 0
0.743902 -0.306667 0
0.841463 -0.306667 0
0.939024 -0.306667 0
1.036585 -0.306667 0
1.134146 -0.306667 0
1.231707 -0.306667 0
1.329268 -0.306667 0
1.426829 -0.306667 0
1.524390 -0.306667 0
1.621951 -0.306667 0
1.719512 -0.306667 0
1.817073 -0.306667 0
1.914634 -0.306667 0
2.012195 -0.306667 0
2.109756 -0.306667 0
2.207317 -0.306667 0
2.304878 -0.306667 0
2.402439 -0.306667 0
2.500000 -0.306667 0
2.597561 -0.306667 0
2.695122 -0.306667 0
2.792683 -0.306667 0
2.890244 -0.306667 0
2.987805 -0.306667 0
3.085366 -0.306667 0
3.182927 -0.306667 0
3.280488 -0.306667 0
3.378049 -0.306667 0
3.475610 -0.306667 0
3.573171 -0.306667 0
3.670732 -0.306667 0
3.768293 -0.306667 0
3.865854 -0.306667 0
3.963415 -0.306667 0
4.060976 -0.306667 0
4.158537 -0.306667 0
4.256098 -0.306667 0
4.353659 -0.306667 0
4.451220 -0.306667 0
4.548780 -0.306667 0
4.646341 -0.306667 0
4.743902 -0.306667 0
4.841463 -0.306667 0
4.939024 -0.306667 0
5.036585 -0.306667 0
5.134146 -0.306667 0
5.231707 -0.306667 0
5.329268 -0.306667 0
5.426829 -0.306667 0
5.524390 -0.306667 0
5.621951 -0.306667 0
5.719512 -0.306667 0
5.817073 -0.306667 0
5.914634 -0.306667 0
6.012195 -0.306667 0
6.109756 -0.306667 0
6.207317 -0.306667 0
6.304878 -0.306667 0
6.402439 -0.306667 0
-1.500000 -0.258333 0
-1.402439 -0.258333 0
-1.304878 -0.258333 0
-1.207317 -0.258333 0
-1.109756 -0.258333 0
-1.012195 -0.258333 0
-0.914634 -0.258333 0
-0.817073 -0.258333 0
-0.719512 -0.258333 0
-0.621951 -0.258333 0
-0.524390 -0.258333 0
-0.426829 -0.258333 0
-0.329268 -0.258333 0
-0.231707 -0.258333 0
-0.134146 -0.258333 0
-0.036585 -0.258333 0
0.060976 -0.258333 0
0.158537 -0.258333 0
0.256098 -0.258333 0
0.353659 -0.258333 0
0.451220 -0.258333 0
0.548780 -0.258333 0
0.646341 -0.258333 0
0.743902 -0.258333 0
0.841463 -0.258333 0
0.939024 -0.258333 0
1.036585 -0.258333 0
1.134146 -0.258333 0
1.231707 -0.258333 0
1.329268 -0.258333 0
1.426829 -0.258333 0
1.524390 -0.258333 0
1.621951 -0.258333 0
1.719512 -0.258333 0
1.817073 -0.258333 0
1.914634 -0.258333 0
2.012195 -0.258333 0
2.109756 -0.258333 0
2.207317 -0.258333 0
2.304878 -0.258333 0
2.402439 -0.258333 0
2.500000 -0.258333 0
2.597561 -0.258333 0
2.695122 -0.258333 0
2.792683 -0.258333 0
2.890244 -0.258333 0
2.987805 -0.258333 0
3.085366 -0.258333 0
3.182927 -0.258333 0
3.280488 -0.258333 0
3.378049 -0.258333 0
3.475610 -0.258333 0
3.573171 -0.258333 0
[...]
POINT_DATA 4920 

VECTORS velocity float
0.000000 0.000000 0
0.000000 0.000000 0
0.000000 0.000000 0
0.000000 0.000000 0
0.000000 0.000000 0
0.000000 0.000000 0
0.000000 0.000000 0
0.000000 0.000000 0
0.000000 0.000000 0
0.000000 0.000000 0
0.000000 0.000000 0
0.000000 0.000000 0
0.000000 0.000000 0
0.000000 0.000000 0
0.000000 0.000000 0
-0.000001 0.000000 0
-0.000002 0.000000 0
-0.000002 0.000000 0
-0.000003 0.000000 0
-0.000003 0.000000 0
-0.000004 0.000000 0
-0.000003 0.000000 0
-0.000003 0.000000 0
-0.000002 0.000000 0
-0.000001 0.000000 0
-0.000001 0.000000 0
0.000000 0.000000 0
0.000001 0.000000 0
0.000001 0.000000 0
0.000002 0.000000 0
0.000003 0.000000 0
0.000004 0.000000 0
0.000005 0.000000 0
0.000006 0.000000 0
0.000007 0.000000 0
0.000008 0.000000 0
0.000010 0.000000 0
0.000011 0.000000 0
0.000012 0.000000 0
0.000014 0.000000 0
0.000015 0.000000 0
0.000016 0.000000 0
0.000017 0.000000 0
0.000018 0.000000 0
0.000019 0.000000 0
0.000020 0.000000 0
0.000021 0.000000 0
0.000021 0.000000 0
0.000020 0.000000 0
0.000019 0.000000 0
0.000018 0.000000 0
0.000015 0.000000 0
0.000012 0.000000 0
0.000008 0.000000 0
0.000003 0.000000 0
-0.000001 0.000000 0
-0.000000 0.000000 0
0.001849 0.000000 0
0.000000 0.000000 0
0.000000 0.000000 0
0.000000 0.000000 0
0.000000 0.000000 0
0.000000 0.000000 0
0.000000 0.000000 0
0.000000 0.000000 0
0.000000 0.000000 0
0.000000 0.000000 0
0.000000 0.000000 0
0.000000 0.000000 0
0.000000 0.000000 0
0.000000 0.000000 0
0.000000 0.000000 0
0.000000 0.000000 0
0.000000 0.000000 0
0.000000 0.000000 0
0.000000 0.000000 0
0.000000 0.000000 0
0.000000 0.000000 0
0.000000 0.000000 0
0.000000 0.000000 0
0.000000 0.000000 0
0.000000 0.000000 0
0.000000 0.000000 0
0.000000 0.000000 0
0.000000 0.000000 0
0.000000 0.000000 0
0.000000 0.000000 0
0.000000 0.000000 0
0.000000 0.000000 0
0.000000 0.000000 0
0.000000 0.000000 0
0.000000 0.000000 0
0.000000 0.000000 0
0.000000 0.000000 0
0.000000 0.000000 0
0.000000 0.000000 0
1.046837 -0.422666 0
2.519108 -0.738423 0
3.780823 -0.505272 0
4.624026 -0.265500 0
5.057669 -0.070207 0
5.168833 0.061857 0
5.065133 0.139676 0
4.831810 0.177711 0
4.532973 0.186520 0
4.215482 0.175071 0
3.911618 0.151228 0
3.641170 0.121724 0
3.413591 0.091856 0
3.230490 0.065210 0
3.088285 0.043635 0
2.980662 0.027546 0
2.900472 0.016413 0
2.840963 0.009260 0
2.796397 0.005031 0
2.762234 0.002800 0
2.735075 0.001843 0
2.712477 0.001646 0
2.692743 0.001864 0
2.674714 0.002288 0
2.657601 0.002805 0
2.640833 0.003373 0
2.623942 0.003997 0
2.606467 0.004720 0
2.587865 0.005619 0
2.567426 0.006802 0
2.544175 0.008416 0
2.516756 0.010658 0
2.483278 0.013789 0
2.441113 0.018152 0
2.386634 0.024188 0
2.314890 0.032433 0
2.219235 0.043486 0
2.090978 0.057827 0
1.919412 0.075535 0
1.692229 0.095180 0
1.399576 0.113674 0
1.032431 0.130329 0
0.612917 0.069232 0
-0.000000 0.000000 0
-0.001598 0.000000 0
0.000000 0.000000 0
0.000000 0.000000 0
0.000000 0.000000 0
0.000000 0.000000 0
0.000000 0.000000 0
0.000000 0.000000 0
0.000000 0.000000 0
0.000000 0.000000 0
0.000000 0.000000 0
0.000000 0.000000 0
0.000000 0.000000 0
0.000000 0.000000 0
0.000000 0.000000 0
0.000000 0.000000 0
0.000000 0.000000 0
0.000000 0.000000 0
0.000000 0.000000 0
0.000000 0.000000 0
0.000000 0.000000 0
0.000000 0.000000 0
0.000000 0.000000 0
0.000000 0.000000 0
0.000000 0.000000 0
0.000000 0.000000 0
0.000000 0.000000 0
0.000000 0.000000 0
0.000000 0.000000 0
0.000000 0.000000 0
0.000000 0.000000 0
0.000000 0.000000 0
0.000000 0.000000 0
0.000000 0.000000 0
0.000000 0.000000 0
0.000000 0.000000 0
0.000000 0.000000 0
0.000000 0.000000 0
1.160105 -0.517215 0
2.654792 -1.246395 0
3.829711 -1.354255 0
5.003783 -1.042811 0
5.865302 -0.632570 0
6.392514 -0.269906 0
6.648867 -0.003698 0
6.708830 0.166966 0
6.640524 0.263641 0
6.493437 0.305339 0
6.303724 0.307830 0
6.097427 0.284524 0
5.892655 0.246731 0
5.701190 0.203458 0
5.529772 0.161162 0
5.381251 0.123769 0
5.255637 0.093046 0
5.151090 0.069209 0
5.064760 0.051561 0
4.993449 0.039004 0
4.934064 0.030380 0
4.883874 0.024650 0
4.840609 0.020972 0
4.802462 0.018709 0
4.768032 0.017410 0
4.736229 0.016786 0
4.706187 0.016675 0
4.677163 0.017025 0
4.648447 0.017873 0
4.619275 0.019342 0
4.588724 0.021645 0
4.555609 0.025103 0
4.518331 0.030169 0
4.474697 0.037475 0
4.421664 0.047879 0
4.354993 0.062533 0
4.268780 0.082932 0
4.154821 0.110929 0
4.001820 0.148537 0
3.794459 0.197547 0
3.512744 0.257535 0
3.132616 0.326874 0
2.628352 0.389216 0
2.001914 0.509230 0
1.044097 0.301903 0
-0.000000 0.000000 0
-0.004714 0.000000 0
0.000000 0.000000 0
0.000000 0.000000 0
0.000000 0.000000 0
0.000000 0.000000 0
0.000000 0.000000 0
0.000000 0.000000 0
0.000000 0.000000 0
0.000000 0.000000 0
0.000000 0.000000 0
0.000000 0.000000 0
0.000000 0.000000 0
0.000000 0.000000 0
0.000000 0.000000 0
0.000000 0.000000 0
0.000000 0.000000 0
0.000000 0.000000 0
0.000000 0.000000 0
0.000000 0.000000 0
0.000000 0.000000 0
0.000000 0.000000 0
0.000000 0.000000 0
0.000000 0.000000 0
0.000000 0.000000 0
0.000000 0.000000 0
0.000000 0.000000 0
0.000000 0.000000 0
0.000000 0.000000 0
0.000000 0.000000 0
0.000000 0.000000 0
0.000000 0.000000 0
0.000000 0.000000 0
0.000000 0.000000 0
0.000000 0.000000 0
0.000000 0.000000 0
0.936667 -0.582782 0
2.635703 -1.321869 0
3.463473 -1.743827 0
4.646079 -1.902153 0
5.709507 -1.513738 0
6.432692 -0.953501 0
6.857658 -0.458398 0
7.080998 -0.094850 0
7.169297 0.143810 0
7.171359 0.284420 0
7.120360 0.353377 0
7.038509 0.371261 0
6.940653 0.354878 0
6.836884 0.318026 0
6.734158 0.271634 0
6.637163 0.223713 0
6.548750 0.179446 0
6.470231 0.141572 0
6.401705 0.110977 0
6.342432 0.087358 0
6.291200 0.069780 0
6.246629 0.057085 0
6.207378 0.048143 0
6.172263 0.041978 0
6.140294 0.037819 0
6.110669 0.035101 0
6.082744 0.033444 0
6.055977 0.032635 0
6.029880 0.032602 0
6.003956 0.033399 0
5.977645 0.035207 0
5.950244 0.038343 0
5.920824 0.043290 0
5.888117 0.050743 0
5.850351 0.061680 0
5.805029 0.077456 0
5.748609 0.099929 0
5.676031 0.131602 0
5.580014 0.175742 0
5.450028 0.236357 0
5.270669 0.317831 0
5.019960 0.423068 0
4.666277 0.551817 0
4.177261 0.690498 0
3.510943 0.850472 0
2.816174 0.990538 0
1.336593 0.519646 0
0.000000 0.000000 0
-0.005805 0.000000 0
0.000000 0.000000 0
0.000000 0.000000 0
0.000000 0.000000 0
0.000000 0.000000 0
0.000000 0.000000 0
0.000000 0.000000 0
0.000000 0.000000 0
0.000000 0.000000 0
0.000000 0.000000 0
0.000000 0.000000 0
0.000000 0.000000 0
0.000000 0.000000 0
0.000000 0.000000 0
0.000000 0.000000 0
0.000000 0.000000 0
0.000000 0.000000 0
0.000000 0.000000 0
0.000000 0.000000 0
0.000000 0.000000 0
0.000000 0.000000 0
0.000000 0.000000 0
0.000000 0.000000 0
0.000000 0.000000 0
0.000000 0.000000 0
0.000000 0.000000 0
0.000000 0.000000 0
0.000000 0.000000 0
0.000000 0.000000 0
0.000000 0.000000 0
0.000000 0.000000 0
0.000000 0.000000 0
0.000000 0.000000 0
0.738985 -0.467665 0
2.145581 -1.317443 0
3.091498 -1.777083 0
3.865806 -2.242369 0
5.208766 -2.466978 0
6.164369 -1.927929 0
6.689868 -1.201384 0
6.947717 -0.591088 0
7.066461 -0.158089 0
7.113112 0.122200 0
7.117270 0.287884 0
7.099279 0.371156 0
7.070559 0.396860 0
7.036839 0.384412 0
7.000883 0.349032 0
6.964304 0.302403 0
6.928377 0.253016 0
6.894209 0.206470 0
6.862644 0.165894 0
6.834152 0.132523 0
6.808825 0.106307 0
6.786454 0.086466 0
6.766646 0.071906 0
6.748933 0.061492 0
6.732853 0.054207 0
6.717993 0.049223 0
6.704002 0.045921 0
6.690588 0.043881 0
6.677502 0.042865 0
6.664510 0.042797 0
6.651369 0.043751 0
6.637792 0.045952 0
6.623404 0.049795 0
6.607695 0.055881 0
6.589942 0.065083 0
6.569112 0.078638 0
6.543697 0.098284 0
6.511486 0.126441 0
6.469180 0.166457 0
6.411760 0.222895 0
6.331422 0.301792 0
6.215577 0.410610 0
6.043862 0.556961 0
5.782677 0.744362 0
5.388918 0.961587 0
4.820288 1.183535 0
4.151623 1.381372 0
3.364157 1.402474 0
1.495951 0.667206 0
0.000000 0.000000 0
-0.005271 0.000000 0
0.000000 0.000000 0
0.000000 0.000000 0
0.000000 0.000000 0
0.000000 0.000000 0
0.000000 0.000000 0
0.000000 0.000000 0
0.000000 0.000000 0
0.000000 0.000000 0
0.000000 0.000000 0
0.000000 0.000000 0
0.000000 0.000000 0
0.000000 0.000000 0
0.000000 0.000000 0
0.000000 0.000000 0
0.000000 0.000000 0
0.000000 0.000000 0
0.000000 0.000000 0
0.000000 0.000000 0
0.000000 0.000000 0
0.000000 0.000000 0
0.000000 0.000000 0
0.000000 0.000000 0
0.000000 0.000000 0
0.000000 0.000000 0
0.000000 0.000000 0
0.000000 0.000000 0
0.000000 0.000000 0
0.000000 0.000000 0
0.000000 0.000000 0
0.000000 0.000000 0
0.536765 -0.369581 0
1.699784 -1.070057 0
2.546417 -1.751881 0
3.301728 -2.174097 0
4.127376 -2.792756 0
5.619928 -3.040899 0
6.352968 -2.247501 0
6.585654 -1.341584 0
6.619096 -0.644968 0
6.606913 -0.176790 0
6.592202 0.118638 0
6.582216 0.291273 0
6.581060 0.376518 0
6.588109 0.402194 0
6.600453 0.389397 0
6.614669 0.353961 0
6.628087 0.307556 0
6.639231 0.258439 0
6.647694 0.212011 0
6.653754 0.171325 0
6.657989 0.137640 0
6.661005 0.110988 0
6.663297 0.090676 0
6.665210 0.075674 0
6.666954 0.064884 0
6.668641 0.057307 0
6.670317 0.052113 0
6.671990 0.048677 0
6.673650 0.046572 0
6.675274 0.045555 0
6.676838 0.045548 0
6.678313 0.046636 0
6.679664 0.049062 0
6.680844 0.053254 0
6.681781 0.059868 0
6.682362 0.069858 0
6.682395 0.084590 0
6.681551 0.106004 0
6.679249 0.136847 0
6.674446 0.181008 0
6.665193 0.243990 0
6.647753 0.333549 0
6.614575 0.460293 0
6.550239 0.637534 0
6.422970 0.876287 0
6.176572 1.167282 0
5.762833 1.463449 0
5.210529 1.711930 0
4.569944 1.843474 0
3.661193 1.679942 0
1.553322 0.746238 0
0.000000 0.000000 0
-0.003979 0.000000 0
0.000000 0.000000 0
0.000000 0.000000 0
0.000000 0.000000 0
0.000000 0.000000 0
0.000000 0.000000 0
0.000000 0.000000 0
0.000000 0.000000 0
0.000000 0.000000 0
0.000000 0.000000 0
0.000000 0.000000 0
0.000000 0.000000 0
0.000000 0.000000 0
0.000000 0.000000 0
0.000000 0.000000 0
0.000000 0.000000 0
0.000000 0.000000 0
0.000000 0.000000 0
0.000000 0.000000 0
0.000000 0.000000 0
0.000000 0.000000 0
0.000000 0.000000 0
0.000000 0.000000 0
0.000000 0.000000 0
0.000000 0.000000 0
0.000000 0.000000 0
0.000000 0.000000 0
0.000000 0.000000 0
0.000000 0.000000 0
0.377004 -0.267255 0
1.298508 -0.846910 0
2.062600 -1.466756 0
2.755343 -2.111072 0
3.395750 -2.560316 0
4.281622 -3.390844 0
5.831885 -3.569574 0
6.152599 -2.406366 0
5.982423 -1.333228 0
5.743545 -0.601619 0
5.590979 -0.144765 0
5.514814 0.134435 0
5.501806 0.293405 0
5.532108 0.368236 0
5.587892 0.387252 0
5.655662 0.371254 0
5.725706 0.335342 0
5.791851 0.290234 0
5.850849 0.243302 0
5.901602 0.199275 0
5.944395 0.160794 0
5.980245 0.128930 0
6.010433 0.103677 0
6.036218 0.084384 0
6.058690 0.070095 0
6.078727 0.059793 0
6.097004 0.052541 0
6.114022 0.047564 0
6.130149 0.044269 0
6.145660 0.042254 0
6.160774 0.041286 0
6.175682 0.041292 0
6.190580 0.042351 0
6.205697 0.044698 0
6.221321 0.048746 0
6.237836 0.055129 0
6.255755 0.064779 0
6.275767 0.079040 0
6.298786 0.099842 0
6.325987 0.129961 0
6.358816 0.173421 0
6.398862 0.236119 0
6.447397 0.326869 0
6.503816 0.458920 0
6.561262 0.651886 0
6.595019 0.929482 0
6.531329 1.288630 0
6.298529 1.662129 0
5.920064 1.972349 0
5.428109 2.170041 0
4.786661 2.172022 0
3.762663 1.828059 0
1.540931 0.773454 0
0.000000 0.000000 0
-0.002613 0.000000 0
0.000000 0.000000 0
0.000000 0.000000 0
0.000000 0.000000 0
0.000000 0.000000 0
0.000000 0.000000 0
0.000000 0.000000 0
0.000000 0.000000 0
0.000000 0.000000 0
0.000000 0.000000 0
0.000000 0.000000 0
0.000000 0.000000 0
0.000000 0.000000 0
0.000000 0.000000 0
0.000000 0.000000 0
0.000000 0.000000 0
0.000000 0.000000 0
0.000000 0.000000 0
0.000000 0.000000 0
0.000000 0.000000 0
0.000000 0.000000 0
0.000000 0.000000 0
0.000000 0.000000 0
0.000000 0.000000 0
0.000000 0.000000 0
0.000000 0.000000 0
0.000000 0.000000 0
0.268419 -0.186723 0
0.996985 -0.644585 0
1.703538 -1.205986 0
2.320834 -1.791797 0
2.881419 -2.412346 0
3.396427 -2.930240 0
4.285075 -3.999658 0
5.744899 -3.967812 0
5.402394 -2.322080 0
4.739055 -1.138932 0
4.210137 -0.451040 0
3.920958 -0.063473 0
3.817003 0.162816 0
3.848247 0.282706 0
3.954064 0.333870 0
4.093931 0.340984 0
4.243793 0.321121 0
4.389053 0.286491 0
4.521747 0.245557 0
4.638340 0.204067 0
4.738178 0.165668 0
4.822349 0.132364 0
4.892836 0.104923 0
4.951937 0.083258 0
5.001899 0.066769 0
5.044723 0.054614 0
5.082088 0.045903 0
5.115347 0.039821 0
5.145560 0.035692 0
5.173548 0.033003 0
5.199955 0.031400 0
5.225306 0.030682 0
5.250066 0.030782 0
5.274700 0.031766 0
5.299728 0.033832 0
5.325793 0.037332 0
5.353737 0.042809 0
5.384695 0.051066 0
5.420223 0.063272 0
5.462461 0.081125 0
5.514341 0.107106 0
5.579854 0.144904 0
5.664336 0.200105 0
5.774661 0.281553 0
5.918962 0.403882 0
6.102843 0.592350 0
6.320568 0.891116 0
6.472471 1.314168 0
6.433315 1.766280 0
6.256833 2.143150 0
5.952358 2.404980 0
5.509484 2.505031 0
4.838124 2.363626 0
3.726041 1.875934 0
1.485665 0.765851 0
0.000000 0.000000 0
-0.001584 0.000000 0
0.000000 0.000000 0
0.000000 0.000000 0
0.000000 0.000000 0
0.000000 0.000000 0
0.000000 0.000000 0
0.000000 0.000000 0
0.000000 0.000000 0
0.000000 0.000000 0
0.000000 0.000000 0
0.000000 0.000000 0
0.000000 0.000000 0
0.000000 0.000000 0
0.000000 0.000000 0
0.000000 0.000000 0
0.000000 0.000000 0
0.000000 0.000000 0
0.000000 0.000000 0
0.000000 0.000000 0
0.000000 0.000000 0
0.000000 0.000000 0
0.000000 0.000000 0
0.000000 0.000000 0
0.000000 0.000000 0
0.000000 0.000000 0
0.209600 -0.132087 0
0.806373 -0.492980 0
1.469531 -0.978186 0
2.053707 -1.502767 0
2.536060 -2.050298 0
2.939867 -2.643939 0
3.298725 -3.255711 0
4.069305 -4.554317 0
5.219983 -4.123112 0
3.917415 -1.908054 0
2.775709 -0.742563 0
2.002273 -0.196321 0
1.718757 0.050000 0
1.749185 0.170458 0
1.909465 0.225502 0
2.128579 0.246520 0
2.367737 0.243715 0
2.603958 0.225045 0
2.822591 0.197639 0
3.016313 0.166734 0
3.182594 0.136078 0
3.321984 0.108114 0
3.436891 0.084174 0
3.530668 0.064730 0
3.606965 0.049646 0
3.669299 0.038416 0
3.720812 0.030368 0
3.764151 0.024804 0
3.801462 0.021096 0
3.834421 0.018730 0
3.864318 0.017321 0
3.892146 0.016613 0
3.918693 0.016460 0
3.944638 0.016821 0
3.970642 0.017748 0
3.997432 0.019386 0
4.025911 0.021989 0
4.057266 0.025948 0
4.093122 0.031841 0
4.135740 0.040514 0
4.188294 0.053215 0
4.255254 0.071802 0
4.342929 0.099111 0
4.460270 0.139608 0
4.619869 0.200722 0
4.840256 0.296333 0
5.143156 0.452924 0
5.569140 0.746362 0
5.999199 1.232774 0
6.171412 1.768960 0
6.224126 2.210623 0
6.142152 2.540291 0
5.907038 2.724031 0
5.479941 2.711606 0
4.766243 2.441349 0
3.602143 1.854191 0
1.410441 0.737241 0
0.000000 0.000000 0
-0.001087 0.000000 0
0.000000 0.000000 0
0.000000 0.000000 0
0.000000 0.000000 0
0.000000 0.000000 0
0.000000 0.000000 0
0.000000 0.000000 0
0.000000 0.000000 0
0.000000 0.000000 0
0.000000 0.000000 0
0.000000 0.000000 0
0.000000 0.000000 0
0.000000 0.000000 0
0.000000 0.000000 0
0.000000 0.000000 0
0.000000 0.000000 0
0.000000 0.000000 0
0.000000 0.000000 0
0.000000 0.000000 0
0.000000 0.000000 0
0.000000 0.000000 0
0.000000 0.000000 0
0.000000 0.000000 0
0.195613 -0.102475 0
0.725111 -0.397234 0
1.361366 -0.810022 0
1.929333 -1.262534 0
2.382285 -1.734363 0
2.710337 -2.230816 0
2.935414 -2.790183 0
3.101741 -3.489783 0
3.571984 -4.951481 0
4.021725 -3.892563 0
1.557000 -1.111145 0
0.421266 -0.190139 0
0.058134 0.072591 0
0.024993 0.061911 0
0.159059 0.068336 0
0.369062 0.094748 0
0.614236 0.106834 0
0.866663 0.105473 0
1.106176 0.095779 0
1.320917 0.082203 0
1.505112 0.067206 0
1.657470 0.052632 0
1.779786 0.039684 0
1.875698 0.028979 0
1.949692 0.020666 0
2.006356 0.014578 0
2.049902 0.010368 0
2.083899 0.007623 0
2.111199 0.005947 0
2.133966 0.005008 0
2.153781 0.004552 0
2.171772 0.004405 0
2.188745 0.004462 0
2.205305 0.004676 0
2.221969 0.005046 0
2.239259 0.005611 0
2.257793 0.006450 0
2.278388 0.007689 0
2.302177 0.009511 0
2.330764 0.012189 0
2.366448 0.016122 0
2.412542 0.021916 0
2.473862 0.030498 0
2.557475 0.043336 0
2.673918 0.062905 0
2.839275 0.093302 0
3.079076 0.144637 0
3.437425 0.231249 0
3.993304 0.467018 0
4.916026 1.015793 0
5.400006 1.654847 0
5.777932 2.157646 0
5.983980 2.562071 0
5.995767 2.833101 0
5.800446 2.928795 0
5.363179 2.806227 0
4.614062 2.432855 0
3.437695 1.789434 0
1.336995 0.699144 0
0.000000 0.000000 0
-0.001245 0.000000 0
0.000000 0.000000 0
0.000000 0.000000 0
0.000000 0.000000 0
0.000000 0.000000 0
0.000000 0.000000 0
0.000000 0.000000 0
0.000000 0.000000 0
0.000000 0.000000 0
0.000000 0.000000 0
0.000000 0.000000 0
0.000000 0.000000 0
0.000000 0.000000 0
0.000000 0.000000 0
0.000000 0.000000 0
0.000000 0.000000 0
0.000000 0.000000 0
0.000000 0.000000 0
0.000000 0.000000 0
0.000000 0.000000 0
0.000000 0.000000 0
0.225379 -0.095219 0
0.751693 -0.356177 0
1.380885 -0.708256 0
1.941653 -1.089571 0
2.380681 -1.483966 0
2.679355 -1.889689 0
2.838942 -2.324327 0
2.878141 -2.837847 0
2.824910 -3.571078 0
2.797067 -5.010092 0
1.635049 -3.000529 0
-0.000000 0.000000 0
0.000000 0.000000 0
0.000000 0.000000 0
0.000001 0.000000 0
0.000003 0.000000 0
0.000004 0.000000 0
0.000004 0.000000 0
0.000004 0.000000 0
0.000003 0.000000 0
0.000003 0.000000 0
0.000003 0.000000 0
0.000002 0.000000 0
0.000002 0.000000 0
0.000002 0.000000 0
0.000001 0.000000 0
0.000001 0.000000 0
0.000000 0.000000 0
-0.000001 0.000000 0
-0.000002 0.000000 0
-0.000003 0.000000 0
-0.000004 0.000000 0
-0.000005 0.000000 0
-0.000007 0.000000 0
-0.000008 0.000000 0
-0.000010 0.000000 0
-0.000011 0.000000 0
-0.000012 0.000000 0
-0.000014 0.000000 0
-0.000016 0.000000 0
-0.000017 0.000000 0
-0.000019 0.000000 0
-0.000020 0.000000 0
-0.000022 0.000000 0
-0.000023 0.000000 0
-0.000024 0.000000 0
-0.000026 0.000000 0
-0.000027 0.000000 0
-0.000030 0.000000 0
-0.000032 0.000000 0
2.088140 0.522032 0
3.762844 1.341957 0
4.757870 1.921312 0
5.398895 2.432372 0
5.742159 2.814957 0
5.815841 3.025001 0
5.633731 3.029103 0
5.182563 2.808108 0
4.422534 2.363223 0
3.274904 1.705526 0
1.282955 0.662336 0
0.000000 0.000000 0
-0.002074 0.000000 0
0.000000 0.000000 0
0.000000 0.000000 0
0.000000 0.000000 0
0.000000 0.000000 0
0.000000 0.000000 0
0.000000 0.000000 0
0.000000 0.000000 0
0.000000 0.000000 0
0.000000 0.000000 0
0.000000 0.000000 0
0.000000 0.000000 0
0.000000 0.000000 0
0.000000 0.000000 0
0.000000 0.000000 0
0.000000 0.000000 0
0.000000 0.000000 0
0.000000 0.000000 0
0.000000 0.000000 0
0.309103 -0.109604 0
0.897759 -0.368657 0
1.542051 -0.673241 0
2.096573 -0.986761 0
2.519950 -1.305337 0
2.797154 -1.628004 0
2.926925 -1.961392 0
2.918670 -2.329298 0
2.785002 -2.783231 0
2.522237 -3.449617 0
2.017823 -4.379031 0
0.037604 0.000001 0
-0.073601 2.449501 0
0.384072 0.000000 0
0.310195 0.000000 0
0.237548 0.000000 0
0.185231 0.000000 0
0.099613 0.000000 0
-0.006016 0.000000 0
-0.116031 0.000000 0
-0.218915 0.000000 0
-0.309362 0.000000 0
-0.384844 0.000000 0
-0.445018 0.000000 0
-0.491082 0.000000 0
-0.525121 0.000000 0
-0.549576 0.000000 0
-0.566837 0.000000 0
-0.579003 0.000000 0
-0.587766 0.000000 0
-0.594392 0.000000 0
-0.599773 0.000000 0
-0.604503 0.000000 0
-0.608964 0.000000 0
-0.613397 0.000000 0
-0.617973 0.000000 0
-0.622838 0.000000 0
-0.628161 0.000000 0
-0.634167 0.000000 0
-0.641184 0.000000 0
-0.649690 0.000000 0
-0.660386 0.000000 0
-0.674296 0.000000 0
-0.692931 0.000000 0
-0.718536 0.000000 0
-0.754494 0.000000 0
-0.806012 0.000000 0
-0.881470 0.000000 0
-0.994345 0.000000 0
-1.173425 0.000000 0
-1.461126 0.134972 0
0.000000 -0.000003 0
1.714304 0.335614 0
3.322895 1.347120 0
4.434057 2.074438 0
5.153258 2.626539 0
5.530776 2.982512 0
5.612959 3.119963 0
5.426958 3.032902 0
4.974250 2.734520 0
4.235696 2.255834 0
3.153996 1.623737 0
1.266385 0.635603 0
0.000000 0.000000 0
-0.003790 0.000000 0
0.000000 0.000000 0
0.000000 0.000000 0
0.000000 0.000000 0
0.000000 0.000000 0
0.000000 0.000000 0
0.000000 0.000000 0
0.000000 0.000000 0
0.000000 0.000000 0
0.000000 0.000000 0
0.000000 0.000000 0
0.000000 0.000000 0
0.000000 0.000000 0
0.000000 0.000000 0
0.000000 0.000000 0
0.000000 0.000000 0
0.000000 0.000000 0
0.482681 -0.150552 0