# vtk DataFile Version 2.0
generated by CFD-lab course output (written by Tobias Neckel) 
ASCII

DATASET STRUCTURED_GRID
DIMENSIONS  82 60 1 
POINTS 4920 float

-1.500000 -0.500000 0
-1.402439 -0.500000 0
-1.304878 -0.500000 0
-1.207317 -0.500000 0
-1.109756 -0.500000 0
-1.012195 -0.500000 0
-0.914634 -0.500000 0
-0.817073 -0.500000 0
-0.719512 -0.500000 0
-0.621951 -0.500000 0
-0.524390 -0.500000 0
-0.426829 -0.500000 0
-0.329268 -0.500000 0
-0.231707 -0.500000 0
-0.134146 -0.500000 0
-0.036585 -0.500000 0
0.060976 -0.500000 0
0.158537 -0.500000 0
0.256098 -0.500000 0
0.353659 -0.500000 0
0.451220 -0.500000 0
0.548780 -0.500000 0
0.646341 -0.500000 0
0.743902 -0.500000 0
0.841463 -0.500000 0
0.939024 -0.500000 0
1.036585 -0.500000 0
1.134146 -0.500000 0
1.231707 -0.500000 0
1.329268 -0.500000 0
1.426829 -0.500000 0
1.524390 -0.500000 0
1.621951 -0.500000 0
1.719512 -0.500000 0
1.817073 -0.500000 0
1.914634 -0.500000 0
2.012195 -0.500000 0
2.109756 -0.500000 0
2.207317 -0.500000 0
2.304878 -0.500000 0
2.402439 -0.500000 0
2.500000 -0.500000 0
2.597561 -0.500000 0
2.695122 -0.500000 0
2.792683 -0.500000 0
2.890244 -0.500000 0
2.987805 -0.500000 0
3.085366 -0.500000 0
3.182927 -0.500000 0
3.280488 -0.500000 0
3.378049 -0.500000 0
3.475610 -0.500000 0
3.573171 -0.500000 0
3.670732 -0.500000 0
3.768293 -0.500000 0
3.865854 -0.500000 0
3.963415 -0.500000 0
4.060976 -0.500000 0
4.158537 -0.500000 0
4.256098 -0.500000 0
4.353659 -0.500000 0
4.451220 -0.500000 0
4.548780 -0.500000 0
4.646341 -0.500000 0
4.743902 -0.500000 0
4.841463 -0.500000 0
4.939024 -0.500000 0
5.036585 -0.500000 0
5.134146 -0.500000 0
5.231707 -0.500000 0
5.329268 -0.500000 0
5.426829 -0.500000 0
5.524390 -0.500000 0
5.621951 -0.500000 0
5.719512 -0.500000 0
5.817073 -0.500000 0
5.914634 -0.500000 0
6.012195 -0.500000 0
6.109756 -0.500000 0
6.207317 -0.500000 0
6.304878 -0.500000 0
6.402439 -0.500000 0
-1.500000 -0.451667 0
-1.402439 -0.451667 0
-1.304878 -0.451667 0
-1.207317 -0.451667 0
-1.109756 -0.451667 0
-1.012195 -0.451667 0
-0.914634 -0.451667 0
-0.817073 -0.451667 0
-0.719512 -0.451667 0
-0.621951 -0.451667 0
-0.524390 -0.451667 0
-0.426829 -0.451667 0
-0.329268 -0.451667 0
-0.231707 -0.451667 0
-0.134146 -0.451667 0
-0.036585 -0.451667 0
0.060976 -0.451667 0
0.158537 -0.451667 0
0.256098 -0.451667 0
0.353659 -0.451667 0
0.451220 -0.451667 0
0.548780 -0.451667 0
0.646341 -0.451667 0
0.743902 -0.451667 0
0.841463 -0.451667 0
0.939024 -0.451667 0
1.036585 -0.451667 0
1.134146 -0.451667 0
1.231707 -0.451667 0
1.329268 -0.451667 0
1.426829 -0.451667 0
1.524390 -0.451667 0
1.621951 -0.451667 0
1.719512 -0.451667 0
1.817073 -0.451667 0
1.914634 -0.451667 0
2.012195 -0.451667 0
2.109756 -0.451667 0
2.207317 -0.451667 0
2.304878 -0.451667 0
2.402439 -0.451667 0
2.500000 -0.451667 0
2.597561 -0.451667 0
2.695122 -0.451667 0
2.792683 -0.451667 0
2.890244 -0.451667 0
2.987805 -0.451667 0
3.085366 -0.451667 0
3.182927 -0.451667 0
3.280488 -0.451667 0
3.378049 -0.451667 0
3.475610 -0.451667 0
3.573171 -0.451667 0
3.670732 -0.451667 0
3.768293 -0.451667 0
3.865854 -0.451667 0
3.963415 -0.451667 0
4.060976 -0.451667 0
4.158537 -0.451667 0
4.256098 -0.451667 0
4.353659 -0.451667 0
4.451220 -0.451667 0
4.548780 -0.451667 0
4.646341 -0.451667 0
4.743902 -0.451667 0
4.841463 -0.451667 0
4.939024 -0.451667 0
5.036585 -0.451667 0
5.134146 -0.451667 0
5.231707 -0.451667 0
5.329268 -0.451667 0
5.426829 -0.451667 0
5.524390 -0.451667 0
5.621951 -0.451667 0
5.719512 -0.451667 0
5.817073 -0.451667 0
5.914634 -0.451667 0
6.012195 -0.451667 0
6.109756 -0.451667 0
6.207317 -0.451667 0
6.304878 -0.451667 0
6.402439 -0.451667 0
-1.500000 -0.403333 0
-1.402439 -0.403333 0
-1.304878 -0.403333 0
-1.207317 -0.403333 0
-1.109756 -0.403333 0
-1.012195 -0.403333 0
-0.914634 -0.403333 0
-0.817073 -0.403333 0
-0.719512 -0.403333 0
-0.621951 -0.403333 0
-0.524390 -0.403333 0
-0.426829 -0.403333 0
-0.329268 -0.403333 0
-0.231707 -0.403333 0
-0.134146 -0.403333 0
-0.036585 -0.403333 0
0.060976 -0.403333 0
0.158537 -0.403333 0
0.256098 -0.403333 0
0.353659 -0.403333 0
0.451220 -0.403333 0
0.548780 -0.403333 0
0.646341 -0.403333 0
0.743902 -0.403333 0
0.841463 -0.403333 0
0.939024 -0.403333 0
1.036585 -0.403333 0
1.134146 -0.403333 0
1.231707 -0.403333 0
1.329268 -0.403333 0
1.426829 -0.403333 0
1.524390 -0.403333 0
1.621951 -0.403333 0
1.719512 -0.403333 0
1.817073 -0.403333 0
1.914634 -0.403333 0
2.012195 -0.403333 0
2.109756 -0.403333 0
2.207317 -0.403333 0
2.304878 -0.403333 0
2.402439 -0.403333 0
2.500000 -0.403333 0
2.597561 -0.403333 0
2.695122 -0.403333 0
2.792683 -0.403333 0
2.890244 -0.403333 0
2.987805 -0.403333 0
3.085366 -0.403333 0
3.182927 -0.403333 0
3.280488 -0.403333 0
3.378049 -0.403333 0
3.475610 -0.403333 0
3.573171 -0.403333 0
3.670732 -0.403333 0
3.768293 -0.403333 0
3.865854 -0.403333 0
3.963415 -0.403333 0
4.060976 -0.403333 0
4.158537 -0.403333 0
4.256098 -0.403333 0
4.353659 -0.403333 0
4.451220 -0.403333 0
4.548780 -0.403333 0
4.646341 -0.403333 0
4.743902 -0.403333 0
4.841463 -0.403333 0
4.939024 -0.403333 0
5.036585 -0.403333 0
5.134146 -0.403333 0
5.231707 -0.403333 0
5.329268 -0.403333 0
5.426829 -0.403333 0
5.524390 -0.403333 0
5.621951 -0.403333 0
5.719512 -0.403333 0
5.817073 -0.403333 0
5.914634 -0.403333 0
6.012195 -0.403333 0
6.109756 -0.403333 0
6.207317 -0.403333 0
6.304878 -0.403333 0
6.402439 -0.403333 0
-1.500000 -0.355000 0
-1.402439 -0.355000 0
-1.304878 -0.355000 0
-1.207317 -0.355000 0
-1.109756 -0.355000 0
-1.012195 -0.355000 0
-0.914634 -0.355000 0
-0.817073 -0.355000 0
-0.719512 -0.355000 0
-0.621951 -0.355000 0
-0.524390 -0.355000 0
-0.426829 -0.355000 0
-0.329268 -0.355000 0
-0.231707 -0.355000 0
-0.134146 -0.355000 0
-0.036585 -0.355000 0
0.060976 -0.355000 0
0.158537 -0.355000 0
0.256098 -0.355000 0
0.353659 -0.355000 0
0.451220 -0.355000 0
0.548780 -0.355000 0
0.646341 -0.355000 0
0.743902 -0.355000 0
0.841463 -0.355000 0
0.939024 -0.355000 0
1.036585 -0.355000 0
1.134146 -0.355000 0
1.231707 -0.355000 0
1.329268 -0.355000 0
1.426829 -0.355000 0
1.524390 -0.355000 0
1.621951 -0.355000 0
1.719512 -0.355000 0
1.817073 -0.355000 0
1.914634 -0.355000 0
2.012195 -0.355000 0
2.109756 -0.355000 0
2.207317 -0.355000 0
2.304878 -0.355000 0
2.402439 -0.355000 0
2.500000 -0.355000 0
2.597561 -0.355000 0
2.695122 -0.355000 0
2.792683 -0.355000 0
2.890244 -0.355000 0
2.987805 -0.355000 0
3.085366 -0.355000 0
3.182927 -0.355000 0
3.280488 -0.355000 0
3.378049 -0.355000 0
3.475610 -0.355000 0
3.573171 -0.355000 0
3.670732 -0.355000 0
3.768293 -0.355000 0
3.865854 -0.355000 0
3.963415 -0.355000 0
4.060976 -0.355000 0
4.158537 -0.355000 0
4.256098 -0.355000 0
4.353659 -0.355000 0
4.451220 -0.355000 0
4.548780 -0.355000 0
4.646341 -0.355000 0
4.743902 -0.355000 0
4.841463 -0.355000 0
4.939024 -0.355000 0
5.036585 -0.355000 0
5.134146 -0.355000 0
5.231707 -0.355000 0
5.329268 -0.355000 0
5.426829 -0.355000 0
5.524390 -0.355000 0
5.621951 -0.355000 0
5.719512 -0.355000 0
5.817073 -0.355000 0
5.914634 -0.355000 0
6.012195 -0.355000 0
6.109756 -0.355000 0
6.207317 -0.355000 0
6.304878 -0.355000 0
6.402439 -0.355000 0
-1.500000 -0.306667 0
-1.402439 -0.306667 0
-1.304878 -0.306667 0
-1.207317 -0.306667 0
-1.109756 -0.306667 0
-1.012195 -0.306667 0
-0.914634 -0.306667 0
-0.817073 -0.306667 0
-0.719512 -0.306667 0
-0.621951 -0.306667 0
-0.524390 -0.306667 0
-0.426829 -0.306667 0
-0.329268 -0.306667 0
-0.231707 -0.306667 0
-0.134146 -0.306667 0
-0.036585 -0.306667 0
0.060976 -0.306667 0
0.158537 -0.306667 0
0.256098 -0.306667 0
0.353659 -0.306667 0
0.451220 -0.306667 0
0.548780 -0.306667 0
0.646341 -0.306667 0
0.743902 -0.306667 0
0.841463 -0.306667 0
0.939024 -0.306667 0
1.036585 -0.306667 0
1.134146 -0.306667 0
1.231707 -0.306667 0
1.329268 -0.306667 0
1.426829 -0.306667 0
1.524390 -0.306667 0
1.621951 -0.306667 0
1.719512 -0.306667 0
1.817073 -0.306667 0
1.914634 -0.306667 0
2.012195 -0.306667 0
2.109756 -0.306667 0
2.207317 -0.306667 0
2.304878 -0.306667 0
2.402439 -0.306667 0
2.500000 -0.306667 0
2.597561 -0.306667 0
2.695122 -0.306667 0
2.792683 -0.306667 0
2.890244 -0.306667 0
2.987805 -0.306667 0
3.085366 -0.306667 0
3.182927 -0.306667 0
3.280488 -0.306667 0
3.378049 -0.306667 0
3.475610 -0.306667 0
3.573171 -0.306667 0
3.670732 -0.306667 0
3.768293 -0.306667 0
3.865854 -0.306667 0
3.963415 -0.306667 0
4.060976 -0.306667 0
4.158537 -0.306667 0
4.256098 -0.306667 0
4.353659 -0.306667 0
4.451220 -0.306667 0
4.548780 -0.306667 0
4.646341 -0.306667 0
4.743902 -0.306667 0
4.841463 -0.306667 0
4.939024 -0.306667 0
5.036585 -0.306667 0
5.134146 -0.306667 0
5.231707 -0.306667 0
5.329268 -0.306667 0
5.426829 -0.306667 0
5.524390 -0.306667 0
5.621951 -0.306667 0
5.719512 -0.306667 0
5.817073 -0.306667 0
5.914634 -0.306667 0
6.012195 -0.306667 0
6.109756 -0.306667 0
6.207317 -0.306667 0
6.304878 -0.306667 0
6.402439 -0.306667 0
-1.500000 -0.258333 0
-1.402439 -0.258333 0
-1.304878 -0.258333 0
-1.207317 -0.258333 0
-1.109756 -0.258333 0
-1.012195 -0.258333 0
-0.914634 -0.258333 0
-0.817073 -0.258333 0
-0.719512 -0.258333 0
-0.621951 -0.258333 0
-0.524390 -0.258333 0
-0.426829 -0.258333 0
-0.329268 -0.258333 0
-0.231707 -0.258333 0
-0.134146 -0.258333 0
-0.036585 -0.258333 0
0.060976 -0.258333 0
0.158537 -0.258333 0
0.256098 -0.258333 0
0.353659 -0.258333 0
0.451220 -0.258333 0
0.548780 -0.258333 0
0.646341 -0.258333 0
0.743902 -0.258333 0
0.841463 -0.258333 0
0.939024 -0.258333 0
1.036585 -0.258333 0
1.134146 -0.258333 0
1.231707 -0.258333 0
1.329268 -0.258333 0
1.426829 -0.258333 0
1.524390 -0.258333 0
1.621951 -0.258333 0
1.719512 -0.258333 0
1.817073 -0.258333 0
1.914634 -0.258333 0
2.012195 -0.258333 0
2.109756 -0.258333 0
2.207317 -0.258333 0
2.304878 -0.258333 0
2.402439 -0.258333 0
2.500000 -0.258333 0
2.597561 -0.258333 0
2.695122 -0.258333 0
2.792683 -0.258333 0
2.890244 -0.258333 0
2.987805 -0.258333 0
3.085366 -0.258333 0
3.182927 -0.258333 0
3.280488 -0.258333 0
3.378049 -0.258333 0
3.475610 -0.258333 0
3.573171 -0.258333 0
[...]
POINT_DATA 4920 

VECTORS velocity float
0.000000 0.000000 0
0.000000 0.000000 0
0.000000 0.000000 0
0.000000 0.000000 0
0.000000 0.000000 0
0.000000 0.000000 0
0.000000 0.000000 0
0.000000 0.000000 0
0.000000 0.000000 0
0.000000 0.000000 0
0.000000 0.000000 0
0.000000 0.000000 0
0.000000 0.000000 0
0.000000 0.000000 0
0.000000 0.000000 0
0.000000 0.000000 0
0.000000 0.000000 0
0.000000 0.000000 0
0.000000 0.000000 0
0.000000 0.000000 0
0.000000 0.000000 0
0.000000 0.000000 0
0.000000 0.000000 0
0.000000 0.000000 0
0.000000 0.000000 0
0.000000 0.000000 0
0.000000 0.000000 0
0.000000 0.000000 0
0.000000 0.000000 0
0.000000 0.000000 0
0.000000 0.000000 0
0.000000 0.000000 0
0.000000 0.000000 0
0.000000 0.000000 0
0.000000 0.000000 0
-0.000000 0.000000 0
-0.000000 0.000000 0
-0.000000 0.000000 0
-0.000000 0.000000 0
-0.000000 0.000000 0
-0.000000 0.000000 0
-0.000000 0.000000 0
-0.000000 0.000000 0
-0.000000 0.000000 0
-0.000000 0.000000 0
-0.000000 0.000000 0
-0.000000 0.000000 0
-0.000000 0.000000 0
-0.000000 0.000000 0
-0.000000 0.000000 0
-0.000000 0.000000 0
0.000000 0.000000 0
0.000000 0.000000 0
0.000000 0.000000 0
0.000000 0.000000 0
0.000000 0.000000 0
-0.000000 0.000000 0
0.001916 0.000000 0
0.000000 0.000000 0
0.000000 0.000000 0
0.000000 0.000000 0
0.000000 0.000000 0
0.000000 0.000000 0
0.000000 0.000000 0
0.000000 0.000000 0
0.000000 0.000000 0
0.000000 0.000000 0
0.000000 0.000000 0
0.000000 0.000000 0
0.000000 0.000000 0
0.000000 0.000000 0
0.000000 0.000000 0
0.000000 0.000000 0
0.000000 0.000000 0
0.000000 0.000000 0
0.000000 0.000000 0
0.000000 0.000000 0
0.000000 0.000000 0
0.000000 0.000000 0
0.000000 0.000000 0
0.000000 0.000000 0
0.000000 0.000000 0
0.000000 0.000000 0
0.000000 0.000000 0
0.000000 0.000000 0
0.000000 0.000000 0
0.000000 0.000000 0
0.000000 0.000000 0
0.000000 0.000000 0
0.000000 0.000000 0
0.000000 0.000000 0
0.000000 0.000000 0
0.000000 0.000000 0
0.000000 0.000000 0
0.000000 0.000000 0
0.000000 0.000000 0
1.046392 -0.422528 0
2.518297 -0.738206 0
3.779770 -0.505137 0
4.622776 -0.265393 0
5.056222 -0.070113 0
5.167173 0.061938 0
5.063275 0.139741 0
4.829787 0.177745 0
4.530845 0.186511 0
4.213333 0.175012 0
3.909544 0.151123 0
3.639256 0.121586 0
3.411906 0.091700 0
3.229080 0.065047 0
3.087185 0.043474 0
2.979897 0.027387 0
2.900074 0.016253 0
2.840975 0.009091 0
2.796874 0.004848 0
2.763244 0.002598 0
2.736696 0.001620 0
2.714793 0.001399 0
2.695841 0.001593 0
2.678683 0.001994 0
2.662523 0.002492 0
2.646786 0.003042 0
2.630997 0.003653 0
2.614684 0.004368 0
2.597291 0.005267 0
2.578089 0.006458 0
2.556079 0.008094 0
2.529870 0.010374 0
2.497525 0.013567 0
2.456356 0.018020 0
2.402659 0.024183 0
2.331383 0.032601 0
2.235764 0.043877 0
2.106974 0.058491 0
1.934166 0.076507 0
1.704916 0.096430 0
1.409388 0.115113 0
1.038702 0.130699 0
0.616652 0.068847 0
-0.000000 0.000000 0
-0.001572 0.000000 0
0.000000 0.000000 0
0.000000 0.000000 0
0.000000 0.000000 0
0.000000 0.000000 0
0.000000 0.000000 0
0.000000 0.000000 0
0.000000 0.000000 0
0.000000 0.000000 0
0.000000 0.000000 0
0.000000 0.000000 0
0.000000 0.000000 0
0.000000 0.000000 0
0.000000 0.000000 0
0.000000 0.000000 0
0.000000 0.000000 0
0.000000 0.000000 0
0.000000 0.000000 0
0.000000 0.000000 0
0.000000 0.000000 0
0.000000 0.000000 0
0.000000 0.000000 0
0.000000 0.000000 0
0.000000 0.000000 0
0.000000 0.000000 0
0.000000 0.000000 0
0.000000 0.000000 0
0.000000 0.000000 0
0.000000 0.000000 0
0.000000 0.000000 0
0.000000 0.000000 0
0.000000 0.000000 0
0.000000 0.000000 0
0.000000 0.000000 0
0.000000 0.000000 0
0.000000 0.000000 0
0.000000 0.000000 0
1.159604 -0.516994 0
2.653742 -1.245994 0
3.828577 -1.353955 0
5.002541 -1.042594 0
5.863921 -0.632376 0
6.390968 -0.269703 0
6.647104 -0.003494 0
6.706837 0.167147 0
6.638306 0.263775 0
6.491025 0.305401 0
6.301173 0.307803 0
6.094805 0.284408 0
5.890038 0.246538 0
5.698649 0.203208 0
5.527375 0.160872 0
5.379058 0.123450 0
5.253711 0.092697 0
5.149495 0.068824 0
5.063571 0.051127 0
4.992755 0.038509 0
4.933969 0.029813 0
4.884493 0.024003 0
4.842068 0.020240 0
4.804895 0.017890 0
4.771572 0.016506 0
4.741013 0.015802 0
4.712345 0.015618 0
4.684821 0.015904 0
4.657724 0.016699 0
4.630275 0.018130 0
4.601538 0.020417 0
4.570300 0.023889 0
4.534934 0.029008 0
4.493200 0.036420 0
4.441997 0.046998 0
4.377009 0.061914 0
4.292236 0.082682 0
4.179351 0.111176 0
4.026913 0.149417 0
3.819433 0.199186 0
3.536739 0.259984 0
3.154571 0.330054 0
2.647225 0.392226 0
2.014833 0.512281 0
1.050719 0.303700 0
0.000000 0.000000 0
-0.004730 0.000000 0
0.000000 0.000000 0
0.000000 0.000000 0
0.000000 0.000000 0
0.000000 0.000000 0
0.000000 0.000000 0
0.000000 0.000000 0
0.000000 0.000000 0
0.000000 0.000000 0
0.000000 0.000000 0
0.000000 0.000000 0
0.000000 0.000000 0
0.000000 0.000000 0
0.000000 0.000000 0
0.000000 0.000000 0
0.000000 0.000000 0
0.000000 0.000000 0
0.000000 0.000000 0
0.000000 0.000000 0
0.000000 0.000000 0
0.000000 0.000000 0
0.000000 0.000000 0
0.000000 0.000000 0
0.000000 0.000000 0
0.000000 0.000000 0
0.000000 0.000000 0
0.000000 0.000000 0
0.000000 0.000000 0
0.000000 0.000000 0
0.000000 0.000000 0
0.000000 0.000000 0
0.000000 0.000000 0
0.000000 0.000000 0
0.000000 0.000000 0
0.000000 0.000000 0
0.936087 -0.582532 0
2.634561 -1.321347 0
3.462280 -1.743377 0
4.644930 -1.901840 0
5.708313 -1.513480 0
6.431406 -0.953243 0
6.856247 -0.458115 0
7.079431 -0.094549 0
7.167536 0.144099 0
7.169393 0.284662 0
7.118199 0.353532 0
7.036181 0.371306 0
6.938198 0.354806 0
6.834345 0.317848 0
6.731583 0.271369 0
6.634600 0.223378 0
6.546246 0.179052 0
6.467835 0.141117 0
6.399472 0.110451 0
6.340424 0.086743 0
6.289490 0.069055 0
6.245302 0.056233 0
6.206534 0.047149 0
6.172010 0.040833 0
6.140750 0.036518 0
6.111958 0.033642 0
6.084993 0.031834 0
6.059314 0.030880 0
6.034432 0.030713 0
6.009850 0.031392 0
5.985000 0.033102 0
5.959172 0.036171 0
5.931426 0.041090 0
5.900472 0.048571 0
5.864516 0.059609 0
5.821028 0.075583 0
5.766422 0.098377 0
5.695584 0.130524 0
5.601164 0.175322 0
5.472545 0.236801 0
5.294210 0.319348 0
5.044047 0.425814 0
4.690207 0.555793 0
4.200153 0.695344 0
3.530316 0.856050 0
2.831652 0.996843 0
1.343181 0.522938 0
0.000000 0.000000 0
-0.005823 0.000000 0
0.000000 0.000000 0
0.000000 0.000000 0
0.000000 0.000000 0
0.000000 0.000000 0
0.000000 0.000000 0
0.000000 0.000000 0
0.000000 0.000000 0
0.000000 0.000000 0
0.000000 0.000000 0
0.000000 0.000000 0
0.000000 0.000000 0
0.000000 0.000000 0
0.000000 0.000000 0
0.000000 0.000000 0
0.000000 0.000000 0
0.000000 0.000000 0
0.000000 0.000000 0
0.000000 0.000000 0
0.000000 0.000000 0
0.000000 0.000000 0
0.000000 0.000000 0
0.000000 0.000000 0
0.000000 0.000000 0
0.000000 0.000000 0
0.000000 0.000000 0
0.000000 0.000000 0
0.000000 0.000000 0
0.000000 0.000000 0
0.000000 0.000000 0
0.000000 0.000000 0
0.000000 0.000000 0
0.000000 0.000000 0
0.738372 -0.467375 0
2.144344 -1.316872 0
3.090259 -1.776557 0
3.864727 -2.241964 0
5.207738 -2.466677 0
6.163300 -1.927644 0
6.688739 -1.201081 0
6.946512 -0.590746 0
7.065156 -0.157712 0
7.111663 0.122578 0
7.115660 0.288217 0
7.097509 0.371397 0
7.068645 0.396979 0
7.034799 0.384400 0
6.998737 0.348898 0
6.962073 0.302165 0
6.926082 0.252692 0
6.891874 0.206068 0
6.860293 0.165412 0
6.831814 0.131946 0
6.806532 0.105615 0
6.784244 0.085634 0
6.764564 0.070911 0
6.747032 0.060313 0
6.731193 0.052831 0
6.716639 0.047641 0
6.703026 0.044129 0
6.690067 0.041883 0
6.677514 0.040667 0
6.665137 0.040409 0
6.652695 0.041188 0
6.639901 0.043237 0
6.626382 0.046959 0
6.611626 0.052969 0
6.594909 0.062156 0
6.575194 0.075778 0
6.550972 0.095596 0
6.520026 0.124061 0
6.479054 0.164554 0
6.423034 0.221673 0
6.344153 0.301487 0
6.229801 0.411471 0
6.059566 0.559217 0
5.799715 0.748133 0
5.406874 0.966855 0
4.837917 1.190260 0
4.167928 1.389467 0
3.377947 1.410159 0
1.501039 0.670522 0
0.000000 0.000000 0
-0.005278 0.000000 0
0.000000 0.000000 0
0.000000 0.000000 0
0.000000 0.000000 0
0.000000 0.000000 0
0.000000 0.000000 0
0.000000 0.000000 0
0.000000 0.000000 0
0.000000 0.000000 0
0.000000 0.000000 0
0.000000 0.000000 0
0.000000 0.000000 0
0.000000 0.000000 0
0.000000 0.000000 0
0.000000 0.000000 0
0.000000 0.000000 0
0.000000 0.000000 0
0.000000 0.000000 0
0.000000 0.000000 0
0.000000 0.000000 0
0.000000 0.000000 0
0.000000 0.000000 0
0.000000 0.000000 0
0.000000 0.000000 0
0.000000 0.000000 0
0.000000 0.000000 0
0.000000 0.000000 0
0.000000 0.000000 0
0.000000 0.000000 0
0.000000 0.000000 0
0.000000 0.000000 0
0.536160 -0.369274 0
1.698518 -1.069437 0
2.545184 -1.751317 0
3.300646 -2.173654 0
4.126499 -2.792411 0
5.619026 -3.040591 0
6.352020 -2.247193 0
6.584690 -1.341259 0
6.618125 -0.644598 0
6.605924 -0.176368 0
6.591141 0.119078 0
6.581060 0.291674 0
6.579802 0.376824 0
6.586752 0.402373 0
6.599001 0.389440 0
6.613120 0.353878 0
6.626440 0.307364 0
6.637485 0.258156 0
6.645849 0.211645 0
6.651809 0.170871 0
6.655945 0.137085 0
6.658862 0.110309 0
6.661055 0.089847 0
6.662869 0.074669 0
6.664515 0.063682 0
6.666107 0.055890 0
6.667692 0.050472 0
6.669281 0.046807 0
6.670863 0.044473 0
6.672420 0.043231 0
6.673931 0.043009 0
6.675369 0.043894 0
6.676706 0.046138 0
6.677900 0.050179 0
6.678888 0.056682 0
6.679568 0.066620 0
6.679764 0.081376 0
6.679169 0.102914 0
6.677234 0.134007 0
6.672953 0.178575 0
6.664431 0.242154 0
6.647993 0.332532 0
6.616155 0.460337 0
6.553543 0.638886 0
6.428369 0.879147 0
6.184265 1.171835 0
5.772568 1.469845 0
5.221758 1.720137 0
4.581995 1.852369 0
3.671199 1.686846 0
1.556540 0.748785 0
0.000000 0.000000 0
-0.003984 0.000000 0
0.000000 0.000000 0
0.000000 0.000000 0
0.000000 0.000000 0
0.000000 0.000000 0
0.000000 0.000000 0
0.000000 0.000000 0
0.000000 0.000000 0
0.000000 0.000000 0
0.000000 0.000000 0
0.000000 0.000000 0
0.000000 0.000000 0
0.000000 0.000000 0
0.000000 0.000000 0
0.000000 0.000000 0
0.000000 0.000000 0
0.000000 0.000000 0
0.000000 0.000000 0
0.000000 0.000000 0
0.000000 0.000000 0
0.000000 0.000000 0
0.000000 0.000000 0
0.000000 0.000000 0
0.000000 0.000000 0
0.000000 0.000000 0
0.000000 0.000000 0
0.000000 0.000000 0
0.000000 0.000000 0
0.000000 0.000000 0
0.376456 -0.266953 0
1.297283 -0.846276 0
2.061392 -1.466150 0
2.754317 -2.110593 0
3.394907 -2.559967 0
4.280925 -3.390528 0
5.831081 -3.569237 0
6.151768 -2.406050 0
5.981640 -1.332914 0
5.742851 -0.601265 0
5.590372 -0.144344 0
5.514246 0.134896 0
5.501249 0.293835 0
5.531537 0.368577 0
5.587292 0.387467 0
5.655015 0.371337 0
5.724990 0.335304 0
5.791044 0.290094 0
5.849929 0.243076 0
5.900548 0.198971 0
5.943185 0.160410 0
5.978856 0.128452 0
6.008837 0.103083 0
6.034379 0.083649 0
6.056566 0.069196 0
6.076271 0.058709 0
6.094162 0.051257 0
6.110738 0.046068 0
6.126362 0.042559 0
6.141310 0.040328 0
6.155799 0.039147 0
6.170023 0.038948 0
6.184184 0.039813 0
6.198516 0.041983 0
6.213319 0.045878 0
6.228989 0.052143 0
6.246062 0.061723 0
6.265256 0.075975 0
6.287526 0.096849 0
6.314102 0.127140 0
6.346504 0.170897 0
6.386412 0.234038 0
6.435212 0.325403 0
6.492428 0.458263 0
6.551331 0.652250 0
6.587304 0.931079 0
6.526591 1.291749 0
6.297265 1.667102 0
5.922363 1.979297 0
5.433784 2.178332 0
4.794034 2.179756 0
3.768540 1.833057 0
1.542534 0.775047 0
0.000000 0.000000 0
-0.002626 0.000000 0
0.000000 0.000000 0
0.000000 0.000000 0
0.000000 0.000000 0
0.000000 0.000000 0
0.000000 0.000000 0
0.000000 0.000000 0
0.000000 0.000000 0
0.000000 0.000000 0
0.000000 0.000000 0
0.000000 0.000000 0
0.000000 0.000000 0
0.000000 0.000000 0
0.000000 0.000000 0
0.000000 0.000000 0
0.000000 0.000000 0
0.000000 0.000000 0
0.000000 0.000000 0
0.000000 0.000000 0
0.000000 0.000000 0
0.000000 0.000000 0
0.000000 0.000000 0
0.000000 0.000000 0
0.000000 0.000000 0
0.000000 0.000000 0
0.000000 0.000000 0
0.000000 0.000000 0
0.267963 -0.186451 0
0.995872 -0.643974 0
1.702398 -1.205349 0
2.319860 -1.791277 0
2.880648 -2.411963 0
3.395815 -2.929961 0
4.284514 -3.999332 0
5.744183 -3.967438 0
5.401711 -2.321783 0
4.738490 -1.138675 0
4.209793 -0.450757 0
3.920733 -0.063113 0
3.816995 0.163232 0
3.848419 0.283107 0
3.954346 0.334197 0
4.094281 0.341200 0
4.244162 0.321222 0
4.389394 0.286487 0
4.522016 0.245467 0
4.638498 0.203905 0
4.738190 0.165444 0
4.822177 0.132076 0
4.892437 0.104560 0
4.951259 0.082803 0
5.000876 0.066201 0
5.043276 0.053915 0
5.080126 0.045056 0
5.112768 0.038815 0
5.142253 0.034520 0
5.169396 0.031661 0
5.194838 0.029889 0
5.219105 0.029005 0
5.242663 0.028946 0
5.265982 0.029778 0
5.289592 0.031705 0
5.314146 0.035082 0
5.340506 0.040461 0
5.369835 0.048653 0
5.403727 0.060834 0
5.444373 0.078715 0
5.494774 0.104788 0
5.559009 0.142752 0
5.642526 0.198207 0
5.752331 0.280010 0
5.896710 0.402809 0
6.081438 0.591882 0
6.300951 0.891404 0
6.455787 1.315525 0
6.420555 1.769189 0
6.248689 2.147920 0
5.949170 2.411362 0
5.510562 2.511836 0
4.841182 2.369043 0
3.728485 1.878846 0
1.486165 0.766635 0
0.000000 0.000000 0
-0.001608 0.000000 0
0.000000 0.000000 0
0.000000 0.000000 0
0.000000 0.000000 0
0.000000 0.000000 0
0.000000 0.000000 0
0.000000 0.000000 0
0.000000 0.000000 0
0.000000 0.000000 0
0.000000 0.000000 0
0.000000 0.000000 0
0.000000 0.000000 0
0.000000 0.000000 0
0.000000 0.000000 0
0.000000 0.000000 0
0.000000 0.000000 0
0.000000 0.000000 0
0.000000 0.000000 0
0.000000 0.000000 0
0.000000 0.000000 0
0.000000 0.000000 0
0.000000 0.000000 0
0.000000 0.000000 0
0.000000 0.000000 0
0.000000 0.000000 0
0.209243 -0.131861 0
0.805424 -0.492427 0
1.468495 -0.977544 0
2.052804 -1.502202 0
2.535357 -2.049875 0
2.939344 -2.643639 0
3.298312 -3.255465 0
4.068857 -4.553949 0
5.219380 -4.122715 0
3.916940 -1.907813 0
2.775414 -0.742418 0
2.002290 -0.196135 0
1.719074 0.050255 0
1.749768 0.170722 0
1.910325 0.225789 0
2.129652 0.246772 0
2.368980 0.243888 0
2.605293 0.225133 0
2.823947 0.197651 0
3.017627 0.166684 0
3.183814 0.135980 0
3.323064 0.107974 0
3.437783 0.083993 0
3.531317 0.064503 0
3.607303 0.049361 0
3.669244 0.038062 0
3.720261 0.029934 0
3.762989 0.024281 0
3.799560 0.020478 0
3.831642 0.018014 0
3.860522 0.016507 0
3.887190 0.015701 0
3.912437 0.015454 0
3.936944 0.015724 0
3.961378 0.016564 0
3.986476 0.018122 0
4.013154 0.020654 0
4.042617 0.024554 0
4.076518 0.030402 0
4.117154 0.039048 0
4.167746 0.051743 0
4.232825 0.070347 0
4.318775 0.097698 0
4.434636 0.138264 0
4.593108 0.199476 0
4.812838 0.295218 0
5.115708 0.451982 0
5.542414 0.745620 0
5.974397 1.232495 0
6.149588 1.769702 0
6.206520 2.212829 0
6.129782 2.544012 0
5.900192 2.728672 0
5.477477 2.715928 0
4.765967 2.444205 0
3.602254 1.855392 0
1.410320 0.737483 0
0.000000 0.000000 0
-0.001120 0.000000 0
0.000000 0.000000 0
0.000000 0.000000 0
0.000000 0.000000 0
0.000000 0.000000 0
0.000000 0.000000 0
0.000000 0.000000 0
0.000000 0.000000 0
0.000000 0.000000 0
0.000000 0.000000 0
0.000000 0.000000 0
0.000000 0.000000 0
0.000000 0.000000 0
0.000000 0.000000 0
0.000000 0.000000 0
0.000000 0.000000 0
0.000000 0.000000 0
0.000000 0.000000 0
0.000000 0.000000 0
0.000000 0.000000 0
0.000000 0.000000 0
0.000000 0.000000 0
0.000000 0.000000 0
0.195338 -0.102300 0
0.724339 -0.396765 0
1.360458 -0.809413 0
1.928521 -1.261947 0
2.381658 -1.733891 0
2.709900 -2.230483 0
2.935113 -2.789943 0
3.101490 -3.489540 0
3.571649 -4.951061 0
4.021293 -3.892176 0
1.556821 -1.111002 0
0.421273 -0.190125 0
0.058247 0.072571 0
0.025374 0.061990 0
0.159687 0.068482 0
0.369977 0.094906 0
0.615443 0.106972 0
0.868087 0.105560 0
1.107731 0.095824 0
1.322519 0.082210 0
1.506690 0.067183 0
1.658971 0.052587 0
1.781165 0.039623 0
1.876916 0.028904 0
1.950706 0.020577 0
2.007115 0.014471 0
2.050341 0.010240 0
2.083944 0.007472 0
2.110763 0.005770 0
2.132956 0.004803 0
2.152098 0.004318 0
2.169317 0.004142 0
2.185418 0.004170 0
2.201009 0.004356 0
2.216611 0.004700 0
2.232748 0.005239 0
2.250046 0.006054 0
2.269327 0.007269 0
2.291736 0.009070 0
2.318889 0.011726 0
2.353102 0.015638 0
2.397708 0.021409 0
2.457546 0.029965 0
2.539705 0.042771 0
2.654749 0.062298 0
2.818791 0.092643 0
3.057392 0.143905 0
3.414689 0.230439 0
3.969720 0.465995 0
4.891944 1.014720 0
5.375875 1.654191 0
5.755389 2.157732 0
5.964917 2.563122 0
5.981676 2.834999 0
5.791626 2.930957 0
5.358451 2.807863 0
4.611682 2.433565 0
3.436494 1.789496 0
1.336566 0.699089 0
0.000000 0.000000 0
-0.001280 0.000000 0
0.000000 0.000000 0
0.000000 0.000000 0
0.000000 0.000000 0
0.000000 0.000000 0
0.000000 0.000000 0
0.000000 0.000000 0
0.000000 0.000000 0
0.000000 0.000000 0
0.000000 0.000000 0
0.000000 0.000000 0
0.000000 0.000000 0
0.000000 0.000000 0
0.000000 0.000000 0
0.000000 0.000000 0
0.000000 0.000000 0
0.000000 0.000000 0
0.000000 0.000000 0
0.000000 0.000000 0
0.000000 0.000000 0
0.000000 0.000000 0
0.225163 -0.095084 0
0.751080 -0.355797 0
1.380117 -0.707718 0
1.940946 -1.088999 0
2.380140 -1.483464 0
2.679005 -1.889310 0
2.838748 -2.324066 0
2.878026 -2.837639 0
2.824788 -3.570816 0
2.796855 -5.009635 0
1.634877 -3.000232 0
-0.000000 0.000000 0
-0.000000 0.000000 0
-0.000000 0.000000 0
-0.000000 0.000000 0
-0.000000 0.000000 0
-0.000000 0.000000 0
-0.000000 0.000000 0
-0.000000 0.000000 0
-0.000000 0.000000 0
-0.000000 0.000000 0
-0.000000 0.000000 0
-0.000000 0.000000 0
-0.000000 0.000000 0
-0.000000 0.000000 0
-0.000000 0.000000 0
-0.000000 0.000000 0
0.000000 0.000000 0
0.000000 0.000000 0
0.000000 0.000000 0
0.000000 0.000000 0
0.000000 0.000000 0
0.000000 0.000000 0
0.000000 0.000000 0
0.000000 0.000000 0
0.000000 0.000000 0
0.000000 0.000000 0
0.000000 0.000000 0
0.000000 0.000000 0
0.000000 0.000000 0
0.000000 0.000000 0
0.000000 0.000000 0
0.000000 0.000000 0
0.000000 0.000000 0
0.000000 0.000000 0
0.000000 0.000000 0
0.000000 0.000000 0
0.000000 0.000000 0
-0.000000 0.000000 0
-0.000000 0.000000 0
2.077756 0.522099 0
3.746181 1.341937 0
4.737996 1.921008 0
5.378581 2.431906 0
5.724170 2.814523 0
5.802113 3.024684 0
5.624547 3.028769 0
5.176908 2.807562 0
4.419175 2.362520 0
3.273103 1.704965 0
1.282370 0.662136 0
0.000000 0.000000 0
-0.002107 0.000000 0
0.000000 0.000000 0
0.000000 0.000000 0
0.000000 0.000000 0
0.000000 0.000000 0
0.000000 0.000000 0
0.000000 0.000000 0
0.000000 0.000000 0
0.000000 0.000000 0
0.000000 0.000000 0
0.000000 0.000000 0
0.000000 0.000000 0
0.000000 0.000000 0
0.000000 0.000000 0
0.000000 0.000000 0
0.000000 0.000000 0
0.000000 0.000000 0
0.000000 0.000000 0
0.000000 0.000000 0
0.308933 -0.109498 0
0.897281 -0.368357 0
1.541433 -0.672794 0
2.095986 -0.986244 0
2.519505 -1.304840 0
2.796894 -1.627594 0
2.926832 -1.961093 0
2.918679 -2.329081 0
2.785030 -2.783028 0
2.522211 -3.449326 0
2.017721 -4.378585 0
0.037591 -0.000000 0
-0.073597 2.449235 0
0.383993 0.000000 0
0.310171 0.000000 0
0.237508 0.000000 0
0.185044 0.000000 0
0.099276 0.000000 0
-0.006525 0.000000 0
-0.116647 0.000000 0
-0.219597 0.000000 0
-0.310068 0.000000 0
-0.385538 0.000000 0
-0.445677 0.000000 0
-0.491686 0.000000 0
-0.525657 0.000000 0
-0.550028 0.000000 0
-0.567190 0.000000 0
-0.579239 0.000000 0
-0.587861 0.000000 0
-0.594320 0.000000 0
-0.599507 0.000000 0
-0.604015 0.000000 0
-0.608223 0.000000 0
-0.612375 0.000000 0
-0.616640 0.000000 0
-0.621168 0.000000 0
-0.626126 0.000000 0
-0.631743 0.000000 0
-0.638346 0.000000 0
-0.646416 0.000000 0
-0.656653 0.000000 0
-0.670084 0.000000 0
-0.688219 0.000000 0
-0.713300 0.000000 0
-0.748705 0.000000 0
-0.799633 0.000000 0
-0.874453 0.000000 0
-0.986632 0.000000 0
-1.164925 0.000000 0
-1.451773 0.132353 0
0.000000 -0.000000 0
1.708495 0.339642 0
3.310667 1.349014 0
4.417514 2.074555 0
5.135575 2.625174 0
5.515093 2.980311 0
5.600909 3.117600 0
5.418533 3.030726 0
4.968620 2.732673 0
4.232068 2.254445 0
3.151913 1.622901 0
1.265638 0.635329 0
0.000000 0.000000 0
-0.003816 0.000000 0
0.000000 0.000000 0
0.000000 0.000000 0
0.000000 0.000000 0
0.000000 0.000000 0
0.000000 0.000000 0
0.000000 0.000000 0
0.000000 0.000000 0
0.000000 0.000000 0
0.000000 0.000000 0
0.000000 0.000000 0
0.000000 0.000000 0
0.000000 0.000000 0
0.000000 0.000000 0
0.000000 0.000000 0
0.000000 0.000000 0
0.000000 0.000000 0
0.482553 -0.150469 0