# vtk DataFile Version 2.0
generated by CFD-lab course output (written by Tobias Neckel) 
ASCII

DATASET STRUCTURED_GRID
DIMENSIONS  82 60 1 
POINTS 4920 float

-1.500000 -0.500000 0
-1.402439 -0.500000 0
-1.304878 -0.500000 0
-1.207317 -0.500000 0
-1.109756 -0.500000 0
-1.012195 -0.500000 0
-0.914634 -0.500000 0
-0.817073 -0.500000 0
-0.719512 -0.500000 0
-0.621951 -0.500000 0
-0.524390 -0.500000 0
-0.426829 -0.500000 0
-0.329268 -0.500000 0
-0.231707 -0.500000 0
-0.134146 -0.500000 0
-0.036585 -0.500000 0
0.060976 -0.500000 0
0.158537 -0.500000 0
0.256098 -0.500000 0
0.353659 -0.500000 0
0.451220 -0.500000 0
0.548780 -0.500000 0
0.646341 -0.500000 0
0.743902 -0.500000 0
0.841463 -0.500000 0
0.939024 -0.500000 0
1.036585 -0.500000 0
1.134146 -0.500000 0
1.231707 -0.500000 0
1.329268 -0.500000 0
1.426829 -0.500000 0
1.524390 -0.500000 0
1.621951 -0.500000 0
1.719512 -0.500000 0
1.817073 -0.500000 0
1.914634 -0.500000 0
2.012195 -0.500000 0
2.109756 -0.500000 0
2.207317 -0.500000 0
2.304878 -0.500000 0
2.402439 -0.500000 0
2.500000 -0.500000 0
2.597561 -0.500000 0
2.695122 -0.500000 0
2.792683 -0.500000 0
2.890244 -0.500000 0
2.987805 -0.500000 0
3.085366 -0.500000 0
3.182927 -0.500000 0
3.280488 -0.500000 0
3.378049 -0.500000 0
3.475610 -0.500000 0
3.573171 -0.500000 0
3.670732 -0.500000 0
3.768293 -0.500000 0
3.865854 -0.500000 0
3.963415 -0.500000 0
4.060976 -0.500000 0
4.158537 -0.500000 0
4.256098 -0.500000 0
4.353659 -0.500000 0
4.451220 -0.500000 0
4.548780 -0.500000 0
4.646341 -0.500000 0
4.743902 -0.500000 0
4.841463 -0.500000 0
4.939024 -0.500000 0
5.036585 -0.500000 0
5.134146 -0.500000 0
5.231707 -0.500000 0
5.329268 -0.500000 0
5.426829 -0.500000 0
5.524390 -0.500000 0
5.621951 -0.500000 0
5.719512 -0.500000 0
5.817073 -0.500000 0
5.914634 -0.500000 0
6.012195 -0.500000 0
6.109756 -0.500000 0
6.207317 -0.500000 0
6.304878 -0.500000 0
6.402439 -0.500000 0
-1.500000 -0.451667 0
-1.402439 -0.451667 0
-1.304878 -0.451667 0
-1.207317 -0.451667 0
-1.109756 -0.451667 0
-1.012195 -0.451667 0
-0.914634 -0.451667 0
-0.817073 -0.451667 0
-0.719512 -0.451667 0
-0.621951 -0.451667 0
-0.524390 -0.451667 0
-0.426829 -0.451667 0
-0.329268 -0.451667 0
-0.231707 -0.451667 0
-0.134146 -0.451667 0
-0.036585 -0.451667 0
0.060976 -0.451667 0
0.158537 -0.451667 0
0.256098 -0.451667 0
0.353659 -0.451667 0
0.451220 -0.451667 0
0.548780 -0.451667 0
0.646341 -0.451667 0
0.743902 -0.451667 0
0.841463 -0.451667 0
0.939024 -0.451667 0
1.036585 -0.451667 0
1.134146 -0.451667 0
1.231707 -0.451667 0
1.329268 -0.451667 0
1.426829 -0.451667 0
1.524390 -0.451667 0
1.621951 -0.451667 0
1.719512 -0.451667 0
1.817073 -0.451667 0
1.914634 -0.451667 0
2.012195 -0.451667 0
2.109756 -0.451667 0
2.207317 -0.451667 0
2.304878 -0.451667 0
2.402439 -0.451667 0
2.500000 -0.451667 0
2.597561 -0.451667 0
2.695122 -0.451667 0
2.792683 -0.451667 0
2.890244 -0.451667 0
2.987805 -0.451667 0
3.085366 -0.451667 0
3.182927 -0.451667 0
3.280488 -0.451667 0
3.378049 -0.451667 0
3.475610 -0.451667 0
3.573171 -0.451667 0
3.670732 -0.451667 0
3.768293 -0.451667 0
3.865854 -0.451667 0
3.963415 -0.451667 0
4.060976 -0.451667 0
4.158537 -0.451667 0
4.256098 -0.451667 0
4.353659 -0.451667 0
4.451220 -0.451667 0
4.548780 -0.451667 0
4.646341 -0.451667 0
4.743902 -0.451667 0
4.841463 -0.451667 0
4.939024 -0.451667 0
5.036585 -0.451667 0
5.134146 -0.451667 0
5.231707 -0.451667 0
5.329268 -0.451667 0
5.426829 -0.451667 0
5.524390 -0.451667 0
5.621951 -0.451667 0
5.719512 -0.451667 0
5.817073 -0.451667 0
5.914634 -0.451667 0
6.012195 -0.451667 0
6.109756 -0.451667 0
6.207317 -0.451667 0
6.304878 -0.451667 0
6.402439 -0.451667 0
-1.500000 -0.403333 0
-1.402439 -0.403333 0
-1.304878 -0.403333 0
-1.207317 -0.403333 0
-1.109756 -0.403333 0
-1.012195 -0.403333 0
-0.914634 -0.403333 0
-0.817073 -0.403333 0
-0.719512 -0.403333 0
-0.621951 -0.403333 0
-0.524390 -0.403333 0
-0.426829 -0.403333 0
-0.329268 -0.403333 0
-0.231707 -0.403333 0
-0.134146 -0.403333 0
-0.036585 -0.403333 0
0.060976 -0.403333 0
0.158537 -0.403333 0
0.256098 -0.403333 0
0.353659 -0.403333 0
0.451220 -0.403333 0
0.548780 -0.403333 0
0.646341 -0.403333 0
0.743902 -0.403333 0
0.841463 -0.403333 0
0.939024 -0.403333 0
1.036585 -0.403333 0
1.134146 -0.403333 0
1.231707 -0.403333 0
1.329268 -0.403333 0
1.426829 -0.403333 0
1.524390 -0.403333 0
1.621951 -0.403333 0
1.719512 -0.403333 0
1.817073 -0.403333 0
1.914634 -0.403333 0
2.012195 -0.403333 0
2.109756 -0.403333 0
2.207317 -0.403333 0
2.304878 -0.403333 0
2.402439 -0.403333 0
2.500000 -0.403333 0
2.597561 -0.403333 0
2.695122 -0.403333 0
2.792683 -0.403333 0
2.890244 -0.403333 0
2.987805 -0.403333 0
3.085366 -0.403333 0
3.182927 -0.403333 0
3.280488 -0.403333 0
3.378049 -0.403333 0
3.475610 -0.403333 0
3.573171 -0.403333 0
3.670732 -0.403333 0
3.768293 -0.403333 0
3.865854 -0.403333 0
3.963415 -0.403333 0
4.060976 -0.403333 0
4.158537 -0.403333 0
4.256098 -0.403333 0
4.353659 -0.403333 0
4.451220 -0.403333 0
4.548780 -0.403333 0
4.646341 -0.403333 0
4.743902 -0.403333 0
4.841463 -0.403333 0
4.939024 -0.403333 0
5.036585 -0.403333 0
5.134146 -0.403333 0
5.231707 -0.403333 0
5.329268 -0.403333 0
5.426829 -0.403333 0
5.524390 -0.403333 0
5.621951 -0.403333 0
5.719512 -0.403333 0
5.817073 -0.403333 0
5.914634 -0.403333 0
6.012195 -0.403333 0
6.109756 -0.403333 0
6.207317 -0.403333 0
6.304878 -0.403333 0
6.402439 -0.403333 0
-1.500000 -0.355000 0
-1.402439 -0.355000 0
-1.304878 -0.355000 0
-1.207317 -0.355000 0
-1.109756 -0.355000 0
-1.012195 -0.355000 0
-0.914634 -0.355000 0
-0.817073 -0.355000 0
-0.719512 -0.355000 0
-0.621951 -0.355000 0
-0.524390 -0.355000 0
-0.426829 -0.355000 0
-0.329268 -0.355000 0
-0.231707 -0.355000 0
-0.134146 -0.355000 0
-0.036585 -0.355000 0
0.060976 -0.355000 0
0.158537 -0.355000 0
0.256098 -0.355000 0
0.353659 -0.355000 0
0.451220 -0.355000 0
0.548780 -0.355000 0
0.646341 -0.355000 0
0.743902 -0.355000 0
0.841463 -0.355000 0
0.939024 -0.355000 0
1.036585 -0.355000 0
1.134146 -0.355000 0
1.231707 -0.355000 0
1.329268 -0.355000 0
1.426829 -0.355000 0
1.524390 -0.355000 0
1.621951 -0.355000 0
1.719512 -0.355000 0
1.817073 -0.355000 0
1.914634 -0.355000 0
2.012195 -0.355000 0
2.109756 -0.355000 0
2.207317 -0.355000 0
2.304878 -0.355000 0
2.402439 -0.355000 0
2.500000 -0.355000 0
2.597561 -0.355000 0
2.695122 -0.355000 0
2.792683 -0.355000 0
2.890244 -0.355000 0
2.987805 -0.355000 0
3.085366 -0.355000 0
3.182927 -0.355000 0
3.280488 -0.355000 0
3.378049 -0.355000 0
3.475610 -0.355000 0
3.573171 -0.355000 0
3.670732 -0.355000 0
3.768293 -0.355000 0
3.865854 -0.355000 0
3.963415 -0.355000 0
4.060976 -0.355000 0
4.158537 -0.355000 0
4.256098 -0.355000 0
4.353659 -0.355000 0
4.451220 -0.355000 0
4.548780 -0.355000 0
4.646341 -0.355000 0
4.743902 -0.355000 0
4.841463 -0.355000 0
4.939024 -0.355000 0
5.036585 -0.355000 0
5.134146 -0.355000 0
5.231707 -0.355000 0
5.329268 -0.355000 0
5.426829 -0.355000 0
5.524390 -0.355000 0
5.621951 -0.355000 0
5.719512 -0.355000 0
5.817073 -0.355000 0
5.914634 -0.355000 0
6.012195 -0.355000 0
6.109756 -0.355000 0
6.207317 -0.355000 0
6.304878 -0.355000 0
6.402439 -0.355000 0
-1.500000 -0.306667 0
-1.402439 -0.306667 0
-1.304878 -0.306667 0
-1.207317 -0.306667 0
-1.109756 -0.306667 0
-1.012195 -0.306667 0
-0.914634 -0.306667 0
-0.817073 -0.306667 0
-0.719512 -0.306667 0
-0.621951 -0.306667 0
-0.524390 -0.306667 0
-0.426829 -0.306667 0
-0.329268 -0.306667 0
-0.231707 -0.306667 0
-0.134146 -0.306667 0
-0.036585 -0.306667 0
0.060976 -0.306667 0
0.158537 -0.306667 0
0.256098 -0.306667 0
0.353659 -0.306667 0
0.451220 -0.306667 0
0.548780 -0.306667 0
0.646341 -0.306667 0
0.743902 -0.306667 0
0.841463 -0.306667 0
0.939024 -0.306667 0
1.036585 -0.306667 0
1.134146 -0.306667 0
1.231707 -0.306667 0
1.329268 -0.306667 0
1.426829 -0.306667 0
1.524390 -0.306667 0
1.621951 -0.306667 0
1.719512 -0.306667 0
1.817073 -0.306667 0
1.914634 -0.306667 0
2.012195 -0.306667 0
2.109756 -0.306667 0
2.207317 -0.306667 0
2.304878 -0.306667 0
2.402439 -0.306667 0
2.500000 -0.306667 0
2.597561 -0.306667 0
2.695122 -0.306667 0
2.792683 -0.306667 0
2.890244 -0.306667 0
2.987805 -0.306667 0
3.085366 -0.306667 0
3.182927 -0.306667 0
3.280488 -0.306667 0
3.378049 -0.306667 0
3.475610 -0.306667 0
3.573171 -0.306667 0
3.670732 -0.306667 0
3.768293 -0.306667 0
3.865854 -0.306667 0
3.963415 -0.306667 0
4.060976 -0.306667 0
4.158537 -0.306667 0
4.256098 -0.306667 0
4.353659 -0.306667 0
4.451220 -0.306667 0
4.548780 -0.306667 0
4.646341 -0.306667 0
4.743902 -0.306667 0
4.841463 -0.306667 0
4.939024 -0.306667 0
5.036585 -0.306667 0
5.134146 -0.306667 0
5.231707 -0.306667 0
5.329268 -0.306667 0
5.426829 -0.306667 0
5.524390 -0.306667 0
5.621951 -0.306667 0
5.719512 -0.306667 0
5.817073 -0.306667 0
5.914634 -0.306667 0
6.012195 -0.306667 0
6.109756 -0.306667 0
6.207317 -0.306667 0
6.304878 -0.306667 0
6.402439 -0.306667 0
-1.500000 -0.258333 0
-1.402439 -0.258333 0
-1.304878 -0.258333 0
-1.207317 -0.258333 0
-1.109756 -0.258333 0
-1.012195 -0.258333 0
-0.914634 -0.258333 0
-0.817073 -0.258333 0
-0.719512 -0.258333 0
-0.621951 -0.258333 0
-0.524390 -0.258333 0
-0.426829 -0.258333 0
-0.329268 -0.258333 0
-0.231707 -0.258333 0
-0.134146 -0.258333 0
-0.036585 -0.258333 0
0.060976 -0.258333 0
0.158537 -0.258333 0
0.256098 -0.258333 0
0.353659 -0.258333 0
0.451220 -0.258333 0
0.548780 -0.258333 0
0.646341 -0.258333 0
0.743902 -0.258333 0
0.841463 -0.258333 0
0.939024 -0.258333 0
1.036585 -0.258333 0
1.134146 -0.258333 0
1.231707 -0.258333 0
1.329268 -0.258333 0
1.426829 -0.258333 0
1.524390 -0.258333 0
1.621951 -0.258333 0
1.719512 -0.258333 0
1.817073 -0.258333 0
1.914634 -0.258333 0
2.012195 -0.258333 0
2.109756 -0.258333 0
2.207317 -0.258333 0
2.304878 -0.258333 0
2.402439 -0.258333 0
2.500000 -0.258333 0
2.597561 -0.258333 0
2.695122 -0.258333 0
2.792683 -0.258333 0
2.890244 -0.258333 0
2.987805 -0.258333 0
3.085366 -0.258333 0
3.182927 -0.258333 0
3.280488 -0.258333 0
3.378049 -0.258333 0
3.475610 -0.258333 0
3.573171 -0.258333 0
[...]
POINT_DATA 4920 

VECTORS velocity float
0.000000 0.000000 0
0.000000 0.000000 0
0.000000 0.000000 0
0.000000 0.000000 0
0.000000 0.000000 0
0.000000 0.000000 0
0.000000 0.000000 0
0.000000 0.000000 0
0.000000 0.000000 0
0.000000 0.000000 0
0.000000 0.000000 0
0.000000 0.000000 0
0.000000 0.000000 0
0.000000 0.000000 0
0.000000 0.000000 0
0.000000 0.000000 0
0.000000 0.000000 0
0.000000 0.000000 0
0.000000 0.000000 0
0.000000 0.000000 0
0.000000 0.000000 0
0.000000 0.000000 0
0.000000 0.000000 0
0.000000 0.000000 0
0.000000 0.000000 0
0.000000 0.000000 0
0.000000 0.000000 0
0.000000 0.000000 0
0.000000 0.000000 0
0.000000 0.000000 0
0.000000 0.000000 0
0.000000 0.000000 0
0.000000 0.000000 0
0.000000 0.000000 0
0.000000 0.000000 0
0.000000 0.000000 0
0.000000 0.000000 0
0.000000 0.000000 0
0.000000 0.000000 0
0.000000 0.000000 0
0.000000 0.000000 0
0.000000 0.000000 0
0.000000 0.000000 0
0.000000 0.000000 0
0.000000 0.000000 0
0.000000 0.000000 0
0.000000 0.000000 0
0.000000 0.000000 0
0.000000 0.000000 0
0.000000 0.000000 0
0.000000 0.000000 0
0.000000 0.000000 0
0.000000 0.000000 0
0.000000 0.000000 0
0.000000 0.000000 0
0.000000 0.000000 0
0.000000 0.000000 0
0.001916 0.000000 0
0.000000 0.000000 0
0.000000 0.000000 0
0.000000 0.000000 0
0.000000 0.000000 0
0.000000 0.000000 0
0.000000 0.000000 0
0.000000 0.000000 0
0.000000 0.000000 0
0.000000 0.000000 0
0.000000 0.000000 0
0.000000 0.000000 0
0.000000 0.000000 0
0.000000 0.000000 0
0.000000 0.000000 0
0.000000 0.000000 0
0.000000 0.000000 0
0.000000 0.000000 0
0.000000 0.000000 0
0.000000 0.000000 0
0.000000 0.000000 0
0.000000 0.000000 0
0.000000 0.000000 0
0.000000 0.000000 0
0.000000 0.000000 0
0.000000 0.000000 0
0.000000 0.000000 0
0.000000 0.000000 0
0.000000 0.000000 0
0.000000 0.000000 0
0.000000 0.000000 0
0.000000 0.000000 0
0.000000 0.000000 0
0.000000 0.000000 0
0.000000 0.000000 0
0.000000 0.000000 0
0.000000 0.000000 0
0.000000 0.000000 0
0.000000 0.000000 0
1.046393 -0.422529 0
2.518300 -0.738207 0
3.779774 -0.505138 0
4.622781 -0.265394 0
5.056228 -0.070114 0
5.167180 0.061937 0
5.063284 0.139740 0
4.829797 0.177744 0
4.530855 0.186511 0
4.213344 0.175012 0
3.909553 0.151124 0
3.639264 0.121586 0
3.411912 0.091701 0
3.229085 0.065048 0
3.087187 0.043475 0
2.979898 0.027388 0
2.900075 0.016253 0
2.840975 0.009091 0
2.796873 0.004849 0
2.763242 0.002598 0
2.736694 0.001620 0
2.714791 0.001399 0
2.695839 0.001593 0
2.678679 0.001995 0
2.662519 0.002492 0
2.646781 0.003042 0
2.630991 0.003653 0
2.614677 0.004369 0
2.597283 0.005267 0
2.578080 0.006459 0
2.556068 0.008094 0
2.529858 0.010375 0
2.497513 0.013567 0
2.456343 0.018020 0
2.402645 0.024183 0
2.331368 0.032601 0
2.235749 0.043877 0
2.106958 0.058491 0
1.934150 0.076507 0
1.704900 0.096430 0
1.409372 0.115113 0
1.038687 0.130697 0
0.616641 0.068845 0
0.000000 0.000000 0
-0.001572 0.000000 0
0.000000 0.000000 0
0.000000 0.000000 0
0.000000 0.000000 0
0.000000 0.000000 0
0.000000 0.000000 0
0.000000 0.000000 0
0.000000 0.000000 0
0.000000 0.000000 0
0.000000 0.000000 0
0.000000 0.000000 0
0.000000 0.000000 0
0.000000 0.000000 0
0.000000 0.000000 0
0.000000 0.000000 0
0.000000 0.000000 0
0.000000 0.000000 0
0.000000 0.000000 0
0.000000 0.000000 0
0.000000 0.000000 0
0.000000 0.000000 0
0.000000 0.000000 0
0.000000 0.000000 0
0.000000 0.000000 0
0.000000 0.000000 0
0.000000 0.000000 0
0.000000 0.000000 0
0.000000 0.000000 0
0.000000 0.000000 0
0.000000 0.000000 0
0.000000 0.000000 0
0.000000 0.000000 0
0.000000 0.000000 0
0.000000 0.000000 0
0.000000 0.000000 0
0.000000 0.000000 0
0.000000 0.000000 0
1.159605 -0.516995 0
2.653746 -1.245995 0
3.828581 -1.353955 0
5.002544 -1.042595 0
5.863925 -0.632377 0
6.390973 -0.269705 0
6.647111 -0.003496 0
6.706846 0.167145 0
6.638316 0.263774 0
6.491036 0.305401 0
6.301184 0.307804 0
6.094817 0.284409 0
5.890049 0.246540 0
5.698659 0.203210 0
5.527384 0.160874 0
5.379066 0.123451 0
5.253717 0.092699 0
5.149500 0.068825 0
5.063575 0.051128 0
4.992759 0.038510 0
4.933972 0.029813 0
4.884496 0.024004 0
4.842070 0.020240 0
4.804896 0.017890 0
4.771573 0.016507 0
4.741012 0.015803 0
4.712344 0.015619 0
4.684819 0.015905 0
4.657720 0.016700 0
4.630269 0.018131 0
4.601530 0.020419 0
4.570291 0.023890 0
4.534923 0.029009 0
4.493188 0.036421 0
4.441983 0.046999 0
4.376994 0.061915 0
4.292219 0.082683 0
4.179334 0.111176 0
4.026894 0.149417 0
3.819412 0.199186 0
3.536716 0.259984 0
3.154548 0.330053 0
2.647201 0.392223 0
2.014808 0.512274 0
1.050703 0.303694 0
0.000000 0.000000 0
-0.004730 0.000000 0
0.000000 0.000000 0
0.000000 0.000000 0
0.000000 0.000000 0
0.000000 0.000000 0
0.000000 0.000000 0
0.000000 0.000000 0
0.000000 0.000000 0
0.000000 0.000000 0
0.000000 0.000000 0
0.000000 0.000000 0
0.000000 0.000000 0
0.000000 0.000000 0
0.000000 0.000000 0
0.000000 0.000000 0
0.000000 0.000000 0
0.000000 0.000000 0
0.000000 0.000000 0
0.000000 0.000000 0
0.000000 0.000000 0
0.000000 0.000000 0
0.000000 0.000000 0
0.000000 0.000000 0
0.000000 0.000000 0
0.000000 0.000000 0
0.000000 0.000000 0
0.000000 0.000000 0
0.000000 0.000000 0
0.000000 0.000000 0
0.000000 0.000000 0
0.000000 0.000000 0
0.000000 0.000000 0
0.000000 0.000000 0
0.000000 0.000000 0
0.000000 0.000000 0
0.936089 -0.582533 0
2.634565 -1.321349 0
3.462284 -1.743378 0
4.644933 -1.901841 0
5.708316 -1.513481 0
6.431409 -0.953245 0
6.856251 -0.458117 0
7.079436 -0.094552 0
7.167543 0.144097 0
7.169401 0.284660 0
7.118209 0.353532 0
7.036191 0.371306 0
6.938209 0.354807 0
6.834356 0.317850 0
6.731594 0.271371 0
6.634610 0.223380 0
6.546256 0.179054 0
6.467845 0.141118 0
6.399481 0.110452 0
6.340432 0.086744 0
6.289498 0.069056 0
6.245310 0.056234 0
6.206541 0.047150 0
6.172017 0.040834 0
6.140757 0.036519 0
6.111964 0.033644 0
6.084998 0.031835 0
6.059319 0.030882 0
6.034436 0.030715 0
6.009853 0.031394 0
5.985001 0.033104 0
5.959172 0.036173 0
5.931424 0.041092 0
5.900469 0.048573 0
5.864512 0.059611 0
5.821022 0.075584 0
5.766415 0.098379 0
5.695576 0.130525 0
5.601154 0.175323 0
5.472533 0.236802 0
5.294196 0.319349 0
5.044031 0.425815 0
4.690187 0.555794 0
4.200131 0.695343 0
3.530290 0.856044 0
2.831620 0.996831 0
1.343162 0.522930 0
0.000000 0.000000 0
-0.005823 0.000000 0
0.000000 0.000000 0
0.000000 0.000000 0
0.000000 0.000000 0
0.000000 0.000000 0
0.000000 0.000000 0
0.000000 0.000000 0
0.000000 0.000000 0
0.000000 0.000000 0
0.000000 0.000000 0
0.000000 0.000000 0
0.000000 0.000000 0
0.000000 0.000000 0
0.000000 0.000000 0
0.000000 0.000000 0
0.000000 0.000000 0
0.000000 0.000000 0
0.000000 0.000000 0
0.000000 0.000000 0
0.000000 0.000000 0
0.000000 0.000000 0
0.000000 0.000000 0
0.000000 0.000000 0
0.000000 0.000000 0
0.000000 0.000000 0
0.000000 0.000000 0
0.000000 0.000000 0
0.000000 0.000000 0
0.000000 0.000000 0
0.000000 0.000000 0
0.000000 0.000000 0
0.000000 0.000000 0
0.000000 0.000000 0
0.738374 -0.467376 0
2.144348 -1.316874 0
3.090263 -1.776559 0
3.864730 -2.241965 0
5.207740 -2.466677 0
6.163302 -1.927645 0
6.688741 -1.201083 0
6.946514 -0.590748 0
7.065159 -0.157715 0
7.111668 0.122575 0
7.115666 0.288215 0
7.097517 0.371396 0
7.068653 0.396979 0
7.034808 0.384401 0
6.998747 0.348900 0
6.962082 0.302167 0
6.926091 0.252694 0
6.891883 0.206070 0
6.860303 0.165413 0
6.831824 0.131947 0
6.806542 0.105616 0
6.784254 0.085635 0
6.764574 0.070911 0
6.747041 0.060314 0
6.731202 0.052831 0
6.716649 0.047642 0
6.703036 0.044131 0
6.690076 0.041885 0
6.677523 0.040669 0
6.665146 0.040411 0
6.652703 0.041190 0
6.639908 0.043239 0
6.626388 0.046961 0
6.611632 0.052972 0
6.594915 0.062159 0
6.575199 0.075780 0
6.550976 0.095598 0
6.520029 0.124063 0
6.479056 0.164556 0
6.423034 0.221675 0
6.344151 0.301489 0
6.229798 0.411474 0
6.059560 0.559220 0
5.799705 0.748135 0
5.406860 0.966855 0
4.837896 1.190257 0
4.167897 1.389458 0
3.377907 1.410143 0
1.501016 0.670512 0
0.000000 0.000000 0
-0.005278 0.000000 0
0.000000 0.000000 0
0.000000 0.000000 0
0.000000 0.000000 0
0.000000 0.000000 0
0.000000 0.000000 0
0.000000 0.000000 0
0.000000 0.000000 0
0.000000 0.000000 0
0.000000 0.000000 0
0.000000 0.000000 0
0.000000 0.000000 0
0.000000 0.000000 0
0.000000 0.000000 0
0.000000 0.000000 0
0.000000 0.000000 0
0.000000 0.000000 0
0.000000 0.000000 0
0.000000 0.000000 0
0.000000 0.000000 0
0.000000 0.000000 0
0.000000 0.000000 0
0.000000 0.000000 0
0.000000 0.000000 0
0.000000 0.000000 0
0.000000 0.000000 0
0.000000 0.000000 0
0.000000 0.000000 0
0.000000 0.000000 0
0.000000 0.000000 0
0.000000 0.000000 0
0.536162 -0.369275 0
1.698522 -1.069440 0
2.545188 -1.751319 0
3.300649 -2.173655 0
4.126501 -2.792412 0
5.619028 -3.040591 0
6.352021 -2.247194 0
6.584690 -1.341261 0
6.618125 -0.644601 0
6.605924 -0.176372 0
6.591143 0.119075 0
6.581063 0.291671 0
6.579805 0.376823 0
6.586757 0.402373 0
6.599006 0.389440 0
6.613127 0.353879 0
6.626447 0.307366 0
6.637493 0.258158 0
6.645856 0.211647 0
6.651817 0.170873 0
6.655953 0.137086 0
6.658870 0.110310 0
6.661063 0.089848 0
6.662877 0.074669 0
6.664524 0.063682 0
6.666116 0.055891 0
6.667702 0.050473 0
6.669290 0.046808 0
6.670872 0.044474 0
6.672430 0.043233 0
6.673941 0.043011 0
6.675379 0.043897 0
6.676716 0.046141 0
6.677910 0.050181 0
6.678898 0.056685 0
6.679578 0.066623 0
6.679774 0.081379 0
6.679179 0.102917 0
6.677243 0.134009 0
6.672962 0.178578 0
6.664440 0.242157 0
6.648002 0.332535 0
6.616162 0.460340 0
6.553548 0.638890 0
6.428371 0.879152 0
6.184262 1.171839 0
5.772556 1.469847 0
5.221732 1.720134 0
4.581953 1.852357 0
3.671148 1.686826 0
1.556512 0.748773 0
0.000000 0.000000 0
-0.003983 0.000000 0
0.000000 0.000000 0
0.000000 0.000000 0
0.000000 0.000000 0
0.000000 0.000000 0
0.000000 0.000000 0
0.000000 0.000000 0
0.000000 0.000000 0
0.000000 0.000000 0
0.000000 0.000000 0
0.000000 0.000000 0
0.000000 0.000000 0
0.000000 0.000000 0
0.000000 0.000000 0
0.000000 0.000000 0
0.000000 0.000000 0
0.000000 0.000000 0
0.000000 0.000000 0
0.000000 0.000000 0
0.000000 0.000000 0
0.000000 0.000000 0
0.000000 0.000000 0
0.000000 0.000000 0
0.000000 0.000000 0
0.000000 0.000000 0
0.000000 0.000000 0
0.000000 0.000000 0
0.000000 0.000000 0
0.000000 0.000000 0
0.376458 -0.266954 0
1.297287 -0.846278 0
2.061396 -1.466153 0
2.754320 -2.110594 0
3.394909 -2.559968 0
4.280926 -3.390528 0
5.831081 -3.569236 0
6.151768 -2.406050 0
5.981640 -1.332916 0
5.742850 -0.601268 0
5.590371 -0.144347 0
5.514244 0.134892 0
5.501248 0.293832 0
5.531537 0.368575 0
5.587292 0.387466 0
5.655016 0.371337 0
5.724991 0.335306 0
5.791046 0.290096 0
5.849932 0.243078 0
5.900551 0.198973 0
5.943189 0.160411 0
5.978861 0.128453 0
6.008842 0.103084 0
6.034384 0.083650 0
6.056572 0.069197 0
6.076277 0.058709 0
6.094168 0.051257 0
6.110744 0.046069 0
6.126368 0.042560 0
6.141317 0.040329 0
6.155806 0.039149 0
6.170032 0.038950 0
6.184193 0.039815 0
6.198526 0.041985 0
6.213329 0.045880 0
6.229000 0.052145 0
6.246073 0.061725 0
6.265269 0.075978 0
6.287539 0.096852 0
6.314116 0.127143 0
6.346518 0.170899 0
6.386427 0.234041 0
6.435227 0.325406 0
6.492443 0.458267 0
6.551345 0.652255 0
6.587316 0.931086 0
6.526598 1.291757 0
6.297262 1.667111 0
5.922344 1.979302 0
5.433746 2.178328 0
4.793978 2.179740 0
3.768478 1.833031 0
1.542503 0.775032 0
0.000000 0.000000 0
-0.002625 0.000000 0
0.000000 0.000000 0
0.000000 0.000000 0
0.000000 0.000000 0
0.000000 0.000000 0
0.000000 0.000000 0
0.000000 0.000000 0
0.000000 0.000000 0
0.000000 0.000000 0
0.000000 0.000000 0
0.000000 0.000000 0
0.000000 0.000000 0
0.000000 0.000000 0
0.000000 0.000000 0
0.000000 0.000000 0
0.000000 0.000000 0
0.000000 0.000000 0
0.000000 0.000000 0
0.000000 0.000000 0
0.000000 0.000000 0
0.000000 0.000000 0
0.000000 0.000000 0
0.000000 0.000000 0
0.000000 0.000000 0
0.000000 0.000000 0
0.000000 0.000000 0
0.000000 0.000000 0
0.267965 -0.186452 0
0.995876 -0.643976 0
1.702402 -1.205352 0
2.319863 -1.791278 0
2.880650 -2.411964 0
3.395816 -2.929961 0
4.284514 -3.999332 0
5.744183 -3.967438 0
5.401711 -2.321783 0
4.738489 -1.138676 0
4.209791 -0.450759 0
3.920730 -0.063117 0
3.816990 0.163228 0
3.848413 0.283104 0
3.954340 0.334195 0
4.094275 0.341199 0
4.244157 0.321222 0
4.389389 0.286488 0
4.522012 0.245468 0
4.638495 0.203907 0
4.738188 0.165445 0
4.822176 0.132077 0
4.892436 0.104561 0
4.951258 0.082803 0
5.000875 0.066202 0
5.043276 0.053915 0
5.080127 0.045056 0
5.112769 0.038815 0
5.142254 0.034520 0
5.169397 0.031662 0
5.194841 0.029891 0
5.219108 0.029007 0
5.242667 0.028947 0
5.265988 0.029780 0
5.289598 0.031707 0
5.314154 0.035084 0
5.340515 0.040463 0
5.369846 0.048654 0
5.403739 0.060836 0
5.444386 0.078717 0
5.494788 0.104790 0
5.559025 0.142754 0
5.642543 0.198209 0
5.752349 0.280013 0
5.896729 0.402813 0
6.081458 0.591888 0
6.300971 0.891412 0
6.455804 1.315537 0
6.420562 1.769204 0
6.248679 2.147934 0
5.949137 2.411368 0
5.510506 2.511828 0
4.841111 2.369018 0
3.728415 1.878814 0
1.486134 0.766619 0
0.000000 0.000000 0
-0.001607 0.000000 0
0.000000 0.000000 0
0.000000 0.000000 0
0.000000 0.000000 0
0.000000 0.000000 0
0.000000 0.000000 0
0.000000 0.000000 0
0.000000 0.000000 0
0.000000 0.000000 0
0.000000 0.000000 0
0.000000 0.000000 0
0.000000 0.000000 0
0.000000 0.000000 0
0.000000 0.000000 0
0.000000 0.000000 0
0.000000 0.000000 0
0.000000 0.000000 0
0.000000 0.000000 0
0.000000 0.000000 0
0.000000 0.000000 0
0.000000 0.000000 0
0.000000 0.000000 0
0.000000 0.000000 0
0.000000 0.000000 0
0.000000 0.000000 0
0.209245 -0.131862 0
0.805427 -0.492429 0
1.468498 -0.977546 0
2.052807 -1.502204 0
2.535359 -2.049876 0
2.939344 -2.643639 0
3.298312 -3.255465 0
4.068857 -4.553949 0
5.219380 -4.122714 0
3.916940 -1.907812 0
2.775414 -0.742419 0
2.002288 -0.196136 0
1.719070 0.050253 0
1.749762 0.170719 0
1.910317 0.225786 0
2.129642 0.246770 0
2.368969 0.243887 0
2.605282 0.225133 0
2.823936 0.197652 0
3.017617 0.166685 0
3.183805 0.135981 0
3.323056 0.107975 0
3.437775 0.083994 0
3.531310 0.064503 0
3.607297 0.049361 0
3.669238 0.038063 0
3.720255 0.029934 0
3.762984 0.024281 0
3.799555 0.020479 0
3.831638 0.018014 0
3.860519 0.016507 0
3.887187 0.015702 0
3.912435 0.015455 0
3.936944 0.015725 0
3.961379 0.016565 0
3.986479 0.018123 0
4.013158 0.020655 0
4.042623 0.024555 0
4.076525 0.030403 0
4.117162 0.039049 0
4.167756 0.051744 0
4.232836 0.070349 0
4.318788 0.097699 0
4.434651 0.138266 0
4.593125 0.199478 0
4.812857 0.295221 0
5.115729 0.451987 0
5.542438 0.745628 0
5.974422 1.232509 0
6.149605 1.769724 0
6.206519 2.212854 0
6.129754 2.544031 0
5.900136 2.728674 0
5.477401 2.715909 0
4.765886 2.444169 0
3.602187 1.855356 0
1.410299 0.737467 0
0.000000 0.000000 0
-0.001119 0.000000 0
0.000000 0.000000 0
0.000000 0.000000 0
0.000000 0.000000 0
0.000000 0.000000 0
0.000000 0.000000 0
0.000000 0.000000 0
0.000000 0.000000 0
0.000000 0.000000 0
0.000000 0.000000 0
0.000000 0.000000 0
0.000000 0.000000 0
0.000000 0.000000 0
0.000000 0.000000 0
0.000000 0.000000 0
0.000000 0.000000 0
0.000000 0.000000 0
0.000000 0.000000 0
0.000000 0.000000 0
0.000000 0.000000 0
0.000000 0.000000 0
0.000000 0.000000 0
0.000000 0.000000 0
0.195338 -0.102300 0
0.724341 -0.396766 0
1.360460 -0.809415 0
1.928523 -1.261949 0
2.381659 -1.733892 0
2.709900 -2.230484 0
2.935112 -2.789943 0
3.101490 -3.489540 0
3.571649 -4.951061 0
4.021294 -3.892176 0
1.556822 -1.111001 0
0.421274 -0.190125 0
0.058248 0.072571 0
0.025372 0.061989 0
0.159683 0.068481 0
0.369970 0.094905 0
0.615433 0.106971 0
0.868076 0.105559 0
1.107719 0.095824 0
1.322508 0.082210 0
1.506679 0.067183 0
1.658961 0.052588 0
1.781156 0.039624 0
1.876908 0.028904 0
1.950699 0.020577 0
2.007108 0.014472 0
2.050335 0.010240 0
2.083938 0.007472 0
2.110757 0.005770 0
2.132950 0.004803 0
2.152093 0.004318 0
2.169312 0.004142 0
2.185413 0.004170 0
2.201006 0.004357 0
2.216608 0.004700 0
2.232747 0.005239 0
2.250045 0.006054 0
2.269328 0.007270 0
2.291738 0.009070 0
2.318892 0.011726 0
2.353106 0.015639 0
2.397713 0.021410 0
2.457552 0.029966 0
2.539712 0.042772 0
2.654759 0.062298 0
2.818802 0.092644 0
3.057406 0.143906 0
3.414707 0.230441 0
3.969743 0.466001 0
4.891977 1.014736 0
5.375904 1.654220 0
5.755400 2.157769 0
5.964895 2.563156 0
5.981620 2.835014 0
5.791545 2.930944 0
5.358363 2.807826 0
4.611605 2.433518 0
3.436448 1.789461 0
1.336562 0.699077 0
-0.000000 0.000000 0
-0.001280 0.000000 0
0.000000 0.000000 0
0.000000 0.000000 0
0.000000 0.000000 0
0.000000 0.000000 0
0.000000 0.000000 0
0.000000 0.000000 0
0.000000 0.000000 0
0.000000 0.000000 0
0.000000 0.000000 0
0.000000 0.000000 0
0.000000 0.000000 0
0.000000 0.000000 0
0.000000 0.000000 0
0.000000 0.000000 0
0.000000 0.000000 0
0.000000 0.000000 0
0.000000 0.000000 0
0.000000 0.000000 0
0.000000 0.000000 0
0.000000 0.000000 0
0.225163 -0.095085 0
0.751081 -0.355798 0
1.380119 -0.707719 0
1.940947 -1.089001 0
2.380140 -1.483465 0
2.679005 -1.889311 0
2.838747 -2.324066 0
2.878025 -2.837639 0
2.824787 -3.570816 0
2.796854 -5.009635 0
1.634877 -3.000232 0
0.000000 0.000000 0
-0.000000 0.000000 0
-0.000000 0.000000 0
0.000000 0.000000 0
0.000000 0.000000 0
0.000000 0.000000 0
0.000000 0.000000 0
0.000000 0.000000 0
0.000000 0.000000 0
0.000000 0.000000 0
0.000000 0.000000 0
0.000000 0.000000 0
0.000000 0.000000 0
0.000000 0.000000 0
0.000000 0.000000 0
0.000000 0.000000 0
0.000000 0.000000 0
0.000000 0.000000 0
0.000000 0.000000 0
0.000000 0.000000 0
0.000000 0.000000 0
0.000000 0.000000 0
0.000000 0.000000 0
0.000000 0.000000 0
0.000000 0.000000 0
0.000000 0.000000 0
0.000000 0.000000 0
0.000000 0.000000 0
0.000000 0.000000 0
0.000000 0.000000 0
0.000000 0.000000 0
0.000000 0.000000 0
0.000000 0.000000 0
0.000000 0.000000 0
0.000000 0.000000 0
0.000000 0.000000 0
0.000000 0.000000 0
0.000000 0.000000 0
0.000000 0.000000 0
2.077774 0.522110 0
3.746220 1.341970 0
4.738021 1.921058 0
5.378567 2.431958 0
5.724113 2.814555 0
5.802027 3.024680 0
5.624452 3.028731 0
5.176826 2.807504 0
4.419125 2.362468 0
3.273097 1.704941 0
1.282390 0.662133 0
-0.000000 0.000000 0
-0.002107 0.000000 0
0.000000 0.000000 0
0.000000 0.000000 0
0.000000 0.000000 0
0.000000 0.000000 0
0.000000 0.000000 0
0.000000 0.000000 0
0.000000 0.000000 0
0.000000 0.000000 0
0.000000 0.000000 0
0.000000 0.000000 0
0.000000 0.000000 0
0.000000 0.000000 0
0.000000 0.000000 0
0.000000 0.000000 0
0.000000 0.000000 0
0.000000 0.000000 0
0.000000 0.000000 0
0.000000 0.000000 0
0.308933 -0.109498 0
0.897282 -0.368357 0
1.541434 -0.672795 0
2.095987 -0.986246 0
2.519505 -1.304842 0
2.796893 -1.627595 0
2.926830 -1.961093 0
2.918678 -2.329082 0
2.785028 -2.783028 0
2.522210 -3.449327 0
2.017720 -4.378585 0
0.037591 -0.000000 0
-0.073598 2.449235 0
0.383992 0.000000 0
0.310170 0.000000 0
0.237507 0.000000 0
0.185045 0.000000 0
0.099278 0.000000 0
-0.006521 0.000000 0
-0.116643 0.000000 0
-0.219592 0.000000 0
-0.310063 0.000000 0
-0.385534 0.000000 0
-0.445673 0.000000 0
-0.491682 0.000000 0
-0.525653 0.000000 0
-0.550025 0.000000 0
-0.567188 0.000000 0
-0.579236 0.000000 0
-0.587858 0.000000 0
-0.594318 0.000000 0
-0.599505 0.000000 0
-0.604012 0.000000 0
-0.608221 0.000000 0
-0.612373 0.000000 0
-0.616639 0.000000 0
-0.621167 0.000000 0
-0.626125 0.000000 0
-0.631742 0.000000 0
-0.638346 0.000000 0
-0.646416 0.000000 0
-0.656654 0.000000 0
-0.670085 0.000000 0
-0.688221 0.000000 0
-0.713301 0.000000 0
-0.748707 0.000000 0
-0.799636 0.000000 0
-0.874456 0.000000 0
-0.986637 0.000000 0
-1.164932 0.000000 0
-1.451783 0.132352 0
0.000000 -0.000000 0
1.708545 0.339667 0
3.310707 1.349077 0
4.417507 2.074629 0
5.135515 2.625225 0
5.514997 2.980318 0
5.600804 3.117561 0
5.418443 3.030657 0
4.968567 2.732600 0
4.232066 2.254398 0
3.151965 1.622898 0
1.265689 0.635339 0
-0.000000 0.000000 0
-0.003817 0.000000 0
0.000000 0.000000 0
0.000000 0.000000 0
0.000000 0.000000 0
0.000000 0.000000 0
0.000000 0.000000 0
0.000000 0.000000 0
0.000000 0.000000 0
0.000000 0.000000 0
0.000000 0.000000 0
0.000000 0.000000 0
0.000000 0.000000 0
0.000000 0.000000 0
0.000000 0.000000 0
0.000000 0.000000 0
0.000000 0.000000 0
0.000000 0.000000 0
0.482553 -0.150469 0
1.207482 -0.439895 0