# vtk DataFile Version 2.0
generated by CFD-lab course output (written by Tobias Neckel) 
ASCII

DATASET STRUCTURED_GRID
DIMENSIONS  82 60 1 
POINTS 4920 float

-1.500000 -0.500000 0
-1.402439 -0.500000 0
-1.304878 -0.500000 0
-1.207317 -0.500000 0
-1.109756 -0.500000 0
-1.012195 -0.500000 0
-0.914634 -0.500000 0
-0.817073 -0.500000 0
-0.719512 -0.500000 0
-0.621951 -0.500000 0
-0.524390 -0.500000 0
-0.426829 -0.500000 0
-0.329268 -0.500000 0
-0.231707 -0.500000 0
-0.134146 -0.500000 0
-0.036585 -0.500000 0
0.060976 -0.500000 0
0.158537 -0.500000 0
0.256098 -0.500000 0
0.353659 -0.500000 0
0.451220 -0.500000 0
0.548780 -0.500000 0
0.646341 -0.500000 0
0.743902 -0.500000 0
0.841463 -0.500000 0
0.939024 -0.500000 0
1.036585 -0.500000 0
1.134146 -0.500000 0
1.231707 -0.500000 0
1.329268 -0.500000 0
1.426829 -0.500000 0
1.524390 -0.500000 0
1.621951 -0.500000 0
1.719512 -0.500000 0
1.817073 -0.500000 0
1.914634 -0.500000 0
2.012195 -0.500000 0
2.109756 -0.500000 0
2.207317 -0.500000 0
2.304878 -0.500000 0
2.402439 -0.500000 0
2.500000 -0.500000 0
2.597561 -0.500000 0
2.695122 -0.500000 0
2.792683 -0.500000 0
2.890244 -0.500000 0
2.987805 -0.500000 0
3.085366 -0.500000 0
3.182927 -0.500000 0
3.280488 -0.500000 0
3.378049 -0.500000 0
3.475610 -0.500000 0
3.573171 -0.500000 0
3.670732 -0.500000 0
3.768293 -0.500000 0
3.865854 -0.500000 0
3.963415 -0.500000 0
4.060976 -0.500000 0
4.158537 -0.500000 0
4.256098 -0.500000 0
4.353659 -0.500000 0
4.451220 -0.500000 0
4.548780 -0.500000 0
4.646341 -0.500000 0
4.743902 -0.500000 0
4.841463 -0.500000 0
4.939024 -0.500000 0
5.036585 -0.500000 0
5.134146 -0.500000 0
5.231707 -0.500000 0
5.329268 -0.500000 0
5.426829 -0.500000 0
5.524390 -0.500000 0
5.621951 -0.500000 0
5.719512 -0.500000 0
5.817073 -0.500000 0
5.914634 -0.500000 0
6.012195 -0.500000 0
6.109756 -0.500000 0
6.207317 -0.500000 0
6.304878 -0.500000 0
6.402439 -0.500000 0
-1.500000 -0.451667 0
-1.402439 -0.451667 0
-1.304878 -0.451667 0
-1.207317 -0.451667 0
-1.109756 -0.451667 0
-1.012195 -0.451667 0
-0.914634 -0.451667 0
-0.817073 -0.451667 0
-0.719512 -0.451667 0
-0.621951 -0.451667 0
-0.524390 -0.451667 0
-0.426829 -0.451667 0
-0.329268 -0.451667 0
-0.231707 -0.451667 0
-0.134146 -0.451667 0
-0.036585 -0.451667 0
0.060976 -0.451667 0
0.158537 -0.451667 0
0.256098 -0.451667 0
0.353659 -0.451667 0
0.451220 -0.451667 0
0.548780 -0.451667 0
0.646341 -0.451667 0
0.743902 -0.451667 0
0.841463 -0.451667 0
0.939024 -0.451667 0
1.036585 -0.451667 0
1.134146 -0.451667 0
1.231707 -0.451667 0
1.329268 -0.451667 0
1.426829 -0.451667 0
1.524390 -0.451667 0
1.621951 -0.451667 0
1.719512 -0.451667 0
1.817073 -0.451667 0
1.914634 -0.451667 0
2.012195 -0.451667 0
2.109756 -0.451667 0
2.207317 -0.451667 0
2.304878 -0.451667 0
2.402439 -0.451667 0
2.500000 -0.451667 0
2.597561 -0.451667 0
2.695122 -0.451667 0
2.792683 -0.451667 0
2.890244 -0.451667 0
2.987805 -0.451667 0
3.085366 -0.451667 0
3.182927 -0.451667 0
3.280488 -0.451667 0
3.378049 -0.451667 0
3.475610 -0.451667 0
3.573171 -0.451667 0
3.670732 -0.451667 0
3.768293 -0.451667 0
3.865854 -0.451667 0
3.963415 -0.451667 0
4.060976 -0.451667 0
4.158537 -0.451667 0
4.256098 -0.451667 0
4.353659 -0.451667 0
4.451220 -0.451667 0
4.548780 -0.451667 0
4.646341 -0.451667 0
4.743902 -0.451667 0
4.841463 -0.451667 0
4.939024 -0.451667 0
5.036585 -0.451667 0
5.134146 -0.451667 0
5.231707 -0.451667 0
5.329268 -0.451667 0
5.426829 -0.451667 0
5.524390 -0.451667 0
5.621951 -0.451667 0
5.719512 -0.451667 0
5.817073 -0.451667 0
5.914634 -0.451667 0
6.012195 -0.451667 0
6.109756 -0.451667 0
6.207317 -0.451667 0
6.304878 -0.451667 0
6.402439 -0.451667 0
-1.500000 -0.403333 0
-1.402439 -0.403333 0
-1.304878 -0.403333 0
-1.207317 -0.403333 0
-1.109756 -0.403333 0
-1.012195 -0.403333 0
-0.914634 -0.403333 0
-0.817073 -0.403333 0
-0.719512 -0.403333 0
-0.621951 -0.403333 0
-0.524390 -0.403333 0
-0.426829 -0.403333 0
-0.329268 -0.403333 0
-0.231707 -0.403333 0
-0.134146 -0.403333 0
-0.036585 -0.403333 0
0.060976 -0.403333 0
0.158537 -0.403333 0
0.256098 -0.403333 0
0.353659 -0.403333 0
0.451220 -0.403333 0
0.548780 -0.403333 0
0.646341 -0.403333 0
0.743902 -0.403333 0
0.841463 -0.403333 0
0.939024 -0.403333 0
1.036585 -0.403333 0
1.134146 -0.403333 0
1.231707 -0.403333 0
1.329268 -0.403333 0
1.426829 -0.403333 0
1.524390 -0.403333 0
1.621951 -0.403333 0
1.719512 -0.403333 0
1.817073 -0.403333 0
1.914634 -0.403333 0
2.012195 -0.403333 0
2.109756 -0.403333 0
2.207317 -0.403333 0
2.304878 -0.403333 0
2.402439 -0.403333 0
2.500000 -0.403333 0
2.597561 -0.403333 0
2.695122 -0.403333 0
2.792683 -0.403333 0
2.890244 -0.403333 0
2.987805 -0.403333 0
3.085366 -0.403333 0
3.182927 -0.403333 0
3.280488 -0.403333 0
3.378049 -0.403333 0
3.475610 -0.403333 0
3.573171 -0.403333 0
3.670732 -0.403333 0
3.768293 -0.403333 0
3.865854 -0.403333 0
3.963415 -0.403333 0
4.060976 -0.403333 0
4.158537 -0.403333 0
4.256098 -0.403333 0
4.353659 -0.403333 0
4.451220 -0.403333 0
4.548780 -0.403333 0
4.646341 -0.403333 0
4.743902 -0.403333 0
4.841463 -0.403333 0
4.939024 -0.403333 0
5.036585 -0.403333 0
5.134146 -0.403333 0
5.231707 -0.403333 0
5.329268 -0.403333 0
5.426829 -0.403333 0
5.524390 -0.403333 0
5.621951 -0.403333 0
5.719512 -0.403333 0
5.817073 -0.403333 0
5.914634 -0.403333 0
6.012195 -0.403333 0
6.109756 -0.403333 0
6.207317 -0.403333 0
6.304878 -0.403333 0
6.402439 -0.403333 0
-1.500000 -0.355000 0
-1.402439 -0.355000 0
-1.304878 -0.355000 0
-1.207317 -0.355000 0
-1.109756 -0.355000 0
-1.012195 -0.355000 0
-0.914634 -0.355000 0
-0.817073 -0.355000 0
-0.719512 -0.355000 0
-0.621951 -0.355000 0
-0.524390 -0.355000 0
-0.426829 -0.355000 0
-0.329268 -0.355000 0
-0.231707 -0.355000 0
-0.134146 -0.355000 0
-0.036585 -0.355000 0
0.060976 -0.355000 0
0.158537 -0.355000 0
0.256098 -0.355000 0
0.353659 -0.355000 0
0.451220 -0.355000 0
0.548780 -0.355000 0
0.646341 -0.355000 0
0.743902 -0.355000 0
0.841463 -0.355000 0
0.939024 -0.355000 0
1.036585 -0.355000 0
1.134146 -0.355000 0
1.231707 -0.355000 0
1.329268 -0.355000 0
1.426829 -0.355000 0
1.524390 -0.355000 0
1.621951 -0.355000 0
1.719512 -0.355000 0
1.817073 -0.355000 0
1.914634 -0.355000 0
2.012195 -0.355000 0
2.109756 -0.355000 0
2.207317 -0.355000 0
2.304878 -0.355000 0
2.402439 -0.355000 0
2.500000 -0.355000 0
2.597561 -0.355000 0
2.695122 -0.355000 0
2.792683 -0.355000 0
2.890244 -0.355000 0
2.987805 -0.355000 0
3.085366 -0.355000 0
3.182927 -0.355000 0
3.280488 -0.355000 0
3.378049 -0.355000 0
3.475610 -0.355000 0
3.573171 -0.355000 0
3.670732 -0.355000 0
3.768293 -0.355000 0
3.865854 -0.355000 0
3.963415 -0.355000 0
4.060976 -0.355000 0
4.158537 -0.355000 0
4.256098 -0.355000 0
4.353659 -0.355000 0
4.451220 -0.355000 0
4.548780 -0.355000 0
4.646341 -0.355000 0
4.743902 -0.355000 0
4.841463 -0.355000 0
4.939024 -0.355000 0
5.036585 -0.355000 0
5.134146 -0.355000 0
5.231707 -0.355000 0
5.329268 -0.355000 0
5.426829 -0.355000 0
5.524390 -0.355000 0
5.621951 -0.355000 0
5.719512 -0.355000 0
5.817073 -0.355000 0
5.914634 -0.355000 0
6.012195 -0.355000 0
6.109756 -0.355000 0
6.207317 -0.355000 0
6.304878 -0.355000 0
6.402439 -0.355000 0
-1.500000 -0.306667 0
-1.402439 -0.306667 0
-1.304878 -0.306667 0
-1.207317 -0.306667 0
-1.109756 -0.306667 0
-1.012195 -0.306667 0
-0.914634 -0.306667 0
-0.817073 -0.306667 0
-0.719512 -0.306667 0
-0.621951 -0.306667 0
-0.524390 -0.306667 0
-0.426829 -0.306667 0
-0.329268 -0.306667 0
-0.231707 -0.306667 0
-0.134146 -0.306667 0
-0.036585 -0.306667 0
0.060976 -0.306667 0
0.158537 -0.306667 0
0.256098 -0.306667 0
0.353659 -0.306667 0
0.451220 -0.306667 0
0.548780 -0.306667 0
0.646341 -0.306667 0
0.743902 -0.306667 0
0.841463 -0.306667 0
0.939024 -0.306667 0
1.036585 -0.306667 0
1.134146 -0.306667 0
1.231707 -0.306667 0
1.329268 -0.306667 0
1.426829 -0.306667 0
1.524390 -0.306667 0
1.621951 -0.306667 0
1.719512 -0.306667 0
1.817073 -0.306667 0
1.914634 -0.306667 0
2.012195 -0.306667 0
2.109756 -0.306667 0
2.207317 -0.306667 0
2.304878 -0.306667 0
2.402439 -0.306667 0
2.500000 -0.306667 0
2.597561 -0.306667 0
2.695122 -0.306667 0
2.792683 -0.306667 0
2.890244 -0.306667 0
2.987805 -0.306667 0
3.085366 -0.306667 0
3.182927 -0.306667 0
3.280488 -0.306667 0
3.378049 -0.306667 0
3.475610 -0.306667 0
3.573171 -0.306667 0
3.670732 -0.306667 0
3.768293 -0.306667 0
3.865854 -0.306667 0
3.963415 -0.306667 0
4.060976 -0.306667 0
4.158537 -0.306667 0
4.256098 -0.306667 0
4.353659 -0.306667 0
4.451220 -0.306667 0
4.548780 -0.306667 0
4.646341 -0.306667 0
4.743902 -0.306667 0
4.841463 -0.306667 0
4.939024 -0.306667 0
5.036585 -0.306667 0
5.134146 -0.306667 0
5.231707 -0.306667 0
5.329268 -0.306667 0
5.426829 -0.306667 0
5.524390 -0.306667 0
5.621951 -0.306667 0
5.719512 -0.306667 0
5.817073 -0.306667 0
5.914634 -0.306667 0
6.012195 -0.306667 0
6.109756 -0.306667 0
6.207317 -0.306667 0
6.304878 -0.306667 0
6.402439 -0.306667 0
-1.500000 -0.258333 0
-1.402439 -0.258333 0
-1.304878 -0.258333 0
-1.207317 -0.258333 0
-1.109756 -0.258333 0
-1.012195 -0.258333 0
-0.914634 -0.258333 0
-0.817073 -0.258333 0
-0.719512 -0.258333 0
-0.621951 -0.258333 0
-0.524390 -0.258333 0
-0.426829 -0.258333 0
-0.329268 -0.258333 0
-0.231707 -0.258333 0
-0.134146 -0.258333 0
-0.036585 -0.258333 0
0.060976 -0.258333 0
0.158537 -0.258333 0
0.256098 -0.258333 0
0.353659 -0.258333 0
0.451220 -0.258333 0
0.548780 -0.258333 0
0.646341 -0.258333 0
0.743902 -0.258333 0
0.841463 -0.258333 0
0.939024 -0.258333 0
1.036585 -0.258333 0
1.134146 -0.258333 0
1.231707 -0.258333 0
1.329268 -0.258333 0
1.426829 -0.258333 0
1.524390 -0.258333 0
1.621951 -0.258333 0
1.719512 -0.258333 0
1.817073 -0.258333 0
1.914634 -0.258333 0
2.012195 -0.258333 0
2.109756 -0.258333 0
2.207317 -0.258333 0
2.304878 -0.258333 0
2.402439 -0.258333 0
2.500000 -0.258333 0
2.597561 -0.258333 0
2.695122 -0.258333 0
2.792683 -0.258333 0
2.890244 -0.258333 0
2.987805 -0.258333 0
3.085366 -0.258333 0
3.182927 -0.258333 0
3.280488 -0.258333 0
3.378049 -0.258333 0
3.475610 -0.258333 0
3.573171 -0.258333 0
[...]
POINT_DATA 4920 

VECTORS velocity float
0.000000 0.000000 0
0.000000 0.000000 0
0.000000 0.000000 0
0.000000 0.000000 0
0.000000 0.000000 0
0.000000 0.000000 0
0.000000 0.000000 0
0.000000 0.000000 0
0.000000 0.000000 0
0.000000 0.000000 0
0.000000 0.000000 0
0.000000 0.000000 0
0.000000 0.000000 0
0.000000 0.000000 0
0.000000 0.000000 0
0.000000 0.000000 0
0.000000 0.000000 0
0.000000 0.000000 0
0.000000 0.000000 0
0.000000 0.000000 0
0.000000 0.000000 0
0.000000 0.000000 0
0.000000 0.000000 0
0.000000 0.000000 0
0.000000 0.000000 0
0.000000 0.000000 0
0.000001 0.000000 0
0.000000 0.000000 0
0.000000 0.000000 0
0.000000 0.000000 0
0.000000 0.000000 0
0.000000 0.000000 0
0.000000 0.000000 0
0.000000 0.000000 0
0.000000 0.000000 0
0.000000 0.000000 0
0.000000 0.000000 0
0.000000 0.000000 0
0.000000 0.000000 0
0.000000 0.000000 0
0.000000 0.000000 0
0.000000 0.000000 0
0.000000 0.000000 0
0.000000 0.000000 0
0.000000 0.000000 0
0.000000 0.000000 0
0.000000 0.000000 0
0.000000 0.000000 0
0.000000 0.000000 0
0.000000 0.000000 0
0.000000 0.000000 0
0.000000 0.000000 0
0.000000 0.000000 0
0.000000 0.000000 0
0.000000 0.000000 0
0.000000 0.000000 0
0.000000 0.000000 0
0.001916 0.000000 0
0.000000 0.000000 0
0.000000 0.000000 0
0.000000 0.000000 0
0.000000 0.000000 0
0.000000 0.000000 0
0.000000 0.000000 0
0.000000 0.000000 0
0.000000 0.000000 0
0.000000 0.000000 0
0.000000 0.000000 0
0.000000 0.000000 0
0.000000 0.000000 0
0.000000 0.000000 0
0.000000 0.000000 0
0.000000 0.000000 0
0.000000 0.000000 0
0.000000 0.000000 0
0.000000 0.000000 0
0.000000 0.000000 0
0.000000 0.000000 0
0.000000 0.000000 0
0.000000 0.000000 0
0.000000 0.000000 0
0.000000 0.000000 0
0.000000 0.000000 0
0.000000 0.000000 0
0.000000 0.000000 0
0.000000 0.000000 0
0.000000 0.000000 0
0.000000 0.000000 0
0.000000 0.000000 0
0.000000 0.000000 0
0.000000 0.000000 0
0.000000 0.000000 0
0.000000 0.000000 0
0.000000 0.000000 0
0.000000 0.000000 0
0.000000 0.000000 0
1.046391 -0.422528 0
2.518293 -0.738205 0
3.779760 -0.505135 0
4.622761 -0.265392 0
5.056207 -0.070115 0
5.167162 0.061934 0
5.063272 0.139737 0
4.829792 0.177741 0
4.530857 0.186509 0
4.213349 0.175012 0
3.909558 0.151125 0
3.639266 0.121588 0
3.411910 0.091702 0
3.229078 0.065050 0
3.087177 0.043475 0
2.979886 0.027388 0
2.900062 0.016252 0
2.840963 0.009091 0
2.796863 0.004848 0
2.763235 0.002597 0
2.736689 0.001619 0
2.714788 0.001398 0
2.695837 0.001593 0
2.678679 0.001995 0
2.662519 0.002492 0
2.646781 0.003043 0
2.630990 0.003653 0
2.614676 0.004369 0
2.597280 0.005267 0
2.578076 0.006459 0
2.556064 0.008094 0
2.529853 0.010375 0
2.497506 0.013567 0
2.456335 0.018021 0
2.402636 0.024184 0
2.331357 0.032602 0
2.235736 0.043878 0
2.106942 0.058493 0
1.934129 0.076508 0
1.704873 0.096432 0
1.409338 0.115115 0
1.038648 0.130693 0
0.616603 0.068841 0
0.000000 0.000000 0
-0.001572 0.000000 0
0.000000 0.000000 0
0.000000 0.000000 0
0.000000 0.000000 0
0.000000 0.000000 0
0.000000 0.000000 0
0.000000 0.000000 0
0.000000 0.000000 0
0.000000 0.000000 0
0.000000 0.000000 0
0.000000 0.000000 0
0.000000 0.000000 0
0.000000 0.000000 0
0.000000 0.000000 0
0.000000 0.000000 0
0.000000 0.000000 0
0.000000 0.000000 0
0.000000 0.000000 0
0.000000 0.000000 0
0.000000 0.000000 0
0.000000 0.000000 0
0.000000 0.000000 0
0.000000 0.000000 0
0.000000 0.000000 0
0.000000 0.000000 0
0.000000 0.000000 0
0.000000 0.000000 0
0.000000 0.000000 0
0.000000 0.000000 0
0.000000 0.000000 0
0.000000 0.000000 0
0.000000 0.000000 0
0.000000 0.000000 0
0.000000 0.000000 0
0.000000 0.000000 0
0.000000 0.000000 0
0.000000 0.000000 0
1.159601 -0.516994 0
2.653738 -1.245992 0
3.828566 -1.353949 0
5.002522 -1.042589 0
5.863897 -0.632373 0
6.390943 -0.269706 0
6.647083 -0.003501 0
6.706823 0.167139 0
6.638300 0.263767 0
6.491026 0.305397 0
6.301178 0.307802 0
6.094812 0.284410 0
5.890042 0.246543 0
5.698648 0.203214 0
5.527368 0.160878 0
5.379045 0.123454 0
5.253693 0.092700 0
5.149475 0.068825 0
5.063550 0.051127 0
4.992735 0.038508 0
4.933950 0.029811 0
4.884476 0.024001 0
4.842053 0.020239 0
4.804881 0.017889 0
4.771560 0.016507 0
4.741000 0.015803 0
4.712332 0.015620 0
4.684807 0.015906 0
4.657707 0.016701 0
4.630256 0.018132 0
4.601515 0.020419 0
4.570275 0.023891 0
4.534906 0.029010 0
4.493169 0.036422 0
4.441963 0.047000 0
4.376973 0.061916 0
4.292195 0.082685 0
4.179306 0.111179 0
4.026863 0.149421 0
3.819374 0.199192 0
3.536670 0.259990 0
3.154490 0.330059 0
2.647132 0.392225 0
2.014723 0.512255 0
1.050640 0.303676 0
0.000000 0.000000 0
-0.004729 0.000000 0
0.000000 0.000000 0
0.000000 0.000000 0
0.000000 0.000000 0
0.000000 0.000000 0
0.000000 0.000000 0
0.000000 0.000000 0
0.000000 0.000000 0
0.000000 0.000000 0
0.000000 0.000000 0
0.000000 0.000000 0
0.000000 0.000000 0
0.000000 0.000000 0
0.000000 0.000000 0
0.000000 0.000000 0
0.000000 0.000000 0
0.000000 0.000000 0
0.000000 0.000000 0
0.000000 0.000000 0
0.000000 0.000000 0
0.000000 0.000000 0
0.000000 0.000000 0
0.000000 0.000000 0
0.000000 0.000000 0
0.000000 0.000000 0
0.000000 0.000000 0
0.000000 0.000000 0
0.000000 0.000000 0
0.000000 0.000000 0
0.000000 0.000000 0
0.000000 0.000000 0
0.000000 0.000000 0
0.000000 0.000000 0
0.000000 0.000000 0
0.000000 0.000000 0
0.936086 -0.582531 0
2.634555 -1.321345 0
3.462270 -1.743372 0
4.644913 -1.901831 0
5.708288 -1.513472 0
6.431375 -0.953239 0
6.856215 -0.458118 0
7.079401 -0.094558 0
7.167512 0.144088 0
7.169376 0.284650 0
7.118190 0.353525 0
7.036177 0.371303 0
6.938197 0.354808 0
6.834345 0.317854 0
6.731581 0.271377 0
6.634594 0.223386 0
6.546237 0.179058 0
6.467823 0.141121 0
6.399458 0.110452 0
6.340408 0.086742 0
6.289474 0.069053 0
6.245288 0.056230 0
6.206521 0.047146 0
6.171999 0.040831 0
6.140740 0.036516 0
6.111949 0.033642 0
6.084984 0.031834 0
6.059305 0.030882 0
6.034422 0.030716 0
6.009838 0.031395 0
5.984987 0.033106 0
5.959157 0.036174 0
5.931408 0.041094 0
5.900452 0.048575 0
5.864494 0.059613 0
5.821003 0.075587 0
5.766394 0.098382 0
5.695553 0.130529 0
5.601127 0.175328 0
5.472503 0.236809 0
5.294160 0.319358 0
5.043985 0.425826 0
4.690129 0.555807 0
4.200055 0.695353 0
3.530193 0.856037 0
2.831483 0.996789 0
1.343066 0.522899 0
0.000000 0.000000 0
-0.005821 0.000000 0
0.000000 0.000000 0
0.000000 0.000000 0
0.000000 0.000000 0
0.000000 0.000000 0
0.000000 0.000000 0
0.000000 0.000000 0
0.000000 0.000000 0
0.000000 0.000000 0
0.000000 0.000000 0
0.000000 0.000000 0
0.000000 0.000000 0
0.000000 0.000000 0
0.000000 0.000000 0
0.000000 0.000000 0
0.000000 0.000000 0
0.000000 0.000000 0
0.000000 0.000000 0
0.000000 0.000000 0
0.000000 0.000000 0
0.000000 0.000000 0
0.000000 0.000000 0
0.000000 0.000000 0
0.000000 0.000000 0
0.000000 0.000000 0
0.000000 0.000000 0
0.000000 0.000000 0
0.000000 0.000000 0
0.000000 0.000000 0
0.000000 0.000000 0
0.000000 0.000000 0
0.000000 0.000000 0
0.000000 0.000000 0
0.738372 -0.467375 0
2.144341 -1.316870 0
3.090250 -1.776553 0
3.864715 -2.241956 0
5.207718 -2.466664 0
6.163272 -1.927632 0
6.688705 -1.201075 0
6.946475 -0.590748 0
7.065120 -0.157722 0
7.111633 0.122563 0
7.115637 0.288202 0
7.097492 0.371386 0
7.068634 0.396974 0
7.034791 0.384401 0
6.998731 0.348904 0
6.962067 0.302174 0
6.926076 0.252700 0
6.891867 0.206075 0
6.860285 0.165417 0
6.831806 0.131948 0
6.806523 0.105614 0
6.784236 0.085632 0
6.764556 0.070908 0
6.747025 0.060310 0
6.731186 0.052828 0
6.716634 0.047639 0
6.703021 0.044129 0
6.690062 0.041884 0
6.677509 0.040669 0
6.665132 0.040412 0
6.652689 0.041192 0
6.639894 0.043241 0
6.626374 0.046963 0
6.611617 0.052974 0
6.594899 0.062161 0
6.575183 0.075782 0
6.550959 0.095600 0
6.520011 0.124066 0
6.479037 0.164561 0
6.423014 0.221682 0
6.344128 0.301498 0
6.229770 0.411486 0
6.059524 0.559237 0
5.799658 0.748156 0
5.406792 0.966877 0
4.837797 1.190269 0
4.167745 1.389439 0
3.377694 1.410074 0
1.500873 0.670464 0
0.000000 0.000000 0
-0.005274 0.000000 0
0.000000 0.000000 0
0.000000 0.000000 0
0.000000 0.000000 0
0.000000 0.000000 0
0.000000 0.000000 0
0.000000 0.000000 0
0.000000 0.000000 0
0.000000 0.000000 0
0.000000 0.000000 0
0.000000 0.000000 0
0.000000 0.000000 0
0.000000 0.000000 0
0.000000 0.000000 0
0.000000 0.000000 0
0.000000 0.000000 0
0.000000 0.000000 0
0.000000 0.000000 0
0.000000 0.000000 0
0.000000 0.000000 0
0.000000 0.000000 0
0.000000 0.000000 0
0.000000 0.000000 0
0.000000 0.000000 0
0.000000 0.000000 0
0.000000 0.000000 0
0.000000 0.000000 0
0.000000 0.000000 0
0.000000 0.000000 0
0.000000 0.000000 0
0.000000 0.000000 0
0.536160 -0.369274 0
1.698515 -1.069436 0
2.545177 -1.751313 0
3.300635 -2.173647 0
4.126485 -2.792401 0
5.619005 -3.040575 0
6.351992 -2.247178 0
6.584657 -1.341251 0
6.618089 -0.644600 0
6.605886 -0.176380 0
6.591107 0.119061 0
6.581031 0.291656 0
6.579778 0.376811 0
6.586733 0.402366 0
6.598985 0.389439 0
6.613108 0.353883 0
6.626429 0.307372 0
6.637476 0.258164 0
6.645841 0.211652 0
6.651802 0.170876 0
6.655938 0.137087 0
6.658855 0.110309 0
6.661048 0.089845 0
6.662862 0.074665 0
6.664509 0.063678 0
6.666102 0.055887 0
6.667687 0.050470 0
6.669275 0.046806 0
6.670858 0.044474 0
6.672415 0.043233 0
6.673926 0.043012 0
6.675364 0.043898 0
6.676701 0.046143 0
6.677895 0.050183 0
6.678883 0.056687 0
6.679563 0.066625 0
6.679759 0.081381 0
6.679164 0.102919 0
6.677228 0.134013 0
6.672947 0.178583 0
6.664424 0.242164 0
6.647985 0.332545 0
6.616144 0.460355 0
6.553526 0.638911 0
6.428339 0.879181 0
6.184210 1.171875 0
5.772466 1.469882 0
5.221577 1.720148 0
4.581710 1.852319 0
3.670829 1.686718 0
1.556313 0.748701 0
0.000000 0.000000 0
-0.003979 0.000000 0
0.000000 0.000000 0
0.000000 0.000000 0
0.000000 0.000000 0
0.000000 0.000000 0
0.000000 0.000000 0
0.000000 0.000000 0
0.000000 0.000000 0
0.000000 0.000000 0
0.000000 0.000000 0
0.000000 0.000000 0
0.000000 0.000000 0
0.000000 0.000000 0
0.000000 0.000000 0
0.000000 0.000000 0
0.000000 0.000000 0
0.000000 0.000000 0
0.000000 0.000000 0
0.000000 0.000000 0
0.000000 0.000000 0
0.000000 0.000000 0
0.000000 0.000000 0
0.000000 0.000000 0
0.000000 0.000000 0
0.000000 0.000000 0
0.000000 0.000000 0
0.000000 0.000000 0
0.000000 0.000000 0
0.000000 0.000000 0
0.376456 -0.266953 0
1.297280 -0.846275 0
2.061386 -1.466147 0
2.754307 -2.110587 0
3.394895 -2.559959 0
4.280909 -3.390516 0
5.831061 -3.569217 0
6.151745 -2.406032 0
5.981615 -1.332904 0
5.742822 -0.601266 0
5.590340 -0.144355 0
5.514213 0.134877 0
5.501218 0.293815 0
5.531509 0.368561 0
5.587266 0.387458 0
5.654992 0.371335 0
5.724969 0.335308 0
5.791026 0.290101 0
5.849914 0.243084 0
5.900535 0.198978 0
5.943175 0.160414 0
5.978847 0.128454 0
6.008828 0.103083 0
6.034370 0.083647 0
6.056557 0.069193 0
6.076261 0.058705 0
6.094152 0.051254 0
6.110727 0.046066 0
6.126351 0.042558 0
6.141298 0.040328 0
6.155787 0.039149 0
6.170013 0.038951 0
6.184174 0.039817 0
6.198507 0.041987 0
6.213311 0.045882 0
6.228982 0.052147 0
6.246056 0.061727 0
6.265252 0.075980 0
6.287523 0.096854 0
6.314101 0.127146 0
6.346504 0.170904 0
6.386414 0.234048 0
6.435216 0.325417 0
6.492432 0.458283 0
6.551335 0.652278 0
6.587303 0.931121 0
6.526569 1.291808 0
6.297194 1.667174 0
5.922199 1.979359 0
5.433489 2.178340 0
4.793602 2.179666 0
3.768031 1.832868 0
1.542252 0.774932 0
0.000000 0.000000 0
-0.002620 0.000000 0
0.000000 0.000000 0
0.000000 0.000000 0
0.000000 0.000000 0
0.000000 0.000000 0
0.000000 0.000000 0
0.000000 0.000000 0
0.000000 0.000000 0
0.000000 0.000000 0
0.000000 0.000000 0
0.000000 0.000000 0
0.000000 0.000000 0
0.000000 0.000000 0
0.000000 0.000000 0
0.000000 0.000000 0
0.000000 0.000000 0
0.000000 0.000000 0
0.000000 0.000000 0
0.000000 0.000000 0
0.000000 0.000000 0
0.000000 0.000000 0
0.000000 0.000000 0
0.000000 0.000000 0
0.000000 0.000000 0
0.000000 0.000000 0
0.000000 0.000000 0
0.000000 0.000000 0
0.267962 -0.186451 0
0.995868 -0.643973 0
1.702391 -1.205347 0
2.319850 -1.791272 0
2.880636 -2.411956 0
3.395803 -2.929952 0
4.284499 -3.999318 0
5.744169 -3.967418 0
5.401699 -2.321764 0
4.738480 -1.138664 0
4.209781 -0.450756 0
3.920718 -0.063123 0
3.816974 0.163213 0
3.848393 0.283087 0
3.954317 0.334181 0
4.094250 0.341191 0
4.244132 0.321219 0
4.389366 0.286489 0
4.521991 0.245472 0
4.638477 0.203912 0
4.738172 0.165449 0
4.822162 0.132079 0
4.892423 0.104561 0
4.951245 0.082802 0
5.000861 0.066199 0
5.043261 0.053912 0
5.080109 0.045053 0
5.112749 0.038812 0
5.142233 0.034518 0
5.169375 0.031661 0
5.194817 0.029890 0
5.219084 0.029007 0
5.242644 0.028948 0
5.265964 0.029781 0
5.289575 0.031708 0
5.314132 0.035086 0
5.340494 0.040464 0
5.369826 0.048656 0
5.403720 0.060838 0
5.444368 0.078719 0
5.494773 0.104793 0
5.559011 0.142758 0
5.642531 0.198215 0
5.752341 0.280022 0
5.896726 0.402828 0
6.081460 0.591911 0
6.300977 0.891450 0
6.455806 1.315599 0
6.420530 1.769297 0
6.248559 2.148042 0
5.948881 2.411445 0
5.510098 2.511813 0
4.840579 2.368879 0
3.727853 1.878585 0
1.485857 0.766492 0
-0.000000 0.000000 0
-0.001602 0.000000 0
0.000000 0.000000 0
0.000000 0.000000 0
0.000000 0.000000 0
0.000000 0.000000 0
0.000000 0.000000 0
0.000000 0.000000 0
0.000000 0.000000 0
0.000000 0.000000 0
0.000000 0.000000 0
0.000000 0.000000 0
0.000000 0.000000 0
0.000000 0.000000 0
0.000000 0.000000 0
0.000000 0.000000 0
0.000000 0.000000 0
0.000000 0.000000 0
0.000000 0.000000 0
0.000000 0.000000 0
0.000000 0.000000 0
0.000000 0.000000 0
0.000000 0.000000 0
0.000000 0.000000 0
0.000000 0.000000 0
0.000000 0.000000 0
0.209242 -0.131861 0
0.805419 -0.492426 0
1.468487 -0.977542 0
2.052794 -1.502198 0
2.535346 -2.049870 0
2.939331 -2.643631 0
3.298300 -3.255456 0
4.068845 -4.553935 0
5.219374 -4.122697 0
3.916943 -1.907797 0
2.775427 -0.742408 0
2.002306 -0.196133 0
1.719085 0.050248 0
1.749768 0.170708 0
1.910312 0.225773 0
2.129629 0.246759 0
2.368950 0.243879 0
2.605260 0.225130 0
2.823914 0.197652 0
3.017598 0.166687 0
3.183789 0.135984 0
3.323043 0.107977 0
3.437765 0.083996 0
3.531301 0.064504 0
3.607287 0.049361 0
3.669226 0.038061 0
3.720241 0.029932 0
3.762967 0.024279 0
3.799536 0.020477 0
3.831617 0.018013 0
3.860496 0.016507 0
3.887164 0.015702 0
3.912411 0.015455 0
3.936920 0.015726 0
3.961356 0.016566 0
3.986457 0.018124 0
4.013137 0.020656 0
4.042603 0.024556 0
4.076507 0.030404 0
4.117146 0.039050 0
4.167741 0.051745 0
4.232823 0.070350 0
4.318777 0.097702 0
4.434644 0.138270 0
4.593122 0.199485 0
4.812862 0.295232 0
5.115745 0.452006 0
5.542469 0.745664 0
5.974464 1.232579 0
6.149629 1.769847 0
6.206447 2.213022 0
6.129515 2.544186 0
5.899708 2.728737 0
5.476814 2.715821 0
4.765215 2.443936 0
3.601567 1.855068 0
1.410035 0.737327 0
-0.000000 0.000000 0
-0.001115 0.000000 0
0.000000 0.000000 0
0.000000 0.000000 0
0.000000 0.000000 0
0.000000 0.000000 0
0.000000 0.000000 0
0.000000 0.000000 0
0.000000 0.000000 0
0.000000 0.000000 0
0.000000 0.000000 0
0.000000 0.000000 0
0.000000 0.000000 0
0.000000 0.000000 0
0.000000 0.000000 0
0.000000 0.000000 0
0.000000 0.000000 0
0.000000 0.000000 0
0.000000 0.000000 0
0.000000 0.000000 0
0.000000 0.000000 0
0.000000 0.000000 0
0.000000 0.000000 0
0.000000 0.000000 0
0.195336 -0.102299 0
0.724334 -0.396763 0
1.360449 -0.809410 0
1.928510 -1.261943 0
2.381647 -1.733886 0
2.709888 -2.230477 0
2.935101 -2.789936 0
3.101480 -3.489532 0
3.571641 -4.951050 0
4.021294 -3.892163 0
1.556841 -1.110992 0
0.421307 -0.190120 0
0.058289 0.072574 0
0.025412 0.061988 0
0.159714 0.068476 0
0.369988 0.094898 0
0.615438 0.106964 0
0.868071 0.105555 0
1.107709 0.095822 0
1.322497 0.082211 0
1.506670 0.067184 0
1.658956 0.052589 0
1.781154 0.039625 0
1.876908 0.028905 0
1.950699 0.020577 0
2.007109 0.014471 0
2.050334 0.010240 0
2.083935 0.007471 0
2.110752 0.005769 0
2.132943 0.004802 0
2.152085 0.004318 0
2.169303 0.004142 0
2.185404 0.004170 0
2.200996 0.004357 0
2.216600 0.004700 0
2.232738 0.005240 0
2.250038 0.006055 0
2.269322 0.007270 0
2.291732 0.009070 0
2.318888 0.011726 0
2.353103 0.015639 0
2.397711 0.021410 0
2.457551 0.029967 0
2.539714 0.042773 0
2.654763 0.062300 0
2.818812 0.092647 0
3.057424 0.143912 0
3.414738 0.230451 0
3.969798 0.466026 0
4.892077 1.014802 0
5.376025 1.654369 0
5.755420 2.158007 0
5.964706 2.563409 0
5.981190 2.835173 0
5.790917 2.930926 0
5.357622 2.807614 0
4.610869 2.433182 0
3.435865 1.789143 0
1.336364 0.698944 0
-0.000000 0.000000 0
-0.001276 0.000000 0
0.000000 0.000000 0
0.000000 0.000000 0
0.000000 0.000000 0
0.000000 0.000000 0
0.000000 0.000000 0
0.000000 0.000000 0
0.000000 0.000000 0
0.000000 0.000000 0
0.000000 0.000000 0
0.000000 0.000000 0
0.000000 0.000000 0
0.000000 0.000000 0
0.000000 0.000000 0
0.000000 0.000000 0
0.000000 0.000000 0
0.000000 0.000000 0
0.000000 0.000000 0
0.000000 0.000000 0
0.000000 0.000000 0
0.000000 0.000000 0
0.225161 -0.095083 0
0.751074 -0.355795 0
1.380109 -0.707714 0
1.940936 -1.088995 0
2.380129 -1.483460 0
2.678994 -1.889305 0
2.838737 -2.324060 0
2.878016 -2.837633 0
2.824780 -3.570809 0
2.796849 -5.009626 0
1.634879 -3.000228 0
0.000000 0.000000 0
0.000000 0.000000 0
0.000000 0.000000 0
0.000000 0.000000 0
0.000000 0.000000 0
0.000000 0.000000 0
0.000001 0.000000 0
0.000000 0.000000 0
0.000000 0.000000 0
0.000000 0.000000 0
0.000000 0.000000 0
0.000000 0.000000 0
0.000000 0.000000 0
0.000000 0.000000 0
0.000000 0.000000 0
0.000000 0.000000 0
0.000000 0.000000 0
0.000000 0.000000 0
0.000000 0.000000 0
0.000000 0.000000 0
0.000000 0.000000 0
0.000000 0.000000 0
0.000000 0.000000 0
0.000000 0.000000 0
0.000000 0.000000 0
0.000000 0.000000 0
0.000000 0.000000 0
0.000000 0.000000 0
0.000000 0.000000 0
0.000000 0.000000 0
0.000000 0.000000 0
0.000000 0.000000 0
0.000000 0.000000 0
0.000000 0.000000 0
0.000000 0.000000 0
0.000000 0.000000 0
0.000000 0.000000 0
0.000000 0.000000 0
0.000000 0.000000 0
2.077841 0.522145 0
3.746474 1.342133 0
4.738189 1.921380 0
5.378471 2.432336 0
5.723707 2.814835 0
5.801370 3.024747 0
5.623654 3.028551 0
5.176017 2.807139 0
4.418442 2.362052 0
3.272671 1.704642 0
1.282313 0.662033 0
-0.000000 0.000000 0
-0.002105 0.000000 0
0.000000 0.000000 0
0.000000 0.000000 0
0.000000 0.000000 0
0.000000 0.000000 0
0.000000 0.000000 0
0.000000 0.000000 0
0.000000 0.000000 0
0.000000 0.000000 0
0.000000 0.000000 0
0.000000 0.000000 0
0.000000 0.000000 0
0.000000 0.000000 0
0.000000 0.000000 0
0.000000 0.000000 0
0.000000 0.000000 0
0.000000 0.000000 0
0.000000 0.000000 0
0.000000 0.000000 0
0.308931 -0.109497 0
0.897275 -0.368354 0
1.541425 -0.672790 0
2.095977 -0.986240 0
2.519495 -1.304836 0
2.796884 -1.627589 0
2.926822 -1.961088 0
2.918670 -2.329076 0
2.785022 -2.783022 0
2.522205 -3.449320 0
2.017717 -4.378579 0
0.037591 -0.000001 0
-0.073612 2.449231 0
0.383972 0.000000 0
0.310146 0.000000 0
0.237482 0.000000 0
0.185023 0.000000 0
0.099263 0.000000 0
-0.006528 0.000000 0
-0.116644 0.000000 0
-0.219591 0.000000 0
-0.310062 0.000000 0
-0.385533 0.000000 0
-0.445674 0.000000 0
-0.491685 0.000000 0
-0.525657 0.000000 0
-0.550030 0.000000 0
-0.567192 0.000000 0
-0.579240 0.000000 0
-0.587861 0.000000 0
-0.594320 0.000000 0
-0.599506 0.000000 0
-0.604014 0.000000 0
-0.608222 0.000000 0
-0.612374 0.000000 0
-0.616640 0.000000 0
-0.621168 0.000000 0
-0.626127 0.000000 0
-0.631744 0.000000 0
-0.638348 0.000000 0
-0.646418 0.000000 0
-0.656656 0.000000 0
-0.670088 0.000000 0
-0.688224 0.000000 0
-0.713305 0.000000 0
-0.748712 0.000000 0
-0.799642 0.000000 0
-0.874465 0.000000 0
-0.986650 0.000000 0
-1.164952 0.000000 0
-1.451816 0.132395 0
0.000000 -0.000001 0
1.708909 0.339767 0
3.311045 1.349488 0
4.417527 2.075166 0
5.135147 2.625661 0
5.514320 2.980493 0
5.599954 3.117424 0
5.417573 3.030265 0
4.967824 2.732093 0
4.231579 2.253957 0
3.151816 1.622677 0
1.265780 0.635299 0
-0.000000 0.000000 0
-0.003817 0.000000 0
0.000000 0.000000 0
0.000000 0.000000 0
0.000000 0.000000 0
0.000000 0.000000 0
0.000000 0.000000 0
0.000000 0.000000 0
0.000000 0.000000 0
0.000000 0.000000 0
0.000000 0.000000 0
0.000000 0.000000 0
0.000000 0.000000 0
0.000000 0.000000 0
0.000000 0.000000 0
0.000000 0.000000 0
0.000000 0.000000 0
0.000000 0.000000 0
0.482551 -0.150468 0
1.207477 -0.439892 0