# vtk DataFile Version 2.0
generated by CFD-lab course output (written by Tobias Neckel) 
ASCII

DATASET STRUCTURED_GRID
DIMENSIONS  82 60 1 
POINTS 4920 float

-1.500000 -0.500000 0
-1.402439 -0.500000 0
-1.304878 -0.500000 0
-1.207317 -0.500000 0
-1.109756 -0.500000 0
-1.012195 -0.500000 0
-0.914634 -0.500000 0
-0.817073 -0.500000 0
-0.719512 -0.500000 0
-0.621951 -0.500000 0
-0.524390 -0.500000 0
-0.426829 -0.500000 0
-0.329268 -0.500000 0
-0.231707 -0.500000 0
-0.134146 -0.500000 0
-0.036585 -0.500000 0
0.060976 -0.500000 0
0.158537 -0.500000 0
0.256098 -0.500000 0
0.353659 -0.500000 0
0.451220 -0.500000 0
0.548780 -0.500000 0
0.646341 -0.500000 0
0.743902 -0.500000 0
0.841463 -0.500000 0
0.939024 -0.500000 0
1.036585 -0.500000 0
1.134146 -0.500000 0
1.231707 -0.500000 0
1.329268 -0.500000 0
1.426829 -0.500000 0
1.524390 -0.500000 0
1.621951 -0.500000 0
1.719512 -0.500000 0
1.817073 -0.500000 0
1.914634 -0.500000 0
2.012195 -0.500000 0
2.109756 -0.500000 0
2.207317 -0.500000 0
2.304878 -0.500000 0
2.402439 -0.500000 0
2.500000 -0.500000 0
2.597561 -0.500000 0
2.695122 -0.500000 0
2.792683 -0.500000 0
2.890244 -0.500000 0
2.987805 -0.500000 0
3.085366 -0.500000 0
3.182927 -0.500000 0
3.280488 -0.500000 0
3.378049 -0.500000 0
3.475610 -0.500000 0
3.573171 -0.500000 0
3.670732 -0.500000 0
3.768293 -0.500000 0
3.865854 -0.500000 0
3.963415 -0.500000 0
4.060976 -0.500000 0
4.158537 -0.500000 0
4.256098 -0.500000 0
4.353659 -0.500000 0
4.451220 -0.500000 0
4.548780 -0.500000 0
4.646341 -0.500000 0
4.743902 -0.500000 0
4.841463 -0.500000 0
4.939024 -0.500000 0
5.036585 -0.500000 0
5.134146 -0.500000 0
5.231707 -0.500000 0
5.329268 -0.500000 0
5.426829 -0.500000 0
5.524390 -0.500000 0
5.621951 -0.500000 0
5.719512 -0.500000 0
5.817073 -0.500000 0
5.914634 -0.500000 0
6.012195 -0.500000 0
6.109756 -0.500000 0
6.207317 -0.500000 0
6.304878 -0.500000 0
6.402439 -0.500000 0
-1.500000 -0.451667 0
-1.402439 -0.451667 0
-1.304878 -0.451667 0
-1.207317 -0.451667 0
-1.109756 -0.451667 0
-1.012195 -0.451667 0
-0.914634 -0.451667 0
-0.817073 -0.451667 0
-0.719512 -0.451667 0
-0.621951 -0.451667 0
-0.524390 -0.451667 0
-0.426829 -0.451667 0
-0.329268 -0.451667 0
-0.231707 -0.451667 0
-0.134146 -0.451667 0
-0.036585 -0.451667 0
0.060976 -0.451667 0
0.158537 -0.451667 0
0.256098 -0.451667 0
0.353659 -0.451667 0
0.451220 -0.451667 0
0.548780 -0.451667 0
0.646341 -0.451667 0
0.743902 -0.451667 0
0.841463 -0.451667 0
0.939024 -0.451667 0
1.036585 -0.451667 0
1.134146 -0.451667 0
1.231707 -0.451667 0
1.329268 -0.451667 0
1.426829 -0.451667 0
1.524390 -0.451667 0
1.621951 -0.451667 0
1.719512 -0.451667 0
1.817073 -0.451667 0
1.914634 -0.451667 0
2.012195 -0.451667 0
2.109756 -0.451667 0
2.207317 -0.451667 0
2.304878 -0.451667 0
2.402439 -0.451667 0
2.500000 -0.451667 0
2.597561 -0.451667 0
2.695122 -0.451667 0
2.792683 -0.451667 0
2.890244 -0.451667 0
2.987805 -0.451667 0
3.085366 -0.451667 0
3.182927 -0.451667 0
3.280488 -0.451667 0
3.378049 -0.451667 0
3.475610 -0.451667 0
3.573171 -0.451667 0
3.670732 -0.451667 0
3.768293 -0.451667 0
3.865854 -0.451667 0
3.963415 -0.451667 0
4.060976 -0.451667 0
4.158537 -0.451667 0
4.256098 -0.451667 0
4.353659 -0.451667 0
4.451220 -0.451667 0
4.548780 -0.451667 0
4.646341 -0.451667 0
4.743902 -0.451667 0
4.841463 -0.451667 0
4.939024 -0.451667 0
5.036585 -0.451667 0
5.134146 -0.451667 0
5.231707 -0.451667 0
5.329268 -0.451667 0
5.426829 -0.451667 0
5.524390 -0.451667 0
5.621951 -0.451667 0
5.719512 -0.451667 0
5.817073 -0.451667 0
5.914634 -0.451667 0
6.012195 -0.451667 0
6.109756 -0.451667 0
6.207317 -0.451667 0
6.304878 -0.451667 0
6.402439 -0.451667 0
-1.500000 -0.403333 0
-1.402439 -0.403333 0
-1.304878 -0.403333 0
-1.207317 -0.403333 0
-1.109756 -0.403333 0
-1.012195 -0.403333 0
-0.914634 -0.403333 0
-0.817073 -0.403333 0
-0.719512 -0.403333 0
-0.621951 -0.403333 0
-0.524390 -0.403333 0
-0.426829 -0.403333 0
-0.329268 -0.403333 0
-0.231707 -0.403333 0
-0.134146 -0.403333 0
-0.036585 -0.403333 0
0.060976 -0.403333 0
0.158537 -0.403333 0
0.256098 -0.403333 0
0.353659 -0.403333 0
0.451220 -0.403333 0
0.548780 -0.403333 0
0.646341 -0.403333 0
0.743902 -0.403333 0
0.841463 -0.403333 0
0.939024 -0.403333 0
1.036585 -0.403333 0
1.134146 -0.403333 0
1.231707 -0.403333 0
1.329268 -0.403333 0
1.426829 -0.403333 0
1.524390 -0.403333 0
1.621951 -0.403333 0
1.719512 -0.403333 0
1.817073 -0.403333 0
1.914634 -0.403333 0
2.012195 -0.403333 0
2.109756 -0.403333 0
2.207317 -0.403333 0
2.304878 -0.403333 0
2.402439 -0.403333 0
2.500000 -0.403333 0
2.597561 -0.403333 0
2.695122 -0.403333 0
2.792683 -0.403333 0
2.890244 -0.403333 0
2.987805 -0.403333 0
3.085366 -0.403333 0
3.182927 -0.403333 0
3.280488 -0.403333 0
3.378049 -0.403333 0
3.475610 -0.403333 0
3.573171 -0.403333 0
3.670732 -0.403333 0
3.768293 -0.403333 0
3.865854 -0.403333 0
3.963415 -0.403333 0
4.060976 -0.403333 0
4.158537 -0.403333 0
4.256098 -0.403333 0
4.353659 -0.403333 0
4.451220 -0.403333 0
4.548780 -0.403333 0
4.646341 -0.403333 0
4.743902 -0.403333 0
4.841463 -0.403333 0
4.939024 -0.403333 0
5.036585 -0.403333 0
5.134146 -0.403333 0
5.231707 -0.403333 0
5.329268 -0.403333 0
5.426829 -0.403333 0
5.524390 -0.403333 0
5.621951 -0.403333 0
5.719512 -0.403333 0
5.817073 -0.403333 0
5.914634 -0.403333 0
6.012195 -0.403333 0
6.109756 -0.403333 0
6.207317 -0.403333 0
6.304878 -0.403333 0
6.402439 -0.403333 0
-1.500000 -0.355000 0
-1.402439 -0.355000 0
-1.304878 -0.355000 0
-1.207317 -0.355000 0
-1.109756 -0.355000 0
-1.012195 -0.355000 0
-0.914634 -0.355000 0
-0.817073 -0.355000 0
-0.719512 -0.355000 0
-0.621951 -0.355000 0
-0.524390 -0.355000 0
-0.426829 -0.355000 0
-0.329268 -0.355000 0
-0.231707 -0.355000 0
-0.134146 -0.355000 0
-0.036585 -0.355000 0
0.060976 -0.355000 0
0.158537 -0.355000 0
0.256098 -0.355000 0
0.353659 -0.355000 0
0.451220 -0.355000 0
0.548780 -0.355000 0
0.646341 -0.355000 0
0.743902 -0.355000 0
0.841463 -0.355000 0
0.939024 -0.355000 0
1.036585 -0.355000 0
1.134146 -0.355000 0
1.231707 -0.355000 0
1.329268 -0.355000 0
1.426829 -0.355000 0
1.524390 -0.355000 0
1.621951 -0.355000 0
1.719512 -0.355000 0
1.817073 -0.355000 0
1.914634 -0.355000 0
2.012195 -0.355000 0
2.109756 -0.355000 0
2.207317 -0.355000 0
2.304878 -0.355000 0
2.402439 -0.355000 0
2.500000 -0.355000 0
2.597561 -0.355000 0
2.695122 -0.355000 0
2.792683 -0.355000 0
2.890244 -0.355000 0
2.987805 -0.355000 0
3.085366 -0.355000 0
3.182927 -0.355000 0
3.280488 -0.355000 0
3.378049 -0.355000 0
3.475610 -0.355000 0
3.573171 -0.355000 0
3.670732 -0.355000 0
3.768293 -0.355000 0
3.865854 -0.355000 0
3.963415 -0.355000 0
4.060976 -0.355000 0
4.158537 -0.355000 0
4.256098 -0.355000 0
4.353659 -0.355000 0
4.451220 -0.355000 0
4.548780 -0.355000 0
4.646341 -0.355000 0
4.743902 -0.355000 0
4.841463 -0.355000 0
4.939024 -0.355000 0
5.036585 -0.355000 0
5.134146 -0.355000 0
5.231707 -0.355000 0
5.329268 -0.355000 0
5.426829 -0.355000 0
5.524390 -0.355000 0
5.621951 -0.355000 0
5.719512 -0.355000 0
5.817073 -0.355000 0
5.914634 -0.355000 0
6.012195 -0.355000 0
6.109756 -0.355000 0
6.207317 -0.355000 0
6.304878 -0.355000 0
6.402439 -0.355000 0
-1.500000 -0.306667 0
-1.402439 -0.306667 0
-1.304878 -0.306667 0
-1.207317 -0.306667 0
-1.109756 -0.306667 0
-1.012195 -0.306667 0
-0.914634 -0.306667 0
-0.817073 -0.306667 0
-0.719512 -0.306667 0
-0.621951 -0.306667 0
-0.524390 -0.306667 0
-0.426829 -0.306667 0
-0.329268 -0.306667 0
-0.231707 -0.306667 0
-0.134146 -0.306667 0
-0.036585 -0.306667 0
0.060976 -0.306667 0
0.158537 -0.306667 0
0.256098 -0.306667 0
0.353659 -0.306667 0
0.451220 -0.306667 0
0.548780 -0.306667 0
0.646341 -0.306667 0
0.743902 -0.306667 0
0.841463 -0.306667 0
0.939024 -0.306667 0
1.036585 -0.306667 0
1.134146 -0.306667 0
1.231707 -0.306667 0
1.329268 -0.306667 0
1.426829 -0.306667 0
1.524390 -0.306667 0
1.621951 -0.306667 0
1.719512 -0.306667 0
1.817073 -0.306667 0
1.914634 -0.306667 0
2.012195 -0.306667 0
2.109756 -0.306667 0
2.207317 -0.306667 0
2.304878 -0.306667 0
2.402439 -0.306667 0
2.500000 -0.306667 0
2.597561 -0.306667 0
2.695122 -0.306667 0
2.792683 -0.306667 0
2.890244 -0.306667 0
2.987805 -0.306667 0
3.085366 -0.306667 0
3.182927 -0.306667 0
3.280488 -0.306667 0
3.378049 -0.306667 0
3.475610 -0.306667 0
3.573171 -0.306667 0
3.670732 -0.306667 0
3.768293 -0.306667 0
3.865854 -0.306667 0
3.963415 -0.306667 0
4.060976 -0.306667 0
4.158537 -0.306667 0
4.256098 -0.306667 0
4.353659 -0.306667 0
4.451220 -0.306667 0
4.548780 -0.306667 0
4.646341 -0.306667 0
4.743902 -0.306667 0
4.841463 -0.306667 0
4.939024 -0.306667 0
5.036585 -0.306667 0
5.134146 -0.306667 0
5.231707 -0.306667 0
5.329268 -0.306667 0
5.426829 -0.306667 0
5.524390 -0.306667 0
5.621951 -0.306667 0
5.719512 -0.306667 0
5.817073 -0.306667 0
5.914634 -0.306667 0
6.012195 -0.306667 0
6.109756 -0.306667 0
6.207317 -0.306667 0
6.304878 -0.306667 0
6.402439 -0.306667 0
-1.500000 -0.258333 0
-1.402439 -0.258333 0
-1.304878 -0.258333 0
-1.207317 -0.258333 0
-1.109756 -0.258333 0
-1.012195 -0.258333 0
-0.914634 -0.258333 0
-0.817073 -0.258333 0
-0.719512 -0.258333 0
-0.621951 -0.258333 0
-0.524390 -0.258333 0
-0.426829 -0.258333 0
-0.329268 -0.258333 0
-0.231707 -0.258333 0
-0.134146 -0.258333 0
-0.036585 -0.258333 0
0.060976 -0.258333 0
0.158537 -0.258333 0
0.256098 -0.258333 0
0.353659 -0.258333 0
0.451220 -0.258333 0
0.548780 -0.258333 0
0.646341 -0.258333 0
0.743902 -0.258333 0
0.841463 -0.258333 0
0.939024 -0.258333 0
1.036585 -0.258333 0
1.134146 -0.258333 0
1.231707 -0.258333 0
1.329268 -0.258333 0
1.426829 -0.258333 0
1.524390 -0.258333 0
1.621951 -0.258333 0
1.719512 -0.258333 0
1.817073 -0.258333 0
1.914634 -0.258333 0
2.012195 -0.258333 0
2.109756 -0.258333 0
2.207317 -0.258333 0
2.304878 -0.258333 0
2.402439 -0.258333 0
2.500000 -0.258333 0
2.597561 -0.258333 0
2.695122 -0.258333 0
2.792683 -0.258333 0
2.890244 -0.258333 0
2.987805 -0.258333 0
3.085366 -0.258333 0
3.182927 -0.258333 0
3.280488 -0.258333 0
3.378049 -0.258333 0
3.475610 -0.258333 0
3.573171 -0.258333 0
[...]
POINT_DATA 4920 

VECTORS velocity float
0.000000 0.000000 0
0.000000 0.000000 0
0.000000 0.000000 0
0.000000 0.000000 0
0.000000 0.000000 0
0.000000 0.000000 0
0.000000 0.000000 0
0.000000 0.000000 0
0.000000 0.000000 0
0.000000 0.000000 0
0.000000 0.000000 0
0.000000 0.000000 0
0.000000 0.000000 0
0.000000 0.000000 0
0.000000 0.000000 0
-0.000030 0.000000 0
-0.000040 0.000000 0
-0.000041 0.000000 0
-0.000033 0.000000 0
-0.000017 0.000000 0
0.000014 0.000000 0
0.000059 0.000000 0
0.000117 0.000000 0
0.000179 0.000000 0
0.000235 0.000000 0
0.000274 0.000000 0
0.000291 0.000000 0
0.000284 0.000000 0
0.000259 0.000000 0
0.000225 0.000000 0
0.000189 0.000000 0
0.000158 0.000000 0
0.000131 0.000000 0
0.000092 0.000000 0
0.000059 0.000000 0
0.000038 0.000000 0
0.000021 0.000000 0
0.000005 0.000000 0
-0.000013 0.000000 0
-0.000037 0.000000 0
-0.000066 0.000000 0
-0.000095 0.000000 0
-0.000120 0.000000 0
-0.000142 0.000000 0
-0.000160 0.000000 0
-0.000178 0.000000 0
-0.000195 0.000000 0
-0.000211 0.000000 0
-0.000225 0.000000 0
-0.000236 0.000000 0
-0.000241 0.000000 0
-0.000240 0.000000 0
-0.000227 0.000000 0
-0.000201 0.000000 0
-0.000154 0.000000 0
-0.000086 0.000000 0
0.000001 0.000000 0
0.002094 0.000000 0
0.000000 0.000000 0
0.000000 0.000000 0
0.000000 0.000000 0
0.000000 0.000000 0
0.000000 0.000000 0
0.000000 0.000000 0
0.000000 0.000000 0
0.000000 0.000000 0
0.000000 0.000000 0
0.000000 0.000000 0
0.000000 0.000000 0
0.000000 0.000000 0
0.000000 0.000000 0
0.000000 0.000000 0
0.000000 0.000000 0
0.000000 0.000000 0
0.000000 0.000000 0
0.000000 0.000000 0
0.000000 0.000000 0
0.000000 0.000000 0
0.000000 0.000000 0
0.000000 0.000000 0
0.000000 0.000000 0
0.000000 0.000000 0
0.000000 0.000000 0
0.000000 0.000000 0
0.000000 0.000000 0
0.000000 0.000000 0
0.000000 0.000000 0
0.000000 0.000000 0
0.000000 0.000000 0
0.000000 0.000000 0
0.000000 0.000000 0
0.000000 0.000000 0
0.000000 0.000000 0
0.000000 0.000000 0
0.000000 0.000000 0
0.000000 0.000000 0
1.064259 -0.427664 0
2.549252 -0.745758 0
3.817452 -0.508545 0
4.663743 -0.266488 0
5.098173 -0.069650 0
5.207444 0.063981 0
5.098557 0.143802 0
4.855572 0.184108 0
4.541972 0.195088 0
4.204894 0.185174 0
3.877898 0.161784 0
3.582775 0.131484 0
3.331177 0.099767 0
3.126564 0.070700 0
2.966504 0.046691 0
2.845083 0.028562 0
2.754990 0.015992 0
2.688931 0.008028 0
2.640693 0.003182 0
2.605551 0.000191 0
2.579623 -0.001151 0
2.559902 -0.001167 0
2.544343 -0.000676 0
2.531699 -0.000172 0
2.521311 0.000158 0
2.512896 0.000322 0
2.506244 0.000442 0
2.500886 0.000670 0
2.495985 0.001141 0
2.490446 0.001966 0
2.483020 0.003262 0
2.472256 0.005195 0
2.456289 0.008016 0
2.432546 0.012103 0
2.397376 0.017979 0
2.345635 0.026310 0
2.270211 0.037894 0
2.161484 0.053497 0
2.007185 0.073613 0
1.792311 0.097167 0
1.503797 0.121354 0
1.126226 0.144857 0
0.684112 0.078251 0
0.000002 0.000000 0
-0.002152 0.000000 0
0.000000 0.000000 0
0.000000 0.000000 0
0.000000 0.000000 0
0.000000 0.000000 0
0.000000 0.000000 0
0.000000 0.000000 0
0.000000 0.000000 0
0.000000 0.000000 0
0.000000 0.000000 0
0.000000 0.000000 0
0.000000 0.000000 0
0.000000 0.000000 0
0.000000 0.000000 0
0.000000 0.000000 0
0.000000 0.000000 0
0.000000 0.000000 0
0.000000 0.000000 0
0.000000 0.000000 0
0.000000 0.000000 0
0.000000 0.000000 0
0.000000 0.000000 0
0.000000 0.000000 0
0.000000 0.000000 0
0.000000 0.000000 0
0.000000 0.000000 0
0.000000 0.000000 0
0.000000 0.000000 0
0.000000 0.000000 0
0.000000 0.000000 0
0.000000 0.000000 0
0.000000 0.000000 0
0.000000 0.000000 0
0.000000 0.000000 0
0.000000 0.000000 0
0.000000 0.000000 0
0.000000 0.000000 0
1.180809 -0.525842 0
2.696174 -1.261318 0
3.872607 -1.363763 0
5.048480 -1.047554 0
5.911915 -0.634491 0
6.440524 -0.269358 0
6.696542 -0.000190 0
6.753549 0.174323 0
6.678426 0.275742 0
6.519743 0.322357 0
6.313349 0.328994 0
6.085715 0.308208 0
5.856010 0.270855 0
5.637478 0.226014 0
5.438476 0.180665 0
5.263380 0.139451 0
5.113458 0.104788 0
4.987701 0.077360 0
4.883737 0.056625 0
4.798664 0.041308 0
4.728926 0.030255 0
4.671213 0.022615 0
4.623585 0.017478 0
4.584193 0.013973 0
4.551425 0.011411 0
4.524055 0.009316 0
4.501194 0.007465 0
4.482042 0.005950 0
4.465626 0.005083 0
4.450767 0.005173 0
4.436161 0.006423 0
4.420419 0.009012 0
4.401928 0.013243 0
4.378599 0.019673 0
4.347546 0.029187 0
4.304688 0.043057 0
4.244230 0.063000 0
4.157957 0.091232 0
4.034304 0.130308 0
3.857217 0.182895 0
3.605061 0.249387 0
3.251021 0.329990 0
2.763271 0.405550 0
2.140630 0.555299 0
1.118165 0.336804 0
-0.000002 0.000000 0
-0.005464 0.000000 0
0.000000 0.000000 0
0.000000 0.000000 0
0.000000 0.000000 0
0.000000 0.000000 0
0.000000 0.000000 0
0.000000 0.000000 0
0.000000 0.000000 0
0.000000 0.000000 0
0.000000 0.000000 0
0.000000 0.000000 0
0.000000 0.000000 0
0.000000 0.000000 0
0.000000 0.000000 0
0.000000 0.000000 0
0.000000 0.000000 0
0.000000 0.000000 0
0.000000 0.000000 0
0.000000 0.000000 0
0.000000 0.000000 0
0.000000 0.000000 0
0.000000 0.000000 0
0.000000 0.000000 0
0.000000 0.000000 0
0.000000 0.000000 0
0.000000 0.000000 0
0.000000 0.000000 0
0.000000 0.000000 0
0.000000 0.000000 0
0.000000 0.000000 0
0.000000 0.000000 0
0.000000 0.000000 0
0.000000 0.000000 0
0.000000 0.000000 0
0.000000 0.000000 0
0.961242 -0.593130 0
2.682828 -1.342458 0
3.510621 -1.759816 0
4.689935 -1.911129 0
5.753649 -1.518852 0
6.478581 -0.956130 0
6.905336 -0.458367 0
7.129934 -0.091097 0
7.217668 0.152777 0
7.216520 0.299940 0
7.158892 0.375953 0
7.066625 0.400199 0
6.954677 0.388357 0
6.833606 0.353548 0
6.711116 0.306621 0
6.592834 0.256034 0
6.482646 0.207710 0
6.382842 0.165138 0
6.294312 0.129799 0
6.216938 0.101680 0
6.149830 0.079878 0
6.091538 0.063332 0
6.040774 0.051037 0
5.996466 0.041944 0
5.957665 0.035073 0
5.923566 0.029622 0
5.893485 0.025043 0
5.866720 0.021136 0
5.842454 0.018062 0
5.819813 0.016164 0
5.797970 0.015739 0
5.776126 0.017001 0
5.753387 0.020222 0
5.728606 0.025913 0
5.700207 0.034957 0
5.665970 0.048720 0
5.622723 0.069164 0
5.565875 0.099003 0
5.488697 0.141895 0
5.381264 0.202489 0
5.228658 0.286267 0
5.009119 0.397487 0
4.689917 0.538390 0
4.237079 0.694963 0
3.598151 0.889064 0
2.938506 1.059479 0
1.388515 0.557133 0
-0.000003 0.000000 0
-0.006242 0.000000 0
0.000000 0.000000 0
0.000000 0.000000 0
0.000000 0.000000 0
0.000000 0.000000 0
0.000000 0.000000 0
0.000000 0.000000 0
0.000000 0.000000 0
0.000000 0.000000 0
0.000000 0.000000 0
0.000000 0.000000 0
0.000000 0.000000 0
0.000000 0.000000 0
0.000000 0.000000 0
0.000000 0.000000 0
0.000000 0.000000 0
0.000000 0.000000 0
0.000000 0.000000 0
0.000000 0.000000 0
0.000000 0.000000 0
0.000000 0.000000 0
0.000000 0.000000 0
0.000000 0.000000 0
0.000000 0.000000 0
0.000000 0.000000 0
0.000000 0.000000 0
0.000000 0.000000 0
0.000000 0.000000 0
0.000000 0.000000 0
0.000000 0.000000 0
0.000000 0.000000 0
0.000000 0.000000 0
0.000000 0.000000 0
0.765591 -0.479974 0
2.197723 -1.341014 0
3.142167 -1.796984 0
3.907897 -2.255672 0
5.248330 -2.474997 0
6.205495 -1.933679 0
6.733421 -1.205055 0
6.993650 -0.592049 0
7.114751 -0.154924 0
7.162880 0.131427 0
7.166895 0.304860 0
7.146541 0.396618 0
7.113054 0.430165 0
7.072323 0.423650 0
7.027381 0.391520 0
6.980152 0.345297 0
6.932304 0.293853 0
6.885438 0.243484 0
6.840931 0.198092 0
6.799755 0.159552 0
6.762430 0.128204 0
6.728959 0.103434 0
6.698963 0.084284 0
6.672066 0.069715 0
6.647906 0.058652 0
6.626106 0.050089 0
6.606274 0.043207 0
6.587968 0.037478 0
6.570642 0.032746 0
6.553704 0.029189 0
6.536625 0.027121 0
6.518980 0.026816 0
6.500368 0.028510 0
6.480321 0.032554 0
6.458228 0.039590 0
6.433261 0.050704 0
6.404251 0.067574 0
6.369467 0.092646 0
6.326267 0.129398 0
6.270482 0.182691 0
6.195403 0.259136 0
6.089775 0.367262 0
5.934866 0.516288 0
5.698187 0.712471 0
5.338192 0.946429 0
4.807177 1.198634 0
4.196670 1.434698 0
3.442058 1.464724 0
1.522328 0.693629 0
-0.000002 0.000000 0
-0.005301 0.000000 0
0.000000 0.000000 0
0.000000 0.000000 0
0.000000 0.000000 0
0.000000 0.000000 0
0.000000 0.000000 0
0.000000 0.000000 0
0.000000 0.000000 0
0.000000 0.000000 0
0.000000 0.000000 0
0.000000 0.000000 0
0.000000 0.000000 0
0.000000 0.000000 0
0.000000 0.000000 0
0.000000 0.000000 0
0.000000 0.000000 0
0.000000 0.000000 0
0.000000 0.000000 0
0.000000 0.000000 0
0.000000 0.000000 0
0.000000 0.000000 0
0.000000 0.000000 0
0.000000 0.000000 0
0.000000 0.000000 0
0.000000 0.000000 0
0.000000 0.000000 0
0.000000 0.000000 0
0.000000 0.000000 0
0.000000 0.000000 0
0.000000 0.000000 0
0.000000 0.000000 0
0.563427 -0.382929 0
1.754159 -1.096189 0
2.597513 -1.774284 0
3.344983 -2.189706 0
4.161159 -2.803244 0
5.655641 -3.049397 0
6.391864 -2.254591 0
6.627209 -1.346595 0
6.663074 -0.647284 0
6.653972 -0.174936 0
6.642752 0.126944 0
6.635736 0.308034 0
6.636425 0.402627 0
6.644108 0.436968 0
6.656187 0.430801 0
6.669471 0.399211 0
6.681368 0.353723 0
6.690420 0.302957 0
6.696275 0.252978 0
6.699339 0.207587 0
6.700363 0.168690 0
6.700121 0.136753 0
6.699175 0.111321 0
6.697843 0.091519 0
6.696358 0.076332 0
6.694856 0.064713 0
6.693351 0.055699 0
6.691722 0.048517 0
6.689705 0.042695 0
6.686929 0.038110 0
6.683028 0.034915 0
6.677766 0.033367 0
6.671047 0.033702 0
6.662847 0.036154 0
6.653161 0.041099 0
6.641981 0.049227 0
6.629284 0.061699 0
6.614988 0.080325 0
6.598849 0.107798 0
6.580267 0.148042 0
6.557884 0.206728 0
6.528803 0.292014 0
6.486686 0.415342 0
6.417962 0.591486 0
6.293126 0.833993 0
6.059369 1.136385 0
5.669844 1.454592 0
5.165808 1.735782 0
4.584279 1.891554 0
3.694175 1.720054 0
1.557984 0.759481 0
-0.000001 0.000000 0
-0.003677 0.000000 0
0.000000 0.000000 0
0.000000 0.000000 0
0.000000 0.000000 0
0.000000 0.000000 0
0.000000 0.000000 0
0.000000 0.000000 0
0.000000 0.000000 0
0.000000 0.000000 0
0.000000 0.000000 0
0.000000 0.000000 0
0.000000 0.000000 0
0.000000 0.000000 0
0.000000 0.000000 0
0.000000 0.000000 0
0.000000 0.000000 0
0.000000 0.000000 0
0.000000 0.000000 0
0.000000 0.000000 0
0.000000 0.000000 0
0.000000 0.000000 0
0.000000 0.000000 0
0.000000 0.000000 0
0.000000 0.000000 0
0.000000 0.000000 0
0.000000 0.000000 0
0.000000 0.000000 0
0.000000 0.000000 0
0.000000 0.000000 0
0.401415 -0.280589 0
1.351731 -0.874140 0
2.113109 -1.491336 0
2.796666 -2.129134 0
3.428611 -2.571640 0
4.308698 -3.400410 0
5.865310 -3.580125 0
6.189300 -2.415009 0
6.020864 -1.339417 0
5.783445 -0.605308 0
5.633882 -0.144856 0
5.563272 0.140461 0
5.556880 0.307995 0
5.594087 0.392470 0
5.656830 0.420375 0
5.731971 0.411084 0
5.809909 0.379045 0
5.884306 0.334919 0
5.951608 0.286468 0
6.010414 0.239066 0
6.060793 0.196067 0
6.103638 0.159165 0
6.140164 0.128792 0
6.171546 0.104563 0
6.198778 0.085679 0
6.222684 0.071195 0
6.243894 0.060142 0
6.262824 0.051642 0
6.279671 0.045013 0
6.294450 0.039852 0
6.307079 0.036055 0
6.317524 0.033729 0
6.325911 0.033056 0
6.332546 0.034207 0
6.337863 0.037372 0
6.342401 0.042892 0
6.346814 0.051419 0
6.351899 0.064077 0
6.358639 0.082652 0
6.368232 0.109848 0
6.382103 0.149693 0
6.401811 0.208187 0
6.428701 0.294409 0
6.462513 0.422174 0
6.497339 0.612182 0
6.510221 0.890124 0
6.430263 1.255213 0
6.191196 1.641319 0
5.829813 1.972505 0
5.381099 2.193796 0
4.777757 2.203998 0
3.758571 1.845001 0
1.528598 0.775604 0
-0.000000 0.000000 0
-0.002114 0.000000 0
0.000000 0.000000 0
0.000000 0.000000 0
0.000000 0.000000 0
0.000000 0.000000 0
0.000000 0.000000 0
0.000000 0.000000 0
0.000000 0.000000 0
0.000000 0.000000 0
0.000000 0.000000 0
0.000000 0.000000 0
0.000000 0.000000 0
0.000000 0.000000 0
0.000000 0.000000 0
0.000000 0.000000 0
0.000000 0.000000 0
0.000000 0.000000 0
0.000000 0.000000 0
0.000000 0.000000 0
0.000000 0.000000 0
0.000000 0.000000 0
0.000000 0.000000 0
0.000000 0.000000 0
0.000000 0.000000 0
0.000000 0.000000 0
0.000000 0.000000 0
0.000000 0.000000 0
0.288730 -0.198880 0
1.045547 -0.671140 0
1.751384 -1.232388 0
2.360162 -1.812034 0
2.911545 -2.426005 0
3.419843 -2.938792 0
4.307555 -4.010425 0
5.776142 -3.981079 0
5.434847 -2.331655 0
4.771148 -1.145528 0
4.241358 -0.455567 0
3.954866 -0.065859 0
3.857162 0.165092 0
3.897869 0.292768 0
4.015545 0.353110 0
4.168979 0.368658 0
4.334450 0.354964 0
4.497090 0.323742 0
4.648317 0.283523 0
4.783849 0.240481 0
4.902327 0.198886 0
5.004270 0.161402 0
5.091263 0.129368 0
5.165335 0.103111 0
5.228543 0.082282 0
5.282754 0.066184 0
5.329580 0.053980 0
5.370344 0.044828 0
5.406062 0.037974 0
5.437466 0.032848 0
5.465080 0.029117 0
5.489340 0.026680 0
5.510754 0.025585 0
5.529989 0.025925 0
5.547881 0.027781 0
5.565393 0.031271 0
5.583603 0.036665 0
5.603747 0.044522 0
5.627321 0.055841 0
5.656249 0.072234 0
5.693095 0.096174 0
5.741355 0.131406 0
5.805790 0.183642 0
5.892710 0.261941 0
6.009828 0.381337 0
6.162679 0.567851 0
6.346021 0.867224 0
6.459820 1.294435 0
6.382796 1.752065 0
6.185678 2.137118 0
5.888083 2.412760 0
5.467830 2.523881 0
4.809512 2.378639 0
3.692353 1.873658 0
1.460633 0.759422 0
0.000000 0.000000 0
-0.001038 0.000000 0
0.000000 0.000000 0
0.000000 0.000000 0
0.000000 0.000000 0
0.000000 0.000000 0
0.000000 0.000000 0
0.000000 0.000000 0
0.000000 0.000000 0
0.000000 0.000000 0
0.000000 0.000000 0
0.000000 0.000000 0
0.000000 0.000000 0
0.000000 0.000000 0
0.000000 0.000000 0
0.000000 0.000000 0
0.000000 0.000000 0
0.000000 0.000000 0
0.000000 0.000000 0
0.000000 0.000000 0
0.000000 0.000000 0
0.000000 0.000000 0
0.000000 0.000000 0
0.000000 0.000000 0
0.000000 0.000000 0
0.000000 0.000000 0
0.225307 -0.142149 0
0.847689 -0.517100 0
1.512971 -1.005224 0
2.090151 -1.525422 0
2.563419 -2.066099 0
2.959735 -2.654118 0
3.314427 -3.263247 0
4.087980 -4.567760 0
5.247354 -4.138605 0
3.941740 -1.917119 0
2.796588 -0.748143 0
2.020048 -0.200908 0
1.734136 0.045481 0
1.768097 0.168699 0
1.936824 0.229530 0
2.169469 0.258158 0
2.426352 0.262384 0
2.684838 0.248533 0
2.928963 0.223550 0
3.149880 0.192854 0
3.343588 0.160627 0
3.509382 0.129865 0
3.648730 0.102465 0
3.764368 0.079371 0
3.859610 0.060782 0
3.937835 0.046392 0
4.002188 0.035624 0
4.055435 0.027801 0
4.099896 0.022252 0
4.137438 0.018388 0
4.169526 0.015775 0
4.197336 0.014153 0
4.221918 0.013427 0
4.244332 0.013591 0
4.265712 0.014663 0
4.287253 0.016667 0
4.310180 0.019674 0
4.335789 0.023891 0
4.365576 0.029761 0
4.401470 0.038067 0
4.446166 0.050067 0
4.503570 0.067684 0
4.579396 0.093862 0
4.682028 0.133204 0
4.823557 0.193325 0
5.022205 0.288427 0
5.299407 0.445626 0
5.696390 0.742916 0
6.089345 1.236994 0
6.210585 1.777133 0
6.218283 2.217595 0
6.109409 2.549430 0
5.866119 2.738341 0
5.437911 2.724601 0
4.718199 2.441271 0
3.545180 1.836668 0
1.377018 0.724460 0
-0.000000 0.000000 0
-0.000613 0.000000 0
0.000000 0.000000 0
0.000000 0.000000 0
0.000000 0.000000 0
0.000000 0.000000 0
0.000000 0.000000 0
0.000000 0.000000 0
0.000000 0.000000 0
0.000000 0.000000 0
0.000000 0.000000 0
0.000000 0.000000 0
0.000000 0.000000 0
0.000000 0.000000 0
0.000000 0.000000 0
0.000000 0.000000 0
0.000000 0.000000 0
0.000000 0.000000 0
0.000000 0.000000 0
0.000000 0.000000 0
0.000000 0.000000 0
0.000000 0.000000 0
0.000000 0.000000 0
0.000000 0.000000 0
0.207506 -0.110215 0
0.758410 -0.417660 0
1.399367 -0.835917 0
1.962127 -1.286676 0
2.406658 -1.752797 0
2.726658 -2.242840 0
2.946446 -2.798067 0
3.111289 -3.497743 0
3.586421 -4.968029 0
4.041905 -3.908629 0
1.568233 -1.117505 0
0.425366 -0.193489 0
0.058106 0.070790 0
0.019833 0.058962 0
0.149910 0.064678 0
0.360352 0.093922 0
0.613216 0.110590 0
0.881445 0.113336 0
1.142838 0.105962 0
1.383109 0.093352 0
1.594075 0.078112 0
1.772385 0.062378 0
1.918301 0.047714 0
2.034519 0.035078 0
2.125126 0.024895 0
2.194729 0.017172 0
2.247815 0.011647 0
2.288371 0.007923 0
2.319722 0.005574 0
2.344488 0.004202 0
2.364637 0.003478 0
2.381605 0.003174 0
2.396478 0.003161 0
2.410174 0.003397 0
2.423581 0.003889 0
2.437607 0.004662 0
2.453179 0.005751 0
2.471250 0.007225 0
2.492891 0.009221 0
2.519474 0.011982 0
2.552963 0.015915 0
2.596313 0.021652 0
2.654023 0.030170 0
2.732934 0.042996 0
2.843483 0.062681 0
3.001807 0.093412 0
3.233711 0.145593 0
3.583998 0.233848 0
4.133209 0.475876 0
5.054139 1.039694 0
5.503220 1.688187 0
5.840287 2.187242 0
6.007332 2.587228 0
5.986089 2.856553 0
5.766804 2.947337 0
5.311546 2.811348 0
4.547500 2.418406 0
3.364971 1.760078 0
1.300261 0.682227 0
-0.000001 0.000000 0
-0.000911 0.000000 0
0.000000 0.000000 0
0.000000 0.000000 0
0.000000 0.000000 0
0.000000 0.000000 0
0.000000 0.000000 0
0.000000 0.000000 0
0.000000 0.000000 0
0.000000 0.000000 0
0.000000 0.000000 0
0.000000 0.000000 0
0.000000 0.000000 0
0.000000 0.000000 0
0.000000 0.000000 0
0.000000 0.000000 0
0.000000 0.000000 0
0.000000 0.000000 0
0.000000 0.000000 0
0.000000 0.000000 0
0.000000 0.000000 0
0.000000 0.000000 0
0.234573 -0.101054 0
0.777798 -0.372575 0
1.412936 -0.731210 0
1.970314 -1.113442 0
2.401780 -1.504253 0
2.692275 -1.904183 0
2.845577 -2.333519 0
2.881941 -2.844671 0
2.829585 -3.580301 0
2.806425 -5.028802 0
1.643182 -3.013336 0
0.000001 0.000000 0
0.000017 0.000000 0
0.000055 0.000000 0
0.000084 0.000000 0
0.000113 0.000000 0
0.000108 0.000000 0
0.000056 0.000000 0
-0.000025 0.000000 0
-0.000112 0.000000 0
-0.000188 0.000000 0
-0.000246 0.000000 0
-0.000283 0.000000 0
-0.000298 0.000000 0
-0.000298 0.000000 0
-0.000285 0.000000 0
-0.000267 0.000000 0
-0.000245 0.000000 0
-0.000222 0.000000 0
-0.000201 0.000000 0
-0.000182 0.000000 0
-0.000167 0.000000 0
-0.000154 0.000000 0
-0.000146 0.000000 0
-0.000144 0.000000 0
-0.000147 0.000000 0
-0.000157 0.000000 0
-0.000171 0.000000 0
-0.000186 0.000000 0
-0.000199 0.000000 0
-0.000209 0.000000 0
-0.000215 0.000000 0
-0.000215 0.000000 0
-0.000210 0.000000 0
-0.000202 0.000000 0
-0.000191 0.000000 0
-0.000178 0.000000 0
-0.000165 0.000000 0
-0.000156 0.000000 0
-0.000155 0.000000 0
2.158644 0.543685 0
3.862120 1.387662 0
4.851260 1.967849 0
5.469623 2.477198 0
5.773517 2.857502 0
5.805913 3.058781 0
5.590823 3.045334 0
5.116276 2.801033 0
4.342326 2.334788 0
3.196070 1.668335 0
1.248050 0.643852 0
-0.000002 0.000000 0
-0.001902 0.000000 0
0.000000 0.000000 0
0.000000 0.000000 0
0.000000 0.000000 0
0.000000 0.000000 0
0.000000 0.000000 0
0.000000 0.000000 0
0.000000 0.000000 0
0.000000 0.000000 0
0.000000 0.000000 0
0.000000 0.000000 0
0.000000 0.000000 0
0.000000 0.000000 0
0.000000 0.000000 0
0.000000 0.000000 0
0.000000 0.000000 0
0.000000 0.000000 0
0.000000 0.000000 0
0.000000 0.000000 0
0.316292 -0.114103 0
0.917934 -0.381478 0
1.567831 -0.692247 0
2.120505 -1.008452 0
2.537432 -1.325806 0
2.806673 -1.644348 0
2.929576 -1.972661 0
2.917369 -2.336804 0
2.783364 -2.790144 0
2.523217 -3.460331 0
2.022423 -4.397385 0
0.038169 0.000015 0
-0.075283 2.460950 0
0.386932 0.000000 0
0.315329 0.000000 0
0.244110 0.000000 0
0.196373 0.000000 0
0.113581 0.000000 0
0.006734 0.000000 0
-0.109778 0.000000 0
-0.222202 0.000000 0
-0.323825 0.000000 0
-0.410769 0.000000 0
-0.481588 0.000000 0
-0.536732 0.000000 0
-0.577914 0.000000 0
-0.607524 0.000000 0
-0.628133 0.000000 0
-0.642145 0.000000 0
-0.651598 0.000000 0
-0.658095 0.000000 0
-0.662810 0.000000 0
-0.666542 0.000000 0
-0.669803 0.000000 0
-0.672928 0.000000 0
-0.676173 0.000000 0
-0.679787 0.000000 0
-0.684037 0.000000 0
-0.689219 0.000000 0
-0.695674 0.000000 0
-0.703833 0.000000 0
-0.714310 0.000000 0
-0.728034 0.000000 0
-0.746439 0.000000 0
-0.771734 0.000000 0
-0.807324 0.000000 0
-0.858501 0.000000 0
-0.933822 0.000000 0
-1.047029 0.000000 0
-1.227680 0.000000 0
-1.519041 0.131977 0
0.000000 -0.000209 0
1.786240 0.357800 0
3.417454 1.390858 0
4.534084 2.130326 0
5.219616 2.689949 0
5.547353 3.037847 0
5.585150 3.153006 0
5.367850 3.036932 0
4.896299 2.711380 0
4.150992 2.215681 0
3.079553 1.583708 0
1.237643 0.618129 0
-0.000003 0.000000 0
-0.003783 0.000000 0
0.000000 0.000000 0
0.000000 0.000000 0
0.000000 0.000000 0
0.000000 0.000000 0
0.000000 0.000000 0
0.000000 0.000000 0
0.000000 0.000000 0
0.000000 0.000000 0
0.000000 0.000000 0
0.000000 0.000000 0
0.000000 0.000000 0
0.000000 0.000000 0
0.000000 0.000000 0
0.000000 0.000000 0
0.000000 0.000000 0