/*--------------------------------*- C++ -*----------------------------------*\
| =========                 |                                                 |
| \\      /  F ield         | OpenFOAM: The Open Source CFD Toolbox           |
|  \\    /   O peration     | Version:  5.x                                   |
|   \\  /    A nd           | Web:      www.OpenFOAM.org                      |
|    \\/     M anipulation  |                                                 |
\*---------------------------------------------------------------------------*/
FoamFile
{
    version     2.0;
    format      ascii;
    class       volScalarField;
    location    "0.0999";
    object      gradTy;
}
// * * * * * * * * * * * * * * * * * * * * * * * * * * * * * * * * * * * * * //

dimensions      [0 -1 0 1 0 0 0];

internalField   nonuniform List<scalar> 
2048
(
-31.9139
-31.9035
-31.8832
-31.8541
-31.8174
-31.7749
-31.7281
-31.6787
-31.6282
-31.5779
-31.529
-31.4822
-31.4382
-31.3973
-31.3598
-31.3257
-31.2952
-31.268
-31.244
-31.223
-31.2047
-31.189
-31.1757
-31.1644
-31.1549
-31.1472
-31.141
-31.1361
-31.1325
-31.1301
-31.1288
-31.1286
-31.1295
-31.1314
-31.1345
-31.1388
-31.1444
-31.1515
-31.1601
-31.1706
-31.1831
-31.1978
-31.2151
-31.2353
-31.2586
-31.2854
-31.316
-31.3507
-31.3897
-31.4331
-31.4809
-31.5329
-31.5888
-31.6478
-31.709
-31.7712
-31.8329
-31.8924
-31.948
-31.9977
-32.0399
-32.0731
-32.0959
-32.1075
-31.9172
-31.9064
-31.8853
-31.855
-31.817
-31.773
-31.7248
-31.6741
-31.6225
-31.5712
-31.5215
-31.4741
-31.4297
-31.3885
-31.3508
-31.3167
-31.2862
-31.259
-31.2351
-31.2142
-31.1961
-31.1806
-31.1673
-31.1562
-31.1469
-31.1392
-31.1331
-31.1283
-31.1248
-31.1224
-31.1211
-31.1209
-31.1218
-31.1237
-31.1267
-31.1309
-31.1364
-31.1433
-31.1519
-31.1621
-31.1744
-31.189
-31.206
-31.226
-31.249
-31.2756
-31.306
-31.3406
-31.3795
-31.423
-31.471
-31.5234
-31.5798
-31.6396
-31.7019
-31.7653
-31.8284
-31.8895
-31.9465
-31.9977
-32.0412
-32.0754
-32.0989
-32.1109
-31.9239
-31.9121
-31.8894
-31.8569
-31.8163
-31.7695
-31.7185
-31.6653
-31.6115
-31.5584
-31.5072
-31.4587
-31.4135
-31.3718
-31.3338
-31.2996
-31.2691
-31.2421
-31.2183
-31.1977
-31.1799
-31.1646
-31.1516
-31.1407
-31.1316
-31.1242
-31.1182
-31.1136
-31.1102
-31.1079
-31.1066
-31.1064
-31.1072
-31.109
-31.112
-31.116
-31.1213
-31.128
-31.1362
-31.1462
-31.1581
-31.1723
-31.1889
-31.2084
-31.231
-31.2572
-31.2872
-31.3215
-31.3602
-31.4038
-31.4521
-31.5052
-31.5627
-31.6241
-31.6883
-31.7541
-31.82
-31.8839
-31.9439
-31.9979
-32.0438
-32.0799
-32.1049
-32.1176
-31.9341
-31.921
-31.8958
-31.8599
-31.8154
-31.7645
-31.7096
-31.6527
-31.5957
-31.54
-31.4868
-31.4368
-31.3905
-31.3481
-31.3098
-31.2754
-31.2449
-31.2181
-31.1947
-31.1744
-31.157
-31.1421
-31.1295
-31.1189
-31.1102
-31.103
-31.0973
-31.0929
-31.0896
-31.0874
-31.0862
-31.086
-31.0867
-31.0885
-31.0912
-31.0951
-31.1001
-31.1065
-31.1143
-31.1238
-31.1352
-31.1488
-31.1648
-31.1837
-31.2056
-31.2311
-31.2606
-31.2944
-31.3329
-31.3765
-31.4252
-31.4793
-31.5383
-31.6018
-31.6688
-31.7381
-31.8079
-31.876
-31.9403
-31.9984
-32.0479
-32.087
-32.1139
-32.1277
-31.9482
-31.9334
-31.9048
-31.8644
-31.8146
-31.7583
-31.6981
-31.6365
-31.5755
-31.5166
-31.4608
-31.409
-31.3614
-31.3182
-31.2795
-31.245
-31.2147
-31.1881
-31.1651
-31.1453
-31.1284
-31.114
-31.1019
-31.0918
-31.0835
-31.0767
-31.0713
-31.0671
-31.064
-31.0619
-31.0608
-31.0606
-31.0612
-31.0629
-31.0654
-31.069
-31.0737
-31.0796
-31.087
-31.0959
-31.1067
-31.1195
-31.1348
-31.1528
-31.1739
-31.1986
-31.2272
-31.2604
-31.2985
-31.342
-31.3912
-31.4463
-31.5071
-31.5733
-31.644
-31.7176
-31.7925
-31.8662
-31.9361
-31.9995
-32.0538
-32.0966
-32.1262
-32.1414
-31.9668
-31.9496
-31.9167
-31.8704
-31.814
-31.7509
-31.6843
-31.6169
-31.5511
-31.4883
-31.4297
-31.3758
-31.3268
-31.2828
-31.2437
-31.2092
-31.179
-31.1529
-31.1304
-31.1112
-31.0949
-31.0811
-31.0696
-31.0601
-31.0523
-31.0459
-31.0409
-31.0369
-31.0341
-31.0321
-31.0311
-31.0309
-31.0315
-31.0329
-31.0353
-31.0386
-31.0429
-31.0483
-31.0551
-31.0634
-31.0734
-31.0854
-31.0997
-31.1167
-31.1367
-31.1603
-31.188
-31.2203
-31.2578
-31.3011
-31.3506
-31.4068
-31.4697
-31.539
-31.6139
-31.693
-31.7741
-31.8546
-31.9315
-32.0016
-32.0617
-32.1093
-32.1421
-32.1589
-31.9905
-31.9703
-31.932
-31.8784
-31.8138
-31.7424
-31.668
-31.5939
-31.5225
-31.4555
-31.3937
-31.3376
-31.2872
-31.2425
-31.203
-31.1686
-31.1388
-31.1131
-31.0913
-31.0728
-31.0572
-31.0442
-31.0335
-31.0246
-31.0173
-31.0114
-31.0068
-31.0032
-31.0006
-30.9988
-30.9978
-30.9976
-30.9982
-30.9995
-31.0016
-31.0045
-31.0083
-31.0133
-31.0194
-31.0269
-31.036
-31.0471
-31.0603
-31.0761
-31.095
-31.1173
-31.1438
-31.1749
-31.2115
-31.2544
-31.3041
-31.3614
-31.4264
-31.4992
-31.579
-31.6642
-31.7528
-31.8415
-31.9269
-32.005
-32.0722
-32.1253
-32.1619
-32.1807
-32.02
-31.9962
-31.951
-31.8885
-31.814
-31.7326
-31.6492
-31.5674
-31.4899
-31.4183
-31.3532
-31.2949
-31.2432
-31.1977
-31.1581
-31.1239
-31.0945
-31.0695
-31.0484
-31.0308
-31.0161
-31.004
-30.994
-30.9858
-30.9792
-30.9739
-30.9697
-30.9665
-30.9641
-30.9625
-30.9617
-30.9615
-30.9619
-30.9631
-30.9649
-30.9674
-30.9708
-30.9751
-30.9806
-30.9872
-30.9954
-31.0054
-31.0174
-31.032
-31.0494
-31.0703
-31.0952
-31.125
-31.1604
-31.2025
-31.2522
-31.3103
-31.3776
-31.454
-31.5392
-31.6316
-31.7287
-31.827
-31.9223
-32.0099
-32.0854
-32.145
-32.1861
-32.2071
-32.0562
-32.0278
-31.9743
-31.9009
-31.8145
-31.7215
-31.6277
-31.5374
-31.4533
-31.3768
-31.3084
-31.248
-31.1951
-31.1491
-31.1095
-31.0756
-31.0468
-31.0226
-31.0025
-30.9858
-30.9721
-30.961
-30.9519
-30.9445
-30.9386
-30.9339
-30.9301
-30.9273
-30.9253
-30.9239
-30.9231
-30.9229
-30.9233
-30.9242
-30.9258
-30.9279
-30.9308
-30.9345
-30.9392
-30.945
-30.9522
-30.9609
-30.9717
-30.9848
-31.0006
-31.0199
-31.0431
-31.0712
-31.1051
-31.1461
-31.1953
-31.254
-31.3233
-31.4036
-31.4946
-31.5949
-31.7018
-31.8113
-31.9182
-32.0168
-32.1019
-32.1689
-32.215
-32.2385
-32.1001
-32.066
-32.0023
-31.9158
-31.8152
-31.7088
-31.6033
-31.5036
-31.4125
-31.3312
-31.2596
-31.1973
-31.1434
-31.0971
-31.0576
-31.0242
-30.9962
-30.973
-30.9539
-30.9384
-30.9258
-30.9157
-30.9076
-30.9011
-30.8959
-30.8918
-30.8886
-30.8862
-30.8845
-30.8833
-30.8826
-30.8825
-30.8828
-30.8835
-30.8848
-30.8865
-30.8889
-30.892
-30.8958
-30.9007
-30.9068
-30.9143
-30.9237
-30.9352
-30.9494
-30.9667
-30.988
-31.014
-31.0461
-31.0855
-31.1338
-31.1928
-31.2638
-31.3479
-31.4451
-31.5541
-31.6721
-31.7943
-31.9146
-32.026
-32.122
-32.1974
-32.2489
-32.2751
-32.1526
-32.1116
-32.0354
-31.9331
-31.8159
-31.694
-31.5756
-31.4658
-31.3675
-31.2814
-31.207
-31.1431
-31.0885
-31.0422
-31.003
-30.9703
-30.9432
-30.9211
-30.9032
-30.889
-30.8777
-30.8687
-30.8617
-30.8561
-30.8517
-30.8483
-30.8456
-30.8436
-30.8422
-30.8412
-30.8407
-30.8406
-30.8408
-30.8414
-30.8423
-30.8437
-30.8455
-30.8479
-30.8509
-30.8548
-30.8598
-30.866
-30.8739
-30.8838
-30.8961
-30.9115
-30.9305
-30.9542
-30.984
-31.0213
-31.0682
-31.1268
-31.1992
-31.2869
-31.3906
-31.5091
-31.6394
-31.7761
-31.9118
-32.0379
-32.1463
-32.2308
-32.2881
-32.3171
-32.2148
-32.1653
-32.074
-31.9529
-31.8162
-31.6768
-31.5441
-31.4237
-31.3181
-31.2276
-31.1507
-31.0857
-31.0308
-30.9847
-30.9461
-30.9142
-30.8882
-30.8673
-30.8509
-30.838
-30.8281
-30.8204
-30.8145
-30.8099
-30.8063
-30.8036
-30.8015
-30.7999
-30.7988
-30.7981
-30.7977
-30.7975
-30.7977
-30.7981
-30.7988
-30.7997
-30.801
-30.8027
-30.8049
-30.8078
-30.8116
-30.8165
-30.8229
-30.8311
-30.8415
-30.8546
-30.8712
-30.8923
-30.9193
-30.954
-30.9988
-31.0565
-31.1297
-31.2207
-31.3309
-31.4595
-31.6034
-31.7565
-31.9099
-32.0528
-32.1751
-32.2696
-32.333
-32.3647
-32.288
-32.2281
-32.1185
-31.9749
-31.8157
-31.6566
-31.5083
-31.3769
-31.2643
-31.1699
-31.0911
-31.0255
-30.9707
-30.9251
-30.8873
-30.8564
-30.8316
-30.8122
-30.7972
-30.7859
-30.7774
-30.7711
-30.7664
-30.7628
-30.7601
-30.7581
-30.7565
-30.7554
-30.7546
-30.7541
-30.7539
-30.7538
-30.7538
-30.7541
-30.7545
-30.755
-30.7558
-30.7568
-30.7581
-30.76
-30.7626
-30.7662
-30.771
-30.7774
-30.7858
-30.7966
-30.8106
-30.8287
-30.8525
-30.884
-30.9261
-30.982
-31.0552
-31.1491
-31.2657
-31.4051
-31.5639
-31.7355
-31.9091
-32.0713
-32.2091
-32.3142
-32.3836
-32.4179
-32.3735
-32.3008
-32.1691
-31.9989
-31.8136
-31.6325
-31.4676
-31.325
-31.2059
-31.1083
-31.0285
-30.9629
-30.9086
-30.8638
-30.827
-30.7972
-30.7738
-30.7559
-30.7426
-30.733
-30.7261
-30.7213
-30.7178
-30.7153
-30.7135
-30.7121
-30.7111
-30.7104
-30.71
-30.7097
-30.7096
-30.7095
-30.7095
-30.7096
-30.7097
-30.7099
-30.7101
-30.7104
-30.7109
-30.7118
-30.7131
-30.7153
-30.7186
-30.7232
-30.7295
-30.738
-30.7491
-30.764
-30.7842
-30.8119
-30.8503
-30.9035
-30.976
-31.072
-31.1949
-31.3454
-31.5206
-31.7127
-31.9095
-32.0939
-32.2489
-32.365
-32.44
-32.4765
-32.4728
-32.3845
-32.2262
-32.0245
-31.8092
-31.6038
-31.4215
-31.2677
-31.1429
-31.0431
-30.9632
-30.8982
-30.8449
-30.8012
-30.7655
-30.737
-30.7151
-30.6989
-30.6874
-30.6796
-30.6744
-30.6711
-30.669
-30.6675
-30.6666
-30.6659
-30.6655
-30.6652
-30.6651
-30.6651
-30.665
-30.665
-30.665
-30.6649
-30.6648
-30.6645
-30.6642
-30.6639
-30.6635
-30.6633
-30.6635
-30.6643
-30.666
-30.6688
-30.6731
-30.6791
-30.6873
-30.6987
-30.7148
-30.738
-30.772
-30.8216
-30.8922
-30.9894
-31.118
-31.2801
-31.4728
-31.6879
-31.9113
-32.1212
-32.2953
-32.4223
-32.5022
-32.5403
-32.5875
-32.4799
-32.2899
-32.0511
-31.8014
-31.5697
-31.3693
-31.2047
-31.0751
-30.9746
-30.8956
-30.8319
-30.78
-30.7377
-30.7032
-30.676
-30.6557
-30.6413
-30.6318
-30.6259
-30.6227
-30.621
-30.6202
-30.6198
-30.6197
-30.6197
-30.6198
-30.62
-30.6202
-30.6204
-30.6205
-30.6205
-30.6204
-30.6202
-30.6198
-30.6193
-30.6184
-30.6174
-30.6162
-30.615
-30.6139
-30.6133
-30.6134
-30.6145
-30.6167
-30.6203
-30.6255
-30.6332
-30.6449
-30.6629
-30.6915
-30.7363
-30.8039
-30.9012
-31.0348
-31.2086
-31.4202
-31.6606
-31.9145
-32.1542
-32.3492
-32.4867
-32.57
-32.6088
-32.7195
-32.5881
-32.3604
-32.0779
-31.789
-31.5291
-31.3103
-31.1356
-31.0027
-30.9029
-30.8261
-30.7645
-30.7143
-30.6736
-30.6404
-30.6145
-30.5959
-30.5836
-30.5761
-30.5723
-30.571
-30.5711
-30.5716
-30.5723
-30.5731
-30.5737
-30.5744
-30.575
-30.5755
-30.5759
-30.5762
-30.5762
-30.5761
-30.5758
-30.5751
-30.5742
-30.5729
-30.5713
-30.5692
-30.5669
-30.5647
-30.5627
-30.5612
-30.5605
-30.5608
-30.5619
-30.564
-30.5679
-30.5748
-30.5871
-30.6093
-30.6481
-30.7114
-30.8074
-30.9449
-31.1305
-31.362
-31.6301
-31.9192
-32.1939
-32.4117
-32.5586
-32.6432
-32.6812
-32.8707
-32.7099
-32.4376
-32.1039
-31.7705
-31.4811
-31.2441
-31.0601
-30.9257
-30.8284
-30.7554
-30.6964
-30.6482
-30.6094
-30.5774
-30.5527
-30.536
-30.5258
-30.5205
-30.519
-30.5198
-30.5216
-30.5235
-30.5253
-30.5269
-30.5282
-30.5293
-30.5303
-30.5311
-30.5318
-30.5322
-30.5323
-30.5321
-30.5317
-30.5309
-30.5296
-30.5279
-30.5256
-30.5227
-30.5194
-30.5159
-30.5125
-30.5095
-30.5071
-30.5055
-30.5043
-30.5034
-30.5033
-30.5052
-30.511
-30.5259
-30.5574
-30.6149
-30.7079
-30.8479
-31.0454
-31.2978
-31.5953
-31.9252
-32.2417
-32.4842
-32.6382
-32.7213
-32.7566
-33.0437
-32.8459
-32.5218
-32.128
-31.744
-31.4248
-31.1703
-30.9778
-30.8442
-30.7517
-30.684
-30.628
-30.582
-30.5454
-30.5145
-30.4908
-30.4762
-30.4682
-30.4652
-30.4661
-30.4692
-30.4729
-30.4761
-30.4789
-30.4813
-30.4832
-30.4847
-30.4861
-30.4873
-30.4882
-30.4887
-30.4888
-30.4886
-30.4881
-30.4871
-30.4856
-30.4834
-30.4805
-30.4768
-30.4724
-30.4677
-30.4631
-30.4585
-30.4544
-30.4511
-30.4478
-30.4437
-30.4398
-30.4365
-30.4352
-30.4417
-30.4645
-30.5148
-30.603
-30.7435
-30.9527
-31.2269
-31.5551
-31.9322
-32.2995
-32.5683
-32.726
-32.8035
-32.834
-33.2411
-32.9963
-32.6132
-32.1488
-31.7073
-31.3595
-31.0885
-30.8884
-30.7585
-30.6732
-30.6127
-30.5598
-30.516
-30.482
-30.4519
-30.4289
-30.4165
-30.411
-30.4103
-30.4139
-30.4194
-30.425
-30.4296
-30.4333
-30.4365
-30.4389
-30.4408
-30.4426
-30.4441
-30.4453
-30.4459
-30.4461
-30.4458
-30.4452
-30.4441
-30.4422
-30.4397
-30.4363
-30.4317
-30.4263
-30.4204
-30.4144
-30.4084
-30.4026
-30.3978
-30.3925
-30.3853
-30.3776
-30.3691
-30.3602
-30.3572
-30.3698
-30.4116
-30.4928
-30.631
-30.8523
-31.1492
-31.5075
-31.9394
-32.37
-32.666
-32.8222
-32.8891
-32.9121
-33.4662
-33.1608
-32.7122
-32.1646
-31.6575
-31.2847
-30.9989
-30.7915
-30.6689
-30.5934
-30.5423
-30.4922
-30.4503
-30.4198
-30.3899
-30.367
-30.3573
-30.3544
-30.3561
-30.3626
-30.3705
-30.3782
-30.384
-30.3887
-30.3927
-30.3955
-30.3977
-30.3999
-30.4018
-30.4031
-30.4039
-30.404
-30.4038
-30.4031
-30.4019
-30.3997
-30.3969
-30.393
-30.3876
-30.3811
-30.3739
-30.3667
-30.3592
-30.3518
-30.3457
-30.3388
-30.3284
-30.317
-30.3037
-30.2863
-30.2729
-30.2737
-30.3058
-30.3776
-30.5099
-30.7437
-31.0645
-31.4499
-31.9456
-32.4568
-32.7796
-32.9267
-32.9769
-32.9894
-33.7231
-33.3376
-32.8201
-32.1738
-31.5909
-31.2005
-30.9016
-30.6864
-30.5759
-30.5129
-30.4741
-30.4255
-30.385
-30.3593
-30.3286
-30.305
-30.2988
-30.2986
-30.3026
-30.3122
-30.3229
-30.3327
-30.3396
-30.345
-30.3499
-30.353
-30.3554
-30.358
-30.3603
-30.3619
-30.3627
-30.3629
-30.3626
-30.3619
-30.3606
-30.3582
-30.3551
-30.3508
-30.3445
-30.337
-30.3285
-30.3202
-30.3112
-30.3019
-30.2951
-30.2869
-30.2731
-30.2584
-30.2406
-30.2141
-30.1894
-30.1764
-30.1982
-30.2582
-30.3792
-30.627
-30.9737
-31.3789
-31.9486
-32.5648
-32.9118
-33.0392
-33.0653
-33.0642
-34.0171
-33.5232
-32.939
-32.1743
-31.5025
-31.1078
-30.7973
-30.572
-30.4803
-30.4321
-30.4093
-30.36
-30.32
-30.3012
-30.2683
-30.2426
-30.2411
-30.2439
-30.2498
-30.263
-30.2765
-30.2887
-30.2963
-30.3025
-30.3082
-30.3115
-30.3141
-30.3172
-30.3198
-30.3217
-30.3226
-30.3227
-30.3224
-30.3217
-30.3204
-30.3177
-30.3143
-30.3097
-30.3026
-30.294
-30.2841
-30.2748
-30.2645
-30.253
-30.2459
-30.2372
-30.2195
-30.2019
-30.1805
-30.144
-30.1071
-30.0782
-30.0896
-30.1354
-30.2374
-30.5022
-30.8787
-31.2896
-31.9451
-32.7012
-33.0653
-33.159
-33.1529
-33.1349
-34.3548
-33.7112
-33.0732
-32.1637
-31.3857
-31.0089
-30.6872
-30.4467
-30.3832
-30.3513
-30.3496
-30.2955
-30.2546
-30.2466
-30.209
-30.1795
-30.1847
-30.1903
-30.1976
-30.2152
-30.2314
-30.2464
-30.2544
-30.261
-30.2679
-30.2712
-30.2737
-30.2774
-30.2804
-30.2826
-30.2835
-30.2836
-30.2832
-30.2826
-30.2813
-30.2783
-30.2747
-30.27
-30.262
-30.2523
-30.2409
-30.2308
-30.2191
-30.205
-30.1982
-30.1898
-30.1674
-30.1475
-30.1239
-30.0761
-30.0266
-29.9788
-29.981
-30.0106
-30.0823
-30.3691
-30.783
-31.1754
-31.9296
-32.8761
-33.2426
-33.2844
-33.2376
-33.1999
-34.7453
-33.8906
-33.2297
-32.1394
-31.2316
-30.908
-30.5728
-30.3077
-30.2864
-30.2703
-30.2975
-30.2319
-30.1881
-30.1967
-30.1508
-30.1147
-30.13
-30.1382
-30.146
-30.1688
-30.1878
-30.2059
-30.2137
-30.2206
-30.2291
-30.232
-30.2343
-30.2387
-30.242
-30.2446
-30.2455
-30.2455
-30.245
-30.2445
-30.2434
-30.2399
-30.2363
-30.2317
-30.2225
-30.2119
-30.1986
-30.1882
-30.1752
-30.1577
-30.1521
-30.1453
-30.1166
-30.0951
-30.0717
-30.0107
-29.9488
-29.8778
-29.8734
-29.8862
-29.9107
-30.2279
-30.6931
-31.0278
-31.8942
-33.1037
-33.446
-33.4132
-33.3172
-33.2575
-35.2007
-34.0439
-33.4203
-32.0984
-31.0277
-30.812
-30.4561
-30.1508
-30.1927
-30.1881
-30.256
-30.1683
-30.1188
-30.1536
-30.0935
-30.0471
-30.0776
-30.0877
-30.0944
-30.1242
-30.1454
-30.1675
-30.1742
-30.1812
-30.1917
-30.1939
-30.1957
-30.2011
-30.2048
-30.2078
-30.2085
-30.2085
-30.2078
-30.2075
-30.2067
-30.2025
-30.199
-30.1948
-30.1843
-30.1728
-30.1573
-30.147
-30.133
-30.1105
-30.1074
-30.1041
-30.0667
-30.0446
-30.0246
-29.9476
-29.8746
-29.7742
-29.7682
-29.7652
-29.7177
-30.0779
-30.6188
-30.835
-31.827
-33.4041
-33.6763
-33.5421
-33.3894
-33.3063
-35.7379
-34.144
-33.6635
-32.0368
-30.7573
-30.7319
-30.3395
-29.9697
-30.1065
-30.1025
-30.2294
-30.1036
-30.0445
-30.1201
-30.0369
-29.975
-30.0286
-30.039
-30.0424
-30.0815
-30.1041
-30.1314
-30.1357
-30.1425
-30.156
-30.1568
-30.1578
-30.1646
-30.1685
-30.1721
-30.1725
-30.1725
-30.1715
-30.1715
-30.1713
-30.166
-30.1626
-30.1594
-30.1471
-30.1351
-30.1166
-30.1073
-30.0927
-30.0631
-30.0641
-30.067
-30.0169
-29.9954
-29.9839
-29.8862
-29.8053
-29.6661
-29.6667
-29.6527
-29.4968
-29.918
-30.5755
-30.582
-31.711
-33.8053
-33.9319
-33.6666
-33.4518
-33.3451
-36.3796
-34.1509
-33.9878
-31.9497
-30.3977
-30.6839
-30.2256
-29.7553
-30.0348
-30.0097
-30.2237
-30.0358
-29.962
-30.1
-29.9803
-29.8961
-29.9845
-29.9922
-29.989
-30.0413
-30.0635
-30.0979
-30.0979
-30.1041
-30.1222
-30.1206
-30.1203
-30.1292
-30.1331
-30.1375
-30.1374
-30.1373
-30.136
-30.1363
-30.137
-30.1302
-30.1271
-30.1254
-30.1108
-30.0989
-30.0762
-30.0689
-30.0546
-30.0145
-30.0217
-30.035
-29.9663
-29.9468
-29.9512
-29.8255
-29.7429
-29.5507
-29.5699
-29.5556
-29.2384
-29.7453
-30.5853
-30.2492
-31.5222
-34.3462
-34.2078
-33.7811
-33.5022
-33.373
-37.1569
-34.0063
-34.4351
-31.8303
-29.9183
-30.692
-30.117
-29.4946
-29.9877
-29.9027
-30.247
-29.9618
-29.8668
-30.0991
-29.9228
-29.8071
-29.9474
-29.9475
-29.933
-30.0042
-30.023
-30.0677
-30.0605
-30.0658
-30.0905
-30.0851
-30.083
-30.0949
-30.0984
-30.1039
-30.1031
-30.103
-30.1012
-30.1018
-30.104
-30.095
-30.0923
-30.0932
-30.0751
-30.0642
-30.0356
-30.032
-30.0193
-29.9637
-29.9799
-30.0097
-29.9135
-29.8978
-29.9286
-29.7634
-29.6904
-29.424
-29.4791
-29.4841
-28.93
-29.555
-30.6801
-29.8123
-31.2275
-35.0802
-34.4926
-33.8792
-33.5388
-33.3898
-38.1119
-33.6284
-35.066
-31.6692
-29.2792
-30.7894
-30.0158
-29.1699
-29.9808
-29.7712
-30.3109
-29.8778
-29.7533
-30.1249
-29.8631
-29.7042
-29.9205
-29.905
-29.873
-29.9716
-29.9818
-30.0416
-30.0233
-30.0272
-30.0615
-30.0502
-30.0457
-30.0619
-30.0644
-30.0715
-30.0695
-30.0697
-30.067
-30.0681
-30.0726
-30.0601
-30.058
-30.0629
-30.0398
-30.0315
-29.9945
-29.9966
-29.9877
-29.9097
-29.9384
-29.9933
-29.8569
-29.8472
-29.9195
-29.6973
-29.6525
-29.2806
-29.3948
-29.4524
-28.5551
-29.3389
-30.9035
-29.2405
-30.7818
-36.0795
-34.7667
-33.9543
-33.5602
-33.3954
-39.3006
-32.9042
-35.9657
-31.4533
-28.4284
-31.0222
-29.9232
-28.7573
-30.0363
-29.5993
-30.4314
-29.7783
-29.6138
-30.1882
-29.7993
-29.5822
-29.9087
-29.865
-29.8073
-29.9454
-29.9391
-30.0211
-29.9859
-29.988
-30.0362
-30.0161
-30.0084
-30.0309
-30.0313
-30.0408
-30.0368
-30.0376
-30.0337
-30.0352
-30.0432
-30.0259
-30.0245
-30.0354
-30.0048
-30.0016
-29.9524
-29.963
-29.9613
-29.8511
-29.8967
-29.989
-29.7946
-29.7934
-29.9286
-29.6228
-29.6359
-29.1133
-29.3175
-29.4802
-28.0931
-29.084
-31.3146
-28.4965
-30.125
-37.4405
-34.9986
-34.0003
-33.5662
-33.3907
-40.7969
-31.6816
-37.2509
-31.1634
-27.2991
-31.4517
-29.8384
-28.2254
-30.1853
-29.3639
-30.6299
-29.6556
-29.4389
-30.3026
-29.7286
-29.4349
-29.918
-29.8273
-29.7332
-29.9283
-29.8931
-30.0079
-29.948
-29.9478
-30.0158
-29.9826
-29.9709
-30.0024
-29.999
-30.012
-30.0053
-30.007
-30.0015
-30.0034
-30.0163
-29.9921
-29.9916
-30.0113
-29.9697
-29.9756
-29.9087
-29.9315
-29.9421
-29.7863
-29.8541
-30.0008
-29.7241
-29.7342
-29.9619
-29.5336
-29.6499
-28.9124
-29.2457
-29.5935
-27.5175
-28.7708
-31.9907
-27.5352
-29.1779
-39.2895
-35.1402
-34.0126
-33.5572
-33.3764
)
;

boundaryField
{
    left
    {
        type            calculated;
        value           nonuniform List<scalar> 
32
(
-31.9139
-31.9172
-31.9239
-31.9341
-31.9482
-31.9668
-31.9905
-32.02
-32.0562
-32.1001
-32.1526
-32.2148
-32.288
-32.3735
-32.4728
-32.5875
-32.7195
-32.8707
-33.0437
-33.2411
-33.4662
-33.7231
-34.0171
-34.3548
-34.7453
-35.2007
-35.7379
-36.3796
-37.1569
-38.1119
-39.3006
-40.7969
)
;
    }
    right
    {
        type            calculated;
        value           nonuniform List<scalar> 
32
(
-32.1075
-32.1109
-32.1176
-32.1277
-32.1414
-32.1589
-32.1807
-32.2071
-32.2385
-32.2751
-32.3171
-32.3647
-32.4179
-32.4765
-32.5403
-32.6088
-32.6812
-32.7566
-32.834
-32.9121
-32.9894
-33.0642
-33.1349
-33.1999
-33.2575
-33.3063
-33.3451
-33.373
-33.3898
-33.3954
-33.3907
-33.3764
)
;
    }
    interface
    {
        type            calculated;
        value           nonuniform List<scalar> 
64
(
-41.6324
-30.924
-38.0067
-30.9972
-26.6556
-31.7243
-29.7977
-27.9251
-30.2877
-29.2268
-30.7517
-29.5873
-29.3411
-30.3746
-29.691
-29.3539
-29.9288
-29.8091
-29.6937
-29.9224
-29.869
-30.0034
-29.9288
-29.9274
-30.0069
-29.966
-29.952
-29.9888
-29.983
-29.9982
-29.9897
-29.9922
-29.9856
-29.9876
-30.0036
-29.9753
-29.9753
-30.0002
-29.952
-29.9636
-29.8863
-29.9163
-29.9345
-29.752
-29.8324
-30.0113
-29.6864
-29.7028
-29.9854
-29.4844
-29.6658
-28.8022
-29.2109
-29.6752
-27.1977
-28.5966
-32.4059
-26.9939
-28.6206
-40.3538
-35.1812
-34.0098
-33.549
-33.3669
)
;
    }
    bottom
    {
        type            calculated;
        value           nonuniform List<scalar> 
64
(
-31.913
-31.9027
-31.8827
-31.8538
-31.8175
-31.7753
-31.7289
-31.6799
-31.6297
-31.5797
-31.5309
-31.4843
-31.4404
-31.3995
-31.3621
-31.3281
-31.2975
-31.2703
-31.2463
-31.2252
-31.207
-31.1912
-31.1778
-31.1665
-31.157
-31.1493
-31.143
-31.1382
-31.1346
-31.1321
-31.1308
-31.1306
-31.1315
-31.1335
-31.1366
-31.1409
-31.1465
-31.1536
-31.1623
-31.1728
-31.1853
-31.2001
-31.2175
-31.2377
-31.2611
-31.2879
-31.3186
-31.3533
-31.3923
-31.4357
-31.4835
-31.5354
-31.5911
-31.6499
-31.7108
-31.7727
-31.8341
-31.8932
-31.9483
-31.9977
-32.0396
-32.0725
-32.0951
-32.1067
)
;
    }
    defaultFaces
    {
        type            empty;
    }
}


// ************************************************************************* //
