/*--------------------------------*- C++ -*----------------------------------*\
| =========                 |                                                 |
| \\      /  F ield         | OpenFOAM: The Open Source CFD Toolbox           |
|  \\    /   O peration     | Version:  5.x                                   |
|   \\  /    A nd           | Web:      www.OpenFOAM.org                      |
|    \\/     M anipulation  |                                                 |
\*---------------------------------------------------------------------------*/
FoamFile
{
    version     2.0;
    format      ascii;
    class       volScalarField;
    location    "0.0999";
    object      T;
}
// * * * * * * * * * * * * * * * * * * * * * * * * * * * * * * * * * * * * * //

dimensions      [0 0 0 1 0 0 0];

internalField   nonuniform List<scalar> 
2048
(
9.77073
9.7708
9.77095
9.77115
9.77141
9.77172
9.77205
9.7724
9.77276
9.77312
9.77347
9.77381
9.77412
9.77442
9.77469
9.77493
9.77515
9.77535
9.77552
9.77567
9.7758
9.77591
9.77601
9.77609
9.77616
9.77622
9.77626
9.7763
9.77632
9.77634
9.77635
9.77635
9.77634
9.77633
9.77631
9.77628
9.77624
9.77618
9.77612
9.77605
9.77596
9.77585
9.77573
9.77558
9.77541
9.77522
9.775
9.77475
9.77447
9.77416
9.77381
9.77344
9.77304
9.77262
9.77218
9.77174
9.7713
9.77087
9.77047
9.77012
9.76982
9.76958
9.76942
9.76934
9.32219
9.32241
9.32284
9.32346
9.32424
9.32515
9.32615
9.3272
9.32827
9.32934
9.33038
9.33138
9.33231
9.33318
9.33398
9.3347
9.33535
9.33593
9.33644
9.33688
9.33727
9.3376
9.33789
9.33813
9.33833
9.33849
9.33862
9.33873
9.3388
9.33885
9.33888
9.33889
9.33887
9.33883
9.33876
9.33867
9.33855
9.3384
9.33822
9.338
9.33773
9.33742
9.33705
9.33662
9.33613
9.33556
9.33491
9.33417
9.33335
9.33242
9.33141
9.3303
9.32911
9.32786
9.32656
9.32523
9.32392
9.32265
9.32147
9.32041
9.31951
9.31881
9.31832
9.31807
8.8932
8.89357
8.89429
8.89533
8.89664
8.89815
8.89981
8.90155
8.90333
8.9051
8.90682
8.90845
8.90999
8.91142
8.91272
8.9139
8.91496
8.91591
8.91674
8.91746
8.91809
8.91863
8.91909
8.91948
8.9198
8.92007
8.92028
8.92045
8.92057
8.92065
8.9207
8.92071
8.92068
8.92061
8.9205
8.92036
8.92017
8.91992
8.91963
8.91927
8.91884
8.91834
8.91774
8.91705
8.91625
8.91532
8.91426
8.91307
8.91172
8.91021
8.90855
8.90673
8.90478
8.90271
8.90056
8.89838
8.8962
8.8941
8.89213
8.89037
8.88888
8.8877
8.88689
8.88648
8.48286
8.48339
8.48442
8.4859
8.48774
8.48988
8.49221
8.49466
8.49715
8.49961
8.502
8.50427
8.5064
8.50836
8.51016
8.51178
8.51323
8.51452
8.51565
8.51664
8.5175
8.51823
8.51886
8.51938
8.51982
8.52018
8.52047
8.52069
8.52086
8.52097
8.52103
8.52104
8.521
8.52091
8.52077
8.52057
8.52032
8.51999
8.51959
8.51911
8.51853
8.51784
8.51704
8.5161
8.51501
8.51375
8.51231
8.51067
8.50883
8.50676
8.50447
8.50197
8.49927
8.49641
8.49342
8.49036
8.48732
8.48437
8.48162
8.47914
8.47703
8.47538
8.47424
8.47365
8.09032
8.09102
8.09238
8.09432
8.09674
8.09953
8.10257
8.10574
8.10896
8.11212
8.11518
8.11807
8.12077
8.12326
8.12553
8.12758
8.1294
8.13102
8.13244
8.13367
8.13474
8.13566
8.13643
8.13709
8.13763
8.13808
8.13843
8.13871
8.13892
8.13906
8.13913
8.13914
8.13909
8.13898
8.13881
8.13857
8.13825
8.13785
8.13735
8.13675
8.13604
8.13519
8.13419
8.13303
8.13167
8.13011
8.12831
8.12626
8.12394
8.12134
8.11845
8.11528
8.11184
8.10818
8.10435
8.10042
8.09649
8.09268
8.0891
8.08588
8.08314
8.08098
8.0795
8.07874
7.71476
7.71565
7.71736
7.71981
7.72285
7.72634
7.73012
7.73405
7.738
7.74188
7.7456
7.74912
7.75239
7.75539
7.75812
7.76057
7.76275
7.76468
7.76636
7.76783
7.76909
7.77017
7.77109
7.77186
7.7725
7.77302
7.77344
7.77377
7.77401
7.77417
7.77425
7.77427
7.77421
7.77409
7.77388
7.7736
7.77323
7.77276
7.77218
7.77148
7.77065
7.76965
7.76848
7.76711
7.76551
7.76366
7.76153
7.7591
7.75633
7.75322
7.74975
7.74592
7.74176
7.7373
7.73262
7.72779
7.72295
7.71824
7.7138
7.7098
7.70639
7.70371
7.70185
7.70091
7.35538
7.35648
7.35859
7.36159
7.36531
7.36955
7.37412
7.37884
7.38357
7.38817
7.39257
7.39671
7.40054
7.40404
7.40721
7.41004
7.41256
7.41478
7.41672
7.41839
7.41984
7.42107
7.42211
7.42298
7.42371
7.4243
7.42477
7.42514
7.42541
7.42559
7.42569
7.42571
7.42565
7.4255
7.42528
7.42496
7.42454
7.42401
7.42336
7.42258
7.42163
7.42051
7.41918
7.41762
7.41581
7.4137
7.41126
7.40847
7.40529
7.40169
7.39767
7.3932
7.38832
7.38307
7.37751
7.37177
7.36598
7.36031
7.35497
7.35014
7.34602
7.34277
7.34053
7.33938
7.01144
7.01277
7.01533
7.01895
7.02341
7.02847
7.03388
7.03944
7.04496
7.05031
7.0554
7.06014
7.06452
7.06851
7.0721
7.07531
7.07815
7.08064
7.0828
7.08468
7.08628
7.08765
7.0888
7.08977
7.09056
7.09122
7.09174
7.09214
7.09244
7.09264
7.09275
7.09277
7.0927
7.09255
7.0923
7.09195
7.09149
7.09091
7.0902
7.08934
7.0883
7.08706
7.0856
7.08388
7.08187
7.07953
7.07681
7.07369
7.07013
7.06607
7.06151
7.05642
7.05083
7.04478
7.03834
7.03164
7.02486
7.01819
7.01188
7.00616
7.00128
6.99743
6.99477
6.99341
6.68221
6.68381
6.68687
6.69118
6.69646
6.70241
6.70873
6.71517
6.72152
6.72763
6.7334
6.73876
6.74368
6.74813
6.75213
6.75569
6.75883
6.76157
6.76395
6.766
6.76775
6.76924
6.77049
6.77153
6.7724
6.7731
6.77366
6.7741
6.77442
6.77464
6.77475
6.77477
6.7747
6.77454
6.77427
6.7739
6.77341
6.77279
6.77203
6.7711
6.76998
6.76865
6.76707
6.7652
6.76302
6.76047
6.75751
6.75409
6.75017
6.74569
6.74061
6.73493
6.72863
6.72177
6.71443
6.70674
6.69891
6.69118
6.68384
6.67717
6.67146
6.66696
6.66386
6.66227
6.36698
6.36888
6.37251
6.37761
6.38381
6.39073
6.39802
6.40539
6.41261
6.41949
6.42595
6.43191
6.43735
6.44226
6.44665
6.45054
6.45396
6.45694
6.45951
6.46172
6.4636
6.46519
6.46652
6.46764
6.46856
6.4693
6.4699
6.47036
6.4707
6.47093
6.47105
6.47108
6.471
6.47083
6.47055
6.47015
6.46964
6.46899
6.46818
6.4672
6.46602
6.4646
6.46292
6.46094
6.45861
6.45588
6.4527
6.44902
6.44477
6.43989
6.43434
6.42807
6.42109
6.41342
6.40515
6.39644
6.38751
6.37864
6.37018
6.36249
6.3559
6.3507
6.34712
6.34529
6.06509
6.06734
6.07163
6.0776
6.08481
6.0928
6.10115
6.1095
6.1176
6.12528
6.13242
6.13898
6.14493
6.15028
6.15504
6.15924
6.16291
6.1661
6.16885
6.1712
6.17319
6.17487
6.17628
6.17745
6.17841
6.17919
6.17982
6.1803
6.18066
6.18089
6.18102
6.18105
6.18097
6.18079
6.1805
6.18009
6.17956
6.17888
6.17804
6.17702
6.17579
6.17431
6.17255
6.17046
6.168
6.16512
6.16175
6.15783
6.15329
6.14805
6.14205
6.13523
6.12757
6.11909
6.10988
6.1001
6.09001
6.07993
6.07028
6.06147
6.05392
6.04797
6.04388
6.04179
5.77589
5.77855
5.78357
5.79055
5.79889
5.80805
5.81752
5.82691
5.83593
5.8444
5.85222
5.85936
5.8658
5.87156
5.87667
5.88117
5.88508
5.88846
5.89137
5.89383
5.89592
5.89768
5.89914
5.90036
5.90136
5.90217
5.90282
5.90331
5.90368
5.90393
5.90406
5.90409
5.90401
5.90382
5.90352
5.90311
5.90256
5.90186
5.901
5.89995
5.89867
5.89714
5.89532
5.89315
5.89059
5.88758
5.88406
5.87993
5.87514
5.86957
5.86315
5.85581
5.8475
5.83821
5.82804
5.81716
5.80583
5.79446
5.78351
5.7735
5.76492
5.75816
5.75353
5.75117
5.49876
5.50188
5.50776
5.51587
5.52548
5.53591
5.54659
5.55706
5.56701
5.57628
5.58477
5.59247
5.59939
5.60554
5.61098
5.61575
5.61988
5.62344
5.62647
5.62905
5.63121
5.63303
5.63454
5.63579
5.63682
5.63765
5.63831
5.63882
5.6392
5.63945
5.63958
5.63961
5.63953
5.63934
5.63904
5.63861
5.63806
5.63735
5.63647
5.6354
5.6341
5.63253
5.63066
5.62843
5.62579
5.62268
5.61902
5.61473
5.60971
5.60386
5.59707
5.58924
5.58029
5.57021
5.55907
5.54703
5.53441
5.52164
5.50929
5.49798
5.48828
5.48067
5.47547
5.47282
5.2331
5.23676
5.24363
5.25301
5.26403
5.27586
5.28782
5.29941
5.31032
5.32038
5.32952
5.33776
5.34513
5.35166
5.3574
5.36242
5.36675
5.37046
5.37361
5.37627
5.3785
5.38036
5.38191
5.38319
5.38423
5.38508
5.38575
5.38626
5.38664
5.3869
5.38704
5.38706
5.38698
5.38679
5.38649
5.38606
5.3855
5.38479
5.3839
5.38282
5.3815
5.37991
5.37801
5.37573
5.37303
5.36984
5.36607
5.36165
5.35645
5.35035
5.34323
5.33495
5.3254
5.31454
5.30241
5.28918
5.27519
5.26094
5.24707
5.23434
5.22344
5.21493
5.20913
5.20619
4.97834
4.98262
4.99062
5.00145
5.01403
5.02738
5.0407
5.05346
5.06533
5.07616
5.08594
5.0947
5.10248
5.10936
5.11539
5.12063
5.12514
5.12899
5.13224
5.13497
5.13725
5.13914
5.14071
5.142
5.14306
5.14391
5.14459
5.14511
5.14549
5.14574
5.14588
5.14591
5.14583
5.14564
5.14534
5.14491
5.14435
5.14364
5.14275
5.14166
5.14034
5.13874
5.13681
5.13451
5.13177
5.12852
5.12468
5.12015
5.11481
5.10851
5.1011
5.09241
5.0823
5.07068
5.05756
5.0431
5.02767
5.01182
4.99631
4.98203
4.96985
4.96038
4.95397
4.95073
4.73391
4.73892
4.74822
4.76069
4.77502
4.79
4.80476
4.81872
4.83154
4.84314
4.85351
4.86275
4.87093
4.87814
4.88443
4.88988
4.89455
4.89851
4.90184
4.90462
4.90693
4.90884
4.91042
4.91172
4.91278
4.91364
4.91432
4.91484
4.91522
4.91547
4.91561
4.91564
4.91556
4.91537
4.91507
4.91464
4.91409
4.91338
4.9125
4.91142
4.9101
4.9085
4.90657
4.90425
4.90148
4.8982
4.89431
4.8897
4.88425
4.8778
4.87016
4.86111
4.85048
4.83812
4.82402
4.8083
4.79135
4.77379
4.7565
4.74054
4.72697
4.7165
4.70948
4.70595
4.49929
4.50516
4.51594
4.53028
4.54653
4.56327
4.57954
4.59471
4.60849
4.6208
4.63174
4.64143
4.64998
4.65748
4.66402
4.66966
4.67447
4.67853
4.68192
4.68473
4.68706
4.68898
4.69056
4.69186
4.69291
4.69377
4.69444
4.69496
4.69534
4.69559
4.69573
4.69576
4.69568
4.69549
4.69519
4.69477
4.69423
4.69353
4.69266
4.69159
4.69028
4.68869
4.68676
4.68444
4.68167
4.67837
4.67445
4.66981
4.66429
4.65773
4.6499
4.64055
4.62944
4.61639
4.60131
4.5843
4.56576
4.54638
4.52714
4.50935
4.4943
4.48281
4.47518
4.47137
4.27397
4.28082
4.29331
4.30975
4.32813
4.34676
4.3646
4.38101
4.3957
4.4087
4.42015
4.43026
4.43915
4.44692
4.45368
4.4595
4.46443
4.46856
4.472
4.47483
4.47716
4.47907
4.48064
4.48193
4.48298
4.48383
4.4845
4.48501
4.48538
4.48563
4.48577
4.4858
4.48572
4.48553
4.48524
4.48483
4.48429
4.48361
4.48276
4.48171
4.48042
4.47884
4.47693
4.47462
4.47185
4.46855
4.46463
4.45997
4.45443
4.4478
4.43984
4.43025
4.41872
4.40502
4.38898
4.37066
4.35045
4.32913
4.30778
4.28797
4.27134
4.25881
4.2506
4.24654
4.05744
4.06545
4.07989
4.09871
4.11943
4.14006
4.15951
4.17716
4.19274
4.20636
4.21828
4.22877
4.23797
4.24599
4.25296
4.25893
4.26396
4.26816
4.27162
4.27446
4.27677
4.27867
4.28022
4.2815
4.28253
4.28337
4.28403
4.28453
4.2849
4.28515
4.28528
4.2853
4.28523
4.28505
4.28476
4.28436
4.28383
4.28317
4.28234
4.28131
4.28005
4.2785
4.27661
4.27433
4.27157
4.26829
4.26438
4.25974
4.2542
4.24756
4.23952
4.22975
4.21787
4.20357
4.1866
4.16694
4.14501
4.12163
4.09797
4.07593
4.05762
4.04406
4.03531
4.03103
3.84921
3.85861
3.87525
3.89675
3.92005
3.94278
3.96389
3.98277
3.99918
4.01337
4.02569
4.03652
4.046
4.05425
4.06141
4.06753
4.07264
4.07688
4.08036
4.08318
4.08547
4.08733
4.08886
4.09012
4.09113
4.09196
4.09261
4.0931
4.09346
4.0937
4.09383
4.09385
4.09378
4.0936
4.09332
4.09293
4.09242
4.09177
4.09097
4.08997
4.08874
4.08723
4.08538
4.08312
4.08039
4.07713
4.07326
4.06866
4.06315
4.05654
4.0485
4.03861
4.02644
4.0116
3.99376
3.97274
3.94902
3.92348
3.89729
3.87276
3.85269
3.83813
3.82892
3.82446
3.64883
3.65986
3.67899
3.70351
3.72965
3.75455
3.77733
3.79744
3.81462
3.82929
3.84195
3.85309
3.86283
3.87127
3.87861
3.88486
3.89005
3.89431
3.89778
3.90057
3.90282
3.90465
3.90615
3.90738
3.90837
3.90918
3.90982
3.9103
3.91065
3.91088
3.911
3.91103
3.91095
3.91078
3.91051
3.91013
3.90963
3.90901
3.90824
3.90728
3.90609
3.90461
3.9028
3.90058
3.89789
3.89467
3.89085
3.8863
3.88086
3.87433
3.86633
3.8564
3.84401
3.82871
3.81004
3.78766
3.76208
3.73431
3.70534
3.67802
3.65608
3.6406
3.63102
3.62646
3.45584
3.46881
3.49073
3.51864
3.5479
3.57501
3.59947
3.62079
3.63865
3.65372
3.66665
3.67807
3.68804
3.69665
3.70416
3.71054
3.71578
3.72005
3.7235
3.72625
3.72845
3.73022
3.73168
3.73288
3.73385
3.73464
3.73527
3.73574
3.73607
3.73629
3.73641
3.73644
3.73637
3.7362
3.73593
3.73556
3.73509
3.73449
3.73375
3.73283
3.73168
3.73025
3.72849
3.72632
3.72366
3.72048
3.71674
3.71226
3.70691
3.70051
3.69262
3.68272
3.67017
3.65449
3.63509
3.61132
3.58383
3.55377
3.52176
3.49124
3.46737
3.45108
3.44128
3.43667
3.26978
3.28512
3.31007
3.34184
3.37452
3.40381
3.42995
3.45247
3.47089
3.48628
3.49938
3.51106
3.52125
3.52999
3.53767
3.54419
3.54945
3.55371
3.55714
3.55982
3.56195
3.56367
3.56509
3.56626
3.5672
3.56797
3.56858
3.56903
3.56936
3.56957
3.56968
3.56971
3.56964
3.56947
3.56921
3.56886
3.5684
3.56782
3.56712
3.56625
3.56515
3.56377
3.56206
3.55995
3.55733
3.5542
3.55054
3.54615
3.54091
3.53468
3.52696
3.51717
3.50453
3.48855
3.46853
3.44336
3.41389
3.38156
3.3462
3.31197
3.28613
3.26921
3.25934
3.25479
3.09021
3.10848
3.13666
3.17278
3.20925
3.24061
3.2684
3.29214
3.31099
3.32658
3.33976
3.3517
3.3621
3.37091
3.37878
3.38544
3.39069
3.39493
3.39833
3.40093
3.40298
3.40462
3.40601
3.40714
3.40805
3.4088
3.4094
3.40983
3.41014
3.41034
3.41045
3.41048
3.41041
3.41024
3.40999
3.40966
3.40922
3.40866
3.408
3.40718
3.40614
3.40481
3.40315
3.40111
3.39853
3.39544
3.39188
3.3876
3.38248
3.37646
3.36897
3.35938
3.34671
3.33053
3.31003
3.28342
3.25189
3.21741
3.17836
3.13973
3.11195
3.09465
3.08491
3.0805
2.91667
2.93861
2.97011
3.01121
3.05188
3.08505
3.11449
3.13948
3.15856
3.17427
3.1874
3.19963
3.21025
3.21906
3.22713
3.23395
3.23916
3.24337
3.24672
3.24922
3.25118
3.25275
3.25409
3.25518
3.25606
3.25679
3.25738
3.2578
3.25809
3.25828
3.25838
3.2584
3.25834
3.25818
3.25793
3.25761
3.25719
3.25666
3.25604
3.25527
3.25429
3.25301
3.25142
3.24945
3.2469
3.24386
3.24043
3.23625
3.23125
3.2255
3.21829
3.20899
3.19633
3.18005
3.15928
3.13117
3.09745
3.06108
3.01798
2.97404
2.94443
2.92708
2.91769
2.91352
2.74871
2.77535
2.81003
2.85685
2.90223
2.93677
2.96786
2.99421
3.01326
3.02902
3.04193
3.05452
3.06535
3.07408
3.08239
3.08941
3.09451
3.09867
3.10199
3.10437
3.10623
3.1077
3.109
3.11007
3.1109
3.11162
3.11219
3.11259
3.11286
3.11304
3.11314
3.11316
3.1131
3.11294
3.1127
3.1124
3.11199
3.11149
3.11091
3.11019
3.10928
3.10805
3.10653
3.10465
3.10213
3.09911
3.09584
3.09176
3.08687
3.08145
3.07457
3.06567
3.05304
3.03674
3.01599
2.98627
2.95017
2.91239
2.86484
2.81435
2.7832
2.76622
2.75741
2.75358
2.58584
2.61861
2.65599
2.70948
2.76019
2.7954
2.82819
2.85605
2.87474
2.8905
2.90299
2.91605
2.92712
2.93561
2.94425
2.9515
2.95642
2.96054
2.96383
2.96605
2.96781
2.96917
2.97044
2.97148
2.97225
2.97297
2.97354
2.9739
2.97416
2.97432
2.97442
2.97444
2.97438
2.97422
2.97398
2.9737
2.97331
2.97283
2.9723
2.97164
2.97081
2.96962
2.96816
2.96641
2.96389
2.96088
2.9578
2.95382
2.94902
2.94399
2.93746
2.92911
2.9165
2.90024
2.87991
2.84842
2.80962
2.77121
2.7188
2.66008
2.6279
2.6118
2.60383
2.60044
2.42753
2.46844
2.50746
2.56887
2.62572
2.66052
2.69513
2.72479
2.74263
2.75842
2.7702
2.78392
2.79528
2.80333
2.81239
2.81996
2.82458
2.82865
2.83194
2.83396
2.83563
2.83685
2.83811
2.83912
2.83982
2.84054
2.84111
2.84144
2.84168
2.84182
2.84192
2.84194
2.84189
2.84173
2.84149
2.84123
2.84086
2.84038
2.83992
2.83931
2.83856
2.83742
2.83602
2.83442
2.83188
2.82884
2.82601
2.82213
2.81735
2.8128
2.80664
2.799
2.78636
2.77018
2.75082
2.71732
2.67533
2.63746
2.57978
2.51053
2.47822
2.4636
2.45672
2.45385
2.2732
2.32506
2.36387
2.43484
2.49886
2.53165
2.56836
2.60026
2.61656
2.63253
2.64319
2.65786
2.66957
2.67688
2.68654
2.69452
2.69868
2.70273
2.70604
2.70782
2.70939
2.71045
2.71173
2.71271
2.71332
2.71405
2.71462
2.71491
2.71514
2.71526
2.71536
2.71538
2.71533
2.71517
2.71493
2.71471
2.71435
2.71387
2.71348
2.71291
2.71227
2.71116
2.70982
2.7084
2.70583
2.7027
2.70021
2.6964
2.69156
2.68761
2.68179
2.67508
2.66231
2.64618
2.62856
2.59272
2.54672
2.51116
2.44782
2.3649
2.33389
2.32143
2.31586
2.31358
2.12218
2.18889
2.22446
2.30722
2.37975
2.40824
2.44756
2.48232
2.49613
2.51261
2.52158
2.53763
2.54977
2.55592
2.56642
2.57494
2.57842
2.58248
2.58589
2.58733
2.58884
2.58969
2.59102
2.59198
2.59248
2.59324
2.59382
2.59406
2.59427
2.59437
2.59447
2.5945
2.59446
2.59429
2.59404
2.59386
2.5935
2.59302
2.5927
2.59218
2.59167
2.59056
2.58927
2.58811
2.58545
2.58216
2.58012
2.57637
2.57134
2.56815
2.56259
2.55713
2.54404
2.52782
2.51299
2.47437
2.42315
2.39237
2.32306
2.22225
2.19472
2.18513
2.18104
2.17939
1.97371
2.06068
2.0883
2.18589
2.26865
2.28965
2.33242
2.37094
2.3809
2.39851
2.40494
2.423
2.43568
2.44009
2.4518
2.46102
2.46349
2.46766
2.47122
2.47223
2.47372
2.47431
2.47573
2.47668
2.47703
2.47785
2.47845
2.47861
2.47882
2.47889
2.479
2.47902
2.47899
2.47883
2.47855
2.47842
2.47808
2.47756
2.47735
2.47685
2.4765
2.47537
2.4741
2.4733
2.4705
2.46694
2.46552
2.46179
2.45638
2.45417
2.44871
2.44491
2.43125
2.41467
2.40407
2.36208
2.30384
2.28126
2.20582
2.08141
2.06063
2.05455
2.05207
2.05108
1.82689
1.94149
1.95421
2.07077
2.16598
2.17509
2.22264
2.26613
2.27037
2.29011
2.29285
2.31379
2.32716
2.32902
2.34243
2.35257
2.3536
2.358
2.36183
2.36224
2.3638
2.36404
2.36562
2.36657
2.36671
2.36762
2.36826
2.36833
2.36854
2.36856
2.3687
2.36871
2.3687
2.36853
2.36821
2.36816
2.36782
2.36725
2.36717
2.36667
2.36653
2.36534
2.36406
2.36373
2.36072
2.35675
2.35616
2.35242
2.34638
2.34548
2.33983
2.33828
2.32367
2.30624
2.30179
2.25573
2.18782
2.1781
2.09656
1.94096
1.93167
1.92956
1.92874
1.92841
)
;

boundaryField
{
    left
    {
        type            zeroGradient;
    }
    right
    {
        type            zeroGradient;
    }
    interface
    {
        type            fixedValue;
        value           nonuniform List<scalar> 
64
(
1.75335
1.88732
1.88732
2.01665
2.11983
2.11983
2.17095
2.21794
2.21794
2.23965
2.23965
2.26278
2.27667
2.27667
2.29139
2.30221
2.30221
2.30685
2.31092
2.31092
2.31259
2.31259
2.31432
2.31528
2.31528
2.31627
2.31694
2.31694
2.31716
2.31716
2.31732
2.31733
2.31733
2.31715
2.31681
2.31681
2.31646
2.31585
2.31585
2.31533
2.31533
2.31408
2.31276
2.31276
2.3096
2.30529
2.30529
2.30151
2.29494
2.29494
2.28895
2.28895
2.27357
2.25528
2.25528
2.20664
2.1318
2.1318
2.04727
1.8705
1.8705
1.8705
1.8705
1.8705
)
;
    }
    bottom
    {
        type            fixedValue;
        value           uniform 10;
    }
    defaultFaces
    {
        type            empty;
    }
}


// ************************************************************************* //
