/*--------------------------------*- C++ -*----------------------------------*\
| =========                 |                                                 |
| \\      /  F ield         | OpenFOAM: The Open Source CFD Toolbox           |
|  \\    /   O peration     | Version:  5.x                                   |
|   \\  /    A nd           | Web:      www.OpenFOAM.org                      |
|    \\/     M anipulation  |                                                 |
\*---------------------------------------------------------------------------*/
FoamFile
{
    version     2.0;
    format      ascii;
    class       volScalarField;
    location    "4.7";
    object      gradTy;
}
// * * * * * * * * * * * * * * * * * * * * * * * * * * * * * * * * * * * * * //

dimensions      [0 -1 0 1 0 0 0];

internalField   nonuniform List<scalar> 
6300
(
1082.93
1249.22
1416.76
1586.36
1758.77
1934.68
2114.7
2299.29
2488.75
2683.21
2882.53
3086.34
3294
3504.58
3716.93
-0.629879
-1.87676
-3.08393
-4.22159
-5.25534
-6.14496
-6.84426
-7.30215
-7.46565
-7.28499
-6.72095
-5.75363
-4.3912
-2.67579
-0.683993
-1.06415
-3.17209
-5.21718
-7.1516
-8.91921
-10.4532
-11.6753
-12.4972
-12.8248
-12.567
-11.6487
-10.0273
-7.70977
-4.76591
-1.33119
-1.51877
-4.53027
-7.46102
-10.2483
-12.8165
-15.0732
-16.9065
-18.1863
-18.7689
-18.5091
-17.2793
-14.9968
-11.6544
-7.34657
-2.28
-1.99938
-5.96915
-9.84827
-13.564
-17.0253
-20.1162
-22.691
-24.5724
-25.5553
-25.421
-23.9624
-21.0261
-16.5641
-10.6859
-3.68706
-2.50893
-7.49856
-12.3988
-17.1339
-21.6041
-25.6751
-29.1687
-31.8564
-33.4587
-33.6565
-32.1228
-28.5806
-22.8894
-15.1454
-5.75439
-3.0467
-9.11736
-15.1142
-20.9686
-26.582
-31.811
-36.452
-40.2255
-42.766
-43.623
-42.2912
-38.2836
-31.2673
-21.2514
-8.76727
-3.60716
-10.8099
-17.9717
-25.0441
-31.9439
-38.5345
-44.602
-49.8272
-53.7559
-55.7778
-55.1346
-50.9947
-42.6439
-29.8254
-13.1622
-4.17915
-12.5432
-20.9185
-29.2918
-37.6145
-45.7805
-53.5938
-60.7248
-66.6519
-70.5968
-71.4739
-67.916
-58.4877
-42.2435
-19.6766
-4.74536
-14.265
-23.867
-33.5896
-43.4414
-53.3785
-63.2672
-72.8252
-81.5293
-88.4825
-92.2472
-90.7066
-81.1469
-60.984
-29.7117
-5.28256
-15.9044
-26.6946
-37.7577
-49.1825
-61.0241
-73.2705
-85.7786
-98.1565
-109.555
-118.325
-121.515
-114.408
-90.8336
-46.355
-5.76295
-17.3753
-29.2489
-41.5638
-54.5061
-68.2642
-83.0112
-98.8609
-115.761
-133.257
-149.979
-162.621
-164.136
-141.586
-77.7878
-6.15681
-18.5847
-31.3616
-44.7417
-59.0134
-74.5144
-91.6482
-110.891
-132.769
-157.73
-185.712
-214.851
-237.928
-233.585
-150.623
-6.43637
-19.4448
-32.8705
-47.0277
-62.2905
-79.131
-98.1747
-120.285
-146.693
-179.181
-220.284
-273.141
-339.136
-404.199
-369.689
-6.58018
-19.8874
-33.6476
-48.2074
-63.9891
-81.5433
-101.633
-125.38
-154.534
-192.016
-243.099
-318.291
-441.27
-674.383
-1214.96
3911.97
4088.65
4263.84
4436.67
4606.33
4772.08
4933.23
5089.18
5239.43
5383.54
5521.16
5652
5775.82
5892.43
6001.7
6103.52
6197.82
6284.56
6363.72
6435.33
6499.43
6556.09
6605.39
6647.45
6682.4
6710.37
6731.53
6746.04
6754.08
6755.83
6751.46
6741.15
6725.1
6703.47
6676.45
6644.2
6606.89
6564.68
6517.73
6466.22
6410.28
6350.08
6285.78
6217.52
6145.47
6069.76
5990.53
5907.94
5822.09
5733.13
5641.16
5546.29
5448.63
5348.28
5245.35
5139.94
5032.17
4922.13
4809.96
4695.76
4579.67
4461.79
4342.26
4221.2
4098.72
3974.96
3850.04
3724.1
3597.27
3469.72
3341.61
3213.14
3084.53
2956.01
2827.82
2700.25
2573.59
2448.12
2324.17
2202.03
2082.01
1964.42
1849.54
1737.63
1628.96
1523.73
1422.13
1324.3
1230.34
1140.29
1.29983
3.14811
4.97425
6.719
8.33563
9.79249
11.0731
12.1742
13.103
13.8734
14.5028
15.009
15.4086
15.7157
15.9411
16.093
16.1773
16.1984
16.1599
16.0651
15.9178
15.7221
15.4829
15.2052
14.8947
14.5569
14.1978
13.8227
13.4372
13.0461
12.6537
12.2638
11.8792
11.5017
11.1323
10.771
10.4171
10.0691
9.72574
9.38579
9.04859
8.71429
8.38391
8.0593
7.74285
7.43711
7.14438
6.8662
6.60302
6.35401
6.11699
5.8887
5.66515
5.44218
5.21601
4.98378
4.74393
4.49629
4.24194
3.98285
3.72125
3.45902
3.19697
2.93436
2.66857
2.39508
2.10775
1.79939
1.46254
1.09031
0.677221
0.219932
-0.282389
-0.827905
-1.41227
-2.02903
-2.67007
-3.32624
-3.98769
-4.64423
-5.28536
-5.90021
-6.47737
-7.00476
-7.46975
-7.85953
-8.16198
-8.36679
-8.46671
-8.45865
2.09422
5.28115
8.41905
11.4014
14.1464
16.601
18.7405
20.5645
22.0904
23.3469
24.3671
25.1844
25.8282
26.3223
26.6849
26.9286
27.0621
27.0914
27.0216
26.8577
26.6055
26.2718
25.8648
25.3931
24.8664
24.2943
23.6868
23.0532
22.4028
21.7439
21.0841
20.4298
19.7857
19.1551
18.5395
17.9386
17.3506
16.773
16.2026
15.6371
15.0749
14.516
13.9625
13.4177
12.8862
12.3731
11.8827
11.4184
10.9812
10.5696
10.1798
9.80566
9.43973
9.07412
8.70173
8.31722
7.91778
7.50335
7.07637
6.64102
6.20212
5.76381
5.32831
4.89484
4.45909
4.01307
3.54566
3.04367
2.49324
1.88156
1.19847
0.437664
-0.402429
-1.31851
-2.30274
-3.34353
-4.42655
-5.53582
-6.65452
-7.76551
-8.85143
-9.89441
-10.8756
-11.7747
-12.5701
-13.239
-13.7595
-14.1123
-14.2838
-14.2677
2.78438
7.48567
12.0888
16.4268
20.3766
23.8645
26.8637
29.3855
31.4674
33.1618
34.5254
35.6114
36.4648
37.1201
37.6016
37.9247
38.0985
38.1289
38.0207
37.7793
37.4123
36.9292
36.3416
35.6623
34.9054
34.085
33.2153
32.3101
31.3826
30.4452
29.5088
28.583
27.6749
26.7892
25.9277
25.0896
24.2715
23.4684
22.6747
21.8857
21.0983
20.3123
19.5306
18.7589
18.0052
17.2782
16.5857
15.9336
15.3243
14.7558
14.2219
13.7127
13.2157
12.7177
12.2067
11.6739
11.1149
10.5302
9.92453
9.30596
8.68374
8.06615
7.45824
6.86013
6.26587
5.66328
5.03478
4.35903
3.61344
2.77696
1.83285
0.770788
-0.411868
-1.70984
-3.11066
-4.59612
-6.14419
-7.73082
-9.33148
-10.922
-12.4784
-13.9767
-15.3912
-16.6934
-17.8517
-18.8315
-19.5977
-20.1185
-20.3703
-20.3422
3.33438
9.83144
16.1403
22.0113
27.2717
31.8317
35.6746
38.84
41.4027
43.4536
45.0837
46.3736
47.3869
48.1686
48.7468
49.1359
49.3419
49.3665
49.2118
48.8824
48.3869
47.7377
46.9507
46.0439
45.0363
43.9471
42.7954
41.5996
40.3774
39.1455
37.9191
36.7113
35.5325
34.3889
33.283
32.2125
31.1714
30.1508
29.1409
28.1326
27.1204
26.103
25.0849
24.0751
23.0867
22.1342
21.2312
20.388
19.6093
18.8928
18.2292
17.6029
16.9939
16.3806
15.7437
15.0691
14.3499
13.5878
12.7919
11.9768
11.1594
10.3552
9.57472
8.82051
8.08525
7.35145
6.59255
5.77557
4.8651
3.82794
2.63767
1.27814
-0.254675
-1.95249
-3.79609
-5.758
-7.80573
-9.90505
-12.0225
-14.1268
-16.1887
-18.1792
-20.0677
-21.8188
-23.3899
-24.7311
-25.7887
-26.5114
-26.8595
-26.8135
3.72099
12.4489
20.823
28.4756
35.1763
40.8321
45.462
49.1634
52.0761
54.3523
56.1334
57.5355
58.6437
59.5116
60.1656
60.6124
60.8478
60.8639
60.656
60.2263
59.5842
58.7463
57.7343
56.5725
55.2864
53.9012
52.441
50.9291
49.3881
47.8397
46.3044
44.8001
43.3411
41.9366
40.5892
39.295
38.0437
36.8201
35.6066
34.3874
33.1518
31.897
30.6291
29.3626
28.1184
26.9208
25.7926
24.7515
23.8065
22.9555
22.1848
21.4702
20.7799
20.0793
19.337
18.5301
17.6485
16.6959
15.6887
14.6527
13.6176
12.6117
11.655
10.7551
9.90403
9.07722
8.23536
7.32814
6.30055
5.1007
3.68752
2.03628
0.141343
-1.98398
-4.30997
-6.79513
-9.39181
-12.052
-14.7314
-17.3918
-20.0004
-22.5274
-24.9412
-27.2025
-29.258
-31.0383
-32.4611
-33.4429
-33.9153
-33.8433
3.94367
15.5761
26.5446
36.3103
44.5855
51.3091
56.5859
60.6218
63.6657
65.9639
67.7284
69.1205
70.2467
71.1624
71.8824
72.3935
72.6692
72.6835
72.4198
71.8758
71.0634
70.0057
68.7334
67.2801
65.6795
63.9634
62.1611
60.3007
58.4096
56.5154
54.6452
52.8239
51.0718
49.4022
47.8191
46.3162
44.8767
43.475
42.0809
40.6662
39.2115
37.7104
36.1717
34.6182
33.0838
31.6079
30.229
28.9773
27.869
26.9031
26.0601
25.3029
24.5813
23.8388
23.0236
22.0991
21.0497
19.8831
18.6276
17.3276
16.0345
14.7976
13.6539
12.6201
11.6883
10.8252
9.97276
9.05452
7.9845
6.68111
5.08063
3.1458
0.869566
-1.72603
-4.59417
-7.67113
-10.8859
-14.1706
-17.4671
-20.7308
-23.9291
-27.0379
-30.0337
-32.8817
-35.5218
-37.8593
-39.7679
-41.107
-41.7544
-41.6448
4.05546
19.6593
33.9977
46.2904
56.2283
63.8679
69.4949
73.5065
76.3269
78.3418
79.8574
81.0864
82.1503
83.093
83.8978
84.5111
84.8648
84.9009
84.5846
83.9094
82.8931
81.5717
79.9905
78.1972
76.2365
74.1471
71.9625
69.714
67.4332
65.1543
62.9133
60.7458
58.6815
56.741
54.9313
53.2439
51.6531
50.1169
48.5828
47.0006
45.3358
43.5758
41.7336
39.8445
37.9628
36.1533
34.4804
32.9946
31.7247
30.6721
29.81
29.0828
28.411
27.7011
26.8662
25.8464
24.6183
23.1965
21.6292
19.9909
18.3688
16.8481
15.4932
14.3366
13.3726
12.5563
11.8037
10.9983
10.0033
8.6882
6.95412
4.74589
2.05667
-1.07656
-4.57854
-8.34946
-12.2801
-16.2726
-20.2506
-24.1642
-27.9868
-31.7113
-35.3389
-38.8601
-42.2212
-45.2976
-47.8942
-49.7668
-50.6829
-50.5169
4.23688
25.5637
44.3957
59.6599
71.1792
79.3228
84.7272
88.1035
90.1442
91.4349
92.3949
93.286
94.2242
95.2175
96.1846
96.998
97.5132
97.6211
97.2614
96.429
95.1573
93.5068
91.5478
89.3502
86.9736
84.4626
81.8509
79.1688
76.4491
73.7336
71.0707
68.5139
66.1081
63.8866
61.8623
60.0278
58.3461
56.7509
55.1491
53.4494
51.5923
49.5552
47.3585
45.0553
42.7336
40.4977
38.4579
36.6966
35.2632
34.1625
33.3613
32.7788
32.2916
31.7394
30.9708
29.8901
28.4617
26.7157
24.7294
22.6274
20.5536
18.6565
17.0433
15.7727
14.841
14.1925
13.7078
13.212
12.4802
11.2958
9.50758
7.03595
3.88058
0.101443
-4.17796
-8.79996
-13.5872
-18.3975
-23.1284
-27.7302
-32.1869
-36.5255
-40.7983
-45.0698
-49.3312
-53.427
-57.0633
-59.8037
-61.1695
-60.908
5.012
35.0596
59.9297
78.4203
90.9898
98.7216
102.879
104.622
105.04
105.002
105.03
105.415
106.216
107.377
108.69
109.912
110.745
111.012
110.616
109.578
107.964
105.883
103.446
100.758
97.9016
94.9204
91.838
88.675
85.4565
82.2343
79.0727
76.0618
73.267
70.7456
68.5176
66.5894
64.9119
63.3921
61.8543
60.1224
58.1056
55.7624
53.1345
50.2906
47.3788
44.5578
42.0321
39.9246
38.3208
37.2197
36.596
36.3354
36.2641
36.0876
35.5231
34.4325
32.7609
30.5791
27.9947
25.2217
22.4823
20.0545
18.0988
16.719
15.9
15.5912
15.6267
15.7639
15.6074
14.7715
13.0439
10.3094
6.60165
1.99884
-3.28492
-9.01328
-14.8619
-20.6373
-26.1925
-31.5055
-36.5574
-41.4345
-46.2598
-51.2935
-56.6795
-62.2173
-67.522
-71.8194
-73.9986
-73.5369
7.9746
52.0108
84.6495
105.705
117.766
123.268
124.509
123.051
120.595
118.477
117.151
116.949
117.692
119.321
121.33
123.386
124.797
125.359
124.9
123.561
121.447
118.777
115.708
112.414
109.013
105.528
101.945
98.2654
94.4736
90.6522
86.8624
83.3033
80.0365
77.1869
74.746
72.7946
71.2554
70.0638
68.8436
67.2106
65.0935
62.3845
59.226
55.6287
51.898
48.1973
45.0088
42.4322
40.6589
39.5942
39.3121
39.6241
40.3922
40.999
40.8372
39.8157
37.7992
35.0265
31.5356
27.7718
23.9666
20.7764
18.3292
16.8616
16.2283
16.4976
17.4028
18.7422
19.7164
19.5343
18.0336
14.9875
10.6148
4.87999
-1.74845
-9.05022
-16.239
-23.191
-29.6025
-35.6539
-41.1764
-46.4153
-51.4181
-57.0072
-63.8065
-71.3407
-79.4286
-86.8823
-90.6283
-89.6358
18.6473
85.3751
126.05
145.943
153.983
153.948
150.02
142.916
135.658
130.806
127.653
127.119
127.886
130.718
133.896
137.788
140.067
141.171
140.447
138.654
135.73
132.239
128.29
124.221
120.24
116.274
112.189
108.013
103.53
99.0211
94.3164
90.1206
86.2021
83.0364
80.2663
78.403
77.095
76.7738
76.4243
74.9928
72.9306
69.6508
65.9466
61.1558
56.3711
51.0966
47.1016
43.7802
41.974
40.8389
41.1703
42.2535
44.7503
47.0144
47.387
46.6293
43.9241
40.5056
35.4672
30.3792
24.5632
20.4263
17.1468
15.8007
15.2549
16.4864
18.5518
22.2442
25.4888
26.1942
25.2468
21.5742
16.5876
9.04639
0.756143
-9.25117
-17.9583
-26.5239
-33.5318
-40.5645
-46.2045
-51.7362
-55.7322
-60.9782
-69.8748
-79.666
-92.248
-107.283
-114.081
-111.435
59.474
156.255
197.373
203.251
201.829
190.232
180.104
163
147.256
140.688
134.381
135.414
135.106
141.612
145.43
154.512
157.027
159.614
157.529
155.372
150.826
146.358
141.043
135.9
131.443
127.188
122.563
118.199
112.622
107.669
101.035
96.5362
91.2811
88.3141
84.4783
83.2097
81.5114
83.5223
85.5607
83.681
82.5188
77.5264
74.23
66.6721
61.5477
52.1514
48.2225
42.9445
42.3209
39.9703
41.9443
42.8455
49.4417
55.7517
55.5628
56.2455
51.0743
48.3158
39.4689
34.0334
22.7404
18.8403
13.179
13.586
11.721
15.2729
17.3566
26.3896
34.9163
35.2326
36.3831
30.052
26.2376
14.2904
5.7323
-11.3253
-19.882
-32.1005
-37.4258
-47.4806
-51.389
-59.2681
-58.2464
-59.6919
-74.6544
-83.9718
-101.533
-139.546
-151.129
-143.057
235.971
307.287
319.436
271.068
264.325
224.397
220.232
181.123
145.641
150.192
130.542
145.637
132.512
156.377
149.384
180.689
173.883
184.783
174.715
175.531
165.806
161.699
153.547
146.59
142.355
138.635
132.559
130.135
120.815
118.739
104.68
104.041
93.0662
94.8435
84.9946
88.6361
80.5874
90.2323
100.34
91.3369
97.6234
82.9606
88.6509
68.6855
72.8768
45.3346
51.2874
35.4077
45.156
32.8754
44.2643
35.2381
54.5461
73.8484
62.4845
74.2924
54.7514
64.8944
38.5592
46.1236
10.2729
19.7918
0.4742
14.6443
0.388104
16.1744
6.15576
31.2646
56.1676
43.0703
58.2932
34.9063
47.5995
14.6548
22.9486
-25.6393
-16.5317
-47.6017
-34.508
-63.2459
-50.8542
-79.6154
-57.2062
-38.9396
-87.561
-76.4043
-81.367
-209.862
-216.479
-192.06
1102.63
543.518
528.637
278.943
374.6
207.059
310.677
194.019
86.3749
194.543
76.6657
196.493
76.6504
215.572
98.184
261.743
165.235
240.139
176.224
210.865
172.692
182.859
164.325
153.357
152.519
153.472
137.29
151.996
118.57
147.063
88.9939
126.427
76.4837
118.11
66.0804
110.892
54.1806
96.2713
142.636
76.9714
142.891
59.0825
140.012
35.9095
129.899
-9.71844
85.7875
-9.03672
79.7096
-8.30676
75.9788
-13.1735
59.6555
136.101
36.0356
137.478
15.6804
133.998
-11.1685
120.728
-67.529
62.2652
-60.4553
56.6341
-54.2083
54.2329
-55.631
36.4335
132.137
10.1244
135.799
-12.1972
134.677
-44.3662
122.072
-123.036
44.673
-126.7
28.6463
-138.238
8.94038
-173.648
-50.2008
78.1308
-186.547
-45.6245
116.686
-455.677
-326.518
-273.77
1045.54
947.734
855.289
767.938
685.343
607.119
532.848
462.094
394.416
329.374
266.537
205.484
145.803
87.095
28.9674
-8.33282
-8.05246
-7.64818
-7.14434
-6.56708
-5.94134
-5.28876
-4.62652
-3.96712
-3.31858
-2.68508
-2.06767
-1.46502
-0.874035
-0.290494
-14.0467
-13.5582
-12.8574
-11.9888
-10.999
-9.93216
-8.82541
-7.70781
-6.59987
-5.51431
-4.45729
-3.42976
-2.42874
-1.44846
-0.481325
-20.0078
-19.2759
-18.2343
-16.954
-15.5079
-13.9626
-12.3727
-10.7793
-9.21011
-7.68139
-6.19992
-4.76527
-3.37167
-2.00973
-0.667657
-26.3355
-25.3028
-23.8495
-22.0845
-20.1158
-18.0375
-15.9234
-13.8263
-11.7797
-9.80108
-7.89565
-6.05963
-4.2829
-2.5511
-0.847215
-33.174
-31.7496
-29.7758
-27.4183
-24.833
-22.1477
-19.4568
-16.8227
-14.2812
-11.8474
-9.52181
-7.29459
-5.14913
-3.06451
-1.0173
-40.706
-38.7452
-36.0851
-32.9794
-29.6495
-26.263
-22.933
-19.7262
-16.6746
-13.7853
-11.0495
-8.44768
-5.9544
-3.54047
-1.17477
-49.1738
-46.4396
-42.8392
-38.7641
-34.5219
-30.3213
-26.2854
-22.4742
-18.9052
-15.5696
-12.4428
-9.4921
-6.68023
-3.96814
-1.31605
-58.9101
-54.9996
-50.0676
-44.7152
-39.3521
-34.2143
-29.4127
-24.9796
-20.9023
-17.1447
-13.66
-10.3975
-7.30615
-4.33575
-1.43729
-70.3765
-64.5805
-57.7157
-50.6764
-43.9565
-37.7705
-32.1709
-27.1287
-22.5792
-18.4465
-14.6546
-11.1316
-7.81102
-4.63133
-1.53464
-84.1891
-75.2284
-65.5371
-56.317
-48.0261
-40.7395
-34.3713
-28.7845
-23.8388
-19.4073
-15.38
-11.663
-8.17487
-4.84383
-1.60455
-101.019
-86.6057
-72.8861
-61.0274
-51.0905
-42.7894
-35.7895
-29.7987
-24.5839
-19.9634
-15.7949
-11.9653
-8.38148
-4.96449
-1.64426
-120.898
-97.2879
-78.3728
-63.8151
-52.518
-43.5375
-36.1979
-30.0364
-24.7344
-20.067
-15.8708
-12.0215
-8.42112
-4.9883
-1.65222
-140.212
-103.273
-79.5006
-63.3411
-51.6281
-42.6436
-35.4276
-29.4142
-24.2495
-19.6993
-15.5993
-11.8286
-8.29303
-4.91527
-1.62851
-139.901
-96.0887
-73.0141
-58.4192
-48.0087
-39.9806
-33.4541
-27.9427
-23.1499
-18.8808
-14.9983
-11.4005
-8.00694
-4.75116
-1.57503
-6.58876
-19.9128
-33.689
-48.2637
-64.0596
-81.6295
-101.742
-125.53
-154.777
-192.489
-244.182
-321.068
-448.859
-694.579
-1254.2
-6.48438
-19.5896
-33.1152
-47.3795
-62.7649
-79.7596
-99.021
-121.477
-148.491
-182.137
-225.605
-283.512
-360.287
-445.518
-424.505
-6.28517
-18.9744
-32.0282
-45.7163
-60.3519
-76.3148
-94.0814
-114.257
-137.597
-164.963
-196.998
-232.852
-265.84
-270.23
-169.811
-6.00331
-18.1059
-30.5004
-43.3948
-57.0166
-71.617
-87.4681
-104.838
-123.907
-144.546
-165.736
-184.179
-191.253
-167.725
-81.2274
-5.65477
-17.0345
-28.6251
-40.5679
-53.0012
-66.0499
-79.7996
-94.2372
-109.126
-123.745
-136.379
-143.4
-137.915
-108.947
-45.3911
-5.25746
-15.8165
-26.5051
-37.4
-48.5579
-59.9955
-71.6526
-83.3228
-94.5308
-104.321
-110.921
-111.304
-100.882
-74.1891
-28.4614
-4.8295
-14.5083
-24.2416
-34.0492
-43.9199
-53.7883
-63.4958
-72.7285
-80.9196
-87.1105
-89.7791
-86.7123
-75.1467
-52.649
-19.3059
-4.38776
-13.162
-21.9265
-30.6542
-39.2831
-47.6923
-55.6684
-62.8568
-68.6966
-72.3454
-72.6192
-68.0217
-57.0023
-38.6401
-13.8088
-3.94689
-11.8223
-19.6366
-27.3277
-34.7986
-41.8968
-48.3876
-53.921
-57.9946
-59.9231
-58.8414
-53.7902
-43.9565
-29.1232
-10.2466
-3.51872
-10.525
-17.4321
-24.1539
-30.5726
-36.5226
-41.7712
-45.9988
-48.7819
-49.5907
-47.8195
-42.8795
-34.3823
-22.4138
-7.80681
-3.11215
-9.29654
-15.3561
-21.1902
-26.6719
-31.6353
-35.8636
-39.0793
-40.9398
-41.0496
-38.9978
-34.4385
-27.2186
-17.5364
-6.06607
-2.73328
-8.15468
-13.4364
-18.4712
-23.1309
-27.2581
-30.6591
-33.1005
-34.3132
-34.0092
-31.9171
-27.845
-21.7645
-13.9007
-4.78485
-2.38576
-7.10976
-11.6879
-16.0124
-19.9596
-23.385
-26.1205
-27.9746
-28.7398
-28.2101
-26.2112
-22.646
-17.5487
-11.1344
-3.81875
-2.07121
-6.16603
-10.1156
-13.8155
-17.1503
-19.9908
-22.1938
-23.6046
-24.0654
-23.431
-21.5929
-18.5108
-14.2472
-8.99381
-3.07615
-1.78972
-5.32308
-8.71663
-11.872
-14.684
-17.0392
-18.8171
-19.8941
-20.1513
-19.4876
-17.8382
-15.196
-11.6331
-7.31445
-2.49646
-1.5402
-4.57717
-7.48293
-10.1669
-12.5348
-14.4882
-15.927
-16.7528
-16.8764
-16.2286
-14.7728
-12.5204
-9.54355
-5.98182
-2.03824
-1.32081
-3.92235
-6.40316
-8.68128
-10.6732
-12.2946
-13.4624
-14.0988
-14.1372
-13.5305
-12.2604
-10.3478
-7.86012
-4.9143
-1.67229
-1.12924
-3.35133
-5.46408
-7.39429
-9.06884
-10.4158
-11.3668
-11.86
-11.8459
-11.2929
-10.1941
-8.57449
-6.49474
-4.05244
-1.37755
-0.962947
-2.85621
-4.65171
-6.28476
-7.69187
-8.81201
-9.58878
-9.97344
-9.92883
-9.43409
-8.48947
-7.12062
-5.38108
-3.35206
-1.13849
-0.819298
-2.42896
-3.95211
-5.33209
-6.5141
-7.44655
-8.08303
-8.38486
-8.32422
-7.88763
-7.07935
-5.9241
-4.4684
-2.77979
-0.943473
-0.695731
-2.06177
-3.3519
-4.51686
-5.50957
-6.28655
-6.80959
-7.04791
-6.98061
-6.59922
-5.9101
-4.93617
-3.71744
-2.31007
-0.783603
-0.589814
-1.74726
-2.83859
-3.82119
-4.65481
-5.30285
-5.73382
-5.92314
-5.85504
-5.52444
-4.9386
-4.11819
-3.09742
-1.92304
-0.652013
-0.499296
-1.47866
-2.40076
-3.22894
-3.92889
-4.46983
-4.8258
-4.97708
-4.91171
-4.62686
-4.12995
-3.43931
-2.58406
-1.60312
-0.543332
-0.422129
-1.2498
-2.02813
-2.7257
-3.31336
-3.76523
-4.05988
-4.18143
-4.12076
-3.87649
-3.4558
-2.87472
-2.15795
-1.33793
-0.45331
-0.356478
-1.05519
-1.71157
-2.29878
-2.79208
-3.16978
-3.41412
-3.51229
-3.45726
-3.24861
-2.89299
-2.40433
-1.80351
-1.11761
-0.37856
-0.300718
-0.889965
-1.44302
-1.93704
-2.35107
-2.66691
-2.86985
-2.94949
-2.90041
-2.72276
-2.42256
-2.01181
-1.50815
-0.934172
-0.316356
-0.253419
-0.749864
-1.21547
-1.63082
-1.97823
-2.24241
-2.41118
-2.47606
-2.43283
-2.28198
-2.02887
-1.68378
-1.2616
-0.781175
-0.264496
-0.213337
-0.631173
-1.0228
-1.37177
-1.66316
-1.88416
-2.02464
-2.07767
-2.03997
-1.91218
-1.69903
-1.40929
-1.05548
-0.65335
-0.221182
-0.17939
-0.530675
-0.85975
-1.1527
-1.39696
-1.5818
-1.69879
-1.74228
-1.70966
-1.60165
-1.42237
-1.17928
-0.882893
-0.546384
-0.184946
-0.150645
-0.445597
-0.721773
-0.967439
-1.17202
-1.32653
-1.42399
-1.45972
-1.43168
-1.3406
-1.19002
-0.986263
-0.738165
-0.456723
-0.15458
-0.126299
-0.373553
-0.604977
-0.810697
-0.981835
-1.11088
-1.19202
-1.22143
-1.19748
-1.12084
-0.994584
-0.82403
-0.616588
-0.381433
-0.129086
-0.105664
-0.312497
-0.506027
-0.677963
-0.820872
-0.928485
-0.995978
-1.0202
-0.999839
-0.935541
-0.829901
-0.687406
-0.51425
-0.318078
-0.107638
-0.0881473
-0.260678
-0.422067
-0.565381
-0.684412
-0.773942
-0.829972
-0.849909
-0.832707
-0.778939
-0.690806
-0.572067
-0.42789
-0.26463
-0.0895452
-0.0732441
-0.216594
-0.350656
-0.469656
-0.568432
-0.642657
-0.689024
-0.705405
-0.69096
-0.646193
-0.572958
-0.474389
-0.354777
-0.219391
-0.0742336
-0.0605194
-0.178958
-0.289701
-0.38797
-0.469497
-0.530711
-0.568893
-0.582301
-0.570262
-0.533213
-0.472699
-0.391318
-0.292617
-0.180937
-0.0612194
-0.0496
-0.146664
-0.237407
-0.317907
-0.384664
-0.434755
-0.46596
-0.476864
-0.466927
-0.436522
-0.386925
-0.320272
-0.239467
-0.148062
-0.0500945
-0.0401636
-0.118758
-0.192225
-0.257384
-0.311401
-0.351911
-0.377121
-0.385894
-0.377802
-0.353156
-0.312994
-0.25905
-0.193676
-0.119742
-0.0405119
-0.0319304
-0.0944113
-0.15281
-0.204596
-0.247515
-0.279688
-0.299694
-0.306633
-0.300171
-0.28056
-0.24863
-0.205763
-0.153826
-0.0951009
-0.0321743
-0.0246551
-0.0728985
-0.117987
-0.157963
-0.191088
-0.215912
-0.231338
-0.236675
-0.231668
-0.216515
-0.191861
-0.158771
-0.11869
-0.0733761
-0.024824
-0.0181203
-0.0535764
-0.0867116
-0.116088
-0.140425
-0.158659
-0.169986
-0.173897
-0.170209
-0.159067
-0.140948
-0.116634
-0.0871871
-0.0538991
-0.0182345
-0.0121303
-0.0358653
-0.0580462
-0.0777098
-0.0939996
-0.106203
-0.113781
-0.116396
-0.113924
-0.106464
-0.0943341
-0.0780596
-0.0583508
-0.0360721
-0.0122034
-0.00650499
-0.0192333
-0.0311284
-0.041674
-0.0504109
-0.0569566
-0.0610225
-0.0624267
-0.0611025
-0.0571027
-0.0505979
-0.0418695
-0.0312986
-0.0193488
-0.00654585
-0.00107525
-0.00317962
-0.00514748
-0.006894
-0.00834338
-0.0094321
-0.0101117
-0.0103511
-0.0101382
-0.00948044
-0.00840523
-0.00695868
-0.0052038
-0.00321784
-0.00108877
0.00432247
0.0127793
0.0206798
0.0276798
0.0334738
0.0378085
0.0404935
0.0414104
0.0405174
0.0378521
0.0335296
0.0277382
0.0207306
0.0128138
0.00433467
0.0098508
0.0291244
0.0471323
0.0630909
0.0763042
0.0861943
0.0923264
0.0944283
0.0924034
0.086335
0.0764843
0.0632792
0.0472964
0.0292358
0.00989019
0.0156763
0.0463482
0.0750075
0.100408
0.121442
0.137189
0.146957
0.150311
0.147097
0.137444
0.121768
0.100749
0.0753045
0.0465498
0.0157476
0.0219742
0.0649694
0.105145
0.140756
0.170249
0.192335
0.20604
0.210755
0.206259
0.192734
0.170761
0.141291
0.105611
0.0652853
0.022086
0.0289339
0.0855477
0.138453
0.185351
0.2242
0.253299
0.271366
0.277594
0.27169
0.253891
0.224957
0.186143
0.139143
0.086016
0.0290995
0.036764
0.108701
0.17593
0.235535
0.284919
0.321921
0.34491
0.352854
0.345378
0.322777
0.286014
0.23668
0.176927
0.109378
0.0370035
0.0456991
0.135122
0.218701
0.292813
0.354234
0.400273
0.428898
0.438821
0.429567
0.401495
0.355798
0.294449
0.220125
0.136089
0.046041
0.0560054
0.1656
0.268044
0.358904
0.434227
0.490715
0.525869
0.538102
0.526819
0.49245
0.436447
0.361226
0.270067
0.166972
0.056491
0.0679895
0.201041
0.32543
0.43578
0.527295
0.595968
0.638753
0.653709
0.640097
0.598424
0.530439
0.439068
0.328294
0.202984
0.0686769
0.0820061
0.242496
0.392563
0.525732
0.636222
0.719193
0.770956
0.78915
0.772857
0.722666
0.640667
0.53038
0.396611
0.245243
0.0829779
0.0984678
0.291187
0.471427
0.631429
0.764254
0.864083
0.926464
0.948533
0.92915
0.868989
0.770534
0.637996
0.477146
0.295068
0.0998407
0.117857
0.348542
0.564342
0.755992
0.915195
1.03497
1.10996
1.13669
1.11375
1.0419
0.924063
0.765266
0.572418
0.354023
0.119795
0.140736
0.41623
0.674023
0.903082
1.09351
1.23695
1.32696
1.35934
1.33231
1.24673
1.10603
0.916175
0.685425
0.423969
0.143474
0.167765
0.496207
0.803652
1.07699
1.30444
1.47601
1.58397
1.62321
1.59153
1.48982
1.32212
1.09548
0.81975
0.507134
0.17163
0.199716
0.590762
0.956957
1.28276
1.55416
1.75924
1.8887
1.93633
1.89937
1.77874
1.57912
1.30886
0.979685
0.606188
0.205173
0.237489
0.702568
1.1383
1.5263
1.84993
2.09496
2.25023
2.30817
2.2653
2.12249
1.88516
1.56315
1.17039
0.724347
0.245193
0.282135
0.834747
1.35279
1.81453
2.20026
2.493
2.67933
2.75001
2.7006
2.53186
2.24999
1.86655
1.39808
0.865495
0.293011
0.334873
0.990927
1.60635
2.15554
2.61514
2.96492
3.18872
3.27522
3.21874
3.01977
2.68534
2.22897
1.6703
1.03434
0.350229
0.397117
1.17531
1.90589
2.55875
3.10625
3.52431
3.79342
3.89969
3.83579
3.60174
3.20536
2.66241
1.99618
1.23661
0.418799
0.470493
1.39276
2.2594
3.03509
3.68723
4.18711
4.51117
4.6423
4.57097
4.29639
3.82713
3.18143
2.38687
1.4793
0.501108
0.556863
1.64883
2.67604
3.59721
4.3739
4.97195
5.36287
5.52545
5.44727
5.1262
4.57138
3.8038
2.85602
1.77102
0.600095
0.658344
1.94984
3.16631
4.25961
5.1846
5.9006
6.3731
6.57573
6.49221
6.11829
5.46335
4.55128
3.42044
2.1224
0.719399
0.777312
2.30294
3.74207
5.03887
6.14039
6.99828
7.57069
7.82467
7.73874
7.30547
6.53382
5.45063
4.10093
2.54666
0.863552
0.916414
2.71607
4.41666
5.95368
7.26532
8.29415
8.98934
9.3096
9.22641
8.72758
7.82059
6.53502
4.92346
3.06035
1.03825
1.07854
3.19798
5.20479
7.02496
8.58659
9.82162
10.6683
11.0746
11.0026
10.4331
9.3702
7.84571
5.92062
3.68443
1.25072
1.2668
3.75808
6.12247
8.2757
10.1346
11.6187
12.6529
13.1717
13.1243
12.481
11.2403
9.43454
7.13377
4.44564
1.51023
1.48443
4.40628
7.18674
9.73077
11.9428
13.7281
14.9954
15.6619
15.6596
14.9437
13.5027
11.367
8.61586
5.37853
1.82878
1.73471
5.1526
8.41515
11.4163
14.0472
16.197
17.755
18.6165
18.6902
17.9099
16.2474
13.7269
10.4355
6.52832
2.2222
2.02074
6.00677
9.82499
13.3588
16.4857
19.0766
20.9982
22.1179
22.3137
21.4884
19.5879
16.6219
12.6827
7.95511
2.71163
2.34525
6.97742
11.4322
15.5839
19.2963
22.421
24.798
26.2606
26.6462
25.8135
23.668
20.1925
15.4772
9.74011
3.32589
2.71026
8.07117
13.2499
18.1138
22.5148
26.2843
29.2325
31.1512
31.8245
31.05
28.6717
24.624
18.9811
11.9953
4.1051
3.11664
9.29139
15.286
20.9652
26.1715
30.7178
34.3818
36.9063
38.0079
37.4001
34.8342
30.1631
23.4175
14.8784
5.10652
3.56365
10.6367
17.5409
24.1447
30.2865
35.7637
40.322
43.6491
45.3782
45.1095
42.4586
37.1425
29.0993
18.6173
6.41431
4.04834
12.099
20.0045
27.6447
34.8626
41.4475
47.1169
51.5012
54.1356
54.4727
51.9334
46.0155
36.4744
23.5513
8.15648
4.56498
13.6619
22.6521
31.4378
39.8781
47.7666
54.804
60.5682
64.4877
65.8331
63.7541
57.4042
46.1978
30.2017
10.5361
5.1045
15.2989
25.4417
35.4704
45.2764
54.6763
63.3747
70.9157
76.6269
79.5711
78.5402
72.1651
59.2471
39.3999
13.8926
5.65409
16.9717
28.3101
39.6574
50.9563
62.0728
72.7488
82.5332
90.6871
96.0689
97.037
91.469
77.1078
52.5285
18.831
6.19712
18.6298
31.1722
43.8777
56.7625
69.7746
82.7413
95.2825
106.672
115.631
120.072
116.878
102.064
71.9885
26.5222
6.71343
20.2115
33.9208
47.9731
62.4798
77.5074
93.0288
108.831
124.343
138.33
148.407
150.357
137.617
102.136
39.4758
7.18027
21.6463
36.4309
51.7526
67.835
84.8966
103.121
122.58
143.071
163.745
182.384
194.036
188.96
151.158
63.7425
7.5738
22.8597
38.5676
55.0035
72.5096
91.4778
112.353
135.614
161.669
190.571
221.211
249.332
263.026
234.631
115.835
7.87126
23.7798
40.1986
57.5107
76.1684
96.7337
119.93
146.704
178.29
216.189
261.786
314.643
366.32
380.882
246.311
8.05337
24.3453
41.209
59.0829
78.5019
100.162
125.02
154.452
190.526
236.458
297.317
380.77
495.385
630.694
625.432
8.10682
24.5135
41.5177
59.5816
79.2784
101.369
126.932
157.585
195.916
246.358
317.155
425.253
610.076
978.118
1869.55
8.02613
24.2667
41.0899
58.946
78.3917
100.165
125.308
155.385
192.893
242.121
311.088
416.45
597.528
962.067
1856.67
7.81457
23.6152
39.9447
57.2061
75.8879
96.6198
120.258
148.023
181.729
224.174
279.743
355.064
457.57
577.908
571.105
7.48387
22.5962
38.1519
54.4794
71.96
91.0555
112.34
136.533
164.496
197.11
234.681
274.798
305.223
282.036
74.0132
-88.7435
-72.2285
-59.8788
-50.3362
-42.6553
-36.2578
-30.7801
-25.9821
-21.6966
-17.8021
-14.2059
-10.8347
-7.62783
-4.53319
-1.50391
-33.273
-46.0651
-45.4557
-41.4534
-36.7612
-32.1472
-27.8169
-23.8002
-20.0717
-16.5901
-13.3112
-10.1931
-7.19648
-4.28455
-1.42267
-15.131
-29.2078
-33.3882
-33.049
-30.8123
-27.8394
-24.6354
-21.4178
-18.2752
-15.237
-12.3048
-9.46717
-6.70617
-4.0011
-1.32992
-8.22836
-19.2227
-24.459
-25.9618
-25.3744
-23.6916
-21.4631
-18.9831
-16.4059
-13.81
-11.2326
-8.68784
-6.17695
-3.69406
-1.22928
-5.119
-13.2359
-18.1221
-20.3257
-20.697
-19.9224
-18.4651
-16.6156
-14.5494
-12.3701
-10.1377
-7.88484
-5.62821
-3.3744
-1.12429
-3.48258
-9.4924
-13.6479
-15.9619
-16.815
-16.6269
-15.7394
-14.3984
-12.7711
-10.967
-9.05668
-7.0844
-5.07743
-3.05213
-1.01821
-2.50956
-7.03657
-10.4522
-12.6125
-13.6557
-13.8171
-13.3284
-12.38
-11.1153
-9.63756
-8.01861
-6.30795
-4.53931
-2.73581
-0.913855
-1.87826
-5.35245
-8.12809
-10.0388
-11.1086
-11.4585
-11.2364
-10.5809
-9.60748
-8.40601
-7.04412
-5.57169
-4.02534
-2.43227
-0.813485
-1.443
-4.15336
-6.40458
-8.04873
-9.06146
-9.49699
-9.44512
-9.00255
-8.25787
-7.28576
-6.1463
-4.8867
-3.54376
-2.14654
-0.718794
-1.1297
-3.27306
-5.10257
-6.49708
-7.41498
-7.87382
-7.92508
-7.63388
-7.06609
-6.28161
-5.33184
-4.25952
-3.09983
-1.88199
-0.630927
-0.896957
-2.61068
-4.10258
-5.27633
-6.08721
-6.5336
-6.64275
-6.45718
-6.0247
-5.39218
-4.60241
-3.69295
-2.69625
-1.64048
-0.550547
-0.719896
-2.10229
-3.32349
-4.30751
-5.01246
-5.4275
-5.56501
-5.45187
-5.12214
-4.61188
-3.95603
-3.1869
-2.33367
-1.42266
-0.477912
-0.582684
-1.70582
-2.70905
-3.53244
-4.13898
-4.51405
-4.66125
-4.59689
-4.34488
-3.93261
-3.38828
-2.73922
-2.01119
-1.22824
-0.412967
-0.474791
-1.3926
-2.21947
-2.9079
-3.42618
-3.75879
-3.90434
-3.87218
-3.67884
-3.34501
-2.89321
-2.34634
-1.72682
-1.05625
-0.355422
-0.388955
-1.14253
-1.82598
-2.4015
-2.84227
-3.13337
-3.27079
-3.25934
-3.11033
-2.83928
-2.46412
-2.00388
-1.47788
-0.905254
-0.304829
-0.320017
-0.941121
-1.50744
-1.98863
-2.36226
-2.61465
-2.74056
-2.74199
-2.62653
-2.40581
-2.09408
-1.70707
-1.2613
-0.773551
-0.260643
-0.264219
-0.777752
-1.24798
-1.65044
-1.96641
-2.18372
-2.29676
-2.30576
-2.21578
-2.03552
-1.77627
-1.45104
-1.07386
-0.659309
-0.222272
-0.218767
-0.644446
-1.03557
-1.3723
-1.63904
-1.82517
-1.92517
-1.93825
-1.86771
-1.72005