/*--------------------------------*- C++ -*----------------------------------*\
| =========                 |                                                 |
| \\      /  F ield         | OpenFOAM: The Open Source CFD Toolbox           |
|  \\    /   O peration     | Version:  5.x                                   |
|   \\  /    A nd           | Web:      www.OpenFOAM.org                      |
|    \\/     M anipulation  |                                                 |
\*---------------------------------------------------------------------------*/
FoamFile
{
    version     2.0;
    format      ascii;
    class       volScalarField;
    location    "0.4";
    object      gradTy;
}
// * * * * * * * * * * * * * * * * * * * * * * * * * * * * * * * * * * * * * //

dimensions      [0 -1 0 1 0 0 0];

internalField   nonuniform List<scalar> 
6300
(
1346.76
2041.62
2740.46
3445.82
4160.11
4885.48
5623.76
6376.37
7144.16
7927.33
8725.32
9536.69
10359.1
11189.4
12023.5
-2.01238
-5.99301
-9.83755
-13.4443
-16.6966
-19.4589
-21.5763
-22.8788
-23.1914
-22.3518
-20.235
-16.7837
-12.0371
-6.15069
0.60236
-3.40317
-10.1395
-16.66
-22.8013
-28.3725
-33.1483
-36.866
-39.2307
-39.9314
-38.6699
-35.2051
-29.4091
-21.3252
-11.212
0.44802
-4.86395
-14.5019
-23.8614
-32.7276
-40.843
-47.8948
-53.5074
-57.2455
-58.6323
-57.1898
-52.505
-44.3212
-32.6418
-17.8193
-0.587748
-6.41432
-19.1422
-31.5556
-43.404
-54.3764
-64.0796
-72.0224
-77.6105
-80.1614
-78.951
-73.3029
-62.7279
-47.101
-26.836
-2.97993
-8.06524
-24.0965
-39.8139
-54.9553
-69.1773
-82.0228
-92.8899
-101.01
-105.449
-105.147
-99.0254
-86.1842
-66.1962
-39.4417
-7.35544
-9.81542
-29.3642
-48.6476
-67.4246
-85.3531
-101.943
-116.502
-128.089
-135.476
-137.161
-131.465
-116.786
-92.0567
-57.3791
-14.6266
-11.6474
-34.8962
-57.9863
-80.7404
-102.866
-123.89
-143.083
-159.363
-171.202
-176.552
-172.883
-157.434
-127.864
-83.3911
-26.2201
-13.5251
-40.586
-67.6592
-94.6827
-121.476
-147.664
-172.572
-195.075
-213.41
-224.957
-226.075
-212.201
-178.57
-122.103
-44.588
-15.3916
-46.2623
-77.3798
-108.853
-140.688
-172.715
-204.46
-234.95
-262.402
-283.783
-294.254
-286.719
-252.113
-181.863
-74.4332
-17.1702
-51.6904
-86.7432
-122.657
-159.704
-198.042
-237.598
-277.855
-317.457
-353.511
-380.433
-388.304
-361.297
-278.805
-126.148
-18.7685
-56.5844
-95.2431
-135.324
-177.425
-222.145
-270.028
-321.407
-376.051
-432.36
-485.656
-524.757
-525.962
-445.909
-227.231
-20.0873
-60.6341
-102.318
-145.968
-192.521
-243.079
-298.952
-361.686
-432.971
-514.211
-605.061
-699.093
-771.874
-751.627
-466.911
-21.0334
-63.5449
-107.424
-153.702
-203.607
-258.69
-321.008
-393.401
-479.922
-586.436
-721.267
-894.661
-1110.79
-1321.79
-1196.33
-21.5342
-65.0858
-110.129
-157.806
-209.509
-267.058
-332.977
-410.979
-506.865
-630.329
-798.889
-1047.46
-1454.8
-2228.37
-4025.04
12787.5
13478.4
14162.8
14837.9
15501.2
16150.1
16782.6
17396.9
17991.6
18565.6
19117.9
19648.1
20155.7
20640.4
21102.3
21541.3
21957.6
22351.5
22723.2
23073.1
23401.6
23709.1
23996.1
24263.1
24510.5
24738.9
24948.6
25140.2
25314
25470.3
25609.7
25732.3
25838.4
25928.3
26002.2
26060.2
26102.3
26128.8
26139.7
26134.9
26114.3
26078
26025.8
25957.6
25873.1
25772.1
25654.4
25519.6
25367.4
25197.6
25009.6
24803.1
24577.7
24333.2
24069
23784.9
23480.5
23155.7
22810.3
22444
22057
21649.2
21220.8
20771.9
20303
19814.4
19306.7
18780.8
18237.5
17677.9
17103.4
16515.5
15915.9
15306.5
14689.4
14067
13441.4
12815.1
12190.6
11570.3
10956.5
10351.6
9757.67
9176.69
8610.48
8060.6
7528.36
7014.82
6520.72
6046.52
7.25116
13.3806
19.3608
24.985
30.0906
34.5679
38.3616
41.4646
43.9078
45.7484
47.058
47.9129
48.3861
48.5432
48.44
48.1221
47.6265
46.9836
46.2193
45.3572
44.4196
43.4288
42.4069
41.3754
40.3547
39.3631
38.4163
37.5272
36.7051
35.9568
35.2866
34.6965
34.1877
33.7605
33.4147
33.1504
32.9676
32.8665
32.8473
32.9104
33.0558
33.2831
33.5915
33.9796
34.4449
34.9834
35.5897
36.2559
36.9717
37.7241
38.497
39.272
40.0282
40.7437
41.396
41.9634
42.4253
42.7631
42.9601
43.0006
42.869
42.5483
42.0184
41.255
40.229
38.9067
37.2515
35.2272
32.8015
29.9506
26.6639
22.9472
18.8251
14.3415
9.55745
4.54815
-0.601598
-5.80236
-10.9645
-16.0018
-20.8329
-25.3823
-29.5795
-33.358
-36.6547
-39.4111
-41.5759
-43.1097
-43.9904
-44.2181
11.9459
22.5333
32.8294
42.4623
51.1464
58.6974
65.0322
70.1548
74.1359
77.0894
79.1507
80.4586
81.1425
81.3153
81.0701
80.481
79.6064
78.4935
77.1822
75.7094
74.1114
72.425
70.6876
68.9362
67.2059
65.5284
63.9304
62.4333
61.0527
59.7991
58.6784
57.6935
56.8452
56.1332
55.557
55.1164
54.8114
54.6424
54.6101
54.7151
54.9577
55.3377
55.854
56.5046
57.2859
58.1921
59.2146
60.341
61.5545
62.8334
64.1507
65.4747
66.7695
67.997
69.1183
70.0956
70.8942
71.4833
71.8357
71.9272
71.7342
71.2308
70.3857
69.1593
67.5021
65.3556
62.6542
59.3313
55.3256
50.5907
45.103
38.8689
31.9292
24.3592
16.2662
7.78272
-0.94216
-9.75225
-18.4928
-27.0168
-35.1882
-42.8822
-49.9827
-56.3796
-61.9662
-66.6405
-70.31
-72.9005
-74.3678
-74.7073
16.4502
32.1096
47.2578
61.3114
73.8396
84.585
93.4555
100.496
105.852
109.724
112.337
113.912
114.644
114.699
114.205
113.261
111.94
110.299
108.388
106.253
103.941
101.506
98.9995
96.4779
93.9927
91.5907
89.3111
87.1839
85.2301
83.4625
81.8876
80.507
79.3198
78.324
77.5182
76.9014
76.4738
76.2364
76.1904
76.3373
76.6778
77.2121
77.9397
78.8585
79.9645
81.2511
82.7079
84.3189
86.0618
87.9063
89.8141
91.7388
93.6275
95.4231
97.0675
98.5049
99.6848
100.564
101.107
101.283
101.066
100.425
99.3215
97.703
95.4993
92.6229
88.9717
84.4379
78.9194
72.3344
64.6366
55.8267
45.9606
35.1499
23.5573
11.3851
-1.13965
-13.7818
-26.3124
-38.5191
-50.2109
-61.2167
-71.3797
-80.549
-88.5732
-95.2992
-100.58
-104.292
-106.353
-106.748
20.7079
42.421
63.261
82.3561
99.0995
113.172
124.514
133.267
139.706
144.173
147.022
148.581
149.126
148.876
147.993
146.587
144.738
142.5
139.922
137.055
133.956
130.694
127.341
123.974
120.667
117.484
114.48
111.693
109.147
106.857
104.826
103.051
101.528
100.251
99.2167
98.4236
97.8723
97.5646
97.5033
97.6907
98.1289
98.8188
99.7606
100.953
102.393
104.076
105.989
108.117
110.433
112.898
115.463
118.064
120.629
123.076
125.324
127.293
128.916
130.136
130.911
131.211
131.012
130.289
129.002
127.092
124.468
121.008
116.563
110.965
104.052
95.6841
85.7752
74.3099
61.357
47.0722
31.6895
15.5028
-1.15952
-17.9623
-34.5875
-50.751
-66.2085
-80.7513
-94.1935
-106.353
-117.035
-126.025
-133.096
-138.044
-140.723
-141.087
24.7105
53.9915
81.7788
106.789
128.207
145.693
159.303
169.374
176.406
180.96
183.574
184.717
184.761
183.976
182.541
180.565
178.106
175.201
171.885
168.203
164.221
160.026
155.716
151.398
147.175
143.137
139.352
135.869
132.713
129.896
127.411
125.25
123.399
121.846
120.586
119.617
118.939
118.558
118.478
118.703
119.238
120.084
121.242
122.712
124.496
126.589
128.985
131.668
134.611
137.77
141.082
144.466
147.822
151.039
154.002
156.602
158.748
160.368
161.418
161.874
161.731
160.979
159.596
157.523
154.653
150.825
145.824
139.399
131.29
121.265
109.167
94.9475
78.6842
60.5891
40.9941
20.3212
-0.960076
-22.3796
-43.507
-63.9773
-83.4993
-101.846
-118.828
-134.258
-147.907
-159.484
-168.644
-175.04
-178.398
-178.616
28.5238
67.71
104.292
136.388
162.969
183.788
199.18
209.848
216.668
220.533
222.239
222.433
221.587
220.009
217.87
215.238
212.118
208.498
204.377
199.787
194.8
189.528
184.109
178.694
173.428
168.433
163.799
159.582
155.804
152.465
149.544
147.015
144.852
143.035
141.552
140.404
139.594
139.133
139.028
139.287
139.916
140.916
142.289
144.038
146.168
148.682
151.583
154.861
158.494
162.436
166.612
170.921
175.228
179.379
183.212
186.576
189.345
191.428
192.782
193.404
193.322
192.574
191.176
189.09
186.204
182.314
177.118
170.24
161.264
149.807
135.592
118.505
98.6268
76.2442
51.8305
25.9968
-0.577811
-27.231
-53.3823
-78.5749
-102.484
-124.902
-145.691
-164.715
-181.747
-196.405
-208.154
-216.384
-220.575
-220.486
32.3928
85.1715
133.255
173.915
206.015
229.678
245.835
255.836
261.16
263.188
263.06
261.625
259.444
256.829
253.89
250.595
246.836
242.503
237.532
231.931
225.782
219.235
212.49
205.77
199.286
193.208
187.647
182.663
178.267
174.434
171.117
168.26
165.815
163.748
162.047
160.713
159.76
159.205
159.064
159.351
160.07
161.222
162.808
164.829
167.299
170.232
173.648
177.555
181.943
186.771
191.961
197.384
202.863
208.179
213.099
217.406
220.921
223.529
225.186
225.927
225.848
225.076
223.708
221.765
219.151
215.624
210.773
204.033
194.737
182.243
166.073
145.998
122.092
94.7402
64.6281
32.658
-0.161197
-32.8796
-64.7076
-95.0833
-123.671
-150.348
-175.134
-198.07
-219.026
-237.526
-252.733
-263.544
-268.904
-268.285
36.9812
109.38
172.893
223.746
261.188
286.348
301.321
308.522
310.355
308.904
305.719
301.849
297.884
294.077
290.385
286.584
282.345
277.394
271.564
264.836
257.311
249.206
240.815
232.487
224.546
217.222
210.653
204.887
199.91
195.653
192.022
188.908
186.229
183.934
182.012
180.476
179.354
178.683
178.491
178.798
179.607
180.912
182.703
184.982
187.766
191.092
195.009
199.558
204.758
210.587
216.972
223.763
230.725
237.539
243.856
249.355
253.781
256.971
258.874
259.587
259.321
258.376
256.997
255.328
253.325
250.742
247.039
241.388
232.689
219.84
202.04
178.864
150.37
117.063
79.9532
40.3958
-0.0324989
-39.9479
-78.2554
-114.29
-147.723
-178.622
-207.327
-234.355
-259.906
-283.438
-303.676
-318.58
-325.857
-324.349
44.0841
146.367
230.739
292.863
334.026
357.667
367.979
368.912
364.253
357.086
349.334
342.178
336.07
331.132
327.01
323.181
318.857
313.532
306.871
298.873
289.662
279.574
269.039
258.64
248.909
240.144
232.499
225.973
220.515
215.975
212.186
208.936
206.095
203.591
201.431
199.65
198.313
197.481
197.212
197.535
198.445
199.914
201.911
204.42
207.467
211.113
215.473
220.635
226.678
233.613
241.408
249.902
258.806
267.621
275.787
282.848
288.409
292.248
294.254
294.624
293.734
292.254
290.649
289.31
288.267
287.395
286.028
283.044
276.518
264.465
245.641
219.275
185.467
144.747
98.6918
49.281
-0.743444
-49.4262
-95.1638
-137.321
-175.495
-210.117
-241.99
-272.806
-303.727
-334.112
-362.31
-384.597
-395.454
-392.34
59.0381
209.131
320.602
392.145
432.079
448.174
448.146
437.36
421.775
406.125
392.105
381.016
372.588
367.033
363.237
360.515
356.839
351.62
344.134
334.689
323.306
310.618
297.1
283.863
271.916
261.485
252.767
245.558
239.835
235.252
231.612
228.411
225.516
222.792
220.343
218.225
216.583
215.511
215.12
215.468
216.52
218.195
220.424
223.126
226.346
230.148
234.824
240.487
247.357
255.444
264.881
275.494
287.058
298.681
309.351
318.542
325.554
330.199
332.016
331.5
329.015
326.326
323.93
322.874
322.969
324.769
327.355
329.81
328.314
318.85
300.114
270.419
230.536
180.134
122.291
59.0867
-3.34046
-63.0896
-117.163
-166.017
-208.304
-245.487
-278.088
-311.015
-348.228
-387.841
-429.36
-466.981
-485.076
-478.473
100.275
327.508
467.959
536.924
564.433
561.865
543.769
512.688
479.358
452.785
430.627
415.994
404.943
400.377
397.897
399.205
397.025
392.962
384.206
373.286
358.826
342.853
324.755
307.229
292.742
280.365
270.867
263.012
257.521
253.184
250.419
247.463
244.704
241.617
238.799
236.134
234.054
232.583
231.986
232.413
233.721
235.706
238.283
241.113
244.414
247.952
252.78
258.626
266.311
275.353
286.685
299.742
315.247
331.132
345.063
357.386
366.116
372.225
373.133
371.198
364.57
359.944
355.242
354.729
355.156
360.942
368.788
382.177
391.488
386.486
370.259
336.126
290.638
226.126
153.5
67.6644
-9.89735
-85.0227
-146.764
-204.242
-248.528
-287.505
-313.751
-343.076
-389.281
-438.82
-502.008
-577.455
-610.233
-594.177
243.022
570.832
718.232
741.376
740.065
697.876
658.046
591.204
527.166
493.038
458.268
445.767
427.918
430.673
427.066
442.882
439.89
441.036
427.369
416.959
396.506
378.134
351.573
326.209
310.522
295.094
286.597
277.06
273.547
268.856
269.506
266.237
264.375
260.067
257.046
253.218
250.663
248.414
247.399
248.109
249.969
252.388
255.801
258.445
262.165
263.918
269.293
274.135
283.331
291.984
306.023
320.478
342.907
366.409
383.103
401.411
410.452
421.734
418.329
417.624
397.201
393.619
380.449
385.149
379.524
394.04
402.115
440.284
475.129
470.132
466.028
418.009
377.956
283.618
203.548
64.1509
-20.133
-126.385
-182.65
-261.59
-296.51
-347.949
-345.062
-350.893
-425.579
-470.174
-557.003
-749.354
-805.68
-760.644
843.073
1073.91
1147.38
981.001
974.523
830.455
811.187
665.653
531.875
534.191
453.817
483.224
421.204
470.116
428.254
513.637
476.796
510.444
465.849
475.104
431.202
425.22
376.683
331.267
327.945
299.86
303.843
282.457
291.292
276.862
294.265
283.016
287.602
276.694
276.489
268.504
266.87
262.504
260.366
262.187
265.455
267.678
274.466
274.273
282.787
274.71
286.615
283.415
301.171
300.897
324.802
329.771
369.067
411.534
418.863
458.823
451.596
492.427
459.655
492.454
405.57
441.076
379.884
430.387
374.829
436.344
392.027
503.099
616.062
552.396
624.937
488.308
543.329
320.445
338.91
-18.8268
1.17596
-239.797
-185.939
-382.351
-320.723
-486.615
-363.811
-259.542
-505.173
-440.665
-459.979
-1117.01
-1146.96
-1017.12
3780.44
1803.54
1921.87
990.314
1407.05
783.267
1146.1
723.121
340.565
694.37
291.235
652.296
254.706
640.239
246.178
760.372
412.176
692.509
426.772
609.791
411.29
533.586
397.3
275.709
381.029
258.453
357.631
244.345
342.551
239.047
360.302
277.013
333.164
277.937
307.16
274.673
287.038
273.417
267.667
274.215
282.481
276.433
303.224
277.6
327.341
256.763
325.721
262.553
345.007
275.026
370.88
289.663
390.697
507.307
407.675
584.23
423.567
669.137
406.568
739.629
237.664
627.734
218.411
628.273
201.448
630.936
158.051
563.06
1011.22
438.37
1084.89
282.448
1108.69
9.52828
1015.8
-645.931
398.115
-777.907
171.028
-874.785
-17.3845
-1041.05
-355.918
335.608
-1031.37
-290.45
555.373
-2387.53
-1718.16
-1445.27
5546.92
5030.5
4541.85
4079.66
3642.24
3227.62
2833.64
2458.06
2098.56
1752.86
1418.7
1093.88
776.257
463.728
154.239
-43.7764
-42.462
-40.4357
-37.8416
-34.83
-31.5418
-28.0975
-24.5926
-21.0963
-17.6532
-14.2868
-11.0037
-7.79755
-4.65245
-1.54635
-73.8858
-71.5596
-68.0217
-63.5317
-58.3564
-52.7418
-46.8951
-40.9768
-35.1
-29.3353
-23.7175
-18.2531
-12.9273
-7.71029
-2.56223
-105.415
-101.86
-96.5519
-89.9001
-82.3158
-74.1684
-65.7595
-57.315
-48.9877
-40.8674
-32.9924
-25.362
-17.947
-10.6984
-3.55426
-139.032
-133.9
-126.414
-117.191
-106.83
-95.8489
-84.6531
-73.5304
-62.6638
-52.15
-42.0191
-32.2528
-22.7984
-13.5808
-4.5103
-175.52
-168.275
-157.996
-145.603
-131.95
-117.733
-103.464
-89.4819
-75.9806
-63.0442
-50.6769
-38.8281
-27.4107
-16.3146
-5.41598
-215.851
-205.663
-191.67
-175.255
-157.616
-139.654
-121.976
-104.942
-88.724
-73.3623
-58.8108
-44.9678
-31.6986
-18.849
-6.25449
-261.296
-246.838
-227.743
-206.11
-183.584
-161.272
-139.829
-119.574
-100.601
-82.862
-66.2295
-50.5288
-35.5634
-21.1263
-7.00679
-313.568
-292.642
-266.338
-237.842
-209.316
-182.001
-156.476
-132.909
-111.23
-91.246
-72.7086
-55.3489
-38.8958
-23.0835
-7.65235
-374.989
-343.807
-307.11
-269.587
-233.82
-200.919
-171.148
-144.341
-120.151
-98.1725
-78.0013
-59.2556
-41.583
-24.6569
-8.17056
-448.589
-400.429
-348.662
-299.543
-255.43
-216.687
-182.835
-153.138
-126.845
-103.28
-81.859
-62.0823
-43.5187
-25.7876
-8.54255
-537.702
-460.608
-387.521
-324.451
-271.64
-227.536
-190.346
-158.513
-130.797
-106.231
-84.0622
-63.6882
-44.6167
-26.4289
-8.75365
-642.253
-516.74
-416.32
-339.062
-279.11
-231.443
-192.476
-159.752
-131.581
-106.773
-84.4598
-63.9839
-44.8256
-26.5546
-8.7957
-743.066
-547.705
-421.9
-336.326
-274.259
-226.622
-188.339
-156.417
-128.987
-104.807
-83.0094
-62.9538
-44.1418
-26.1648
-8.66916
-740.172
-509.038
-387.192
-310.037
-254.943
-212.417
-177.815
-148.573
-123.126
-100.445
-79.8068
-60.6723
-42.6174
-25.2904
-8.38421
-21.5872
-65.2455
-110.397
-158.187
-210.015
-267.712
-333.829
-412.136
-508.565
-633.131
-804.229
-1059.29
-1484.19
-2302.91
-4170.66
-21.2649
-64.2464
-108.62
-155.44
-205.976
-261.851
-325.253
-399.275
-488.474
-599.785
-743.893
-936.319
-1192.11
-1477.2
-1410.68
-20.6283
-62.2794
-105.141
-150.108
-198.225
-250.756
-309.295
-375.867
-453.016
-543.649
-649.985
-769.332
-879.658
-895.624
-563.764
-19.7172
-59.4709
-100.196
-142.587
-187.403
-235.486
-287.751
-345.106
-408.184
-476.595
-547.021
-608.588
-632.726
-555.563
-269.377
-18.584
-55.9863
-94.0938
-133.379
-174.309
-217.305
-262.666
-310.365
-359.64
-408.134
-450.196
-473.815
-456.127
-360.65
-150.378
-17.2875
-52.011
-87.1711
-123.027
-159.775
-197.479
-235.95
-274.521
-311.632
-344.135
-366.173
-367.718
-333.536
-245.449
-94.2103
-15.8877
-47.7311
-79.7631
-112.054
-144.574
-177.115
-209.161
-239.683
-266.816
-287.393
-296.375
-286.427
-248.37
-174.099
-63.8614
-14.4404
-43.3194
-72.1736
-100.919
-129.356
-157.091
-183.426
-207.194
-226.545
-238.693
-239.716
-224.651
-188.345
-127.72
-45.6538
-12.9941
-38.9237
-64.6579
-89.9963
-114.623
-138.038
-159.471
-177.768
-191.271
-197.712
-194.223
-177.621
-145.202
-96.2299
-33.8626
-11.588
-34.663
-57.4158
-79.5659
-100.728
-120.358
-137.69
-151.67
-160.898
-163.622
-157.832
-141.573
-113.551
-74.0395
-25.7914
-10.2518
-30.6251
-50.5907
-69.8198
-87.8951
-104.271
-118.235
-128.868
-135.04
-135.441
-128.707
-113.69
-89.8755
-57.9148
-20.0353
-9.00586
-26.8697
-44.2759
-60.8731
-76.24
-89.8581
-101.089
-109.162
-113.187
-112.211
-105.333
-91.9138
-71.8556
-45.8993
-15.8004
-7.86241
-23.4313
-38.5218
-52.7794
-65.7975
-77.1007
-86.1338
-92.2643
-94.8063
-93.0772
-86.4987
-74.7463
-57.9302
-36.7597
-12.6082
-6.82702
-20.3247
-33.3452
-45.5451
-56.5444
-65.9178
-73.1922
-77.8566
-79.3892
-77.3091
-71.2556
-61.0936
-47.0275
-29.6894
-10.1551
-5.90009
-17.5488
-28.7378
-39.1434
-48.419
-56.1909
-62.0614
-65.622
-66.4792
-64.2985
-58.864
-50.1508
-38.3959
-24.1436
-8.24064
-5.07821
-15.0918
-24.6736
-33.5255
-41.3366
-47.7829
-52.5333
-55.263
-55.6773
-53.546
-48.7478
-41.3193
-31.4976
-19.7436
-6.7276
-4.3554
-12.9343
-21.1157
-28.6296
-35.2009
-40.5515
-44.4072
-46.5107
-46.6418
-44.6442
-40.4572
-34.1486
-25.9407
-16.2194
-5.51942
-3.72412
-11.0525
-18.0207
-24.3876
-29.9122
-34.3573
-37.4967
-39.1269
-39.0836
-37.2617
-33.6388
-28.2961
-21.434
-13.3744
-4.54646
-3.17601
-9.42053
-15.3429
-20.73
-25.3725
-29.069
-31.6333
-32.9044
-32.7595
-31.1291
-28.014
-23.4982
-17.7585
-11.0627
-3.75739
-2.70247
-8.01205
-13.0365
-17.5891
-21.489
-24.5662
-26.6673
-27.6646
-27.4661
-26.0269
-23.361
-19.5497
-14.7464
-9.17395
-3.11372
-2.29507
-6.80139
-11.0575
-14.9009
-18.1764
-20.7406
-22.4672
-23.2545
-23.0335
-21.7761
-19.503
-16.2897
-12.2681
-7.62376
-2.58609
-1.94582
-5.76432
-9.36481
-12.6068
-15.3575
-17.4961
-18.9187
-19.5442
-19.3202
-18.23
-16.2974
-13.5905
-10.2221
-6.34651
-2.15182
-1.64731
-4.8785
-7.92089
-10.6535
-12.9632
-14.7485
-15.9235
-16.4232
-16.208
-15.2685
-13.6292
-11.3503
-8.52798
-5.29074
-1.79316
-1.3928
-4.1237
-6.69188
-8.99368
-10.9329
-12.4242
-13.3968
-13.7983
-13.5985
-12.7927
-11.4047
-9.48725
-7.12185
-4.41562
-1.49608
-1.17626
-3.4818
-5.6477
-7.58543
-9.21339
-10.4599
-11.2665
-11.5907
-11.4094
-10.721
-9.54762
-7.93505
-5.95224
-3.68854
-1.2494
-0.992331
-2.93678
-4.76185
-6.39212
-7.75852
-8.80094
-9.47083
-9.73384
-9.57206
-8.98592
-7.99531
-6.63978
-4.97756
-3.08321
-1.04413
-0.836299
-2.4746
-4.01116
-5.38191
-6.52848
-7.40043
-7.95752
-8.17177
-8.02924
-7.53148
-6.69621
-5.55734
-4.16395
-2.57832
-0.872987
-0.704063
-2.08303
-3.37552
-4.52726
-5.48898
-6.21841
-6.68212
-6.85726
-6.73293
-6.31124
-5.6078
-4.65153
-3.48375
-2.15649
-0.730049
-0.592061
-1.75145
-2.83755
-3.80446
-4.61067
-5.22076
-5.60697
-5.75056
-5.64296
-5.28653
-4.69484
-3.89249
-2.91421
-1.80349
-0.610467
-0.497217
-1.47074
-2.3823
-3.19317
-3.86844
-4.37847
-4.70017
-4.81817
-4.72567
-4.42506
-3.92806
-3.25552
-2.4366
-1.50759
-0.510254
-0.416885
-1.23302
-1.99691
-2.67596
-3.24087
-3.66686
-3.93473
-4.03184
-3.95279
-3.69986
-3.28311
-2.72013
-2.03537
-1.25912
-0.426119
-0.348792
-1.03155
-1.67039
-2.23796
-2.70971
-3.06496
-3.28778
-3.36775
-3.30057
-3.08834
-2.73962
-2.26924
-1.69763
-1.05003
-0.355332
-0.29099
-0.860547
-1.39333
-1.86644
-2.25939
-2.55497
-2.73995
-2.80578
-2.74901
-2.57152
-2.28057
-1.88859
-1.41261
-0.873639
-0.295621
-0.241809
-0.715068
-1.15767
-1.55054
-1.87665
-2.12171
-2.2748
-2.32889
-2.28121
-2.13342
-1.89164
-1.56622
-1.17132
-0.724335
-0.245087
-0.199817
-0.590865
-0.956508
-1.28097
-1.55015
-1.75227
-1.87834
-1.92262
-1.88288
-1.76055
-1.56075
-1.29206
-0.966166
-0.59742
-0.202135
-0.163782
-0.484291
-0.783931
-1.04975
-1.27019
-1.43559
-1.53864
-1.57465
-1.54184
-1.44145
-1.27768
-1.05758
-0.790753
-0.488921
-0.165419
-0.132641
-0.392199
-0.634825
-0.850014
-1.02841
-1.1622
-1.24546
-1.27443
-1.24771
-1.16632
-1.03368
-0.855532
-0.63963
-0.39546
-0.133794
-0.105471
-0.311855
-0.504757
-0.675814
-0.817583
-0.923858
-0.989943
-1.01287
-0.991524
-0.926746
-0.821279
-0.679679
-0.508122
-0.31414
-0.106279
-0.0814642
-0.240868
-0.389847
-0.521936
-0.631387
-0.713409
-0.76438
-0.782016
-0.765474
-0.715408
-0.633946
-0.524612
-0.392176
-0.24245
-0.0820236
-0.059903
-0.177115
-0.286655
-0.383768
-0.464225
-0.524505
-0.561949
-0.574881
-0.562688
-0.525856
-0.465954
-0.385576
-0.28823
-0.178184
-0.0602809
-0.0401416
-0.118686
-0.192087
-0.257158
-0.311064
-0.351447
-0.376526
-0.38518
-0.376999
-0.352312
-0.312171
-0.258315
-0.193095
-0.11937
-0.0403835
-0.0215868
-0.0638257
-0.1033
-0.138295
-0.167288
-0.189009
-0.202501
-0.20716
-0.202765
-0.189491
-0.167905
-0.13894
-0.103861
-0.0642071
-0.0217217
-0.00368067
-0.010884
-0.0176196
-0.0235969
-0.0285566
-0.0322812
-0.0346052
-0.0354225
-0.0346916
-0.032439
-0.0287585
-0.023808
-0.0178033
-0.0110087
-0.00372476
0.0141159
0.0417333
0.0675344
0.090395
0.109318
0.123475
0.132245
0.135241
0.132326
0.123622
0.109507
0.0905927
0.0677066
0.0418502
0.0141572
0.0323386
0.0956111
0.154729
0.20712
0.250499
0.282969
0.303102
0.310005
0.30336
0.28344
0.251101
0.20775
0.155278
0.0959836
0.0324704
0.0515363
0.152372
0.246591
0.330097
0.39925
0.451024
0.48314
0.494172
0.483606
0.451874
0.400338
0.331236
0.247583
0.153045
0.0517743
0.0722863
0.213724
0.345888
0.463035
0.560061
0.632719
0.67781
0.693325
0.678539
0.634051
0.561766
0.464818
0.347441
0.214778
0.0726591
0.095212
0.28151
0.455605
0.609936
0.73778
0.833542
0.893003
0.913505
0.894083
0.835516
0.740306
0.612578
0.457906
0.283072
0.0957643
0.121001
0.357765
0.579037
0.775217
0.937762
1.05956
1.13523
1.16139
1.13679
1.06241
0.941412
0.779034
0.582361
0.360021
0.121799
0.150423
0.444769
0.719882
0.963838
1.16602
1.31758
1.41181
1.44449
1.41404
1.32165
1.17123
0.969289
0.724629
0.44799
0.151563
0.184357
0.545118
0.882347
1.18145
1.42941
1.61537
1.73111
1.7714
1.73428
1.62116
1.43681
1.18918
0.889086
0.549692
0.185975
0.22381
0.661796
1.07127
1.43454
1.73581
1.9619
2.10277
2.15203
2.10725
1.97008
1.74629
1.44549
1.08081
0.668271
0.226101
0.26995
0.798257
1.29226
1.73065
2.09439
2.36756
2.53799
2.59793
2.54433
2.37913
2.1092
1.74614
1.30575
0.807411
0.273188
0.324132
0.958522
1.55184
2.07856
2.51583
2.84449
3.0499
3.1226
3.05885
2.86084
2.53675
2.10044
1.5709
0.971454
0.328707
0.387944
1.14729
1.85764
2.48853
3.01263
3.40696
3.65389
3.74197
3.66653
3.43005
3.04217
2.51943
1.88455
1.16555
0.394403
0.463236
1.37004
2.21859
2.9726
3.59947
4.07171
4.36812
4.4748
4.38596
4.10431
3.64119
3.01622
2.25658
1.39582
0.472356
0.552176
1.63321
2.64515
3.54489
4.29362
4.85848
5.21399
5.34331
5.23918
4.90449
4.35251
3.60648
2.69879
1.66961
0.565053
0.6573
1.94431
3.14958
4.22196
5.11535
5.79051
6.21683
6.37383
6.25238
5.85547
5.19849
4.30891
3.22529
1.99571
0.67548
0.781568
2.31214
3.7462
5.02324
6.08852
6.89522
7.40654
7.59756
7.45673
6.98692
6.20589
5.14599
3.85309
2.3847
0.807233
0.928428
2.74695
4.45178
5.97147
7.24112
8.20489
8.81852
9.05158
8.88936
8.33433
7.40679
6.14474
4.60268
2.84938
0.964662
1.10189
3.26065
5.28582
7.09321
8.60596
9.75752
10.4946
10.7799
10.5946
9.94024
8.83983
7.33782
5.49886
3.40526
1.15304
1.30658
3.86705
6.27098
8.41939
10.2214
11.5978
12.4841
12.8347
12.6253
11.8557
10.5516
8.7647
6.57174
4.07122
1.37881
1.54785
4.58205
7.43344
9.98593
12.1323
13.778
14.8455
15.2782
15.0447
14.142
12.5983
10.4734
7.85807
4.87032
1.64983
1.8318
5.4239
8.80331
11.8343
14.3905
16.3595
17.6473
18.184
17.9284
16.8732
15.0483
12.5225
9.40283
5.83094
1.9758
2.16535
6.41333
10.4149
14.0121
17.0562
19.4136
20.9704
21.6395
21.3671
20.1386
17.9847
14.9836
11.2614
6.98812
2.36872
2.55629
7.57369
12.3072
16.5735
20.1985
23.0231
24.9094
25.7485
25.4691
24.0463
21.509
17.945
13.5025
8.38549
2.84354
3.01326
8.931
14.5238
19.5799
23.8962
27.2837
29.575
30.6335
30.3646
28.7274
25.7456
21.5162
16.2118
10.0777
3.41908
3.54571
10.5138
17.1126
23.0995
28.2383
32.305
35.096
36.4396
36.2096
34.3415
30.8482
25.8332
19.4969
12.134
4.11921
4.16375
12.3527
20.1261
27.2076
33.3243
38.2114
41.6215
43.3376
43.1913
41.0833
37.0069
31.0673
23.4943
14.6427
4.97454
4.87791
14.4799
23.6195
31.9852
39.2634
45.1427
49.3223
51.5281
51.5341
49.1912
44.4586
37.4348
28.3793
17.7182
6.02483
5.69874
16.928
27.6498
37.5171
46.1732
53.2531
58.3927
61.2449
61.507
58.9575
53.5005
45.2123
34.3786
21.51
7.32242
6.63627
19.7281
32.2727
43.8894
54.1764
62.7099
69.0501
72.7589
73.4311
70.7415
64.5073
54.7565
41.7903
26.2173
8.93741
7.69914
22.9077
37.5394
51.1839
63.396
73.6882
81.5334
86.3802
87.6879
84.9855
77.9547
66.5323
51.0113
32.1094
10.9654
8.89355
26.4875
43.4907
59.4721
73.9474
86.3643
96.0971
102.457
104.728
102.233
94.4502
81.1531
62.579
39.5577
13.5396
10.2219
30.4769
50.1507
68.8048
85.9265
100.902
113.001
121.372
125.074
123.152
114.773
99.4366
77.2338
49.0865
16.8502
11.681
34.8694
57.5175
79.2002
99.3938
117.436
132.491
143.525
149.323
148.552
139.925
122.486
96.0152
61.4538
21.1774
13.2605
39.6362
65.5534
90.6279
114.353
136.042
154.769
169.313
178.132
179.404
171.192
151.807
120.413
77.7888
26.9476
14.9404
44.7206
74.173
102.991
130.723
156.703
179.949
199.072
212.178
216.839
210.215
189.464
152.606
99.8286
34.8382
16.69
50.0317
83.2319
116.104
148.309
179.258
207.989
233.006
252.084
262.107
259.043
238.304
195.851
130.348
45.982
18.4659
55.4399
92.5166
129.679
166.763
203.348
238.605
271.059
298.273
316.458
320.14
302.216
255.101
173.962
62.4016
20.2121
60.7756
101.74
143.307
185.56
228.358
271.162
312.746
350.725
380.874
396.235
386.394
337.971
238.698
88.016
21.8612
65.8319
110.541
156.455
203.974
253.359
304.563
356.929
408.61
455.55
489.823
497.356
456.147
339.128
131.233
23.3372
70.3738
118.505
168.485
221.09
277.091
337.15
401.58
469.778
539.014
601.969
642.155
626.958
502.658
212.342
24.5614
74.1541
125.182
178.688
235.844
297.999
366.696
443.607
530.215
626.827
729.912
825.398
873.519
781.466
386.757
25.4588
76.9363
130.136
186.353
247.122
314.358
390.53
478.892
583.691
710.132
863.116
1041.51
1217.4
1270.44
824.224
25.9669
78.5212
132.992
190.853
253.906
324.505
405.893
502.751
622.127
774.985
978.651
1259.35
1646.58
2106.07
2096.56
26.0437
78.7735
133.492
191.743
255.444
327.154
410.504
510.963
637.296
804.539
1040.67
1403.17
2025.53
3267.37
6274.12
25.6739
77.6433
131.537
188.845
251.417
321.715
403.225
501.196
624.039
786.234
1014.91
1366.5
1974.25
3202.95
6223.3
24.8719
75.1757
127.207
182.287
242.021
308.483
384.506
474.144
583.441
721.744
903.776
1151.91
1491.72
1894.26
1882.95
23.6806
71.5068
120.759
172.496
227.947
288.605
356.326
433.43
522.687
626.87
746.72
873.648
965.583
872.915
149.933
-469.299
-382.502
-317.444
-267.078
-226.474
-192.611
-163.585
-138.137
-115.389
-94.7019
-75.5874
-57.6595
-40.5987
-24.1297
-8.00547
-176.055
-244.013
-241.001
-219.947
-195.175
-170.769
-147.832
-126.534
-106.746
-88.253
-70.8265
-54.2451
-38.3026
-22.8061
-7.57299
-80.1196
-154.785
-177.065
-175.379
-163.603
-147.892
-130.928
-113.87
-97.1925
-81.0561
-65.4722
-50.3822
-35.6934
-21.2975
-7.07935
-43.6032
-101.919
-129.754
-137.8
-134.75
-125.871
-114.077
-100.931
-87.2551
-73.468
-59.7692
-46.2361
-32.8775
-19.6637
-6.54377
-27.1454
-70.2127
-96.1728
-107.915
-109.933
-105.861
-98.1543
-88.3519
-77.387
-65.812
-53.9458
-41.9647
-29.9581
-17.9629
-5.98513
-18.479
-50.3792
-72.4563
-84.772
-89.335
-88.3673
-83.678
-76.5718
-67.9355
-58.3523
-48.1973
-37.7072
-27.0281
-16.2483
-5.42075
-13.3231
-37.3624
-55.5119
-67.005
-72.5693
-73.4495
-70.8724
-65.8472
-59.1354
-51.2843
-42.6771
-33.5774
-24.1655
-14.5655
-4.86555
-9.97629
-28.4324
-43.1849
-53.3489
-59.0499
-60.9259
-59.7602
-56.288
-51.1209
-44.7367
-37.495
-29.6615
-21.4315
-12.9506
-4.33157
-7.66775
-22.0718
-34.0403
-42.7872
-48.1815
-50.5089
-50.2445
-47.9006
-43.9471
-38.7806
-32.7205
-26.0181
-18.8698
-11.4306
-3.82779
-6.00536
-17.4004
-27.1299
-34.5499
-39.4383
-41.8871
-42.1682
-40.6266
-37.6116
-33.4414
-28.389
-22.6821
-16.5082
-10.0231
-3.36031
-4.76998
-13.8842
-21.8207
-28.0673
-32.3859
-34.7668
-35.3538
-34.372
-32.075
-28.7117
-24.5095
-19.6683
-14.3612
-8.7382
-2.93264
-3.82981
-11.1846
-17.683
-22.9212
-26.676
-28.8891
-29.6255
-29.0276
-27.2759
-24.5619
-21.0714
-16.9763
-12.4321
-7.57926
-2.54616
-3.101
-9.07858
-14.4189
-18.8031
-22.0343
-24.0341
-24.8211
-24.4817
-23.1424
-20.949
-18.0512
-14.5945
-10.7163
-6.54476
-2.20058
-2.52774
-7.4143
-11.8173
-15.484
-18.2455
-20.019
-20.7966
-20.6277
-19.6
-17.8233
-15.4174
-12.5042
-9.20315
-5.62954
-1.89435
-2.07155
-6.08517
-9.72579
-12.7921
-15.1412
-16.6936
-17.4275
-17.3683
-16.5759
-15.1328
-13.1344
-10.6819
-7.87843
-4.82599
-1.6251
-1.70507
-5.01447
-8.03225
-10.5969
-12.5888
-13.935
-14.6074
-14.6163
-14.0021
-12.8265
-11.1654
-9.10246
-6.72584
-4.12507
-1.38994
-1.40839
-4.1458
-6.6526
-8.79847
-10.4836
-11.643
-12.2467
-12.2957
-11.8168
-10.8563
-9.47426
-7.73998
-5.72829
-3.51707
-1.18572
-1.16669
-3.43689
-5.52296
-7.31918
-8.74235
-9.73578
-10.2699
-10.3405
-9.96488
-9.17773
-8.02687
-6.56942
-4.86874
-2.99215
-1.00924
-0.968742
-2.8555
-4.59407
-6.09824
-7.29874
-8.14659
-8.61415
-8.69422
-8.39775
-7.75085
-6.79162
-5.56713
-4.1309
-2.54078
-0.857348
-0.805927
-2.37676
-3.82751
-5.08759
-6.09932
-6.82069
-7.22662
-7.30857
-7.07317
-6.54014
-5.73993
-4.71136
-3.49954
-2.15398
-0.727087
-0.671518
-1.98118
-3.19299
-4.24893