/*--------------------------------*- C++ -*----------------------------------*\
| =========                 |                                                 |
| \\      /  F ield         | OpenFOAM: The Open Source CFD Toolbox           |
|  \\    /   O peration     | Version:  5.x                                   |
|   \\  /    A nd           | Web:      www.OpenFOAM.org                      |
|    \\/     M anipulation  |                                                 |
\*---------------------------------------------------------------------------*/
FoamFile
{
    version     2.0;
    format      ascii;
    class       volScalarField;
    location    "14.9";
    object      gradTy;
}
// * * * * * * * * * * * * * * * * * * * * * * * * * * * * * * * * * * * * * //

dimensions      [0 -1 0 1 0 0 0];

internalField   nonuniform List<scalar> 
6300
(
1000.81
1002.57
1004.74
1007.59
1011.38
1016.36
1022.75
1030.73
1040.47
1052.08
1065.59
1081
1098.21
1117.08
1137.38
-0.207374
-0.619349
-1.02273
-1.41086
-1.77575
-2.10775
-2.39538
-2.62557
-2.78426
-2.85767
-2.83412
-2.70626
-2.47343
-2.14341
-1.73286
-0.348713
-1.04183
-1.72154
-2.3773
-2.99617
-3.56224
-4.05614
-4.45535
-4.73508
-4.87036
-4.83919
-4.62677
-4.23009
-3.66162
-2.95066
-0.494345
-1.4777
-2.44432
-3.3806
-4.26941
-5.08888
-5.81161
-6.40461
-6.83037
-7.0495
-7.0255
-6.73156
-6.15854
-5.32233
-4.26724
-0.645311
-1.9303
-3.1974
-4.43135
-5.61195
-6.7122
-7.69673
-8.52106
-9.13222
-9.4717
-9.4817
-9.11535
-8.35013
-7.20179
-5.73301
-0.801915
-2.4008
-3.98362
-5.53543
-7.03484
-8.45122
-9.74204
-10.8507
-11.7057
-12.2233
-12.3142
-11.898
-10.9248
-9.4017
-7.41306
-0.963449
-2.88735
-4.8008
-6.69186
-8.54069
-10.3158
-11.9695
-13.4337
-14.6166
-15.4016
-15.6538
-15.2375
-14.0494
-12.067
-9.39696
-1.12797
-3.38432
-5.64035
-7.89046
-10.1203
-12.3016
-14.3862
-16.2982
-17.9253
-19.1125
-19.6617
-19.3486
-17.968
-15.4199
-11.8189
-1.29208
-3.8816
-6.48579
-9.10934
-11.7482
-14.384
-16.9756
-19.4473
-21.6738
-23.4612
-24.532
-24.527
-23.0542
-19.8256
-14.8987
-1.4508
-4.36418
-7.31183
-10.3128
-13.3792
-16.5106
-19.6846
-22.8416
-25.8612
-28.5263
-30.4778
-31.1729
-29.8959
-25.9294
-19.0393
-1.59775
-4.81246
-8.0845
-11.4508
-14.9452
-18.5945
-22.4103
-26.3732
-30.4029
-34.3049
-37.6799
-39.7908
-39.4269
-34.9567
-25.0961
-1.72547
-5.20337
-8.76284
-12.4606
-16.3562
-20.5119
-24.9889
-29.8377
-35.072
-40.6102
-46.1457
-50.8831
-53.0642
-49.3743
-35.2541
-1.82624
-5.51268
-9.30286
-13.2724
-17.507
-22.1076
-27.1955
-32.9164
-39.4371
-46.9179
-55.4093
-64.5315
-72.5723
-74.2221
-56.406
-1.89304
-5.71819
-9.66347
-13.819
-18.2917
-23.216
-28.769
-35.195
-42.8417
-52.2147
-64.0417
-79.2609
-98.4709
-118.535
-115.08
-1.92074
-5.80354
-9.81374
-14.0483
-18.6248
-23.6953
-29.4694
-36.2526
-44.5195
-55.0573
-69.2814
-89.9991
-123.514
-186.368
-330.73
1157.04
1175.52
1194.41
1213.51
1232.63
1251.61
1270.27
1288.47
1306.1
1323.03
1339.2
1354.52
1368.93
1382.4
1394.89
1406.37
1416.82
1426.23
1434.6
1441.92
1448.18
1453.4
1457.59
1460.74
1462.87
1463.99
1464.12
1463.27
1461.46
1458.7
1455.01
1450.4
1444.9
1438.52
1431.27
1423.18
1414.25
1404.5
1393.95
1382.61
1370.5
1357.63
1344.02
1329.7
1314.66
1298.94
1282.55
1265.51
1247.82
1229.5
1210.58
1191.05
1170.94
1150.24
1128.99
1107.18
1084.84
1061.98
1038.62
1014.78
990.467
965.717
940.547
914.98
889.04
862.75
836.138
809.232
782.062
754.664
727.078
699.348
671.526
643.665
615.829
588.083
560.495
533.14
506.09
479.421
453.205
427.514
402.415
377.971
354.238
331.267
309.098
287.762
267.28
247.662
-1.30486
-0.894733
-0.480255
-0.076726
0.303219
0.650349
0.959009
1.22683
1.45415
1.64324
1.79766
1.92151
2.01903
2.09422
2.15064
2.19135
2.21886
2.23525
2.2422
2.2411
2.2331
2.21918
2.2002
2.17693
2.15007
2.12026
2.08812
2.05424
2.01918
1.98346
1.94755
1.91185
1.87665
1.84211
1.80825
1.77494
1.74192
1.70888
1.67546
1.64139
1.60649
1.57077
1.53444
1.49787
1.46159
1.42617
1.39214
1.35991
1.32966
1.30127
1.27437
1.24829
1.22219
1.19517
1.16636
1.13505
1.10079
1.06344
1.02313
0.980172
0.935009
0.888005
0.83933
0.788819
0.735899
0.679566
0.61844
0.550884
0.475181
0.38974
0.293305
0.185135
0.065121
-0.0661562
-0.207451
-0.356938
-0.512345
-0.671103
-0.830488
-0.987732
-1.14008
-1.28482
-1.41924
-1.54066
-1.64639
-1.73383
-1.80061
-1.84481
-1.86519
-1.86139
-2.20846
-1.49828
-0.783085
-0.0903802
0.557605
1.14521
1.66346
2.10935
2.48458
2.79414
3.04493
3.2446
3.40076
3.52039
3.60956
3.67334
3.71588
3.7405
3.74987
3.74619
3.73128
3.7067
3.67384
3.63394
3.58812
3.53746
3.48297
3.42561
3.36633
3.30604
3.24556
3.1856
3.12668
3.0691
3.01287
2.95774
2.90324
2.84871
2.79347
2.73694
2.67876
2.61891
2.55775
2.49598
2.43459
2.37471
2.31736
2.26337
2.21311
2.16643
2.12263
2.0805
2.03847
1.99481
1.9479
1.89643
1.83958
1.77714
1.70942
1.63716
1.5613
1.48271
1.40185
1.31858
1.23198
1.1403
1.04103
0.931168
0.807526
0.667122
0.507579
0.327464
0.126516
-0.0942656
-0.332666
-0.585434
-0.848544
-1.11749
-1.38755
-1.65403
-1.91229
-2.15783
-2.38618
-2.59283
-2.77319
-2.9227
-3.03705
-3.11268
-3.14719
-3.13984
-3.16321
-2.10923
-1.0537
-0.0398269
0.898745
1.73972
2.47188
3.09337
3.60934
4.02943
4.36553
4.63007
4.83482
4.99013
5.10473
5.18563
5.2384
5.26739
5.27603
5.26713
5.24305
5.20583
5.1573
5.09913
5.03284
4.95987
4.88161
4.79941
4.71462
4.62857
4.54251
4.45753
4.37447
4.2938
4.21557
4.13934
4.06427
3.98924
3.91303
3.83456
3.75314
3.66865
3.58163
3.49324
3.40516
3.31929
3.23749
3.16118
3.09113
3.02718
2.96823
2.91231
2.85682
2.79888
2.73576
2.6653
2.58621
2.49821
2.40201
2.2991
2.19133
2.08046
1.96762
1.85295
1.73521
1.61176
1.47869
1.33113
1.16385
0.971907
0.751327
0.499653
0.216336
-0.0971294
-0.43731
-0.79915
-1.17644
-1.56235
-1.94989
-2.33222
-2.70288
-3.05565
-3.38442
-3.68291
-3.94448
-4.16221
-4.3293
-4.43979
-4.48951
-4.47697
-4.19021
-2.72221
-1.26412
0.119374
1.38065
2.49118
3.43991
4.22959
4.87241
5.38589
5.78941
6.10191
6.34029
6.51876
6.64865
6.73869
6.79544
6.82384
6.82772
6.81022
6.77401
6.72152
6.65494
6.57629
6.48746
6.39019
6.28621
6.17723
6.06502
5.95141
5.83819
5.72699
5.61911
5.51532
5.41569
5.31955
5.22555
5.13177
5.03613
4.93671
4.83224
4.72233
4.60776
4.49036
4.37282
4.25831
4.14996
4.05027
3.96063
3.88098
3.80972
3.74376
3.67896
3.61065
3.53444
3.44686
3.3459
3.2313
3.10451
2.96827
2.82605
2.68123
2.53626
2.39192
2.24684
2.09729
1.93739
1.75966
1.55585
1.3181
1.04001
0.717565
0.349724
-0.0613745
-0.510617
-0.990472
-1.4918
-2.00475
-2.51957
-3.02712
-3.51911
-3.98792
-4.42616
-4.82603
-5.17878
-5.47456
-5.70296
-5.8543
-5.9214
-5.90133
-5.31147
-3.32094
-1.36709
0.454591
2.07969
3.47571
4.63706
5.57737
6.32187
6.90077
7.34448
7.68055
7.93212
8.11741
8.25006
8.33979
8.39339
8.41568
8.41031
8.38034
8.32855
8.25762
8.17007
8.06826
7.95434
7.83032
7.69815
7.55984
7.41759
7.27383
7.1311
6.99182
6.85803
6.73099
6.61092
6.49686
6.38665
6.27715
6.16482
6.04632
5.9193
5.7829
5.63814
5.48782
5.33626
5.18863
5.05014
4.92504
4.81588
4.72288
4.64373
4.57371
4.50628
4.43396
4.34966
4.24782
4.12536
3.98212
3.82074
3.64618
3.46465
3.28237
3.10413
2.9321
2.76502
2.59783
2.42191
2.22585
1.99685
1.72251
1.39269
1.00097
0.545521
0.0294262
-0.539724
-1.15076
-1.7903
-2.44436
-3.09961
-3.74432
-4.36861
-4.96411
-5.52305
-6.03691
-6.49502
-6.88383
-7.1875
-7.39003
-7.47874
-7.44784
-6.54777
-3.86666
-1.27955
1.07312
3.10886
4.79851
6.15286
7.20756
8.01023
8.61078
9.05501
9.38137
9.61987
9.79238
9.91376
9.99341
10.037
10.0479
10.0289
9.9824
9.91122
9.81822
9.70632
9.57824
9.43636
9.28279
9.11952
8.94872
8.77296
8.59539
8.41963
8.24937
8.08784
7.93722
7.79813
7.66926
7.54731
7.42724
7.30301
7.16883
7.02045
6.85613
6.67712
6.48768
6.29463
6.1064
5.93159
5.77744
5.64843
5.54539
5.46514
5.4005
5.34115
5.27506
5.19064
5.07898
4.93527
4.75953
4.55646
4.3346
4.10481
3.87814
3.66349
3.4656
3.28378
3.11137
2.93583
2.73987
2.50351
2.20718
1.83488
1.37647
0.828999
0.196963
-0.508193
-1.26967
-2.06761
-2.88193
-3.69453
-4.49066
-5.25932
-5.99271
-6.68462
-7.32784
-7.91086
-8.41552
-8.81748
-9.0895
-9.20816
-9.1619
-7.91487
-4.27688
-0.854266
2.14816
4.63654
6.60436
8.10044
9.201
9.99007
10.5463
10.9357
11.2092
11.4031
11.5415
11.6381
11.6996
11.728
11.7238
11.6875
11.6206
11.5259
11.4066
11.2665
11.1087
10.9358
10.7499
10.5524
10.3454
10.1316
9.91502
9.70091
9.49501
9.30261
9.12754
8.97128
8.83237
8.70596
8.58398
8.45619
8.31244
8.14523
7.95118
7.73178
7.49337
7.24674
7.00548
6.78396
6.59428
6.44421
6.33574
6.26466
6.22028
6.18636
6.14313
6.07144
5.95686
5.79187
5.57688
5.31977
5.03498
4.74099
4.45715
4.19922
3.97645
3.7895
3.62989
3.47963
3.31252
3.09696
2.80166
2.40147
1.88064
1.23464
0.470183
-0.395184
-1.33568
-2.32096
-3.32164
-4.3128
-5.27622
-6.2005
-7.08071
-7.91599
-8.70519
-9.43924
-10.0949
-10.6343
-11.0096
-11.1748
-11.1065
-9.40987
-4.37693
0.176083
3.96333
6.9136
9.08925
10.6173
11.6428
12.305
12.7221
12.9833
13.1515
13.2664
13.3506
13.413
13.4533
13.466
13.446
13.3901
13.299
13.1758
13.0252
12.8521
12.6608
12.4542
12.2335
11.9991
11.7518
11.4942
11.2312
10.9704
10.7213
10.4925
10.2908
10.1195
9.97756
9.85829
9.7492
9.63243
9.4899
9.30878
9.08281
8.81389
8.51103
8.19119
7.87622
7.59061
7.35418
7.18018
7.07237
7.02586
7.02511
7.04506
7.05231
7.01411
6.90742
6.72055
6.45497
6.12303
5.7487
5.36266
4.99897
4.68442
4.43581
4.25597
4.13506
4.04778
3.95503
3.80535
3.54727
3.14188
2.56515
1.81096
0.888802
-0.173878
-1.33712
-2.55199
-3.77495
-4.97086
-6.11801
-7.20495
-8.23327
-9.21354
-10.1618
-11.0804
-11.9413
-12.6875
-13.2318
-13.4777
-13.3757
-10.967
-3.7861
2.30888
6.98335
10.3054
12.5057
13.8568
14.6066
14.9719
15.1211
15.1638
15.1695
15.1728
15.1903
15.2184
15.2455
15.2501
15.2185
15.1423
15.0225
14.864
14.6748
14.4626
14.2339
13.9917
13.7356
13.463
13.1721
12.8633
12.543
12.2219
11.9171
11.6421
11.4093
11.2242
11.0889
10.9948
10.9243
10.8446
10.7218
10.5358
10.2752
9.94378
9.55203
9.12756
8.70364
8.32539
8.02317
7.81984
7.71975
7.7202
7.79917
7.92108
8.02602
8.05447
7.97254
7.76166
7.42775
6.98647
6.47843
5.95132
5.46922
5.07388
4.79538
4.63687
4.59107
4.62315
4.67883
4.66917
4.50439
4.12841
3.50459
2.62856
1.50923
0.19172
-1.26469
-2.77179
-4.26759
-5.69946
-7.04681
-8.29403
-9.45521
-10.5574
-11.6612
-12.8047
-13.9529
-15.0314
-15.8836
-16.2816
-16.1196
-12.2977
-1.63202
6.48663
11.9505
15.3121
17.1441
17.9611
18.1228
17.9485
17.6722
17.3961
17.1894
17.0572
17.0131
17.0239
17.0686
17.0848
17.0538
16.9555
16.8003
16.5945
16.3558
16.0954
15.8245
15.5476
15.2599
14.9515
14.6164
14.2471
13.8542
13.4483
13.0682
12.729
12.4576
12.2556
12.1394
12.0955
12.111
12.1174
12.043
11.8685
11.5679
11.159
10.6386
10.0616
9.46376
8.94914
8.54827
8.30934
8.22087
8.30004
8.50999
8.82014
9.1085
9.25241
9.22202
8.97861
8.55384
7.94478
7.23436
6.47395
5.81335
5.2939
4.98105
4.85435
4.93387
5.16347
5.4957
5.75539
5.76464
5.47091
4.80632
3.79564
2.41421
0.756549
-1.11998
-3.00856
-4.85289
-6.55036
-8.12032
-9.50747
-10.7625
-11.8991
-13.1038
-14.5226
-16.065
-17.7012
-19.1896
-19.8918
-19.5955
-12.233
4.18919
14.4865
19.9448
22.5217
23.2451
23.0098
22.1238
21.0728
20.2241
19.5294
19.1029
18.8159
18.7579
18.7816
18.9337
18.9885
18.9872
18.8518
18.652
18.3738
18.0694
17.7447
17.4251
17.1204
16.8155
16.4796
16.1114
15.6664
15.1857
14.6389
14.162
13.7198
13.4072
13.1648
13.0871
13.1122
13.3124
13.5078
13.5097
13.3845
13.0181
12.5362
11.808
11.027
10.1055
9.41056
8.84157
8.58359
8.48197
8.69291
9.07783
9.75187
10.4003
10.7026
10.7795
10.458
9.94652
9.05031
8.06349
6.85404
5.95542
5.21759
4.89979
4.77595
5.06158
5.55703
6.41798
7.2032
7.4621
7.34835
6.60731
5.49752
3.71787
1.63743
-0.957028
-3.30819
-5.64883
-7.5841
-9.4563
-10.9104
-12.2399
-13.142
-14.2373
-16.062
-18.0413
-20.5832
-23.6272
-24.9393
-24.2682
-5.67955
18.8306
29.4539
32.0874
32.3994
30.7261
28.9948
26.3622
23.9052
22.554
21.2762
20.8152
20.2445
20.3847
20.3541
20.9386
20.9728
21.1133
20.8405
20.6164
20.1903
19.8121
19.3865
19.0037
18.6933
18.4154
18.054
17.7169
17.137
16.612
15.7285
15.2057
14.5238
14.2557
13.8366
13.8866
13.8768
14.5202
15.1768
15.1592
15.2477
14.6343
14.2677
13.0535
12.1946
10.421
9.69044
8.68691
8.6326
8.29287
8.83515
9.22924
10.7204
12.1902
12.4775
12.9104
12.2108
11.8931
10.2862
9.21315
6.78645
5.8659
4.53637
4.53917
4.10787
4.88708
5.42423
7.44924
9.40884
9.69611
10.129
8.93921
8.16397
5.45462
3.2585
-1.1444
-3.62293
-7.02844
-8.70851
-11.3943
-12.4925
-14.3325
-14.1066
-14.3204
-17.3786
-19.2071
-22.7419
-30.5586
-32.8422
-31.0034
31.9849
53.4694
55.927
47.5724
45.1355
38.2897
36.2766
30.3469
25.1444
24.7774
21.8456
22.6847
20.6486
22.2566
21.0397
23.7352
22.803
23.8334
22.7581
22.8707
21.9368
21.622
20.9654
20.4772
20.2184
20.1346
19.5923
19.6709
18.5273
18.5537
16.2977
16.4776
14.7306
15.3208
13.832
14.7713
13.6995
15.7083
17.8157
16.6547
18.1208
15.8943
17.219
13.7862
14.6784
9.23383
10.3625
7.16453
9.09179
6.83287
9.18996
7.80004
11.7191
15.6821
14.0418
16.6714
13.4129
15.6955
10.7526
12.3113
4.54929
6.36466
1.93591
4.80304
1.69602
5.06057
3.1483
8.57412
14.022
11.7198
15.2458
10.6736
13.615
6.4518
8.05687
-4.10331
-2.60316
-10.893
-8.38499
-15.6186
-13.0066
-19.4001
-14.438
-10.3077
-20.466
-17.9159
-18.7347
-45.4572
-46.6813
-41.4045
231.231
115.505
97.9687
54.5357
64.2201
38.8939
49.1983
33.2845
19.4208
30.6943
16.9852
28.6946
15.8053
28.1968
16.0916
31.7559
21.8075
29.586
22.9651
26.6324
22.7923
23.9245
22.3022
21.6207
21.492
22.5143
20.2371
23.3852
18.2335
23.7824
13.3597
20.5247
11.5724
19.38
10.3316
18.5523
9.08683
16.7548
25.1618
14.3675
26.312
12.0408
27.0216
8.29161
26.2875
-1.41814
17.2653
-1.73754
15.5796
-1.2736
14.941
-1.2735
12.6548
27.2431
9.458
28.9118
6.63597
29.9032
1.85701
28.8318
-11.4788
15.8555
-11.1701
13.6701
-10.0344
12.8331
-9.69402
9.66756
29.7956
5.35126
32.0242
1.58858
33.6169
-5.17694
32.6775
-26.7326
12.5146
-30.306
5.96687
-34.02
-0.552185
-40.8194
-13.5714
14.2811
-41.8531
-11.7731
22.5743
-97.073
-69.8808
-58.7988
227.03
205.744
185.637
166.647
148.7
131.709
115.583
100.225
85.5384
71.4274
57.7973
44.5561
31.6142
18.8842
6.28074
-1.83133
-1.76723
-1.67629
-1.56398
-1.43608
-1.29804
-1.15455
-1.0093
-0.864956
-0.723217
-0.58494
-0.450309
-0.318992
-0.190285
-0.0632388
-3.08692
-2.97515
-2.81752
-2.62394
-2.40474
-2.16948
-1.92621
-1.68116
-1.43871
-1.20153
-0.970858
-0.746838
-0.528756
-0.3153
-0.104767
-4.39651
-4.22892
-3.99467
-3.70951
-3.38945
-3.04889
-2.69963
-2.35043
-2.00719
-1.67331
-1.35012
-1.03742
-0.733888
-0.437389
-0.145297
-5.78587
-5.54931
-5.22267
-4.82993
-4.3946
-3.93699
-3.47294
-3.0137
-2.5663
-2.13437
-1.71886
-1.31884
-0.931976
-0.555064
-0.184325
-7.28575
-6.95971
-6.51669
-5.99289
-5.42199
-4.83146
-4.24143
-3.66509
-3.10992
-2.57897
-2.07212
-1.58707
-1.1201
-0.666561
-0.221261
-8.93471
-8.48699
-7.8914
-7.20288
-6.46894
-5.72538
-4.99616
-4.29529
-3.62929
-2.99943
-2.40353
-1.83722
-1.29479
-0.769806
-0.255419
-10.7834
-10.162
-9.35891
-8.45817
-7.52542
-6.60489
-5.72248
-4.89056
-4.11246
-3.3859
-2.70534
-2.06345
-1.45201
-0.862448
-0.286022
-12.9008
-12.0184
-10.9239
-9.74536
-8.56956
-7.44619
-6.39824
-5.43194
-4.54404
-3.72634
-2.96845
-2.25919
-1.58735
-0.94194
-0.312242
-15.3823
-14.0869
-12.5729
-11.0296
-9.56115
-8.21198
-6.99225
-5.89487
-4.90536
-4.00693
-3.18289
-2.4175
-1.69625
-1.0057
-0.333244
-18.3548
-16.3741
-14.251
-12.239
-10.4333
-8.84822
-7.46383
-6.24986
-5.17553
-4.2131
-3.33862
-2.53163
-1.77442
-1.05137
-0.34827
-21.9543
-18.8034
-15.8178
-13.2418
-11.0849
-9.28364
-7.76489
-6.46514
-5.33373
-4.33124
-3.42684
-2.59595
-1.81841
-1.07707
-0.35673
-26.1803
-21.0669
-16.9747
-13.8254
-11.3806
-9.43643
-7.84687
-6.51198
-5.36295
-4.35125
-3.44151
-2.6069
-1.82618
-1.08176
-0.358303
-30.2577
-22.3091
-17.1887
-13.7041
-11.1757
-9.23448
-7.67409
-6.37288
-5.25476
-4.26925
-3.38101
-2.56391
-1.79763
-1.06548
-0.353016
-30.1229
-20.723
-15.7664
-12.6266
-10.3835
-8.65155
-7.24201
-6.05063
-5.01389
-4.08993
-3.24932
-2.47007
-1.73492
-1.02951
-0.341293
-1.91141
-5.77476
-9.76306
-13.9715
-18.5154
-23.5446
-29.2655
-35.9804
-44.1612
-54.5981
-68.7321
-89.4754
-123.471
-187.956
-333.123
-1.87189
-5.65289
-9.54836
-13.6445
-18.0441
-22.8772
-28.3173
-34.6071
-42.0996
-51.3269
-63.0966
-78.5554
-98.7177
-120.526
-113.24
-1.80651
-5.45149
-9.19425
-13.1067
-17.2716
-21.7881
-26.7791
-32.3982
-38.8333
-46.2898
-54.8988
-64.3682
-72.8202
-73.301
-45.574
-1.71894
-5.18215
-8.72225
-12.3936
-16.2548
-20.3695
-24.8046
-29.6225
-34.8573
-40.4523
-46.1033
-50.8874
-52.4575
-45.664
-21.9504
-1.61378
-4.85939
-8.15908
-11.5485
-15.0618
-18.7282
-22.5641
-26.5571
-30.631
-34.5755
-37.9097
-39.6387
-37.9028
-29.7765
-12.3456
-1.49608
-4.49904
-7.53352
-10.6174
-13.7626
-16.969
-20.2144
-23.4354
-26.4944
-29.1223
-30.8305
-30.796
-27.7858
-20.3503
-7.78277
-1.37089
-4.11677
-6.87359
-9.64371
-12.4207
-15.1826
-17.8815
-20.4263
-22.6569
-24.3075
-24.9613
-24.0193
-20.7417
-14.488
-5.30176
-1.24284
-3.72688
-6.20439
-8.66519
-11.0892
-13.44
-15.6555
-17.6352
-19.2223
-20.1848
-20.2001
-18.8644
-15.7644
-10.662
-3.80496
-1.11591
-3.3415
-5.54675
-7.71215
-9.80849
-11.7912
-13.5934
-15.1165
-16.2214
-16.7198
-16.3769
-14.9347
-12.1776
-8.05434
-2.83098
-0.993284
-2.97024
-4.91675
-6.80704
-8.6066
-10.2678
-11.7248
-12.8883
-13.6414
-13.8391
-13.3172
-11.9179
-9.5396
-6.2106
-2.16159
-0.877332
-2.62009
-4.32576
-5.96488
-7.50074
-8.88608
-10.06
-10.9451
-11.4471
-11.458
-10.8667
-9.58082
-7.56174
-4.86685
-1.68256
-0.76964
-2.2957
-3.78096
-5.19441
-6.49935
-7.65117
-8.59558
-9.26783
-9.59387
-9.49508
-8.89836
-7.7529
-6.05317
-3.86292
-1.3291
-0.671124
-1.99962
-3.28599
-4.49926
-5.60425
-6.56023
-7.32015
-7.83093
-8.03555
-7.87788
-7.31108
-6.30987
-4.8852
-3.09756
-1.062
-0.582154
-1.73279
-2.84177
-3.87928
-4.8126
-5.60541
-6.21769
-6.60659
-6.72878
-6.54475
-6.02545
-5.16085
-3.96925
-2.50434
-0.856323
-0.502675
-1.49487
-2.44716
-3.33162
-4.11849
-4.77592
-5.27032
-5.56743
-5.6346
-5.4444
-4.97955
-4.2389
-3.24309
-2.03827
-0.695518
-0.43233
-1.28464
-2.09966
-2.85173
-3.51423
-4.05962
-4.45991
-4.68791
-4.71913
-4.53474
-4.12517
-3.49411
-2.66205
-1.66797
-0.568239
-0.370557
-1.10031
-1.79585
-2.43401
-2.99129
-3.44405
-3.76914
-3.94501
-3.95337
-3.78143
-3.42455
-2.8889
-2.1935
-1.37103
-0.466478
-0.316674
-0.939727
-1.53187
-2.07245
-2.54091
-2.91711
-3.18197
-3.31841
-3.31278
-3.15653
-2.84808
-2.39459
-1.81318
-1.13108
-0.384441
-0.269939
-0.800607
-1.30369
-1.76096
-2.15459
-2.46749
-2.68395
-2.79045
-2.77677
-2.6373
-2.37231
-1.98911
-1.50276
-0.935939
-0.317851
-0.229598
-0.680641
-1.10731
-1.49366
-1.82431
-2.08483
-2.26228
-2.34592
-2.32811
-2.20523
-1.9786
-1.65525
-1.24823
-0.776396
-0.26349
-0.194919
-0.577599
-0.93892
-1.26503
-1.54273
-1.75985
-1.90573
-1.97183
-1.95241
-1.84519
-1.65206
-1.37948
-1.03869
-0.645372
-0.218902
-0.165208
-0.489387
-0.794977
-1.07001
-1.30321
-1.48432
-1.60457
-1.65713
-1.63766
-1.5448
-1.38067
-1.15108
-0.865625
-0.537366
-0.182185
-0.139828
-0.414081
-0.672249
-0.904043
-1.09985
-1.25105
-1.35041
-1.39244
-1.37386
-1.29391
-1.15473
-0.961465
-0.72228
-0.448052
-0.151847
-0.1182
-0.349942
-0.567834
-0.763061
-0.927453
-1.05378
-1.13605
-1.16985
-1.15266
-1.08415
-0.966333
-0.803735
-0.603267
-0.373998
-0.126711
-0.0998054
-0.295418
-0.479154
-0.643488
-0.781491
-0.88709
-0.955334
-0.982652
-0.967108
-0.908606
-0.809034
-0.672298
-0.50425
-0.312455
-0.105832
-0.0841866
-0.249141
-0.403946
-0.542195
-0.658026
-0.746341
-0.803037
-0.825215
-0.811378
-0.761584
-0.677537
-0.562603
-0.421721
-0.261207
-0.088455
-0.0709415
-0.20991
-0.340233
-0.456469
-0.553664
-0.627545
-0.674705
-0.692784
-0.680615
-0.638344
-0.567486
-0.470925
-0.352823
-0.218456
-0.0739647
-0.0597199
-0.176683
-0.2863
-0.383962
-0.46549
-0.527301
-0.566566
-0.581354
-0.570752
-0.534951
-0.475281
-0.394202
-0.295217
-0.182736
-0.0618611
-0.0502183
-0.148555
-0.240667
-0.322658
-0.391007
-0.442711
-0.47542
-0.487552
-0.478386
-0.44813
-0.397942
-0.329911
-0.246983
-0.152842
-0.0517349
-0.0421748
-0.124748
-0.202061
-0.270825
-0.328079
-0.37131
-0.398562
-0.408537
-0.400663
-0.375148
-0.332992
-0.275962
-0.206535
-0.127785
-0.043249
-0.0353643
-0.104595
-0.16939
-0.226983
-0.274888
-0.311002
-0.333701
-0.341914
-0.335189
-0.313721
-0.278368
-0.230622
-0.172559
-0.106746
-0.0361251
-0.0295936
-0.0875214
-0.141721
-0.189868
-0.229883
-0.260009
-0.278896
-0.285664
-0.27995
-0.261934
-0.232347
-0.192446
-0.143965
-0.0890446
-0.0301324
-0.0246972
-0.0730364
-0.118252
-0.158401
-0.191743
-0.216818
-0.232506
-0.238081
-0.233252
-0.218182
-0.193489
-0.160226
-0.119841
-0.074115
-0.0250787
-0.0205335
-0.0607201
-0.0983017
-0.131659
-0.159345
-0.180146
-0.193136
-0.197721
-0.193665
-0.181111
-0.16058
-0.132951
-0.0994266
-0.0614837
-0.0208035
-0.0169809
-0.0502126
-0.0812843
-0.108854
-0.131726
-0.148896
-0.159603
-0.16336
-0.159977
-0.149579
-0.1326
-0.109768
-0.0820801
-0.0507528
-0.0171719
-0.0139351
-0.0412048
-0.0666981
-0.0893124
-0.108065
-0.122134
-0.130897
-0.133956
-0.131161
-0.122616
-0.108682
-0.0899581
-0.0672604
-0.0415864
-0.0140701
-0.0113062
-0.0334305
-0.0541109
-0.0724518
-0.0876555
-0.0990563
-0.10615
-0.108616
-0.106336
-0.0993962
-0.0880906
-0.0729068
-0.0545071
-0.0336993
-0.0114013
-0.00901611
-0.0266585
-0.043148
-0.0577694
-0.0698866
-0.0789691
-0.0846156
-0.0865726
-0.0847461
-0.0792074
-0.0701916
-0.0580883
-0.0434256
-0.026847
-0.00908277
-0.00699667
-0.0206872
-0.033482
-0.0448258
-0.0542248
-0.0612675
-0.0656432
-0.0671559
-0.0657336
-0.0614327
-0.0544362
-0.0450469
-0.0336745
-0.0208179
-0.0070429
-0.00518749
-0.0153378
-0.0248234
-0.0332325
-0.0401989
-0.0454176
-0.0486586
-0.049777
-0.0487199
-0.0455296
-0.0403422
-0.0333824
-0.0249539
-0.0154264
-0.00521883
-0.00353433
-0.0104498
-0.0169123
-0.022641
-0.0273864
-0.0309409
-0.0331478
-0.0339085
-0.0331873
-0.0310131
-0.0274788
-0.0227376
-0.0169964
-0.0105069
-0.00355453
-0.00198751
-0.00587641
-0.00951058
-0.0127322
-0.0154008
-0.0173998
-0.018641
-0.019069
-0.0186635
-0.0174409
-0.0154535
-0.0127872
-0.00955849
-0.00590893
-0.00199902
-0.000500494
-0.00147988
-0.00239534
-0.00320724
-0.00388026
-0.00438493
-0.00469892
-0.00480808
-0.00470711
-0.00439989
-0.00389941
-0.00322726
-0.00241278
-0.00149171
-0.000504679
0.000971521
0.00287227
0.00464797
0.00622124
0.00752342
0.00849757
0.00910094
0.00930688
0.00910608
0.00850696
0.00753545
0.00623382
0.00465893
0.00287971
0.000974152
0.0024729
0.00731124
0.0118318
0.0158379
0.0191548
0.0216375
0.0231767
0.0237042
0.0231958
0.0216723
0.0191995
0.0158846
0.0118725
0.00733884
0.00248266
0.00404887
0.0119708
0.0193729
0.0259331
0.0313655
0.0354324
0.0379549
0.0388208
0.0379902
0.0354969
0.0314481
0.0260195
0.0194481
0.0120219
0.00406694
0.0057469
0.0169914
0.0274984
0.0368113
0.0445241
0.0502995
0.0538831
0.0551154
0.0539389
0.0504015
0.0446546
0.0369478
0.0276173
0.017072
0.00577543
0.00761804
0.0225239
0.0364531
0.0488004
0.059028
0.0666883
0.0714439
0.0730823
0.0715268
0.06684
0.0592221
0.0490033
0.0366298
0.0226438
0.00766046
0.00971845
0.0287345
0.0465059
0.0622612
0.0753143
0.0850939
0.0911687
0.0932669
0.0912889
0.0853134
0.0755952
0.062555
0.0467617
0.0289081
0.00977986
0.012111
0.0358094
0.0579586
0.0775982
0.0938734
0.106072
0.113655
0.116281
0.113826
0.106385
0.0942748
0.078018
0.0583242
0.0360575
0.0121988
0.0148672
0.0439597
0.0711536
0.095271
0.115263
0.130254
0.139581
0.142824
0.139825
0.1307
0.115833
0.0958673
0.0716729
0.0443122
0.0149918
0.0180689
0.0534284
0.0864846
0.115808
0.140125
0.158369
0.169733
0.173701
0.170078
0.159
0.140932
0.116653
0.0872199
0.0539274
0.0182455
0.0218111
0.0644961
0.104407
0.139822
0.169202
0.191261
0.205018
0.209848
0.205507
0.192153
0.170344
0.141016
0.105447
0.0652016
0.0220607
0.0262041
0.0774896
0.125452
0.168025
0.203363
0.229916
0.246503
0.252362
0.247193
0.231176
0.204975
0.169711
0.12692
0.0784864
0.0265567
0.0313767
0.0927904
0.150238
0.201252
0.243622
0.275491
0.295436
0.302533
0.29641
0.277271
0.2459
0.203633
0.152312
0.0941981
0.0318747
0.0374794
0.110845
0.179491
0.240479
0.291172
0.329346
0.353289
0.361883
0.354664
0.331859
0.294388
0.243842
0.18242
0.112832
0.0381825
0.0446886
0.132175
0.214062
0.286855
0.347414
0.393081
0.421798
0.432211
0.42374
0.396628
0.351954
0.291603
0.218197
0.134982
0.0456813
0.0532103
0.157393
0.254946
0.341725
0.413995
0.468583
0.503017
0.515651
0.505758
0.473591
0.420405
0.348428
0.260784
0.161355
0.0546119
0.0632857
0.187215
0.303311
0.406669
0.492853
0.558077
0.599371
0.614732
0.603241
0.565147
0.501902
0.416132
0.311552
0.192808
0.0652644
0.0751958
0.222474
0.36052
0.483537
0.586264
0.664186
0.713731
0.732456
0.719193
0.674166
0.599037
0.496896
0.372154
0.230371
0.0779894
0.0892675
0.264143
0.428163
0.574491
0.696896
0.789995
0.84949
0.872388
0.8572
0.804083
0.714928
0.59335
0.444588
0.275293
0.0932116
0.105879
0.31335
0.50809
0.682055
0.827876
0.939137
1.01066
1.03876
1.02154
0.959023
0.85333
0.708679
0.531279
0.329092
0.111448
0.125469
0.371396
0.60244
0.809158
0.98285
1.11587
1.20197
1.23661
1.21733
1.14394
1.01878
0.846744
0.63518
0.393623
0.133332
0.148536
0.439777
0.713678
0.959192
1.16606
1.32518
1.429
1.47191
1.45068
1.3648
1.21678
1.01225
0.759904
0.471161
0.159639
0.17565
0.520195
0.844626
1.13606
1.38242
1.57289
1.69832
1.75173
1.72891
1.62881
1.45402
1.21097
0.909897
0.564516
0.191331
0.207455
0.614579
0.998485
1.34421
1.63759
1.86576
2.01762
2.0845
2.06079
1.94467
1.73864
1.44996
1.09065
0.677175
0.229605
0.244668
0.725081
1.17886
1.58869
1.93804
2.21162
2.39594
2.48015
2.45683
2.32295
2.08066
1.738
1.30902
0.813503
0.275959
0.288074
0.854076
1.38973
1.87516
2.29111
2.61943
2.84377
2.95046
2.92965
2.77648
2.49238
2.08597
1.57359
0.97901
0.332295
0.338525
1.00414
1.63549
2.20988
2.70501
3.09943
3.37327
3.5093
3.49435
3.32093
2.98901
2.50751
1.89522
1.18072
0.401042
0.396913
1.17799
1.92078
2.59961
3.18883
3.66316
3.99846
4.17297
4.16906
3.97542
3.58951
3.01987
2.28781
1.42768
0.485346
0.464152
1.37843
2.25047
3.05156
3.75242
4.32341
4.73527
4.96051
4.97552
4.76342
4.31756
3.64501
2.76933
1.73172
0.589337
0.541123
1.6082
2.62942
3.5731
4.40617
5.09413
5.60165
5.89403
5.93964
5.71371
5.20302
4.41117
3.36329
2.10851
0.718526
0.628626
1.86981
3.06219
4.17143
5.16066
5.99012
6.61741
6.99885
7.0923
6.86172
6.28368
5.3551
4.10092
2.57916
0.880399
0.727287
2.16528
3.55269
4.85307
6.02607
7.02646
7.80385
8.30364
8.46993
8.25098
7.60773
6.52511
5.02434
3.17271
1.08535
0.837457
2.49586
4.10361
5.62313
7.01131
8.21763
9.18301
9.83996
10.115
9.93484
9.23686
7.98544
6.19139
3.92995
1.34816
0.959084
2.86162
4.71577
6.48436
8.12279
9.57606
10.7763
11.6414
12.0762
11.9782
11.2503
9.82255
7.68297
4.90965
1.69048
1.09156
3.26094
5.38731
7.43595
9.3628
11.1101
12.6023
13.7416
14.4073
14.459
13.7496
12.154
9.61459
6.19893
2.14516
1.23358
3.69012
6.11278
8.47207
10.7274
12.8214
14.6731
16.1706
17.1648
17.4681
16.8642
15.1407
12.1547
7.93132
2.7641
1.38297
4.14281
6.88223
9.58031
12.204
14.7009
16.9898
18.949
20.4021
21.1072
20.7562
19.0041
15.554
10.3191
3.63371
1.53659
4.60964
7.68035
10.7402
13.7685
16.7246
19.5355
22.0786
24.1587
25.4795
25.621
24.0466
20.1928
13.7141
4.90749
1.69028
5.07806
8.48598
11.9218
15.3832
18.8491
22.2669
25.5298
28.4425
30.6707
31.6772
30.6718
26.6543
18.7256
6.88147
1.83895
5.53248
9.27216
13.0857
16.9945
21.0069
25.1057
29.2239
33.2015
36.7101
39.1305
39.3886
35.8319
26.4561
10.1879
1.97674
5.95481
10.007
14.1833
18.5337
23.1047
27.9309
33.0154
38.2862
43.5051
48.0851
50.7542
49.0501
38.9729
16.3466
2.09743
6.32565
10.6555
15.16
19.9197
25.0251
30.5767
36.6774
43.4066
50.7435
58.3665
65.1565
68.0828
60.204
29.4962
2.19494
6.62586
11.1827
15.9594
21.0654
26.6356
32.8409
39.9028
48.1047
57.7829
69.226
82.2416
94.6184
97.2882
62.2877
2.26394
6.83856
11.5573
16.5298
21.8888
27.8048
34.5102
42.3363
51.7773
63.5964
78.9929
99.7696
127.894
160.532
157.284
2.30045
6.95113
11.7556
16.8319
22.3251
28.4258
35.401
43.6483
53.7981
66.9253
85.0231
112.194
158.036
248.694
468.473
2.30238
6.95688
11.7649
16.8444
22.3394
28.4393
35.4083
43.6387
53.7511
66.8019
84.7517
111.653
157.053
247.189
467.081
2.26977
6.85595
11.5858
16.5681
21.9336
27.8492
34.5395
42.3219
51.6633
63.2758
78.2636
98.2631
125.003
155.573
151.251
2.20474
6.65522
11.2313
16.0257
21.1456
26.7208
32.9122
39.9222
47.998
57.4055
68.2947
80.1922
90.2931
88.188
42.4877
-19.0955
-15.5678
-12.9223
-10.8733
-9.2207
-7.84201
-6.66003
-5.62364
-4.69723
-3.85479
-3.07651
-2.34666
-1.65222
-0.981954
-0.325775
-7.16367
-9.93031
-9.80874
-8.9524
-7.94427
-6.95078
-6.01694
-5.14976
-4.34411
-3.59127
-2.88193
-2.2071
-1.55836
-0.927842
-0.308094
-3.25999
-6.29842
-7.20532
-7.13685
-6.65761
-6.01806
-5.3275
-4.63311
-3.95427
-3.29753
-2.66336
-2.04939
-1.45182
-0.866246
-0.287937
-1.77402
-4.1467
-5.27918
-5.60648
-5.48223
-5.12073
-4.64066
-4.10562
-3.54906
-2.98807
-2.43075
-1.88027
-1.33696
-0.799594
-0.266088
-1.10426
-2.85619
-3.91215
-4.38965
-4.47155
-4.30569
-3.99196
-3.59304
-3.1469
-2.67602
-2.19338
-1.70615
-1.21795
-0.730258
-0.243314
-0.751573
-2.04897
-2.94678
-3.44751
-3.63288
-3.5933
-3.40239
-3.11322
-2.76189
-2.37212
-1.95918
-1.53269
-1.09857
-0.660399
-0.220318
-0.541756
-1.51923
-2.25715
-2.72433
-2.9504
-2.98599
-2.88101
-2.67654
-2.40355
-2.0843
-1.73438
-1.3645
-0.981987
-0.591863
-0.197707
-0.405568
-1.15585
-1.7555
-2.16857
-2.40017
-2.47626
-2.42871
-2.28743
-2.0773
-1.81776
-1.52342
-1.20508
-0.870683
-0.526123
-0.175968
-0.31164
-0.897044
-1.38342
-1.73882
-1.95792
-2.05236
-2.04147
-1.9461
-1.78536
-1.57537
-1.32911
-1.05681
-0.766428
-0.464261
-0.155466
-0.244011
-0.707004
-1.10229
-1.4037
-1.60221
-1.70159
-1.71289
-1.65016
-1.5276
-1.35814
-1.15289
-0.921086
-0.670348
-0.406999
-0.136447
-0.19376
-0.563978
-0.886331
-1.14001
-1.31535
-1.41196
-1.43571
-1.39575
-1.30239
-1.16576
-0.995088
-0.798501
-0.583019
-0.354736
-0.119052
-0.155525
-0.454187
-0.718057
-0.930727
-1.08314
-1.17293
-1.20276
-1.17841
-1.10723
-0.997003
-0.855277
-0.68903
-0.504576
-0.307608
-0.103336
-0.12589
-0.368554
-0.585332
-0.76328
-0.894401
-0.975524
-1.00741
-0.993578
-0.939173
-0.850114
-0.732486
-0.592197
-0.434818
-0.265551
-0.0892864
-0.102584