/*--------------------------------*- C++ -*----------------------------------*\
| =========                 |                                                 |
| \\      /  F ield         | OpenFOAM: The Open Source CFD Toolbox           |
|  \\    /   O peration     | Version:  5.x                                   |
|   \\  /    A nd           | Web:      www.OpenFOAM.org                      |
|    \\/     M anipulation  |                                                 |
\*---------------------------------------------------------------------------*/
FoamFile
{
    version     2.0;
    format      ascii;
    class       volScalarField;
    location    "8.3";
    object      T;
}
// * * * * * * * * * * * * * * * * * * * * * * * * * * * * * * * * * * * * * //

dimensions      [0 0 0 1 0 0 0];

internalField   nonuniform List<scalar> 
6300
(
10.3435
11.033
11.7299
12.439
13.1648
13.9116
14.6829
15.4816
16.3098
17.1683
18.057
18.9741
19.9164
20.8793
21.8569
10.341
11.0255
11.7176
12.4222
13.1439
13.887
14.6553
15.452
16.2792
17.1381
18.0284
18.9487
19.8955
20.8643
21.8488
10.3359
11.0105
11.6928
12.3882
13.1014
13.8371
14.5994
15.3917
16.2168
17.0761
17.9698
18.8964
19.8526
20.8333
21.8319
10.3283
10.9875
11.655
12.3362
13.0364
13.7605
14.5132
15.2986
16.1201
16.9797
17.8781
18.8142
19.7848
20.7843
21.805
10.3178
10.9563
11.6035
12.2653
12.9473
13.6551
14.3942
15.1694
15.985
16.8442
17.7485
18.6974
19.6878
20.7137
21.7659
10.3044
10.9163
11.5375
12.174
12.8322
13.5184
14.2389
14.9996
15.8063
16.6634
17.574
18.5389
19.5552
20.6164
21.7115
10.288
10.8671
11.456
12.061
12.6892
13.3474
14.0432
14.7839
15.5768
16.4289
17.3453
18.3286
19.3775
20.4849
21.6374
10.2683
10.8083
11.3582
11.9249
12.5159
13.1389
13.8024
14.5157
15.2883
16.1299
17.0493
18.0527
19.1412
20.3082
21.5371
10.2454
10.7394
11.2435
11.7646
12.3105
12.8897
13.5118
14.188
14.9305
15.7529
16.6692
17.6913
18.826
20.0694
21.4012
10.2191
10.6605
11.1116
11.5794
12.0717
12.5974
13.1672
13.7938
14.4926
15.2821
16.1831
17.2172
18.402
19.7418
21.2148
10.1897
10.5719
10.9631
11.3698
11.7995
12.2611
12.7656
13.3272
13.964
14.6995
15.5636
16.5923
17.8228
19.2808
20.9525
10.1573
10.4743
10.799
11.1371
11.4952
11.8816
12.3069
12.7853
13.3365
13.9881
14.7795
15.7652
17.0159
18.6058
20.5641
10.1224
10.369
10.6215
10.8843
11.1627
11.4633
11.7951
12.1706
12.6085
13.1369
13.8009
14.6731
15.8697
17.5621
19.9313
10.0855
10.2578
10.4337
10.6159
10.8078
11.0136
11.2393
11.4935
11.7897
12.15
12.614
13.2562
14.2276
15.8413
18.7033
10.0475
10.143
10.2394
10.3378
10.4389
10.5441
10.655
10.7744
10.9066
11.0594
11.2486
11.5101
11.9428
12.8722
15.583
22.7602
23.5821
24.4001
25.2098
26.007
26.7877
27.5484
28.286
28.9978
29.6816
30.3356
30.9583
31.5486
32.1056
32.6286
33.1172
33.571
33.9898
34.3736
34.7225
35.0365
35.316
35.5611
35.7724
35.9502
36.0951
36.2076
36.2884
36.3379
36.357
36.3462
36.3063
36.2378
36.1415
36.018
35.868
35.6921
35.4909
35.2652
35.0155
34.7425
34.4469
34.1292
33.7902
33.4304
33.0505
32.6512
32.2329
31.7963
31.3418
30.87
30.3814
29.8764
29.3555
28.8191
28.2677
27.7018
27.122
26.5287
25.9226
25.3043
24.6744
24.0335
23.3822
22.7213
22.0514
21.3732
20.6875
19.9952
19.2971
18.5943
17.8881
17.1796
16.4703
15.7616
15.0554
14.3532
13.6568
12.9682
12.2891
11.6214
10.9668
10.327
9.70353
9.09789
8.5113
7.94479
7.39917
6.87499
6.37253
22.759
23.5873
24.4117
25.2275
26.0303
26.8162
27.5813
28.3227
29.0377
29.7241
30.3801
31.0045
31.5961
32.154
32.6777
33.1667
33.6208
34.0397
34.4235
34.7721
35.0858
35.3648
35.6094
35.82
35.9971
36.1412
36.2528
36.3327
36.3813
36.3994
36.3877
36.3468
36.2774
36.1801
36.0557
35.9047
35.7279
35.5258
35.2992
35.0485
34.7746
34.478
34.1594
33.8195
33.4588
33.0781
32.6779
32.2588
31.8214
31.3663
30.8938
30.4045
29.8988
29.3772
28.8402
28.2881
27.7214
27.1408
26.5468
25.9398
25.3206
24.6898
24.048
23.3958
22.7339
22.0629
21.3836
20.6967
20.003
19.3035
18.5991
17.891
17.1805
16.469
15.758
15.0492
14.3445
13.6455
12.9543
12.2726
11.6023
10.9453
10.3032
9.67773
9.07031
8.48222
7.91457
7.36817
6.84362
6.34117
22.7563
23.5978
24.4353
25.2636
26.0779
26.8739
27.648
28.397
29.1183
29.8098
30.4699
31.0975
31.6915
32.2512
32.7762
33.2661
33.7207
34.1397
34.5233
34.8715
35.1845
35.4626
35.706
35.9153
36.0909
36.2333
36.3433
36.4213
36.4681
36.4843
36.4706
36.4277
36.3564
36.2572
36.1309
35.9781
35.7994
35.5955
35.367
35.1145
34.8388
34.5403
34.2199
33.8781
33.5156
33.1331
32.7312
32.3106
31.8717
31.4151
30.9413
30.4507
29.9437
29.4208
28.8824
28.3289
27.7608
27.1786
26.5829
25.9742
25.3533
24.7206
24.077
23.4229
22.7591
22.0861
21.4046
20.7153
20.019
19.3165
18.6089
17.8971
17.1825
16.4666
15.7509
15.0371
14.3271
13.6229
12.9263
12.2393
11.5639
10.902
10.2554
9.62577
9.0147
8.42358
7.85358
7.3056
6.78027
6.27788
22.7517
23.6139
24.4718
25.3193
26.1513
26.963
27.7506
28.5108
29.2413
29.9402
30.6062
31.2383
31.8358
32.3981
32.9249
33.4159
33.8711
34.2903
34.6736
35.0211
35.333
35.6096
35.8513
36.0585
36.2318
36.3718
36.4791
36.5544
36.5983
36.6116
36.595
36.5492
36.4749
36.3729
36.2437
36.0881
35.9067
35.7
35.4688
35.2136
34.935
34.6337
34.3105
33.9659
33.6007
33.2155
32.8111
32.388
31.9469
31.4882
31.0124
30.5199
30.0111
29.4863
28.9459
28.3903
27.8199
27.2354
26.6372
26.0259
25.4023
24.767
24.1205
23.4637
22.797
22.1211
21.4365
20.7437
20.0436
19.3368
18.6242
17.9069
17.1862
16.4636
15.7406
15.0192
14.3013
13.589
12.8842
12.1892
11.506
10.8366
10.1829
9.5469
8.93021
8.33438
7.76073
7.21029
6.68377
6.1815
22.7443
23.636
24.5227
25.3973
26.2536
27.0865
27.892
28.667
29.4094
30.1177
30.7909
31.4285
32.0301
32.5955
33.1245
33.6169
34.0728
34.4921
34.875
35.2214
35.5318
35.8064
36.0456
36.2501
36.4203
36.5568
36.6605
36.732
36.772
36.7813
36.7608
36.711
36.6329
36.527
36.3941
36.2348
36.0497
35.8394
35.6046
35.3457
35.0634
34.7583
34.4312
34.0828
33.7139
33.3251
32.9173
32.491
32.0469
31.5854
31.1071
30.6121
30.1009
29.5737
29.0307
28.4724
27.8991
27.3113
26.7098
26.095
25.4677
24.8288
24.1787
23.5183
22.8479
22.1682
21.4796
20.7825
20.0774
19.3649
18.6459
17.9213
17.1924
16.4607
15.7279
14.9961
14.2673
13.5439
12.8279
12.1219
11.4279
10.7482
10.0849
9.44004
8.81552
8.2131
7.63432
7.08042
6.55224
6.05019
22.7332
23.6652
24.5907
25.5011
26.3892
27.2492
28.077
28.8698
29.6262
30.3452
31.0265
31.6702
32.2763
32.8449
33.3762
33.8701
34.3267
34.746
35.1281
35.4732
35.7816
36.0535
36.2896
36.4904
36.6565
36.7887
36.8877
36.9543
36.9894
36.9937
36.968
36.9133
36.8302
36.7195
36.5819
36.418
36.2285
36.0137
35.7744
35.5109
35.2239
34.9141
34.5822
34.2289
33.8551
33.4617
33.0495
32.6191
32.1713
31.7065
31.2251
30.7273
30.2134
29.6833
29.1373
28.5756
27.9986
27.4068
26.8009
26.1816
25.5497
24.9061
24.2515
23.5867
22.912
22.2279
21.5346
20.8324
20.1215
19.4023
18.6754
17.9416
17.2023
16.459
15.7136
14.9683
14.2255
13.4876
12.7572
12.0369
11.329
10.636
9.96016
9.30372
8.66886
8.05765
7.47196
6.91337
6.38297
5.8813
22.7175
23.7032
24.68
25.6368
26.5649
27.4578
28.3118
29.1249
29.8963
30.6264
31.3159
31.9654
32.5758
33.1476
33.6811
34.1765
34.6337
35.0529
35.4341
35.7774
36.0832
36.3518
36.5839
36.78
36.9411
37.0678
37.161
37.2216
37.2505
37.2485
37.2166
37.1558
37.0667
36.9502
36.807
36.6377
36.4429
36.2229
35.9783
35.7094
35.4169
35.1012
34.7633
34.4039
34.0241
33.6249
33.2072
32.7719
32.3197
31.851
31.3663
30.8654
30.3485
29.8154
29.266
28.7004
28.119
27.5222
26.9109
26.2858
25.6481
24.9988
24.3388
23.6688
22.9892
22.3003
21.6021
20.8945
20.1772
19.4504
18.7143
17.9697
17.2177
16.4601
15.6989
14.9367
14.1762
13.4203
12.6719
11.9338
11.2086
10.4989
9.8073
9.13617
8.488
7.8653
7.27046
6.70559
6.17225
5.67118
22.696
23.7537
24.7979
25.8137
26.7907
27.7222
28.6053
29.4394
30.2256
30.9658
31.6622
32.3166
32.9306
33.505
34.0405
34.5372
34.9951
35.4141
35.7941
36.1352
36.4377
36.7022
36.9293
37.1198
37.2745
37.3945
37.4807
37.534
37.5554
37.5459
37.5065
37.4383
37.3421
37.2188
37.0692
36.8937
36.693
36.4672
36.2166
35.9416
35.6425
35.3199
34.9747
34.6079
34.2206
33.8142
33.3898
32.9485
32.4912
32.0183
31.53
31.0262
30.5065
29.9704
29.4175
28.8477
28.2611
27.6582
27.0401
26.4078
25.7629
25.1066
24.4401
23.7643
23.0795
22.3858
21.6829
20.97
20.2464
19.5115
18.7653
18.008
17.241
16.466
15.6854
14.9024
14.1201
13.3421
12.5716
11.8118
11.0656
10.3357
9.62477
8.93538
8.27034
7.6327
7.02566
6.45229
5.91496
5.41484
22.668
23.8234
24.9562
26.0463
27.0815
28.0559
28.9688
29.8224
30.6206
31.368
32.0686
32.7257
33.3417
33.918
34.4552
34.9534
35.4121
35.8309
36.2095
36.548
36.8466
37.1059
37.3268
37.5103
37.6575
37.7694
37.8472
37.8917
37.9042
37.8857
37.8374
37.7604
37.6559
37.5248
37.3679
37.1856
36.9785
36.7465
36.4896
36.2078
35.9013
35.5707
35.2167
34.8407
34.4442
34.0288
33.5962
33.1478
32.6846
32.2072
31.7156
31.2094
30.6875
30.1491
29.593
29.0186
28.426
27.8158
27.1891
26.5478
25.8936
25.2286
24.5545
23.8722
23.1823
22.4844
21.7776
21.0605
20.3314
19.5888
18.8317
18.0602
17.2755
16.4795
15.6753
14.8667
14.0578
13.2528
12.4557
11.67
10.8989
10.1451
9.41105
8.69938
8.01307
7.35589
6.73228
6.14697
5.60397
5.10532
22.6345
23.9254
25.1755
26.3577
27.4593
28.4779
29.4173
30.2846
31.0885
31.837
32.537
33.1934
33.8094
34.3867
34.9257
35.4258
35.8859
36.3049
36.6822
37.0176
37.3113
37.5643
37.7776
37.9527
38.0907
38.193
38.2608
38.2951
38.297
38.2679
38.209
38.1217
38.0075
37.8674
37.7023
37.5129
37.2992
37.0611
36.7979
36.509
36.1944
35.8544
35.4899
35.1025
34.6943
34.2676
33.8247
33.3677
32.898
32.4161
31.9219
31.4144
30.8921
30.3526
29.7942
29.2153
28.6159
27.9965
27.3589
26.7056
26.0394
25.3635
24.68
23.9907
23.296
22.5953
21.8868
21.168
20.4356
19.6864
18.9185
18.1313
17.3258
16.5045
15.6712
14.831
13.9895
13.1519
12.3231
11.507
10.7071
9.9257
9.16497
8.42672
7.71371
7.03059
6.38365
5.78061
5.22901
4.7327
22.6002
24.086
25.4921
26.7847
27.9565
29.0135
29.969
30.8378
31.6355
32.3755
33.0677
33.7188
34.3324
34.9102
35.4517
35.9553
36.4182
36.8385
37.2147
37.5465
37.8343
38.0793
38.2831
38.4476
38.5747
38.6658
38.722
38.7444
38.734
38.6923
38.6207
38.5213
38.3956
38.2453
38.0713
37.8744
37.6546
37.4112
37.1424
36.8468
36.5235
36.1727
35.7955
35.3938
34.9705
34.529
34.0731
33.6055
33.1283
32.6421
32.1466
31.6404
31.1206
30.5832
30.0242
29.4413
28.8338
28.203
27.5509
26.8814
26.199
25.5086
24.8137
24.1167
23.418
22.7169
22.0106
21.2948
20.5635
19.8106
19.0327
18.2284
17.3986
16.5463
15.677
14.7972
13.9152
13.0381
12.1718
11.3207
10.4883
9.67644
8.88637
8.11754
7.37117
6.65305
5.97167
5.34008
4.77435
4.28216
22.583
24.361
25.9716
27.3855
28.6184
29.6951
30.6451
31.493
32.265
32.9824
33.6571
34.2976
34.9064
35.4854
36.0318
36.5427
37.0115
37.4351
37.8106
38.1383
38.4183
38.653
38.8445
38.9958
39.11
39.1882
39.2314
39.2403
39.2156
39.159
39.0721
38.9581
38.8188
38.6566
38.4727
38.2685
38.0435
37.7971
37.5252
37.2238
36.8918
36.5284
36.1358
35.7156
35.2725
34.8108
34.3378
33.8567
33.3711
32.8808
32.3865
31.8853
31.3741
30.8445
30.288
29.7022
29.0851
28.4396
27.7674
27.0756
26.3696
25.6597
24.9499
24.2447
23.5432
22.8457
22.1475
21.4437
20.722
19.9705
19.1849
18.3616
17.5036
16.6125
15.6974
14.7661
13.8339
12.9084
11.9986
11.1072
10.2396
9.39574
8.57703
7.77589
6.98785
6.22251
5.48791
4.80461
4.21371
3.73028
22.6483
24.8767
26.7339
28.2468
29.5046
30.5588
31.4675
32.2573
32.9725
33.6504
34.2952
34.9217
35.5228
36.1072
36.6622
37.1903
37.6691
38.1004
38.4747
38.7979
39.0671
39.2884
39.4629
39.5971
39.6964
39.7605
39.7897
39.7838
39.7426
39.6685
39.5621
39.4306
39.2742
39.0988
38.9028
38.6917
38.4628
38.2191
37.95
37.6441
37.3045
36.9256
36.5155
36.0695
35.6009
35.1082
34.6135
34.1138
33.6201
33.1248
32.6357
32.1442
31.6537
31.1438
30.5935
30.0076
29.3769
28.7141
28.0118
27.2898
26.5454
25.8101
25.079
24.367
23.6623
22.975
22.2922
21.6179
20.9232
20.1791
19.391
18.5446
17.6559
16.7129
15.741
14.736
13.7427
12.7556
11.7989
10.8591
9.95661
9.07865
8.2422
7.41524
6.57172
5.74757
4.93017
4.13598
3.49825
3.03782
23.0612
25.9265
27.9917
29.4749
30.6836
31.6318
32.4608
33.1282
33.7336
34.3654
34.9589
35.582
36.1624
36.771
37.3308
37.9083
38.3945
38.8473
39.2119
39.5348
39.7842
39.9908
40.1388
40.248
40.3331
40.3823
40.3979
40.3778
40.3163
40.224
40.0877
39.9385
39.7564
39.5699
39.3539
39.1402
38.9026
38.6772
38.4271
38.1124
37.7735
37.3672
36.9463
36.4555
35.9632
35.4082
34.8958
34.3617
33.8708
33.3592
32.8881
32.4008
31.961
31.5007
30.9496
30.3774
29.7142
29.045
28.2841
27.5357
26.7077
25.9539
25.1805
24.4781
23.7559
23.0976
22.4242
21.8211
21.1953
20.4509
19.6805
18.7883
17.886
16.8547
15.8321
14.6888
13.6425
12.5589
11.5748
10.5569
9.63817
8.70164
7.89358
7.07831
6.12757
5.26281
4.33893
3.242
2.52742
2.1361
25.0527
28.1281
30.087
31.098
32.2371
32.8758
33.6862
34.0882
34.4559
35.1352
35.5796
36.3032
36.7611
37.5042
37.9734
38.7572
39.1674
39.7207
40.0085
40.3771
40.5623
40.7768
40.8699
40.9328
41.0209
41.052
41.0567
41.0307
40.9337
40.8425
40.6311
40.4931
40.2445
40.0829
39.801
39.6226
39.3243
39.1703
38.9966
38.6149
38.3389
37.8291
37.4773
36.8429
36.4154
35.6461
35.2086
34.5471
34.1508
33.5348
33.1631
32.5886
32.2973
31.9879
31.3354
30.8778
30.0594
29.5077
28.538
27.8958
26.7628
26.1254
25.1793
24.6174
23.7571
23.2417
22.4545
22.0565
21.6377
20.7598
20.1448
19.0465
18.3013
16.9838
16.0966
14.5015
13.5957
12.2187
11.3989
10.1119
9.34515
8.13948
7.55522
6.9363
5.55951
4.8631
3.99679
1.79736
1.09103
0.902516
5.84368
5.29755
4.7812
4.29316
3.83157
3.39432
2.97911
2.58352
2.20511
1.84144
1.49011
1.14876
0.8151
0.486893
0.161937
5.81278
5.26768
4.75282
4.26663
3.80717
3.37223
2.95943
2.56629
2.19033
1.82907
1.4801
1.14105
0.809636
0.483632
0.160853
5.75045
5.20748
4.69568
4.21329
3.75818
3.32794
2.92003
2.53185
2.16081
1.80439
1.46013
1.12568
0.798749
0.477138
0.158695
5.6556
5.11601
4.60904
4.1326
3.68425
3.26126
2.86085
2.48022
2.11664
1.76751
1.43034
1.10277
0.78253
0.467468
0.155482
5.52655
4.99184
4.49177
4.02377
3.58488
3.17195
2.78184
2.41148
2.05799
1.71865
1.39093
1.0725
0.761123
0.454712
0.151245
5.36086
4.83296
4.34235
3.88575
3.45948
3.05978
2.68303
2.32585
1.98514
1.65812
1.34223
1.03515
0.73474
0.439002
0.146029
5.15524
4.63668
4.15886
3.71735
3.30745
2.9246
2.56459
2.22369
1.89859
1.58643
1.28468
0.991106
0.703674
0.420522
0.139896
4.90526
4.3996
3.93898
3.51726
3.12832
2.76653
2.42702
2.10568
1.79907
1.5043
1.21895
0.940903
0.668315
0.399508
0.132925
4.60494
4.11739
3.68012
3.28435
2.92198
2.58613
2.27123
1.9729
1.68766
1.41274
1.14588
0.885228
0.629163
0.376263
0.125217
4.24622
3.78484
3.37969
3.01799
2.68907
2.38472
2.09885
1.82701
1.56591
1.31308
1.0666
0.824946
0.586836
0.351156
0.116896
3.81811
3.39598
3.03575
2.71879
2.43154
2.16478
1.9124
1.67035
1.43586
1.20704
0.982474
0.761107
0.54207
0.324624
0.108106
3.30584
2.94516
2.64849
2.38982
2.15347
1.93043
1.71561
1.50608
1.30013
1.09671
0.895136
0.694924
0.495702
0.297157
0.0990089
2.69116
2.43027
2.2232
2.0385
1.86205
1.68783
1.51348
1.3382
1.16184
0.98452
0.806421
0.627741
0.448649
0.269289
0.0897792
1.95914
1.86152
1.77548
1.67891
1.56836
1.44534
1.31227
1.17138
1.0245
0.873089
0.718274
0.560956
0.401856
0.241567
0.0805963
1.13166
1.28114
1.33828
1.33327
1.28711
1.21287
1.11885
1.01052
0.891682
0.765043
0.632617
0.495945
0.356246
0.214522
0.0716337
10.0124
10.0367
10.0597
10.0802
10.097
10.1083
10.1116
10.1034
10.0782
10.0263
9.93047
9.75265
9.39293
8.51739
5.73777
9.98074
9.9411
9.89798
9.84871
9.79
9.7176
9.62558
9.5053
9.34338
9.11771
8.78902
8.28118
7.43301
5.88067
2.82632
9.94987
9.84788
9.74051
9.6237
9.49248
9.34051
9.15913
8.93604
8.65281
8.28057
7.77194
7.04597
5.96207
4.28696
1.7192
9.92021
9.75837
9.5896
9.40867
9.20935
8.9838
8.72162
8.4085
8.02401
7.53811
6.90574
6.05929
4.90163
3.31313
1.21667
9.89211
9.67367
9.44711
9.20639
8.94442
8.6525
8.31945
7.93049
7.46561
6.89733
6.18816
5.28871
4.14036
2.69203
0.948063
9.86584
9.5946
9.31446
9.01885
8.70028
8.34974
7.95608
7.50519
6.97898
6.35436
5.6027
4.69095
3.58737
2.27621
0.785122
9.84159
9.52172
9.19252
8.84726
8.47833
8.07691
7.63244
7.13217
6.56066
5.89959
5.12837
4.22638
3.17851
1.98534
0.677145
9.81946
9.4553
9.08174
8.69208
8.27893
7.83395
7.34753
6.8086
6.2045
5.5213
4.74484
3.86311
2.87054
1.77434
0.601175
9.79948
9.39541
8.98214
8.5532
8.10162
7.61974
7.09908
6.53028
5.90326
5.20775
4.4344
3.5768
2.63451
1.61677
0.545472
9.7816
9.34189
8.8934
8.43003
7.94534
7.43246
6.88405
6.29237
5.64957
4.94824
4.18246
3.3493
2.45087
1.4964
0.503409
9.76574
9.29448
8.815
8.32166
7.80863
7.26984
6.69905
6.08995
5.4365
4.73349
3.9773
3.16711
2.30614
1.40277
0.470947
9.75176
9.25278
8.74622
8.22696
7.6898
7.12945
6.54064
5.91831
5.25785
4.55564
3.80963
3.02018
2.19083
1.3289
0.445478
9.73954
9.21633
8.68625
8.14469
7.58705
7.0088
6.40552
5.77314
5.1082
4.4082
3.67212
2.90095
2.09815
1.26996
0.425236
9.7289
9.18466
8.63424
8.07357
7.49863
6.90552
6.29059
5.65058
4.98287
4.2858
3.55898
2.80368
2.0231
1.2225
0.408986
9.7197
9.15726
8.58935
8.01237
7.42282
6.8174
6.19307
5.54723
4.87794
4.18406
3.46562
2.72396
1.96195
1.18399
0.395834
9.71176
9.13367
8.55076
7.95988
7.35803
6.74239
6.11047
5.46019
4.79006
4.09938
3.38837
2.65836
1.91187
1.15257
0.38512
9.70495
9.11343
8.51769
7.91501
7.30281
6.6787
6.04062
5.38691
4.71646
4.02881
3.32431
2.60421
1.87069
1.12679
0.376345
9.69911
9.09611
8.48945
7.87676
7.25585
6.62471
5.98162
5.32526
4.65479
3.96993
3.27109
2.55939
1.8367
1.10557
0.369128
9.69414
9.08134
8.46538
7.84422
7.21599
6.579
5.93183
5.27341
4.60311
3.92076
3.22679
2.5222
1.80856
1.08803
0.36317
9.68989
9.06877
8.44491
7.8166
7.18222
6.54036
5.88985
5.22982
4.55978
3.87967
3.18987
2.49127
1.78522
1.07351
0.358238
9.68629
9.05809
8.42754
7.79318
7.15364
6.50773
5.85447
5.19317
4.52345
3.84529
3.15906
2.46552
1.76582
1.06144
0.354145
9.68323
9.04903
8.41283
7.77336
7.12949
6.48019
5.82468
5.16237
4.49299
3.81652
3.13333
2.44405
1.74966
1.05141
0.350742
9.68065
9.04136
8.40037
7.75661
7.10909
6.45698
5.7996
5.13649
4.46743
3.79243
3.11181
2.42612
1.73619
1.04304
0.347908
9.67846
9.03488
8.38985
7.74246
7.09188
6.43741
5.77849
5.11474
4.44598
3.77225
3.09381
2.41114
1.72494
1.03607
0.345544
9.67661
9.0294
8.38096
7.73052
7.07738
6.42094
5.76074
5.09648
4.42799
3.75534
3.07874
2.39861
1.71554
1.03024
0.343571
9.67504
9.02478
8.37347
7.72046
7.06516
6.40708
5.74582
5.08113
4.4129
3.74117
3.06613
2.38813
1.70768
1.02538
0.341922
9.67373
9.02088
8.36715
7.71198
7.05488
6.39542
5.73328
5.06825
4.40024
3.72929
3.05556
2.37936
1.70111
1.02131
0.340544
9.67262
9.0176
8.36183
7.70485
7.04623
6.38562
5.72275
5.05744
4.38962
3.71933
3.04671
2.37202
1.69561
1.0179
0.339391
9.67169
9.01484
8.35736
7.69885
7.03896
6.37738
5.7139
5.04837
4.38072
3.71099
3.0393
2.36588
1.69101
1.01505
0.338427
9.6709
9.01252
8.35361
7.69382
7.03286
6.37048
5.70649
5.04076
4.37326
3.704
3.0331
2.36074
1.68716
1.01267
0.337621
9.67024
9.01058
8.35045
7.68959
7.02774
6.36469
5.70028
5.0344
4.36702
3.69816
3.02791
2.35644
1.68394
1.01068
0.336948
9.66969
9.00895
8.34782
7.68606
7.02346
6.35985
5.69508
5.02907
4.3618
3.69328
3.02358
2.35285
1.68126
1.00902
0.336386
9.66923
9.00759
8.34561
7.6831
7.01989
6.3558
5.69074
5.02463
4.35745
3.6892
3.01997
2.34986
1.67902
1.00764
0.335918
9.66885
9.00645
8.34378
7.68065
7.01691
6.35244
5.68714
5.02094
4.35383
3.68582
3.01697
2.34738
1.67716
1.00649
0.335529
9.66853
9.00551
8.34225
7.67861
7.01444
6.34965
5.68415
5.01788
4.35083
3.68302
3.01449
2.34532
1.67563
1.00554
0.335207
9.66827
9.00474
8.341
7.67693
7.01242
6.34736
5.68169
5.01537
4.34837
3.68072
3.01245
2.34363
1.67436
1.00476
0.334943
9.66806
9.00411
8.33998
7.67557
7.01076
6.34549
5.67969
5.01332
4.34636
3.67884
3.01078
2.34226
1.67333
1.00412
0.334728
9.66788
9.0036
8.33916
7.67447
7.00943
6.34399
5.67808
5.01167
4.34475
3.67733
3.00945
2.34115
1.67251
1.00361
0.334555
9.66775
9.0032
8.33852
7.67361
7.00839
6.34281
5.67682
5.01038
4.34349
3.67615
3.0084
2.34028
1.67186
1.00321
0.33442
9.66765
9.0029
8.33803
7.67295
7.0076
6.34192
5.67586
5.0094
4.34253
3.67526
3.00761
2.33963
1.67137
1.00291
0.334317
9.66758
9.00269
8.33769
7.67249
7.00704
6.34129
5.67519
5.00871
4.34186
3.67463
3.00705
2.33917
1.67103
1.00269
0.334245
9.66753
9.00256
8.33747
7.67221
7.0067
6.3409
5.67477
5.00829
4.34144
3.67424
3.00671
2.33888
1.67081
1.00256
0.3342
9.66751
9.0025
8.33739
7.67209
7.00656
6.34074
5.6746
5.00811
4.34127
3.67408
3.00656
2.33876
1.67072
1.00251
0.334182
9.66752
9.00253
8.33742
7.67214
7.00662
6.3408
5.67467
5.00818
4.34134
3.67414
3.00662
2.33881
1.67076
1.00253
0.334189
9.66755
9.00262
8.33758
7.67235
7.00687
6.3411
5.67498
5.0085
4.34165
3.67443
3.00688
2.33902
1.67092
1.00263
0.334222
9.66761
9.0028
8.33787
7.67274
7.00734
6.34162
5.67554
5.00908
4.34221
3.67496
3.00735
2.33941
1.67121
1.00281
0.334283
9.6677
9.00307
8.33829
7.67331
7.00803
6.3424
5.67638
5.00993
4.34305
3.67574
3.00804
2.33998
1.67163
1.00307
0.334372
9.66782
9.00342
8.33887
7.67408
7.00896
6.34345
5.6775
5.01108
4.34417
3.67679
3.00897
2.34075
1.67221
1.00343
0.334493
9.66798
9.00388
8.33961
7.67507
7.01016
6.34481
5.67896
5.01257
4.34563
3.67816
3.01018
2.34175
1.67296
1.00389
0.334649
9.66817
9.00446
8.34054
7.67632
7.01167
6.34652
5.68079
5.01444
4.34746
3.67987
3.01169
2.34301
1.6739
1.00447
0.334845
9.66841
9.00517
8.34169
7.67786
7.01354
6.34862
5.68304
5.01675
4.34972
3.68198
3.01357
2.34456
1.67506
1.00519
0.335088
9.66871
9.00603
8.3431
7.67974
7.01581
6.35119
5.6858
5.01957
4.35248
3.68456
3.01585
2.34645
1.67647
1.00606
0.335383
9.66906
9.00708
8.3448
7.68201
7.01856
6.3543
5.68913
5.02298
4.35582
3.68768
3.01862
2.34874
1.67818
1.00712
0.335742
9.66949
9.00834
8.34684
7.68475
7.02187
6.35805
5.69314
5.02709
4.35985
3.69144
3.02196
2.3515
1.68025
1.0084
0.336174
9.67
9.00986
8.34929
7.68803
7.02584
6.36254
5.69796
5.03202
4.36468
3.69596
3.02596
2.35482
1.68273
1.00993
0.336693
9.67061
9.01167
8.35222
7.69195
7.03059
6.36791
5.70372
5.03792
4.37046
3.70137
3.03076
2.35879
1.6857
1.01177
0.337315
9.67134
9.01382
8.35571
7.69663
7.03626
6.37432
5.7106
5.04497
4.37737
3.70784
3.0365
2.36355
1.68926
1.01397
0.33806
9.67221
9.01639
8.35987
7.70221
7.04302
6.38197
5.71881
5.05338
4.38562
3.71557
3.04336
2.36923
1.69351
1.0166
0.33895
9.67324
9.01945
8.36483
7.70886
7.05107
6.39109
5.7286
5.06342
4.39547
3.72479
3.05155
2.37602
1.69859
1.01975
0.340015
9.67447
9.02309
8.37072
7.71676
7.06065
6.40194
5.74026
5.07538
4.40721
3.73579
3.06132
2.38412
1.70466
1.0235
0.341286
9.67593
9.02741
8.37772
7.72615
7.07204
6.41484
5.75413
5.08962
4.4212
3.74891
3.07298
2.3938
1.71191
1.02799
0.342806
9.67767
9.03254
8.38603
7.7373
7.08558
6.43019
5.77064
5.10659
4.43788
3.76456
3.0869
2.40536
1.72058
1.03336
0.344623
9.67972
9.03861
8.39589
7.75054
7.10165
6.44843
5.79028
5.12678
4.45775
3.78323
3.10352
2.41917
1.73093
1.03977
0.346796
9.68215
9.04581
8.40757
7.76623
7.12072
6.4701
5.81363
5.15082
4.48143
3.8055
3.12336
2.43567
1.74331
1.04745
0.349396
9.68503
9.05433
8.4214
7.78483
7.14334
6.49582
5.84139
5.17944
4.50965
3.83207
3.14707
2.4554
1.75813
1.05664
0.352511
9.68843
9.0644
8.43776
7.80684
7.17014
6.52634
5.87437
5.21348
4.54329
3.86378
3.17541
2.47902
1.77589
1.06766
0.356247
9.69244
9.07629
8.45708
7.83287
7.20187
6.56252
5.91354
5.254
4.58338
3.90166
3.20931
2.50731
1.79719
1.08089
0.360734
9.69717
9.0903
8.47987
7.8636
7.2394
6.60539
5.96004
5.30219
4.63119
3.94692
3.24989
2.54125
1.82277
1.0968
0.366133
9.70273
9.10679
8.50671
7.89985
7.28373
6.65615
6.01522
5.35953
4.68821
4.00104
3.29855
2.58202
1.85356
1.11597
0.372642
9.70925
9.12615
8.53826
7.94252
7.33603
6.71616
6.08064
5.42771
4.75623
4.0658
3.35693
2.63108
1.89069
1.13912
0.380508
9.71689
9.14882
8.57527
7.99266
7.39762
6.78703
6.15815
5.50877
4.83739
4.14337
3.42712
2.69024
1.93557
1.16716
0.390045
9.7258
9.17531
8.61855
8.05143
7.47001
6.8706
6.24988
5.60511
4.93427
4.23636
3.51162
2.76174
1.98999
1.20123
0.401651
9.73618
9.20616
8.66903
8.12012
7.55488
6.96895
6.35832
5.71955
5.04995
4.34799
3.61358
2.84841
2.05623
1.24283
0.415837
9.7482
9.24193
8.72769
8.20016
7.65411
7.08444
6.48631
5.85537
5.1881
4.48215
3.73688
2.95385
2.1372
1.29386
0.433274
9.76207
9.28324
8.79556
8.29305
7.76975
7.21969
6.63706
6.01643
5.35309
4.6436
3.88641
3.08262
2.2367
1.35685
0.454853
9.77798
9.33071
8.87372
8.40038
7.90396
7.37755
6.8142
6.20713
5.55013
4.83817
4.06828
3.24065
2.35977
1.43522
0.481784
9.79614
9.38493
8.96321
8.52374
8.05899
7.56105
7.02168
6.43249
5.78532
5.07295
4.29024
3.43566
2.51314
1.53364
0.51575
9.81671
9.44645
9.06503
8.66465
8.23705
7.7733
7.26375
6.69811
6.06578
5.35657
4.56209
3.67784
2.70607
1.65872
0.559167
9.83985
9.51572
9.17999
8.82446
8.44021
8.01734
7.54475
7.01003
6.3996
5.69938
4.89626
3.9808
2.95149
1.82003
0.615628
9.86563
9.59303
9.3087
9.0042
8.67017
8.29589
7.86888
7.3745
6.79576
6.11365
5.30843
4.36279
3.26783
2.032
0.690731
9.89408
9.67849
9.45141
9.20444
8.92807
8.61105
8.23978
7.79752
7.26367
6.61338
5.81808
4.84847
3.68199
2.31717
0.793741
9.92515
9.77193
9.60791
9.42508
9.21417
8.96386
8.65996
8.28412
7.81243
7.21378
6.44875
5.47083
4.23387
2.71248
0.941227
9.95866
9.87286
9.77745
9.66522
9.5276
9.35387
9.13005
8.83725
8.44933
7.92969
7.22723
6.27306
4.98325
3.28129
1.16593
9.99434
9.98045
9.95866
9.92296
9.86608
9.77864
9.64802
9.45639
9.17767
8.77253
8.18045
7.30834
6.0188
4.13717
1.54096
10.0318
10.0935
10.1495
10.1954
10.2257
10.2334
10.2083
10.136
9.99376
9.74512
9.3281
8.63345
7.46548
5.48924
2.25328
10.0705
10.2105
10.3474
10.4786
10.6011
10.7107
10.8014
10.864
10.8837
10.8346
10.6685
10.2872
9.47339
7.71609
3.84796
10.1099
10.3297
10.5491
10.7679
10.9855
11.2012
11.414
11.6219
11.8213
12.0052
12.1582
12.2412
12.1364
11.4087
8.10077
10.1495
10.4492
10.7514
11.0579
11.371
11.6937
12.0299
12.3855
12.7696
13.1973
13.6965
14.3255
15.232
16.8931
21.3074
10.1884
10.5669
10.9505
11.3433
11.7499
12.1767
12.6323
13.1294
13.6875
14.3396
15.1445
16.2171
17.8033
20.4653
25.4612
10.2262
10.681
11.1434
11.619
12.1148
12.6397
13.2059
13.8306
14.5401
15.3757
16.4064
17.7519
19.6275
22.4164
26.7354
0.465227
0.833766
0.994459
1.05412
1.05501
1.01789
0.954639
0.872694
0.777066
0.671293
0.55798
0.439119
0.316288
0.190793
0.0637646
0.249594
0.571387
0.75204
0.841166
0.870383
0.858783
0.818325
0.756886
0.679904
0.591293
0.493975
0.390209
0.281808
0.170284
0.0569578
0.157151
0.407015
0.573174
0.6698
0.714093
0.719704
0.696573
0.651862
0.59081
0.517333
0.434441
0.344514
0.249494
0.151025
0.0505597
0.109454
0.300766
0.442587
0.534771
0.584656
0.600574
0.589797
0.55818
0.510337
0.449905
0.379788
0.302351
0.219571
0.133151
0.044615
0.0809186
0.228882
0.346464
0.429108
0.478799
0.499977
0.497486
0.475759
0.4386
0.389197
0.330213
0.263895
0.192173
0.116744
0.0391519
0.062017
0.178094
0.274601
0.346325
0.392737
0.415812
0.418527
0.404048
0.37536
0.335137
0.285727
0.229189
0.167346
0.101839
0.0341824
0.0486404
0.140894
0.219943
0.281115
0.322876
0.345779
0.351503
0.342201
0.320127
0.287453
0.246187
0.198165
0.145062
0.0884247
0.0297042
0.0387541
0.112863
0.177698
0.229382
0.266108
0.287673
0.294909
0.289217
0.272252
0.245732
0.211336
0.170667
0.125231
0.0764559
0.0257035
0.0312277
0.0912718
0.144583
0.188032
0.219865
0.239514
0.24729
0.244059
0.231009
0.209475
0.18084
0.146476
0.107718
0.0658592
0.022157
0.0253755
0.0743549
0.118314
0.154748
0.182078
0.199599
0.20731
0.205718
0.195655
0.178148
0.15432
0.125334
0.0923557
0.0565422
0.0190351
0.0207532
0.0609235
0.0972692
0.127785
0.151102
0.166493
0.173789
0.173255
0.165468
0.151208
0.131381
0.106963
0.0789616
0.0484005
0.016304
0.0170585
0.0501473
0.0802715
0.10582
0.125628
0.139006
0.145702
0.145828
0.139775
0.128133
0.111629
0.0910778
0.0673445
0.0413245
0.013928
0.0140778
0.0414292
0.0664502
0.0878402
0.104618
0.116158
0.122177
0.122691
0.11796
0.108431
0.0946866
0.0774014
0.0573145
0.0352038
0.0118708
0.0116553
0.034329
0.0551496
0.073062
0.0872442
0.0971425
0.102472
0.103193
0.0994761
0.0916568
0.0802013
0.0656698
0.0486892
0.0299315
0.0100973
0.00967491
0.0285151
0.045868
0.0608733
0.0728441
0.0812985
0.0859663
0.0867776
0.0838393
0.0774062
0.0678512
0.0556381
0.0412973
0.0254064
0.00857405
0.00804832
0.0237337
0.0382161
0.050791
0.0608851
0.0680831
0.0721375
0.0729644
0.0706284
0.0653226
0.0573463
0.0470832
0.0349813
0.0215349
0.0072699
0.0067072
0.0197875
0.0318884
0.0424309
0.0509365
0.0570497
0.0605493
0.0613469
0.059479
0.0550926
0.0484287
0.0398048
0.0295984
0.0182315
0.0061565
0.00559802
0.016521
0.0266426
0.0354849
0.0426485
0.0478308
0.0508366
0.0515796
0.0500778
0.0464436
0.0408715
0.0336248
0.0250212
0.0154197
0.00520829
0.00467839
0.013811
0.0222847
0.0297043
0.0357359
0.0401228
0.0426947
0.0433706
0.0421568
0.0391396
0.0344768
0.0283867
0.0211365
0.0130313
0.0044025
0.00391438
0.0115583
0.0186585
0.0248871
0.029965
0.0336746
0.0358688
0.0364735
0.0354876
0.032978
0.029073
0.0239538
0.0178454
0.0110062
0.00371904
0.00327867
0.0096831
0.0156373
0.0208688
0.0251438
0.0282785
0.0301462
0.0306805
0.0298761
0.0277849
0.0245119
0.0202077
0.0150614
0.00929212
0.00314035
0.00274909
0.0081204
0.0131179
0.0175144
0.0211143
0.023762
0.0253491
0.0258169
0.0251577
0.0234123
0.0206666
0.0170462
0.01271
0.00784351
0.00265114
0.0023076
0.00681721
0.0110156
0.0147131
0.0177456
0.0199818
0.0213289
0.0217357
0.0211933
0.019734
0.0174284
0.0143814
0.0107267
0.0066211
0.00223822
0.00193938
0.00573008
0.00926099
0.0123735
0.0149296
0.0168187
0.0179614
0.0183134
0.0178654
0.0166431
0.014705
0.0121385
0.00905635
0.00559117
0.00189025
0.00163231
0.00482327
0.00779684
0.01042
0.0125768
0.0141736
0.015143
0.0154463
0.0150749
0.0140492
0.0124177
0.0102536
0.00765189
0.00472487
0.00159751
0.00137638
0.00406735
0.00657592
0.0087903
0.0106127
0.011964
0.0127868
0.0130477
0.0127386
0.0118759
0.0105
0.00867239
0.00647324
0.00399766
0.00135173
0.00116335
0.00343805
0.00555923
0.00743264
0.00897574
0.0101214
0.0108206
0.0110449
0.0107865
0.010059
0.00889587
0.00734912
0.00548649
0.00338869
0.00114589
0.00098642
0.00291533
0.00471452
0.00630428
0.00761463
0.00858852
0.00918422
0.009377
0.00916002
0.00854431
0.00755805
0.00624511
0.00466299
0.00288036
0.000974049
0.000839981
0.00248265
0.0040152
0.00536986
0.0064871
0.00731822
0.00782749
0.00799358