# vtk DataFile Version 2.0
generated by CFD-lab course output (written by Tobias Neckel) 
ASCII

DATASET STRUCTURED_GRID
DIMENSIONS  84 17 1 
POINTS 1428 float

0.000000 0.000000 0
0.100000 0.000000 0
0.200000 0.000000 0
0.300000 0.000000 0
0.400000 0.000000 0
0.500000 0.000000 0
0.600000 0.000000 0
0.700000 0.000000 0
0.800000 0.000000 0
0.900000 0.000000 0
1.000000 0.000000 0
1.100000 0.000000 0
1.200000 0.000000 0
1.300000 0.000000 0
1.400000 0.000000 0
1.500000 0.000000 0
1.600000 0.000000 0
1.700000 0.000000 0
1.800000 0.000000 0
1.900000 0.000000 0
2.000000 0.000000 0
2.100000 0.000000 0
2.200000 0.000000 0
2.300000 0.000000 0
2.400000 0.000000 0
2.500000 0.000000 0
2.600000 0.000000 0
2.700000 0.000000 0
2.800000 0.000000 0
2.900000 0.000000 0
3.000000 0.000000 0
3.100000 0.000000 0
3.200000 0.000000 0
3.300000 0.000000 0
3.400000 0.000000 0
3.500000 0.000000 0
3.600000 0.000000 0
3.700000 0.000000 0
3.800000 0.000000 0
3.900000 0.000000 0
4.000000 0.000000 0
4.100000 0.000000 0
4.200000 0.000000 0
4.300000 0.000000 0
4.400000 0.000000 0
4.500000 0.000000 0
4.600000 0.000000 0
4.700000 0.000000 0
4.800000 0.000000 0
4.900000 0.000000 0
5.000000 0.000000 0
5.100000 0.000000 0
5.200000 0.000000 0
5.300000 0.000000 0
5.400000 0.000000 0
5.500000 0.000000 0
5.600000 0.000000 0
5.700000 0.000000 0
5.800000 0.000000 0
5.900000 0.000000 0
6.000000 0.000000 0
6.100000 0.000000 0
6.200000 0.000000 0
6.300000 0.000000 0
6.400000 0.000000 0
6.500000 0.000000 0
6.600000 0.000000 0
6.700000 0.000000 0
6.800000 0.000000 0
6.900000 0.000000 0
7.000000 0.000000 0
7.100000 0.000000 0
7.200000 0.000000 0
7.300000 0.000000 0
7.400000 0.000000 0
7.500000 0.000000 0
7.600000 0.000000 0
7.700000 0.000000 0
7.800000 0.000000 0
7.900000 0.000000 0
8.000000 0.000000 0
8.100000 0.000000 0
8.200000 0.000000 0
8.300000 0.000000 0
0.000000 0.055556 0
0.100000 0.055556 0
0.200000 0.055556 0
0.300000 0.055556 0
0.400000 0.055556 0
0.500000 0.055556 0
0.600000 0.055556 0
0.700000 0.055556 0
0.800000 0.055556 0
0.900000 0.055556 0
1.000000 0.055556 0
1.100000 0.055556 0
1.200000 0.055556 0
1.300000 0.055556 0
1.400000 0.055556 0
1.500000 0.055556 0
1.600000 0.055556 0
1.700000 0.055556 0
1.800000 0.055556 0
1.900000 0.055556 0
2.000000 0.055556 0
2.100000 0.055556 0
2.200000 0.055556 0
2.300000 0.055556 0
2.400000 0.055556 0
2.500000 0.055556 0
2.600000 0.055556 0
2.700000 0.055556 0
2.800000 0.055556 0
2.900000 0.055556 0
3.000000 0.055556 0
3.100000 0.055556 0
3.200000 0.055556 0
3.300000 0.055556 0
3.400000 0.055556 0
3.500000 0.055556 0
3.600000 0.055556 0
3.700000 0.055556 0
3.800000 0.055556 0
3.900000 0.055556 0
4.000000 0.055556 0
4.100000 0.055556 0
4.200000 0.055556 0
4.300000 0.055556 0
4.400000 0.055556 0
4.500000 0.055556 0
4.600000 0.055556 0
4.700000 0.055556 0
4.800000 0.055556 0
4.900000 0.055556 0
5.000000 0.055556 0
5.100000 0.055556 0
5.200000 0.055556 0
5.300000 0.055556 0
5.400000 0.055556 0
5.500000 0.055556 0
5.600000 0.055556 0
5.700000 0.055556 0
5.800000 0.055556 0
5.900000 0.055556 0
6.000000 0.055556 0
6.100000 0.055556 0
6.200000 0.055556 0
6.300000 0.055556 0
6.400000 0.055556 0
6.500000 0.055556 0
6.600000 0.055556 0
6.700000 0.055556 0
6.800000 0.055556 0
6.900000 0.055556 0
7.000000 0.055556 0
7.100000 0.055556 0
7.200000 0.055556 0
7.300000 0.055556 0
7.400000 0.055556 0
7.500000 0.055556 0
7.600000 0.055556 0
7.700000 0.055556 0
7.800000 0.055556 0
7.900000 0.055556 0
8.000000 0.055556 0
8.100000 0.055556 0
8.200000 0.055556 0
8.300000 0.055556 0
0.000000 0.111111 0
0.100000 0.111111 0
0.200000 0.111111 0
0.300000 0.111111 0
0.400000 0.111111 0
0.500000 0.111111 0
0.600000 0.111111 0
0.700000 0.111111 0
0.800000 0.111111 0
0.900000 0.111111 0
1.000000 0.111111 0
1.100000 0.111111 0
1.200000 0.111111 0
1.300000 0.111111 0
1.400000 0.111111 0
1.500000 0.111111 0
1.600000 0.111111 0
1.700000 0.111111 0
1.800000 0.111111 0
1.900000 0.111111 0
2.000000 0.111111 0
2.100000 0.111111 0
2.200000 0.111111 0
2.300000 0.111111 0
2.400000 0.111111 0
2.500000 0.111111 0
2.600000 0.111111 0
2.700000 0.111111 0
2.800000 0.111111 0
2.900000 0.111111 0
3.000000 0.111111 0
3.100000 0.111111 0
3.200000 0.111111 0
3.300000 0.111111 0
3.400000 0.111111 0
3.500000 0.111111 0
3.600000 0.111111 0
3.700000 0.111111 0
3.800000 0.111111 0
3.900000 0.111111 0
4.000000 0.111111 0
4.100000 0.111111 0
4.200000 0.111111 0
4.300000 0.111111 0
4.400000 0.111111 0
4.500000 0.111111 0
4.600000 0.111111 0
4.700000 0.111111 0
4.800000 0.111111 0
4.900000 0.111111 0
5.000000 0.111111 0
5.100000 0.111111 0
5.200000 0.111111 0
5.300000 0.111111 0
5.400000 0.111111 0
5.500000 0.111111 0
5.600000 0.111111 0
5.700000 0.111111 0
5.800000 0.111111 0
5.900000 0.111111 0
6.000000 0.111111 0
6.100000 0.111111 0
6.200000 0.111111 0
6.300000 0.111111 0
6.400000 0.111111 0
6.500000 0.111111 0
6.600000 0.111111 0
6.700000 0.111111 0
6.800000 0.111111 0
6.900000 0.111111 0
7.000000 0.111111 0
7.100000 0.111111 0
7.200000 0.111111 0
7.300000 0.111111 0
7.400000 0.111111 0
7.500000 0.111111 0
7.600000 0.111111 0
7.700000 0.111111 0
7.800000 0.111111 0
7.900000 0.111111 0
8.000000 0.111111 0
8.100000 0.111111 0
8.200000 0.111111 0
8.300000 0.111111 0
0.000000 0.166667 0
0.100000 0.166667 0
0.200000 0.166667 0
0.300000 0.166667 0
0.400000 0.166667 0
0.500000 0.166667 0
0.600000 0.166667 0
0.700000 0.166667 0
0.800000 0.166667 0
0.900000 0.166667 0
1.000000 0.166667 0
1.100000 0.166667 0
1.200000 0.166667 0
1.300000 0.166667 0
1.400000 0.166667 0
1.500000 0.166667 0
1.600000 0.166667 0
1.700000 0.166667 0
1.800000 0.166667 0
1.900000 0.166667 0
2.000000 0.166667 0
2.100000 0.166667 0
2.200000 0.166667 0
2.300000 0.166667 0
2.400000 0.166667 0
2.500000 0.166667 0
2.600000 0.166667 0
2.700000 0.166667 0
2.800000 0.166667 0
2.900000 0.166667 0
3.000000 0.166667 0
3.100000 0.166667 0
3.200000 0.166667 0
3.300000 0.166667 0
3.400000 0.166667 0
3.500000 0.166667 0
3.600000 0.166667 0
3.700000 0.166667 0
3.800000 0.166667 0
3.900000 0.166667 0
4.000000 0.166667 0
4.100000 0.166667 0
4.200000 0.166667 0
4.300000 0.166667 0
4.400000 0.166667 0
4.500000 0.166667 0
4.600000 0.166667 0
4.700000 0.166667 0
4.800000 0.166667 0
4.900000 0.166667 0
5.000000 0.166667 0
5.100000 0.166667 0
5.200000 0.166667 0
5.300000 0.166667 0
5.400000 0.166667 0
5.500000 0.166667 0
5.600000 0.166667 0
5.700000 0.166667 0
5.800000 0.166667 0
5.900000 0.166667 0
6.000000 0.166667 0
6.100000 0.166667 0
6.200000 0.166667 0
6.300000 0.166667 0
6.400000 0.166667 0
6.500000 0.166667 0
6.600000 0.166667 0
6.700000 0.166667 0
6.800000 0.166667 0
6.900000 0.166667 0
7.000000 0.166667 0
7.100000 0.166667 0
7.200000 0.166667 0
7.300000 0.166667 0
7.400000 0.166667 0
7.500000 0.166667 0
7.600000 0.166667 0
7.700000 0.166667 0
7.800000 0.166667 0
7.900000 0.166667 0
8.000000 0.166667 0
8.100000 0.166667 0
8.200000 0.166667 0
8.300000 0.166667 0
0.000000 0.222222 0
0.100000 0.222222 0
0.200000 0.222222 0
0.300000 0.222222 0
0.400000 0.222222 0
0.500000 0.222222 0
0.600000 0.222222 0
0.700000 0.222222 0
0.800000 0.222222 0
0.900000 0.222222 0
1.000000 0.222222 0
1.100000 0.222222 0
1.200000 0.222222 0
1.300000 0.222222 0
1.400000 0.222222 0
1.500000 0.222222 0
1.600000 0.222222 0
1.700000 0.222222 0
1.800000 0.222222 0
1.900000 0.222222 0
2.000000 0.222222 0
2.100000 0.222222 0
2.200000 0.222222 0
2.300000 0.222222 0
2.400000 0.222222 0
2.500000 0.222222 0
2.600000 0.222222 0
2.700000 0.222222 0
2.800000 0.222222 0
2.900000 0.222222 0
3.000000 0.222222 0
3.100000 0.222222 0
3.200000 0.222222 0
3.300000 0.222222 0
3.400000 0.222222 0
3.500000 0.222222 0
3.600000 0.222222 0
3.700000 0.222222 0
3.800000 0.222222 0
3.900000 0.222222 0
4.000000 0.222222 0
4.100000 0.222222 0
4.200000 0.222222 0
4.300000 0.222222 0
4.400000 0.222222 0
4.500000 0.222222 0
4.600000 0.222222 0
4.700000 0.222222 0
4.800000 0.222222 0
4.900000 0.222222 0
5.000000 0.222222 0
5.100000 0.222222 0
5.200000 0.222222 0
5.300000 0.222222 0
5.400000 0.222222 0
5.500000 0.222222 0
5.600000 0.222222 0
5.700000 0.222222 0
5.800000 0.222222 0
5.900000 0.222222 0
6.000000 0.222222 0
6.100000 0.222222 0
6.200000 0.222222 0
6.300000 0.222222 0
6.400000 0.222222 0
6.500000 0.222222 0
6.600000 0.222222 0
6.700000 0.222222 0
6.800000 0.222222 0
6.900000 0.222222 0
7.000000 0.222222 0
7.100000 0.222222 0
7.200000 0.222222 0
7.300000 0.222222 0
7.400000 0.222222 0
7.500000 0.222222 0
7.600000 0.222222 0
7.700000 0.222222 0
7.800000 0.222222 0
7.900000 0.222222 0
8.000000 0.222222 0
8.100000 0.222222 0
8.200000 0.222222 0
8.300000 0.222222 0
0.000000 0.277778 0
0.100000 0.277778 0
0.200000 0.277778 0
0.300000 0.277778 0
0.400000 0.277778 0
0.500000 0.277778 0
0.600000 0.277778 0
0.700000 0.277778 0
0.800000 0.277778 0
0.900000 0.277778 0
1.000000 0.277778 0
1.100000 0.277778 0
1.200000 0.277778 0
1.300000 0.277778 0
1.400000 0.277778 0
1.500000 0.277778 0
1.600000 0.277778 0
1.700000 0.277778 0
1.800000 0.277778 0
1.900000 0.277778 0
2.000000 0.277778 0
2.100000 0.277778 0
2.200000 0.277778 0
2.300000 0.277778 0
2.400000 0.277778 0
2.500000 0.277778 0
2.600000 0.277778 0
2.700000 0.277778 0
2.800000 0.277778 0
2.900000 0.277778 0
3.000000 0.277778 0
3.100000 0.277778 0
3.200000 0.277778 0
3.300000 0.277778 0
3.400000 0.277778 0
3.500000 0.277778 0
3.600000 0.277778 0
3.700000 0.277778 0
3.800000 0.277778 0
3.900000 0.277778 0
4.000000 0.277778 0
4.100000 0.277778 0
4.200000 0.277778 0
4.300000 0.277778 0
4.400000 0.277778 0
4.500000 0.277778 0
4.600000 0.277778 0
4.700000 0.277778 0
4.800000 0.277778 0
4.900000 0.277778 0
5.000000 0.277778 0
5.100000 0.277778 0
5.200000 0.277778 0
5.300000 0.277778 0
5.400000 0.277778 0
5.500000 0.277778 0
5.600000 0.277778 0
5.700000 0.277778 0
5.800000 0.277778 0
5.900000 0.277778 0
6.000000 0.277778 0
6.100000 0.277778 0
6.200000 0.277778 0
6.300000 0.277778 0
6.400000 0.277778 0
6.500000 0.277778 0
6.600000 0.277778 0
6.700000 0.277778 0
6.800000 0.277778 0
6.900000 0.277778 0
7.000000 0.277778 0
[...]
POINT_DATA 1428 

VECTORS velocity float
0.000000 0.000000 0
-0.000000 0.000000 0
-0.000002 0.000000 0
-0.000003 0.000000 0
-0.000003 0.000000 0
-0.000002 0.000000 0
-0.000000 0.000000 0
0.000003 0.000000 0
0.000005 0.000000 0
0.000006 0.000000 0
0.000005 0.000000 0
0.000003 0.000000 0
0.000000 0.000000 0
-0.000003 0.000000 0
-0.000005 0.000000 0
-0.000006 0.000000 0
-0.000005 0.000000 0
-0.000004 0.000000 0
-0.000001 0.000000 0
0.000001 0.000000 0
0.000003 0.000000 0
0.000004 0.000000 0
0.000004 0.000000 0
0.000003 0.000000 0
0.000002 0.000000 0
-0.000000 0.000000 0
-0.000002 0.000000 0
-0.000003 0.000000 0
-0.000003 0.000000 0
-0.000002 0.000000 0
-0.000002 0.000000 0
-0.000000 0.000000 0
0.000001 0.000000 0
0.000001 0.000000 0
0.000002 0.000000 0
0.000001 0.000000 0
0.000001 0.000000 0
0.000000 0.000000 0
-0.000000 0.000000 0
-0.000000 0.000000 0
-0.000001 0.000000 0
-0.000001 0.000000 0
-0.000001 0.000000 0
-0.000000 0.000000 0
-0.000000 0.000000 0
0.000000 0.000000 0
0.000000 0.000000 0
0.000000 0.000000 0
0.000000 0.000000 0
0.000000 0.000000 0
0.000000 0.000000 0
-0.000000 0.000000 0
-0.000000 0.000000 0
-0.000000 0.000000 0
-0.000000 0.000000 0
-0.000000 0.000000 0
-0.000000 0.000000 0
-0.000000 0.000000 0
0.000000 0.000000 0
0.000000 0.000000 0
0.000000 0.000000 0
0.000000 0.000000 0
0.000000 0.000000 0
0.000000 0.000000 0
0.000000 0.000000 0
0.000000 0.000000 0
0.000000 0.000000 0
0.000000 0.000000 0
0.000000 0.000000 0
-0.000000 0.000000 0
-0.000000 0.000000 0
-0.000000 0.000000 0
-0.000000 0.000000 0
-0.000000 0.000000 0
-0.000000 0.000000 0
-0.000000 0.000000 0
0.000000 0.000000 0
0.000000 0.000000 0
0.000000 0.000000 0
0.000000 0.000000 0
0.000000 0.000000 0
0.000000 0.000000 0
0.000000 0.000000 0
0.000000 0.000000 0
0.000000 0.000000 0
-0.000001 0.000001 0
-0.000005 0.000001 0
-0.000009 0.000001 0
-0.000010 -0.000000 0
-0.000007 -0.000002 0
-0.000000 -0.000003 0
0.000008 -0.000003 0
0.000015 -0.000002 0
0.000018 -0.000000 0
0.000016 0.000001 0
0.000010 0.000003 0
0.000001 0.000003 0
-0.000008 0.000003 0
-0.000015 0.000002 0
-0.000018 0.000000 0
-0.000017 -0.000001 0
-0.000012 -0.000002 0
-0.000004 -0.000003 0
0.000004 -0.000003 0
0.000011 -0.000002 0
0.000014 -0.000001 0
0.000014 0.000001 0
0.000011 0.000001 0
0.000006 0.000002 0
0.000000 0.000002 0
-0.000005 0.000001 0
-0.000008 0.000001 0
-0.000009 -0.000000 0
-0.000008 -0.000001 0
-0.000005 -0.000001 0
-0.000002 -0.000001 0
0.000002 -0.000001 0
0.000004 -0.000001 0
0.000005 -0.000000 0
0.000005 0.000000 0
0.000003 0.000001 0
0.000002 0.000001 0
-0.000000 0.000001 0
-0.000002 0.000000 0
-0.000002 0.000000 0
-0.000002 -0.000000 0
-0.000002 -0.000000 0
-0.000001 -0.000000 0
-0.000000 -0.000000 0
0.000001 -0.000000 0
0.000001 -0.000000 0
0.000001 0.000000 0
0.000001 0.000000 0
0.000001 0.000000 0
0.000000 0.000000 0
-0.000000 0.000000 0
-0.000000 0.000000 0
-0.000000 0.000000 0
-0.000000 -0.000000 0
-0.000000 -0.000000 0
-0.000000 -0.000000 0
-0.000000 -0.000000 0
0.000000 -0.000000 0
0.000000 -0.000000 0
0.000000 0.000000 0
0.000000 0.000000 0
0.000000 0.000000 0
0.000000 0.000000 0
0.000000 0.000000 0
0.000000 -0.000000 0
0.000000 -0.000000 0
0.000000 0.000000 0
0.000000 0.000000 0
-0.000000 0.000000 0
-0.000000 0.000000 0
-0.000000 0.000000 0
-0.000000 0.000000 0
-0.000000 -0.000000 0
-0.000000 -0.000000 0
-0.000000 -0.000000 0
0.000000 -0.000000 0
0.000000 -0.000000 0
0.000000 -0.000000 0
0.000000 0.000000 0
0.000000 0.000000 0
0.000000 0.000000 0
0.000000 0.000000 0
0.000000 0.000000 0
0.000000 0.000001 0
-0.000003 0.000003 0
-0.000008 0.000004 0
-0.000014 0.000003 0
-0.000015 -0.000001 0
-0.000010 -0.000006 0
0.000001 -0.000008 0
0.000013 -0.000008 0
0.000024 -0.000006 0
0.000028 -0.000001 0
0.000025 0.000005 0
0.000015 0.000009 0
0.000001 0.000010 0
-0.000013 0.000009 0
-0.000024 0.000006 0
-0.000028 0.000001 0
-0.000026 -0.000004 0
-0.000018 -0.000007 0
-0.000006 -0.000009 0
0.000006 -0.000008 0
0.000016 -0.000005 0
0.000021 -0.000002 0
0.000021 0.000002 0
0.000017 0.000005 0
0.000009 0.000006 0
0.000000 0.000006 0
-0.000007 0.000004 0
-0.000012 0.000002 0
-0.000014 -0.000000 0
-0.000012 -0.000002 0
-0.000008 -0.000003 0
-0.000003 -0.000004 0
0.000002 -0.000003 0
0.000006 -0.000002 0
0.000008 -0.000000 0
0.000007 0.000001 0
0.000005 0.000002 0
0.000003 0.000002 0
-0.000000 0.000002 0
-0.000002 0.000001 0
-0.000004 0.000001 0
-0.000004 -0.000000 0
-0.000003 -0.000001 0
-0.000002 -0.000001 0
-0.000000 -0.000001 0
0.000001 -0.000001 0
0.000001 -0.000000 0
0.000002 0.000000 0
0.000002 0.000000 0
0.000001 0.000000 0
0.000000 0.000000 0
-0.000000 0.000000 0
-0.000000 0.000000 0
-0.000001 0.000000 0
-0.000001 -0.000000 0
-0.000001 -0.000000 0
-0.000000 -0.000000 0
-0.000000 -0.000000 0
0.000000 -0.000000 0
0.000000 -0.000000 0
0.000000 0.000000 0
0.000000 0.000000 0
0.000000 0.000000 0
0.000000 0.000000 0
0.000000 0.000000 0
0.000000 -0.000000 0
0.000000 -0.000000 0
0.000000 0.000000 0
0.000000 0.000000 0
-0.000000 0.000000 0
-0.000000 0.000000 0
-0.000000 0.000000 0
-0.000000 0.000000 0
-0.000000 -0.000000 0
-0.000000 -0.000000 0
-0.000000 -0.000000 0
0.000000 -0.000000 0
0.000000 -0.000000 0
0.000000 -0.000000 0
0.000000 0.000000 0
0.000000 0.000000 0
0.000000 0.000000 0
0.000000 0.000000 0
0.000000 0.000000 0
0.000000 0.000002 0
-0.000003 0.000006 0
-0.000009 0.000007 0
-0.000015 0.000004 0
-0.000016 -0.000002 0
-0.000010 -0.000010 0
0.000001 -0.000015 0
0.000015 -0.000015 0
0.000026 -0.000010 0
0.000031 -0.000001 0
0.000028 0.000009 0
0.000017 0.000016 0
0.000001 0.000019 0
-0.000014 0.000017 0
-0.000027 0.000010 0
-0.000032 0.000002 0
-0.000029 -0.000007 0
-0.000020 -0.000013 0
-0.000007 -0.000016 0
0.000007 -0.000015 0
0.000018 -0.000010 0
0.000024 -0.000003 0
0.000024 0.000003 0
0.000019 0.000008 0
0.000010 0.000011 0
0.000001 0.000011 0
-0.000008 0.000008 0
-0.000014 0.000004 0
-0.000015 -0.000000 0
-0.000014 -0.000004 0
-0.000009 -0.000006 0
-0.000003 -0.000007 0
0.000003 -0.000006 0
0.000007 -0.000003 0
0.000009 -0.000001 0
0.000008 0.000002 0
0.000006 0.000003 0
0.000003 0.000004 0
0.000000 0.000003 0
-0.000002 0.000002 0
-0.000004 0.000001 0
-0.000004 -0.000000 0
-0.000004 -0.000001 0
-0.000002 -0.000002 0
-0.000001 -0.000002 0
0.000001 -0.000001 0
0.000002 -0.000001 0
0.000002 -0.000000 0
0.000002 0.000000 0
0.000001 0.000001 0
0.000001 0.000001 0
-0.000000 0.000001 0
-0.000001 0.000000 0
-0.000001 0.000000 0
-0.000001 -0.000000 0
-0.000001 -0.000000 0
-0.000000 -0.000000 0
-0.000000 -0.000000 0
0.000000 -0.000000 0
0.000000 -0.000000 0
0.000000 0.000000 0
0.000000 0.000000 0
0.000000 0.000000 0
0.000000 0.000000 0
0.000000 0.000000 0
0.000000 -0.000000 0
0.000000 -0.000000 0
0.000000 0.000000 0
0.000000 0.000000 0
-0.000000 0.000000 0
-0.000000 0.000000 0
-0.000000 0.000000 0
-0.000000 0.000000 0
-0.000000 -0.000000 0
-0.000000 -0.000000 0
-0.000000 -0.000000 0
0.000000 -0.000000 0
0.000000 -0.000000 0
0.000000 -0.000000 0
0.000000 0.000000 0
0.000000 0.000000 0
0.000000 0.000000 0
0.000000 0.000000 0
0.000000 0.000000 0
0.000000 0.000003 0
-0.000003 0.000008 0
-0.000009 0.000011 0
-0.000014 0.000006 0
-0.000015 -0.000004 0
-0.000009 -0.000015 0
0.000002 -0.000022 0
0.000015 -0.000022 0
0.000026 -0.000015 0
0.000030 -0.000001 0
0.000027 0.000013 0
0.000016 0.000023 0
0.000001 0.000028 0
-0.000014 0.000024 0
-0.000026 0.000015 0
-0.000031 0.000003 0
-0.000028 -0.000010 0
-0.000020 -0.000020 0
-0.000007 -0.000024 0
0.000006 -0.000022 0
0.000017 -0.000015 0
0.000023 -0.000005 0
0.000023 0.000005 0
0.000018 0.000012 0
0.000010 0.000016 0
0.000001 0.000016 0
-0.000008 0.000012 0
-0.000013 0.000006 0
-0.000015 -0.000000 0
-0.000013 -0.000006 0
-0.000009 -0.000009 0
-0.000003 -0.000010 0
0.000002 -0.000009 0
0.000006 -0.000005 0
0.000008 -0.000001 0
0.000008 0.000002 0
0.000006 0.000005 0
0.000003 0.000005 0
0.000000 0.000005 0
-0.000002 0.000003 0
-0.000004 0.000001 0
-0.000004 -0.000000 0
-0.000003 -0.000002 0
-0.000002 -0.000003 0
-0.000001 -0.000003 0
0.000001 -0.000002 0
0.000002 -0.000001 0
0.000002 -0.000000 0
0.000002 0.000001 0
0.000001 0.000001 0
0.000001 0.000001 0
-0.000000 0.000001 0
-0.000000 0.000001 0
-0.000001 0.000000 0
-0.000001 -0.000000 0
-0.000001 -0.000000 0
-0.000000 -0.000000 0
-0.000000 -0.000000 0
0.000000 -0.000000 0
0.000000 -0.000000 0
0.000000 0.000000 0
0.000000 0.000000 0
0.000000 0.000000 0
0.000000 0.000000 0
0.000000 0.000000 0
0.000000 -0.000000 0
0.000000 -0.000000 0
0.000000 0.000000 0
0.000000 0.000000 0
-0.000000 0.000000 0
-0.000000 0.000000 0
-0.000000 0.000000 0
-0.000000 0.000000 0
-0.000000 -0.000000 0
-0.000000 -0.000000 0
-0.000000 -0.000000 0
0.000000 -0.000000 0
0.000000 -0.000000 0
0.000000 -0.000000 0
0.000000 0.000000 0
0.000000 0.000000 0
0.000000 0.000000 0
0.000000 0.000000 0
0.000000 0.000000 0
0.000000 0.000003 0
-0.000003 0.000011 0
-0.000008 0.000014 0
-0.000012 0.000007 0
-0.000012 -0.000005 0
-0.000007 -0.000019 0
0.000002 -0.000029 0
0.000013 -0.000029 0
0.000022 -0.000019 0
0.000025 -0.000002 0
0.000023 0.000016 0
0.000014 0.000030 0
0.000001 0.000036 0
-0.000012 0.000032 0
-0.000022 0.000020 0
-0.000026 0.000003 0
-0.000024 -0.000013 0
-0.000017 -0.000025 0
-0.000006 -0.000030 0
0.000005 -0.000028 0
0.000014 -0.000019 0
0.000019 -0.000007 0
0.000019 0.000006 0
0.000015 0.000015 0
0.000009 0.000021 0
0.000001 0.000021 0
-0.000006 0.000016 0
-0.000011 0.000008 0
-0.000013 -0.000000 0
-0.000011 -0.000007 0
-0.000008 -0.000012 0
-0.000003 -0.000013 0
0.000002 -0.000011 0
0.000005 -0.000007 0
0.000007 -0.000002 0
0.000007 0.000003 0
0.000005 0.000006 0
0.000003 0.000007 0
0.000000 0.000006 0
-0.000002 0.000004 0
-0.000003 0.000002 0
-0.000003 -0.000001 0
-0.000003 -0.000002 0
-0.000002 -0.000003 0
-0.000001 -0.000003 0
0.000001 -0.000003 0
0.000001 -0.000001 0
0.000002 -0.000000 0
0.000001 0.000001 0
0.000001 0.000001 0
0.000000 0.000001 0
-0.000000 0.000001 0
-0.000000 0.000001 0
-0.000001 0.000000 0
-0.000001 -0.000000 0
-0.000000 -0.000000 0
-0.000000 -0.000001 0
-0.000000 -0.000000 0
0.000000 -0.000000 0
0.000000 -0.000000 0
0.000000 0.000000 0
0.000000 0.000000 0
0.000000 0.000000 0
0.000000 0.000000 0
0.000000 0.000000 0
0.000000 -0.000000 0
0.000000 -0.000000 0
0.000000 0.000000 0
0.000000 0.000000 0
-0.000000 0.000000 0
-0.000000 0.000000 0
-0.000000 0.000000 0
-0.000000 0.000000 0
-0.000000 -0.000000 0
-0.000000 -0.000000 0
-0.000000 -0.000000 0
0.000000 -0.000000 0
0.000000 -0.000000 0
0.000000 -0.000000 0
0.000000 0.000000 0
0.000000 0.000000 0
0.000000 0.000000 0
0.000000 0.000000 0
0.000000 0.000000 0
0.000000 0.000004 0
-0.000002 0.000012 0
-0.000005 0.000016 0
-0.000008 0.000008 0
-0.000008 -0.000006 0
-0.000005 -0.000023 0
0.000002 -0.000033 0
0.000009 -0.000033 0
0.000016 -0.000022 0
0.000018 -0.000002 0
0.000016 0.000019 0
0.000010 0.000035 0
0.000001 0.000042 0
-0.000009 0.000037 0
-0.000016 0.000023 0
-0.000019 0.000004 0
-0.000017 -0.000015 0
-0.000012 -0.000030 0
-0.000005 -0.000036 0
0.000003 -0.000033 0
0.000010 -0.000023 0
0.000013 -0.000008 0
0.000014 0.000006 0
0.000011 0.000018 0
0.000006 0.000024 0
0.000000 0.000024 0
-0.000005 0.000019 0
-0.000008 0.000010 0
-0.000009 -0.000000 0
-0.000008 -0.000009 0
-0.000006 -0.000014 0
-0.000002 -0.000015 0
0.000001 -0.000013 0
0.000004 -0.000008 0
0.000005 -0.000002 0
0.000005 0.000003 0
0.000004 0.000007 0
0.000002 0.000008 0
0.000000 0.000007 0
-0.000001 0.000005 0
-0.000002 0.000002 0
-0.000002 -0.000001 0
-0.000002 -0.000003 0
-0.000001 -0.000004 0
-0.000000 -0.000004 0
0.000000 -0.000003 0
0.000001 -0.000002 0
0.000001 -0.000000 0
0.000001 0.000001 0
0.000001 0.000002 0
0.000000 0.000002 0
-0.000000 0.000001 0
-0.000000 0.000001 0
-0.000000 0.000000 0
-0.000000 -0.000000 0
-0.000000 -0.000001 0
-0.000000 -0.000001 0
-0.000000 -0.000001 0
0.000000 -0.000000 0
0.000000 -0.000000 0
0.000000 0.000000 0
0.000000 0.000000 0
0.000000 0.000000 0
0.000000 0.000000 0
0.000000 0.000000 0
0.000000 -0.000000 0
0.000000 -0.000000 0
0.000000 0.000000 0
0.000000 0.000000 0
-0.000000 0.000000 0
-0.000000 0.000000 0
-0.000000 0.000000 0
-0.000000 0.000000 0
-0.000000 -0.000000 0
-0.000000 -0.000000 0
-0.000000 -0.000000 0
0.000000 -0.000000 0
0.000000 -0.000000 0
0.000000 -0.000000 0
0.000000 0.000000 0
0.000000 0.000000 0
0.000000 0.000000 0
0.000000 0.000000 0
0.000000 0.000000 0
0.000000 0.000005 0
-0.000001 0.000014 0
-0.000003 0.000017 0
-0.000004 0.000009 0
-0.000004 -0.000007 0
-0.000002 -0.000025 0
0.000001 -0.000036 0
0.000005 -0.000036 0
0.000008 -0.000023 0
0.000010 -0.000002 0
0.000009 0.000021 0
0.000005 0.000039 0
0.000000 0.000046 0
-0.000005 0.000041 0
-0.000008 0.000025 0
-0.000010 0.000004 0
-0.000009 -0.000017 0
-0.000006 -0.000032 0
-0.000003 -0.000039 0
0.000002 -0.000036 0
0.000005 -0.000025 0
0.000007 -0.000009 0
0.000007 0.000007 0
0.000006 0.000020 0
0.000003 0.000027 0
0.000000 0.000027 0
-0.000003 0.000021 0
-0.000004 0.000011 0
-0.000005 -0.000000 0
-0.000004 -0.000009 0
-0.000003 -0.000015 0
-0.000001 -0.000017 0
0.000000 -0.000014 0
0.000002 -0.000009 0
0.000002 -0.000002 0
0.000002 0.000003 0
0.000002 0.000007 0
0.000001 0.000009 0
0.000000 0.000008 0
-0.000001 0.000006 0
-0.000001 0.000003 0
-0.000001 -0.000001 0
-0.000001 -0.000003 0
-0.000001 -0.000004 0
-0.000000 -0.000004 0
0.000000 -0.000003 0
0.000000 -0.000002 0
0.000001 -0.000000 0
0.000001 0.000001 0
0.000000 0.000002 0
0.000000 0.000002 0
-0.000000 0.000002 0
-0.000000 0.000001 0
-0.000000 0.000000 0
-0.000000 -0.000000 0
-0.000000 -0.000001 0
-0.000000 -0.000001 0
-0.000000 -0.000001 0
0.000000 -0.000000 0
0.000000 -0.000000 0
0.000000 0.000000 0
0.000000 0.000000 0
0.000000 0.000000 0
0.000000 0.000000 0
0.000000 0.000000 0
0.000000 -0.000000 0
0.000000 -0.000000 0
0.000000 0.000000 0
0.000000 0.000000 0
-0.000000 0.000000 0
-0.000000 0.000000 0
-0.000000 0.000000 0
-0.000000 0.000000 0
-0.000000 -0.000000 0
-0.000000 -0.000000 0
-0.000000 -0.000000 0
0.000000 -0.000000 0
0.000000 -0.000000 0
0.000000 -0.000000 0
0.000000 0.000000 0
0.000000 0.000000 0
0.000000 0.000000 0
0.000000 0.000000 0
0.000000 0.000000 0
0.000000 0.000005 0
0.000000 0.000014 0
0.000000 0.000017 0
0.000000 0.000009 0
0.000000 -0.000008 0
0.000001 -0.000026 0
0.000000 -0.000037 0
0.000000 -0.000037 0
0.000000 -0.000024 0
0.000000 -0.000002 0
0.000000 0.000022 0
0.000000 0.000040 0
-0.000000 0.000047 0
-0.000000 0.000042 0
-0.000000 0.000026 0
-0.000000 0.000004 0
-0.000000 -0.000017 0
-0.000000 -0.000033 0
-0.000000 -0.000040 0
-0.000000 -0.000037 0
-0.000000 -0.000026 0
-0.000000 -0.000010 0
-0.000000 0.000007 0
-0.000000 0.000020 0
-0.000000 0.000027 0
-0.000000 0.000027 0
-0.000000 0.000021 0
-0.000000 0.000011 0
-0.000000 -0.000000 0
-0.000000 -0.000010 0
-0.000000 -0.000016 0
-0.000000 -0.000017 0
-0.000000 -0.000015 0
-0.000000 -0.000009 0
-0.000000 -0.000003 0
-0.000000 0.000003 0
-0.000000 0.000008 0
-0.000000 0.000009 0
-0.000000 0.000008 0
-0.000000 0.000006 0
-0.000000 0.000003 0
-0.000000 -0.000001 0
-0.000000 -0.000003 0
-0.000000 -0.000004 0
-0.000000 -0.000004 0
-0.000000 -0.000003 0
-0.000000 -0.000002 0
-0.000000 -0.000000 0
-0.000000 0.000001 0
0.000000 0.000002 0
-0.000000 0.000002 0
-0.000000 0.000002 0
-0.000000 0.000001 0
-0.000000 0.000000 0
-0.000000 -0.000000 0
-0.000000 -0.000001 0
-0.000000 -0.000001 0
-0.000000 -0.000001 0
-0.000000 -0.000000 0
-0.000000 -0.000000 0
-0.000000 0.000000 0
-0.000000 0.000000 0
-0.000000 0.000000 0
-0.000000 0.000000 0
-0.000000 0.000000 0
0.000000 -0.000000 0
0.000000 -0.000000 0
0.000000 0.000000 0
0.000000 0.000000 0
0.000000 0.000000 0
-0.000000 0.000000 0
-0.000000 0.000000 0
-0.000000 0.000000 0
0.000000 -0.000000 0
0.000000 -0.000000 0
0.000000 -0.000000 0
-0.000000 -0.000000 0
-0.000000 -0.000000 0
-0.000000 -0.000000 0
-0.000000 0.000000 0
0.000000 0.000000 0
0.000000 0.000000 0
-0.000000 0.000000 0
0.000000 0.000000 0
0.000000 0.000004 0
0.000001 0.000013 0
0.000003 0.000017 0
0.000005 0.000009 0
0.000005 -0.000007 0
0.000003 -0.000025 0
-0.000000 -0.000036 0
-0.000004 -0.000036 0
-0.000008 -0.000023 0
-0.000009 -0.000002 0
-0.000008 0.000021 0
-0.000005 0.000039 0
-0.000000 0.000046 0
0.000004 0.000041 0
0.000008 0.000025 0
0.000009 0.000004 0
0.000009 -0.000017 0
0.000006 -0.000032 0
0.000002 -0.000039 0
-0.000002 -0.000036 0
-0.000005 -0.000025 0
-0.000007 -0.000009 0
-0.000007 0.000007 0
-0.000006 0.000020 0
-0.000003 0.000027 0
-0.000000 0.000027 0
0.000002 0.000021 0
0.000004 0.000011 0
0.000005 -0.000000 0
0.000004 -0.000009 0
0.000003 -0.000015 0
0.000001 -0.000017 0
-0.000001 -0.000014 0
-0.000002 -0.000009 0
-0.000003 -0.000003 0
-0.000003 0.000003 0
-0.000002 0.000007 0
-0.000001 0.000009 0
-0.000000 0.000008 0
0.000001 0.000006 0
0.000001 0.000003 0
0.000001 -0.000001 0
0.000001 -0.000003 0
0.000001 -0.000004 0
0.000000 -0.000004 0
-0.000000 -0.000003 0
-0.000000 -0.000002 0
-0.000001 -0.000000 0
-0.000001 0.000001 0
-0.000000 0.000002 0
-0.000000 0.000002 0
-0.000000 0.000002 0
0.000000 0.000001 0
0.000000 0.000000 0
0.000000 -0.000000 0
0.000000 -0.000001 0
0.000000 -0.000001 0
0.000000 -0.000001 0
-0.000000 -0.000000 0
-0.000000 -0.000000 0
-0.000000 0.000000 0
-0.000000 0.000000 0
-0.000000 0.000000 0
-0.000000 0.000000 0
-0.000000 0.000000 0
-0.000000 -0.000000 0
-0.000000 -0.000000 0
-0.000000 0.000000 0
-0.000000 0.000000 0
0.000000 0.000000 0
0.000000 0.000000 0
0.000000 0.000000 0
0.000000 0.000000 0
0.000000 -0.000000 0
0.000000 -0.000000 0
0.000000 -0.000000 0
-0.000000 -0.000000 0
-0.000000 -0.000000 0
-0.000000 -0.000000 0
-0.000000 0.000000 0
-0.000000 0.000000 0
-0.000000 0.000000 0
-0.000000 0.000000 0
0.000000 0.000000 0
0.000000 0.000004 0
0.000002 0.000012 0
0.000006 0.000015 0
0.000008 0.000008 0
0.000009 -0.000007 0
0.000005 -0.000023 0
-0.000001 -0.000033 0
-0.000009 -0.000033 0
-0.000015 -0.000021 0
-0.000018 -0.000002 0
-0.000016 0.000019 0
-0.000010 0.000036 0
-0.000001 0.000042 0
0.000008 0.000037 0
0.000015 0.000023 0
0.000018 0.000004 0
0.000017 -0.000015 0
0.000012 -0.000030 0
0.000004 -0.000036 0
-0.000004 -0.000033 0
-0.000010 -0.000023 0
-0.000014 -0.000008 0
-0.000014 0.000006 0
-0.000011 0.000018 0
-0.000006 0.000024 0
-0.000001 0.000024 0
0.000004 0.000019 0
0.000008 0.000010 0
0.000009 -0.000000 0
0.000008 -0.000009 0
0.000005 -0.000014 0
0.000002 -0.000015 0
-0.000001 -0.000013 0
-0.000004 -0.000008 0
-0.000005 -0.000002 0
-0.000005 0.000003 0
-0.000004 0.000007 0
-0.000002 0.000008 0
-0.000000 0.000008 0
0.000001 0.000005 0
0.000002 0.000002 0
0.000002 -0.000001 0
0.000002 -0.000003 0
0.000001 -0.000004 0
0.000000 -0.000004 0
-0.000000 -0.000003 0
-0.000001 -0.000002 0
-0.000001 -0.000000 0
-0.000001 0.000001 0
-0.000001 0.000002 0
-0.000000 0.000002 0
0.000000 0.000001 0
0.000000 0.000001 0
0.000000 0.000000 0
0.000000 -0.000000 0
0.000000 -0.000001 0
0.000000 -0.000001 0
0.000000 -0.000001 0
-0.000000 -0.000000 0
-0.000000 -0.000000 0
-0.000000 0.000000 0
-0.000000 0.000000 0
-0.000000 0.000000 0
-0.000000 0.000000 0
-0.000000 0.000000 0
-0.000000 -0.000000 0
-0.000000 -0.000000 0
-0.000000 0.000000 0
-0.000000 0.000000 0
0.000000 0.000000 0
0.000000 0.000000 0
0.000000 0.000000 0
0.000000 0.000000 0
0.000000 -0.000000 0
0.000000 -0.000000 0
0.000000 -0.000000 0
-0.000000 -0.000000 0
-0.000000 -0.000000 0
-0.000000 -0.000000 0
-0.000000 0.000000 0
-0.000000 0.000000 0
-0.000000 0.000000 0
-0.000000 0.000000 0
0.000000 0.000000 0
0.000000 0.000003 0
0.000003 0.000010 0
0.000008 0.000013 0
0.000012 0.000007 0
0.000012 -0.000006 0
0.000007 -0.000019 0
-0.000002 -0.000028 0
-0.000013 -0.000028 0
-0.000022 -0.000018 0
-0.000025 -0.000002 0
-0.000022 0.000016 0
-0.000014 0.000030 0
-0.000001 0.000036 0
0.000012 0.000032 0
0.000021 0.000020 0
0.000026 0.000003 0
0.000024 -0.000013 0
0.000017 -0.000025 0
0.000006 -0.000030 0
-0.000005 -0.000028 0
-0.000014 -0.000019 0
-0.000019 -0.000007 0
-0.000019 0.000005 0
-0.000015 0.000015 0
-0.000009 0.000021 0
-0.000001 0.000021 0
0.000006 0.000016 0
0.000011 0.000008 0
0.000013 -0.000000 0
0.000011 -0.000008 0