/*--------------------------------*- C++ -*----------------------------------*\
| =========                 |                                                 |
| \\      /  F ield         | OpenFOAM: The Open Source CFD Toolbox           |
|  \\    /   O peration     | Version:  5.x                                   |
|   \\  /    A nd           | Web:      www.OpenFOAM.org                      |
|    \\/     M anipulation  |                                                 |
\*---------------------------------------------------------------------------*/
FoamFile
{
    version     2.0;
    format      ascii;
    class       volScalarField;
    location    "2.6";
    object      T;
}
// * * * * * * * * * * * * * * * * * * * * * * * * * * * * * * * * * * * * * //

dimensions      [0 0 0 1 0 0 0];

internalField   nonuniform List<scalar> 
6300
(
11.1015
13.3095
15.5321
17.7787
20.058
22.3778
24.7446
27.1633
29.6368
32.1652
34.7459
37.3732
40.0379
42.7278
45.4279
11.0966
13.2948
15.508
17.7458
20.0172
22.3304
24.6923
27.1082
29.5813
32.1123
34.6987
37.3351
40.012
42.7169
45.434
11.0866
13.265
15.4591
17.679
19.9344
22.234
24.5856
26.9954
29.4674
32.0032
34.6011
37.2557
39.9575
42.693
45.4452
11.0713
13.2194
15.3843
17.5766
19.807
22.0853
24.4204
26.8199
29.2893
31.8316
34.4462
37.1283
39.8684
42.6517
45.4588
11.0504
13.1571
15.2817
17.436
19.6314
21.8794
24.1904
26.574
29.0378
31.587
34.2231
36.9424
39.7354
42.5858
45.4709
11.0235
13.0769
15.1494
17.2538
19.4031
21.6101
23.8874
26.2473
28.7004
31.2551
33.916
36.682
39.5442
42.4846
45.4756
10.9903
12.9775
14.985
17.0267
19.1168
21.27
23.5016
25.8269
28.2608
30.8165
33.5033
36.3247
39.274
42.3318
45.4641
10.9502
12.8577
14.7864
16.7509
18.767
20.8512
23.0217
25.2975
27.699
30.2459
32.9555
35.8387
38.8945
42.1037
45.4241
10.9032
12.7166
14.5516
16.4235
18.3488
20.346
22.4359
24.6421
26.9913
29.5121
32.2334
35.1793
38.3607
41.7636
45.3364
10.8489
12.5538
14.2799
16.0424
17.8585
19.7477
21.7333
23.8433
26.1113
28.5772
31.2861
34.2836
37.6046
41.2528
45.1707
10.7877
12.3697
13.9715
15.6077
17.2948
19.0527
20.906
22.886
25.0329
27.3988
30.0496
33.0635
36.5206
40.4711
44.8733
10.72
12.1657
13.6286
15.1217
16.66
18.262
19.9518
21.7613
23.7349
25.9349
28.4492
31.3996
34.9421
39.2368
44.336
10.6466
11.9443
13.2555
14.5904
15.9612
17.3833
18.8773
20.4721
22.2101
24.1561
26.4122
29.1429
32.6103
37.1969
43.2972
10.5688
11.7093
12.8585
14.0231
15.211
16.4325
17.7018
19.0394
20.4769
22.0666
23.8998
26.1488
29.1587
33.6421
40.9661
10.4881
11.4655
12.446
13.4322
14.4268
15.4336
16.4576
17.5062
18.5912
19.733
20.971
22.3931
24.2326
27.2456
34.3799
47.8965
50.1243
52.3248
54.4877
56.603
58.6618
60.6562
62.5795
64.4259
66.1912
67.8717
69.4651
70.9694
72.3836
73.7072
74.94
76.0822
77.1345
78.0978
78.9729
79.7613
80.4644
81.0837
81.6208
82.0776
82.4559
82.7577
82.9847
83.1389
83.2222
83.2366
83.1839
83.0659
82.8843
82.6409
82.3374
81.9753
81.5564
81.082
80.5537
79.9731
79.3416
78.6606
77.9316
77.1559
76.335
75.4701
74.5624
73.6131
72.6232
71.5938
70.5258
69.42
68.2775
67.0991
65.8856
64.638
63.3573
62.0444
60.7005
59.3265
57.9236
56.493
55.0357
53.5531
52.0463
50.5168
48.9661
47.3958
45.808
44.2048
42.5887
40.9624
39.3293
37.6926
36.0562
34.424
32.8003
31.1893
29.5956
28.0235
26.4776
24.962
23.4808
22.0379
20.6367
19.28
17.9703
16.7094
15.4982
47.9194
50.1626
52.3782
54.5552
56.6835
58.7537
60.7578
62.6891
64.5421
66.3123
67.9965
69.5924
71.0984
72.5134
73.8372
75.0696
76.2111
77.2623
78.224
79.0974
79.8838
80.5846
81.2015
81.7361
82.1903
82.566
82.8649
83.0892
83.2407
83.3213
83.3331
83.2777
83.1572
82.9731
82.7273
82.4215
82.0572
81.636
81.1594
80.629
80.0462
79.4126
78.7296
77.9985
77.221
76.3982
75.5315
74.6222
73.6713
72.68
71.6492
70.5798
69.4728
68.329
67.1493
65.9345
64.6855
63.4033
62.089
60.7435
59.3679
57.9634
56.5311
55.0721
53.5876
52.0788
50.5471
48.9939
47.4209
45.8299
44.2231
42.603
40.9722
39.3341
37.6921
36.0499
34.4117
32.7817
31.1643
29.5642
27.9858
26.4337
24.9122
23.4256
21.9778
20.5723
19.2122
17.9
16.6375
15.4258
47.965
50.2398
52.4862
54.6921
56.8466
58.9398
60.9635
62.9108
64.7764
66.5564
68.2477
69.8485
71.3575
72.774
74.098
75.3297
76.4695
77.5182
78.4769
79.3467
80.129
80.8253
81.4374
81.9669
82.4158
82.7861
83.0795
83.2983
83.4443
83.5195
83.5259
83.4653
83.3396
83.1507
82.9001
82.5896
82.2208
81.7951
81.3142
80.7795
80.1925
79.5546
78.8674
78.1324
77.3509
76.5244
75.6542
74.7415
73.7876
72.7933
71.7598
70.6879
69.5784
68.4321
67.2498
66.0323
64.7806
63.4955
62.1781
60.8295
59.4508
58.043
56.6073
55.1449
53.6567
52.1441
50.6081
49.0502
47.4717
45.8744
44.2605
42.6323
40.9925
39.3444
37.6915
36.0377
34.3873
32.7447
31.1144
29.5013
27.9101
26.3455
24.8121
23.3144
21.8566
20.4425
19.0754
17.758
16.4923
15.2795
48.0326
50.357
52.6515
54.9023
57.097
59.2252
61.2781
63.2491
65.1333
66.9272
68.6285
70.2359
71.7489
73.1672
74.4912
75.7213
76.8584
77.9033
78.8572
79.7214
80.4975
81.187
81.7917
82.3135
82.7544
83.1163
83.4015
83.6119
83.7495
83.8165
83.8148
83.7464
83.6131
83.4168
83.1591
82.8416
82.466
82.0337
81.5463
81.0051
80.4117
79.7675
79.0741
78.3329
77.5455
76.7134
75.8378
74.9202
73.9616
72.9631
71.9256
70.8499
69.7367
68.5868
67.4007
66.1793
64.9234
63.634
62.312
60.9587
59.5752
58.1625
56.7219
55.2544
53.761
52.2427
50.7006
49.1356
47.5492
45.9428
44.3182
42.6779
41.0245
39.3613
37.6919
36.0205
34.3515
32.6896
31.0397
29.4067
27.7959
26.2121
24.6604
23.1457
21.6724
20.2449
18.8669
17.5414
16.2708
15.0564
48.1216
50.5165
52.8788
55.1922
57.4424
59.618
61.7098
63.7117
65.6194
67.4304
69.1436
70.7587
72.2758
73.6956
75.0188
76.2464
77.3793
78.4188
79.3661
80.2227
80.9902
81.6703
82.265
82.7762
83.2062
83.557
83.8308
84.0299
84.1563
84.2122
84.1997
84.1207
83.9773
83.7711
83.5038
83.1772
82.7926
82.3516
81.8556
81.3058
80.7039
80.0512
79.3493
78.5999
77.8045
76.9646
76.0819
75.1576
74.1929
73.1888
72.1462
71.0657
69.9479
68.7932
67.6023
66.3757
65.1143
63.819
62.4909
61.1312
59.7412
58.3221
56.8749
55.4009
53.9008
52.3755
50.8256
49.2519
47.6553
46.037
44.3985
42.7421
41.0705
39.3869
37.6952
35.9997
34.3053
32.6171
30.9402
29.2802
27.6424
26.0324
24.4555
22.9171
21.4222
19.9759
18.5825
17.2457
15.9683
14.7518
48.2312
50.7219
53.1756
55.5721
57.8945
60.1302
62.2702
64.3089
66.2437
68.0737
69.7993
71.4216
72.9421
74.3622
75.6834
76.9071
78.0343
79.0666
80.0052
80.8519
81.6082
82.2762
82.858
83.3557
83.7717
84.1082
84.3677
84.5523
84.6644
84.7063
84.6801
84.5878
84.4315
84.213
83.934
83.596
83.2005
82.7487
82.2419
81.6816
81.0689
80.4055
79.6929
78.9329
78.1272
77.2775
76.3856
75.4529
74.4807
73.4698
72.4211
71.335
70.2118
69.0516
67.8549
66.6221
65.3538
64.0511
62.7151
61.3472
59.9489
58.5216
57.0665
55.5847
54.0768
52.5434
50.9847
49.4009
47.7924
46.1598
44.5045
42.8281
41.1335
39.4239
37.7035
35.9772
34.2502
32.528
30.8164
29.1215
27.449
25.8048
24.195
22.6255
21.1021
19.6306
18.2166
16.8645
15.5779
14.3589
48.3608
50.9795
53.5537
56.0575
58.4707
60.7793
62.9753
65.055
67.018
68.8663
70.6027
72.2303
73.7521
75.1706
76.488
77.7058
78.8256
79.8486
80.7764
81.6106
82.3531
83.006
83.5717
84.0527
84.4513
84.7702
85.0119
85.1789
85.2735
85.2983
85.2553
85.147
84.9753
84.742
84.449
84.0976
83.6891
83.2247
82.7054
82.1325
81.507
80.8305
80.1047
79.3315
78.513
77.6511
76.7479
75.805
74.8238
73.8052
72.7498
71.6576
70.5286
69.3626
68.1594
66.9192
65.6427
64.3307
62.9849
61.6067
60.1982
58.7609
57.2964
55.8057
54.2894
52.7475
51.1796
49.5852
47.9638
46.3154
44.6404
42.9403
41.2177
39.4762
37.7203
35.9555
34.1878
32.4233
30.6686
28.9302
27.2144
25.5277
23.8764
22.2672
20.707
19.2027
17.7612
16.3888
15.0902
13.8683
48.5104
51.3003
54.0323
56.6724
59.1962
61.5896
63.8468
65.9678
67.9566
69.8192
71.5618
73.1905
74.7099
76.1239
77.4351
78.6451
79.7555
80.7672
81.6818
82.5009
83.2265
83.8611
84.4072
84.8678
85.2455
85.5432
85.7636
85.9094
85.9832
85.9874
85.9247
85.7973
85.6074
85.357
85.0478
84.6812
84.2582
83.7796
83.2462
82.6588
82.0183
81.3263
80.5846
79.7953
78.961
78.0841
77.1671
76.2121
75.2206
74.1935
73.1311
72.033
70.8985
69.7267
68.5168
67.2685
65.9822
64.6591
63.3008
61.9098
60.4885
59.0392
57.5638
56.0635
54.5386
52.9886
51.4124
49.8082
48.1741
46.5089
44.8121
43.0846
41.3289
39.5489
37.7498
35.9379
34.1204
32.3044
30.4973
28.7061
26.9379
25.1993
23.4971
21.8384
20.2312
18.6841
17.2062
15.8066
14.4922
13.2671
48.6821
51.7032
54.6424
57.4534
60.1083
62.595
64.9132
67.0698
69.0759
70.9436
72.6842
74.3069
75.8188
77.2246
78.527
79.7275
80.8267
81.8252
82.7242
83.5253
84.2307
84.8431
85.3658
85.8019
86.1547
86.4273
86.6226
86.7435
86.7927
86.773
86.687
86.5374
86.3266
86.0566
85.7293
85.3459
84.9071
84.4133
83.8646
83.2612
82.6038
81.8937
81.1328
80.3239
79.47
78.5747
77.641
76.6716
75.6684
74.6324
73.5635
72.4606
71.322
70.1456
68.9294
67.6724
66.3746
65.0376
63.6638
62.2563
60.8188
59.3548
57.8668
56.3563
54.8236
53.2674
51.6853
50.0738
48.429
46.7476
45.0277
43.2694
41.475
39.6488
37.7974
35.9284
34.0505
32.1725
30.3027
28.4489
26.6185
24.8183
23.0548
21.3354
19.6687
18.0655
16.5386
15.1014
13.7655
12.5373
48.8818
52.2231
55.4357
58.4579
61.2613
63.842
66.2111
68.3875
70.3934
72.2501
73.9751
75.582
77.0796
78.4733
79.765
80.955
82.0422
83.0262
83.9073
84.6871
85.3683
85.9542
86.4487
86.8558
87.1792
87.4225
87.5887
87.6807
87.7015
87.6538
87.5409
87.3656
87.1307
86.8388
86.4915
86.0902
85.6351
85.126
84.5617
83.9414
83.2651
82.5339
81.75
80.9169
80.0388
79.1203
78.166
77.1795
76.1634
75.1185
74.0445
72.9393
71.7997
70.6214
69.4004
68.1345
66.8234
65.469
64.0748
62.6457
61.1872
59.7046
58.2018
56.6809
55.1421
53.5833
52.0002
50.387
48.7363
47.0415
45.2984
43.506
41.6664
39.785
37.87
35.9314
33.9807
32.0285
30.0847
28.158
26.2556
24.3841
22.5491
20.7564
19.0146
17.3371
15.7418
14.2503
12.8836
11.6529
49.1273
52.9269
56.5021
59.776
62.7337
65.3923
67.785
69.9495
71.9247
73.7449
75.4352
77.0134
78.4894
79.868
81.1489
82.3297
83.4059
84.3748
85.2358
85.9908
86.6429
87.1967
87.6573
88.0298
88.319
88.5285
88.6615
88.7205
88.7086
88.6287
88.4844
88.2794
88.0171
87.7005
87.3315
86.9117
86.441
85.9179
85.3394
84.7022
84.0054
83.2497
82.438
81.5745
80.6655
79.7173
78.7372
77.7301
76.6995
75.6464
74.5701
73.4675
72.3331
71.1585
69.9359
68.6615
67.3343
65.9575
64.5359
63.0773
61.59
60.0832
58.5624
57.0312
55.4892
53.9337
52.3584
50.7539
49.107
47.4047
45.64
43.8101
41.9178
39.9694
37.9763
35.9519
33.9127
31.8721
29.8422
27.8316
25.8482
23.8972
21.9823
20.104
18.2676
16.4901
14.7955
13.2195
11.8057
10.5754
49.4691
53.9526
58.0006
61.5482
64.6355
67.3241
69.6859
71.7826
73.6779
75.4253
77.0557
78.591
80.0382
81.4023
82.6763
83.8546
84.9233
85.8784
86.7167
87.4421
88.0587
88.5734
88.9926
89.3238
89.5734
89.7448
89.8405
89.8627
89.8134
89.6963
89.5152
89.2758
88.9817
88.6374
88.2448
87.8066
87.322
86.7897
86.2014
85.5487
84.8305
84.0459
83.2004
82.2977
81.3484
80.3601
79.347
78.3142
77.268
76.2073
75.1336
74.0411
72.9239
71.7645
70.5458
69.2641
67.9164
66.5101
65.0498
63.55
62.0208
60.4814
58.9378
57.3969
55.8552
54.3124
52.7581
51.1818
49.557
47.8575
46.0754
44.2036
42.2498
40.2178
38.1273
35.9933
33.8465
31.7001
29.5719
27.4656
25.3942
23.358
21.3626
19.3913
17.4357
15.5236
13.6782
11.9552
10.4634
9.24333
50.0726
55.6041
60.2183
63.9815
67.1096
69.7247
71.9674
73.904
75.6425
77.2732
78.8116
80.2944
81.706
83.0656
84.3409
85.5365
86.6041
87.5498
88.3597
89.0501
89.6209
90.0875
90.4545
90.7353
90.9404
91.0701
91.1255
91.1076
91.0157
90.8563
90.6299
90.3509
90.0186
89.6441
89.2235
88.7681
88.2717
87.7421
87.1561
86.4895
85.7511
84.9297
84.0451
83.088
82.0872
81.0387
79.9848
78.9174
77.857
76.7868
75.7239
74.65
73.5754
72.4555
71.2462
69.9614
68.5824
67.1404
65.6202
64.0647
62.4661
60.8855
59.309
57.7635
56.2227
54.7072
53.1892
51.6794
50.1141
48.4291
46.6395
44.7151
42.694
40.5503
38.3408
36.053
33.7794
31.5019
29.2697
27.0493
24.8891
22.76
20.708
18.6558
16.5411
14.4607
12.3847
10.358
8.72954
7.55446
51.5791
58.5746
63.6595
67.3274
70.3207
72.6597
74.6877
76.3091
77.7608
79.2525
80.6463
82.0993
83.4473
84.8495
86.1193
87.4023
88.4601
89.4164
90.1746
90.8299
91.3334
91.7448
92.0405
92.2559
92.416
92.5025
92.5162
92.459
92.3154
92.1127
91.8205
91.5029
91.116
90.7173
90.2522
89.7887
89.2693
88.7758
88.2265
87.5337
86.7911
85.9044
84.9941
83.9409
82.8947
81.7247
80.6421
79.5101
78.4601
77.3556
76.3297
75.2598
74.2916
73.2751
72.0552
70.7942
69.3389
67.883
66.2413
64.6409
62.8853
61.2833
59.635
58.1232
56.5531
55.1055
53.6082
52.2568
50.843
49.1511
47.3974
45.3654
43.3146
40.9771
38.667
36.0918
33.7179
31.238
28.9506
26.5459
24.3391
22.0508
20.0537
18.0099
15.597
13.3917
11.0198
8.18743
6.34272
5.33064
56.9036
64.2944
69.1393
71.6425
74.4719
76.0405
77.9917
78.9567
79.8197
81.371
82.3944
84.0541
85.1095
86.8231
87.8783
89.5916
90.462
91.5682
92.1373
92.8284
93.1787
93.5686
93.7422
93.8561
93.9977
94.0397
94.0093
93.9348
93.7005
93.4982
93.0475
92.7548
92.2307
91.8859
91.2788
90.8897
90.2297
89.8897
89.5038
88.6494
88.0383
86.9132
86.1486
84.7836
83.8806
82.2845
81.3702
79.9848
79.1412
77.811
76.9984
75.7231
75.0772
74.3875
72.9229
71.9064
70.096
68.893
66.8023
65.4407
63.0828
61.7473
59.7644
58.5664
56.707
55.5749
53.817
52.9236
51.9721
49.9619
48.5558
46.0426
44.3477
41.364
39.3749
35.8403
33.8088
30.6966
28.8002
25.7575
23.9062
20.9219
19.4667
17.8954
14.354
12.5621
10.3182
4.59449
2.75687
2.25806
14.2213
12.9
11.6488
10.4644
9.34284
8.27931
7.26847
6.3047
5.38223
4.49525
3.63801
2.80488
1.99033
1.18895
0.395446
14.1493
12.83
11.5818
10.4015
9.28477
8.22655
7.22135
6.26337
5.34671
4.46548
3.61389
2.78628
1.97714
1.18108
0.392829
14.0041
12.6887
11.4469
10.275
9.1681
8.12074
7.12697
6.18068
5.27572
4.40603
3.56576
2.7492
1.95085
1.1654
0.387615
13.7828
12.4738
11.2421
10.0834
8.99184
7.96127
6.98508
6.05662
5.16941
4.31716
3.49389
2.69388
1.91167
1.14202
0.379849
13.481
12.1814
10.9644
9.82445
8.75456
7.74738
6.7954
5.89129
5.0281
4.19929
3.39874
2.62074
1.85992
1.11118
0.3696
13.0925
11.8062
10.6097
9.49535
8.45452
7.47824
6.55779
5.68501
4.85239
4.05312
3.28101
2.53041
1.79608
1.07315
0.356973
12.6086
11.3412
10.1727
9.0927
8.08989
7.15323
6.27249
5.43853
4.6433
3.87978
3.14177
2.42377
1.72083
1.02838
0.342111
12.0177
10.7773
9.6472
8.61279
7.65905
6.77224
5.94036
5.15327
4.40248
3.68089
2.98248
2.30207
1.63509
0.977407
0.3252
11.3042
10.1028
9.02599
8.05214
7.16125
6.33628
5.56341
4.83168
4.13244
3.45881
2.80519
2.16692
1.54002
0.920958
0.306482
10.4468
9.30389
8.30172
7.40847
6.59749
5.84818
5.14528
4.47756
3.83677
3.21669
2.61251
2.02039
1.43712
0.859915
0.28625
9.41639
8.36414
7.46848
6.68249
5.972
5.31365
4.69193
4.0965
3.52037
2.95865
2.40777
1.865
1.32815
0.795323
0.26485
8.17381
7.26777
6.5255
5.88099
5.29432
4.74246
4.21225
3.69611
3.18953
2.68974
2.19489
1.70369
1.21513
0.728377
0.242677
6.67049
6.00757
5.48471
5.02161
4.58181
4.14958
3.71848
3.28613
2.8519
2.41587
1.97836
1.53972
1.1003
0.660371
0.220154
4.86569
4.60728
4.38414
4.13889
3.8617
3.55556
3.22593
2.878
2.51605
2.14347
1.76293
1.37654
0.985981
0.592646
0.197721
2.81205
3.17169
3.30563
3.28807
3.17053
2.98499
2.75167
2.48388
2.19081
1.87901
1.55334
1.21751
0.87443
0.526507
0.175805
10.4132
11.239
12.0627
12.8826
13.6967
14.502
15.2943
16.0672
16.8102
17.5053
18.1172
18.5672
18.6408
17.6034
12.3575
10.3456
11.0345
11.7168
12.3871
13.039
13.664
14.2501
14.7795
15.2242
15.5375
15.6348
15.3502
14.3285
11.76
5.85703
10.2794
10.8347
11.379
11.9041
12.3998
12.8528
13.2451
13.5504
13.7293
13.7195
13.4174
12.6449
11.0901
8.23191
3.39196
10.2157
10.6424
11.0546
11.4416
11.7902
12.0838
12.3002
12.4088
12.3654
12.1042
11.5265
10.4827
8.75652
6.07991
2.27679
10.1552
10.46
10.7477
11.0056
11.2186
11.3682
11.4302
11.3728
11.1523
10.7087
9.95911
8.79414
7.08286
4.71009
1.68272
10.0986
10.2895
10.4616
10.6008
10.6911
10.7132
10.643
10.4499
10.0942
9.52538
8.68005
7.48482
5.86847
3.79479
1.32339
10.0462
10.1321
10.1981
10.2298
10.2109
10.1223
9.94112
9.63965
9.18403
8.53398
7.64388
6.46781
4.9716
3.15561
1.08583
9.99837
9.9885
9.9585
9.89395
9.77897
9.59551
9.32271
8.93638
8.40877
7.70918
6.80623
5.67303
4.29673
2.69262
0.918998
9.95512
9.85886
9.74282
9.59308
9.39458
9.13073
8.78307
8.33115
7.75286
7.02552
6.12838
5.04701
3.78
2.34733
0.796856
9.91639
9.74292
9.55052
9.32603
9.05553
8.7241
8.31577
7.81361
7.20037
6.45972
5.57843
4.54983
3.37829
2.08381
0.704734
9.882
9.64012
9.38047
9.09089
8.75874
8.37084
7.91358
7.37316
6.73632
5.99152
5.13071
4.15189
3.0619
1.87902
0.633708
9.85169
9.54963
9.2312
8.8853
8.50063
8.06572
7.56908
6.99961
6.34721
5.60383
4.76492
3.8311
2.81
1.71757
0.578025
9.82515
9.47051
9.10098
8.70659
8.27738
7.80342
7.27514
6.68361
6.02122
5.28246
4.465
3.57088
2.60763
1.58881
0.5338
9.80206
9.40171
8.988
8.55206
8.08516
7.57883
7.02508
6.4168
5.74824
5.0157
4.21827
3.35866
2.44381
1.48518
0.498315
9.78205
9.34219
8.89044
8.41901
7.92031
7.38713
6.81285
6.19181
5.51967
4.79398
4.01471
3.18477
2.31038
1.40114
0.469607
9.7648
9.29091
8.80654
8.30489
7.7794
7.22395
6.63308
6.00227
5.32826
4.60945
3.84632
3.04173
2.20115
1.33258
0.44623
9.74999
9.24689
8.73464
8.2073
7.65926
7.08534
6.48104
5.84272
5.16793
4.45568
3.7067
2.92367
2.11134
1.27637
0.42709
9.7373
9.20923
8.6732
8.12409
7.55708
6.96783
6.35259
5.70847
5.0336
4.32739
3.5907
2.82596
2.03723
1.23009
0.41135
9.72647
9.17709
8.62083
8.05328
7.47034
6.86834
6.24419
5.59556
4.92103
4.22027
3.49416
2.74489
1.9759
1.19186
0.398361
9.71724
9.14974
8.5763
7.99316
7.39683
6.78423
6.15278
5.50062
4.82666
4.13074
3.41371
2.67749
1.92503
1.16019
0.387609
9.7094
9.1265
8.5385
7.9422
7.33462
6.71318
6.07575
5.42081
4.74753
4.05585
3.34658
2.62137
1.88273
1.1339
0.378688
9.70275
9.10678
8.50647
7.89905
7.28203
6.65322
6.01087
5.35373
4.68116
3.99317
3.2905
2.57458
1.84752
1.11202
0.37127
9.69711
9.09009
8.47935
7.86257
7.23762
6.60267
5.95625
5.29736
4.62548
3.94069
3.24363
2.53552
1.81816
1.0938
0.365093
9.69235
9.07597
8.45644
7.83177
7.20016
6.56007
5.91029
5.24999
4.57878
3.89673
3.20441
2.50288
1.79365
1.0786
0.359942
9.68832
9.06405
8.43709
7.80577
7.16857
6.5242
5.87164
5.2102
4.53959
3.85988
3.17158
2.47559
1.77317
1.06591
0.355643
9.68492
9.05398
8.42077
7.78386
7.14197
6.49401
5.83913
5.17678
4.50671
3.82901
3.1441
2.45276
1.75605
1.0553
0.35205
9.68205
9.0455
8.40702
7.7654
7.11957
6.46861
5.81182
5.14873
4.47913
3.80313
3.12108
2.43365
1.74173
1.04643
0.349047
9.67964
9.03835
8.39544
7.74987
7.10074
6.44727
5.78888
5.12518
4.456
3.78144
3.10181
2.41766
1.72975
1.03902
0.346536
9.6776
9.03235
8.3857
7.73681
7.08491
6.42935
5.76962
5.10542
4.43661
3.76327
3.08567
2.40427
1.71973
1.03281
0.344437
9.6759
9.0273
8.37752
7.72585
7.07162
6.4143
5.75347
5.08886
4.42037
3.74806
3.07216
2.39308
1.71135
1.02763
0.342681
9.67447
9.02306
8.37066
7.71665
7.06049
6.4017
5.73995
5.075
4.40678
3.73533
3.06087
2.38372
1.70434
1.02329
0.341215
9.67327
9.01951
8.36492
7.70896
7.05117
6.39116
5.72864
5.06341
4.39542
3.7247
3.05144
2.37591
1.6985
1.01968
0.339991
9.67226
9.01655
8.36012
7.70253
7.04339
6.38236
5.7192
5.05375
4.38595
3.71584
3.04358
2.3694
1.69363
1.01667
0.338972
9.67143
9.01408
8.35613
7.69718
7.03691
6.37504
5.71135
5.04571
4.37808
3.70848
3.03705
2.36399
1.68958
1.01417
0.338126
9.67074
9.01204
8.35282
7.69275
7.03155
6.36898
5.70486
5.03906
4.37156
3.70239
3.03165
2.35952
1.68624
1.0121
0.337427
9.67017
9.01036
8.3501
7.68911
7.02715
6.364
5.69952
5.0336
4.36621
3.69739
3.02722
2.35585
1.6835
1.0104
0.336853
9.66971
9.00899
8.34789
7.68615
7.02356
6.35995
5.69517
5.02915
4.36186
3.69332
3.02361
2.35287
1.68127
1.00902
0.336386
9.66934
9.0079
8.34611
7.68377
7.02069
6.3567
5.69169
5.02559
4.35837
3.69006
3.02072
2.35048
1.67948
1.00792
0.336012
9.66905
9.00704
8.34473
7.68192
7.01844
6.35416
5.68897
5.02281
4.35565
3.68751
3.01847
2.34861
1.67808
1.00706
0.33572
9.66883
9.0064
8.34368
7.68052
7.01675
6.35225
5.68693
5.02072
4.3536
3.6856
3.01677
2.3472
1.67703
1.00641
0.335501
9.66868
9.00594
8.34295
7.67954
7.01557
6.35091
5.68549
5.01925
4.35217
3.68426
3.01558
2.34622
1.6763
1.00595
0.335347
9.66859
9.00567
8.34251
7.67895
7.01486
6.35011
5.68463
5.01837
4.3513
3.68345
3.01487
2.34563
1.67586
1.00568
0.335255
9.66855
9.00557
8.34235
7.67874
7.01459
6.34982
5.68432
5.01805
4.35099
3.68316
3.0146
2.34541
1.67569
1.00558
0.335221
9.66858
9.00564
8.34246
7.67889
7.01478
6.35002
5.68453
5.01827
4.35121
3.68336
3.01479
2.34556
1.67581
1.00565
0.335244
9.66866
9.00588
8.34285
7.67941
7.0154
6.35073
5.68529
5.01905
4.35197
3.68407
3.01542
2.34608
1.6762
1.00589
0.335326
9.6688
9.0063
8.34353
7.68031
7.0165
6.35197
5.68662
5.0204
4.35329
3.68531
3.01651
2.34699
1.67687
1.00631
0.335467
9.669
9.00691
8.34451
7.68163
7.01809
6.35377
5.68855
5.02238
4.35522
3.68711
3.01811
2.34832
1.67786
1.00692
0.335674
9.66928
9.00773
8.34584
7.6834
7.02023
6.35619
5.69114
5.02503
4.35782
3.68954
3.02026
2.35009
1.67919
1.00774
0.335952
9.66964
9.00878
8.34754
7.68568
7.02299
6.3593
5.69448
5.02844
4.36116
3.69266
3.02302
2.35238
1.6809
1.0088
0.33631
9.67008
9.01009
8.34967
7.68853
7.02644
6.3632
5.69865
5.03271
4.36534
3.69657
3.02649
2.35525
1.68304
1.01012
0.336758
9.67063
9.01171
8.35229
7.69204
7.03069
6.368
5.7038
5.03798
4.37049
3.70139
3.03076
2.35878
1.68569
1.01176
0.33731
9.6713
9.01369
8.35549
7.69632
7.03587
6.37385
5.71007
5.04439
4.37678
3.70726
3.03596
2.36309
1.68891
1.01375
0.337984
9.6721
9.01607
8.35935
7.70149
7.04212
6.38092
5.71765
5.05215
4.38438
3.71436
3.04226
2.3683
1.69281
1.01616
0.3388
9.67307
9.01894
8.36399
7.70772
7.04966
6.38944
5.72678
5.0615
4.39353
3.72292
3.04985
2.37458
1.6975
1.01906
0.339783
9.67424
9.02238
8.36956
7.71517
7.05868
6.39965
5.73772
5.0727
4.40451
3.73319
3.05895
2.38212
1.70314
1.02255
0.340963
9.67563
9.02649
8.37622
7.72409
7.06948
6.41185
5.75082
5.08611
4.41765
3.74549
3.06986
2.39116
1.7099
1.02673
0.342377
9.67728
9.0314
8.38416
7.73473
7.08236
6.42643
5.76646
5.10214
4.43335
3.76018
3.0829
2.40196
1.71798
1.03173
0.344069
9.67926
9.03724
8.39362
7.74741
7.09772
6.44381
5.78511
5.12125
4.4521
3.77774
3.09848
2.41487
1.72764
1.03771
0.346092
9.68161
9.04418
8.40487
7.7625
7.116
6.46451
5.80734
5.14405
4.47446
3.79868
3.11708
2.43029
1.73919
1.04485
0.34851
9.6844
9.05244
8.41825
7.78044
7.13776
6.48915
5.83381
5.17121
4.50113
3.82367
3.13928
2.4487
1.75297
1.05338
0.351398
9.68771
9.06225
8.43415
7.80176
7.16362
6.51846
5.86532
5.20356
4.5329
3.85347
3.16577
2.47068
1.76944
1.06358
0.35485
9.69165
9.07389
8.45301
7.82709
7.19435
6.55331
5.90281
5.24208
4.57077
3.88901
3.19738
2.49692
1.78911
1.07576
0.358975
9.69631
9.08768
8.47539
7.85713
7.23083
6.59471
5.94739
5.28793
4.61589
3.93139
3.23511
2.52827
1.81262
1.09033
0.363909
9.70183
9.10402
8.5019
7.89276
7.27412
6.6439
6.0004
5.3425
4.66965
3.98195
3.28016
2.56574
1.84074
1.10776
0.369814
9.70836
9.12336
8.53329
7.93496
7.32546
6.70228
6.06341
5.40745
4.73372
4.04227
3.33398
2.61054
1.87439
1.12863
0.376887
9.71607
9.14621
8.57041
7.98491
7.38629
6.77154
6.13826
5.48474
4.81007
4.11427
3.39832
2.66416
1.9147
1.15365
0.38537
9.72517
9.17318
8.61425
8.04397
7.45829
6.85366
6.22716
5.57669
4.90109
4.20026
3.47527
2.7284
1.96306
1.18369
0.395559
9.7359
9.20497
8.66596
8.11371
7.54345
6.95095
6.33269
5.68608
5.0096
4.303
3.56741
2.80546
2.02115
1.21982
0.407816
9.74851
9.24237
8.72685
8.19594
7.64403
7.0661
6.45789
5.81619
5.139
4.42584
3.67786
2.89801
2.09105
1.26334
0.422594
9.7633
9.28628
8.79841
8.29273
7.76267
7.20225
6.60633
5.97091
5.29337
4.57283
3.8104
3.00939
2.17534
1.3159
0.440456
9.78062
9.3377
8.88232
8.40644
7.90236
7.36301
6.78218
6.15484
5.47756
4.74888
3.96972
3.14369
2.27724
1.37956
0.462112
9.80084
9.39776
8.98047
8.5397
8.06652
7.55255
6.99028
6.37343
5.69742
4.95995
4.16154
3.30602
2.40082
1.45695
0.488467
9.82435
9.46767
9.09489
8.69544
8.25896
7.77559
7.23625
6.63304
5.95991
5.2133
4.39299
3.50282
2.55123
1.55141
0.520686
9.85159
9.54874
9.22783
8.87685
8.48392
8.03747
7.5265
6.94116
6.27337
5.51779
4.67291
3.74222
2.73512
1.66731
0.560293
9.883
9.64233
9.38161
9.08735
8.74601
8.34408
7.86835
7.30647
6.64773
5.88422
5.01237
4.03465
2.96112
1.81041
0.609318
9.91905
9.74984
9.55864
9.3305
9.05012
8.70187
8.26996
7.73898
7.09477
6.32581
5.4253
4.39356
3.24069
1.98848
0.670515
9.96015
9.87259
9.76128
9.60987
9.4013
9.11767
8.74028
8.25004
7.62834
6.85868
5.92928
4.83651
3.58919
2.21217
0.747724
10.0067
10.0118
9.99172
9.92887
9.80453
9.5985
9.28888
8.85228
8.26454
7.5024
6.5466
5.38673
4.0277
2.49653
0.84645
10.059
10.1685
10.2518
10.2905
10.2644
10.1511
9.92553
9.55937
9.02174
8.28047
7.30552
6.07516
4.58566
2.86344
0.974892
10.1173
10.3433
10.5428
10.697
10.7847
10.7817
10.6597
10.3854
9.92019
9.22069
8.24169
6.94342
5.30516
3.34578
1.14584
10.1816
10.5363
10.8653
11.1496
11.3679
11.4947
11.4994
11.3438
10.9812
10.3548
9.39939
8.04765
6.24755
3.99509
1.38048
10.2517
10.7473
11.2187
11.648
12.0144
12.2925
12.4501
12.4458
12.2252
11.7173
10.8321
9.46304
7.50394
4.8958
1.71672
10.3273
10.9749
11.6011
12.1899
12.7221
13.1737
13.5131
13.6978
13.6683
13.3415
12.6006
11.288
9.21085
6.19289
2.22954
10.4076
11.2173
12.0095
12.771
13.4857
14.1326
14.6834
15.0981
15.3177
15.2529
14.7658
13.6435
11.5709
8.14634
3.08656
10.4919
11.4717
12.4391
13.3845
14.296
15.1579
15.948
16.6337
17.1643
17.4573
17.3718
16.6586
14.8694
11.2352
4.71663
10.5789
11.7347
12.8839
14.0214
15.1406
16.2327
17.2847
18.2766
19.1755
19.924
20.4133
20.4205
19.4489
16.3266
8.3707
10.6674
12.0021
13.3366
14.6707
16.0038
17.3351
18.6628
19.9835
21.2907
22.5701
23.789
24.8614
25.5214
24.7743
18.1255
10.7558
12.2695
13.7895
15.3204
16.868
18.4396
20.0453
21.6995
23.4246
25.2577
27.2658
29.5881
32.5704
37.3196
48.437
10.8429
12.5326
14.2346
15.9583
17.7152
19.5201
21.3936
23.3656
25.4829
27.8229
30.5238
33.8554
38.3916
45.4413
57.9271
10.9271
12.7869
14.6644
16.5729
18.5287
20.5526
22.6729
24.9303
27.386
30.1366
33.343
37.2851
42.4661
49.7866
60.7266
1.15386
2.06261
2.45587
2.59978
2.59926
2.50576
2.3485
2.14577
1.90982
1.6493
1.37054
1.07836
0.776609
0.468426
0.156544
0.617903
1.41232
1.85652
2.07434
2.14449
2.11437
2.01354
1.86144
1.67144
1.45313
1.21365
0.958519
0.692141
0.418191
0.139873
0.38847
1.00522
1.41435
1.65144
1.75936
1.77206
1.71419
1.60344
1.45271
1.27165
1.06764
0.846479
0.612927
0.370987
0.124192
0.270276
0.742309
1.09167
1.31822
1.44033
1.47876
1.45154
1.37318
1.25505
1.10612
0.933515
0.743043
0.539536
0.327154
0.109615
0.199662
0.564582
0.854256
1.05752
1.17942
1.23104
1.22441
1.17052
1.07877
0.95701
0.811801
0.648657
0.472305
0.2869
0.0962123
0.152939
0.439108
0.676846
0.853324
0.967313
1.02377
1.0301
0.994154
0.923317
0.824184
0.702538
0.56344
0.411358
0.250314
0.0840151
0.119901
0.347264
0.541975
0.692517
0.795152
0.851296
0.865135
0.842015
0.787514
0.706989
0.605392
0.487236
0.356633
0.217376
0.0730199
0.0954991
0.278095
0.437773
0.564976
0.655274
0.7082
0.725836
0.711663
0.669779
0.604425
0.519744
0.419672
0.307917
0.187977
0.0631937
0.0769323
0.22484
0.356121
0.463061
0.541347
0.589606
0.608621
0.600553
0.56834
0.515279
0.444781
0.360221
0.264883
0.161942
0.0544807
0.0625015
0.183131
0.29137
0.381044
0.448268
0.491319
0.510212
0.506209
0.481374
0.438241
0.37958
0.308253
0.227128
0.139046
0.046809
0.0511076
0.150026
0.239509
0.314616
0.371975
0.409805
0.427701
0.426329
0.407113
0.371984
0.323175
0.263087
0.194203
0.119034
0.0400964
0.0420029
0.123473
0.197632
0.26051
0.309241
0.342132
0.35857
0.358837
0.343902
0.315226
0.2746
0.224029
0.165641
0.101638
0.0342555
0.0346593
0.101995
0.163587
0.216229
0.257507
0.285883
0.300666
0.3019
0.290232
0.266764
0.232931
0.190397
0.140979
0.0865895
0.0291978
0.0286923
0.0845071
0.135755
0.179838
0.214731
0.239074
0.252169
0.253923
0.244755
0.2255
0.197303
0.161545
0.119768
0.0736252
0.0248369
0.0238152
0.0701898
0.1129
0.149827
0.17928
0.200074
0.211546
0.213528
0.206283
0.190443
0.166925
0.136872
0.10159
0.0624972
0.021091
0.01981
0.0584169
0.0940605
0.125006
0.149842
0.167547
0.177514
0.179538
0.17378
0.160716
0.141085
0.115831
0.0860558
0.0529759
0.0178838
0.0165082
0.0487016
0.0784831
0.104427
0.125355
0.140393
0.148997
0.150953
0.146349
0.13555
0.119149
0.0979285
0.0728167
0.0448515
0.0151455
0.0137778
0.0406611
0.0655706
0.0873304
0.104957
0.117706
0.125098
0.126921
0.12322
0.114273
0.10056
0.0827277
0.0615586
0.0379359
0.0128135
0.0115143
0.0339909
0.0548451
0.073104
0.0879457
0.0987387
0.105064
0.106724
0.103733
0.096306
0.0848305
0.0698439
0.0520042
0.0320616
0.0108317
0.00963414
0.0284473
0.0459217
0.0612503
0.0737459
0.0828734
0.0882707
0.0897562
0.0873275
0.0811496
0.0715388
0.0589411
0.0439098
0.0270812
0.00915082
0.00806993
0.0238333
0.0384883
0.0513638
0.0618846
0.0695983
0.0741931
0.0755064
0.0735248
0.0683769
0.060321
0.049728
0.0370634
0.0228659
0.00772769
0.00676712
0.019989
0.0322903
0.0431121
0.0519724
0.0584887
0.062394
0.0635443
0.0619205
0.0576234
0.0508647
0.0419535
0.0312811
0.0193038
0.00652475
0.00568123
0.0167837
0.0271198
0.0362225
0.0436876
0.0491922
0.0525078
0.0535084
0.0521723
0.0485791
0.0429029
0.0354018
0.026405
0.0162985
0.00550958
0.00477585
0.0141106
0.0228056
0.0304699
0.0367642
0.0414154
0.0442289
0.045095
0.0439913
0.0409811
0.0362083
0.0298886
0.0222992
0.0137669
0.00465427
0.0040211
0.0118818
0.0192069
0.0256687
0.0309816
0.0349147
0.0373023
0.0380493
0.0371339
0.0346071
0.0305878
0.0252569
0.0188483
0.0116383
0.00393499
0.00339238
0.0100248
0.0162077
0.0216653
0.0261569
0.0294872
0.0315148
0.0321577
0.0313956
0.0292693
0.025878
0.0213736
0.0159536
0.00985239
0.00333139
0.00286944
0.00848003
0.0137119
0.0183327
0.0221386
0.0249642
0.0266888
0.0272418
0.0266043
0.0248098
0.021941
0.018126
0.013532
0.00835789
0.00282623
0.00243555
0.00719819
0.0116405
0.0155657
0.0188011
0.0212056
0.0226764
0.0231523
0.0226165
0.0210962
0.0186611
0.0154193
0.011513
0.00711167
0.00240495
0.00207699
0.00613876
0.0099282
0.0132778
0.0160404
0.0180954
0.0193546
0.0197653
0.0193122
0.0180179
0.0159412
0.0131741
0.00983789
0.00607746
0.0020553
0.00178244
0.0052684
0.00852126
0.0113975
0.0137709
0.0155378
0.0166221
0.0169781
0.0165921
0.0154829
0.0137006
0.011324
0.00845727
0.00522497
0.00176707
0.00154268
0.0045599