# vtk DataFile Version 2.0
generated by CFD-lab course output (written by Tobias Neckel) 
ASCII

DATASET STRUCTURED_GRID
DIMENSIONS  51 51 1 
POINTS 2601 float

0.000000 0.000000 0
0.020000 0.000000 0
0.040000 0.000000 0
0.060000 0.000000 0
0.080000 0.000000 0
0.100000 0.000000 0
0.120000 0.000000 0
0.140000 0.000000 0
0.160000 0.000000 0
0.180000 0.000000 0
0.200000 0.000000 0
0.220000 0.000000 0
0.240000 0.000000 0
0.260000 0.000000 0
0.280000 0.000000 0
0.300000 0.000000 0
0.320000 0.000000 0
0.340000 0.000000 0
0.360000 0.000000 0
0.380000 0.000000 0
0.400000 0.000000 0
0.420000 0.000000 0
0.440000 0.000000 0
0.460000 0.000000 0
0.480000 0.000000 0
0.500000 0.000000 0
0.520000 0.000000 0
0.540000 0.000000 0
0.560000 0.000000 0
0.580000 0.000000 0
0.600000 0.000000 0
0.620000 0.000000 0
0.640000 0.000000 0
0.660000 0.000000 0
0.680000 0.000000 0
0.700000 0.000000 0
0.720000 0.000000 0
0.740000 0.000000 0
0.760000 0.000000 0
0.780000 0.000000 0
0.800000 0.000000 0
0.820000 0.000000 0
0.840000 0.000000 0
0.860000 0.000000 0
0.880000 0.000000 0
0.900000 0.000000 0
0.920000 0.000000 0
0.940000 0.000000 0
0.960000 0.000000 0
0.980000 0.000000 0
1.000000 0.000000 0
0.000000 0.020000 0
0.020000 0.020000 0
0.040000 0.020000 0
0.060000 0.020000 0
0.080000 0.020000 0
0.100000 0.020000 0
0.120000 0.020000 0
0.140000 0.020000 0
0.160000 0.020000 0
0.180000 0.020000 0
0.200000 0.020000 0
0.220000 0.020000 0
0.240000 0.020000 0
0.260000 0.020000 0
0.280000 0.020000 0
0.300000 0.020000 0
0.320000 0.020000 0
0.340000 0.020000 0
0.360000 0.020000 0
0.380000 0.020000 0
0.400000 0.020000 0
0.420000 0.020000 0
0.440000 0.020000 0
0.460000 0.020000 0
0.480000 0.020000 0
0.500000 0.020000 0
0.520000 0.020000 0
0.540000 0.020000 0
0.560000 0.020000 0
0.580000 0.020000 0
0.600000 0.020000 0
0.620000 0.020000 0
0.640000 0.020000 0
0.660000 0.020000 0
0.680000 0.020000 0
0.700000 0.020000 0
0.720000 0.020000 0
0.740000 0.020000 0
0.760000 0.020000 0
0.780000 0.020000 0
0.800000 0.020000 0
0.820000 0.020000 0
0.840000 0.020000 0
0.860000 0.020000 0
0.880000 0.020000 0
0.900000 0.020000 0
0.920000 0.020000 0
0.940000 0.020000 0
0.960000 0.020000 0
0.980000 0.020000 0
1.000000 0.020000 0
0.000000 0.040000 0
0.020000 0.040000 0
0.040000 0.040000 0
0.060000 0.040000 0
0.080000 0.040000 0
0.100000 0.040000 0
0.120000 0.040000 0
0.140000 0.040000 0
0.160000 0.040000 0
0.180000 0.040000 0
0.200000 0.040000 0
0.220000 0.040000 0
0.240000 0.040000 0
0.260000 0.040000 0
0.280000 0.040000 0
0.300000 0.040000 0
0.320000 0.040000 0
0.340000 0.040000 0
0.360000 0.040000 0
0.380000 0.040000 0
0.400000 0.040000 0
0.420000 0.040000 0
0.440000 0.040000 0
0.460000 0.040000 0
0.480000 0.040000 0
0.500000 0.040000 0
0.520000 0.040000 0
0.540000 0.040000 0
0.560000 0.040000 0
0.580000 0.040000 0
0.600000 0.040000 0
0.620000 0.040000 0
0.640000 0.040000 0
0.660000 0.040000 0
0.680000 0.040000 0
0.700000 0.040000 0
0.720000 0.040000 0
0.740000 0.040000 0
0.760000 0.040000 0
0.780000 0.040000 0
0.800000 0.040000 0
0.820000 0.040000 0
0.840000 0.040000 0
0.860000 0.040000 0
0.880000 0.040000 0
0.900000 0.040000 0
0.920000 0.040000 0
0.940000 0.040000 0
0.960000 0.040000 0
0.980000 0.040000 0
1.000000 0.040000 0
0.000000 0.060000 0
0.020000 0.060000 0
0.040000 0.060000 0
0.060000 0.060000 0
0.080000 0.060000 0
0.100000 0.060000 0
0.120000 0.060000 0
0.140000 0.060000 0
0.160000 0.060000 0
0.180000 0.060000 0
0.200000 0.060000 0
0.220000 0.060000 0
0.240000 0.060000 0
0.260000 0.060000 0
0.280000 0.060000 0
0.300000 0.060000 0
0.320000 0.060000 0
0.340000 0.060000 0
0.360000 0.060000 0
0.380000 0.060000 0
0.400000 0.060000 0
0.420000 0.060000 0
0.440000 0.060000 0
0.460000 0.060000 0
0.480000 0.060000 0
0.500000 0.060000 0
0.520000 0.060000 0
0.540000 0.060000 0
0.560000 0.060000 0
0.580000 0.060000 0
0.600000 0.060000 0
0.620000 0.060000 0
0.640000 0.060000 0
0.660000 0.060000 0
0.680000 0.060000 0
0.700000 0.060000 0
0.720000 0.060000 0
0.740000 0.060000 0
0.760000 0.060000 0
0.780000 0.060000 0
0.800000 0.060000 0
0.820000 0.060000 0
0.840000 0.060000 0
0.860000 0.060000 0
0.880000 0.060000 0
0.900000 0.060000 0
0.920000 0.060000 0
0.940000 0.060000 0
0.960000 0.060000 0
0.980000 0.060000 0
1.000000 0.060000 0
0.000000 0.080000 0
0.020000 0.080000 0
0.040000 0.080000 0
0.060000 0.080000 0
0.080000 0.080000 0
0.100000 0.080000 0
0.120000 0.080000 0
0.140000 0.080000 0
0.160000 0.080000 0
0.180000 0.080000 0
0.200000 0.080000 0
0.220000 0.080000 0
0.240000 0.080000 0
0.260000 0.080000 0
0.280000 0.080000 0
0.300000 0.080000 0
0.320000 0.080000 0
0.340000 0.080000 0
0.360000 0.080000 0
0.380000 0.080000 0
0.400000 0.080000 0
0.420000 0.080000 0
0.440000 0.080000 0
0.460000 0.080000 0
0.480000 0.080000 0
0.500000 0.080000 0
0.520000 0.080000 0
0.540000 0.080000 0
0.560000 0.080000 0
0.580000 0.080000 0
0.600000 0.080000 0
0.620000 0.080000 0
0.640000 0.080000 0
0.660000 0.080000 0
0.680000 0.080000 0
0.700000 0.080000 0
0.720000 0.080000 0
0.740000 0.080000 0
0.760000 0.080000 0
0.780000 0.080000 0
0.800000 0.080000 0
0.820000 0.080000 0
0.840000 0.080000 0
0.860000 0.080000 0
0.880000 0.080000 0
0.900000 0.080000 0
0.920000 0.080000 0
0.940000 0.080000 0
0.960000 0.080000 0
0.980000 0.080000 0
1.000000 0.080000 0
0.000000 0.100000 0
0.020000 0.100000 0
0.040000 0.100000 0
0.060000 0.100000 0
0.080000 0.100000 0
0.100000 0.100000 0
0.120000 0.100000 0
0.140000 0.100000 0
0.160000 0.100000 0
0.180000 0.100000 0
0.200000 0.100000 0
0.220000 0.100000 0
0.240000 0.100000 0
0.260000 0.100000 0
0.280000 0.100000 0
0.300000 0.100000 0
0.320000 0.100000 0
0.340000 0.100000 0
0.360000 0.100000 0
0.380000 0.100000 0
0.400000 0.100000 0
0.420000 0.100000 0
0.440000 0.100000 0
0.460000 0.100000 0
0.480000 0.100000 0
0.500000 0.100000 0
0.520000 0.100000 0
0.540000 0.100000 0
0.560000 0.100000 0
0.580000 0.100000 0
0.600000 0.100000 0
0.620000 0.100000 0
0.640000 0.100000 0
0.660000 0.100000 0
0.680000 0.100000 0
0.700000 0.100000 0
0.720000 0.100000 0
0.740000 0.100000 0
0.760000 0.100000 0
0.780000 0.100000 0
0.800000 0.100000 0
0.820000 0.100000 0
0.840000 0.100000 0
0.860000 0.100000 0
0.880000 0.100000 0
0.900000 0.100000 0
0.920000 0.100000 0
0.940000 0.100000 0
0.960000 0.100000 0
0.980000 0.100000 0
1.000000 0.100000 0
0.000000 0.120000 0
0.020000 0.120000 0
0.040000 0.120000 0
0.060000 0.120000 0
0.080000 0.120000 0
0.100000 0.120000 0
0.120000 0.120000 0
0.140000 0.120000 0
0.160000 0.120000 0
0.180000 0.120000 0
0.200000 0.120000 0
0.220000 0.120000 0
0.240000 0.120000 0
0.260000 0.120000 0
0.280000 0.120000 0
0.300000 0.120000 0
0.320000 0.120000 0
0.340000 0.120000 0
0.360000 0.120000 0
0.380000 0.120000 0
0.400000 0.120000 0
0.420000 0.120000 0
0.440000 0.120000 0
0.460000 0.120000 0
0.480000 0.120000 0
0.500000 0.120000 0
0.520000 0.120000 0
0.540000 0.120000 0
0.560000 0.120000 0
0.580000 0.120000 0
0.600000 0.120000 0
0.620000 0.120000 0
0.640000 0.120000 0
0.660000 0.120000 0
0.680000 0.120000 0
0.700000 0.120000 0
0.720000 0.120000 0
0.740000 0.120000 0
0.760000 0.120000 0
0.780000 0.120000 0
0.800000 0.120000 0
0.820000 0.120000 0
0.840000 0.120000 0
0.860000 0.120000 0
0.880000 0.120000 0
0.900000 0.120000 0
0.920000 0.120000 0
0.940000 0.120000 0
0.960000 0.120000 0
0.980000 0.120000 0
1.000000 0.120000 0
0.000000 0.140000 0
0.020000 0.140000 0
0.040000 0.140000 0
0.060000 0.140000 0
0.080000 0.140000 0
0.100000 0.140000 0
0.120000 0.140000 0
0.140000 0.140000 0
0.160000 0.140000 0
0.180000 0.140000 0
0.200000 0.140000 0
0.220000 0.140000 0
0.240000 0.140000 0
0.260000 0.140000 0
0.280000 0.140000 0
0.300000 0.140000 0
0.320000 0.140000 0
0.340000 0.140000 0
0.360000 0.140000 0
0.380000 0.140000 0
0.400000 0.140000 0
0.420000 0.140000 0
0.440000 0.140000 0
0.460000 0.140000 0
0.480000 0.140000 0
0.500000 0.140000 0
0.520000 0.140000 0
0.540000 0.140000 0
0.560000 0.140000 0
0.580000 0.140000 0
0.600000 0.140000 0
0.620000 0.140000 0
0.640000 0.140000 0
0.660000 0.140000 0
0.680000 0.140000 0
0.700000 0.140000 0
0.720000 0.140000 0
0.740000 0.140000 0
0.760000 0.140000 0
0.780000 0.140000 0
0.800000 0.140000 0
0.820000 0.140000 0
0.840000 0.140000 0
0.860000 0.140000 0
0.880000 0.140000 0
0.900000 0.140000 0
0.920000 0.140000 0
0.940000 0.140000 0
0.960000 0.140000 0
0.980000 0.140000 0
1.000000 0.140000 0
0.000000 0.160000 0
0.020000 0.160000 0
0.040000 0.160000 0
0.060000 0.160000 0
0.080000 0.160000 0
0.100000 0.160000 0
0.120000 0.160000 0
0.140000 0.160000 0
0.160000 0.160000 0
0.180000 0.160000 0
0.200000 0.160000 0
0.220000 0.160000 0
0.240000 0.160000 0
0.260000 0.160000 0
0.280000 0.160000 0
0.300000 0.160000 0
0.320000 0.160000 0
0.340000 0.160000 0
0.360000 0.160000 0
0.380000 0.160000 0
0.400000 0.160000 0
0.420000 0.160000 0
0.440000 0.160000 0
0.460000 0.160000 0
0.480000 0.160000 0
0.500000 0.160000 0
0.520000 0.160000 0
0.540000 0.160000 0
0.560000 0.160000 0
0.580000 0.160000 0
0.600000 0.160000 0
0.620000 0.160000 0
0.640000 0.160000 0
0.660000 0.160000 0
0.680000 0.160000 0
0.700000 0.160000 0
0.720000 0.160000 0
0.740000 0.160000 0
0.760000 0.160000 0
0.780000 0.160000 0
0.800000 0.160000 0
0.820000 0.160000 0
0.840000 0.160000 0
0.860000 0.160000 0
0.880000 0.160000 0
0.900000 0.160000 0
0.920000 0.160000 0
0.940000 0.160000 0
0.960000 0.160000 0
0.980000 0.160000 0
1.000000 0.160000 0
0.000000 0.180000 0
0.020000 0.180000 0
0.040000 0.180000 0
0.060000 0.180000 0
0.080000 0.180000 0
0.100000 0.180000 0
0.120000 0.180000 0
0.140000 0.180000 0
0.160000 0.180000 0
0.180000 0.180000 0
0.200000 0.180000 0
0.220000 0.180000 0
0.240000 0.180000 0
0.260000 0.180000 0
0.280000 0.180000 0
0.300000 0.180000 0
0.320000 0.180000 0
0.340000 0.180000 0
0.360000 0.180000 0
0.380000 0.180000 0
0.400000 0.180000 0
0.420000 0.180000 0
0.440000 0.180000 0
0.460000 0.180000 0
0.480000 0.180000 0
0.500000 0.180000 0
0.520000 0.180000 0
0.540000 0.180000 0
0.560000 0.180000 0
0.580000 0.180000 0
0.600000 0.180000 0
0.620000 0.180000 0
[...]
POINT_DATA 2601 

VECTORS velocity float
0.000000 0.000000 0
-0.000000 0.000000 0
-0.000000 0.000000 0
-0.000000 0.000000 0
-0.000000 0.000000 0
0.000000 0.000000 0
0.000000 0.000000 0
0.000000 0.000000 0
0.000000 0.000000 0
0.000000 0.000000 0
-0.000000 0.000000 0
-0.000000 0.000000 0
-0.000000 0.000000 0
-0.000000 0.000000 0
-0.000000 0.000000 0
-0.000000 0.000000 0
0.000000 0.000000 0
0.000000 0.000000 0
0.000000 0.000000 0
0.000000 0.000000 0
0.000000 0.000000 0
0.000000 0.000000 0
-0.000000 0.000000 0
-0.000000 0.000000 0
-0.000000 0.000000 0
-0.000000 0.000000 0
-0.000000 0.000000 0
-0.000000 0.000000 0
0.000000 0.000000 0
0.000000 0.000000 0
0.000000 0.000000 0
0.000000 0.000000 0
0.000000 0.000000 0
0.000000 0.000000 0
0.000000 0.000000 0
-0.000000 0.000000 0
-0.000000 0.000000 0
-0.000000 0.000000 0
-0.000000 0.000000 0
-0.000000 0.000000 0
-0.000000 0.000000 0
-0.000000 0.000000 0
0.000000 0.000000 0
0.000000 0.000000 0
0.000000 0.000000 0
0.000000 0.000000 0
0.000000 0.000000 0
0.000000 0.000000 0
-0.000000 0.000000 0
-0.000000 0.000000 0
0.000000 0.000000 0
0.000000 -0.000000 0
0.000057 -0.000057 0
0.000082 -0.000025 0
0.000003 0.000046 0
-0.000212 0.000129 0
-0.000567 0.000210 0
-0.001055 0.000282 0
-0.001659 0.000344 0
-0.002362 0.000394 0
-0.003145 0.000433 0
-0.003987 0.000461 0
-0.004872 0.000478 0
-0.005780 0.000487 0
-0.006696 0.000488 0
-0.007604 0.000480 0
-0.008491 0.000465 0
-0.009342 0.000444 0
-0.010147 0.000416 0
-0.010893 0.000382 0
-0.011570 0.000343 0
-0.012168 0.000298 0
-0.012677 0.000249 0
-0.013089 0.000195 0
-0.013397 0.000138 0
-0.013594 0.000078 0
-0.013676 0.000015 0
-0.013639 -0.000050 0
-0.013480 -0.000115 0
-0.013201 -0.000180 0
-0.012803 -0.000244 0
-0.012291 -0.000304 0
-0.011670 -0.000360 0
-0.010950 -0.000411 0
-0.010144 -0.000455 0
-0.009263 -0.000491 0
-0.008325 -0.000517 0
-0.007348 -0.000533 0
-0.006352 -0.000538 0
-0.005357 -0.000530 0
-0.004386 -0.000510 0
-0.003461 -0.000478 0
-0.002605 -0.000433 0
-0.001838 -0.000377 0
-0.001178 -0.000310 0
-0.000643 -0.000235 0
-0.000244 -0.000154 0
0.000014 -0.000072 0
0.000135 0.000003 0
0.000139 0.000058 0
0.000067 0.000067 0
0.000000 0.000000 0
0.000000 -0.000000 0
0.000026 -0.000083 0
-0.000053 0.000054 0
-0.000324 0.000295 0
-0.000825 0.000571 0
-0.001564 0.000843 0
-0.002529 0.001092 0
-0.003697 0.001308 0
-0.005039 0.001485 0
-0.006520 0.001625 0
-0.008109 0.001726 0
-0.009772 0.001792 0
-0.011477 0.001824 0
-0.013196 0.001824 0
-0.014899 0.001795 0
-0.016560 0.001739 0
-0.018154 0.001657 0
-0.019659 0.001551 0
-0.021053 0.001423 0
-0.022315 0.001274 0
-0.023427 0.001106 0
-0.024373 0.000921 0
-0.025135 0.000720 0
-0.025702 0.000505 0
-0.026062 0.000279 0
-0.026207 0.000045 0
-0.026129 -0.000196 0
-0.025827 -0.000437 0
-0.025300 -0.000677 0
-0.024554 -0.000911 0
-0.023596 -0.001133 0
-0.022439 -0.001340 0
-0.021100 -0.001526 0
-0.019600 -0.001687 0
-0.017965 -0.001818 0
-0.016223 -0.001915 0
-0.014409 -0.001974 0
-0.012557 -0.001991 0
-0.010706 -0.001965 0
-0.008896 -0.001895 0
-0.007166 -0.001781 0
-0.005555 -0.001624 0
-0.004101 -0.001427 0
-0.002834 -0.001194 0
-0.001784 -0.000934 0
-0.000969 -0.000657 0
-0.000397 -0.000379 0
-0.000059 -0.000124 0
0.000073 0.000068 0
0.000060 0.000139 0
0.000000 -0.000000 0
0.000000 0.000000 0
-0.000044 -0.000004 0
-0.000296 0.000325 0
-0.000824 0.000818 0
-0.001661 0.001369 0
-0.002810 0.001914 0
-0.004254 0.002415 0
-0.005964 0.002853 0
-0.007903 0.003216 0
-0.010026 0.003503 0
-0.012292 0.003712 0
-0.014655 0.003847 0
-0.017073 0.003912 0
-0.019506 0.003909 0
-0.021913 0.003844 0
-0.024259 0.003721 0
-0.026509 0.003543 0
-0.028629 0.003314 0
-0.030591 0.003038 0
-0.032365 0.002717 0
-0.033925 0.002356 0
-0.035249 0.001957 0
-0.036315 0.001525 0
-0.037104 0.001065 0
-0.037602 0.000582 0
-0.037796 0.000081 0
-0.037679 -0.000430 0
-0.037248 -0.000944 0
-0.036503 -0.001453 0
-0.035451 -0.001948 0
-0.034104 -0.002419 0
-0.032480 -0.002856 0
-0.030602 -0.003250 0
-0.028500 -0.003591 0
-0.026208 -0.003868 0
-0.023768 -0.004073 0
-0.021223 -0.004199 0
-0.018623 -0.004240 0
-0.016020 -0.004191 0
-0.013466 -0.004050 0
-0.011016 -0.003818 0
-0.008721 -0.003499 0
-0.006632 -0.003098 0
-0.004790 -0.002627 0
-0.003233 -0.002100 0
-0.001985 -0.001542 0
-0.001056 -0.000982 0
-0.000440 -0.000467 0
-0.000104 -0.000061 0
0.000010 0.000140 0
0.000000 -0.000000 0
0.000000 0.000000 0
-0.000130 0.000214 0
-0.000585 0.000834 0
-0.001406 0.001659 0
-0.002608 0.002555 0
-0.004185 0.003436 0
-0.006112 0.004246 0
-0.008352 0.004956 0
-0.010860 0.005548 0
-0.013586 0.006014 0
-0.016479 0.006356 0
-0.019484 0.006574 0
-0.022551 0.006675 0
-0.025629 0.006664 0
-0.028671 0.006548 0
-0.031630 0.006334 0
-0.034465 0.006027 0
-0.037134 0.005633 0
-0.039600 0.005159 0
-0.041829 0.004609 0
-0.043787 0.003991 0
-0.045445 0.003311 0
-0.046778 0.002575 0
-0.047763 0.001792 0
-0.048381 0.000971 0
-0.048619 0.000122 0
-0.048468 -0.000744 0
-0.047922 -0.001614 0
-0.046986 -0.002474 0
-0.045666 -0.003309 0
-0.043978 -0.004104 0
-0.041944 -0.004842 0
-0.039592 -0.005507 0
-0.036960 -0.006081 0
-0.034089 -0.006551 0
-0.031029 -0.006900 0
-0.027835 -0.007118 0
-0.024565 -0.007195 0
-0.021284 -0.007123 0
-0.018055 -0.006899 0
-0.014944 -0.006526 0
-0.012013 -0.006008 0
-0.009322 -0.005358 0
-0.006923 -0.004593 0
-0.004860 -0.003740 0
-0.003165 -0.002834 0
-0.001852 -0.001924 0
-0.000917 -0.001077 0
-0.000336 -0.000382 0
-0.000057 0.000034 0
0.000000 0.000000 0
0.000000 0.000000 0
-0.000218 0.000581 0
-0.000888 0.001601 0
-0.002017 0.002841 0
-0.003599 0.004148 0
-0.005613 0.005417 0
-0.008023 0.006582 0
-0.010784 0.007601 0
-0.013843 0.008451 0
-0.017144 0.009122 0
-0.020626 0.009610 0
-0.024230 0.009919 0
-0.027897 0.010056 0
-0.031568 0.010029 0
-0.035189 0.009845 0
-0.038708 0.009515 0
-0.042073 0.009047 0
-0.045240 0.008450 0
-0.048162 0.007732 0
-0.050800 0.006903 0
-0.053117 0.005972 0
-0.055077 0.004948 0
-0.056652 0.003843 0
-0.057815 0.002669 0
-0.058544 0.001438 0
-0.058825 0.000168 0
-0.058647 -0.001127 0
-0.058004 -0.002426 0
-0.056901 -0.003710 0
-0.055346 -0.004956 0
-0.053358 -0.006141 0
-0.050961 -0.007242 0
-0.048188 -0.008234 0
-0.045082 -0.009094 0
-0.041692 -0.009798 0
-0.038073 -0.010327 0
-0.034289 -0.010663 0
-0.030408 -0.010791 0
-0.026501 -0.010701 0
-0.022644 -0.010391 0
-0.018910 -0.009861 0
-0.015373 -0.009121 0
-0.012100 -0.008187 0
-0.009153 -0.007088 0
-0.006583 -0.005859 0
-0.004429 -0.004551 0
-0.002713 -0.003230 0
-0.001438 -0.001982 0
-0.000590 -0.000922 0
-0.000130 -0.000196 0
0.000000 0.000000 0
0.000000 -0.000000 0
-0.000304 0.001101 0
-0.001188 0.002633 0
-0.002628 0.004371 0
-0.004594 0.006151 0
-0.007046 0.007860 0
-0.009937 0.009418 0
-0.013210 0.010777 0
-0.016806 0.011908 0
-0.020659 0.012797 0
-0.024704 0.013441 0
-0.028873 0.013844 0
-0.033102 0.014012 0
-0.037326 0.013957 0
-0.041486 0.013688 0
-0.045521 0.013218 0
-0.049376 0.012559 0
-0.053000 0.011722 0
-0.056342 0.010719 0
-0.059358 0.009564 0
-0.062005 0.008268 0
-0.064245 0.006846 0
-0.066045 0.005312 0
-0.067376 0.003685 0
-0.068214 0.001982 0
-0.068541 0.000224 0
-0.068346 -0.001565 0
-0.067625 -0.003359 0
-0.066379 -0.005132 0
-0.064619 -0.006853 0
-0.062366 -0.008490 0
-0.059645 -0.010012 0
-0.056495 -0.011385 0
-0.052961 -0.012578 0
-0.049097 -0.013560 0
-0.044965 -0.014303 0
-0.040635 -0.014783 0
-0.036182 -0.014982 0
-0.031687 -0.014887 0
-0.027231 -0.014491 0
-0.022899 -0.013797 0
-0.018772 -0.012818 0
-0.014926 -0.011578 0
-0.011433 -0.010110 0
-0.008352 -0.008464 0
-0.005730 -0.006704 0
-0.003599 -0.004914 0
-0.001973 -0.003199 0
-0.000847 -0.001691 0
-0.000202 -0.000556 0
0.000000 0.000000 0
0.000000 -0.000000 0
-0.000385 0.001769 0
-0.001478 0.003926 0
-0.003225 0.006247 0
-0.005570 0.008566 0
-0.008457 0.010760 0
-0.011822 0.012747 0
-0.015598 0.014471 0
-0.019717 0.015900 0
-0.024105 0.017019 0
-0.028689 0.017824 0
-0.033399 0.018317 0
-0.038161 0.018510 0
-0.042908 0.018413 0
-0.047574 0.018040 0
-0.052094 0.017406 0
-0.056408 0.016526 0
-0.060460 0.015416 0
-0.064196 0.014090 0
-0.067566 0.012566 0
-0.070524 0.010859 0
-0.073030 0.008988 0
-0.075047 0.006974 0
-0.076542 0.004837 0
-0.077491 0.002604 0
-0.077873 0.000300 0
-0.077677 -0.002043 0
-0.076895 -0.004393 0
-0.075530 -0.006715 0
-0.073595 -0.008969 0
-0.071107 -0.011115 0
-0.068098 -0.013113 0
-0.064606 -0.014919 0
-0.060679 -0.016492 0
-0.056377 -0.017794 0
-0.051766 -0.018789 0
-0.046922 -0.019446 0
-0.041925 -0.019739 0
-0.036863 -0.019652 0
-0.031828 -0.019178 0
-0.026910 -0.018320 0
-0.022199 -0.017093 0
-0.017784 -0.015526 0
-0.013742 -0.013662 0
-0.010144 -0.011562 0
-0.007046 -0.009304 0
-0.004492 -0.006987 0
-0.002507 -0.004734 0
-0.001102 -0.002693 0
-0.000271 -0.001044 0
0.000000 -0.000000 0
0.000000 0.000000 0
-0.000462 0.002579 0
-0.001756 0.005473 0
-0.003801 0.008463 0
-0.006517 0.011384 0
-0.009830 0.014111 0
-0.013660 0.016559 0
-0.017928 0.018672 0
-0.022556 0.020414 0
-0.027463 0.021770 0
-0.032570 0.022735 0
-0.037798 0.023316 0
-0.043073 0.023522 0
-0.048319 0.023369 0
-0.053466 0.022873 0
-0.058447 0.022052 0
-0.063197 0.020925 0
-0.067656 0.019509 0
-0.071767 0.017825 0
-0.075476 0.015892 0
-0.078735 0.013733 0
-0.081500 0.011368 0
-0.083731 0.008825 0
-0.085394 0.006129 0
-0.086461 0.003313 0
-0.086911 0.000410 0
-0.086728 -0.002544 0
-0.085907 -0.005506 0
-0.084449 -0.008432 0
-0.082364 -0.011276 0
-0.079673 -0.013987 0
-0.076405 -0.016513 0
-0.072602 -0.018803 0
-0.068314 -0.020806 0
-0.063602 -0.022473 0
-0.058537 -0.023759 0
-0.053200 -0.024625 0
-0.047678 -0.025041 0
-0.042064 -0.024984 0
-0.036456 -0.024444 0
-0.030956 -0.023425 0
-0.025663 -0.021944 0
-0.020672 -0.020035 0
-0.016074 -0.017750 0
-0.011950 -0.015160 0
-0.008368 -0.012356 0
-0.005384 -0.009454 0
-0.003036 -0.006589 0
-0.001350 -0.003927 0
-0.000338 -0.001657 0
0.000000 -0.000000 0
0.000000 0.000000 0
-0.000535 0.003525 0
-0.002021 0.007264 0
-0.004353 0.011008 0
-0.007430 0.014595 0
-0.011157 0.017902 0
-0.015440 0.020845 0
-0.020189 0.023367 0
-0.025313 0.025435 0
-0.030724 0.027033 0
-0.036337 0.028159 0
-0.042067 0.028820 0
-0.047835 0.029030 0
-0.053561 0.028806 0
-0.059171 0.028168 0
-0.064595 0.027137 0
-0.069765 0.025736 0
-0.074617 0.023986 0
-0.079091 0.021910 0
-0.083131 0.019534 0
-0.086686 0.016883 0
-0.089708 0.013984 0
-0.092157 0.010868 0
-0.093995 0.007568 0
-0.095192 0.004121 0
-0.095724 0.000568 0
-0.095576 -0.003046 0
-0.094738 -0.006673 0
-0.093212 -0.010258 0
-0.091005 -0.013745 0
-0.088138 -0.017074 0
-0.084641 -0.020184 0
-0.080554 -0.023010 0
-0.075930 -0.025492 0
-0.070833 -0.027571 0
-0.065335 -0.029191 0
-0.059521 -0.030305 0
-0.053484 -0.030876 0
-0.047324 -0.030874 0
-0.041147 -0.030286 0
-0.035062 -0.029114 0
-0.029179 -0.027377 0
-0.023603 -0.025114 0
-0.018438 -0.022384 0
-0.013777 -0.019268 0
-0.009700 -0.015870 0
-0.006277 -0.012319 0
-0.003562 -0.008767 0
-0.001595 -0.005391 0
-0.000402 -0.002394 0
0.000000 -0.000000 0
0.000000 0.000000 0
-0.000603 0.004600 0
-0.002274 0.009291 0
-0.004881 0.013872 0
-0.008306 0.018187 0
-0.012434 0.022121 0
-0.017158 0.025591 0
-0.022373 0.028544 0
-0.027980 0.030949 0
-0.033881 0.032794 0
-0.039985 0.034079 0
-0.046202 0.034814 0
-0.052447 0.035016 0
-0.058638 0.034706 0
-0.064697 0.033908 0
-0.070550 0.032646 0
-0.076128 0.030946 0
-0.081363 0.028835 0
-0.086193 0.026339 0
-0.090560 0.023487 0
-0.094410 0.020310 0
-0.097694 0.016839 0
-0.100368 0.013111 0
-0.102392 0.009164 0
-0.103735 0.005043 0
-0.104369 0.000794 0
-0.104278 -0.003529 0
-0.103448 -0.007870 0
-0.101880 -0.012166 0
-0.099580 -0.016349 0
-0.096566 -0.020351 0
-0.092867 -0.024097 0
-0.088524 -0.027514 0
-0.083589 -0.030527 0
-0.078126 -0.033068 0
-0.072212 -0.035070 0
-0.065934 -0.036476 0
-0.059389 -0.037237 0
-0.052685 -0.037321 0
-0.045936 -0.036706 0
-0.039258 -0.035394 0
-0.032773 -0.033403 0
-0.026599 -0.030775 0
-0.020852 -0.027577 0
-0.015637 -0.023898 0
-0.011052 -0.019856 0
-0.007180 -0.015591 0
-0.004091 -0.011271 0
-0.001839 -0.007087 0
-0.000466 -0.003253 0
0.000000 0.000000 0
0.000000 -0.000000 0
-0.000669 0.005799 0
-0.002514 0.011542 0
-0.005386 0.017041 0
-0.009146 0.022148 0
-0.013662 0.026754 0
-0.018812 0.030784 0
-0.024479 0.034189 0
-0.030553 0.036943 0
-0.036930 0.039038 0
-0.043511 0.040480 0
-0.050200 0.041282 0
-0.056908 0.041466 0
-0.063550 0.041056 0
-0.070046 0.040081 0
-0.076318 0.038568 0
-0.082294 0.036548 0
-0.087906 0.034051 0
-0.093089 0.031108 0
-0.097782 0.027752 0
-0.101931 0.024017 0
-0.105484 0.019941 0
-0.108394 0.015566 0
-0.110620 0.010935 0
-0.112126 0.006098 0
-0.112885 0.001111 0
-0.112875 -0.003967 0
-0.112082 -0.009070 0
-0.110501 -0.014127 0
-0.108137 -0.019059 0
-0.105006 -0.023787 0
-0.101135 -0.028226 0
-0.096562 -0.032289 0
-0.091339 -0.035890 0
-0.085531 -0.038948 0
-0.079216 -0.041383 0
-0.072484 -0.043128 0
-0.065437 -0.044124 0
-0.058188 -0.044327 0
-0.050859 -0.043713 0
-0.043578 -0.042277 0
-0.036476 -0.040036 0
-0.029686 -0.037036 0
-0.023336 -0.033346 0
-0.017550 -0.029068 0
-0.012438 -0.024327 0
-0.008103 -0.019280 0
-0.004629 -0.014108 0
-0.002086 -0.009017 0
-0.000529 -0.004233 0
0.000000 0.000000 0
0.000000 -0.000000 0
-0.000731 0.007114 0
-0.002743 0.014008 0
-0.005869 0.020503 0
-0.009950 0.026463 0
-0.014839 0.031787 0
-0.020400 0.036409 0
-0.026504 0.040286 0
-0.033031 0.043401 0
-0.039869 0.045751 0
-0.046911 0.047348 0
-0.054058 0.048211 0
-0.061216 0.048366 0
-0.068297 0.047844 0
-0.075217 0.046675 0
-0.081899 0.044894 0
-0.088267 0.042534 0
-0.094251 0.039630 0
-0.099785 0.036216 0
-0.104808 0.032330 0
-0.109262 0.028011 0
-0.113093 0.023302 0
-0.116252 0.018247 0
-0.118697 0.012897 0
-0.120389 0.007308 0
-0.121296 0.001542 0
-0.121394 -0.004333 0
-0.120666 -0.010244 0
-0.119104 -0.016110 0
-0.116709 -0.021844 0
-0.113493 -0.027353 0
-0.109480 -0.032541 0
-0.104706 -0.037309 0
-0.099221 -0.041558 0
-0.093089 -0.045191 0
-0.086389 -0.048118 0
-0.079213 -0.050255 0
-0.071668 -0.051533 0
-0.063872 -0.051898 0
-0.055956 -0.051316 0
-0.048058 -0.049777 0
-0.040322 -0.047295 0
-0.032894 -0.043915 0
-0.025919 -0.039713 0
-0.019537 -0.034796 0
-0.013877 -0.029303 0
-0.009059 -0.023401 0
-0.005184 -0.017288 0
-0.002340 -0.011187 0
-0.000594 -0.005338 0
0.000000 -0.000000 0
0.000000 0.000000 0
-0.000790 0.008542 0
-0.002962 0.016680 0
-0.006330 0.024247 0
-0.010718 0.031118 0
-0.015966 0.037205 0
-0.021922 0.042449 0
-0.028447 0.046820 0
-0.035411 0.050308 0
-0.042693 0.052918 0
-0.050181 0.054669 0
-0.057771 0.055587 0
-0.065365 0.055705 0
-0.072872 0.055058 0
-0.080207 0.053682 0
-0.087289 0.051617 0
-0.094042 0.048900 0
-0.100395 0.045569 0
-0.106281 0.041665 0
-0.111636 0.037228 0
-0.116401 0.032302 0
-0.120521 0.026932 0
-0.123945 0.021170 0
-0.126627 0.015071 0
-0.128527 0.008697 0
-0.129609 0.002116 0
-0.129846 -0.004597 0
-0.129215 -0.011360 0
-0.127706 -0.018084 0
-0.125314 -0.024670 0
-0.122047 -0.031017 0
-0.117926 -0.037013 0
-0.112982 -0.042548 0
-0.107263 -0.047507 0
-0.100831 -0.051780 0
-0.093764 -0.055259 0
-0.086157 -0.057849 0
-0.078119 -0.059464 0
-0.069775 -0.060039 0
-0.061264 -0.059527 0
-0.052734 -0.057911 0
-0.044344 -0.055200 0
-0.036254 -0.051438 0
-0.028627 -0.046704 0
-0.021622 -0.041109 0
-0.015387 -0.034805 0
-0.010062 -0.027973 0
-0.005767 -0.020827 0
-0.002606 -0.013607 0
-0.000662 -0.006573 0
0.000000 -0.000000 0
0.000000 0.000000 0
-0.000847 0.010077 0
-0.003171 0.019548 0
-0.006770 0.028260 0
-0.011453 0.036100 0
-0.017043 0.042991 0
-0.023378 0.048889 0
-0.030307 0.053774 0
-0.037689 0.057646 0
-0.045398 0.060521 0
-0.053316 0.062426 0
-0.061333 0.063395 0
-0.069348 0.063468 0
-0.077268 0.062686 0
-0.085006 0.061092 0
-0.092478 0.058729 0
-0.099610 0.055640 0
-0.106327 0.051868 0
-0.112563 0.047457 0
-0.118254 0.042450 0
-0.123337 0.036897 0
-0.127757 0.030846 0
-0.131462 0.024353 0
-0.134402 0.017479 0
-0.136533 0.010290 0
-0.137818 0.002861 0
-0.138223 -0.004727 0
-0.137724 -0.012384 0
-0.136303 -0.020012 0
-0.133952 -0.027503 0
-0.130673 -0.034741 0
-0.126480 -0.041607 0
-0.121402 -0.047972 0
-0.115481 -0.053709 0
-0.108776 -0.058690 0
-0.101365 -0.062792 0
-0.093342 -0.065900 0
-0.084820 -0.067915 0
-0.075930 -0.068753 0
-0.066816 -0.068357 0
-0.057641 -0.066697 0
-0.048575 -0.063775 0
-0.039797 -0.059632 0
-0.031489 -0.054346 0
-0.023828 -0.048036 0
-0.016988 -0.040862 0
-0.011126 -0.033021 0
-0.006385 -0.024744 0
-0.002889 -0.016291 0
-0.000735 -0.007944 0
0.000000 0.000000 0
0.000000 0.000000 0
-0.000900 0.011713 0
-0.003370 0.022603 0
-0.007189 0.032529 0
-0.012152 0.041392 0
-0.018070 0.049130 0
-0.024767 0.055712 0
-0.032080 0.061131 0
-0.039864 0.065399 0
-0.047982 0.068544 0
-0.056310 0.070603 0
-0.064736 0.071619 0
-0.073156 0.071640 0
-0.081473 0.070715 0
-0.089599 0.068892 0
-0.097451 0.066221 0
-0.104952 0.062749 0
-0.112029 0.058523 0
-0.118613 0.053591 0
-0.124639 0.048002 0
-0.130047 0.041805 0
-0.134778 0.035057 0
-0.138777 0.027814 0
-0.141994 0.020142 0
-0.144381 0.012113 0
-0.145896 0.003806 0
-0.146503 -0.004690 0
-0.146172 -0.013280 0
-0.144878 -0.021856 0
-0.142608 -0.030301 0
-0.139358 -0.038488 0
-0.135136 -0.046284 0
-0.129963 -0.053547 0
-0.123877 -0.060133 0
-0.116933 -0.065895 0
-0.109205 -0.070693 0
-0.100787 -0.074394 0
-0.091794 -0.076877 0
-0.082361 -0.078043 0
-0.072642 -0.077816 0
-0.062808 -0.076152 0
-0.053047 -0.073044 0
-0.043554 -0.068525 0
-0.034531 -0.062673 0
-0.026180 -0.055611 0
-0.018697 -0.047507 0
-0.012265 -0.038575 0
-0.007049 -0.029064 0
-0.003193 -0.019257 0
-0.000813 -0.009462 0
0.000000 0.000000 0
0.000000 -0.000000 0
-0.000951 0.013446 0
-0.003559 0.025836 0
-0.007587 0.037043 0
-0.012817 0.046981 0
-0.019046 0.055606 0
-0.026086 0.062900 0
-0.033766 0.068871 0
-0.041930 0.073547 0
-0.050436 0.076968 0
-0.059155 0.079181 0
-0.067970 0.080241 0
-0.076775 0.080205 0
-0.085471 0.079129 0
-0.093970 0.077070 0
-0.102187 0.074082 0
-0.110045 0.070218 0
-0.117472 0.065529 0
-0.124399 0.060067 0
-0.130761 0.053885 0
-0.136496 0.047035 0
-0.141545 0.039576 0
-0.145852 0.031569 0
-0.149363 0.023083 0
-0.152029 0.014193 0
-0.153804 0.004983 0
-0.154645 -0.004452 0
-0.154517 -0.014009 0
-0.153392 -0.023575 0
-0.151247 -0.033022 0
-0.148072 -0.042214 0
-0.143865 -0.051002 0
-0.138643 -0.059231 0
-0.132436 -0.066739 0
-0.125292 -0.073362 0
-0.117282 -0.078937 0
-0.108497 -0.083311 0
-0.099052 -0.086341 0
-0.089087 -0.087906 0
-0.078762 -0.087910 0
-0.068261 -0.086292 0
-0.057785 -0.083030 0
-0.047550 -0.078148 0
-0.037780 -0.071719 0
-0.028701 -0.063870 0
-0.020535 -0.054778 0
-0.013494 -0.044670 0
-0.007767 -0.033816 0
-0.003523 -0.022527 0
-0.000898 -0.011137 0
0.000000 -0.000000 0
0.000000 -0.000000 0
-0.001000 0.015272 0
-0.003738 0.029239 0
-0.007964 0.041788 0
-0.013447 0.052851 0
-0.019970 0.062399 0
-0.027334 0.070432 0
-0.035360 0.076975 0
-0.043883 0.082069 0
-0.052755 0.085770 0
-0.061841 0.088138 0
-0.071023 0.089239 0
-0.080190 0.089141 0
-0.089244 0.087910 0
-0.098094 0.085608 0
-0.106658 0.082296 0
-0.114858 0.078034 0
-0.122622 0.072877 0
-0.129883 0.066880 0
-0.136575 0.060099 0
-0.142637 0.052590 0
-0.148009 0.044413 0
-0.152633 0.035632 0
-0.156455 0.026320 0
-0.159420 0.016554 0
-0.161480 0.006422 0
-0.162588 -0.003976 0
-0.162702 -0.014533 0
-0.161787 -0.025126 0
-0.159813 -0.035621 0
-0.156761 -0.045870 0
-0.152623 -0.055713 0
-0.147403 -0.064977 0
-0.141124 -0.073484 0
-0.133828 -0.081049 0
-0.125578 -0.087488 0
-0.116461 -0.092623 0
-0.106593 -0.096287 0
-0.096113 -0.098333 0
-0.085190 -0.098642 0
-0.074017 -0.097129 0
-0.062812 -0.093755 0
-0.051809 -0.088530 0
-0.041257 -0.081522 0
-0.031410 -0.072855 0
-0.022519 -0.062715 0
-0.014825 -0.051344 0
-0.008548 -0.039035 0
-0.003883 -0.026126 0
-0.000992 -0.012984 0
0.000000 -0.000000 0
0.000000 -0.000000 0
-0.001046 0.017184 0
-0.003907 0.032801 0
-0.008320 0.046752 0
-0.014041 0.058987 0
-0.020840 0.069493 0
-0.028510 0.078290 0
-0.036859 0.085420 0
-0.045717 0.090942 0
-0.054930 0.094926 0
-0.064359 0.097449 0
-0.073880 0.098590 0
-0.083384 0.098426 0
-0.092769 0.097033 0
-0.101947 0.094484 0