# vtk DataFile Version 2.0
generated by CFD-lab course output (written by Tobias Neckel) 
ASCII

DATASET STRUCTURED_GRID
DIMENSIONS  51 51 1 
POINTS 2601 float

0.000000 0.000000 0
0.020000 0.000000 0
0.040000 0.000000 0
0.060000 0.000000 0
0.080000 0.000000 0
0.100000 0.000000 0
0.120000 0.000000 0
0.140000 0.000000 0
0.160000 0.000000 0
0.180000 0.000000 0
0.200000 0.000000 0
0.220000 0.000000 0
0.240000 0.000000 0
0.260000 0.000000 0
0.280000 0.000000 0
0.300000 0.000000 0
0.320000 0.000000 0
0.340000 0.000000 0
0.360000 0.000000 0
0.380000 0.000000 0
0.400000 0.000000 0
0.420000 0.000000 0
0.440000 0.000000 0
0.460000 0.000000 0
0.480000 0.000000 0
0.500000 0.000000 0
0.520000 0.000000 0
0.540000 0.000000 0
0.560000 0.000000 0
0.580000 0.000000 0
0.600000 0.000000 0
0.620000 0.000000 0
0.640000 0.000000 0
0.660000 0.000000 0
0.680000 0.000000 0
0.700000 0.000000 0
0.720000 0.000000 0
0.740000 0.000000 0
0.760000 0.000000 0
0.780000 0.000000 0
0.800000 0.000000 0
0.820000 0.000000 0
0.840000 0.000000 0
0.860000 0.000000 0
0.880000 0.000000 0
0.900000 0.000000 0
0.920000 0.000000 0
0.940000 0.000000 0
0.960000 0.000000 0
0.980000 0.000000 0
1.000000 0.000000 0
0.000000 0.020000 0
0.020000 0.020000 0
0.040000 0.020000 0
0.060000 0.020000 0
0.080000 0.020000 0
0.100000 0.020000 0
0.120000 0.020000 0
0.140000 0.020000 0
0.160000 0.020000 0
0.180000 0.020000 0
0.200000 0.020000 0
0.220000 0.020000 0
0.240000 0.020000 0
0.260000 0.020000 0
0.280000 0.020000 0
0.300000 0.020000 0
0.320000 0.020000 0
0.340000 0.020000 0
0.360000 0.020000 0
0.380000 0.020000 0
0.400000 0.020000 0
0.420000 0.020000 0
0.440000 0.020000 0
0.460000 0.020000 0
0.480000 0.020000 0
0.500000 0.020000 0
0.520000 0.020000 0
0.540000 0.020000 0
0.560000 0.020000 0
0.580000 0.020000 0
0.600000 0.020000 0
0.620000 0.020000 0
0.640000 0.020000 0
0.660000 0.020000 0
0.680000 0.020000 0
0.700000 0.020000 0
0.720000 0.020000 0
0.740000 0.020000 0
0.760000 0.020000 0
0.780000 0.020000 0
0.800000 0.020000 0
0.820000 0.020000 0
0.840000 0.020000 0
0.860000 0.020000 0
0.880000 0.020000 0
0.900000 0.020000 0
0.920000 0.020000 0
0.940000 0.020000 0
0.960000 0.020000 0
0.980000 0.020000 0
1.000000 0.020000 0
0.000000 0.040000 0
0.020000 0.040000 0
0.040000 0.040000 0
0.060000 0.040000 0
0.080000 0.040000 0
0.100000 0.040000 0
0.120000 0.040000 0
0.140000 0.040000 0
0.160000 0.040000 0
0.180000 0.040000 0
0.200000 0.040000 0
0.220000 0.040000 0
0.240000 0.040000 0
0.260000 0.040000 0
0.280000 0.040000 0
0.300000 0.040000 0
0.320000 0.040000 0
0.340000 0.040000 0
0.360000 0.040000 0
0.380000 0.040000 0
0.400000 0.040000 0
0.420000 0.040000 0
0.440000 0.040000 0
0.460000 0.040000 0
0.480000 0.040000 0
0.500000 0.040000 0
0.520000 0.040000 0
0.540000 0.040000 0
0.560000 0.040000 0
0.580000 0.040000 0
0.600000 0.040000 0
0.620000 0.040000 0
0.640000 0.040000 0
0.660000 0.040000 0
0.680000 0.040000 0
0.700000 0.040000 0
0.720000 0.040000 0
0.740000 0.040000 0
0.760000 0.040000 0
0.780000 0.040000 0
0.800000 0.040000 0
0.820000 0.040000 0
0.840000 0.040000 0
0.860000 0.040000 0
0.880000 0.040000 0
0.900000 0.040000 0
0.920000 0.040000 0
0.940000 0.040000 0
0.960000 0.040000 0
0.980000 0.040000 0
1.000000 0.040000 0
0.000000 0.060000 0
0.020000 0.060000 0
0.040000 0.060000 0
0.060000 0.060000 0
0.080000 0.060000 0
0.100000 0.060000 0
0.120000 0.060000 0
0.140000 0.060000 0
0.160000 0.060000 0
0.180000 0.060000 0
0.200000 0.060000 0
0.220000 0.060000 0
0.240000 0.060000 0
0.260000 0.060000 0
0.280000 0.060000 0
0.300000 0.060000 0
0.320000 0.060000 0
0.340000 0.060000 0
0.360000 0.060000 0
0.380000 0.060000 0
0.400000 0.060000 0
0.420000 0.060000 0
0.440000 0.060000 0
0.460000 0.060000 0
0.480000 0.060000 0
0.500000 0.060000 0
0.520000 0.060000 0
0.540000 0.060000 0
0.560000 0.060000 0
0.580000 0.060000 0
0.600000 0.060000 0
0.620000 0.060000 0
0.640000 0.060000 0
0.660000 0.060000 0
0.680000 0.060000 0
0.700000 0.060000 0
0.720000 0.060000 0
0.740000 0.060000 0
0.760000 0.060000 0
0.780000 0.060000 0
0.800000 0.060000 0
0.820000 0.060000 0
0.840000 0.060000 0
0.860000 0.060000 0
0.880000 0.060000 0
0.900000 0.060000 0
0.920000 0.060000 0
0.940000 0.060000 0
0.960000 0.060000 0
0.980000 0.060000 0
1.000000 0.060000 0
0.000000 0.080000 0
0.020000 0.080000 0
0.040000 0.080000 0
0.060000 0.080000 0
0.080000 0.080000 0
0.100000 0.080000 0
0.120000 0.080000 0
0.140000 0.080000 0
0.160000 0.080000 0
0.180000 0.080000 0
0.200000 0.080000 0
0.220000 0.080000 0
0.240000 0.080000 0
0.260000 0.080000 0
0.280000 0.080000 0
0.300000 0.080000 0
0.320000 0.080000 0
0.340000 0.080000 0
0.360000 0.080000 0
0.380000 0.080000 0
0.400000 0.080000 0
0.420000 0.080000 0
0.440000 0.080000 0
0.460000 0.080000 0
0.480000 0.080000 0
0.500000 0.080000 0
0.520000 0.080000 0
0.540000 0.080000 0
0.560000 0.080000 0
0.580000 0.080000 0
0.600000 0.080000 0
0.620000 0.080000 0
0.640000 0.080000 0
0.660000 0.080000 0
0.680000 0.080000 0
0.700000 0.080000 0
0.720000 0.080000 0
0.740000 0.080000 0
0.760000 0.080000 0
0.780000 0.080000 0
0.800000 0.080000 0
0.820000 0.080000 0
0.840000 0.080000 0
0.860000 0.080000 0
0.880000 0.080000 0
0.900000 0.080000 0
0.920000 0.080000 0
0.940000 0.080000 0
0.960000 0.080000 0
0.980000 0.080000 0
1.000000 0.080000 0
0.000000 0.100000 0
0.020000 0.100000 0
0.040000 0.100000 0
0.060000 0.100000 0
0.080000 0.100000 0
0.100000 0.100000 0
0.120000 0.100000 0
0.140000 0.100000 0
0.160000 0.100000 0
0.180000 0.100000 0
0.200000 0.100000 0
0.220000 0.100000 0
0.240000 0.100000 0
0.260000 0.100000 0
0.280000 0.100000 0
0.300000 0.100000 0
0.320000 0.100000 0
0.340000 0.100000 0
0.360000 0.100000 0
0.380000 0.100000 0
0.400000 0.100000 0
0.420000 0.100000 0
0.440000 0.100000 0
0.460000 0.100000 0
0.480000 0.100000 0
0.500000 0.100000 0
0.520000 0.100000 0
0.540000 0.100000 0
0.560000 0.100000 0
0.580000 0.100000 0
0.600000 0.100000 0
0.620000 0.100000 0
0.640000 0.100000 0
0.660000 0.100000 0
0.680000 0.100000 0
0.700000 0.100000 0
0.720000 0.100000 0
0.740000 0.100000 0
0.760000 0.100000 0
0.780000 0.100000 0
0.800000 0.100000 0
0.820000 0.100000 0
0.840000 0.100000 0
0.860000 0.100000 0
0.880000 0.100000 0
0.900000 0.100000 0
0.920000 0.100000 0
0.940000 0.100000 0
0.960000 0.100000 0
0.980000 0.100000 0
1.000000 0.100000 0
0.000000 0.120000 0
0.020000 0.120000 0
0.040000 0.120000 0
0.060000 0.120000 0
0.080000 0.120000 0
0.100000 0.120000 0
0.120000 0.120000 0
0.140000 0.120000 0
0.160000 0.120000 0
0.180000 0.120000 0
0.200000 0.120000 0
0.220000 0.120000 0
0.240000 0.120000 0
0.260000 0.120000 0
0.280000 0.120000 0
0.300000 0.120000 0
0.320000 0.120000 0
0.340000 0.120000 0
0.360000 0.120000 0
0.380000 0.120000 0
0.400000 0.120000 0
0.420000 0.120000 0
0.440000 0.120000 0
0.460000 0.120000 0
0.480000 0.120000 0
0.500000 0.120000 0
0.520000 0.120000 0
0.540000 0.120000 0
0.560000 0.120000 0
0.580000 0.120000 0
0.600000 0.120000 0
0.620000 0.120000 0
0.640000 0.120000 0
0.660000 0.120000 0
0.680000 0.120000 0
0.700000 0.120000 0
0.720000 0.120000 0
0.740000 0.120000 0
0.760000 0.120000 0
0.780000 0.120000 0
0.800000 0.120000 0
0.820000 0.120000 0
0.840000 0.120000 0
0.860000 0.120000 0
0.880000 0.120000 0
0.900000 0.120000 0
0.920000 0.120000 0
0.940000 0.120000 0
0.960000 0.120000 0
0.980000 0.120000 0
1.000000 0.120000 0
0.000000 0.140000 0
0.020000 0.140000 0
0.040000 0.140000 0
0.060000 0.140000 0
0.080000 0.140000 0
0.100000 0.140000 0
0.120000 0.140000 0
0.140000 0.140000 0
0.160000 0.140000 0
0.180000 0.140000 0
0.200000 0.140000 0
0.220000 0.140000 0
0.240000 0.140000 0
0.260000 0.140000 0
0.280000 0.140000 0
0.300000 0.140000 0
0.320000 0.140000 0
0.340000 0.140000 0
0.360000 0.140000 0
0.380000 0.140000 0
0.400000 0.140000 0
0.420000 0.140000 0
0.440000 0.140000 0
0.460000 0.140000 0
0.480000 0.140000 0
0.500000 0.140000 0
0.520000 0.140000 0
0.540000 0.140000 0
0.560000 0.140000 0
0.580000 0.140000 0
0.600000 0.140000 0
0.620000 0.140000 0
0.640000 0.140000 0
0.660000 0.140000 0
0.680000 0.140000 0
0.700000 0.140000 0
0.720000 0.140000 0
0.740000 0.140000 0
0.760000 0.140000 0
0.780000 0.140000 0
0.800000 0.140000 0
0.820000 0.140000 0
0.840000 0.140000 0
0.860000 0.140000 0
0.880000 0.140000 0
0.900000 0.140000 0
0.920000 0.140000 0
0.940000 0.140000 0
0.960000 0.140000 0
0.980000 0.140000 0
1.000000 0.140000 0
0.000000 0.160000 0
0.020000 0.160000 0
0.040000 0.160000 0
0.060000 0.160000 0
0.080000 0.160000 0
0.100000 0.160000 0
0.120000 0.160000 0
0.140000 0.160000 0
0.160000 0.160000 0
0.180000 0.160000 0
0.200000 0.160000 0
0.220000 0.160000 0
0.240000 0.160000 0
0.260000 0.160000 0
0.280000 0.160000 0
0.300000 0.160000 0
0.320000 0.160000 0
0.340000 0.160000 0
0.360000 0.160000 0
0.380000 0.160000 0
0.400000 0.160000 0
0.420000 0.160000 0
0.440000 0.160000 0
0.460000 0.160000 0
0.480000 0.160000 0
0.500000 0.160000 0
0.520000 0.160000 0
0.540000 0.160000 0
0.560000 0.160000 0
0.580000 0.160000 0
0.600000 0.160000 0
0.620000 0.160000 0
0.640000 0.160000 0
0.660000 0.160000 0
0.680000 0.160000 0
0.700000 0.160000 0
0.720000 0.160000 0
0.740000 0.160000 0
0.760000 0.160000 0
0.780000 0.160000 0
0.800000 0.160000 0
0.820000 0.160000 0
0.840000 0.160000 0
0.860000 0.160000 0
0.880000 0.160000 0
0.900000 0.160000 0
0.920000 0.160000 0
0.940000 0.160000 0
0.960000 0.160000 0
0.980000 0.160000 0
1.000000 0.160000 0
0.000000 0.180000 0
0.020000 0.180000 0
0.040000 0.180000 0
0.060000 0.180000 0
0.080000 0.180000 0
0.100000 0.180000 0
0.120000 0.180000 0
0.140000 0.180000 0
0.160000 0.180000 0
0.180000 0.180000 0
0.200000 0.180000 0
0.220000 0.180000 0
0.240000 0.180000 0
0.260000 0.180000 0
0.280000 0.180000 0
0.300000 0.180000 0
0.320000 0.180000 0
0.340000 0.180000 0
0.360000 0.180000 0
0.380000 0.180000 0
0.400000 0.180000 0
0.420000 0.180000 0
0.440000 0.180000 0
0.460000 0.180000 0
0.480000 0.180000 0
0.500000 0.180000 0
0.520000 0.180000 0
0.540000 0.180000 0
0.560000 0.180000 0
0.580000 0.180000 0
0.600000 0.180000 0
0.620000 0.180000 0
[...]
POINT_DATA 2601 

VECTORS velocity float
0.000000 0.000000 0
-0.000000 0.000000 0
-0.000000 0.000000 0
0.000000 0.000000 0
0.000000 0.000000 0
0.000000 0.000000 0
0.000000 0.000000 0
0.000000 0.000000 0
-0.000000 0.000000 0
-0.000000 0.000000 0
-0.000000 0.000000 0
0.000000 0.000000 0
0.000000 0.000000 0
0.000000 0.000000 0
0.000000 0.000000 0
0.000000 0.000000 0
-0.000000 0.000000 0
-0.000000 0.000000 0
-0.000000 0.000000 0
-0.000000 0.000000 0
-0.000000 0.000000 0
-0.000000 0.000000 0
-0.000000 0.000000 0
-0.000000 0.000000 0
-0.000000 0.000000 0
-0.000000 0.000000 0
-0.000000 0.000000 0
-0.000000 0.000000 0
0.000000 0.000000 0
0.000000 0.000000 0
0.000000 0.000000 0
0.000000 0.000000 0
0.000000 0.000000 0
0.000000 0.000000 0
0.000000 0.000000 0
0.000000 0.000000 0
0.000000 0.000000 0
0.000000 0.000000 0
0.000000 0.000000 0
0.000000 0.000000 0
-0.000000 0.000000 0
-0.000000 0.000000 0
-0.000000 0.000000 0
-0.000000 0.000000 0
-0.000000 0.000000 0
-0.000000 0.000000 0
-0.000000 0.000000 0
-0.000000 0.000000 0
-0.000000 0.000000 0
-0.000000 0.000000 0
0.000000 0.000000 0
0.000000 -0.000000 0
0.001163 -0.001374 0
0.004489 -0.002504 0
0.008269 -0.002445 0
0.011195 -0.001612 0
0.012815 -0.000671 0
0.013300 -0.000044 0
0.013103 0.000159 0
0.012664 0.000025 0
0.012259 -0.000229 0
0.011731 -0.000399 0
0.010827 -0.000291 0
0.008919 0.000150 0
0.005390 0.000661 0
-0.000008 0.001180 0
-0.007214 0.001943 0
-0.016098 0.003177 0
-0.026466 0.004895 0
-0.038059 0.006778 0
-0.050548 0.008494 0
-0.063547 0.009847 0
-0.076650 0.010732 0
-0.089455 0.011133 0
-0.101596 0.011078 0
-0.112752 0.010619 0
-0.122651 0.009813 0
-0.131065 0.008711 0
-0.137803 0.007358 0
-0.142700 0.005785 0
-0.145604 0.004014 0
-0.146364 0.002062 0
-0.144827 -0.000068 0
-0.140804 -0.002511 0
-0.134192 -0.005251 0
-0.124883 -0.008110 0
-0.112817 -0.011012 0
-0.098003 -0.013855 0
-0.080551 -0.016505 0
-0.060730 -0.018779 0
-0.039033 -0.020409 0
-0.016280 -0.020676 0
0.006217 -0.018375 0
0.026447 -0.013078 0
0.040786 -0.005495 0
0.047253 0.002505 0
0.044593 0.008347 0
0.036048 0.010838 0
0.024944 0.010373 0
0.013924 0.007918 0
0.004866 0.004258 0
0.000000 -0.000000 0
0.000000 -0.000000 0
0.002333 -0.004489 0
0.007317 -0.007106 0
0.012375 -0.006705 0
0.016097 -0.004545 0
0.018085 -0.002106 0
0.018519 -0.000289 0
0.017781 0.000635 0
0.016190 0.000843 0
0.013848 0.000933 0
0.010009 0.001433 0
0.003743 0.002813 0
-0.005160 0.005437 0
-0.016720 0.008927 0
-0.030799 0.012603 0
-0.046909 0.016090 0
-0.064381 0.019252 0
-0.082383 0.021962 0
-0.100190 0.024082 0
-0.117288 0.025488 0
-0.133297 0.026102 0
-0.147943 0.025908 0
-0.161023 0.024946 0
-0.172389 0.023297 0
-0.181933 0.021054 0
-0.189576 0.018313 0
-0.195261 0.015152 0
-0.198942 0.011635 0
-0.200575 0.007800 0
-0.200107 0.003664 0
-0.197467 -0.000777 0
-0.192559 -0.005561 0
-0.185328 -0.010634 0
-0.175839 -0.015921 0
-0.164024 -0.021375 0
-0.149831 -0.026880 0
-0.133244 -0.032266 0
-0.114335 -0.037272 0
-0.093316 -0.041518 0
-0.070613 -0.044450 0
-0.046945 -0.045250 0
-0.023075 -0.042728 0
0.000139 -0.034568 0
0.020821 -0.020806 0
0.035753 -0.003807 0
0.040967 0.011205 0
0.037522 0.019649 0
0.029096 0.022124 0
0.018246 0.020078 0
0.007290 0.013924 0
0.000000 -0.000000 0
0.000000 -0.000000 0
0.003297 -0.008691 0
0.009073 -0.012545 0
0.014143 -0.011225 0
0.017305 -0.007322 0
0.018392 -0.003095 0
0.017533 0.000260 0
0.014959 0.002488 0
0.010422 0.003958 0
0.003147 0.005954 0
-0.007279 0.009706 0
-0.021096 0.014878 0
-0.037620 0.020614 0
-0.055883 0.026299 0
-0.075069 0.031369 0
-0.094540 0.035525 0
-0.113685 0.038650 0
-0.131969 0.040704 0
-0.148964 0.041683 0
-0.164373 0.041602 0
-0.178014 0.040501 0
-0.189804 0.038458 0
-0.199727 0.035579 0
-0.207809 0.031988 0
-0.214096 0.027806 0
-0.218642 0.023141 0
-0.221495 0.018078 0
-0.222690 0.012673 0
-0.222245 0.006950 0
-0.220155 0.000905 0
-0.216387 -0.005486 0
-0.210924 -0.012206 0
-0.203762 -0.019231 0
-0.194800 -0.026555 0
-0.183954 -0.034118 0
-0.171131 -0.041792 0
-0.156266 -0.049351 0
-0.139353 -0.056434 0
-0.120487 -0.062501 0
-0.099924 -0.066780 0
-0.078125 -0.068214 0
-0.055762 -0.065459 0
-0.033642 -0.056974 0
-0.011834 -0.041109 0
0.007309 -0.017641 0
0.020950 0.006578 0
0.023587 0.022709 0
0.020285 0.029649 0
0.013445 0.029723 0
0.005360 0.022504 0
0.000000 -0.000000 0
0.000000 -0.000000 0
0.004091 -0.013561 0
0.009849 -0.017952 0
0.013918 -0.014938 0
0.015445 -0.008794 0
0.014401 -0.002335 0
0.010599 0.003144 0
0.003920 0.007747 0
-0.005886 0.012655 0
-0.019393 0.018635 0
-0.036010 0.025676 0
-0.054612 0.033153 0
-0.074294 0.040224 0
-0.094209 0.046376 0
-0.113720 0.051260 0
-0.132354 0.054706 0
-0.149730 0.056681 0
-0.165564 0.057241 0
-0.179663 0.056485 0
-0.191931 0.054537 0
-0.202360 0.051533 0
-0.211009 0.047621 0
-0.217977 0.042952 0
-0.223379 0.037666 0
-0.227327 0.031888 0
-0.229917 0.025711 0
-0.231223 0.019200 0
-0.231293 0.012386 0
-0.230152 0.005266 0
-0.227799 -0.002194 0
-0.224220 -0.010008 0
-0.219412 -0.018186 0
-0.213293 -0.026759 0
-0.205775 -0.035729 0
-0.196749 -0.045044 0
-0.186099 -0.054568 0
-0.173710 -0.064044 0
-0.159496 -0.073052 0
-0.143424 -0.080947 0
-0.125551 -0.086812 0
-0.106063 -0.089412 0
-0.085305 -0.087210 0
-0.063807 -0.078496 0
-0.042300 -0.061757 0
-0.021519 -0.036591 0
-0.003011 -0.005073 0
0.007130 0.020314 0
0.008740 0.032265 0
0.006164 0.035003 0
0.002107 0.027369 0
0.000000 -0.000000 0
0.000000 -0.000000 0
0.004449 -0.018539 0
0.009165 -0.022372 0
0.011120 -0.016822 0
0.009867 -0.007807 0
0.004782 0.001751 0
-0.003478 0.010742 0
-0.015000 0.018974 0
-0.029727 0.027272 0
-0.047068 0.036078 0
-0.066132 0.044924 0
-0.085834 0.053161 0
-0.105410 0.060211 0
-0.124255 0.065725 0
-0.141926 0.069514 0
-0.158123 0.071535 0
-0.172655 0.071861 0
-0.185422 0.070637 0
-0.196402 0.068050 0
-0.205641 0.064298 0
-0.213238 0.059579 0
-0.219322 0.054075 0
-0.224036 0.047950 0
-0.227517 0.041338 0
-0.229882 0.034344 0
-0.231229 0.027037 0
-0.231629 0.019455 0
-0.231130 0.011602 0
-0.229761 0.003456 0
-0.227534 -0.005026 0
-0.224471 -0.013874 0
-0.220543 -0.023133 0
-0.215690 -0.032868 0
-0.209830 -0.043099 0
-0.202853 -0.053795 0
-0.194626 -0.064831 0
-0.184995 -0.075953 0
-0.173792 -0.086720 0
-0.160855 -0.096447 0
-0.146045 -0.104141 0
-0.129279 -0.108460 0
-0.110564 -0.107715 0
-0.090053 -0.099978 0
-0.068147 -0.083397 0
-0.045684 -0.056931 0
-0.024355 -0.022071 0
-0.006752 0.010959 0
-0.000589 0.030615 0
0.000374 0.036356 0
-0.000316 0.028668 0
0.000000 -0.000000 0
0.000000 -0.000000 0
0.003962 -0.022726 0
0.006361 -0.024624 0
0.004813 -0.015640 0
-0.000950 -0.002457 0
-0.010451 0.011011 0
-0.022627 0.022927 0
-0.037321 0.033996 0
-0.054341 0.044724 0
-0.072816 0.055039 0
-0.091840 0.064442 0
-0.110596 0.072432 0
-0.128495 0.078644 0
-0.145109 0.082891 0
-0.160161 0.085129 0
-0.173497 0.085435 0
-0.185066 0.083980 0
-0.194894 0.080988 0
-0.203063 0.076705 0
-0.209695 0.071373 0
-0.214935 0.065214 0
-0.218934 0.058420 0
-0.221841 0.051146 0
-0.223790 0.043512 0
-0.224897 0.035600 0
-0.225257 0.027458 0
-0.224947 0.019101 0
-0.224026 0.010517 0
-0.222538 0.001669 0
-0.220512 -0.007483 0
-0.218001 -0.016999 0
-0.214974 -0.026967 0
-0.211395 -0.037472 0
-0.207197 -0.048566 0
-0.202282 -0.060247 0
-0.196511 -0.072426 0
-0.189703 -0.084879 0
-0.181628 -0.097192 0
-0.172010 -0.108694 0
-0.160539 -0.118388 0
-0.146883 -0.124894 0
-0.130735 -0.126437 0
-0.111868 -0.120913 0
-0.090259 -0.106126 0
-0.066307 -0.080383 0
-0.041280 -0.044005 0
-0.018247 -0.003452 0
-0.005947 0.025140 0
-0.002414 0.034730 0
-0.001210 0.027743 0
0.000000 -0.000000 0
0.000000 -0.000000 0
0.002318 -0.024901 0
0.000965 -0.023225 0
-0.005106 -0.009511 0
-0.015425 0.007458 0
-0.027714 0.023429 0
-0.042014 0.037612 0
-0.058155 0.050688 0
-0.075616 0.062767 0
-0.093584 0.073577 0
-0.111306 0.082704 0
-0.128173 0.089816 0
-0.143753 0.094725 0
-0.157764 0.097391 0
-0.170058 0.097901 0
-0.180593 0.096440 0
-0.189411 0.093257 0
-0.196613 0.088634 0
-0.202332 0.082851 0
-0.206723 0.076170 0
-0.209945 0.068818 0
-0.212157 0.060982 0
-0.213506 0.052805 0
-0.214126 0.044393 0
-0.214136 0.035810 0
-0.213638 0.027087 0
-0.212720 0.018224 0
-0.211451 0.009193 0
-0.209892 -0.000058 0
-0.208089 -0.009564 0
-0.206083 -0.019412 0
-0.203868 -0.029739 0
-0.201430 -0.040645 0
-0.198729 -0.052213 0
-0.195692 -0.064481 0
-0.192195 -0.077410 0
-0.188053 -0.090836 0
-0.183003 -0.104413 0
-0.176691 -0.117536 0
-0.168670 -0.129268 0
-0.158410 -0.138263 0
-0.145330 -0.142730 0
-0.128863 -0.140455 0
-0.108583 -0.128958 0
-0.084424 -0.105911 0
-0.057127 -0.070132 0
-0.029291 -0.024374 0
-0.008087 0.014782 0
-0.002424 0.031619 0
-0.000742 0.026253 0
0.000000 -0.000000 0
0.000000 -0.000001 0
-0.000519 -0.023692 0
-0.006434 -0.017201 0
-0.016838 0.000751 0
-0.029522 0.020152 0
-0.043419 0.037600 0
-0.058719 0.053368 0
-0.075092 0.067597 0
-0.091943 0.080153 0
-0.108593 0.090730 0
-0.124456 0.099031 0
-0.139088 0.104878 0
-0.152195 0.108236 0
-0.163612 0.109196 0
-0.173287 0.107957 0
-0.181258 0.104789 0
-0.187623 0.100000 0
-0.192522 0.093909 0
-0.196115 0.086815 0
-0.198571 0.078987 0
-0.200058 0.070649 0
-0.200739 0.061980 0
-0.200765 0.053114 0
-0.200274 0.044142 0
-0.199388 0.035113 0
-0.198210 0.026042 0
-0.196827 0.016914 0
-0.195312 0.007689 0
-0.193726 -0.001692 0
-0.192125 -0.011292 0
-0.190519 -0.021221 0
-0.188934 -0.031620 0
-0.187384 -0.042610 0
-0.185863 -0.054304 0
-0.184338 -0.066782 0
-0.182725 -0.080065 0
-0.180866 -0.094071 0
-0.178503 -0.108554 0
-0.175249 -0.123027 0
-0.170576 -0.136668 0
-0.163808 -0.148234 0
-0.154151 -0.155984 0
-0.140755 -0.157660 0
-0.122846 -0.150565 0
-0.099948 -0.131839 0
-0.072271 -0.099138 0
-0.041474 -0.052493 0
-0.012651 -0.001727 0
-0.001312 0.027386 0
0.000513 0.025319 0
0.000000 -0.000000 0
0.000000 -0.000001 0
-0.003985 -0.018467 0
-0.014029 -0.006906 0
-0.027238 0.013578 0
-0.041128 0.034040 0
-0.055916 0.052626 0
-0.071462 0.069285 0
-0.087363 0.083911 0
-0.103077 0.096268 0
-0.118068 0.106090 0
-0.131904 0.113200 0
-0.144275 0.117555 0
-0.155001 0.119248 0
-0.164010 0.118483 0
-0.171321 0.115547 0
-0.177025 0.110776 0
-0.181257 0.104522 0
-0.184180 0.097126 0
-0.185973 0.088900 0
-0.186816 0.080113 0
-0.186888 0.070986 0
-0.186359 0.061688 0
-0.185381 0.052340 0
-0.184089 0.043016 0
-0.182595 0.033746 0
-0.180991 0.024527 0
-0.179347 0.015327 0
-0.177721 0.006092 0
-0.176157 -0.003246 0
-0.174699 -0.012771 0
-0.173356 -0.022602 0
-0.172169 -0.032874 0
-0.171176 -0.043716 0
-0.170416 -0.055258 0
-0.169905 -0.067619 0
-0.169621 -0.080882 0
-0.169464 -0.095059 0
-0.169226 -0.110030 0
-0.168545 -0.125463 0
-0.166870 -0.140708 0
-0.163446 -0.154688 0
-0.157330 -0.165784 0
-0.147446 -0.171759 0
-0.132723 -0.169765 0
-0.112325 -0.156485 0
-0.086023 -0.128606 0
-0.054833 -0.083994 0
-0.022396 -0.025379 0
-0.000219 0.018456 0
0.001801 0.024941 0
0.000000 -0.000000 0
0.000000 -0.000001 0
-0.007180 -0.009664 0
-0.020320 0.006053 0
-0.034760 0.027851 0
-0.049555 0.048830 0
-0.064714 0.067934 0
-0.080010 0.084815 0
-0.095056 0.099212 0
-0.109406 0.110859 0
-0.122657 0.119557 0
-0.134504 0.125238 0
-0.144752 0.127975 0
-0.153310 0.127970 0
-0.160178 0.125516 0
-0.165430 0.120973 0
-0.169195 0.114725 0
-0.171635 0.107155 0
-0.172937 0.098624 0
-0.173295 0.089450 0
-0.172905 0.079902 0
-0.171954 0.070191 0
-0.170610 0.060472 0
-0.169019 0.050844 0
-0.167299 0.041356 0
-0.165535 0.032015 0
-0.163791 0.022794 0
-0.162107 0.013644 0
-0.160512 0.004499 0
-0.159027 -0.004715 0
-0.157675 -0.014093 0
-0.156469 -0.023751 0
-0.155454 -0.033800 0
-0.154694 -0.044364 0
-0.154262 -0.055575 0
-0.154229 -0.067577 0
-0.154641 -0.080506 0
-0.155486 -0.094465 0
-0.156646 -0.109474 0
-0.157841 -0.125384 0
-0.158571 -0.141766 0
-0.158079 -0.157774 0
-0.155341 -0.171985 0
-0.149118 -0.182266 0
-0.138081 -0.185685 0
-0.121050 -0.178539 0
-0.097360 -0.156631 0
-0.067450 -0.116120 0
-0.033805 -0.056340 0
-0.003107 0.003189 0
0.001476 0.025100 0
0.000000 -0.000000 0
0.000000 -0.000000 0
-0.009724 0.001853 0
-0.024486 0.020674 0
-0.039629 0.042813 0
-0.054846 0.063994 0
-0.069947 0.083080 0
-0.084666 0.099627 0
-0.098663 0.113307 0
-0.111589 0.123869 0
-0.123155 0.131189 0
-0.133160 0.135294 0
-0.141500 0.136360 0
-0.148158 0.134673 0
-0.153190 0.130604 0
-0.156713 0.124565 0
-0.158888 0.116982 0
-0.159906 0.108264 0
-0.159974 0.098786 0
-0.159304 0.088868 0
-0.158102 0.078771 0
-0.156554 0.068691 0
-0.154817 0.058754 0
-0.153014 0.049029 0
-0.151228 0.039532 0
-0.149509 0.030238 0
-0.147880 0.021099 0
-0.146345 0.012048 0
-0.144903 0.003012 0
-0.143552 -0.006083 0
-0.142293 -0.015329 0
-0.141143 -0.024823 0
-0.140148 -0.034649 0
-0.139382 -0.044909 0
-0.138938 -0.055724 0
-0.138928 -0.067240 0
-0.139461 -0.079624 0
-0.140616 -0.093053 0
-0.142392 -0.107675 0
-0.144643 -0.123538 0
-0.146995 -0.140470 0
-0.148775 -0.157918 0
-0.148968 -0.174745 0
-0.146241 -0.189019 0
-0.139056 -0.197833 0
-0.125896 -0.197207 0
-0.105640 -0.182206 0
-0.078130 -0.147549 0
-0.045052 -0.089722 0
-0.011888 -0.016825 0
0.000067 0.021834 0
0.000000 -0.000000 0
0.000000 -0.000000 0
-0.011158 0.014822 0
-0.026508 0.035958 0
-0.042076 0.058211 0
-0.057323 0.079147 0
-0.072039 0.097754 0
-0.085971 0.113532 0
-0.098833 0.126135 0
-0.110366 0.135350 0
-0.120370 0.141128 0
-0.128730 0.143583 0
-0.135414 0.142972 0
-0.140461 0.139659 0
-0.143975 0.134072 0
-0.146111 0.126673 0
-0.147060 0.117919 0
-0.147037 0.108241 0
-0.146270 0.098022 0
-0.144983 0.087578 0
-0.143380 0.077152 0
-0.141634 0.066907 0
-0.139875 0.056933 0
-0.138188 0.047255 0
-0.136613 0.037851 0
-0.135158 0.028666 0
-0.133808 0.019630 0
-0.132538 0.010668 0
-0.131322 0.001705 0
-0.130139 -0.007325 0
-0.128984 -0.016502 0
-0.127871 -0.025895 0
-0.126842 -0.035561 0
-0.125964 -0.045574 0
-0.125334 -0.056029 0
-0.125076 -0.067054 0
-0.125336 -0.078818 0
-0.126264 -0.091534 0
-0.127974 -0.105447 0
-0.130477 -0.120781 0
-0.133586 -0.137635 0
-0.136805 -0.155801 0
-0.139234 -0.174518 0
-0.139543 -0.192178 0
-0.136050 -0.206030 0
-0.126938 -0.211955 0
-0.110629 -0.204397 0
-0.086378 -0.176708 0
-0.055174 -0.122583 0
-0.021399 -0.041930 0
0.001009 0.013212 0
0.000000 -0.000000 0
0.000000 0.000000 0
-0.011436 0.028361 0
-0.026992 0.051593 0
-0.042532 0.073628 0
-0.057450 0.093956 0
-0.071529 0.111728 0
-0.084538 0.126422 0
-0.096246 0.137702 0
-0.106461 0.145405 0
-0.115058 0.149553 0
-0.121989 0.150338 0
-0.127275 0.148090 0
-0.131003 0.143235 0
-0.133318 0.136255 0
-0.134404 0.127650 0
-0.134480 0.117908 0
-0.133784 0.107474 0
-0.132554 0.096730 0
-0.131014 0.085977 0
-0.129355 0.075423 0
-0.127720 0.065187 0
-0.126198 0.055309 0
-0.124829 0.045767 0
-0.123610 0.036502 0
-0.122515 0.027433 0
-0.121500 0.018478 0
-0.120524 0.009561 0
-0.119550 0.000613 0
-0.118551 -0.008421 0
-0.117521 -0.017597 0
-0.116470 -0.026965 0
-0.115431 -0.036556 0
-0.114457 -0.046417 0
-0.113628 -0.056612 0
-0.113058 -0.067237 0
-0.112894 -0.078436 0
-0.113314 -0.090415 0
-0.114510 -0.103463 0
-0.116635 -0.117926 0
-0.119711 -0.134142 0
-0.123490 -0.152271 0
-0.127302 -0.172007 0
-0.129945 -0.192203 0
-0.129693 -0.210438 0
-0.124481 -0.222628 0
-0.112277 -0.222765 0
-0.091673 -0.203005 0
-0.062770 -0.154702 0
-0.028491 -0.073009 0
0.002712 0.000435 0
0.000000 -0.000000 0
0.000000 0.000000 0
-0.011105 0.041815 0
-0.026328 0.067054 0
-0.041424 0.088669 0
-0.055713 0.108144 0
-0.068964 0.124842 0
-0.080969 0.138248 0
-0.091537 0.148057 0
-0.100534 0.154162 0
-0.107890 0.156655 0
-0.113605 0.155799 0
-0.117745 0.151987 0
-0.120435 0.145703 0
-0.121849 0.137473 0
-0.122199 0.127835 0
-0.121725 0.117298 0
-0.120676 0.106314 0
-0.119291 0.095252 0
-0.117780 0.084379 0
-0.116304 0.073857 0
-0.114963 0.063750 0
-0.113803 0.054042 0
-0.112821 0.044668 0
-0.111982 0.035537 0
-0.111236 0.026556 0
-0.110530 0.017640 0
-0.109817 0.008717 0
-0.109065 -0.000268 0
-0.108252 -0.009354 0
-0.107365 -0.018583 0
-0.106416 -0.027985 0
-0.105426 -0.037575 0
-0.104432 -0.047377 0
-0.103493 -0.057428 0
-0.102693 -0.067789 0
-0.102154 -0.078562 0
-0.102043 -0.089917 0
-0.102570 -0.102126 0
-0.103973 -0.115580 0
-0.106450 -0.130780 0
-0.110024 -0.148210 0
-0.114343 -0.168064 0
-0.118474 -0.189787 0
-0.120793 -0.211494 0
-0.119090 -0.229372 0
-0.110920 -0.237206 0
-0.094200 -0.226215 0
-0.068114 -0.185764 0
-0.034476 -0.107412 0
-0.000236 -0.015279 0
0.000000 -0.000000 0
0.000000 0.000000 0
-0.010332 0.054689 0
-0.024798 0.081911 0
-0.039126 0.103013 0
-0.052555 0.121497 0
-0.064845 0.136984 0
-0.075801 0.148995 0
-0.085271 0.157268 0
-0.093157 0.161758 0
-0.099434 0.162624 0
-0.104137 0.160194 0
-0.107365 0.154921 0
-0.109270 0.147339 0
-0.110051 0.138018 0
-0.109937 0.127526 0
-0.109181 0.116384 0
-0.108032 0.105041 0
-0.106714 0.093835 0
-0.105410 0.082989 0
-0.104239 0.072605 0
-0.103260 0.062686 0
-0.102477 0.053167 0
-0.101855 0.043946 0
-0.101341 0.034917 0
-0.100880 0.025981 0
-0.100419 0.017060 0
-0.099920 0.008096 0
-0.099356 -0.000952 0
-0.098714 -0.010120 0
-0.097979 -0.019433 0
-0.097163 -0.028904 0
-0.096278 -0.038540 0
-0.095349 -0.048350 0
-0.094411 -0.058351 0
-0.093520 -0.068576 0
-0.092761 -0.079086 0
-0.092260 -0.090000 0
-0.092201 -0.101532 0
-0.092834 -0.114046 0
-0.094454 -0.128092 0
-0.097305 -0.144378 0
-0.101381 -0.163557 0
-0.106136 -0.185753 0
-0.110226 -0.209821 0
-0.111462 -0.232501 0
-0.107106 -0.247656 0
-0.094489 -0.245811 0
-0.071998 -0.214425 0
-0.040647 -0.140886 0
-0.007194 -0.034042 0
0.000000 -0.000000 0
0.000000 0.000001 0
-0.009228 0.066613 0
-0.022628 0.095847 0
-0.035951 0.116426 0
-0.048359 0.133864 0
-0.059600 0.148088 0
-0.069495 0.158673 0
-0.077918 0.165413 0
-0.084803 0.168325 0
-0.090152 0.167635 0
-0.094027 0.163731 0
-0.096550 0.157121 0
-0.097892 0.148388 0
-0.098265 0.138140 0
-0.097908 0.126965 0
-0.097073 0.115392 0
-0.095997 0.103847 0
-0.094879 0.092631 0
-0.093863 0.081905 0
-0.093028 0.071708 0
-0.092393 0.061987 0
-0.091932 0.052636 0
-0.091596 0.043533 0
-0.091327 0.034562 0
-0.091074 0.025634 0
-0.090796 0.016680 0
-0.090462 0.007654 0
-0.090053 -0.001474 0
-0.089560 -0.010731 0
-0.088978 -0.020134 0
-0.088312 -0.029686 0
-0.087570 -0.039389 0
-0.086766 -0.049244 0
-0.085920 -0.059256 0
-0.085065 -0.069438 0
-0.084251 -0.079822 0
-0.083557 -0.090478 0
-0.083116 -0.101551 0
-0.083138 -0.113327 0
-0.083925 -0.126309 0
-0.085843 -0.141283 0
-0.089172 -0.159233 0
-0.093802 -0.180942 0
-0.098827 -0.206167 0
-0.102290 -0.232492 0
-0.101332 -0.254180 0
-0.092820 -0.261323 0
-0.074414 -0.239606 0
-0.046247 -0.172215 0
-0.014058 -0.055926 0
0.000000 -0.000000 0
0.000000 0.000001 0
-0.007888 0.077316 0
-0.019998 0.108634 0
-0.032155 0.128745 0
-0.043437 0.145146 0
-0.053581 0.158120 0
-0.062425 0.167313 0
-0.069862 0.172576 0
-0.075849 0.173992 0
-0.080408 0.171848 0
-0.083617 0.166593 0
-0.085611 0.158786 0
-0.086570 0.149053 0
-0.086713 0.138034 0
-0.086276 0.126334 0
-0.085499 0.114473 0
-0.084595 0.102846 0
-0.083732 0.091702 0
-0.083015 0.081139 0
-0.082483 0.071135 0
-0.082129 0.061590 0
-0.081912 0.052369 0
-0.081777 0.043341 0
-0.081676 0.034395 0
-0.081566 0.025449 0
-0.081418 0.016447 0
-0.081211 0.007354 0
-0.080933 -0.001854 0
-0.080578 -0.011195 0
-0.080145 -0.020681 0
-0.079635 -0.030312 0
-0.079054 -0.040086 0
-0.078409 -0.050000 0
-0.077711 -0.060052 0
-0.076979 -0.070245 0
-0.076235 -0.080594 0
-0.075523 -0.091135 0
-0.074920 -0.101952 0
-0.074571 -0.113237 0
-0.074728 -0.125387 0
-0.075769 -0.139131 0
-0.078141 -0.155599 0
-0.082116 -0.176098 0
-0.087316 -0.201333 0
-0.092215 -0.229996 0
-0.094039 -0.257126 0
-0.089315 -0.272729 0
-0.074996 -0.260998 0
-0.050177 -0.201243 0
-0.019122 -0.080289 0
0.000000 -0.000000 0
0.000000 0.000001 0
-0.006390 0.086611 0
-0.017057 0.120115 0
-0.027944 0.139865 0
-0.038037 0.155289 0
-0.047067 0.167075 0
-0.054884 0.174954 0
-0.061399 0.178838 0
-0.066585 0.178872 0
-0.070473 0.175403 0
-0.073151 0.168934 0
-0.074760 0.160075 0
-0.075479 0.149490 0
-0.075521 0.137845 0
-0.075113 0.125751 0
-0.074472 0.113712 0
-0.073782 0.102081 0
-0.073175 0.091050 0
-0.072719 0.080655 0
-0.072430 0.070822 0