# vtk DataFile Version 2.0
generated by CFD-lab course output (written by Tobias Neckel) 
ASCII

DATASET STRUCTURED_GRID
DIMENSIONS  65 65 1 
POINTS 4225 float

0.000000 0.000000 0
0.015625 0.000000 0
0.031250 0.000000 0
0.046875 0.000000 0
0.062500 0.000000 0
0.078125 0.000000 0
0.093750 0.000000 0
0.109375 0.000000 0
0.125000 0.000000 0
0.140625 0.000000 0
0.156250 0.000000 0
0.171875 0.000000 0
0.187500 0.000000 0
0.203125 0.000000 0
0.218750 0.000000 0
0.234375 0.000000 0
0.250000 0.000000 0
0.265625 0.000000 0
0.281250 0.000000 0
0.296875 0.000000 0
0.312500 0.000000 0
0.328125 0.000000 0
0.343750 0.000000 0
0.359375 0.000000 0
0.375000 0.000000 0
0.390625 0.000000 0
0.406250 0.000000 0
0.421875 0.000000 0
0.437500 0.000000 0
0.453125 0.000000 0
0.468750 0.000000 0
0.484375 0.000000 0
0.500000 0.000000 0
0.515625 0.000000 0
0.531250 0.000000 0
0.546875 0.000000 0
0.562500 0.000000 0
0.578125 0.000000 0
0.593750 0.000000 0
0.609375 0.000000 0
0.625000 0.000000 0
0.640625 0.000000 0
0.656250 0.000000 0
0.671875 0.000000 0
0.687500 0.000000 0
0.703125 0.000000 0
0.718750 0.000000 0
0.734375 0.000000 0
0.750000 0.000000 0
0.765625 0.000000 0
0.781250 0.000000 0
0.796875 0.000000 0
0.812500 0.000000 0
0.828125 0.000000 0
0.843750 0.000000 0
0.859375 0.000000 0
0.875000 0.000000 0
0.890625 0.000000 0
0.906250 0.000000 0
0.921875 0.000000 0
0.937500 0.000000 0
0.953125 0.000000 0
0.968750 0.000000 0
0.984375 0.000000 0
1.000000 0.000000 0
0.000000 0.015625 0
0.015625 0.015625 0
0.031250 0.015625 0
0.046875 0.015625 0
0.062500 0.015625 0
0.078125 0.015625 0
0.093750 0.015625 0
0.109375 0.015625 0
0.125000 0.015625 0
0.140625 0.015625 0
0.156250 0.015625 0
0.171875 0.015625 0
0.187500 0.015625 0
0.203125 0.015625 0
0.218750 0.015625 0
0.234375 0.015625 0
0.250000 0.015625 0
0.265625 0.015625 0
0.281250 0.015625 0
0.296875 0.015625 0
0.312500 0.015625 0
0.328125 0.015625 0
0.343750 0.015625 0
0.359375 0.015625 0
0.375000 0.015625 0
0.390625 0.015625 0
0.406250 0.015625 0
0.421875 0.015625 0
0.437500 0.015625 0
0.453125 0.015625 0
0.468750 0.015625 0
0.484375 0.015625 0
0.500000 0.015625 0
0.515625 0.015625 0
0.531250 0.015625 0
0.546875 0.015625 0
0.562500 0.015625 0
0.578125 0.015625 0
0.593750 0.015625 0
0.609375 0.015625 0
0.625000 0.015625 0
0.640625 0.015625 0
0.656250 0.015625 0
0.671875 0.015625 0
0.687500 0.015625 0
0.703125 0.015625 0
0.718750 0.015625 0
0.734375 0.015625 0
0.750000 0.015625 0
0.765625 0.015625 0
0.781250 0.015625 0
0.796875 0.015625 0
0.812500 0.015625 0
0.828125 0.015625 0
0.843750 0.015625 0
0.859375 0.015625 0
0.875000 0.015625 0
0.890625 0.015625 0
0.906250 0.015625 0
0.921875 0.015625 0
0.937500 0.015625 0
0.953125 0.015625 0
0.968750 0.015625 0
0.984375 0.015625 0
1.000000 0.015625 0
0.000000 0.031250 0
0.015625 0.031250 0
0.031250 0.031250 0
0.046875 0.031250 0
0.062500 0.031250 0
0.078125 0.031250 0
0.093750 0.031250 0
0.109375 0.031250 0
0.125000 0.031250 0
0.140625 0.031250 0
0.156250 0.031250 0
0.171875 0.031250 0
0.187500 0.031250 0
0.203125 0.031250 0
0.218750 0.031250 0
0.234375 0.031250 0
0.250000 0.031250 0
0.265625 0.031250 0
0.281250 0.031250 0
0.296875 0.031250 0
0.312500 0.031250 0
0.328125 0.031250 0
0.343750 0.031250 0
0.359375 0.031250 0
0.375000 0.031250 0
0.390625 0.031250 0
0.406250 0.031250 0
0.421875 0.031250 0
0.437500 0.031250 0
0.453125 0.031250 0
0.468750 0.031250 0
0.484375 0.031250 0
0.500000 0.031250 0
0.515625 0.031250 0
0.531250 0.031250 0
0.546875 0.031250 0
0.562500 0.031250 0
0.578125 0.031250 0
0.593750 0.031250 0
0.609375 0.031250 0
0.625000 0.031250 0
0.640625 0.031250 0
0.656250 0.031250 0
0.671875 0.031250 0
0.687500 0.031250 0
0.703125 0.031250 0
0.718750 0.031250 0
0.734375 0.031250 0
0.750000 0.031250 0
0.765625 0.031250 0
0.781250 0.031250 0
0.796875 0.031250 0
0.812500 0.031250 0
0.828125 0.031250 0
0.843750 0.031250 0
0.859375 0.031250 0
0.875000 0.031250 0
0.890625 0.031250 0
0.906250 0.031250 0
0.921875 0.031250 0
0.937500 0.031250 0
0.953125 0.031250 0
0.968750 0.031250 0
0.984375 0.031250 0
1.000000 0.031250 0
0.000000 0.046875 0
0.015625 0.046875 0
0.031250 0.046875 0
0.046875 0.046875 0
0.062500 0.046875 0
0.078125 0.046875 0
0.093750 0.046875 0
0.109375 0.046875 0
0.125000 0.046875 0
0.140625 0.046875 0
0.156250 0.046875 0
0.171875 0.046875 0
0.187500 0.046875 0
0.203125 0.046875 0
0.218750 0.046875 0
0.234375 0.046875 0
0.250000 0.046875 0
0.265625 0.046875 0
0.281250 0.046875 0
0.296875 0.046875 0
0.312500 0.046875 0
0.328125 0.046875 0
0.343750 0.046875 0
0.359375 0.046875 0
0.375000 0.046875 0
0.390625 0.046875 0
0.406250 0.046875 0
0.421875 0.046875 0
0.437500 0.046875 0
0.453125 0.046875 0
0.468750 0.046875 0
0.484375 0.046875 0
0.500000 0.046875 0
0.515625 0.046875 0
0.531250 0.046875 0
0.546875 0.046875 0
0.562500 0.046875 0
0.578125 0.046875 0
0.593750 0.046875 0
0.609375 0.046875 0
0.625000 0.046875 0
0.640625 0.046875 0
0.656250 0.046875 0
0.671875 0.046875 0
0.687500 0.046875 0
0.703125 0.046875 0
0.718750 0.046875 0
0.734375 0.046875 0
0.750000 0.046875 0
0.765625 0.046875 0
0.781250 0.046875 0
0.796875 0.046875 0
0.812500 0.046875 0
0.828125 0.046875 0
0.843750 0.046875 0
0.859375 0.046875 0
0.875000 0.046875 0
0.890625 0.046875 0
0.906250 0.046875 0
0.921875 0.046875 0
0.937500 0.046875 0
0.953125 0.046875 0
0.968750 0.046875 0
0.984375 0.046875 0
1.000000 0.046875 0
0.000000 0.062500 0
0.015625 0.062500 0
0.031250 0.062500 0
0.046875 0.062500 0
0.062500 0.062500 0
0.078125 0.062500 0
0.093750 0.062500 0
0.109375 0.062500 0
0.125000 0.062500 0
0.140625 0.062500 0
0.156250 0.062500 0
0.171875 0.062500 0
0.187500 0.062500 0
0.203125 0.062500 0
0.218750 0.062500 0
0.234375 0.062500 0
0.250000 0.062500 0
0.265625 0.062500 0
0.281250 0.062500 0
0.296875 0.062500 0
0.312500 0.062500 0
0.328125 0.062500 0
0.343750 0.062500 0
0.359375 0.062500 0
0.375000 0.062500 0
0.390625 0.062500 0
0.406250 0.062500 0
0.421875 0.062500 0
0.437500 0.062500 0
0.453125 0.062500 0
0.468750 0.062500 0
0.484375 0.062500 0
0.500000 0.062500 0
0.515625 0.062500 0
0.531250 0.062500 0
0.546875 0.062500 0
0.562500 0.062500 0
0.578125 0.062500 0
0.593750 0.062500 0
0.609375 0.062500 0
0.625000 0.062500 0
0.640625 0.062500 0
0.656250 0.062500 0
0.671875 0.062500 0
0.687500 0.062500 0
0.703125 0.062500 0
0.718750 0.062500 0
0.734375 0.062500 0
0.750000 0.062500 0
0.765625 0.062500 0
0.781250 0.062500 0
0.796875 0.062500 0
0.812500 0.062500 0
0.828125 0.062500 0
0.843750 0.062500 0
0.859375 0.062500 0
0.875000 0.062500 0
0.890625 0.062500 0
0.906250 0.062500 0
0.921875 0.062500 0
0.937500 0.062500 0
0.953125 0.062500 0
0.968750 0.062500 0
0.984375 0.062500 0
1.000000 0.062500 0
0.000000 0.078125 0
0.015625 0.078125 0
0.031250 0.078125 0
0.046875 0.078125 0
0.062500 0.078125 0
0.078125 0.078125 0
0.093750 0.078125 0
0.109375 0.078125 0
0.125000 0.078125 0
0.140625 0.078125 0
0.156250 0.078125 0
0.171875 0.078125 0
0.187500 0.078125 0
0.203125 0.078125 0
0.218750 0.078125 0
0.234375 0.078125 0
0.250000 0.078125 0
0.265625 0.078125 0
0.281250 0.078125 0
0.296875 0.078125 0
0.312500 0.078125 0
0.328125 0.078125 0
0.343750 0.078125 0
0.359375 0.078125 0
0.375000 0.078125 0
0.390625 0.078125 0
0.406250 0.078125 0
0.421875 0.078125 0
0.437500 0.078125 0
0.453125 0.078125 0
0.468750 0.078125 0
0.484375 0.078125 0
0.500000 0.078125 0
0.515625 0.078125 0
0.531250 0.078125 0
0.546875 0.078125 0
0.562500 0.078125 0
0.578125 0.078125 0
0.593750 0.078125 0
0.609375 0.078125 0
0.625000 0.078125 0
0.640625 0.078125 0
0.656250 0.078125 0
0.671875 0.078125 0
0.687500 0.078125 0
0.703125 0.078125 0
0.718750 0.078125 0
0.734375 0.078125 0
0.750000 0.078125 0
0.765625 0.078125 0
0.781250 0.078125 0
0.796875 0.078125 0
0.812500 0.078125 0
0.828125 0.078125 0
0.843750 0.078125 0
0.859375 0.078125 0
0.875000 0.078125 0
0.890625 0.078125 0
0.906250 0.078125 0
0.921875 0.078125 0
0.937500 0.078125 0
0.953125 0.078125 0
0.968750 0.078125 0
0.984375 0.078125 0
1.000000 0.078125 0
0.000000 0.093750 0
0.015625 0.093750 0
0.031250 0.093750 0
0.046875 0.093750 0
0.062500 0.093750 0
0.078125 0.093750 0
0.093750 0.093750 0
0.109375 0.093750 0
0.125000 0.093750 0
0.140625 0.093750 0
0.156250 0.093750 0
0.171875 0.093750 0
0.187500 0.093750 0
0.203125 0.093750 0
0.218750 0.093750 0
0.234375 0.093750 0
0.250000 0.093750 0
0.265625 0.093750 0
0.281250 0.093750 0
0.296875 0.093750 0
0.312500 0.093750 0
0.328125 0.093750 0
0.343750 0.093750 0
0.359375 0.093750 0
0.375000 0.093750 0
0.390625 0.093750 0
0.406250 0.093750 0
0.421875 0.093750 0
0.437500 0.093750 0
0.453125 0.093750 0
0.468750 0.093750 0
0.484375 0.093750 0
0.500000 0.093750 0
0.515625 0.093750 0
0.531250 0.093750 0
0.546875 0.093750 0
0.562500 0.093750 0
0.578125 0.093750 0
0.593750 0.093750 0
0.609375 0.093750 0
0.625000 0.093750 0
0.640625 0.093750 0
0.656250 0.093750 0
0.671875 0.093750 0
0.687500 0.093750 0
0.703125 0.093750 0
0.718750 0.093750 0
0.734375 0.093750 0
0.750000 0.093750 0
0.765625 0.093750 0
0.781250 0.093750 0
0.796875 0.093750 0
0.812500 0.093750 0
0.828125 0.093750 0
0.843750 0.093750 0
0.859375 0.093750 0
0.875000 0.093750 0
0.890625 0.093750 0
0.906250 0.093750 0
0.921875 0.093750 0
0.937500 0.093750 0
0.953125 0.093750 0
0.968750 0.093750 0
0.984375 0.093750 0
1.000000 0.093750 0
0.000000 0.109375 0
0.015625 0.109375 0
0.031250 0.109375 0
0.046875 0.109375 0
0.062500 0.109375 0
0.078125 0.109375 0
0.093750 0.109375 0
0.109375 0.109375 0
0.125000 0.109375 0
0.140625 0.109375 0
0.156250 0.109375 0
0.171875 0.109375 0
0.187500 0.109375 0
0.203125 0.109375 0
0.218750 0.109375 0
0.234375 0.109375 0
0.250000 0.109375 0
0.265625 0.109375 0
0.281250 0.109375 0
0.296875 0.109375 0
0.312500 0.109375 0
0.328125 0.109375 0
0.343750 0.109375 0
0.359375 0.109375 0
0.375000 0.109375 0
0.390625 0.109375 0
0.406250 0.109375 0
0.421875 0.109375 0
0.437500 0.109375 0
0.453125 0.109375 0
0.468750 0.109375 0
0.484375 0.109375 0
0.500000 0.109375 0
0.515625 0.109375 0
0.531250 0.109375 0
0.546875 0.109375 0
[...]
POINT_DATA 4225 

VECTORS velocity float
0.000000 0.000000 0
-0.000000 0.000000 0
-0.000000 0.000000 0
0.000000 0.000000 0
0.000000 0.000000 0
0.000000 0.000000 0
0.000000 0.000000 0
0.000000 0.000000 0
-0.000000 0.000000 0
-0.000000 0.000000 0
-0.000000 0.000000 0
-0.000000 0.000000 0
-0.000000 0.000000 0
-0.000000 0.000000 0
0.000000 0.000000 0
0.000000 0.000000 0
0.000000 0.000000 0
0.000000 0.000000 0
0.000000 0.000000 0
0.000000 0.000000 0
-0.000000 0.000000 0
-0.000000 0.000000 0
-0.000000 0.000000 0
-0.000000 0.000000 0
-0.000000 0.000000 0
-0.000000 0.000000 0
0.000000 0.000000 0
0.000000 0.000000 0
0.000000 0.000000 0
0.000000 0.000000 0
0.000000 0.000000 0
0.000000 0.000000 0
0.000000 0.000000 0
-0.000000 0.000000 0
-0.000000 0.000000 0
-0.000000 0.000000 0
-0.000000 0.000000 0
-0.000000 0.000000 0
-0.000000 0.000000 0
0.000000 0.000000 0
0.000000 0.000000 0
0.000000 0.000000 0
0.000000 0.000000 0
0.000000 0.000000 0
0.000000 0.000000 0
0.000000 0.000000 0
-0.000000 0.000000 0
-0.000000 0.000000 0
-0.000000 0.000000 0
-0.000000 0.000000 0
-0.000000 0.000000 0
-0.000000 0.000000 0
-0.000000 0.000000 0
-0.000000 0.000000 0
-0.000000 0.000000 0
0.000000 0.000000 0
0.000000 0.000000 0
0.000000 0.000000 0
0.000000 0.000000 0
0.000000 0.000000 0
0.000000 0.000000 0
0.000000 0.000000 0
0.000000 0.000000 0
0.000000 0.000000 0
0.000000 0.000000 0
0.000000 -0.000000 0
0.000039 -0.000040 0
0.000081 -0.000034 0
0.000081 -0.000003 0
0.000014 0.000038 0
-0.000126 0.000082 0
-0.000342 0.000124 0
-0.000629 0.000162 0
-0.000980 0.000195 0
-0.001387 0.000224 0
-0.001843 0.000248 0
-0.002338 0.000268 0
-0.002866 0.000283 0
-0.003419 0.000295 0
-0.003990 0.000303 0
-0.004574 0.000308 0
-0.005164 0.000310 0
-0.005755 0.000310 0
-0.006342 0.000306 0
-0.006920 0.000301 0
-0.007484 0.000292 0
-0.008030 0.000282 0
-0.008553 0.000269 0
-0.009048 0.000254 0
-0.009511 0.000236 0
-0.009938 0.000216 0
-0.010323 0.000193 0
-0.010662 0.000169 0
-0.010951 0.000141 0
-0.011186 0.000112 0
-0.011363 0.000080 0
-0.011478 0.000047 0
-0.011528 0.000012 0
-0.011511 -0.000024 0
-0.011426 -0.000062 0
-0.011270 -0.000099 0
-0.011045 -0.000136 0
-0.010751 -0.000173 0
-0.010389 -0.000208 0
-0.009963 -0.000242 0
-0.009477 -0.000273 0
-0.008937 -0.000301 0
-0.008347 -0.000326 0
-0.007717 -0.000346 0
-0.007054 -0.000361 0
-0.006367 -0.000371 0
-0.005666 -0.000375 0
-0.004962 -0.000374 0
-0.004266 -0.000367 0
-0.003587 -0.000354 0
-0.002937 -0.000335 0
-0.002326 -0.000310 0
-0.001764 -0.000281 0
-0.001259 -0.000247 0
-0.000818 -0.000209 0
-0.000449 -0.000168 0
-0.000155 -0.000125 0
0.000061 -0.000081 0
0.000201 -0.000038 0
0.000266 0.000002 0
0.000266 0.000035 0
0.000213 0.000059 0
0.000129 0.000064 0
0.000044 0.000044 0
0.000000 0.000000 0
0.000000 0.000000 0
0.000035 -0.000081 0
0.000042 -0.000041 0
-0.000035 0.000067 0
-0.000228 0.000207 0
-0.000549 0.000357 0
-0.000999 0.000502 0
-0.001575 0.000637 0
-0.002264 0.000758 0
-0.003054 0.000862 0
-0.003932 0.000951 0
-0.004884 0.001023 0
-0.005895 0.001081 0
-0.006953 0.001125 0
-0.008045 0.001155 0
-0.009159 0.001174 0
-0.010285 0.001181 0
-0.011412 0.001178 0
-0.012530 0.001165 0
-0.013630 0.001142 0
-0.014703 0.001110 0
-0.015740 0.001069 0
-0.016731 0.001018 0
-0.017668 0.000958 0
-0.018542 0.000889 0
-0.019345 0.000811 0
-0.020068 0.000724 0
-0.020703 0.000628 0
-0.021242 0.000524 0
-0.021677 0.000412 0
-0.022002 0.000292 0
-0.022209 0.000165 0
-0.022295 0.000034 0
-0.022254 -0.000102 0
-0.022084 -0.000241 0
-0.021784 -0.000381 0
-0.021352 -0.000520 0
-0.020793 -0.000656 0
-0.020108 -0.000787 0
-0.019305 -0.000912 0
-0.018390 -0.001027 0
-0.017373 -0.001130 0
-0.016267 -0.001220 0
-0.015084 -0.001294 0
-0.013841 -0.001350 0
-0.012553 -0.001387 0
-0.011239 -0.001405 0
-0.009918 -0.001401 0
-0.008608 -0.001375 0
-0.007330 -0.001329 0
-0.006104 -0.001261 0
-0.004946 -0.001173 0
-0.003876 -0.001067 0
-0.002908 -0.000945 0
-0.002055 -0.000810 0
-0.001330 -0.000663 0
-0.000739 -0.000510 0
-0.000286 -0.000356 0
0.000030 -0.000205 0
0.000216 -0.000065 0
0.000285 0.000053 0
0.000259 0.000137 0
0.000171 0.000169 0
0.000065 0.000129 0
0.000000 0.000000 0
0.000000 0.000000 0
0.000004 -0.000081 0
-0.000068 0.000036 0
-0.000270 0.000266 0
-0.000630 0.000551 0
-0.001162 0.000853 0
-0.001867 0.001149 0
-0.002738 0.001426 0
-0.003761 0.001675 0
-0.004921 0.001893 0
-0.006200 0.002078 0
-0.007579 0.002231 0
-0.009040 0.002352 0
-0.010565 0.002445 0
-0.012136 0.002509 0
-0.013738 0.002548 0
-0.015355 0.002563 0
-0.016971 0.002555 0
-0.018574 0.002525 0
-0.020149 0.002473 0
-0.021683 0.002402 0
-0.023163 0.002310 0
-0.024576 0.002198 0
-0.025910 0.002065 0
-0.027152 0.001914 0
-0.028291 0.001742 0
-0.029313 0.001551 0
-0.030208 0.001342 0
-0.030965 0.001115 0
-0.031573 0.000871 0
-0.032024 0.000612 0
-0.032308 0.000340 0
-0.032418 0.000057 0
-0.032350 -0.000235 0
-0.032099 -0.000532 0
-0.031664 -0.000831 0
-0.031046 -0.001127 0
-0.030248 -0.001417 0
-0.029274 -0.001697 0
-0.028134 -0.001961 0
-0.026838 -0.002205 0
-0.025400 -0.002424 0
-0.023837 -0.002614 0
-0.022166 -0.002772 0
-0.020409 -0.002892 0
-0.018590 -0.002973 0
-0.016732 -0.003011 0
-0.014861 -0.003005 0
-0.013005 -0.002954 0
-0.011190 -0.002858 0
-0.009442 -0.002719 0
-0.007787 -0.002538 0
-0.006248 -0.002319 0
-0.004846 -0.002067 0
-0.003601 -0.001786 0
-0.002527 -0.001484 0
-0.001633 -0.001169 0
-0.000925 -0.000850 0
-0.000402 -0.000540 0
-0.000056 -0.000253 0
0.000132 -0.000008 0
0.000186 0.000173 0
0.000146 0.000259 0
0.000061 0.000215 0
0.000000 0.000000 0
0.000000 0.000000 0
-0.000039 -0.000013 0
-0.000215 0.000232 0
-0.000570 0.000628 0
-0.001127 0.001099 0
-0.001893 0.001594 0
-0.002869 0.002078 0
-0.004043 0.002532 0
-0.005401 0.002942 0
-0.006923 0.003302 0
-0.008588 0.003609 0
-0.010374 0.003863 0
-0.012259 0.004066 0
-0.014221 0.004220 0
-0.016239 0.004328 0
-0.018293 0.004392 0
-0.020363 0.004414 0
-0.022431 0.004397 0
-0.024479 0.004342 0
-0.026488 0.004251 0
-0.028444 0.004124 0
-0.030328 0.003962 0
-0.032125 0.003766 0
-0.033818 0.003535 0
-0.035393 0.003270 0
-0.036833 0.002972 0
-0.038124 0.002642 0
-0.039251 0.002280 0
-0.040202 0.001889 0
-0.040963 0.001470 0
-0.041523 0.001026 0
-0.041872 0.000560 0
-0.042002 0.000076 0
-0.041906 -0.000421 0
-0.041581 -0.000926 0
-0.041024 -0.001434 0
-0.040237 -0.001937 0
-0.039224 -0.002428 0
-0.037992 -0.002901 0
-0.036551 -0.003348 0
-0.034915 -0.003760 0
-0.033101 -0.004132 0
-0.031130 -0.004454 0
-0.029023 -0.004721 0
-0.026807 -0.004926 0
-0.024511 -0.005065 0
-0.022163 -0.005133 0
-0.019797 -0.005127 0
-0.017445 -0.005047 0
-0.015138 -0.004892 0
-0.012911 -0.004664 0
-0.010793 -0.004368 0
-0.008814 -0.004008 0
-0.006999 -0.003592 0
-0.005373 -0.003129 0
-0.003952 -0.002631 0
-0.002749 -0.002112 0
-0.001771 -0.001586 0
-0.001018 -0.001075 0
-0.000479 -0.000599 0
-0.000138 -0.000189 0
0.000034 0.000123 0
0.000076 0.000295 0
0.000042 0.000275 0
0.000000 -0.000000 0
0.000000 -0.000000 0
-0.000086 0.000134 0
-0.000380 0.000568 0
-0.000906 0.001177 0
-0.001677 0.001874 0
-0.002694 0.002595 0
-0.003951 0.003300 0
-0.005436 0.003959 0
-0.007129 0.004555 0
-0.009007 0.005080 0
-0.011048 0.005529 0
-0.013226 0.005902 0
-0.015516 0.006199 0
-0.017892 0.006425 0
-0.020330 0.006581 0
-0.022808 0.006672 0
-0.025301 0.006701 0
-0.027788 0.006670 0
-0.030247 0.006582 0
-0.032659 0.006439 0
-0.035003 0.006241 0
-0.037258 0.005991 0
-0.039407 0.005688 0
-0.041429 0.005333 0
-0.043307 0.004928 0
-0.045023 0.004473 0
-0.046558 0.003970 0
-0.047897 0.003420 0
-0.049023 0.002827 0
-0.049923 0.002192 0
-0.050582 0.001521 0
-0.050990 0.000819 0
-0.051138 0.000091 0
-0.051018 -0.000656 0
-0.050626 -0.001414 0
-0.049961 -0.002174 0
-0.049023 -0.002927 0
-0.047818 -0.003663 0
-0.046355 -0.004370 0
-0.044645 -0.005037 0
-0.042704 -0.005654 0
-0.040552 -0.006210 0
-0.038213 -0.006693 0
-0.035713 -0.007094 0
-0.033081 -0.007404 0
-0.030351 -0.007616 0
-0.027557 -0.007724 0
-0.024736 -0.007723 0
-0.021925 -0.007613 0
-0.019162 -0.007392 0
-0.016484 -0.007064 0
-0.013928 -0.006635 0
-0.011527 -0.006113 0
-0.009313 -0.005508 0
-0.007310 -0.004834 0
-0.005542 -0.004108 0
-0.004023 -0.003349 0
-0.002761 -0.002582 0
-0.001758 -0.001832 0
-0.001005 -0.001132 0
-0.000485 -0.000521 0
-0.000169 -0.000042 0
-0.000020 0.000250 0
0.000015 0.000291 0
0.000000 -0.000000 0
0.000000 -0.000000 0
-0.000135 0.000367 0
-0.000552 0.001052 0
-0.001257 0.001925 0
-0.002252 0.002887 0
-0.003529 0.003869 0
-0.005077 0.004821 0
-0.006876 0.005709 0
-0.008904 0.006513 0
-0.011135 0.007221 0
-0.013544 0.007828 0
-0.016102 0.008331 0
-0.018780 0.008732 0
-0.021552 0.009035 0
-0.024389 0.009244 0
-0.027266 0.009362 0
-0.030157 0.009394 0
-0.033037 0.009344 0
-0.035882 0.009214 0
-0.038668 0.009006 0
-0.041373 0.008723 0
-0.043974 0.008366 0
-0.046449 0.007937 0
-0.048776 0.007435 0
-0.050935 0.006863 0
-0.052905 0.006223 0
-0.054667 0.005516 0
-0.056201 0.004745 0
-0.057491 0.003915 0
-0.058520 0.003029 0
-0.059274 0.002094 0
-0.059740 0.001116 0
-0.059908 0.000104 0
-0.059770 -0.000933 0
-0.059322 -0.001984 0
-0.058562 -0.003037 0
-0.057492 -0.004079 0
-0.056117 -0.005096 0
-0.054447 -0.006075 0
-0.052496 -0.006998 0
-0.050281 -0.007853 0
-0.047824 -0.008622 0
-0.045151 -0.009294 0
-0.042292 -0.009853 0
-0.039279 -0.010288 0
-0.036149 -0.010589 0
-0.032940 -0.010748 0
-0.029693 -0.010760 0
-0.026451 -0.010621 0
-0.023255 -0.010332 0
-0.020148 -0.009898 0
-0.017169 -0.009324 0
-0.014358 -0.008623 0
-0.011749 -0.007809 0
-0.009372 -0.006900 0
-0.007252 -0.005919 0
-0.005408 -0.004892 0
-0.003850 -0.003851 0
-0.002582 -0.002831 0
-0.001597 -0.001873 0
-0.000879 -0.001025 0
-0.000403 -0.000342 0
-0.000130 0.000110 0
-0.000016 0.000255 0
0.000000 -0.000000 0
0.000000 -0.000000 0
-0.000183 0.000686 0
-0.000724 0.001690 0
-0.001612 0.002877 0
-0.002835 0.004146 0
-0.004377 0.005420 0
-0.006218 0.006646 0
-0.008333 0.007785 0
-0.010695 0.008815 0
-0.013276 0.009720 0
-0.016045 0.010495 0
-0.018973 0.011138 0
-0.022027 0.011649 0
-0.025179 0.012034 0
-0.028398 0.012296 0
-0.031655 0.012440 0
-0.034923 0.012472 0
-0.038174 0.012395 0
-0.041382 0.012213 0
-0.044521 0.011930 0
-0.047565 0.011547 0
-0.050490 0.011066 0
-0.053270 0.010490 0
-0.055884 0.009820 0
-0.058307 0.009057 0
-0.060517 0.008205 0
-0.062492 0.007266 0
-0.064213 0.006245 0
-0.065659 0.005146 0
-0.066813 0.003975 0
-0.067661 0.002741 0
-0.068187 0.001453 0
-0.068381 0.000121 0
-0.068235 -0.001242 0
-0.067743 -0.002622 0
-0.066904 -0.004005 0
-0.065720 -0.005372 0
-0.064197 -0.006707 0
-0.062344 -0.007991 0
-0.060177 -0.009203 0
-0.057715 -0.010326 0
-0.054981 -0.011339 0
-0.052002 -0.012225 0
-0.048812 -0.012966 0
-0.045445 -0.013547 0
-0.041941 -0.013955 0
-0.038342 -0.014179 0
-0.034692 -0.014212 0
-0.031037 -0.014051 0
-0.027424 -0.013695 0
-0.023899 -0.013150 0
-0.020506 -0.012425 0
-0.017289 -0.011533 0
-0.014286 -0.010494 0
-0.011531 -0.009331 0
-0.009053 -0.008072 0
-0.006875 -0.006751 0
-0.005009 -0.005407 0
-0.003463 -0.004085 0
-0.002232 -0.002835 0
-0.001303 -0.001715 0
-0.000653 -0.000791 0
-0.000248 -0.000136 0
-0.000048 0.000161 0
0.000000 -0.000000 0
0.000000 0.000000 0
-0.000230 0.001091 0
-0.000893 0.002481 0
-0.001963 0.004036 0
-0.003416 0.005653 0
-0.005223 0.007251 0
-0.007356 0.008776 0
-0.009786 0.010186 0
-0.012480 0.011457 0
-0.015405 0.012572 0
-0.018529 0.013524 0
-0.021816 0.014313 0
-0.025236 0.014938 0
-0.028754 0.015406 0
-0.032340 0.015720 0
-0.035962 0.015888 0
-0.039590 0.015914 0
-0.043194 0.015803 0
-0.046747 0.015560 0
-0.050220 0.015189 0
-0.053586 0.014692 0
-0.056818 0.014072 0
-0.059890 0.013331 0
-0.062775 0.012472 0
-0.065450 0.011496 0
-0.067890 0.010408 0
-0.070071 0.009212 0
-0.071972 0.007912 0
-0.073573 0.006516 0
-0.074853 0.005031 0
-0.075797 0.003467 0
-0.076389 0.001836 0
-0.076619 0.000152 0
-0.076476 -0.001571 0
-0.075955 -0.003314 0
-0.075055 -0.005060 0
-0.073776 -0.006787 0
-0.072125 -0.008472 0
-0.070113 -0.010094 0
-0.067754 -0.011627 0
-0.065069 -0.013049 0
-0.062082 -0.014335 0
-0.058823 -0.015462 0
-0.055324 -0.016410 0
-0.051625 -0.017159 0
-0.047767 -0.017693 0
-0.043795 -0.017997 0
-0.039757 -0.018064 0
-0.035702 -0.017889 0
-0.031680 -0.017471 0
-0.027743 -0.016815 0
-0.023938 -0.015934 0
-0.020314 -0.014844 0
-0.016913 -0.013567 0
-0.013773 -0.012133 0
-0.010929 -0.010575 0
-0.008405 -0.008936 0
-0.006220 -0.007263 0
-0.004383 -0.005608 0
-0.002894 -0.004033 0
-0.001743 -0.002604 0
-0.000911 -0.001396 0
-0.000370 -0.000495 0
-0.000080 0.000007 0
0.000000 -0.000000 0
0.000000 -0.000000 0
-0.000276 0.001579 0
-0.001058 0.003423 0
-0.002308 0.005400 0
-0.003986 0.007405 0
-0.006056 0.009361 0
-0.008480 0.011209 0
-0.011221 0.012909 0
-0.014242 0.014434 0
-0.017506 0.015769 0
-0.020976 0.016907 0
-0.024615 0.017845 0
-0.028389 0.018587 0
-0.032263 0.019138 0
-0.036202 0.019503 0
-0.040175 0.019690 0
-0.044148 0.019704 0
-0.048092 0.019553 0
-0.051975 0.019239 0
-0.055768 0.018769 0
-0.059442 0.018144 0
-0.062968 0.017370 0
-0.066319 0.016447 0
-0.069468 0.015380 0
-0.072386 0.014172 0
-0.075050 0.012826 0
-0.077434 0.011349 0
-0.079515 0.009746 0
-0.081270 0.008026 0
-0.082681 0.006199 0
-0.083728 0.004278 0
-0.084397 0.002275 0
-0.084674 0.000208 0
-0.084549 -0.001905 0
-0.084016 -0.004044 0
-0.083072 -0.006184 0
-0.081719 -0.008302 0
-0.079963 -0.010370 0
-0.077813 -0.012362 0
-0.075285 -0.014247 0
-0.072400 -0.015998 0
-0.069182 -0.017586 0
-0.065662 -0.018983 0
-0.061876 -0.020164 0
-0.057862 -0.021105 0
-0.053666 -0.021785 0
-0.049333 -0.022189 0
-0.044916 -0.022306 0
-0.040468 -0.022127 0
-0.036041 -0.021654 0
-0.031692 -0.020892 0
-0.027473 -0.019854 0
-0.023436 -0.018559 0
-0.019629 -0.017035 0
-0.016095 -0.015315 0
-0.012872 -0.013440 0
-0.009991 -0.011460 0
-0.007474 -0.009430 0
-0.005335 -0.007411 0
-0.003577 -0.005475 0
-0.002195 -0.003698 0
-0.001175 -0.002164 0
-0.000492 -0.000967 0
-0.000113 -0.000209 0
0.000000 -0.000000 0
0.000000 -0.000000 0
-0.000319 0.002149 0
-0.001218 0.004513 0
-0.002642 0.006964 0
-0.004542 0.009400 0
-0.006869 0.011745 0
-0.009578 0.013941 0
-0.012625 0.015949 0
-0.015968 0.017742 0
-0.019563 0.019306 0
-0.023372 0.020634 0
-0.027354 0.021726 0
-0.031473 0.022586 0
-0.035691 0.023218 0
-0.039972 0.023632 0
-0.044283 0.023834 0
-0.048590 0.023831 0
-0.052860 0.023630 0
-0.057061 0.023237 0
-0.061163 0.022656 0
-0.065135 0.021893 0
-0.068946 0.020949 0
-0.072569 0.019830 0
-0.075973 0.018538 0
-0.079132 0.017079 0
-0.082017 0.015456 0
-0.084604 0.013677 0
-0.086867 0.011749 0
-0.088783 0.009682 0
-0.090331 0.007489 0
-0.091492 0.005183 0
-0.092249 0.002781 0
-0.092588 0.000304 0
-0.092498 -0.002229 0
-0.091972 -0.004791 0
-0.091005 -0.007357 0
-0.089600 -0.009896 0
-0.087759 -0.012379 0
-0.085495 -0.014771 0
-0.082821 -0.017040 0
-0.079757 -0.019152 0
-0.076329 -0.021072 0
-0.072569 -0.022769 0
-0.068511 -0.024210 0
-0.064198 -0.025369 0
-0.059675 -0.026221 0
-0.054991 -0.026746 0
-0.050202 -0.026930 0
-0.045362 -0.026764 0
-0.040530 -0.026246 0
-0.035764 -0.025384 0
-0.031124 -0.024190 0
-0.026665 -0.022688 0
-0.022440 -0.020908 0
-0.018499 -0.018889 0
-0.014885 -0.016679 0
-0.011632 -0.014335 0
-0.008769 -0.011920 0
-0.006315 -0.009506 0
-0.004278 -0.007172 0
-0.002657 -0.005005 0
-0.001442 -0.003100 0
-0.000614 -0.001557 0
-0.000144 -0.000485 0
0.000000 0.000000 0
0.000000 -0.000000 0
-0.000361 0.002797 0
-0.001372 0.005746 0
-0.002965 0.008723 0
-0.005080 0.011632 0
-0.007658 0.014398 0
-0.010646 0.016966 0
-0.013992 0.019298 0
-0.017647 0.021372 0
-0.021566 0.023173 0
-0.025705 0.024698 0
-0.030021 0.025946 0
-0.034474 0.026923 0
-0.039026 0.027637 0
-0.043639 0.028096 0
-0.048277 0.028307 0
-0.052906 0.028281 0
-0.057492 0.028024 0
-0.062002 0.027542 0
-0.066403 0.026842 0
-0.070665 0.025928 0
-0.074755 0.024804 0
-0.078643 0.023474 0
-0.082301 0.021943 0
-0.085698 0.020216 0
-0.088806 0.018298 0
-0.091598 0.016198 0
-0.094049 0.013925 0
-0.096134 0.011491 0
-0.097831 0.008909 0
-0.099118 0.006196 0
-0.099979 0.003371 0
-0.100397 0.000457 0
-0.100361 -0.002522 0
-0.099862 -0.005536 0
-0.098895 -0.008556 0
-0.097459 -0.011548 0
-0.095558 -0.014475 0
-0.093202 -0.017300 0
-0.090404 -0.019985 0
-0.087184 -0.022489 0
-0.083567 -0.024774 0
-0.079584 -0.026801 0
-0.075271 -0.028535 0
-0.070671 -0.029941 0
-0.065831 -0.030992 0
-0.060803 -0.031663 0
-0.055644 -0.031935 0
-0.050412 -0.031799 0
-0.045170 -0.031252 0
-0.039982 -0.030298 0
-0.034910 -0.028953 0
-0.030017 -0.027243 0
-0.025361 -0.025200 0
-0.020997 -0.022870 0
-0.016974 -0.020308 0
-0.013333 -0.017575 0
-0.010109 -0.014747 0
-0.007326 -0.011903 0
-0.004998 -0.009133 0
-0.003129 -0.006533 0
-0.001714 -0.004207 0
-0.000737 -0.002265 0
-0.000176 -0.000823 0
0.000000 0.000000 0
0.000000 0.000000 0
-0.000401 0.003521 0
-0.001519 0.007117 0
-0.003276 0.010672 0
-0.005599 0.014093 0
-0.008420 0.017311 0
-0.011677 0.020275 0
-0.015313 0.022950 0
-0.019273 0.025316 0
-0.023506 0.027363 0
-0.027965 0.029089 0
-0.032605 0.030495 0
-0.037382 0.031591 0
-0.042258 0.032383 0
-0.047192 0.032883 0
-0.052147 0.033101 0
-0.057089 0.033046 0
-0.061981 0.032725 0
-0.066791 0.032148 0
-0.071484 0.031319 0
-0.076029 0.030244 0
-0.080393 0.028928 0
-0.084545 0.027376 0
-0.088454 0.025593 0
-0.092090 0.023584 0
-0.095425 0.021357 0
-0.098429 0.018920 0
-0.101076 0.016285 0
-0.103340 0.013463 0
-0.105198 0.010473 0
-0.106627 0.007331 0
-0.107609 0.004060 0
-0.108126 0.000686 0
-0.108165 -0.002764 0
-0.107715 -0.006257 0
-0.106771 -0.009760 0
-0.105330 -0.013232 0
-0.103394 -0.016635 0
-0.100970 -0.019926 0
-0.098072 -0.023059 0
-0.094718 -0.025989 0
-0.090931 -0.028673 0
-0.086744 -0.031065 0
-0.082192 -0.033123 0
-0.077317 -0.034810 0
-0.072169 -0.036089 0
-0.066802 -0.036934 0
-0.061274 -0.037321 0
-0.055649 -0.037237 0
-0.049991 -0.036676 0
-0.044371 -0.035644 0
-0.038855 -0.034156 0
-0.033512 -0.032238 0
-0.028407 -0.029928 0
-0.023601 -0.027276 0
-0.019151 -0.024343 0
-0.015105 -0.021199 0
-0.011502 -0.017927 0
-0.008375 -0.014617 0
-0.005742 -0.011369 0
-0.003615 -0.008289 0
-0.001992 -0.005492 0
-0.000863 -0.003095 0
-0.000208 -0.001222 0
0.000000 0.000000 0
0.000000 0.000000 0
-0.000439 0.004317 0
-0.001661 0.008621 0
-0.003574 0.012803 0
-0.006096 0.016776 0
-0.009151 0.020476 0
-0.012669 0.023859 0
-0.016584 0.026894 0
-0.020838 0.029565 0
-0.025374 0.031866 0
-0.030143 0.033796 0
-0.035095 0.035363 0
-0.040187 0.036576 0
-0.045375 0.037446 0
-0.050620 0.037985 0
-0.055883 0.038205 0
-0.061127 0.038115 0
-0.066318 0.037726 0
-0.071420 0.037045 0
-0.076399 0.036080 0
-0.081222 0.034836 0
-0.085856 0.033320 0
-0.090270 0.031535 0
-0.094432 0.029489 0
-0.098311 0.027187 0
-0.101877 0.024637 0
-0.105101 0.021850 0
-0.107954 0.018837 0
-0.110410 0.015613 0
-0.112444 0.012196 0
-0.114032 0.008606 0
-0.115154 0.004869 0
-0.115791 0.001013 0
-0.115928 -0.002932 0
-0.115553 -0.006930 0
-0.114657 -0.010942 0
-0.113236 -0.014925 0
-0.111290 -0.018835 0
-0.108825 -0.022622 0
-0.105851 -0.026238 0
-0.102386 -0.029630 0
-0.098452 -0.032748 0
-0.094079 -0.035541 0
-0.089303 -0.037961 0
-0.084167 -0.039964 0
-0.078721 -0.041507 0
-0.073019 -0.042558 0
-0.067123 -0.043089 0
-0.061100 -0.043082 0
-0.055020 -0.042530 0
-0.048956 -0.041435 0
-0.042982 -0.039812 0
-0.037172 -0.037691 0
-0.031599 -0.035110 0
-0.026331 -0.032126 0
-0.021433 -0.028804 0
-0.016959 -0.025224 0
-0.012959 -0.021477 0
-0.009469 -0.017663 0
-0.006517 -0.013893 0
-0.004118 -0.010283 0
-0.002279 -0.006959 0
-0.000991 -0.004050 0
-0.000240 -0.001685 0
0.000000 0.000000 0
0.000000 0.000000 0
-0.000476 0.005182 0
-0.001795 0.010252 0
-0.003858 0.015107 0
-0.006571 0.019670 0
-0.009849 0.023883 0
-0.013616 0.027708 0
-0.017800 0.031119 0
-0.022336 0.034107 0
-0.027164 0.036669 0
-0.032230 0.038810 0
-0.037484 0.040539 0
-0.042877 0.041870 0
-0.048367 0.042816 0
-0.053912 0.043391 0
-0.059473 0.043609 0
-0.065012 0.043481 0
-0.070492 0.043018 0
-0.075879 0.042228 0
-0.081138 0.041121 0
-0.086235 0.039702 0
-0.091138 0.037977 0
-0.095814 0.035952 0
-0.100230 0.033634 0
-0.104356 0.031029 0