/*--------------------------------*- C++ -*----------------------------------*\
| =========                 |                                                 |
| \\      /  F ield         | OpenFOAM: The Open Source CFD Toolbox           |
|  \\    /   O peration     | Version:  5.x                                   |
|   \\  /    A nd           | Web:      www.OpenFOAM.org                      |
|    \\/     M anipulation  |                                                 |
\*---------------------------------------------------------------------------*/
FoamFile
{
    version     2.0;
    format      ascii;
    class       volScalarField;
    location    "0.8001";
    object      gradTx;
}
// * * * * * * * * * * * * * * * * * * * * * * * * * * * * * * * * * * * * * //

dimensions      [0 -1 0 1 0 0 0];

internalField   nonuniform List<scalar> 
2048
(
0.00728656
0.0216273
0.0352864
0.04788
0.0591201
0.0688207
0.076902
0.0833755
0.0883213
0.0918637
0.0941492
0.0953291
0.0955501
0.0949494
0.0936551
0.0917873
0.0894593
0.0867781
0.0838419
0.0807383
0.077541
0.0743081
0.071082
0.0678907
0.0647503
0.0616681
0.0586451
0.0556774
0.0527579
0.0498761
0.0470193
0.0441728
0.0413214
0.0384508
0.0355486
0.0326046
0.0296109
0.0265608
0.0234478
0.0202646
0.0170028
0.0136531
0.0102066
0.00665733
0.00300474
-0.000742967
-0.00456552
-0.0084273
-0.0122745
-0.016033
-0.0196075
-0.0228828
-0.0257273
-0.0279997
-0.0295585
-0.0302748
-0.0300451
-0.0288048
-0.0265382
-0.0232843
-0.0191372
-0.0142407
-0.00877921
-0.00296622
0.0217351
0.0644989
0.105197
0.142669
0.176051
0.204795
0.228677
0.247748
0.262267
0.272619
0.279251
0.282618
0.283158
0.281277
0.277352
0.271736
0.264766
0.256759
0.248006
0.238771
0.229271
0.219679
0.210118
0.200671
0.191381
0.182269
0.173335
0.164568
0.155945
0.147437
0.139003
0.130601
0.122183
0.113707
0.105136
0.0964388
0.0875939
0.0785821
0.069385
0.0599817
0.0503465
0.0404508
0.030267
0.0197747
0.00896975
-0.00212643
-0.0134566
-0.0249177
-0.0363525
-0.0475426
-0.0582054
-0.0679973
-0.0765236
-0.0833585
-0.088074
-0.0902773
-0.0896522
-0.0859991
-0.0792667
-0.0695704
-0.0571924
-0.0425653
-0.0262428
-0.0088667
0.0360899
0.107058
0.17449
0.236416
0.291385
0.33851
0.377463
0.408388
0.431771
0.448298
0.458742
0.463872
0.464411
0.461021
0.454314
0.444862
0.433214
0.419891
0.405381
0.390116
0.37446
0.358693
0.343015
0.327551
0.312367
0.297487
0.28291
0.268614
0.254562
0.240702
0.226969
0.213287
0.199579
0.185771
0.171801
0.15762
0.143193
0.128494
0.113494
0.0981616
0.0824529
0.0663182
0.0497065
0.0325776
0.0149164
-0.00325063
-0.0218383
-0.040686
-0.0595424
-0.0780533
-0.095755
-0.112078
-0.12636
-0.137882
-0.145915
-0.14978
-0.14893
-0.143009
-0.131921
-0.115852
-0.0952784
-0.0709297
-0.0437346
-0.0147759
0.0506611
0.150202
0.244562
0.330886
0.407113
0.472043
0.52531
0.567238
0.598623
0.620525
0.634084
0.640401
0.640483
0.63523
0.625466
0.611968
0.595486
0.576747
0.556432
0.535151
0.513413
0.491605
0.469991
0.448728
0.427891
0.407499
0.38754
0.367982
0.348773
0.329841
0.311092
0.292417
0.273701
0.254836
0.235735
0.216333
0.196588
0.176468
0.155942
0.134968
0.113486
0.0914193
0.0686882
0.0452228
0.0209861
-0.00400216
-0.0296419
-0.0557277
-0.0819268
-0.10776
-0.132588
-0.155614
-0.1759
-0.192411
-0.204084
-0.209921
-0.209101
-0.201083
-0.185701
-0.163214
-0.1343
-0.100013
-0.0616744
-0.0208353
0.0657287
0.19474
0.316656
0.427625
0.524941
0.607129
0.673885
0.725832
0.764202
0.790524
0.806368
0.813188
0.812263
0.804709
0.791534
0.773694
0.752133
0.727782
0.701532
0.674179
0.646382
0.618631
0.591242
0.564387
0.538131
0.512476
0.487393
0.462836
0.438742
0.415018
0.391542
0.368164
0.344726
0.321081
0.297114
0.272746
0.247933
0.222648
0.196864
0.170533
0.143576
0.115887
0.0873474
0.0578451
0.0273075
-0.00426806
-0.036782
-0.0700009
-0.103526
-0.136766
-0.168914
-0.198944
-0.225627
-0.247583
-0.26337
-0.271615
-0.271167
-0.261251
-0.241606
-0.212554
-0.175004
-0.130368
-0.0804013
-0.0271598
0.0815607
0.241437
0.391934
0.528047
0.646382
0.745252
0.82455
0.885368
0.929538
0.959182
0.976371
0.982935
0.980405
0.970071
0.953082
0.930546
0.903591
0.873362
0.840976
0.807437
0.773564
0.739946
0.706938
0.674699
0.643261
0.61259
0.582633
0.553334
0.524621
0.496387
0.468476
0.440692
0.412823
0.384674
0.356098
0.327006
0.29736
0.267152
0.236366
0.204956
0.172824
0.139828
0.105797
0.070563
0.0340007
-0.00393258
-0.0431563
-0.0834278
-0.124302
-0.165092
-0.204835
-0.242276
-0.275876
-0.303873
-0.324391
-0.335608
-0.335965
-0.32439
-0.300484
-0.264635
-0.218014
-0.162452
-0.100191
-0.0338412
0.0984263
0.291056
0.471532
0.633499
0.772827
0.88771
0.978424
1.04676
1.09536
1.12709
1.1446
1.15011
1.14537
1.13177
1.11055
1.08293
1.05021
1.01377
0.974989
0.935101
0.895109
0.855696
0.81723
0.779827
0.743453
0.708014
0.673426
0.639629
0.606556
0.574091
0.542044
0.510159
0.478154
0.445775
0.412837
0.379246
0.344985
0.310075
0.27453
0.238312
0.201307
0.163326
0.124131
0.0834809
0.0411787
-0.00287775
-0.0486473
-0.0958996
-0.144166
-0.192686
-0.240357
-0.285699
-0.326848
-0.361617
-0.387624
-0.402509
-0.404207
-0.39126
-0.363081
-0.32012
-0.263862
-0.196641
-0.121264
-0.0409519
0.116607
0.344389
0.556606
0.745308
0.905584
1.03565
1.13642
1.21068
1.26212
1.29456
1.31132
1.31498
1.30744
1.29013
1.26428
1.23117
1.19227
1.14924
1.10373
1.0573
1.01112
0.96599
0.922249
0.879927
0.838877
0.798921
0.759936
0.72187
0.684684
0.648265
0.612386
0.576714
0.540877
0.504542
0.467478
0.429593
0.390905
0.351492
0.311413
0.270652
0.229077
0.186441
0.142424
0.0966896
0.0489468
-0.000985893
-0.0531277
-0.107283
-0.162987
-0.219434
-0.275405
-0.329205
-0.378632
-0.42103
-0.453431
-0.472823
-0.476512
-0.462541
-0.430064
-0.379593
-0.313001
-0.233239
-0.143789
-0.0485447
0.136405
0.402278
0.648366
0.86482
1.04592
1.1901
1.29926
1.37754
1.43003
1.46169
1.47657
1.47763
1.4668
1.4454
1.41455
1.37554
1.33001
1.27993
1.22733
1.17409
1.12167
1.07091
1.02212
0.975157
0.929716
0.885494
0.842327
0.800198
0.759128
0.719029
0.679632
0.640504
0.60115
0.56113
0.520162
0.47816
0.435205
0.391456
0.347049
0.302001
0.256162
0.209216
0.160737
0.110267
0.0574015
0.00185677
-0.0564661
-0.117431
-0.180604
-0.245171
-0.309831
-0.372693
-0.431213
-0.48222
-0.522071
-0.546966
-0.553429
-0.538855
-0.502049
-0.44358
-0.36581
-0.272476
-0.167877
-0.0566513
0.158156
0.465645
0.748103
0.993426
1.19507
1.35198
1.4675
1.54757
1.59907
1.62833
1.64024
1.63803
1.62352
1.59775
1.5616
1.51629
1.46364
1.40598
1.34584
1.28552
1.22677
1.17052
1.11695
1.06568
1.01616
0.967926
0.920768
0.874747
0.829997
0.786489
0.743902
0.701668
0.659128
0.6157
0.571031
0.525058
0.477956
0.430006
0.38145
0.332362
0.282574
0.231678
0.179115
0.12428
0.0666284
0.00575624
-0.0585338
-0.126186
-0.196833
-0.269692
-0.343427
-0.415985
-0.484485
-0.545201
-0.593712
-0.625281
-0.63545
-0.620789
-0.579618
-0.512558
-0.422603
-0.314507
-0.193578
-0.0652798
0.18223
0.535504
0.857219
1.13258
1.35426
1.52212
1.64151
1.72077
1.76897
1.79413
1.80202
1.79601
1.7776
1.74733
1.70567
1.65365
1.59333
1.5275
1.45929
1.39157
1.32642
1.26486
1.20684
1.15167
1.09843
1.04643
0.995433
0.945639
0.897382
0.850732
0.805304
0.760345
0.714972
0.668414
0.620228
0.570393
0.51922
0.467161
0.414609
0.36172
0.308303
0.253836
0.19759
0.138782
0.0767018
0.010807
-0.0592111
-0.133396
-0.211479
-0.292764
-0.375937
-0.458835
-0.538258
-0.609893
-0.668442
-0.708042
-0.723028
-0.708908
-0.663341
-0.586971
-0.483622
-0.359394
-0.220869
-0.0744101
0.209047
0.612987
0.977245
1.28384
1.5247
1.70123
1.82152
1.89693
1.93928
1.95856
1.96147
1.95132
1.929
1.89429
1.84699
1.78789
1.71927
1.64458
1.56769
1.49217
1.42056
1.35394
1.29192
1.23331
1.17674
1.12123
1.0665
1.01298
0.96135
0.911826
0.863936
0.816669
0.768847
0.719445
0.667902
0.614266
0.559046
0.502924
0.446496
0.390035
0.333324
0.275688
0.216184
0.153816
0.0876831
0.0170888
-0.0583933
-0.138917
-0.224349
-0.314137
-0.407067
-0.500937
-0.592264
-0.676134
-0.746266
-0.795465
-0.81658
-0.803771
-0.753791
-0.667238
-0.549037
-0.407103
-0.249641
-0.0839886
0.239082
0.699363
1.10986
1.44882
1.70762
1.88993
2.00756
2.07563
2.10931
2.1209
2.11803
2.10365
2.07766
2.03876
1.98584
1.91925
1.84163
1.75728
1.67099
1.58722
1.50911
1.43776
1.3723
1.31082
1.25138
1.1926
1.13415
1.07688
1.02194
0.969816
0.919884
0.870775
0.820925
0.768978
0.714209
0.65678
0.597477
0.537282
0.477063
0.417251
0.357597
0.297222
0.234911
0.169416
0.0996217
0.0246642
-0.0559965
-0.142625
-0.235255
-0.333552
-0.436495
-0.541934
-0.646167
-0.74368
-0.827116
-0.887706
-0.916491
-0.905943
-0.851564
-0.753768
-0.618937
-0.457474
-0.279681
-0.0939224
0.272873
0.796047
1.25692
1.62928
1.90418
2.0887
2.1995
2.25629
2.27818
2.28027
2.27104
2.25266
2.22351
2.18093
2.12253
2.04804
1.96062
1.86566
1.76912
1.67657
1.59195
1.51632
1.4481
1.38443
1.32264
1.26082
1.19859
1.13738
1.07916
1.02472
0.973224
0.922795
0.871391
0.817213
0.759311
0.698031
0.634544
0.570207
0.506241
0.443293
0.381073
0.318422
0.253776
0.185606
0.112555
0.0335765
-0.0519625
-0.144422
-0.244029
-0.350753
-0.463882
-0.58143
-0.699565
-0.812208
-0.910846
-0.984865
-1.02312
-1.01601
-0.957309
-0.846973
-0.69332
-0.510206
-0.310655
-0.104073
0.311038
0.904623
1.42043
1.82708
2.11554
2.29786
2.39705
2.4381
2.44483
2.43563
2.41977
2.39797
2.36651
2.32102
2.25746
2.1746
2.0764
1.96978
1.86198
1.76003
1.6689
1.5896
1.51947
1.45441
1.39086
1.32623
1.26001
1.19455
1.13296
1.07654
1.02402
0.972863
0.920436
0.864369
0.803381
0.738113
0.670273
0.601659
0.533939
0.468067
0.403691
0.339266
0.272785
0.202406
0.12651
0.0438496
-0.0462625
-0.144239
-0.25053
-0.365498
-0.488879
-0.619001
-0.752001
-0.881314
-0.997237
-1.08698
-1.13677
-1.13456
-1.07175
-0.947288
-0.772082
-0.564829
-0.342093
-0.114249
0.354284
1.02685
1.60262
2.0442
2.34278
2.51757
2.59972
2.6201
2.60799
2.58581
2.56344
2.53926
2.50661
2.45931
2.39111
2.2993
2.18917
2.06967
1.94946
1.83735
1.73974
1.65756
1.58659
1.52103
1.45641
1.38922
1.31863
1.24836
1.18327
1.12522
1.07235
1.02111
0.968263
0.910693
0.8466
0.777114
0.704685
0.631582
0.560046
0.491461
0.425387
0.359741
0.291939
0.21983
0.141508
0.055488
-0.0389009
-0.142049
-0.254646
-0.37756
-0.511143
-0.654202
-0.802972
-0.95052
-1.086
-1.19404
-1.2577
-1.26222
-1.19574
-1.0552
-0.854992
-0.62067
-0.373367
-0.124206
0.403437
1.16468
1.80586
2.28276
2.58686
2.74771
2.80692
2.80119
2.76623
2.72949
2.70126
2.67623
2.64381
2.59612
2.52408
2.42256
2.29908
2.16541
2.03142
1.9082
1.80422
1.72018
1.64966
1.58461
1.51972
1.45026
1.37469
1.29876
1.22991
1.17073
1.11828
1.06765
1.01509
0.956465
0.889159
0.815107
0.737795
0.659915
0.584428
0.513342
0.446095
0.379838
0.311238
0.237888
0.157567
0.0684775
-0.0299179
-0.137863
-0.256305
-0.386743
-0.53034
-0.686585
-0.851933
-1.01927
-1.17676
-1.30597
-1.3861
-1.39961
-1.33029
-1.17128
-0.941669
-0.676824
-0.40368
-0.133641
0.459478
1.32023
2.03271
2.54508
2.84862
2.98791
3.01793
2.98018
2.91794
2.86525
2.83246
2.80872
2.77807
2.73182
2.6571
2.54483
2.40626
2.25708
2.10772
1.9722
1.86198
1.77745
1.70896
1.64543
1.58122
1.5099
1.42842
1.34563
1.27266
1.21298
1.1619
1.11261
1.06112
1.00201
0.93125
0.852142
0.769627
0.68659
0.606927
0.533559
0.465751
0.399571
0.330683
0.256584
0.174707
0.0827878
-0.0193921
-0.131739
-0.255474
-0.392879
-0.546153
-0.71571
-0.898319
-1.08691
-1.26911
-1.42268
-1.52202
-1.54734
-1.47665
-1.29624
-1.03154
-0.732111
-0.432062
-0.142197
0.523605
1.49579
2.28582
2.83371
3.12865
3.23739
3.23199
3.15579
3.0613
2.99149
2.95632
2.93671
2.90932
2.86677
2.79114
2.66656
2.51071
2.34483
2.17822
2.02889
1.91262
1.82938
1.76482
1.70377
1.64138
1.56883
1.48011
1.38873
1.3112
1.25189
1.20335
1.15606
1.10658
1.04774
0.973068
0.88823
0.800215
0.71154
0.627353
0.551934
0.484302
0.418978
0.350269
0.275917
0.19296
0.0983744
-0.00744297
-0.123779
-0.252166
-0.395835
-0.558291
-0.741161
-0.941554
-1.15271
-1.36256
-1.54405
-1.66533
-1.70593
-1.63643
-1.43095
-1.12378
-0.785041
-0.457373
-0.149473
0.597346
1.69381
2.56792
3.15157
3.42724
3.49485
3.44842
3.32677
3.19435
3.10652
3.07223
3.06043
3.03737
3.00133
2.92746
2.78819
2.6123
2.4289
2.24284
2.07767
1.95564
1.87599
1.81771
1.75984
1.70064
1.62792
1.53003
1.42771
1.34509
1.28737
1.24283
1.19803
1.15166
1.09414
1.01479
0.923318
0.829625
0.734706
0.645482
0.568264
0.501706
0.438142
0.369976
0.295874
0.212384
0.115181
0.005766
-0.114133
-0.246436
-0.395518
-0.566483
-0.762564
-0.98108
-1.21582
-1.45657
-1.67002
-1.81569
-1.87576
-1.81166
-1.57658
-1.21723
-0.833777
-0.478322
-0.155034
0.682727
1.91681
2.8816
3.50212
3.74425
3.75832
3.66677
3.49193
3.31486
3.20846
3.17969
3.18047
3.16182
3.13577
3.06776
2.91008
2.71063
2.50975
2.30152
2.11785
1.99042
1.91738
1.86828
1.81371
1.7594
1.68829
1.57848
1.46206
1.3738
1.31936
1.28069
1.23845
1.19651
1.14187
1.05658
0.957257
0.857982
0.756044
0.661047
0.582311
0.517938
0.457207
0.389762
0.316421
0.233075
0.133142
0.0200234
-0.102993
-0.23838
-0.391869
-0.570484
-0.779602
-1.01639
-1.27521
-1.55056
-1.8007
-1.97237
-2.0569
-2.00506
-1.73462
-1.31026
-0.8761
-0.493507
-0.15844
0.782551
2.16729
3.22917
3.88967
4.07894
4.02489
3.88712
3.65019
3.42036
3.29522
3.2784
3.29798
3.2819
3.27017
3.21436
3.03246
2.8049
2.58813
2.35428
2.14854
2.0162
1.9537
1.91744
1.86524
1.81798
1.75142
1.62579
1.49106
1.39662
1.34782
1.31743
1.27712
1.2412
1.1918
1.09854
0.989753
0.885514
0.775533
0.673724
0.593797
0.532996
0.476407
0.409539
0.337494
0.255196
0.152182
0.0350647
-0.0905933
-0.228139
-0.384871
-0.570058
-0.792035
-1.04707
-1.32969
-1.64389
-1.93648
-2.13422
-2.24895
-2.22019
-1.90701
-1.4006
-0.909396
-0.501475
-0.159269
0.900826
2.44765
3.61229
4.31988
4.42978
4.2904
4.11038
3.80066
3.50803
3.36452
3.36822
3.41488
3.3962
3.40431
3.37053
3.1553
2.89372
2.66528
2.40122
2.16864
2.03207
1.98516
1.96651
1.91394
1.87648
1.81931
1.67223
1.51375
1.41272
1.37276
1.35387
1.31359
1.2857
1.24514
1.14066
1.0203
0.91261
0.793176
0.683117
0.6024
0.546901
0.496105
0.429145
0.358981
0.279009
0.172211
0.0505644
-0.0771974
-0.215886
-0.37455
-0.564969
-0.799714
-1.07289
-1.37776
-1.73583
-2.07828
-2.29944
-2.4507
-2.46184
-2.09627
-1.4851
-0.930662
-0.500804
-0.157155
1.0434
2.75995
4.03152
4.8004
4.79412
4.54901
4.3389
3.94259
3.57464
3.4138
3.44918
3.53427
3.50245
3.53746
3.54088
3.27817
2.97487
2.74321
2.44251
2.1768
2.03691
2.01202
2.0174
1.95881
1.93474
1.89467
1.71801
1.52884
1.4211
1.39421
1.39124
1.34708
1.32976
1.30359
1.18283
1.04808
0.93992
0.809002
0.688741
0.607745
0.559688
0.516846
0.448299
0.380699
0.30492
0.193117
0.0661273
-0.0630913
-0.201828
-0.36098
-0.554948
-0.802583
-1.09388
-1.41755
-1.82553
-2.22787
-2.46549
-2.65981
-2.73645
-2.30565
-1.55936
-0.936553
-0.49021
-0.151826
1.21891
3.10564
4.48556
5.34188
5.16779
4.79263
4.57713
4.07533
3.61646
3.44019
3.52136
3.66082
3.59701
3.66816
3.73197
3.39999
3.04492
2.82506
2.47833
2.17134
2.02942
2.03453
2.07288
1.9981
1.99219
1.98123
1.76315
1.53471
1.4206
1.41224
1.43137
1.37631
1.37288
1.36953
1.22468
1.07188
0.968479
0.823043
0.689999
0.609405
0.571396
0.539431
0.46655
0.402366
0.333542
0.214748
0.0812766
-0.0485654
-0.186198
-0.344296
-0.539664
-0.800684
-1.1105
-1.44665
-1.91187
-2.38829
-2.62883
-2.87217
-3.05268
-2.53921
-1.61735
-0.923489
-0.468679
-0.143137
1.44002
3.48522
4.97038
5.95932
5.54458
5.01018
4.83264
4.19813
3.62915
3.44056
3.58477
3.80151
3.67441
3.79388
3.95299
3.51875
3.09888
2.91564
2.50877
2.15018
2.00807
2.05289
2.1369
2.02906
2.04766
2.08407
1.80735
1.5293
1.40994
1.42686
1.47696
1.39931
1.41414
1.4463
1.26551
1.0899
0.999886
0.835305
0.686158
0.606902
0.582037
0.565014
0.483193
0.423565
0.365777
0.236886
0.0954412
-0.0338936
-0.169246
-0.324715
-0.518678
-0.794125
-1.12383
-1.46197
-1.99333
-2.56448
-2.78472
-3.0813
-3.42214
-2.80203
-1.65078
-0.887846
-0.4356
-0.131106
1.72529
3.89773
5.47786
6.67389
5.91548
5.18667
5.1174
4.30978
3.60766
3.41151
3.63901
3.96647
3.72666
3.91064
4.21685
3.63109
3.12958
3.02206
2.53364
2.11084
1.97116
2.067
2.21511
2.04753
2.09916
2.21014
1.84978
1.51013
1.38772
1.43794
1.53189
1.41316
1.4521
1.53859
1.30413
1.09959
1.03654
0.845696
0.676331
0.599724
0.591546
0.595234
0.497175
0.443704
0.40292
0.259195
0.107942
-0.0193058
-0.151232
-0.302566
-0.491385
-0.783032
-1.1358
-1.45952
-2.06767
-2.76396
-2.92702
-3.27734
-3.86038
-3.1003
-1.64845
-0.826256
-0.390904
-0.115928
2.10143
4.34009
5.99422
7.51522
6.26778
5.30212
5.44941
4.40803
3.54622
3.3495
3.68282
4.17011
3.74238
4.01243
4.54131
3.73173
3.12712
3.15465
2.55215
2.05035
1.91684
2.07631
2.31547
2.04749
2.14365
2.36884
1.88872
1.47426
1.35255
1.44504
1.60165
1.4137
1.48459
1.65283
1.33868
1.09746
1.08196
0.853923
0.659455
0.58735
0.599703
0.632385
0.506967
0.461963
0.446792
0.281165
0.117978
-0.00495444
-0.132413
-0.278337
-0.456953
-0.767463
-1.14957
-1.43415
-2.13162
-2.9978
-3.04792
-3.44597
-4.38802
-3.44144
-1.59535
-0.736047
-0.335186
-0.097982
2.60634
4.80632
6.49783
8.52446
6.58385
5.33026
5.85479
4.48873
3.43831
3.25102
3.71334
4.43251
3.70585
4.09065
4.95056
3.81284
3.07805
3.32805
2.56243
1.9653
1.84326
2.07934
2.44895
2.02057
2.17669
2.57278
1.92113
1.41834
1.30311
1.44711
1.69386
1.3951
1.5085
1.79778
1.36636
1.07875
1.14113
0.859334
0.634288
0.569291
0.606023
0.679624
0.51041
0.477243
0.499896
0.302021
0.12462
0.00912561
-0.113032
-0.252735
-0.414261
-0.747261
-1.16993
-1.37934
-2.18027
-3.28172
-3.13779
-3.56698
-5.03218
-3.83415
-1.47164
-0.615853
-0.269783
-0.0778163
3.29287
5.28654
6.95677
9.75778
6.83967
5.23697
6.37028
4.54457
3.27677
3.11294
3.72518
4.7812
3.59579
4.13336
5.477
3.86319
2.96457
3.56256
2.56089
1.85187
1.74871
2.07324
2.63058
1.95534
2.19209
2.83867
1.94209
1.33869
1.23832
1.44217
1.81895
1.34949
1.5195
1.98515
1.38314
1.03722
1.221
0.860696
0.599419
0.54516
0.609594
0.741236
0.504527
0.488104
0.565616
0.320607
0.126806
0.0230611
-0.0932929
-0.226764
-0.361829
-0.721863
-1.2038
-1.28692
-2.20646
-3.63739
-3.18496
-3.61264
-5.82819
-4.2884
-1.2515
-0.466417
-0.19679
-0.0561105
4.23327
5.76577
7.32574
11.2908
7.00298
4.97862
7.04617
4.56349
3.05405
2.93293
3.70909
5.25324
3.38405
4.12439
6.16329
3.86716
2.76355
3.88573
2.54136
1.70595
1.63187
2.05303
2.8805
1.83661
2.18151
3.18838
1.94405
1.23144
1.15758
1.42679
1.99092
1.26636
1.51177
2.23036
1.38338
0.964782
1.33104
0.855898
0.55329
0.514761
0.608873
0.822948
0.485303
0.492706
0.648431
0.335239
0.123348
0.0371878
-0.0733392
-0.201818
-0.297769
-0.690023
-1.26083
-1.14681
-2.19986
-4.09391
-3.17563
-3.54574
-6.82153
-4.81531
-0.901803
-0.291612
-0.118984
-0.033624
5.52456
6.2225
7.54261
13.2233
7.03121
4.50025
7.94975
4.52657
2.7626
2.71008
3.6503
5.89762
3.03405
4.04243
7.06468
3.80356
2.44551
4.33423
2.49393
1.5234
1.49216
2.01076
3.22531
1.64458
2.13399
3.6501
1.91589
1.0928
1.061
1.39543
2.22826
1.13206
1.47766
2.55341
1.35943
0.851168
1.48387
0.841581
0.494265
0.478207
0.601421
0.932303
0.447436
0.488746
0.754167
0.343531
0.112953
0.0520979
-0.0532231
-0.179788
-0.219747
-0.649463
-1.35405
-0.946836
-2.14599
-4.68943
-3.09384
-3.31748
-8.07
-5.42699
-0.380665
-0.0996765
-0.0396215
-0.0111303
)
;

boundaryField
{
    left
    {
        type            calculated;
        value           uniform 0;
    }
    right
    {
        type            calculated;
        value           uniform 0;
    }
    interface
    {
        type            calculated;
        value           nonuniform List<scalar> 
64
(
5.52456
6.2225
7.54261
13.2233
7.03121
4.50025
7.94975
4.52657
2.7626
2.71008
3.6503
5.89762
3.03405
4.04243
7.06468
3.80356
2.44551
4.33423
2.49393
1.5234
1.49216
2.01076
3.22531
1.64458
2.13399
3.6501
1.91589
1.0928
1.061
1.39543
2.22826
1.13206
1.47766
2.55341
1.35943
0.851168
1.48387
0.841581
0.494265
0.478207
0.601421
0.932303
0.447436
0.488746
0.754167
0.343531
0.112953
0.0520979
-0.0532231
-0.179788
-0.219747
-0.649463
-1.35405
-0.946836
-2.14599
-4.68943
-3.09384
-3.31748
-8.07
-5.42699
-0.380665
-0.0996765
-0.0396215
-0.0111303
)
;
    }
    bottom
    {
        type            calculated;
        value           nonuniform List<scalar> 
64
(
0.00728656
0.0216273
0.0352864
0.04788
0.0591201
0.0688207
0.076902
0.0833755
0.0883213
0.0918637
0.0941492
0.0953291
0.0955501
0.0949494
0.0936551
0.0917873
0.0894593
0.0867781
0.0838419
0.0807383
0.077541
0.0743081
0.071082
0.0678907
0.0647503
0.0616681
0.0586451
0.0556774
0.0527579
0.0498761
0.0470193
0.0441728
0.0413214
0.0384508
0.0355486
0.0326046
0.0296109
0.0265608
0.0234478
0.0202646
0.0170028
0.0136531
0.0102066
0.00665733
0.00300474
-0.000742967
-0.00456552
-0.0084273
-0.0122745
-0.016033
-0.0196075
-0.0228828
-0.0257273
-0.0279997
-0.0295585
-0.0302748
-0.0300451
-0.0288048
-0.0265382
-0.0232843
-0.0191372
-0.0142407
-0.00877921
-0.00296622
)
;
    }
    defaultFaces
    {
        type            empty;
    }
}


// ************************************************************************* //
