/*--------------------------------*- C++ -*----------------------------------*\
| =========                 |                                                 |
| \\      /  F ield         | OpenFOAM: The Open Source CFD Toolbox           |
|  \\    /   O peration     | Version:  5.x                                   |
|   \\  /    A nd           | Web:      www.OpenFOAM.org                      |
|    \\/     M anipulation  |                                                 |
\*---------------------------------------------------------------------------*/
FoamFile
{
    version     2.0;
    format      ascii;
    class       volScalarField;
    location    "0.8001";
    object      gradTy;
}
// * * * * * * * * * * * * * * * * * * * * * * * * * * * * * * * * * * * * * //

dimensions      [0 -1 0 1 0 0 0];

internalField   nonuniform List<scalar> 
2048
(
-27.7007
-27.6688
-27.606
-27.5143
-27.3965
-27.2557
-27.0956
-26.9197
-26.7315
-26.5343
-26.3308
-26.1237
-25.9152
-25.7073
-25.5016
-25.2994
-25.1019
-24.9099
-24.7242
-24.5451
-24.3729
-24.2078
-24.0497
-23.8986
-23.7544
-23.617
-23.4862
-23.3619
-23.244
-23.1325
-23.0271
-22.9279
-22.835
-22.7482
-22.6677
-22.5935
-22.5258
-22.4646
-22.4102
-22.3626
-22.3219
-22.2885
-22.2625
-22.244
-22.2334
-22.2308
-22.2366
-22.2507
-22.2732
-22.3041
-22.3431
-22.3897
-22.443
-22.5021
-22.5655
-22.6314
-22.698
-22.7631
-22.8243
-22.8794
-22.9264
-22.9633
-22.9888
-23.0018
-27.7263
-27.6936
-27.6292
-27.5353
-27.4148
-27.2712
-27.1082
-26.9295
-26.7387
-26.5391
-26.3335
-26.1246
-25.9146
-25.7053
-25.4984
-25.2953
-25.0971
-24.9046
-24.7185
-24.5391
-24.3668
-24.2016
-24.0436
-23.8926
-23.7485
-23.6111
-23.4804
-23.3562
-23.2384
-23.1268
-23.0215
-22.9223
-22.8293
-22.7424
-22.6618
-22.5876
-22.5197
-22.4585
-22.4039
-22.3561
-22.3153
-22.2817
-22.2555
-22.2368
-22.226
-22.2233
-22.2288
-22.2429
-22.2655
-22.2966
-22.336
-22.3832
-22.4374
-22.4976
-22.5624
-22.6299
-22.6982
-22.7651
-22.8281
-22.8849
-22.9334
-22.9715
-22.9978
-23.0113
-27.7755
-27.7411
-27.6736
-27.5754
-27.4498
-27.3006
-27.132
-26.9479
-26.7521
-26.5479
-26.3384
-26.1261
-25.9131
-25.7013
-25.4923
-25.2875
-25.0879
-24.8944
-24.7075
-24.5278
-24.3552
-24.19
-24.032
-23.8811
-23.7372
-23.6
-23.4695
-23.3454
-23.2277
-23.1162
-23.0109
-22.9117
-22.8186
-22.7316
-22.6508
-22.5764
-22.5083
-22.4468
-22.392
-22.3439
-22.3028
-22.2689
-22.2422
-22.2232
-22.212
-22.2089
-22.2142
-22.2281
-22.2508
-22.2823
-22.3224
-22.3707
-22.4266
-22.4889
-22.5563
-22.6269
-22.6986
-22.7689
-22.8354
-22.8955
-22.9468
-22.9873
-23.0152
-23.0294
-27.8462
-27.8094
-27.7372
-27.6325
-27.4993
-27.342
-27.1652
-26.9734
-26.7705
-26.56
-26.3449
-26.1278
-25.9106
-25.6953
-25.4834
-25.2761
-25.0746
-24.8797
-24.6919
-24.5115
-24.3388
-24.1736
-24.0157
-23.865
-23.7213
-23.5844
-23.4541
-23.3303
-23.2127
-23.1013
-22.9961
-22.8968
-22.8035
-22.7164
-22.6354
-22.5606
-22.4923
-22.4304
-22.3752
-22.3268
-22.2852
-22.2508
-22.2236
-22.204
-22.1922
-22.1886
-22.1935
-22.2071
-22.2299
-22.2618
-22.3029
-22.3528
-22.4109
-22.4762
-22.5473
-22.6223
-22.6989
-22.7744
-22.846
-22.9109
-22.9663
-23.01
-23.0403
-23.0557
-27.937
-27.8968
-27.8183
-27.7051
-27.5618
-27.3938
-27.2064
-27.0046
-26.7927
-26.5743
-26.3523
-26.1292
-25.907
-25.6873
-25.4717
-25.2614
-25.0575
-24.8608
-24.6719
-24.491
-24.318
-24.1528
-23.9952
-23.8449
-23.7015
-23.5649
-23.4349
-23.3114
-23.194
-23.0828
-22.9776
-22.8782
-22.7848
-22.6974
-22.6161
-22.5409
-22.4722
-22.4099
-22.3543
-22.3054
-22.2633
-22.2283
-22.2004
-22.18
-22.1674
-22.1631
-22.1673
-22.1806
-22.2033
-22.2357
-22.2779
-22.3296
-22.3906
-22.4597
-22.5355
-22.6162
-22.6991
-22.7812
-22.8595
-22.9306
-22.9915
-23.0395
-23.0727
-23.0896
-28.047
-28.0025
-27.9159
-27.7918
-27.6358
-27.4545
-27.2541
-27.0403
-26.8176
-26.5899
-26.3599
-26.13
-25.9018
-25.6771
-25.4572
-25.2434
-25.0368
-24.8382
-24.648
-24.4664
-24.2933
-24.1284
-23.9711
-23.8212
-23.6783
-23.5421
-23.4125
-23.2893
-23.1722
-23.0612
-22.956
-22.8566
-22.763
-22.6752
-22.5935
-22.5179
-22.4487
-22.386
-22.3299
-22.2804
-22.2377
-22.2019
-22.1732
-22.1519
-22.1384
-22.133
-22.1365
-22.1492
-22.1716
-22.2044
-22.2477
-22.3015
-22.3657
-22.4392
-22.5208
-22.6083
-22.6989
-22.7893
-22.8758
-22.9546
-23.0222
-23.0755
-23.1124
-23.1311
-28.1756
-28.1257
-28.0291
-27.8913
-27.7199
-27.5225
-27.3067
-27.0789
-26.844
-26.6059
-26.3671
-26.1296
-25.895
-25.6646
-25.4399
-25.2222
-25.0125
-24.8118
-24.6204
-24.4383
-24.2652
-24.1006
-23.9439
-23.7946
-23.6522
-23.5165
-23.3874
-23.2645
-23.1478
-23.037
-22.9319
-22.8325
-22.7386
-22.6504
-22.5682
-22.4921
-22.4224
-22.3591
-22.3025
-22.2525
-22.2091
-22.1725
-22.1428
-22.1204
-22.1056
-22.0991
-22.1014
-22.1133
-22.1353
-22.1682
-22.2126
-22.2686
-22.3362
-22.4147
-22.5029
-22.5983
-22.6981
-22.7983
-22.8947
-22.9828
-23.0583
-23.1179
-23.1591
-23.18
-28.3225
-28.266
-28.157
-28.0028
-27.8127
-27.5964
-27.3628
-27.1191
-26.8708
-26.6214
-26.3732
-26.1277
-25.8862
-25.6498
-25.4199
-25.1978
-24.9849
-24.7818
-24.5892
-24.4068
-24.234
-24.07
-23.9141
-23.7655
-23.6237
-23.4886
-23.36
-23.2376
-23.1213
-23.0108
-22.9059
-22.8063
-22.7121
-22.6235
-22.5406
-22.4639
-22.3936
-22.3298
-22.2726
-22.222
-22.1779
-22.1404
-22.1097
-22.086
-22.0698
-22.0619
-22.0628
-22.0734
-22.0948
-22.1276
-22.1728
-22.2309
-22.3021
-22.3861
-22.4816
-22.5862
-22.6965
-22.8082
-22.9162
-23.0151
-23.0999
-23.1668
-23.2128
-23.2362
-28.488
-28.4233
-28.2992
-28.1252
-27.913
-27.6747
-27.4208
-27.1596
-26.8968
-26.6356
-26.3777
-26.1241
-25.8754
-25.6326
-25.3971
-25.1704
-24.9538
-24.7485
-24.5547
-24.3722
-24.2
-24.037
-23.8821
-23.7344
-23.5934
-23.4588
-23.3307
-23.2088
-23.093
-22.983
-22.8782
-22.7785
-22.684
-22.5947
-22.5112
-22.4337
-22.3628
-22.2984
-22.2407
-22.1895
-22.1448
-22.1064
-22.0744
-22.0493
-22.0315
-22.0218
-22.021
-22.0301
-22.0503
-22.0827
-22.1285
-22.1885
-22.2634
-22.3531
-22.4566
-22.5714
-22.6938
-22.8187
-22.9401
-23.0515
-23.1471
-23.2221
-23.2736
-23.2996
-28.6722
-28.5976
-28.4553
-28.2576
-28.0195
-27.7558
-27.4792
-27.199
-26.9209
-26.6477
-26.3803
-26.1185
-25.8626
-25.6132
-25.3717
-25.1398
-24.9195
-24.7118
-24.517
-24.3347
-24.1635
-24.0019
-23.8483
-23.7017
-23.5614
-23.4275
-23.2998
-23.1786
-23.0634
-22.9539
-22.8494
-22.7496
-22.6546
-22.5646
-22.4802
-22.4019
-22.3302
-22.2653
-22.2072
-22.1555
-22.1101
-22.0707
-22.0375
-22.0108
-21.9911
-21.9794
-21.9765
-21.9838
-22.0024
-22.0339
-22.0798
-22.1414
-22.2199
-22.3155
-22.4276
-22.5537
-22.6897
-22.8297
-22.9665
-23.0922
-23.1999
-23.284
-23.3413
-23.3702
-28.8759
-28.7892
-28.625
-28.3991
-28.1307
-27.8381
-27.5364
-27.2358
-26.9421
-26.6572
-26.3805
-26.111
-25.8478
-25.5916
-25.3436
-25.1063
-24.8818
-24.6717
-24.4762
-24.2946
-24.125
-23.9652
-23.8133
-23.6678
-23.5284
-23.3949
-23.2678
-23.1472
-23.0328
-22.9239
-22.8198
-22.7199
-22.6243
-22.5334
-22.4479
-22.3687
-22.2963
-22.2308
-22.1723
-22.1203
-22.0743
-22.034
-21.9994
-21.9709
-21.9492
-21.9351
-21.9299
-21.9348
-21.9514
-21.9815
-22.027
-22.0897
-22.1714
-22.273
-22.3941
-22.5326
-22.6837
-22.8408
-22.9952
-23.1373
-23.2585
-23.3525
-23.4161
-23.4479
-29.0998
-28.9986
-28.8081
-28.5488
-28.2451
-27.9199
-27.5906
-27.2686
-26.9594
-26.6634
-26.3783
-26.1015
-25.8313
-25.5679
-25.3131
-25.0698
-24.8409
-24.6283
-24.4324
-24.252
-24.0847
-23.9273
-23.7774
-23.6333
-23.4945
-23.3614
-23.2347
-23.1148
-23.0014
-22.8934
-22.7898
-22.6898
-22.5935
-22.5014
-22.4147
-22.3343
-22.2611
-22.1952
-22.1364
-22.0842
-22.0377
-21.9965
-21.9606
-21.9302
-21.9061
-21.8894
-21.8814
-21.8836
-21.8977
-21.9258
-21.9702
-22.0334
-22.1179
-22.2253
-22.3559
-22.5076
-22.6756
-22.852
-23.0263
-23.187
-23.3232
-23.4278
-23.4978
-23.5325
-29.3452
-29.2263
-29.0043
-28.7056
-28.3612
-27.9993
-27.6402
-27.2961
-26.9718
-26.6658
-26.3736
-26.0902
-25.8133
-25.5426
-25.2803
-25.0303
-24.7966
-24.5816
-24.3856
-24.2072
-24.0429
-23.8886
-23.7411
-23.5984
-23.4602
-23.3272
-23.2007
-23.0817
-22.9695
-22.8627
-22.7597
-22.6596
-22.5624
-22.4689
-22.3806
-22.299
-22.2249
-22.1586
-22.0998
-22.0476
-22.0008
-21.9588
-21.9214
-21.8889
-21.8622
-21.8426
-21.8315
-21.8306
-21.8416
-21.8671
-21.9097
-21.9726
-22.0593
-22.1722
-22.3124
-22.4784
-22.6648
-22.8628
-23.0599
-23.2416
-23.3944
-23.5101
-23.5863
-23.6236
-29.6133
-29.4732
-29.2136
-28.8684
-28.4772
-28.0745
-27.6834
-27.3167
-26.9784
-26.6643
-26.3665
-26.0776
-25.7942
-25.516
-25.2454
-24.9878
-24.7488
-24.5313
-24.3358
-24.1601
-23.9999
-23.8496
-23.7048
-23.5636
-23.4257
-23.2925
-23.166
-23.0478
-22.9373
-22.832
-22.7299
-22.6296
-22.5314
-22.4362
-22.3459
-22.2628
-22.1878
-22.1213
-22.0627
-22.0107
-21.9639
-21.9211
-21.8821
-21.8474
-21.8179
-21.7951
-21.7806
-21.7761
-21.7836
-21.8057
-21.8456
-21.9075
-21.9954
-22.1133
-22.2631
-22.4442
-22.6509
-22.8729
-23.0959
-23.3015
-23.4726
-23.5996
-23.6815
-23.721
-29.9058
-29.74
-29.4358
-29.0361
-28.5911
-28.1433
-27.7184
-27.3291
-26.9784
-26.6585
-26.3573
-26.0641
-25.7746
-25.4884
-25.2085
-24.9423
-24.6975
-24.4776
-24.2828
-24.111
-23.9561
-23.8107
-23.6691
-23.5293
-23.3915
-23.2573
-23.1304
-23.0133
-22.9049
-22.8017
-22.7006
-22.6002
-22.5008
-22.4033
-22.3107
-22.2258
-22.1499
-22.0832
-22.0251
-21.9738
-21.9272
-21.8838
-21.8432
-21.8061
-21.7736
-21.7472
-21.729
-21.7206
-21.724
-21.7421
-21.7784
-21.838
-21.9263
-22.0483
-22.2076
-22.4046
-22.6333
-22.882
-23.1344
-23.3674
-23.5583
-23.6964
-23.783
-23.8239
-30.2246
-30.0278
-29.6708
-29.2071
-28.7006
-28.2039
-27.7434
-27.3319
-26.9712
-26.6486
-26.3465
-26.0502
-25.7549
-25.4606
-25.1699
-24.8936
-24.6426
-24.4201
-24.2267
-24.06
-23.9119
-23.7725
-23.6344
-23.4958
-23.3577
-23.2219
-23.094
-22.9781
-22.8725
-22.7721
-22.6723
-22.5717
-22.4708
-22.3705
-22.2749
-22.1881
-22.1112
-22.0445
-21.9874
-21.9372
-21.8912
-21.8471
-21.8049
-21.7653
-21.7294
-21.6992
-21.677
-21.6644
-21.6633
-21.6765
-21.7084
-21.7646
-21.852
-21.977
-22.1453
-22.3589
-22.6113
-22.8896
-23.1755
-23.4399
-23.6523
-23.8008
-23.8905
-23.9317
-30.5719
-30.3376
-29.9185
-29.3799
-28.8033
-28.2539
-27.7567
-27.3236
-26.956
-26.6346
-26.3349
-26.0366
-25.7358
-25.4331
-25.1298
-24.8415
-24.5838
-24.3588
-24.1672
-24.0071
-23.8676
-23.7356
-23.6012
-23.4636
-23.3247
-23.1861
-23.0563
-22.9421
-22.8402
-22.7434
-22.6452
-22.5444
-22.4417
-22.3379
-22.2386
-22.1497
-22.0718
-22.0053
-21.9496
-21.9011
-21.856
-21.8114
-21.7674
-21.7252
-21.6857
-21.6513
-21.6249
-21.6079
-21.6019
-21.6096
-21.6358
-21.6873
-21.7724
-21.8992
-22.0757
-22.3066
-22.5844
-22.8948
-23.2191
-23.5201
-23.7556
-23.913
-24.0034
-24.0434
-30.9502
-30.6702
-30.179
-29.5526
-28.8962
-28.2916
-27.7569
-27.3028
-26.9323
-26.617
-26.3235
-26.0241
-25.7179
-25.4068
-25.0885
-24.7856
-24.521
-24.2935
-24.1039
-23.9524
-23.8236
-23.7006
-23.5699
-23.433
-23.2929
-23.1501
-23.0172
-22.905
-22.8081
-22.7162
-22.6196
-22.5184
-22.414
-22.3057
-22.2017
-22.1105
-22.0317
-21.9654
-21.9117
-21.8657
-21.8221
-21.7769
-21.7311
-21.6861
-21.6426
-21.6037
-21.573
-21.5514
-21.5401
-21.5416
-21.5611
-21.6065
-21.6878
-21.8147
-21.9981
-22.2469
-22.5521
-22.8967
-23.2651
-23.6094
-23.8695
-24.0331
-24.1211
-24.1578
-31.3623
-31.0265
-30.4525
-29.7232
-28.9758
-28.3149
-27.7424
-27.2678
-26.8997
-26.5961
-26.3135
-26.0133
-25.7016
-25.3829
-25.0461
-24.7252
-24.4542
-24.2242
-24.0365
-23.8959
-23.7804
-23.6685
-23.5411
-23.4041
-23.2629
-23.1137
-22.9759
-22.8667
-22.7765
-22.6908
-22.5957
-22.4941
-22.3881
-22.2739
-22.164
-22.0707
-21.9909
-21.9248
-21.874
-21.8312
-21.7897
-21.7438
-21.6959
-21.6482
-21.6003
-21.5565
-21.5214
-21.4953
-21.4785
-21.4732
-21.4848
-21.5224
-21.5985
-21.7235
-21.9119
-22.1794
-22.5137
-22.8941
-23.3131
-23.7097
-23.9955
-24.1614
-24.2425
-24.2737
-31.8118
-31.4065
-30.7396
-29.8894
-29.0378
-28.3226
-27.7125
-27.2167
-26.8579
-26.5725
-26.3068
-26.0049
-25.6871
-25.3629
-25.0029
-24.6591
-24.3835
-24.1508
-23.9643
-23.8376
-23.7385
-23.6402
-23.5149
-23.3772
-23.2354
-23.077
-22.9315
-22.8269
-22.7453
-22.6679
-22.5739
-22.4713
-22.3644
-22.2426
-22.1249
-22.0302
-21.9494
-21.8834
-21.8364
-21.7978
-21.7592
-21.7123
-21.662
-21.6119
-21.559
-21.5098
-21.4705
-21.4399
-21.4175
-21.4047
-21.4072
-21.4354
-21.5048
-21.6255
-21.8161
-22.1037
-22.4691
-22.885
-23.3624
-23.8236
-24.1355
-24.2978
-24.3667
-24.3894
-32.3028
-31.8093
-31.0418
-30.0486
-29.0765
-28.3142
-27.6666
-27.1473
-26.8068
-26.547
-26.3058
-25.9992
-25.6741
-25.3491
-24.9591
-24.5857
-24.3094
-24.0736
-23.8861
-23.7776
-23.6982
-23.6171
-23.4918
-23.3519
-23.2116
-23.0398
-22.8829
-22.7852
-22.7147
-22.6485
-22.5542
-22.4501
-22.3439
-22.212
-22.084
-21.9892
-21.9074
-21.8406
-21.799
-21.7657
-21.7312
-21.6825
-21.6294
-21.5773
-21.5187
-21.4634
-21.4202
-21.3854
-21.3575
-21.3366
-21.329
-21.3458
-21.4071
-21.5211
-21.7097
-22.0193
-22.4187
-22.8668
-23.4119
-23.9546
-24.2916
-24.4422
-24.4922
-24.5033
-32.8402
-32.2325
-31.3619
-30.198
-29.0848
-28.2902
-27.605
-27.0562
-26.7468
-26.5201
-26.3138
-25.9962
-25.6618
-25.3447
-24.9149
-24.502
-24.2329
-23.9931
-23.8004
-23.7162
-23.6598
-23.601
-23.4715
-23.3277
-23.193
-23.0021
-22.8282
-22.7414
-22.6849
-22.6336
-22.5366
-22.4301
-22.3277
-22.182
-22.0403
-21.9481
-21.8651
-21.7962
-21.7619
-21.735
-21.7062
-21.6546
-21.598
-21.545
-21.4796
-21.4172
-21.3709
-21.3322
-21.299
-21.2695
-21.2507
-21.2539
-21.3063
-21.4107
-21.5911
-21.9259
-22.3635
-22.8358
-23.4594
-24.108
-24.4664
-24.5939
-24.6174
-24.6136
-33.4307
-32.6705
-31.7049
-30.3344
-29.0527
-28.2534
-27.5287
-26.9391
-26.6789
-26.4917
-26.3353
-25.9956
-25.6478
-25.3546
-24.8705
-24.404
-24.1558
-23.9101
-23.7047
-23.6539
-23.6233
-23.5944
-23.454
-23.3035
-23.1821
-22.9639
-22.765
-22.6957
-22.6556
-22.625
-22.5208
-22.4103
-22.3176
-22.1527
-21.9921
-21.9075
-21.8226
-21.7493
-21.7254
-21.7059
-21.685
-21.6283
-21.5673
-21.5156
-21.4417
-21.3708
-21.3225
-21.2805
-21.2425
-21.2038
-21.1728
-21.1596
-21.2032
-21.2954
-21.4582
-21.8236
-22.3062
-22.7872
-23.5017
-24.2909
-24.6624
-24.752
-24.7404
-24.7186
-34.083
-33.1133
-32.0794
-30.4548
-28.9668
-28.2095
-27.4402
-26.7892
-26.6054
-26.461
-26.3768
-25.9959
-25.6283
-25.3859
-24.826
-24.2852
-24.0818
-23.826
-23.5955
-23.5919
-23.5882
-23.6008
-23.4384
-23.2769
-23.1827
-22.925
-22.6895
-22.6486
-22.6264
-22.6252
-22.5065
-22.3893
-22.316
-22.1242
-21.9372
-21.8687
-21.7806
-21.6987
-21.6899
-21.678
-21.6688
-21.6036
-21.5369
-21.4899
-21.4049
-21.3238
-21.2755
-21.2305
-21.1884
-21.14
-21.0962
-21.0627
-21.0988
-21.1768
-21.3076
-21.712
-22.2513
-22.7137
-23.5334
-24.5136
-24.8823
-24.9148
-24.8592
-24.8163
-34.8087
-33.544
-32.4995
-30.5556
-28.8079
-28.1684
-27.343
-26.5968
-26.5309
-26.4255
-26.4476
-25.9948
-25.5966
-25.4491
-24.7813
-24.1362
-24.0163
-23.7429
-23.4672
-23.5325
-23.553
-23.6252
-23.4233
-23.2445
-23.2005
-22.8855
-22.5969
-22.6014
-22.5962
-22.6376
-22.4926
-22.3646
-22.327
-22.0964
-21.8723
-21.8335
-21.7397
-21.6425
-21.6561
-21.6511
-21.6591
-21.5801
-21.5057
-21.4692
-21.3694
-21.2754
-21.2301
-21.1822
-21.1372
-21.0785
-21.0217
-20.9627
-20.9945
-21.0578
-21.1348
-21.5911
-22.2066
-22.6059
-23.547
-24.7907
-25.1279
-25.0797
-24.9713
-24.9052
-35.6244
-33.9354
-32.9874
-30.6331
-28.5498
-28.1467
-27.2422
-26.3475
-26.4632
-26.3793
-26.5608
-25.9887
-25.5423
-25.5593
-24.7365
-23.9433
-23.9683
-23.6635
-23.3119
-23.4799
-23.5145
-23.6749
-23.4068
-23.2007
-23.2433
-22.8452
-22.4802
-22.5572
-22.563
-22.6674
-22.4778
-22.3323
-22.3559
-22.0691
-21.7924
-21.805
-21.7008
-21.5782
-21.6256
-21.6241
-21.6581
-21.5572
-21.4722
-21.4555
-21.3348
-21.2244
-21.1869
-21.1358
-21.0896
-21.0194
-20.9506
-20.8584
-20.8916
-20.9424
-20.933
-21.4601
-22.1843
-22.4509
-23.531
-25.1425
-25.3999
-25.2433
-25.0745
-24.9838
-36.553
-34.2454
-33.5772
-30.6835
-28.1555
-28.1695
-27.1448
-26.0205
-26.4158
-26.3121
-26.7351
-25.9718
-25.45
-25.7383
-24.691
-23.6872
-23.9511
-23.5916
-23.1178
-23.4412
-23.4666
-23.7599
-23.3856
-23.1371
-23.3229
-22.8037
-22.3299
-22.521
-22.5226
-22.7216
-22.4597
-22.2867
-22.4107
-22.0421
-21.6906
-21.7879
-21.6652
-21.5018
-21.6007
-21.5952
-21.6691
-21.5339
-21.4342
-21.4515
-21.3008
-21.1692
-21.1468
-21.091
-21.0461
-20.9628
-20.8847
-20.7476
-20.7916
-20.8372
-20.693
-21.3175
-22.2029
-22.2313
-23.4692
-25.5978
-25.6965
-25.401
-25.1663
-25.0509
-37.6263
-34.4112
-34.3195
-30.7022
-27.5747
-28.2741
-27.0595
-25.586
-26.41
-26.2058
-26.9968
-25.9365
-25.2969
-26.0164
-24.644
-23.3407
-23.9845
-23.532
-22.8682
-23.4279
-23.3996
-23.8947
-23.3552
-23.0415
-23.4555
-22.7604
-22.1327
-22.5014
-22.4682
-22.8103
-22.4353
-22.2194
-22.5025
-22.0149
-21.5573
-21.7892
-21.6345
-21.4076
-21.5851
-21.5612
-21.6963
-21.5087
-21.3885
-21.4611
-21.2667
-21.1076
-21.111
-21.0472
-21.0077
-20.9082
-20.8263
-20.627
-20.6958
-20.7517
-20.4018
-21.1601
-22.2891
-21.9242
-23.3388
-26.1959
-26.0122
-25.547
-25.2445
-25.1057
-38.8889
-34.3416
-35.2877
-30.6841
-26.7387
-28.514
-26.9968
-25.0019
-26.4796
-26.0314
-27.3827
-25.8718
-25.051
-26.4357
-24.594
-22.8666
-24.0966
-23.4904
-22.5398
-23.4581
-23.2972
-24.0994
-23.3097
-22.8967
-23.6635
-22.714
-21.8711
-22.512
-22.3888
-22.9478
-22.4003
-22.1184
-22.6468
-21.9867
-21.3792
-21.8186
-21.6103
-21.2879
-21.5848
-21.5171
-21.7458
-21.4797
-21.3306
-21.4898
-21.2315
-21.0368
-21.0817
-21.0036
-20.9752
-20.8547
-20.779
-20.4921
-20.6051
-20.6995
-20.0419
-20.9823
-22.4808
-21.4999
-23.1083
-26.9907
-26.3351
-25.6747
-25.307
-25.1476
-40.4016
-33.9077
-36.5853
-30.6226
-25.5554
-28.9637
-26.9688
-24.2106
-26.6747
-25.7444
-27.9436
-25.7638
-24.6681
-27.0529
-24.5385
-22.2149
-24.3266
-23.4736
-22.1005
-23.559
-23.1349
-24.4018
-23.2408
-22.6792
-23.9773
-22.6624
-21.5213
-22.5729
-22.2671
-23.1532
-22.3489
-21.9674
-22.8643
-21.9561
-21.1385
-21.8898
-21.5946
-21.1317
-21.6088
-21.4549
-21.8262
-21.444
-21.2544
-21.545
-21.1934
-20.9527
-21.0616
-20.9582
-20.95
-20.8003
-20.7476
-20.3359
-20.5193
-20.6995
-19.5902
-20.7746
-22.8297
-20.92
-22.7353
-28.055
-26.6444
-25.7769
-25.3525
-25.1766
-42.2468
-32.9313
-38.3558
-30.5087
-23.9038
-29.7245
-26.9887
-23.1334
-27.0687
-25.2785
-28.7484
-25.594
-24.0886
-27.9434
-24.4736
-21.3194
-24.728
-23.4893
-21.5065
-23.7704
-22.8762
-24.8397
-23.1381
-22.3571
-24.4375
-22.6022
-21.0519
-22.7139
-22.0776
-23.453
-22.2735
-21.7444
-23.1827
-21.9209
-20.8117
-22.0217
-21.5894
-20.9243
-21.6698
-21.3629
-21.9489
-21.3975
-21.1516
-21.6367
-21.1497
-20.8503
-21.0549
-20.9086
-20.9341
-20.7419
-20.739
-20.1496
-20.437
-20.7779
-19.0168
-20.522
-23.4058
-20.1363
-22.1631
-29.4849
-26.907
-25.8467
-25.3799
-25.1928
-44.5343
-31.172
-40.7928
-30.33
-21.6272
-30.9315
-27.0706
-21.6664
-27.766
-24.5386
-29.8895
-25.3391
-23.234
-29.2059
-24.394
-20.0949
-25.3723
-23.5462
-20.7003
-24.1494
-22.4688
-25.464
-22.9882
-21.8886
-25.0972
-22.5286
-20.4228
-22.9775
-21.7839
-23.883
-22.1651
-21.4209
-23.6387
-21.8787
-20.3692
-22.24
-21.5977
-20.6469
-21.7872
-21.2251
-22.1301
-21.3361
-21.0124
-21.7791
-21.0975
-20.7242
-21.0683
-20.8516
-20.9312
-20.6756
-20.7637
-19.9223
-20.3555
-20.9707
-18.2853
-20.2034
-24.3016
-19.0895
-21.319
-31.4079
-27.0738
-25.8801
-25.3904
-25.198
)
;

boundaryField
{
    left
    {
        type            calculated;
        value           nonuniform List<scalar> 
32
(
-27.7007
-27.7263
-27.7755
-27.8462
-27.937
-28.047
-28.1756
-28.3225
-28.488
-28.6722
-28.8759
-29.0998
-29.3452
-29.6133
-29.9058
-30.2246
-30.5719
-30.9502
-31.3623
-31.8118
-32.3028
-32.8402
-33.4307
-34.083
-34.8087
-35.6244
-36.553
-37.6263
-38.8889
-40.4016
-42.2468
-44.5343
)
;
    }
    right
    {
        type            calculated;
        value           nonuniform List<scalar> 
32
(
-23.0018
-23.0113
-23.0294
-23.0557
-23.0896
-23.1311
-23.18
-23.2362
-23.2996
-23.3702
-23.4479
-23.5325
-23.6236
-23.721
-23.8239
-23.9317
-24.0434
-24.1578
-24.2737
-24.3894
-24.5033
-24.6136
-24.7186
-24.8163
-24.9052
-24.9838
-25.0509
-25.1057
-25.1476
-25.1766
-25.1928
-25.198
)
;
    }
    interface
    {
        type            calculated;
        value           nonuniform List<scalar> 
64
(
-45.8042
-30.0622
-42.2057
-30.2226
-20.3106
-31.6658
-27.1288
-20.8206
-28.2056
-24.0863
-30.5574
-25.1872
-22.7268
-29.9441
-24.3496
-19.3884
-25.7654
-23.586
-20.236
-24.3892
-22.2204
-25.8301
-22.8997
-21.612
-25.4846
-22.4879
-20.0628
-23.1461
-21.6057
-24.1358
-22.1013
-21.23
-23.9063
-21.8556
-20.1149
-22.3744
-21.6056
-20.4882
-21.8629
-21.1424
-22.2377
-21.3011
-20.9324
-21.865
-21.069
-20.6546
-21.0811
-20.8209
-20.9336
-20.64
-20.786
-19.7971
-20.3145
-21.101
-17.875
-20.0245
-24.8428
-18.4923
-20.8189
-32.5108
-27.1261
-25.8876
-25.3919
-25.1982
)
;
    }
    bottom
    {
        type            calculated;
        value           nonuniform List<scalar> 
64
(
-27.694
-27.6623
-27.5999
-27.5088
-27.3917
-27.2517
-27.0923
-26.9172
-26.7297
-26.533
-26.3301
-26.1235
-25.9154
-25.7078
-25.5024
-25.3005
-25.1031
-24.9113
-24.7257
-24.5466
-24.3745
-24.2094
-24.0513
-23.9002
-23.756
-23.6185
-23.4877
-23.3634
-23.2455
-23.1339
-23.0286
-22.9294
-22.8364
-22.7497
-22.6692
-22.595
-22.5274
-22.4662
-22.4118
-22.3642
-22.3237
-22.2903
-22.2643
-22.2459
-22.2353
-22.2328
-22.2386
-22.2527
-22.2752
-22.3061
-22.345
-22.3914
-22.4445
-22.5033
-22.5663
-22.6318
-22.698
-22.7625
-22.8233
-22.878
-22.9246
-22.9612
-22.9865
-22.9994
)
;
    }
    defaultFaces
    {
        type            empty;
    }
}


// ************************************************************************* //
