/*--------------------------------*- C++ -*----------------------------------*\
| =========                 |                                                 |
| \\      /  F ield         | OpenFOAM: The Open Source CFD Toolbox           |
|  \\    /   O peration     | Version:  5.x                                   |
|   \\  /    A nd           | Web:      www.OpenFOAM.org                      |
|    \\/     M anipulation  |                                                 |
\*---------------------------------------------------------------------------*/
FoamFile
{
    version     2.0;
    format      ascii;
    class       volScalarField;
    location    "0.8001";
    object      T;
}
// * * * * * * * * * * * * * * * * * * * * * * * * * * * * * * * * * * * * * //

dimensions      [0 0 0 1 0 0 0];

internalField   nonuniform List<scalar> 
2048
(
9.80104
9.80127
9.80171
9.80237
9.80321
9.80422
9.80536
9.80662
9.80797
9.80938
9.81084
9.81232
9.81382
9.81531
9.81678
9.81823
9.81965
9.82103
9.82236
9.82365
9.82489
9.82607
9.82721
9.82829
9.82933
9.83032
9.83126
9.83215
9.833
9.8338
9.83456
9.83527
9.83594
9.83656
9.83714
9.83767
9.83816
9.8386
9.83899
9.83933
9.83962
9.83986
9.84005
9.84018
9.84026
9.84027
9.84023
9.84013
9.83997
9.83975
9.83947
9.83913
9.83875
9.83833
9.83788
9.83741
9.83693
9.83647
9.83603
9.83564
9.8353
9.83504
9.83486
9.83477
9.41163
9.41231
9.41365
9.4156
9.4181
9.4211
9.4245
9.42824
9.43225
9.43644
9.44077
9.44517
9.4496
9.45402
9.45839
9.46268
9.46688
9.47096
9.4749
9.47871
9.48236
9.48587
9.48923
9.49244
9.4955
9.49842
9.5012
9.50384
9.50634
9.50871
9.51095
9.51305
9.51503
9.51687
9.51858
9.52016
9.52159
9.52289
9.52405
9.52506
9.52592
9.52664
9.52719
9.52758
9.52781
9.52786
9.52774
9.52744
9.52696
9.5263
9.52548
9.52449
9.52335
9.52209
9.52075
9.51934
9.51792
9.51654
9.51524
9.51406
9.51306
9.51228
9.51173
9.51146
9.03874
9.03987
9.04209
9.04532
9.04947
9.05443
9.06005
9.06622
9.07282
9.07972
9.08682
9.09405
9.10132
9.10856
9.11573
9.12276
9.12963
9.1363
9.14275
9.14897
9.15494
9.16067
9.16615
9.17139
9.17639
9.18115
9.18568
9.18999
9.19408
9.19795
9.2016
9.20504
9.20827
9.21128
9.21407
9.21665
9.219
9.22112
9.22301
9.22467
9.22608
9.22724
9.22815
9.2288
9.22917
9.22926
9.22907
9.22858
9.2278
9.22672
9.22536
9.22373
9.22186
9.21978
9.21755
9.21522
9.21287
9.21056
9.2084
9.20644
9.20478
9.20346
9.20256
9.2021
8.68138
8.68297
8.68608
8.69061
8.69642
8.70333
8.71117
8.71975
8.7289
8.73846
8.74829
8.75827
8.7683
8.77829
8.78815
8.79783
8.80727
8.81644
8.8253
8.83383
8.84202
8.84987
8.85738
8.86456
8.87141
8.87793
8.88414
8.89004
8.89564
8.90094
8.90595
8.91066
8.91509
8.91922
8.92305
8.92658
8.92981
8.93273
8.93533
8.9376
8.93954
8.94115
8.9424
8.94329
8.94381
8.94395
8.94369
8.94302
8.94195
8.94046
8.93858
8.93632
8.93372
8.93082
8.9277
8.92444
8.92114
8.91791
8.91486
8.91211
8.90976
8.90791
8.90663
8.90598
8.33866
8.34071
8.34475
8.35061
8.35811
8.36701
8.37708
8.38807
8.39976
8.41195
8.42447
8.43715
8.44988
8.46254
8.47503
8.48727
8.49921
8.51078
8.52195
8.5327
8.54302
8.5529
8.56235
8.57138
8.57999
8.58819
8.596
8.60342
8.61046
8.61713
8.62343
8.62937
8.63494
8.64014
8.64497
8.64943
8.6535
8.65717
8.66045
8.66333
8.66578
8.66781
8.6694
8.67054
8.67121
8.6714
8.67108
8.67025
8.66889
8.66701
8.66462
8.66173
8.6584
8.65468
8.65066
8.64645
8.64218
8.63798
8.63401
8.63043
8.62737
8.62496
8.6233
8.62245
8.00974
8.01229
8.01729
8.02454
8.03379
8.04474
8.05708
8.07051
8.08475
8.09955
8.11472
8.13007
8.14544
8.1607
8.17575
8.19049
8.20483
8.21872
8.23212
8.24501
8.25736
8.26918
8.28048
8.29127
8.30156
8.31137
8.32071
8.32958
8.338
8.34597
8.35351
8.36061
8.36728
8.37352
8.3793
8.38464
8.38952
8.39394
8.39787
8.40132
8.40428
8.40672
8.40865
8.41003
8.41085
8.41109
8.41073
8.40974
8.40812
8.40586
8.40296
8.39946
8.39539
8.39084
8.3859
8.3807
8.37541
8.3702
8.36527
8.36081
8.357
8.354
8.35192
8.35087
7.69387
7.69695
7.70296
7.71168
7.72276
7.73583
7.7505
7.76641
7.78321
7.80064
7.81844
7.83641
7.85438
7.8722
7.88974
7.9069
7.92359
7.93972
7.95527
7.97019
7.98449
7.99816
8.01123
8.0237
8.0356
8.04693
8.05772
8.06798
8.07771
8.08693
8.09565
8.10387
8.11159
8.11881
8.12553
8.13172
8.13738
8.1425
8.14707
8.15108
8.15451
8.15737
8.15962
8.16125
8.16223
8.16253
8.16214
8.16101
8.15914
8.15651
8.15312
8.149
8.14419
8.13878
8.13289
8.12667
8.12031
8.11404
8.10808
8.10269
8.09808
8.09445
8.09194
8.09066
7.39033
7.39397
7.40109
7.41137
7.42438
7.43967
7.45675
7.47518
7.49458
7.51462
7.53503
7.5556
7.57613
7.59646
7.61644
7.63597
7.65492
7.67322
7.69083
7.70772
7.72387
7.73931
7.75406
7.76813
7.78156
7.79435
7.80652
7.8181
7.82908
7.83949
7.84934
7.85863
7.86736
7.87553
7.88313
7.89014
7.89655
7.90236
7.90754
7.91209
7.916
7.91925
7.92182
7.9237
7.92484
7.92523
7.92481
7.92357
7.92146
7.91847
7.9146
7.90987
7.90432
7.89804
7.89116
7.88387
7.87638
7.86897
7.86193
7.85554
7.85007
7.84575
7.84278
7.84126
7.09846
7.10272
7.11103
7.12298
7.13806
7.15567
7.17525
7.19627
7.21829
7.24096
7.26397
7.2871
7.31015
7.33294
7.35532
7.37714
7.3983
7.41871
7.4383
7.45706
7.47499
7.49211
7.50846
7.52405
7.53893
7.55311
7.5666
7.57943
7.59161
7.60315
7.61408
7.62439
7.63409
7.64318
7.65163
7.65943
7.66657
7.67303
7.6788
7.68388
7.68824
7.69188
7.69478
7.69691
7.69823
7.6987
7.69828
7.69694
7.69461
7.69129
7.68695
7.68161
7.67531
7.66813
7.66024
7.65182
7.64314
7.63452
7.6263
7.61884
7.61244
7.6074
7.60393
7.60216
6.81764
6.82258
6.83219
6.84596
6.86323
6.8833
6.90548
6.92916
6.95384
6.97913
7.00473
7.03039
7.05592
7.08113
7.10585
7.12993
7.15323
7.17566
7.19717
7.21772
7.23734
7.25606
7.27392
7.29096
7.30722
7.32272
7.33747
7.35149
7.36481
7.37743
7.38938
7.40068
7.41131
7.42127
7.43055
7.43912
7.44696
7.45406
7.4604
7.46598
7.47078
7.47481
7.47802
7.4804
7.48191
7.48249
7.48209
7.48066
7.47814
7.47451
7.46972
7.46377
7.45672
7.44863
7.43968
7.43008
7.42014
7.41022
7.40074
7.39211
7.38472
7.3789
7.37489
7.37285
6.54728
6.55297
6.56401
6.57976
6.5994
6.62208
6.64697
6.67338
6.70074
6.72866
6.75681
6.78497
6.81294
6.84052
6.86754
6.89382
6.91922
6.94361
6.96695
6.98922
7.01044
7.03067
7.04996
7.06838
7.08595
7.10271
7.11865
7.13381
7.14821
7.16186
7.17479
7.18702
7.19855
7.20937
7.21944
7.22875
7.23726
7.24497
7.25186
7.25793
7.26317
7.26756
7.2711
7.27374
7.27544
7.27614
7.27577
7.27429
7.27161
7.26768
7.26246
7.25593
7.24812
7.23911
7.22906
7.21822
7.20693
7.19562
7.18478
7.17489
7.16644
7.15978
7.1552
7.15288
6.28682
6.29335
6.30597
6.32389
6.34609
6.37154
6.39926
6.42846
6.45854
6.48906
6.51974
6.55036
6.58072
6.61064
6.63992
6.66836
6.69579
6.72208
6.74718
6.77107
6.79381
6.81547
6.83612
6.85584
6.87466
6.89261
6.9097
6.92594
6.94136
6.95598
6.96985
6.98298
6.99537
7.00701
7.01786
7.02788
7.03705
7.04535
7.05277
7.0593
7.06496
7.06972
7.07357
7.07648
7.07838
7.07922
7.07891
7.07739
7.07457
7.07038
7.06475
7.05766
7.0491
7.03915
7.02797
7.01583
7.00311
6.99031
6.97799
6.96676
6.95714
6.9496
6.94442
6.9418
6.03574
6.04321
6.05759
6.07789
6.10287
6.13126
6.16193
6.19399
6.22679
6.25991
6.29307
6.3261
6.35881
6.39102
6.42252
6.45308
6.4825
6.51063
6.53741
6.56285
6.58701
6.61001
6.63194
6.65289
6.67291
6.692
6.71018
6.72744
6.74383
6.75938
6.77413
6.78812
6.80135
6.81378
6.82538
6.8361
6.8459
6.85477
6.86269
6.86968
6.87573
6.88085
6.88502
6.88819
6.89031
6.89131
6.89108
6.88956
6.88663
6.8822
6.8762
6.86856
6.85927
6.84837
6.83603
6.82252
6.80829
6.79388
6.77998
6.76727
6.75642
6.74793
6.74212
6.73919
5.79353
5.80206
5.81841
5.84134
5.86932
5.90084
5.9346
5.96958
6.0051
6.04077
6.07636
6.11174
6.14676
6.18123
6.21491
6.24756
6.27891
6.30882
6.33722
6.36411
6.38961
6.41386
6.43699
6.45911
6.48026
6.50044
6.51966
6.5379
6.5552
6.57162
6.58722
6.60204
6.61606
6.62927
6.6416
6.653
6.66341
6.67283
6.68123
6.68865
6.69508
6.70055
6.70504
6.70848
6.71084
6.712
6.71188
6.71038
6.70737
6.70275
6.69641
6.68826
6.67824
6.66639
6.65286
6.63793
6.62208
6.60596
6.59033
6.57604
6.56386
6.55438
6.54792
6.54467
5.55972
5.56944
5.58799
5.61383
5.64509
5.67994
5.71689
5.75485
5.79308
5.83125
5.8692
5.90687
5.94413
5.98082
6.01667
6.05136
6.08462
6.11625
6.14618
6.17444
6.20118
6.22659
6.25085
6.27408
6.2963
6.31754
6.33775
6.35691
6.37508
6.39232
6.40872
6.42432
6.43912
6.45308
6.46613
6.47819
6.4892
6.49914
6.508
6.51582
6.52263
6.52844
6.53323
6.53696
6.53956
6.54092
6.54093
6.53947
6.53642
6.53164
6.525
6.51636
6.50565
6.49286
6.47811
6.4617
6.44414
6.42618
6.40869
6.39268
6.37909
6.36856
6.36144
6.35786
5.33384
5.34491
5.36593
5.39499
5.42981
5.4682
5.50848
5.54945
5.59036
5.63095
5.67117
5.71105
5.75052
5.78939
5.82737
5.86411
5.89923
5.93252
5.9639
5.99344
6.02132
6.04781
6.07312
6.09739
6.12065
6.1429
6.16407
6.18411
6.20308
6.22108
6.23824
6.2546
6.27015
6.28485
6.29861
6.31131
6.32289
6.33333
6.34263
6.35083
6.35799
6.36413
6.36923
6.37325
6.3761
6.37767
6.37783
6.37646
6.3734
6.3685
6.3616
6.35252
6.34115
6.32743
6.31145
6.29349
6.27413
6.25419
6.23469
6.21682
6.20172
6.19011
6.18232
6.17844
5.11545
5.12806
5.15185
5.18449
5.22318
5.26533
5.30905
5.35305
5.39658
5.43949
5.48188
5.5239
5.56551
5.60652
5.64664
5.6854
5.72235
5.75725
5.79002
5.82073
5.84965
5.87711
5.9034
5.92866
5.95292
5.97615
5.99824
6.01911
6.03883
6.05755
6.07542
6.09249
6.10878
6.12422
6.13867
6.152
6.16414
6.17506
6.18476
6.19332
6.20081
6.20726
6.21268
6.21699
6.22011
6.22191
6.22225
6.22098
6.21794
6.21297
6.20586
6.19639
6.1844
6.16977
6.15255
6.133
6.11174
6.08968
6.068
6.04811
6.0314
6.01868
6.01024
6.00607
4.90412
4.91848
4.94538
4.982
5.02491
5.07102
5.11828
5.16533
5.21142
5.25652
5.30095
5.34503
5.38873
5.43185
5.4741
5.51488
5.55362
5.59008
5.62416
5.65594
5.68579
5.71413
5.74133
5.76753
5.79275
5.81695
5.83994
5.86159
5.88199
5.90136
5.91989
5.93767
5.95466
5.97083
5.98598
5.99993
6.0126
6.02398
6.03406
6.04294
6.05073
6.0575
6.06322
6.06783
6.07124
6.07329
6.07383
6.07269
6.06971
6.0647
6.05743
6.04764
6.03507
6.01956
6.0011
5.9799
5.95664
5.93234
5.90829
5.8862
5.86778
5.85396
5.8449
5.84046
4.69944
4.71581
4.74619
4.78724
4.83474
4.88501
4.93591
4.98601
5.03453
5.08167
5.12801
5.17406
5.21978
5.26498
5.30937
5.3522
5.3927
5.43066
5.46598
5.49873
5.52938
5.5585
5.58655
5.61365
5.63979
5.66494
5.68882
5.71119
5.73221
5.75217
5.77134
5.78977
5.80746
5.82435
5.8402
5.85476
5.86796
5.87977
5.8902
5.89937
5.90745
5.91451
5.92054
5.92545
5.92916
5.93148
5.93223
5.93125
5.92837
5.92337
5.916
5.90593
5.89284
5.8765
5.85681
5.83392
5.80856
5.78188
5.75525
5.73074
5.71053
5.69562
5.686
5.68133
4.50102
4.51968
4.55395
4.59993
4.65243
4.70703
4.76165
4.81479
4.86561
4.91462
4.96269
5.01063
5.05833
5.10554
5.15212
5.19703
5.23925
5.27866
5.31515
5.34875
5.38008
5.40986
5.43871
5.46667
5.4937
5.51981
5.54457
5.56763
5.58919
5.60966
5.62942
5.6485
5.66686
5.68449
5.70105
5.7162
5.7299
5.74213
5.75286
5.7623
5.77062
5.77797
5.78431
5.78954
5.79356
5.79617
5.79716
5.79635
5.79359
5.78865
5.78123
5.77095
5.7574
5.74029
5.71941
5.69477
5.66722
5.63803
5.6086
5.58142
5.55933
5.54338
5.53328
5.52843
4.30845
4.32978
4.36835
4.41983
4.47779
4.53684
4.59524
4.65143
4.70436
4.75502
4.80462
4.85438
4.90401
4.95319
5.00201
5.04906
5.09295
5.13376
5.17138
5.20569
5.23756
5.26789
5.29748
5.32627
5.35416
5.38125
5.40691
5.43058
5.4526
5.47351
5.49383
5.51353
5.53254
5.55092
5.56822
5.58394
5.59813
5.61075
5.62176
5.63141
5.63996
5.6476
5.65424
5.65978
5.66413
5.66706
5.66829
5.66769
5.66507
5.66024
5.65283
5.64241
5.62847
5.61065
5.58862
5.56219
5.53234
5.50056
5.46807
5.4379
5.41386
5.39695
5.38648
5.38153
4.12135
4.14581
4.18908
4.24672
4.31063
4.37419
4.43641
4.49566
4.55048
4.60255
4.65346
4.705
4.75652
4.80756
4.85871
4.908
4.95348
4.99566
5.03435
5.06923
5.1015
5.13224
5.16255
5.19216
5.22084
5.24897
5.27557
5.29977
5.32217
5.34342
5.36429
5.38459
5.4042
5.42337
5.44144
5.4577
5.47237
5.48538
5.4966
5.50643
5.51516
5.52309
5.53005
5.53588
5.54059
5.54386
5.54535
5.54495
5.54252
5.53783
5.53049
5.52001
5.50574
5.48729
5.46419
5.43592
5.40367
5.36922
5.33339
5.29984
5.2738
5.25607
5.24538
5.2404
3.93935
3.96751
4.01584
4.08039
4.15084
4.21882
4.28492
4.34727
4.40369
4.4569
4.50883
4.56215
4.61554
4.66828
4.72193
4.77361
4.82053
4.86404
4.90382
4.93908
4.97159
5.00258
5.03363
5.06404
5.09344
5.12268
5.15029
5.17493
5.19759
5.21908
5.24049
5.26139
5.28154
5.30157
5.32045
5.33721
5.35234
5.36573
5.37713
5.38708
5.39595
5.40417
5.41145
5.41758
5.42267
5.4263
5.42805
5.42788
5.42564
5.42113
5.41394
5.40348
5.38894
5.36995
5.34589
5.31571
5.28094
5.24385
5.20436
5.16692
5.13885
5.12051
5.10977
5.10486
3.76206
3.79467
3.84831
3.92065
3.99832
4.07047
4.14048
4.20606
4.26369
4.31777
4.37037
4.42556
4.48081
4.53501
4.59136
4.64566
4.6938
4.73862
4.77953
4.81495
4.84755
4.87861
4.91043
4.94165
4.97164
5.00211
5.03085
5.0558
5.07862
5.10021
5.12219
5.14368
5.16429
5.18524
5.20503
5.2222
5.23778
5.25157
5.26306
5.2731
5.28205
5.29059
5.2982
5.3046
5.3101
5.31413
5.31614
5.31619
5.31416
5.30989
5.30288
5.29254
5.2778
5.25836
5.23351
5.20131
5.16388
5.12427
5.08077
5.03875
5.00871
4.99002
4.97945
4.9747
3.58908
3.62717
3.68613
3.76734
3.85306
3.92884
4.00283
4.07187
4.13019
4.18489
4.23769
4.29493
4.35209
4.40734
4.46672
4.52396
4.57297
4.61911
4.66126
4.69656
4.72911
4.75998
4.79269
4.82476
4.85513
4.88701
4.91705
4.94211
4.965
4.98651
5.00914
5.03124
5.05215
5.07414
5.09494
5.11241
5.12844
5.14268
5.15416
5.16424
5.17321
5.18209
5.19006
5.19667
5.20264
5.2071
5.20935
5.20964
5.20783
5.20382
5.19707
5.18695
5.17205
5.15225
5.12684
5.0925
5.05221
5.01035
4.96245
4.91496
4.8831
4.86442
4.85424
4.84977
3.41998
3.46498
3.52889
3.62031
3.71512
3.79357
3.87169
3.94459
4.00288
4.058
4.1104
4.17003
4.2292
4.28485
4.34776
4.40838
4.45772
4.50522
4.54883
4.58362
4.61602
4.64638
4.68018
4.71315
4.74358
4.77714
4.80871
4.83362
4.8565
4.87768
4.90109
4.92384
4.94482
4.96803
4.99002
5.00758
5.02408
5.03882
5.05018
5.06027
5.06915
5.07846
5.0868
5.09356
5.10004
5.10499
5.10744
5.10797
5.10638
5.10268
5.09624
5.08647
5.07142
5.05135
5.02573
4.98906
4.94559
4.90204
4.8493
4.7951
4.76174
4.74351
4.73399
4.7299
3.2543
3.30822
3.3761
3.4794
3.58466
3.66426
3.74675
3.82418
3.88143
3.93692
3.98804
4.05064
4.11199
4.16709
4.2342
4.29887
4.34767
4.39667
4.44211
4.47585
4.50807
4.53744
4.57267
4.60667
4.63665
4.67227
4.70572
4.73007
4.75291
4.77344
4.79785
4.82131
4.84201
4.86669
4.89009
4.90744
4.92445
4.93983
4.95088
4.96097
4.96962
4.97945
4.98822
4.99499
5.00209
5.00758
5.01019
5.01096
5.00958
5.00623
5.00013
4.99087
4.97566
4.95538
4.93005
4.89077
4.84367
4.7993
4.74126
4.67866
4.64437
4.62714
4.61855
4.61493
3.09151
3.15718
3.22714
3.3445
3.46199
3.54037
3.62768
3.71066
3.76543
3.82148
3.8701
3.93657
4.00042
4.05352
4.12581
4.19543
4.24242
4.29316
4.34101
4.37291
4.40508
4.43281
4.46996
4.50517
4.53395
4.57216
4.60797
4.63118
4.65405
4.67345
4.6992
4.7235
4.74338
4.76989
4.79503
4.81173
4.82933
4.84554
4.85601
4.86615
4.87437
4.88489
4.89413
4.90073
4.90857
4.91469
4.91735
4.91838
4.9172
4.91424
4.9085
4.89996
4.88452
4.86404
4.8397
4.79742
4.74602
4.70218
4.63833
4.56505
4.53079
4.5152
4.50778
4.50472
2.93098
3.01243
3.08118
3.21549
3.34757
3.42124
3.51414
3.6042
3.65442
3.71164
3.75601
3.82769
3.89453
3.94349
4.02236
4.0982
4.14151
4.19439
4.24551
4.27446
4.30693
4.33207
4.37191
4.4086
4.43505
4.47662
4.51545
4.53665
4.55977
4.57738
4.60499
4.63031
4.64859
4.67745
4.70477
4.72015
4.73848
4.75581
4.76534
4.77563
4.78313
4.79457
4.80436
4.81052
4.81928
4.82614
4.82872
4.83003
4.829
4.8265
4.8211
4.81356
4.79775
4.777
4.75465
4.70886
4.65209
4.61081
4.54063
4.45355
4.42081
4.40756
4.40156
4.39913
2.77198
2.87488
2.93718
3.09228
3.24211
3.30602
3.40577
3.50509
3.54778
3.60749
3.64506
3.7239
3.79448
3.83627
3.92364
4.00742
4.04437
4.10007
4.1557
4.18009
4.21357
4.23474
4.27836
4.31695
4.33946
4.38545
4.42817
4.44614
4.47
4.48484
4.51507
4.54168
4.55724
4.58916
4.61928
4.63239
4.65169
4.67054
4.67859
4.68927
4.69563
4.70832
4.71879
4.72409
4.73404
4.74177
4.74406
4.74573
4.74478
4.74281
4.7377
4.73151
4.71514
4.69389
4.67492
4.62494
4.56125
4.52541
4.44836
4.34328
4.31434
4.30417
4.29977
4.29802
2.61356
2.74585
2.79374
2.97478
3.14658
3.19362
3.30216
3.41381
3.44477
3.50925
3.53642
3.62516
3.70058
3.73091
3.82947
3.92352
3.95032
4.00988
4.07175
4.08929
4.12506
4.14029
4.18922
4.23031
4.24661
4.29848
4.34625
4.35923
4.38473
4.3954
4.42932
4.45762
4.46889
4.50486
4.53859
4.54809
4.56874
4.58969
4.59549
4.60698
4.61157
4.62601
4.63729
4.64117
4.65269
4.66144
4.66316
4.66529
4.66433
4.663
4.65802
4.65369
4.63646
4.61429
4.60062
4.54555
4.47268
4.44631
4.36188
4.23314
4.2114
4.20495
4.20229
4.20124
2.45459
2.62724
2.64905
2.86294
3.06227
3.08267
3.20291
3.3311
3.34436
3.41743
3.42905
3.5315
3.61335
3.62632
3.73968
3.84709
3.85854
3.92351
3.99398
4.00144
4.04159
4.04807
4.10443
4.14887
4.15582
4.21555
4.26989
4.27542
4.30404
4.30858
4.34764
4.37821
4.38302
4.42439
4.46281
4.46687
4.48941
4.51324
4.51571
4.52869
4.53066
4.54748
4.55979
4.56147
4.57506
4.58503
4.5858
4.58856
4.58743
4.5869
4.58181
4.58003
4.56151
4.53772
4.53193
4.47066
4.38538
4.37397
4.28171
4.12179
4.11212
4.10989
4.109
4.10865
)
;

boundaryField
{
    left
    {
        type            zeroGradient;
    }
    right
    {
        type            zeroGradient;
    }
    interface
    {
        type            fixedValue;
        value           nonuniform List<scalar> 
64
(
2.37235
2.57327
2.57327
2.8087
3.02584
3.02584
3.15423
3.29376
3.29376
3.37423
3.37423
3.48633
3.57261
3.57261
3.69604
3.81237
3.81237
3.88126
3.95777
3.95777
4.00182
4.00182
4.06345
4.11021
4.11021
4.17534
4.23405
4.23405
4.26544
4.26544
4.30817
4.34032
4.34032
4.38539
4.42696
4.42696
4.45089
4.47674
4.47674
4.49102
4.49102
4.50954
4.52252
4.52252
4.53756
4.54829
4.54829
4.55153
4.5502
4.5502
4.54485
4.54485
4.52541
4.50021
4.50021
4.4351
4.34118
4.34118
4.24475
4.06384
4.06384
4.06384
4.06384
4.06384
)
;
    }
    bottom
    {
        type            fixedValue;
        value           uniform 10;
    }
    defaultFaces
    {
        type            empty;
    }
}


// ************************************************************************* //
