/*--------------------------------*- C++ -*----------------------------------*\
| =========                 |                                                 |
| \\      /  F ield         | OpenFOAM: The Open Source CFD Toolbox           |
|  \\    /   O peration     | Version:  5.x                                   |
|   \\  /    A nd           | Web:      www.OpenFOAM.org                      |
|    \\/     M anipulation  |                                                 |
\*---------------------------------------------------------------------------*/
FoamFile
{
    version     2.0;
    format      ascii;
    class       volScalarField;
    location    "10.5";
    object      gradTy;
}
// * * * * * * * * * * * * * * * * * * * * * * * * * * * * * * * * * * * * * //

dimensions      [0 -1 0 1 0 0 0];

internalField   nonuniform List<scalar> 
6300
(
1018.52
1055.75
1093.57
1132.37
1172.5
1214.3
1258.07
1304.06
1352.45
1403.34
1456.74
1512.54
1570.54
1630.41
1691.71
-0.2965
-0.884471
-1.4569
-2.00196
-2.50585
-2.95216
-3.32183
-3.59351
-3.74475
-3.75413
-3.60426
-3.28552
-2.79977
-2.16298
-1.40564
-0.499769
-1.49141
-2.45859
-3.38244
-4.24045
-5.00549
-5.64529
-6.12295
-6.39873
-6.43355
-6.19434
-5.66098
-4.83364
-3.73855
-2.42953
-0.710936
-2.12282
-3.50359
-4.82869
-6.06798
-7.18399
-8.13079
-8.85417
-9.29357
-9.38689
-9.07847
-8.3303
-7.13516
-5.52792
-3.59046
-0.932075
-2.78531
-4.60425
-6.36072
-8.01875
-9.53163
-10.8397
-11.8693
-12.5344
-12.7419
-12.4022
-11.4465
-9.84868
-7.64752
-4.9596
-1.16411
-3.48208
-5.76729
-7.99112
-10.1146
-12.084
-13.8268
-15.2487
-16.2327
-16.6439
-16.3419
-15.2047
-13.1653
-10.2536
-6.62873
-1.40639
-4.21159
-6.99168
-9.72181
-12.3644
-14.8628
-17.1349
-19.0659
-20.5037
-21.259
-21.1164
-19.865
-17.3541
-13.5729
-8.72687
-1.65622
-4.96615
-8.26595
-11.54
-14.7581
-17.8678
-20.7837
-23.376
-25.457
-26.7717
-26.9995
-25.7844
-22.8131
-17.9568
-11.4501
-1.90856
-5.73079
-9.56589
-13.4139
-17.2602
-21.0662
-24.756
-28.1972
-31.1764
-33.3708
-34.3251
-33.4598
-30.1569
-23.9908
-15.1267
-2.15578
-6.48249
-10.8528
-15.2893
-19.8023
-24.3807
-28.9765
-33.4799
-37.6803
-41.2096
-43.4701
-43.5725
-40.3637
-32.7229
-20.3722
-2.38781
-7.19046
-12.0736
-17.0881
-22.2788
-27.6775
-33.2891
-39.0653
-44.8549
-50.3167
-54.7727
-56.996
-55.0021
-46.1649
-28.5251
-2.59277
-7.81791
-13.1628
-18.7104
-24.5469
-30.761
-37.4369
-44.6367
-52.3568
-60.4291
-68.3075
-74.6362
-76.4835
-68.4092
-43.0849
-2.75809
-8.32548
-14.0493
-20.0435
-26.4373
-33.3824
-41.0604
-49.6874
-59.506
-70.7347
-83.3913
-96.757
-107.886
-107.903
-75.3005
-2.87219
-8.67653
-14.6652
-20.9768
-27.7761
-35.2705
-43.7343
-53.5459
-65.2443
-79.6117
-97.7652
-121.114
-150.399
-180.014
-169.066
-2.9263
-8.84313
-14.9581
-21.4222
-28.4195
-36.1887
-45.06
-55.5171
-68.313
-84.7016
-106.943
-139.532
-192.581
-292.685
-523.898
1748.76
1800.9
1852.99
1904.7
1955.69
2005.68
2054.4
2101.62
2147.13
2190.77
2232.41
2271.94
2309.26
2344.33
2377.08
2407.49
2435.53
2461.19
2484.46
2505.35
2523.86
2540.02
2553.85
2565.36
2574.6
2581.6
2586.39
2589.02
2589.53
2587.97
2584.37
2578.79
2571.28
2561.87
2550.62
2537.58
2522.78
2506.27
2488.1
2468.32
2446.96
2424.09
2399.74
2373.96
2346.8
2318.32
2288.54
2257.52
2225.31
2191.93
2157.42
2121.82
2085.17
2047.49
2008.82
1969.19
1928.63
1887.19
1844.89
1801.78
1757.9
1713.29
1668
1622.06
1575.51
1528.42
1480.81
1432.74
1384.27
1335.46
1286.37
1237.07
1187.67
1138.24
1088.9
1039.75
990.924
942.53
894.699
847.557
801.229
755.837
711.497
668.315
626.391
585.81
546.642
508.944
472.75
438.078
-0.639675
0.0801167
0.795455
1.48133
2.11771
2.69065
3.19243
3.62094
3.97853
4.27064
4.50451
4.68799
4.82873
4.93362
5.00849
5.05806
5.08602
5.0952
5.08783
5.06566
5.03021
4.98283
4.92479
4.85735
4.78172
4.69914
4.61081
4.51791
4.42159
4.32294
4.22295
4.12248
4.02219
3.92248
3.8235
3.72515
3.62709
3.52885
3.42997
3.33005
3.22897
3.12692
3.02445
2.92244
2.82202
2.7244
2.63069
2.54173
2.45793
2.37917
2.30477
2.23359
2.16414
2.09478
2.02398
1.95052
1.87363
1.79307
1.70909
1.62229
1.53342
1.4431
1.35157
1.25848
1.16271
1.06243
0.955116
0.837832
0.707504
0.561296
0.396961
0.213136
0.00954874
-0.21291
-0.452231
-0.705442
-0.968827
-1.23818
-1.50902
-1.77678
-2.03685
-2.28465
-2.51552
-2.72476
-2.90759
-3.05931
-3.17559
-3.25284
-3.28869
-3.28233
-1.10382
0.140214
1.37226
2.54734
3.63027
4.59752
5.43725
6.14775
6.73509
7.21045
7.58769
7.88127
8.10484
8.27032
8.38754
8.46422
8.50624
8.518
8.50286
8.4635
8.40224
8.32121
8.22248
8.1081
7.98011
7.84054
7.69142
7.53475
7.37247
7.20647
7.03847
6.86998
6.70216
6.53574
6.37096
6.20756
6.04487
5.88192
5.71769
5.55139
5.38262
5.21166
5.03948
4.86769
4.6984
4.53393
4.37642
4.22751
4.08805
3.95786
3.83571
3.71946
3.6063
3.49315
3.37712
3.25592
3.12816
2.99351
2.8526
2.70677
2.55769
2.4068
2.25485
2.10146
1.94482
1.78169
1.60753
1.41696
1.20427
0.964179
0.692461
0.386531
0.0458095
-0.328146
-0.731744
-1.15968
-1.60535
-2.06141
-2.52012
-2.97371
-3.41451
-3.83492
-4.22725
-4.5836
-4.89579
-5.15555
-5.35504
-5.48758
-5.54861
-5.53644
-1.62362
0.217922
2.03148
3.74648
5.30983
6.6885
7.86868
8.85247
9.65346
10.2922
10.7919
11.176
11.4652
11.6771
11.8256
11.921
11.9707
11.9802
11.9535
11.8936
11.8034
11.6858
11.5435
11.3792
11.1959
10.9965
10.7837
10.5604
10.3295
10.0937
9.85549
9.61731
9.3809
9.14743
8.91721
8.68976
8.46381
8.23759
8.00921
7.77703
7.5402
7.29894
7.05469
6.81008
6.5686
6.33417
6.11048
5.90043
5.70554
5.52566
5.35886
5.20157
5.04912
4.89632
4.73835
4.57139
4.39325
4.20358
4.00378
3.79653
3.58513
3.37258
3.16076
2.94964
2.73679
2.51732
2.28408
2.02839
1.74096
1.41305
1.03766
0.610445
0.130331
-0.400304
-0.975838
-1.58798
-2.22659
-2.88048
-3.53826
-4.18875
-4.82125
-5.42533
-5.99051
-6.50577
-6.95923
-7.33837
-7.63067
-7.82509
-7.91372
-7.89336
-2.22049
0.335893
2.83258
5.16398
7.25532
9.06533
10.583
11.8205
12.8057
13.574
14.163
14.6074
14.937
15.1755
15.3403
15.4435
15.4933
15.4949
15.4519
15.3674
15.2445
15.0862
14.8961
14.6779
14.4352
14.1718
13.8913
13.5974
13.2939
12.9844
12.6728
12.3623
12.0557
11.7547
11.4598
11.1701
10.8834
10.5967
10.3064
10.0097
9.70445
9.39079
9.07071
8.74823
8.42895
8.11923
7.82521
7.55178
7.30169
7.07493
6.86857
6.67701
6.49269
6.30724
6.11278
5.90322
5.6752
5.42852
5.16595
4.89254
4.61446
4.33758
4.06593
3.80054
3.53855
3.273
2.99321
2.68578
2.33615
1.93051
1.4577
0.910755
0.287818
-0.407588
-1.16699
-1.97798
-2.82558
-3.69376
-4.56667
-5.42951
-6.2687
-7.07158
-7.82549
-8.51672
-9.12955
-9.64604
-10.0471
-10.3148
-10.4356
-10.4035
-2.91256
0.540077
3.87194
6.92742
9.60615
11.8635
13.7009
15.1523
16.2705
17.1147
17.7427
18.2046
18.5407
18.7805
18.9441
19.0437
19.0859
19.0742
19.0106
18.8973
18.7369
18.5331
18.2901
18.0125
17.7051
17.3724
17.0189
16.649
16.2674
15.8791
15.4892
15.1025
14.7232
14.3539
13.9955
13.6467
13.3038
12.9616
12.6139
12.2551
11.8816
11.4927
11.0909
10.6825
10.2763
9.88242
9.51102
9.17027
8.86496
8.59553
8.35768
8.1427
7.93858
7.7318
7.50961
7.26228
6.98468
6.67697
6.34433
5.99587
5.64269
5.29562
4.96268
4.64711
4.34597
4.04972
3.74266
3.40444
3.01248
2.54516
1.98497
1.32095
0.550106
-0.322278
-1.28344
-2.31484
-3.39454
-4.4998
-5.60919
-6.70392
-7.76808
-8.78796
-9.75036
-10.6402
-11.4382
-12.1196
-12.6553
-13.0157
-13.1773
-13.1286
-3.71157
0.918162
5.30925
9.23328
12.5637
15.266
17.3743
18.9639
20.1295
20.9668
21.5615
21.983
22.2828
22.4953
22.6402
22.7265
22.7562
22.7282
22.641
22.4949
22.2919
22.0364
21.7338
21.3901
21.0114
20.603
20.1701
19.7175
19.2507
18.7762
18.301
17.8322
17.3762
16.9375
16.5177
16.1149
15.7235
15.3345
14.9374
14.522
14.0813
13.6131
13.1209
12.6139
12.106
11.6134
11.1529
10.7379
10.3768
10.0709
9.81406
9.59296
9.38851
9.17875
8.94284
8.66514
8.33772
7.96151
7.54572
7.10619
6.66235
6.23352
5.83465
5.47312
5.14658
4.84223
4.53722
4.2007
3.79755
3.29377
2.66196
1.88516
0.958827
-0.108918
-1.29853
-2.58192
-3.92646
-5.29964
-6.67257
-8.02208
-9.33096
-10.5869
-11.7794
-12.8957
-13.9146
-14.8028
-15.5155
-16.0028
-16.2214
-16.1494
-4.61194
1.63976
7.41885
12.3937
16.425
19.5235
21.7936
23.3853
24.4603
25.1673
25.6287
25.9359
26.15
26.3064
26.4197
26.4899
26.5088
26.4664
26.3554
26.1733
25.9218
25.6066
25.2355
24.8172
24.3594
23.8682
23.3486
22.8053
22.2443
21.6735
21.1026
20.5426
20.0035
19.4931
19.0146
18.5659
18.1387
17.7184
17.2864
16.8245
16.3197
15.7672
15.1714
14.546
13.9127
13.2977
12.7284
12.2273
11.8084
11.4749
11.2184
11.0186
10.8455
10.6628
10.4357
10.139
9.76049
9.30252
8.7808
8.2222
7.65994
7.12781
6.65242
6.24835
5.91487
5.63531
5.37679
5.09259
4.72721
4.22642
3.54747
2.66442
1.57093
0.279702
-1.17878
-2.76112
-4.41728
-6.09993
-7.76974
-9.39879
-10.9701
-12.4769
-13.9182
-15.2913
-16.5791
-17.7384
-18.7002
-19.3765
-19.6839
-19.5783
-5.56309
3.04151
10.6861
16.9121
21.629
24.9729
27.1885
28.5496
29.3192
29.7198
29.9164
30.021
30.0984
30.1779
30.2596
30.3256
30.3477
30.3014
30.1705
29.9496
29.6414
29.2553
28.8034
28.2992
27.7534
27.1723
26.5591
25.9168
25.2502
24.5688
23.8865
23.2207
22.5877
22.0008
21.4665
20.9841
20.542
20.1172
19.6767
19.1868
18.6251
17.9817
17.2628
16.488
15.6911
14.9145
14.2042
13.5967
13.1156
12.7665
12.5394
12.4044
12.3149
12.2092
12.0274
11.7294
11.2963
10.734
10.0677
9.34225
8.61293
7.93925
7.36635
6.92083
6.60445
6.39711
6.25236
6.10044
5.85096
5.41476
4.72604
3.74591
2.46705
0.908459
-0.881344
-2.83461
-4.87051
-6.91921
-8.92604
-10.859
-12.7025
-14.4616
-16.1551
-17.8101
-19.4287
-20.9586
-22.2957
-23.2816
-23.7411
-23.5832
-6.38561
5.82522
15.9952
23.6026
28.8098
32.0468
33.8135
34.565
34.7089
34.565
34.3356
34.1445
34.0428
34.0452
34.121
34.2234
34.2839
34.2574
34.1141
33.8506
33.4723
32.9974
32.4457
31.8401
31.1972
30.5214
29.8107
29.0621
28.2762
27.4643
26.6456
25.8506
25.1047
24.4316
23.8426
23.3435
22.9193
22.5379
22.1369
21.6519
21.0471
20.304
19.434
18.4607
17.4397
16.4349
15.5311
14.7834
14.2318
13.882
13.7268
13.7241
13.8071
13.8643
13.786
13.5135
13.0175
12.3149
11.4392
10.4673
9.48528
8.60508
7.89639
7.40688
7.13658
7.06833
7.13784
7.24835
7.24322
6.96638
6.32388
5.2573
3.7657
1.86994
-0.348712
-2.78927
-5.30544
-7.79888
-10.1887
-12.4481
-14.5564
-16.5407
-18.4474
-20.3811
-22.4058
-24.4562
-26.3969
-27.9442
-28.6869
-28.4329
-6.4823
11.5475
24.9942
33.7487
38.8272
41.238
41.901
41.4562
40.5141
39.5345
38.7004
38.1404
37.8384
37.8079
37.9451
38.1828
38.3466
38.3827
38.2323
37.9181
37.4438
36.8514
36.1672
35.4363
34.6899
33.9224
33.1184
32.2627
31.3414
30.3716
29.372
28.4118
27.5184
26.7432
26.0911
25.5968
25.2367
24.9888
24.7198
24.2911
23.6701
22.8108
21.7558
20.504
19.1666
17.8118
16.6352
15.6893
15.0595
14.7186
14.6965
14.9219
15.3383
15.7159
15.826
15.6211
15.0377
14.1466
12.9507
11.6087
10.2125
9.02545
8.1123
7.57871
7.37916
7.54251
7.96561
8.56402
9.02794
9.04574
8.53358
7.38184
5.64749
3.29751
0.504615
-2.6339
-5.77197
-8.82662
-11.6382
-14.2538
-16.5878
-18.7304
-20.7
-22.8202
-25.3448
-28.1112
-31.0635
-33.7646
-35.0671
-34.5877
-3.68599
23.8696
40.7502
49.1877
52.6852
52.9445
51.5822
49.0624
46.3718
44.2933
42.6695
41.7635
41.2419
41.328
41.6233
42.2476
42.5917
42.7752
42.5849
42.2148
41.5839
40.8362
39.9547
39.0532
38.2115
37.3748
36.499
35.5565
34.4753
33.3203
32.0403
30.8754
29.7607
28.8761
28.1114
27.6554
27.3913
27.4687
27.5317
27.2061
26.6352
25.5982
24.3599
22.6694
20.9177
18.931
17.4062
16.1388
15.4701
15.0955
15.309
15.8438
16.9246
17.9517
18.319
18.2728
17.5002
16.4162
14.6721
12.8272
10.6379
9.05074
7.781
7.26896
7.09862
7.64213
8.54039
10.0729
11.4546
11.8878
11.6638
10.3449
8.41538
5.36252
1.8553
-2.47946
-6.35885
-10.2045
-13.3702
-16.4647
-18.895
-21.1693
-22.7355
-24.6768
-27.9356
-31.4981
-36.0915
-41.5987
-44.0131
-42.8821
11.0067
51.5632
68.6641
71.74
71.206
66.9854
62.9291
56.9134
51.3471
48.3965
45.6039
44.8321
43.7691
44.5461
44.8265
46.7146
47.0672
47.7049
47.1953
46.8859
45.8911
45.0125
43.7697
42.5829
41.7247
40.8826
39.9744
39.0487
37.7146
36.4478
34.5418
33.266
31.6704
30.8354
29.6859
29.4371
29.0529
29.9686
30.9022
30.4733
30.2705
28.6747
27.6141
24.9223
23.0064
19.3841
17.8057
15.7258
15.4566
14.6246
15.4581
15.979
18.5873
21.1372
21.4066
21.9698
20.4108
19.6357
16.5379
14.5412
10.1959
8.61844
6.35824
6.46673
5.7898
7.23051
8.20152
11.7985
15.2467
15.6758
16.3704
14.1868
12.8006
8.08153
4.39743
-2.98087
-6.99446
-12.5614
-15.2048
-19.6322
-21.4267
-24.6275
-24.2308
-24.6362
-30.0885
-33.4002
-39.8032
-53.8858
-58.0637
-54.8648
80.2816
113.031
116.772
99.4893
95.0342
80.789
77.0971
64.1171
52.5555
52.2718
45.6284
48.32
43.6468
48.4791
45.7145
53.3926
51.1321
54.2864
51.5173
52.5439
50.0306
49.7134
47.5041
45.6396
45.2146
44.4858
43.4753
43.1291
40.857
40.496
36.1361
36.1172
32.4852
33.248
29.9638
31.414
28.843
32.443
36.2351
33.4151
35.9119
30.981
33.2176
26.0585
27.5525
16.8948
18.9277
12.7057
16.2543
11.756
16.0577
13.1088
20.3349
27.6067
24.0717
28.7233
22.1927
26.2004
16.8189
19.6373
5.76894
9.16981
1.52519
6.7961
1.43214
7.49581
4.08179
13.7388
23.3865
19.0818
25.2221
16.8808
21.9855
9.31061
12.2597
-8.32692
-5.39266
-19.1275
-14.47
-26.5903
-21.9325
-33.2654
-24.5704
-17.3273
-35.3232
-30.8503
-32.4555
-80.4347
-82.7361
-73.3949
428.815
216.269
195.15
108.765
132.958
79.3939
104.638
69.2766
37.5223
65.3037
32.2088
62.4116
29.8352
63.35
31.5633
74.3804
47.398
69.3956
50.3715
63.2973
51.0058
57.1371
50.74
46.6214
49.1404
48.4926
46.0176
49.9811
41.2458
50.3009
31.4775
44.1695
26.9699
41.4864
23.4226
39.1798
19.7453
34.6389
51.0879
28.6992
52.2477
22.9645
52.3492
14.7328
49.5956
-3.87008
31.9357
-4.38537
28.6384
-3.78551
27.0971
-4.4145
22.0154
49.6366
14.947
51.5779
8.79843
52.0445
-0.46922
48.7617
-23.5265
25.626
-21.9068
22.439
-19.3819
21.4084
-18.8608
15.6919
51.6168
7.44649
54.9262
0.212081
56.7722
-11.9593
54.0127
-47.5432
20.2124
-52.1785
10.425
-57.709
0.5883
-70.743
-22.8194
26.3258
-72.9128
-19.5474
41.671
-172.759
-124.172
-104.36
401.61
363.98
328.428
294.848
263.106
233.053
204.526
177.355
151.371
126.402
102.284
78.8518
55.9488
33.4204
11.1154
-3.22997
-3.11776
-2.95815
-2.76072
-2.53561
-2.29241
-2.03941
-1.78315
-1.52837
-1.27808
-1.03382
-0.795936
-0.563861
-0.336368
-0.11179
-5.44438
-5.24883
-4.97223
-4.63196
-4.24613
-3.83161
-3.40266
-2.97032
-2.54232
-2.12346
-1.71596
-1.32012
-0.934686
-0.557379
-0.185208
-7.75381
-7.46082
-7.04989
-6.54865
-5.98527
-5.38518
-4.76926
-4.15308
-3.54711
-2.95742
-2.38644
-1.83387
-1.29737
-0.773246
-0.25687
-10.2038
-9.79061
-9.21774
-8.52739
-7.761
-6.95452
-6.13605
-5.32556
-4.53558
-3.77262
-3.03848
-2.3315
-1.64768
-0.981351
-0.325891
-12.849
-12.2799
-11.5029
-10.582
-9.5767
-8.53571
-7.49478
-6.47743
-5.49698
-4.55897
-3.66329
-2.80596
-1.98045
-1.17858
-0.391229
-15.7582
-14.9766
-13.9318
-12.7208
-11.4279
-10.1167
-8.82982
-7.59229
-6.41585
-5.3029
-4.24969
-3.24857
-2.28955
-1.36127
-0.451669
-19.0219
-17.9365
-16.5266
-14.9413
-13.2972
-11.6732
-10.1154
-8.64595
-7.27113
-5.98702
-4.78395
-3.64904
-2.56786
-1.52526
-0.505843
-22.7641
-21.2205
-19.2966
-17.2204
-15.1464
-13.1633
-11.3123
-9.6049
-8.03557
-6.59001
-5.24996
-3.99573
-2.80756
-1.66604
-0.552279
-27.156
-24.8844
-22.2189
-19.4969
-16.9044
-14.521
-12.3655
-10.4256
-8.67611
-7.08741
-5.63005
-4.27631
-3.00056
-1.77905
-0.589499
-32.4257
-28.9419
-25.1971
-21.6438
-18.4529
-15.6507
-13.2028
-11.0559
-9.15572
-7.45334
-5.90645
-4.47885
-3.13926
-1.86007
-0.616157
-38.8202
-33.2599
-27.9834
-23.4279
-19.6126
-16.4259
-13.7389
-11.4392
-9.4374
-7.66366
-6.06346
-4.5933
-3.21753
-1.90579
-0.631205
-46.3435
-37.2936
-30.0481
-24.4717
-20.1432
-16.7012
-13.8874
-11.5246
-9.49086
-7.70034
-6.09033
-4.61331
-3.2317
-1.91433
-0.634067
-53.62
-39.5224
-30.4434
-24.2671
-19.7869
-16.3481
-13.5846
-11.2806
-9.301
-7.5564
-5.98411
-4.53784
-3.18157
-1.88575
-0.624787
-53.4206
-36.732
-27.9355
-22.3659
-18.3891
-15.3195
-12.8222
-10.712
-8.87602
-7.24003
-5.75177
-4.37229
-3.07094
-1.82229
-0.604106
-2.92198
-8.82953
-14.9333
-21.3831
-28.3616
-36.1063
-44.9468
-55.3677
-68.1283
-84.5058
-106.838
-139.865
-194.436
-298.778
-535.29
-2.86933
-8.66688
-14.6457
-20.9426
-27.7217
-35.1915
-43.6317
-53.4354
-65.1787
-79.7336
-98.4345
-123.199
-155.807
-191.623
-181.507
-2.77578
-8.37831
-14.137
-20.1671
-26.602
-33.6025
-41.3693
-50.1558
-60.2761
-72.0816
-85.8199
-101.084
-114.952
-116.362
-72.7927
-2.6468
-7.98122
-13.4397
-19.1105
-25.0892
-31.481
-38.3984
-45.9497
-54.2026
-63.0867
-72.1448
-79.9378
-82.7469
-72.337
-34.9213
-2.48946
-7.4979
-12.595
-17.8397
-23.2893
-28.9943
-34.9871
-41.2559
-47.6904
-53.9706
-59.3476
-62.2514
-59.7211
-47.0653
-19.5683
-2.31159
-6.95295
-11.6476
-16.4266
-21.3119
-26.3076
-31.3838
-36.4465
-41.2852
-45.4815
-48.2675
-48.3384
-43.7262
-32.0998
-12.2981
-2.12109
-6.37092
-10.6416
-14.9395
-19.2576
-23.5648
-27.7895
-31.7925
-35.3254
-37.9715
-39.0727
-37.6772
-32.6017
-22.8114
-8.35734
-1.92526
-5.77435
-9.61658
-13.4384
-17.2107
-20.8792
-24.3491
-27.4646
-29.9812
-31.5337
-31.6114
-29.5713
-24.7509
-16.7614
-5.98642
-1.73041
-5.18249
-8.60567
-11.9714
-15.2359
-18.3314
-21.1545
-23.5523
-25.3062
-26.1198
-25.6203
-23.3961
-19.1008
-12.6457
-4.44727
-1.54163
-4.61067
-7.63457
-10.5746
-13.3783
-15.9726
-18.2552
-20.087
-21.2841
-21.6176
-20.8267
-18.6591
-14.9502
-9.74042
-3.39154
-1.36269
-4.07016
-6.72165
-9.2724
-11.6661
-13.8299
-15.669
-17.0624
-17.8617
-17.8961
-16.9889
-14.9922
-11.842
-7.62611
-2.63733
-1.1962
-3.56848
-5.87861
-8.07914
-10.1135
-11.9127
-13.392
-14.4501
-14.9703
-14.8283
-13.9075
-12.1262
-9.47361
-6.04852
-2.0816
-1.04366
-3.10992
-5.11164
-7.00119
-8.72421
-10.2175
-11.4076
-12.2113
-12.5387
-12.3011
-11.4236
-9.86519
-7.64166
-4.84713
-1.66217
-0.905727
-2.69616
-4.42252
-6.0388
-7.49435
-8.73268
-9.69132
-10.303
-10.4995
-10.2182
-9.41258
-8.06598
-6.20616
-3.91685
-1.33952
-0.782387
-2.32687
-3.80981
-5.18799
-6.41525
-7.44206
-8.2159
-8.68303
-8.792
-8.49927
-7.77715
-6.62309
-5.06889
-3.18654
-1.08748
-0.673129
-2.0003
-3.26981
-4.44193
-5.47531
-6.32704
-6.9534
-7.3117
-7.36336
-7.07848
-6.4416
-5.45803
-4.15944
-2.60671
-0.888136
-0.577119
-1.71376
-2.79742
-3.79217
-4.66146
-5.36846
-5.87699
-6.15323
-6.16836
-5.90208
-5.34675
-4.51169
-3.42644
-2.14201
-0.728858
-0.493322
-1.464
-2.38675
-3.2295
-3.96027
-4.54766
-4.96184
-5.17604
-5.16874
-4.92634
-4.44612
-3.73905
-2.83172
-1.76669
-0.600521
-0.420606
-1.24752
-2.03161
-2.74456
-3.35861
-3.84712
-4.18552
-4.35263
-4.33234
-4.11571
-3.70298
-3.10544
-2.34651
-1.46159
-0.496395
-0.357812
-1.06077
-1.72586
-2.32828
-2.84409
-3.25078
-3.52812
-3.6593
-3.63226
-3.44122
-3.08814
-2.58388
-1.94876
-1.21224
-0.411424
-0.303812
-0.900311
-1.4636
-1.97213
-2.40534
-2.74424
-2.9722
-3.07581
-3.04603
-2.87924
-2.57827
-2.15317
-1.62142
-1.00751
-0.34175
-0.257536
-0.762905
-1.23936
-1.66827
-2.03205
-2.31473
-2.50259
-2.58494
-2.55493
-2.4104
-2.15458
-1.7965
-1.35111
-0.838798
-0.28439
-0.217995
-0.645575
-1.04812
-1.40961
-1.71507
-1.95105
-2.10624
-2.17206
-2.14333
-2.01884
-1.80187
-1.50044
-1.12726
-0.699311
-0.237007
-0.184291
-0.545622
-0.88539
-1.18986
-1.44631
-1.64345
-1.77192
-1.82483
-1.79821
-1.69149
-1.50781
-1.2542
-0.941437
-0.583674
-0.197753
-0.155621
-0.460638
-0.747158
-1.00346
-1.21874
-1.38352
-1.49007
-1.53281
-1.5087
-1.41755
-1.2623
-1.04903
-0.786855
-0.487587
-0.165155
-0.131274
-0.388496
-0.629908
-0.845527
-1.02621
-1.16402
-1.25253
-1.28721
-1.26572
-1.18813
-1.05708
-0.877808
-0.658024
-0.407582
-0.138026
-0.110623
-0.327329
-0.530564
-0.711849
-0.863461
-0.978732
-1.05235
-1.08061
-1.06169
-0.995814
-0.885325
-0.734715
-0.550479
-0.340847
-0.115405
-0.0931247
-0.275514
-0.446458
-0.598771
-0.725939
-0.82237
-0.88365
-0.906762
-0.890273
-0.834471
-0.741426
-0.614969
-0.460564
-0.285089
-0.0965118
-0.0783061
-0.231646
-0.375285
-0.503151
-0.609754
-0.690411
-0.741453
-0.760406
-0.746144
-0.698983
-0.620725
-0.514625
-0.385277
-0.238428
-0.0807051
-0.0657595
-0.194511
-0.315064
-0.422293
-0.511583
-0.579013
-0.621532
-0.637111
-0.624855
-0.585085
-0.519354
-0.43042
-0.322141
-0.199315
-0.0674588
-0.0551342
-0.163069
-0.264091
-0.353889
-0.428587
-0.484908
-0.520315
-0.533139
-0.522669
-0.489209
-0.434092
-0.359646
-0.269104
-0.166471
-0.0563378
-0.0461292
-0.136425
-0.220912
-0.295969
-0.358351
-0.405322
-0.434776
-0.44534
-0.436444
-0.408368
-0.362249
-0.300046
-0.224462
-0.138835
-0.0469815
-0.0384863
-0.113815
-0.184278
-0.246848
-0.298813
-0.337897
-0.362353
-0.37105
-0.363533
-0.340054
-0.301574
-0.249734
-0.186792
-0.115522
-0.0390899
-0.0319847
-0.0945833
-0.153125
-0.205088
-0.248219
-0.280627
-0.300869
-0.308017
-0.301705
-0.282154
-0.250173
-0.207132
-0.154905
-0.0957911
-0.0324119
-0.0264346
-0.0781677
-0.126539
-0.16946
-0.205068
-0.231803
-0.248477
-0.254329
-0.249068
-0.232883
-0.206451
-0.170906
-0.127798
-0.079022
-0.0267368
-0.0216732
-0.064086
-0.103736
-0.13891
-0.168078
-0.189964
-0.203596
-0.208358
-0.204014
-0.190727
-0.169055
-0.139931
-0.104626
-0.0646895
-0.0218867
-0.0175599
-0.051922
-0.084042
-0.112529
-0.136145
-0.153854
-0.164874
-0.168708
-0.165168
-0.154392
-0.136832
-0.113249
-0.0846685
-0.0523472
-0.0177103
-0.0139728
-0.0413145
-0.0668696
-0.0895304
-0.108311
-0.122388
-0.131142
-0.134177
-0.131348
-0.122765
-0.108793
-0.0900345
-0.0673085
-0.0416124
-0.0140782
-0.0108049
-0.0319473
-0.0517066
-0.0692257
-0.0837417
-0.0946194
-0.101379
-0.103716
-0.101521
-0.0948803
-0.0840756
-0.0695749
-0.0520107
-0.0321537
-0.0108779
-0.00796168
-0.0235402
-0.0380989
-0.0510058
-0.0616986
-0.0697095
-0.0746852
-0.0764031
-0.0747819
-0.0698861
-0.0619246
-0.0512421
-0.0383047
-0.0236799
-0.00801107
-0.00535778
-0.0158412
-0.0256381
-0.0343229
-0.0415175
-0.0469069
-0.0502536
-0.051408
-0.0503156
-0.0470203
-0.0416626
-0.0344747
-0.0257702
-0.0159309
-0.0053895
-0.00291504
-0.00861885
-0.0139492
-0.0186747
-0.0225896
-0.0255224
-0.0273439
-0.0279727
-0.0273789
-0.0255863
-0.0226713
-0.0187602
-0.0140236
-0.00866934
-0.00293289
-0.000559942
-0.00165575
-0.0026803
-0.00358936
-0.00434344
-0.00490951
-0.00526243
-0.00538613
-0.00527445
-0.00493147
-0.00437155
-0.00361875
-0.00270589
-0.00167311
-0.000566083
0.00177843
0.00525789
0.00850843
0.0113884
0.0137722
0.0155554
0.01666
0.017037
0.0166694
0.0155727
0.0137943
0.0114115
0.00852858
0.00527156
0.00178327
0.00417055
0.0123304
0.0199544
0.0267107
0.0323046
0.0364915
0.0390874
0.039977
0.0391194
0.0365501
0.0323796
0.0267891
0.0200227
0.0123768
0.00418695
0.00668848
0.019775
0.0320028
0.0428399
0.0518139
0.0585322
0.0626993
0.06413
0.0627578
0.0586392
0.0519508
0.042983
0.0321274
0.0198596
0.00671841
0.00940801
0.0278159
0.0450166
0.0602625
0.0728891
0.082344
0.088211
0.0902287
0.088303
0.0825122
0.0731043
0.0604875
0.0452126
0.0279489
0.00945505
0.0124109
0.0366947
0.0593875
0.0795035
0.0961663
0.108647
0.116395
0.119065
0.116532
0.108896
0.0964856
0.0798374
0.0596783
0.0368921
0.0124807
0.0157872
0.0466782
0.0755474
0.101142
0.122347
0.138235
0.148104
0.151514
0.148302
0.138596
0.122809
0.101625
0.0759679
0.0469636
0.0158882
0.0196381
0.0580652
0.0939807
0.125827
0.152219
0.172001
0.184299
0.18856
0.184581
0.172516
0.152879
0.126517
0.0945815
0.0584729
0.0197823
0.0240784
0.0711958
0.115239
0.1543
0.18668
0.210962
0.226072
0.231327
0.226472
0.211694
0.187617
0.15528
0.116092
0.0717749
0.0242832
0.0292401
0.0864609
0.139955
0.187411
0.226764
0.256292
0.274686
0.281113
0.275254
0.257329
0.22809
0.188798
0.141163
0.0872808
0.0295301
0.0352762
0.104313
0.168865
0.226146
0.273668
0.309351
0.331609
0.339427
0.332411
0.310817
0.275544
0.228107
0.170572
0.105472
0.0356862
0.0423645
0.125279
0.202822
0.271655
0.328793
0.371731
0.398557
0.40804
0.39969
0.373801
0.331442
0.274425
0.205235
0.126916
0.0429437
0.0507126
0.149973
0.242826
0.325284
0.393774
0.445296
0.477546
0.489031
0.479146
0.44822
0.397516
0.329196
0.246233
0.152286
0.0515306
0.0605634
0.179116
0.290048
0.388608
0.470537
0.532241
0.570951
0.584859
0.57321
0.536368
0.47582
0.394132
0.294858
0.182381
0.0617184
0.0722011
0.21355
0.345857
0.463479
0.561341
0.635148
0.681576
0.698428
0.684765
0.640975
0.568799
0.471278
0.352649
0.21816
0.0738318
0.0859582
0.254262
0.411862
0.552067
0.668843
0.757064
0.812732
0.833183
0.817235
0.76529
0.679372
0.563078
0.421451
0.26077
0.0882604
0.102223
0.302405
0.489944
0.65692
0.796171
0.901577
0.968338
0.993208
0.974694
0.913191
0.811035
0.672465
0.503481
0.311593
0.105474
0.121449
0.359324
0.5823
0.781022
0.946994
1.07292
1.15303
1.18335
1.162
1.08931
0.967977
0.802966
0.601412
0.372296
0.126038
0.144163
0.426586
0.691495
0.92786
1.12562
1.27607
1.37227
1.40937
1.38494
1.29922
1.15524
0.958839
0.718476
0.444901
0.150642
0.170974
0.506007
0.820507
1.1015
1.33708
1.5169
1.63255
1.67811
1.65043
1.54956
1.3789
1.14523
0.858599
0.531865
0.180122
0.202586
0.599682
0.972782
1.30666
1.58727
1.80225
1.9415
1.99768
1.96674
1.84836
1.64629
1.3684
1.02656
0.636193
0.215502
0.239804
0.710017
1.15229
1.5488
1.883
2.14019
2.30813
2.37774
2.34374
2.20527
1.96632
1.63596
1.22822
0.761571
0.258043
0.283544
0.83975
1.36356
1.8342
2.23221
2.54008
2.74302
2.82972
2.79327
2.63193
2.34981
1.95725
1.47077
0.912553
0.309302
0.334837
0.991975
1.61174
2.17002
2.64398
3.01283
3.2586
3.3672
3.3295
3.14244
2.80997
2.34374
1.76314
1.0948
0.37122
0.394831
1.17014
1.90261
2.56436
3.12874
3.57102
3.86942
4.00625
3.96943
3.75389
3.36301
2.80962
2.11642
1.31539
0.446233
0.464788
1.37806
2.24256
3.0263
3.69825
4.22911
4.59238
4.76587
4.73344
4.48708
4.02886
3.37258
2.54457
1.58328
0.537428
0.546061
1.61983
2.63859
3.56585
4.36571
5.00353
5.4471
5.66843
5.64597
5.36735
4.83222
4.05476
3.06524
1.90989
0.648758
0.640074
1.89979
3.09812
4.19384
5.14567
5.91279
6.45611
6.74024
6.73634
6.4257
5.80381
4.88417
3.70103
2.30996
0.785343
0.748268
2.22237
3.62887
4.92173
6.05385
6.97742
7.64506
8.01201
8.03965
7.70014
6.98213
5.89653
4.4812
2.80273
0.953918
0.872031
2.59188
4.2385
5.76118
7.1068
8.21972
9.04274
9.51936
9.59785
9.23736
8.41565
7.13782
5.44405
3.41378
1.16347
1.0126
3.01223
4.93417
6.72355
8.32128
9.66328
10.6809
11.3031
11.4608
11.0948
10.1658
8.66789
6.64055
4.17759
1.42624
1.17092
3.48649
5.72185
7.81896
9.71327
11.332
12.5936
13.4092
13.6874
13.343
12.3111
10.5655
8.13949
5.14165
1.75922
1.34747
4.01642
6.60548
9.05512
11.2966
13.2486
14.8159
15.8885
16.3463
16.0686
14.9518
12.9356
10.0355
6.37275
2.18665
1.54206
4.60178
7.58588
10.4358
13.0807
15.4324
17.3815
18.7945
19.5158
19.3769
18.217
15.9193
12.461
7.96725
2.74406
1.75358
5.23963
8.65939
11.9588
15.0682
17.8957
20.3193
22.1806
23.2825
23.3939
22.2722
19.7089
15.6054
10.0683
3.48543
1.97976
5.92346
9.81642
13.6135
17.2515
20.6394
23.6473
26.0941
27.7367
28.2671
27.3284
24.568
19.7453
12.8954
4.49621
2.2169
6.64247
11.0399
15.3787
19.6082
23.6467
27.3647
30.5658
32.9632
34.1603
33.6495
30.859
25.2927
16.7984
5.91892
2.45974
7.38094
12.3042
17.2195
22.0976
26.8763
31.441
35.5954
39.0229
41.2393
41.5534
39.0774
32.8732
22.3575
8.00714
2.70136
8.11796
13.5737
19.086
24.6558
30.2544
35.8018
41.1295
45.9234
49.639
51.3946
49.8844
43.4475
30.5794
11.2508
2.93333
8.82769
14.804
20.9124
27.1936
33.668
40.3149
47.0339
53.5723
59.3995
63.5031
64.1124
58.4874
43.2874
16.6978
3.14605
9.48043
15.9424
22.6187
29.5972
36.9614
44.7778
53.0634
61.7147
70.3565
78.0377
82.6693
80.176
63.9046
26.8712
3.32937
10.0445
16.9317
24.1151
31.7325
39.9405
48.9144
58.8385
69.863
81.9799
94.6894
106.173
111.432
98.9392
48.6477
3.47348
10.489
17.7153
25.3098
33.4576
42.3873
52.3909
63.8488
77.2522
93.1911
112.191
133.999
155.015
160.222
103.065
3.56991
10.7871
18.2431
26.1201
34.6396
44.088
54.857
67.5077
82.88
102.275
127.743
162.372
209.576
264.811
260.937
3.61258
10.9193
18.4783
26.484
35.1761
44.8714
56.0158
69.2759
85.7133
107.142
136.931
182.012
258.557
410.446
778.528
3.59856
10.8763
18.4032
26.371
35.0157
44.6482
55.7049
68.837
85.0796
106.202
135.499
179.801
255.213
405.943
774.747
3.52852
10.6602
18.0217
25.7879
34.1691
43.4356
53.9524
66.2374
81.0566
99.5832
123.647
155.983
199.564
249.997
244.842
3.40664
10.2843
17.3592
24.7773
32.7076
41.3542
50.9715
61.8775
74.4581
89.1188
106.049
124.354
139.155
132.652
51.413
-33.872
-27.5998
-22.9007
-19.2638
-16.3325
-13.8882
-11.7935
-9.95736
-8.31645
-6.82455
-5.44647
-4.15427
-2.92485
-1.73829
-0.576694
-12.7047
-17.6044
-17.3834
-15.8618
-14.0728
-12.311
-10.6557
-9.11916
-7.69196
-6.35859
-5.10244
-3.90753
-2.75891
-1.64263
-0.545438
-5.7803
-11.1647
-12.7693
-12.6454
-11.7942
-10.6597
-9.43548
-8.20491
-7.00224
-5.83894
-4.71583
-3.62859
-2.5705
-1.53369
-0.509791
-3.14486
-7.34969
-9.35534
-9.93377
-9.71223
-9.07069
-8.21948
-7.27121
-6.28509
-5.29133
-4.30425
-3.32937
-2.36728
-1.41578
-0.471139
-1.95722
-5.06186
-6.93242
-7.77761
-7.92179
-7.62717
-7.07079
-6.36371
-5.57319
-4.73902
-3.88415
-3.02123
-2.15668
-1.29309
-0.43084
-1.33194
-3.63096
-5.2215
-6.10817
-6.43601
-6.36534
-6.02667
-5.5141
-4.89155
-4.20104
-3.46959
-2.71421
-1.94539
-1.16945
-0.390142
-0.96001
-2.69203
-3.99933
-4.82676
-5.22689
-5.28956
-5.10326
-4.7408
-4.25704
-3.69145
-3.07161
-2.41649
-1.73903
-1.04813
-0.350119
-0.71863
-2.048
-3.11037
-3.84202
-4.25208
-4.38661
-4.30214
-4.05167
-3.67932
-3.21949
-2.6981
-2.13425
-1.54198
-0.931753
-0.311635
-0.552168
-1.58937
-2.45104
-3.08056
-3.46856
-3.6357
-3.61624
-3.44716
-3.1623
-2.79026
-2.35404
-1.87171
-1.35739
-0.822228
-0.275336
-0.432324
-1.25261
-1.95289
-2.4868
-2.83839
-3.01432
-3.03422
-2.92299
-2.7058
-2.40558
-2.04198
-1.63138
-1.18727
-0.720838
-0.24166
-0.343283
-0.999183
-1.57025
-2.01963
-2.33018
-2.50126
-2.54324
-2.47238
-2.30694
-2.06487
-1.76253
-1.4143
-1.03263
-0.628293
-0.210859
-0.275535
-0.804653
-1.27211
-1.64885
-1.9188
-2.07781
-2.1306
-2.08741
-1.96128
-1.76599
-1.51492
-1.22044
-0.893715
-0.544838
-0.183029
-0.223029
-0.652932
-1.03696
-1.35219
-1.58445
-1.72812
-1.78457
-1.76003
-1.66362
-1.50583
-1.29745
-1.04895
-0.770177
-0.470357
-0.158148
-0.181738
-0.533059
-0.849584
-1.11315
-1.31159
-1.43898
-1.49477
-1.48253
-1.40856
-1.28079
-1.10784
-0.898462
-0.661249
-0.404474
-0.136104
-0.148886
-0.437344
-0.698976
-0.919304
-1.08807
-1.19955
-1.2522
-1.24787
-1.19086
-1.08712
-0.943502
-0.767298
-0.565899