/*--------------------------------*- C++ -*----------------------------------*\
| =========                 |                                                 |
| \\      /  F ield         | OpenFOAM: The Open Source CFD Toolbox           |
|  \\    /   O peration     | Version:  5.x                                   |
|   \\  /    A nd           | Web:      www.OpenFOAM.org                      |
|    \\/     M anipulation  |                                                 |
\*---------------------------------------------------------------------------*/
FoamFile
{
    version     2.0;
    format      ascii;
    class       volScalarField;
    location    "10.5";
    object      gradTx;
}
// * * * * * * * * * * * * * * * * * * * * * * * * * * * * * * * * * * * * * //

dimensions      [0 -1 0 1 0 0 0];

internalField   nonuniform List<scalar> 
6300
(
37.3303
37.7204
38.4936
39.6352
41.1218
42.92
44.9845
47.2567
49.6639
52.1193
54.5237
56.7699
58.7485
60.3567
61.5064
36.939
37.3362
38.124
39.2889
40.809
42.6524
44.7754
47.1204
49.6145
52.1689
54.6806
57.036
59.1177
60.8136
62.0279
36.1494
36.56
37.3761
38.5862
40.1716
42.104
44.3431
46.8338
49.5033
52.2598
54.9923
57.5744
59.8711
61.7508
63.0994
34.9478
35.3774
36.233
37.507
39.1859
41.2476
43.658
46.367
49.3039
52.3733
55.4531
58.3967
61.0401
63.2177
64.7831
33.3156
33.7674
34.6702
36.0218
37.8163
40.0412
42.6729
45.671
48.9706
52.4749
56.0489
59.5177
62.6735
65.2955
67.1825
31.2304
31.7052
32.6576
34.0925
36.015
38.4267
41.3203
44.6722
48.4312
52.5054
56.7485
60.9502
64.8391
68.1068
70.4591
28.6694
29.1642
30.1612
31.6745
33.7234
36.3289
39.5082
43.2651
47.5754
52.3658
57.4881
62.6942
67.6245
71.8321
74.8614
25.6125
26.1199
27.1474
28.7199
30.8741
33.6562
37.1172
41.3034
46.2381
51.8928
58.1425
64.7125
71.1312
76.7341
80.7764
22.047
22.5545
23.5874
25.1824
27.3956
30.3033
33.9999
38.5918
44.1798
50.8233
58.4753
66.8806
75.4522
83.1951
88.8279
17.9731
18.4626
19.4643
21.0256
23.2217
26.1604
29.9863
34.8829
41.0645
48.744
58.0535
68.8807
80.6002
91.7643
100.074
13.4088
13.8574
14.7806
16.2329
18.3042
21.1291
24.9007
29.888
36.4501
45.0335
56.1124
69.987
86.3017
103.187
116.437
8.39485
8.77679
9.56669
10.8204
12.6323
15.15
18.5985
23.3172
29.8131
38.8262
51.3742
68.6513
91.4313
118.241
141.76
2.99809
3.28735
3.88809
4.84884
6.25361
8.23908
11.025
14.9681
20.6577
29.0829
41.9053
61.8109
92.5287
136.585
184.742
-2.68873
-2.51441
-2.15134
-1.5676
-0.706595
0.526888
2.29345
4.87157
8.76579
14.9409
25.352
44.1568
80.2856
150.827
268.516
-8.55063
-8.50568
-8.4122
-8.26204
-8.04004
-7.71914
-7.25047
-6.54192
-5.40803
-3.438
0.403524
9.17726
33.6286
117.918
467.705
62.1231
62.2584
62.0008
61.3588
60.3531
59.0133
57.3755
55.4785
53.3614
51.0615
48.6127
46.0452
43.3851
40.6543
37.8716
35.0526
32.2105
29.3569
26.5018
23.6539
20.8212
18.0108
15.229
12.4814
9.77297
7.1079
4.4898
1.92158
-0.594505
-3.05679
-5.4642
-7.81614
-10.1124
-12.3532
-14.5387
-16.6693
-18.745
-20.766
-22.7319
-24.6423
-26.4966
-28.2944
-30.0352
-31.7192
-33.3468
-34.9194
-36.4387
-37.907
-39.3269
-40.7012
-42.0321
-43.3219
-44.5717
-45.782
-46.9525
-48.0822
-49.1694
-50.2123
-51.209
-52.1578
-53.0574
-53.9067
-54.7049
-55.4509
-56.1435
-56.7804
-57.3583
-57.8724
-58.3163
-58.6821
-58.9606
-59.1415
-59.2142
-59.1682
-58.994
-58.6832
-58.2293
-57.6279
-56.8769
-55.977
-54.9311
-53.7447
-52.426
-50.9857
-49.4372
-47.7964
-46.0817
-44.3134
-42.5136
-40.7051
62.6793
62.8227
62.553
61.8814
60.8326
59.4412
57.7475
55.7943
53.6236
51.2746
48.7825
46.1776
43.4857
40.7283
37.923
35.0849
32.2264
29.3584
26.4906
23.6314
20.7886
17.9692
15.1793
12.4247
9.71015
7.04
4.41776
1.84631
-0.6721
-3.1359
-5.5441
-7.89625
-10.1923
-12.4327
-14.6177
-16.748
-18.8237
-20.845
-22.8115
-24.7227
-26.5778
-28.3759
-30.1166
-31.7997
-33.4257
-34.9956
-36.5116
-37.9761
-39.3921
-40.7628
-42.0909
-43.3787
-44.6278
-45.8386
-47.0106
-48.1425
-49.2324
-50.278
-51.2771
-52.2279
-53.129
-53.9795
-54.779
-55.527
-56.2227
-56.8644
-57.4492
-57.9725
-58.4279
-58.807
-59.1001
-59.2963
-59.3841
-59.352
-59.1898
-58.8884
-58.4408
-57.8422
-57.0907
-56.1864
-55.1325
-53.9344
-52.6003
-51.1408
-49.5694
-47.9022
-46.158
-44.3581
-42.5254
-40.6842
63.8224
63.9805
63.6823
62.9455
61.8042
60.303
58.4919
56.4219
54.1411
51.6926
49.1135
46.4343
43.6798
40.87
38.0209
35.1456
32.2551
29.3591
26.4663
23.5848
20.7218
17.8843
15.0784
12.3097
9.58312
6.90281
4.27232
1.69451
-0.828469
-3.29515
-5.70474
-8.05706
-10.3524
-12.5916
-14.7755
-16.905
-18.9806
-21.0025
-22.9704
-24.8835
-26.7404
-28.5398
-30.2806
-31.9621
-33.5845
-35.149
-36.6579
-38.1143
-39.522
-40.8849
-42.2068
-43.4906
-44.7382
-45.9502
-47.1256
-48.2626
-49.3583
-50.4097
-51.4139
-52.3686
-53.2725
-54.1249
-54.9264
-55.6775
-56.3787
-57.0295
-57.6278
-58.1695
-58.6481
-59.0548
-59.3784
-59.6064
-59.7254
-59.7224
-59.5851
-59.3031
-58.8686
-58.2761
-57.5233
-56.6104
-55.5405
-54.3191
-52.9541
-51.4562
-49.8387
-48.118
-46.3139
-44.4491
-42.549
-40.6403
65.6184
65.794
65.4415
64.591
63.2928
61.6096
59.6078
57.3517
54.8988
52.2977
49.5875
46.7982
43.9526
41.0675
38.1557
35.2273
32.2909
29.3544
26.4252
23.5107
20.6179
17.7534
14.9236
12.1338
9.38909
6.69358
4.05081
1.46357
-1.06603
-3.5367
-5.94789
-8.29983
-10.5934
-12.8301
-15.0115
-17.1393
-19.2145
-21.2376
-23.2081
-25.1248
-26.9854
-28.7877
-30.5294
-32.209
-33.8262
-35.382
-36.8793
-38.3221
-39.7157
-41.0656
-42.3769
-43.654
-44.8993
-46.1136
-47.2953
-48.4413
-49.5473
-50.6087
-51.6212
-52.5818
-53.489
-54.3429
-55.1454
-55.8991
-56.6064
-57.2692
-57.8869
-58.4564
-58.9712
-59.4212
-59.7933
-60.0723
-60.2417
-60.2851
-60.1876
-59.9367
-59.5228
-58.94
-58.1854
-57.2597
-56.1659
-54.9097
-53.4987
-51.943
-50.2557
-48.4533
-46.5564
-44.5903
-42.5841
-40.5692
68.1779
68.3666
67.9165
66.8796
65.3347
63.3736
61.0886
58.5636
55.8687
53.0588
50.1741
47.2422
44.2812
41.3025
38.3135
35.3197
32.3262
29.3384
26.3623
23.4048
20.4725
17.5723
14.7105
11.8927
9.12384
6.40814
3.74909
1.14949
-1.3886
-3.86397
-6.27637
-8.62657
-10.9163
-13.1481
-15.3247
-17.449
-19.5232
-21.548
-23.5231
-25.4463
-27.3141
-29.1224
-30.8672
-32.5454
-34.1556
-35.6988
-37.1784
-38.6003
-39.9717
-41.301
-42.5957
-43.8623
-45.1045
-46.3231
-47.5155
-48.6767
-49.7997
-50.8771
-51.9024
-52.871
-53.7812
-54.6342
-55.434
-56.1863
-56.8975
-57.5727
-58.2145
-58.8213
-59.3866
-59.8987
-60.3415
-60.6951
-60.9383
-61.0498
-61.0103
-60.804
-60.4196
-59.8501
-59.0932
-58.15
-57.0244
-55.7222
-54.2507
-52.6187
-50.8378
-48.9238
-46.898
-44.7888
-42.6309
-40.4637
71.6742
71.8577
71.2352
69.8983
67.9745
65.6028
62.914
60.0189
57.003
53.9265
50.8275
47.727
44.6343
41.5514
38.4774
35.4109
32.3525
29.3047
26.2723
23.2618
20.2804
17.3355
14.4336
11.5807
8.78174
6.04086
3.36154
0.746658
-1.8016
-4.28197
-6.69443
-9.04035
-11.3226
-13.5452
-15.7131
-17.8309
-19.9025
-21.9299
-23.9126
-25.8472
-27.728
-29.5482
-31.3005
-32.9791
-34.581
-36.1065
-37.5602
-38.9504
-40.2879
-41.5853
-42.8544
-44.1051
-45.3431
-46.5695
-47.7801
-48.9663
-50.1169
-51.2198
-52.2644
-53.2436
-54.1549
-55.0012
-55.7899
-56.5319
-57.2395
-57.9236
-58.5916
-59.2449
-59.8775
-60.4753
-61.017
-61.4762
-61.8237
-62.0309
-62.0721
-61.927
-61.5818
-61.0293
-60.2683
-59.3021
-58.1364
-56.7778
-55.2328
-53.5079
-51.6109
-49.5544
-47.3589
-45.0565
-42.6905
-40.3129
76.3751
76.508
75.5813
73.7606
71.2579
68.2873
65.0353
61.6471
58.2236
54.8255
51.4819
48.1998
44.9723
41.7867
38.6294
35.4899
32.3628
29.248
26.15
23.0763
20.0355
17.0361
14.0858
11.1907
8.35571
5.58468
2.88099
0.247738
-2.31245
-4.79785
-7.2083
-9.54579
-11.8146
-14.0212
-16.1734
-18.2791
-20.3453
-22.376
-24.3709
-26.325
-28.2291
-30.0713
-31.8394
-33.5229
-35.1157
-36.6171
-38.033
-39.3755
-40.6614
-41.9097
-43.1391
-44.3652
-45.5976
-46.8379
-48.079
-49.3066
-50.502
-51.6455
-52.7197
-53.713
-54.6215
-55.4502
-56.2122
-56.9264
-57.6144
-58.2967
-58.9888
-59.6975
-60.4177
-61.1317
-61.8105
-62.417
-62.9102
-63.25
-63.4013
-63.3373
-63.0415
-62.5077
-61.7381
-60.7407
-59.5253
-58.101
-56.4734
-54.6441
-52.6131
-50.3842
-47.9733
-45.4151
-42.7664
-40.1003
82.7011
82.6827
81.2134
78.6036
75.2138
71.3755
67.3515
63.3252
59.4065
55.6449
52.047
48.5927
45.249
41.9802
38.7548
35.5502
32.3545
29.1664
25.9923
22.8429
19.7303
16.6657
13.658
10.7139
7.83727
5.03128
2.29885
-0.35654
-2.93109
-5.42168
-7.82726
-10.15
-12.3962
-14.5754
-16.7002
-18.784
-20.839
-22.8732
-24.8876
-26.8745
-28.8188
-30.7006
-32.4994
-34.197
-35.7816
-37.2502
-38.6109
-39.8817
-41.0884
-42.2606
-43.4279
-44.6157
-45.8401
-47.1043
-48.3964
-49.6925
-50.9613
-52.1702
-53.2908
-54.3036
-55.2021
-55.9944
-56.7024
-57.3576
-57.9966
-58.6548
-59.3614
-60.1325
-60.9658
-61.838
-62.7074
-63.5199
-64.2166
-64.7397
-65.0397
-65.0805
-64.843
-64.3246
-63.5352
-62.4922
-61.2141
-59.7159
-58.0035
-56.0702
-53.8994
-51.4754
-48.799
-45.9036
-42.8664
-39.7997
91.337
90.945
88.486
84.568
79.8137
74.7295
69.6695
64.8471
60.3619
56.2276
52.4043
48.8253
45.4169
42.1104
38.8496
35.5967
32.3345
29.064
25.7983
22.556
19.3555
16.2126
13.1385
10.1393
7.21688
4.37172
1.60557
-1.07736
-3.67069
-6.16798
-8.5654
-10.8646
-13.074
-15.208
-17.286
-19.3302
-21.3623
-23.3987
-25.4436
-27.485
-29.4978
-31.4492
-33.3047
-35.0334
-36.6137
-38.0382
-39.3175
-40.4795
-41.5643
-42.6178
-43.6867
-44.8127
-46.0246
-47.3296
-48.7075
-50.1169
-51.5058
-52.8211
-54.0161
-55.058
-55.9348
-56.6592
-57.2675
-57.8114
-58.35
-58.9424
-59.6401
-60.477
-61.4571
-62.5474
-63.685
-64.7888
-65.7718
-66.5497
-67.0503
-67.2235
-67.0481
-66.5306
-65.6968
-64.5811
-63.219
-61.6386
-59.8507
-57.8373
-55.5496
-52.9295
-49.939
-46.5956
-43.0084
-39.3666
103.46
102.182
97.858
91.7351
84.8868
78.0469
71.6435
65.882
60.8106
56.3615
52.4085
48.8111
45.4372
42.1736
38.9321
35.6559
32.3255
28.9538
25.5701
22.208
18.8971
15.6601
12.5108
9.45381
6.48492
3.59815
0.792244
-1.9273
-4.54869
-7.05811
-9.44493
-11.7085
-13.8601
-15.9209
-17.9202
-19.8934
-21.8793
-23.9116
-26.0041
-28.1364
-30.2649
-32.3353
-34.2919
-36.0831
-37.6697
-39.0345
-40.1922
-41.188
-42.0846
-42.9521
-43.8625
-44.885
-46.0744
-47.4493
-48.9722
-50.5699
-52.1556
-53.6445
-54.9609
-56.0493
-56.8857
-57.4903
-57.9245
-58.2719
-58.625
-59.0773
-59.7174
-60.6142
-61.7886
-63.1879
-64.71
-66.2307
-67.6215
-68.7578
-69.5314
-69.8675
-69.7445
-69.1912
-68.263
-67.0239
-65.5372
-63.8591
-62.0217
-59.9985
-57.6777
-54.9159
-51.5865
-47.638
-43.2284
-38.7167
121.248
117.802
109.819
99.9455
89.9467
80.734
72.6914
65.9217
60.3619
55.7796
51.8996
48.474
45.2977
42.2042
39.0634
35.7922
32.3752
28.8603
25.3102
21.7858
18.3316
14.9807
11.7498
8.64107
5.63443
2.7079
-0.145617
-2.91869
-5.58798
-8.1248
-10.5019
-12.7137
-14.7768
-16.7224
-18.5917
-20.4382
-22.329
-24.3376
-26.5069
-28.7928
-31.1153
-33.3849
-35.5166
-37.4266
-39.0447
-40.3284
-41.2993
-42.0387
-42.646
-43.2238
-43.8761
-44.7163
-45.8564
-47.355
-49.1284
-51.0391
-52.9442
-54.7151
-56.2332
-57.4027
-58.1695
-58.5659
-58.7054
-58.7232
-58.7563
-58.9409
-59.4241
-60.3505
-61.7955
-63.6506
-65.7359
-67.8586
-69.8367
-71.487
-72.6414
-73.1716
-73.0596
-72.3906
-71.2758
-69.8223
-68.1301
-66.3078
-64.4592
-62.5873
-60.4398
-57.7188
-54.1245
-49.3437
-43.5949
-37.6688
149.142
139.953
124.499
108.335
93.874
81.7354
71.9054
64.2178
58.5046
54.1851
50.7356
47.7767
45.0383
42.3016
39.3819
36.1376
32.5653
28.8167
25.0126
21.2618
17.617
14.1282
10.8127
7.68101
4.66835
1.71234
-1.19943
-4.0596
-6.81806
-9.42149
-11.7967
-13.9328
-15.8624
-17.6337
-19.2959
-20.9188
-22.6089
-24.5318
-26.8413
-29.3961
-32.0413
-34.6325
-37.06
-39.1901
-40.9004
-42.0722
-42.7392
-43.0789
-43.2493
-43.3876
-43.6185
-44.1149
-45.1217
-46.864
-49.0859
-51.5159
-53.9251
-56.1488
-58.0064
-59.3352
-59.9856
-60.0106
-59.6606
-59.1517
-58.6685
-58.3736
-58.4916
-59.3394
-61.2106
-63.7812
-66.7067
-69.694
-72.5227
-74.9292
-76.6491
-77.3994
-77.1758
-76.2307
-74.7756
-72.9634
-70.9092
-68.7937
-66.9294
-65.5723
-64.0268
-61.7782
-58.3706
-52.4424
-44.2162
-35.7828
197.295
171.125
140.201
114.267
94.4549
79.4103
68.0328
59.6692
54.6391
51.3368
48.8638
46.7608
44.7752
42.6618
40.1669
36.9544
33.0084
28.8521
24.6377
20.5846
16.6773
13.0257
9.61025
6.54926
3.62041
0.652879
-2.32769
-5.34706
-8.27139
-11.0468
-13.4357
-15.4492
-17.176
-18.7016
-20.0565
-21.3023
-22.5531
-24.1691
-26.8221
-29.8686
-33.0447
-36.1153
-39.0311
-41.5572
-43.5309
-44.5423
-44.6499
-44.3619
-43.8981
-43.4172
-42.9781
-42.7776
-43.327
-45.6817
-48.7431
-52.0216
-55.1721
-58.1089
-60.5399
-62.2437
-62.7012
-61.9942
-60.8435
-59.5421
-58.3085
-57.2108
-56.5072
-56.8535
-59.6176
-63.3995
-67.5873
-71.7568
-75.8155
-79.3591
-82.0517
-83.0286
-82.3297
-80.8042
-78.7882
-76.452
-73.7755
-70.9165
-68.6683
-68.8274
-68.6253
-67.5059
-66.2452
-58.8496
-45.135
-31.8805
291.963
209.142
148.712
111.385
88.1684
71.8031
59.819
50.3193
48.2842
47.2933
46.4584
45.5749
44.695
43.5705
41.9841
38.8265
33.7536
28.9704
24.0299
19.6968
15.369
11.5826
7.89713
5.22697
2.628
-0.387965
-3.40016
-6.77142
-9.93912
-13.2288
-15.6149
-17.3785
-18.7791
-20.0151
-20.9739
-21.6784
-21.9711
-22.3126
-26.2357
-30.1542
-34.1996
-37.8202
-41.5629
-44.7194
-47.5462
-48.3131
-47.1293
-45.8977
-44.5706
-43.3859
-41.9933
-40.3597
-38.9319
-43.4809
-48.0867
-52.7109
-56.726
-60.7962
-64.1199
-66.9456
-67.0928
-64.6158
-62.2426
-59.8338
-57.7519
-55.4795
-53.01
-50.8852
-56.5578
-62.4326
-68.4934
-73.9778
-79.849
-85.013
-89.924
-91.0697
-88.6724
-86.0832
-83.2605
-80.4296
-76.9035
-72.1586
-66.9399
-72.6016
-74.5437
-73.4359
-82.9533
-74.355
-45.3909
-22.6481
508.61
214.913
123.951
88.1826
72.0145
57.8857
48.0266
30.2194
40.4247
43.0242
44.1216
44.383
44.9661
45.143
46.0631
43.4555
34.0809
29.3142
22.5467
18.8006
13.2808
9.99388
4.72164
3.80191
2.23584
-1.43437
-3.95567
-8.48893
-11.4311
-16.712
-18.6903
-19.8303
-20.6191
-21.7273
-22.2573
-22.6473
-21.3183
-15.2985
-25.6555
-30.2565
-35.9657
-39.3485
-44.9381
-48.3553
-54.5273
-54.892
-49.6769
-47.57
-45.0376
-43.6531
-41.3548
-37.645
-25.9295
-41.1974
-47.4031
-54.2764
-58.1996
-64.5575
-68.4156
-75.5036
-75.2623
-67.0867
-63.692
-59.6537
-57.4688
-54.0312
-49.0156
-33.6879
-53.2059
-61.1968
-70.2285
-75.6407
-84.8998
-91.03
-103.217
-104.211
-95.2903
-91.697
-87.7436
-85.407
-81.7855
-74.082
-49.5427
-81.7307
-84.8528
-64.0646
-125.747
-119.186
-36.6873
0.901501
-38.734
-36.6352
-34.6247
-32.7304
-30.9744
-29.3721
-27.9331
-26.6622
-25.5603
-24.6259
-23.8557
-23.2458
-22.7925
-22.4923
-22.3428
-38.6789
-36.5465
-34.5078
-32.5917
-30.8203
-29.2083
-27.7646
-26.4927
-25.3925
-24.4612
-23.6949
-23.089
-22.639
-22.3412
-22.193
-38.5647
-36.3634
-34.2676
-32.3079
-30.5061
-28.8759
-27.4238
-26.1511
-25.0552
-24.1313
-23.3735
-22.7759
-22.3329
-22.0402
-21.8946
-38.3829
-36.0743
-33.8909
-31.8656
-30.0199
-28.3649
-26.9033
-25.6324
-24.5456
-23.6349
-22.8916
-22.3077
-21.8762
-21.5917
-21.4504
-38.1194
-35.6595
-33.3555
-31.2433
-29.3427
-27.6599
-26.1917
-24.929
-23.8596
-22.9706
-22.25
-21.6868
-21.2723
-20.9997
-20.8645
-37.7519
-35.0882
-32.6277
-30.4089
-28.4471
-26.7399
-25.2743
-24.0319
-22.9927
-22.1378
-21.4505
-20.9169
-20.5261
-20.2699
-20.1432
-37.2453
-34.3134
-31.6576
-29.3171
-27.2964
-25.578
-24.1335
-22.9312
-21.9411
-21.1369
-20.497
-20.004
-19.6449
-19.4105
-19.2947
-36.5436
-33.2618
-30.3718
-27.905
-25.843
-24.1418
-22.7499
-21.6179
-20.7033
-19.9716
-19.3962
-18.9568
-18.6388
-18.432
-18.3302
-35.5529
-31.818
-28.6624
-26.0877
-24.0283
-22.3961
-21.1062
-20.087
-19.2822
-18.6498
-18.159
-17.7879
-17.5211
-17.3484
-17.2636
-34.1063
-29.7943
-26.3717
-23.7547
-21.7859
-20.3078
-19.1916
-18.3412
-17.6884
-17.186
-16.8019
-16.5144
-16.3091
-16.1768
-16.1119
-31.8883
-26.8809
-23.2749
-20.7732
-19.0523
-17.8572
-17.0108
-16.3976
-15.9439
-15.6037
-15.3479
-15.1584
-15.0238
-14.9374
-14.8951
-28.2639
-22.5657
-19.0736
-17.0106
-15.7928
-15.0576
-14.5967
-14.2941
-14.0859
-13.9367
-13.8274
-13.7472
-13.6903
-13.6537
-13.6357
-21.8968
-16.044
-13.443
-12.4024
-12.0503
-11.9835
-12.0242
-12.0961
-12.1684
-12.2298
-12.2775
-12.3125
-12.3363
-12.3511
-12.3581
-9.91815
-6.27034
-6.25168
-7.10562
-8.0223
-8.80181
-9.42009
-9.89762
-10.2616
-10.5362
-10.7404
-10.8886
-10.9913
-11.056
-11.0873
13.7735
7.13258
1.81232
-1.74596
-4.13135
-5.78121
-6.95661
-7.81249
-8.4442
-8.91286
-9.25897
-9.50991
-9.68425
-9.79429
-9.84752
-13.9659
-14.0428
-14.2039
-14.4651
-14.8536
-15.4141
-16.2196
-17.3949
-19.1679
-22.0016
-26.9879
-37.2594
-63.993
-155.623
-554.407
-18.8358
-19.0185
-19.4001
-20.0162
-20.9288
-22.2397
-24.117
-26.8465
-30.9407
-37.3834
-48.219
-68.0425
-107.673
-190.994
-345.344
-23.5794
-23.8564
-24.4337
-25.3618
-26.7277
-28.6724
-31.4229
-35.3507
-41.0831
-49.7148
-63.2086
-85.0702
-121.013
-177.04
-243.466
-28.1309
-28.4862
-29.2241
-30.4036
-32.1249
-34.5458
-37.9114
-42.6021
-49.2122
-58.6699
-72.3876
-92.3192
-120.405
-155.862
-187.715
-32.4361
-32.8505
-33.7081
-35.0696
-37.0365
-39.7634
-43.4801
-48.5209
-55.364
-64.6666
-77.2512
-93.9053
-114.679
-137.185
-154.084
-36.4537
-36.9074
-37.8423
-39.3156
-41.4204
-44.294
-48.1294
-53.1883
-59.8079
-68.3842
-79.2882
-92.6305
-107.75
-122.401
-132.187
-40.1565
-40.6305
-41.6028
-43.1232
-45.2707
-48.1567
-51.9292
-56.772
-62.8931
-70.4853
-79.6318
-90.1209
-101.147
-110.995
-117.085
-43.5304
-44.0079
-44.9828
-46.4956
-48.6082
-51.4039
-54.9857
-59.4682
-64.957
-71.5069
-79.043
-87.2379
-95.3622
-102.197
-106.213
-46.5729
-47.04
-47.9895
-49.4517
-51.4714
-54.1053
-57.4169
-61.4654
-66.2841
-71.8437
-77.9965
-84.4038
-90.4722
-95.3577
-98.1289
-49.2911
-49.7372
-50.6402
-52.0208
-53.9081
-56.3361
-59.3365
-62.9279
-67.0966
-71.7686
-76.7733
-81.805
-86.4035
-89.9862
-91.9689
-51.6998
-52.1174
-52.9594
-54.2382
-55.9696
-58.1694
-60.8457
-63.9895
-67.5596
-71.4625
-75.5311
-79.5068
-83.04
-85.7255
-87.1856
-53.8185
-54.203
-54.9754
-56.1412
-57.7061
-59.6717
-62.0302
-64.7552
-67.7914
-71.0413
-74.3533
-77.5159
-80.2651
-82.3156
-83.416
-55.6703
-56.0194
-56.7183
-57.7673
-59.1643
-60.9014
-62.9602
-65.3047
-67.8747
-70.5768
-73.2794
-75.8119
-77.9753
-79.5655
-80.4105
-57.2798
-57.593
-58.2181
-59.1517
-60.3863
-61.9079
-63.6917
-65.6978
-67.8662
-70.112
-72.3234
-74.3643
-76.0834
-77.3327
-77.9916
-58.6719
-58.9501
-59.5038
-60.3271
-61.4092
-62.7322
-64.2688
-65.9782
-67.804
-69.671
-71.4859
-73.1399
-74.5177
-75.5099
-76.0302
-59.8709
-60.1159
-60.6024
-61.3229
-62.2647
-63.4084
-64.7258
-66.1779
-67.7131
-69.2663
-70.7599
-72.1074
-73.2196
-74.0149
-74.4299
-60.8998
-61.114
-61.5385
-62.165
-62.9801
-63.964
-65.0893
-66.3199
-67.6096
-68.9029
-70.1355
-71.2381
-72.1416
-72.7839
-73.1178
-61.78
-61.9661
-62.3344
-62.8763
-63.5783
-64.4214
-65.3798
-66.4207
-67.5038
-68.5816
-69.6013
-70.5071
-71.2449
-71.7669
-72.0375
-62.5309
-62.6919
-63.0098
-63.4763
-64.0786
-64.7986
-65.613
-66.4923
-67.4016
-68.3007
-69.1461
-69.8928
-70.4979
-70.9245
-71.1451
-63.1701
-63.3086
-63.5819
-63.9821
-64.4971
-65.1105
-65.801
-66.5431
-67.3064
-68.0571
-68.7594
-69.3767
-69.875
-70.2252
-70.4059
-63.713
-63.8319
-64.066
-64.4082
-64.8473
-65.3687
-65.9534
-66.5791
-67.2198
-67.8473
-68.4316
-68.9433
-69.3549
-69.6434
-69.7921
-64.1735
-64.2751
-64.4751
-64.7669
-65.1405
-65.5828
-66.0774
-66.6046
-67.1425
-67.6673
-68.1543
-68.5793
-68.9203
-69.1588
-69.2815
-64.5634
-64.6501
-64.8205
-65.0687
-65.3861
-65.7608
-66.1786
-66.6227
-67.0744
-67.5137
-67.92
-68.2737
-68.5568
-68.7545
-68.8561
-64.8931
-64.9669
-65.1118
-65.3227
-65.5917
-65.9088
-66.2615
-66.6355
-67.0149
-67.3828
-67.7223
-68.0172
-68.2527
-68.4169
-68.5012
-65.1717
-65.2343
-65.3574
-65.5362
-65.764
-66.0321
-66.3297
-66.6446
-66.9633
-67.2717
-67.5556
-67.8018
-67.9981
-68.1347
-68.2049
-65.4067
-65.4598
-65.5642
-65.7156
-65.9084
-66.1349
-66.3859
-66.651
-66.9188
-67.1775
-67.4152
-67.621
-67.7848
-67.8988
-67.9573
-65.6048
-65.6499
-65.7382
-65.8664
-66.0294
-66.2207
-66.4324
-66.6556
-66.8807
-67.0978
-67.297
-67.4692
-67.6062
-67.7014
-67.7502
-65.7716
-65.8098
-65.8846
-65.9931
-66.1308
-66.2923
-66.4708
-66.6588
-66.8482
-67.0305
-67.1976
-67.3419
-67.4566
-67.5362
-67.577
-65.912
-65.9443
-66.0076
-66.0993
-66.2158
-66.3521
-66.5027
-66.6611
-66.8205
-66.9737
-67.1141
-67.2352
-67.3313
-67.398
-67.4322
-66.0299
-66.0573
-66.1108
-66.1884
-66.2869
-66.4021
-66.5292
-66.6627
-66.797
-66.926
-67.044
-67.1457
-67.2264
-67.2824
-67.3111
-66.1289
-66.152
-66.1974
-66.2631
-66.3464
-66.4438
-66.5511
-66.6639
-66.7771
-66.8858
-66.9852
-67.0708
-67.1387
-67.1858
-67.2099
-66.2118
-66.2314
-66.2699
-66.3255
-66.3961
-66.4785
-66.5694
-66.6647
-66.7604
-66.8522
-66.936
-67.0082
-67.0654
-67.1051
-67.1254
-66.281
-66.2977
-66.3304
-66.3776
-66.4375
-66.5075
-66.5845
-66.6653
-66.7463
-66.824
-66.895
-66.956
-67.0044
-67.0379
-67.0551
-66.3387
-66.3529
-66.3807
-66.421
-66.472
-66.5315
-66.597
-66.6657
-66.7345
-66.8005
-66.8608
-66.9126
-66.9536
-66.982
-66.9966
-66.3865
-66.3987
-66.4224
-66.4569
-66.5005
-66.5513
-66.6073
-66.666
-66.7247
-66.7811
-66.8324
-66.8766
-66.9116
-66.9358
-66.9482
-66.4259
-66.4363
-66.4568
-66.4864
-66.5239
-66.5676
-66.6158
-66.6662
-66.7167
-66.765
-66.8091
-66.847
-66.877
-66.8978
-66.9085
-66.458
-66.467
-66.4848
-66.5105
-66.543
-66.5809
-66.6226
-66.6663
-66.71
-66.7519
-66.7901
-66.8229
-66.8489
-66.8669
-66.8761
-66.4838
-66.4917
-66.5073
-66.5298
-66.5583
-66.5916
-66.6281
-66.6664
-66.7047
-66.7414
-66.7748
-66.8036
-66.8263
-66.842
-66.8501
-66.504
-66.5111
-66.525
-66.545
-66.5704
-66.6
-66.6325
-66.6665
-66.7005
-66.7331
-66.7628
-66.7883
-66.8085
-66.8225
-66.8297
-66.5194
-66.5258
-66.5384
-66.5565
-66.5795
-66.6063
-66.6357
-66.6665
-66.6974
-66.7269
-66.7537
-66.7768
-66.7951
-66.8077
-66.8142
-66.5303
-66.5362
-66.5479
-66.5647
-66.586
-66.6108
-66.638
-66.6666
-66.6951
-66.7224
-66.7473
-66.7687
-66.7856
-66.7973
-66.8033
-66.5371
-66.5427
-66.5538
-66.5698
-66.59
-66.6136
-66.6395
-66.6666
-66.6937
-66.7197
-66.7433
-66.7636
-66.7796
-66.7908
-66.7964
-66.5399
-66.5454
-66.5563
-66.5719
-66.5917
-66.6147
-66.6401
-66.6666
-66.6931
-66.7185
-66.7416
-66.7615
-66.7772
-66.788
-66.7936
-66.5389
-66.5445
-66.5554
-66.5711
-66.5911
-66.6143
-66.6399
-66.6666
-66.6933
-66.7189
-66.7422
-66.7622
-66.778
-66.789
-66.7946
-66.534
-66.5398
-66.5511
-66.5675
-66.5882
-66.6123
-66.6388
-66.6666
-66.6943
-66.7209
-66.7451
-66.7658
-66.7823
-66.7936
-66.7995
-66.5251
-66.5313
-66.5434
-66.5609
-66.5829
-66.6087
-66.637
-66.6666
-66.6962
-66.7245
-66.7503
-66.7725
-66.79
-66.8022
-66.8084
-66.512
-66.5187
-66.5319
-66.551
-66.5751
-66.6033
-66.6342
-66.6665
-66.6989
-66.7299
-66.7581
-66.7824
-66.8015
-66.8148
-66.8216
-66.4941
-66.5016
-66.5164
-66.5376
-66.5645
-66.5959
-66.6304
-66.6665
-66.7026
-66.7372
-66.7687
-66.7957
-66.8172
-66.832
-66.8396
-66.4711
-66.4796
-66.4962
-66.5203
-66.5508
-66.5864
-66.6255
-66.6664
-66.7074
-66.7466
-66.7823
-66.813
-66.8373
-66.8542
-66.8628
-66.4421
-66.4518
-66.471
-66.4986
-66.5336
-66.5744
-66.6193
-66.6663
-66.7134
-66.7584
-66.7995
-66.8348
-66.8627
-66.882
-66.8919
-66.4063
-66.4176
-66.4398
-66.4718
-66.5124
-66.5597
-66.6117
-66.6662
-66.7208
-66.773
-66.8207
-66.8616
-66.894
-66.9165
-66.928
-66.3627
-66.3759
-66.4017
-66.4391
-66.4864
-66.5416
-66.6024
-66.666
-66.7297
-66.7908
-66.8465
-66.8944
-66.9323
-66.9585
-66.972
-66.3099
-66.3254
-66.3557
-66.3995
-66.455
-66.5197
-66.591
-66.6657
-66.7406
-66.8123
-66.8778
-66.9341
-66.9786
-67.0095
-67.0253
-66.2464
-66.2646
-66.3002
-66.3518
-66.4171
-66.4933
-66.5773
-66.6653
-66.7536
-66.8382
-66.9154
-66.9819
-67.0345
-67.071
-67.0896
-66.1702
-66.1916
-66.2337
-66.2945
-66.3716
-66.4616
-66.5608
-66.6648
-66.7691
-66.8692
-66.9606
-67.0392
-67.1016
-67.1448
-67.1669
-66.0791
-66.1045
-66.1541
-66.226
-66.3171
-66.4235
-66.5409
-66.664
-66.7876
-66.9062
-67.0146
-67.1079
-67.1819
-67.2332
-67.2595
-65.9705
-66.0004
-66.0591
-66.1441
-66.2519
-66.3779
-66.5169
-66.6629
-66.8095
-66.9504
-67.0791
-67.19
-67.278
-67.339
-67.3703
-65.841
-65.8764
-65.9458
-66.0464
-66.174
-66.3233
-66.4881
-66.6613
-66.8355
-67.0029
-67.156
-67.288
-67.3928
-67.4656
-67.5028
-65.6869
-65.7288
-65.8109
-65.9299
-66.081
-66.258
-66.4535
-66.6591
-66.8661
-67.0652
-67.2476
-67.405
-67.5299
-67.6167
-67.6611
-65.5038
-65.5533
-65.6504
-65.7912
-65.9701
-66.1799
-66.4118
-66.656
-66.9021
-67.1392
-67.3566
-67.5443
-67.6936
-67.7972
-67.8503
-65.2863
-65.3448
-65.4595
-65.626
-65.8378
-66.0863
-66.3615
-66.6517
-66.9445
-67.2269
-67.4863
-67.7104
-67.8888
-68.0128
-68.0764
-65.0282
-65.0972
-65.2327
-65.4294
-65.6799
-65.9743
-66.3007
-66.6455
-66.9939
-67.3307
-67.6403
-67.9083
-68.1218
-68.2704
-68.3466
-64.7221
-64.8035
-64.9633
-65.1956
-65.4916
-65.8401
-66.2271
-66.6368
-67.0516
-67.4532
-67.8232
-68.144
-68.4
-68.5782
-68.6697
-64.3596
-64.4554
-64.6435
-64.9174
-65.2669
-65.6791
-66.1378
-66.6245
-67.1184
-67.5977
-68.0403
-68.4248
-68.732
-68.9463
-69.0564
-63.9306
-64.0431
-64.2643
-64.5866
-64.9988
-65.4858
-66.0292
-66.6071
-67.1953
-67.7677
-68.2976
-68.7591
-69.1286
-69.3867
-69.5194
-63.4235
-63.5554
-63.8148
-64.1935
-64.6787
-65.2534
-65.8965
-66.5826
-67.2832
-67.9672
-68.6025
-69.1573
-69.6026
-69.9142
-70.0746
-62.8249
-62.979
-63.2826
-63.7264
-64.2965
-64.9736
-65.7338
-66.548
-67.3826
-68.2007
-68.9632
-69.6315
-70.1694
-70.5467
-70.7411
-62.1194
-62.2989
-62.653
-63.1717
-63.8398
-64.6362
-65.5338
-66.4992
-67.4935
-68.4726
-69.3894
-70.1961
-70.8478
-71.306
-71.5426
-61.2892
-61.4975
-61.909
-62.5133
-63.2941
-64.2285
-65.2865
-66.4305
-67.6149
-68.7878
-69.892
-70.8684
-71.6605
-72.2193
-72.5084
-60.3145
-60.5551
-61.0313
-61.7324
-62.6418
-63.7351
-64.9797
-66.3335
-67.7444
-69.1507
-70.4832
-71.6686
-72.6352
-73.3198
-73.6748
-59.1727
-59.4492
-59.9973
-60.807
-61.8617
-63.1365
-64.597
-66.1969
-67.8771
-69.5649
-71.1766
-72.6207
-73.8057
-74.649
-75.0878
-57.839
-58.1546
-58.7818
-59.7116
-60.9287
-62.409
-64.1175
-66.0047
-68.0043
-70.032
-71.9862
-73.7527
-75.2133
-76.2592
-76.8054
-56.2861
-56.6438
-57.3563
-58.4168
-59.8129
-61.5232
-63.514
-65.7343
-68.112
-70.5501
-72.9262
-75.097
-76.909
-78.2162
-78.9021
-54.4849
-54.8866
-55.6891
-56.889
-58.4789
-60.4427
-62.751
-65.3548
-68.1779
-71.1112
-74.0086
-76.6904
-78.9553
-80.6044
-81.4752
-52.4049
-52.8513
-53.7459
-55.0906
-56.8853
-59.1229
-61.783
-64.8228
-68.1672
-71.697
-75.2408
-78.5733
-81.4289
-83.5331
-84.6529
-50.015
-50.505
-51.4901
-52.9798
-54.9843
-57.5099
-60.5512
-64.0794
-68.0277
-72.2732
-76.6195
-80.7874
-84.4243
-87.1451
-88.608
-47.2851
-47.8148
-48.8842
-50.5116
-52.7215
-55.5389
-58.9813
-63.0442
-67.6819
-72.7793
-78.1221
-83.37
-88.0556
-91.6305
-93.579
-44.1874
-44.7501
-45.8909
-47.6391
-50.0369
-53.1341
-56.9804
-61.61
-67.0167
-73.1151
-79.6904
-86.3431
-92.4582
-97.2451
-99.9028
-40.699
-41.2843
-42.4758
-44.3157
-46.8666
-50.2091
-54.4356
-59.6363
-65.871
-73.1196
-81.2047
-89.6894
-97.7828
-104.338
-108.072
-36.8045
-37.3976
-38.6107
-40.4989
-43.1468
-46.6703
-51.2145
-56.9446
-64.0212
-72.5432
-82.4415
-93.3071
-104.175
-113.39
-118.834
-32.4985
-33.0806
-34.277
-36.1545
-38.8192
-42.423
-47.1697
-53.318
-61.1677
-71.0109
-83.0063
-96.9229
-111.716
-125.06
-133.376
-27.7884
-28.3373
-29.4707
-31.2638
-33.8398
-37.382
-42.1519
-48.51
-56.9299
-67.9838
-82.237
-99.9297
-120.263
-140.22
-153.692
-22.6976
-23.1884
-24.2064
-25.8299
-28.1896
-31.4885
-36.0315
-42.2702
-50.863
-62.7352
-79.0789
-101.103
-129.07
-159.884
-183.364
-17.2664
-17.6737
-18.5221
-19.8849
-21.8876
-24.7314
-28.7336
-34.3959
-42.519
-54.3813
-71.9763
-98.1478
-135.9
-184.641
-229.339
-11.5527
-11.8531
-12.4809
-13.4959
-15.0018
-17.1703
-20.2831
-24.813
-31.5785
-42.0465
-58.9179
-87.1504
-135.098
-212.205
-306.353
-5.63095
-5.80546
-6.17142
-6.76627
-7.65637
-8.95375
-10.849
-13.6781
-18.0671
-25.2653
-37.97
-62.4613
-114.047
-227.932
-448.745
0.411487
0.374591
0.296549
0.167877
-0.0285477
-0.322484
-0.766763
-1.46047
-2.60533
-4.66074
-8.83731
-18.9564
-49.7328
-169.404
-744.476
6.47898
6.58266
6.79914
7.14855
7.66648
8.41265
9.48808
11.0698
13.488
17.4163
24.4217
38.8934
76.3142
205.377
790.363
12.4739
12.7118
13.2088
14.0116
15.2024
16.9185
19.3906
23.0185
28.532
37.3556
52.495
80.8054
138.72
263.541
501.535
18.3029
18.6603
19.4055
20.6047
22.3729
24.8987
28.4896
33.6567
41.2762
52.9081
71.4212
102.158
154.66
243.108
377.997
44.658
18.2079
7.58916
2.09194
-1.23883
-3.44715
-4.99123
-6.10651
-6.92756
-7.53702
-7.98815
-8.31624
-8.54491
-8.68962
-8.75975
28.2285
17.2822
9.28414
4.07643
0.611276
-1.78653
-3.50225
-4.75987
-5.69565
-6.39614
-6.91822
-7.30005
-7.56735
-7.73706
-7.81948
19.4004
14.309
9.04127
4.85075
1.72017
-0.599572
-2.33135
-3.63668
-4.62708
-5.37909
-5.9456
-6.36331
-6.65749
-6.84505
-6.93636
14.1077
11.4581
8.05024
4.88897
2.26595
0.179084
-1.45656
-2.73217
-3.72401
-4.4908
-5.07626
-5.51228
-5.82161
-6.01981
-6.11658
10.6549
9.13361
6.88788
4.55335
2.43939
0.644385
-0.831775
-2.0247
-2.97718
-3.72838
-4.31063
-4.74917
-5.06284
-5.26493
-5.36393
8.25849
7.3121
5.78711
4.06449
2.39132
0.888256
-0.403677
-1.48418
-2.3701
-3.08326
-3.64477
-4.07272
-4.38149
-4.58161
-4.67997
6.51918
5.89231
4.82353
3.54126
2.22509
0.985499
-0.122405
-1.07876
-1.88297
-2.54342
-3.07161
-3.479
-3.77554
-3.96889
-4.06427
5.21512
4.77933
4.00817
3.04152
2.00565
0.991283
0.0536242
-0.778991
-1.49564
-2.0954
-2.5823
-2.96224
-3.24119
-3.42418
-3.51476
4.21365
3.89919
3.32852
2.58983
1.77126
0.943783
0.156706
-0.559745
-1.18948
-1.72573
-2.16723
-2.51557
-2.77346
-2.9436
-3.02811
3.43051
3.19694
2.76551
2.19358
1.54304
0.868216
0.210741
-0.40071
-0.948235
-1.42185
-1.81684
-2.1317
-2.36662
-2.52247
-2.60012
2.80954
2.63205
2.30002
1.85191
1.33167
0.780591
0.232812
-0.286062
-0.758304
-1.17254
-1.52207
-1.80332
-2.01467
-2.1556
-2.22603
2.31179
2.17446
1.91513
1.56031
1.14169
0.690667
0.234807
-0.203795
-0.608645
-0.968168
-1.2747
-1.52345
-1.71161
-1.83766
-1.90083
1.90938
1.80157
1.59653
1.313
0.974193
0.604096
0.224814
-0.144966
-0.490455
-0.800581
-1.06744
-1.28564
-1.45167
-1.56336
-1.61948
1.58182
1.49618
1.33242
1.10408
0.828414
0.523898
0.208219
-0.103003
-0.396818
-0.663031
-0.893961
-1.08405
-1.22945
-1.32763