/*--------------------------------*- C++ -*----------------------------------*\
| =========                 |                                                 |
| \\      /  F ield         | OpenFOAM: The Open Source CFD Toolbox           |
|  \\    /   O peration     | Version:  5.x                                   |
|   \\  /    A nd           | Web:      www.OpenFOAM.org                      |
|    \\/     M anipulation  |                                                 |
\*---------------------------------------------------------------------------*/
FoamFile
{
    version     2.0;
    format      ascii;
    class       volScalarField;
    location    "10.5";
    object      T;
}
// * * * * * * * * * * * * * * * * * * * * * * * * * * * * * * * * * * * * * //

dimensions      [0 0 0 1 0 0 0];

internalField   nonuniform List<scalar> 
6300
(
10.1862
10.5604
10.9406
11.3303
11.7333
12.1528
12.5917
13.0524
13.5368
14.0457
14.5792
15.1362
15.7146
16.3112
16.9217
10.1842
10.5546
10.9309
11.3171
11.7167
12.1332
12.5697
13.0288
13.5122
14.021
14.5555
15.1147
15.6963
16.297
16.9125
10.1802
10.5428
10.9114
11.2903
11.6832
12.0937
12.5252
12.9806
13.4619
13.9706
14.5071
15.0705
15.6586
16.2679
16.8936
10.1742
10.5248
10.8817
11.2494
11.6319
12.0331
12.4568
12.9063
13.3842
13.8924
14.4316
15.0014
15.5996
16.2222
16.8639
10.166
10.5003
10.8414
11.1937
11.5618
11.95
12.3626
12.8035
13.276
13.7829
14.3255
14.9039
15.5159
16.1573
16.8218
10.1556
10.469
10.7897
11.1222
11.4715
11.8425
12.24
12.6689
13.1335
13.6375
14.1836
14.7725
15.4026
16.0693
16.7647
10.1427
10.4307
10.726
11.0339
11.3595
11.7083
12.0861
12.4985
12.9514
13.45
13.9987
14.5998
15.2526
15.9523
16.6892
10.1274
10.3848
10.6498
10.9278
11.2242
11.5452
11.8974
12.2876
12.7234
13.2124
13.7613
14.3752
15.0555
15.7978
16.5902
10.1096
10.3313
10.5607
10.8031
11.0643
11.351
11.6704
12.031
12.4422
12.9146
13.4587
14.0841
14.7963
15.5931
16.4602
10.0893
10.2702
10.4585
10.6595
10.879
11.1239
11.4022
11.7236
12.0999
12.5449
13.0748
13.706
14.4524
15.318
16.2877
10.0665
10.2017
10.3436
10.4973
10.6683
10.8634
11.0909
11.3614
11.6886
12.0904
12.5893
13.2126
13.989
14.9387
16.0528
10.0415
10.1264
10.217
10.3177
10.4334
10.5704
10.7364
10.9423
11.2028
11.5386
11.9793
12.5661
13.3523
14.3947
15.7172
10.0146
10.0453
10.0804
10.1231
10.1774
10.2482
10.3421
10.4687
10.6415
10.8818
11.2232
11.7199
12.4594
13.5705
15.1911
9.98634
9.95988
9.93605
9.91686
9.9047
9.90272
9.91524
9.94859
10.0127
10.1239
10.3115
10.6309
11.1946
12.2367
14.2112
9.95719
9.8718
9.78708
9.70355
9.62184
9.54275
9.46745
9.39774
9.33662
9.28958
9.26786
9.29765
9.4514
9.97022
11.8098
17.4897
18.0087
18.5273
19.0421
19.5499
20.048
20.5335
21.0042
21.4581
21.8936
22.3092
22.7038
23.0766
23.4269
23.7542
24.0581
24.3384
24.5949
24.8277
25.0366
25.2219
25.3836
25.5221
25.6374
25.7301
25.8003
25.8486
25.8752
25.8806
25.8653
25.8296
25.7742
25.6994
25.6056
25.4935
25.3633
25.2157
25.0509
24.8696
24.672
24.4589
24.2304
23.9873
23.7299
23.4586
23.1741
22.8766
22.5668
22.2449
21.9113
21.5665
21.2108
20.8445
20.4679
20.0814
19.6854
19.2801
18.8659
18.4432
18.0124
17.5739
17.1281
16.6755
16.2164
15.7513
15.2806
14.8049
14.3247
13.8404
13.3527
12.8624
12.3701
11.8767
11.3831
10.8905
10.3999
9.91248
9.42943
8.95201
8.48148
8.01906
7.56596
7.12332
6.69219
6.27355
5.86824
5.47695
5.10021
4.73839
4.39165
17.4855
18.0093
18.5325
19.0518
19.5639
20.0657
20.5546
21.0282
21.4845
21.9219
22.339
22.7349
23.1087
23.4597
23.7875
24.0917
24.3722
24.6288
24.8615
25.0703
25.2554
25.4168
25.5549
25.6698
25.762
25.8316
25.8793
25.9053
25.9101
25.8941
25.8578
25.8017
25.7262
25.6318
25.519
25.3882
25.2398
25.0744
24.8924
24.6943
24.4804
24.2513
24.0075
23.7493
23.4775
23.1923
22.8942
22.5837
22.2613
21.9272
21.5819
21.2257
20.8589
20.4819
20.0949
19.6984
19.2926
18.8778
18.4546
18.0232
17.5841
17.1377
16.6845
16.2247
15.759
15.2877
14.8113
14.3302
13.8451
13.3564
12.8649
12.3714
11.8767
11.3817
10.8875
10.3952
9.906
9.42117
8.94196
8.46966
8.00552
7.55079
7.10662
6.67411
6.25427
5.84796
5.4559
5.07866
4.7166
4.3699
17.4769
18.0103
18.5432
19.0717
19.5923
20.1018
20.5974
21.0766
21.5377
21.979
22.3993
22.7976
23.1732
23.5256
23.8543
24.1592
24.4401
24.6968
24.9294
25.1379
25.3225
25.4833
25.6206
25.7346
25.8257
25.8943
25.9408
25.9655
25.969
25.9517
25.9141
25.8566
25.7798
25.6841
25.5699
25.4378
25.2882
25.1215
24.9382
24.7387
24.5234
24.293
24.0478
23.7883
23.5151
23.2286
22.9293
22.6176
22.294
21.9589
21.6126
21.2554
20.8878
20.5098
20.1219
19.7244
19.3175
18.9017
18.4774
18.0448
17.6046
17.157
16.7025
16.2415
15.7745
15.3019
14.824
14.3414
13.8545
13.364
12.8703
12.3743
11.8769
11.3789
10.8815
10.3858
9.8931
9.40466
8.92183
8.44594
7.97832
7.52027
7.07301
6.6377
6.2154
5.80705
5.41344
5.03516
4.67262
4.32601
17.4634
18.0121
18.56
19.1028
19.6365
20.1576
20.6633
21.1511
21.6192
22.0661
22.4908
22.8925
23.2708
23.6251
23.9552
24.261
24.5424
24.7992
25.0316
25.2396
25.4234
25.5832
25.7193
25.832
25.9216
25.9885
26.0331
26.056
26.0575
26.0382
25.9986
25.9391
25.8602
25.7625
25.6464
25.5123
25.3607
25.1921
25.0068
24.8053
24.588
24.3555
24.1082
23.8467
23.5714
23.2829
22.9817
22.6683
22.343
22.0063
21.6586
21.3001
20.931
20.5517
20.1625
19.7635
19.3551
18.9377
18.5116
18.0773
17.6353
17.1859
16.7296
16.2668
15.7979
15.3233
14.8434
14.3586
13.8691
13.3757
12.8788
12.3791
11.8776
11.3751
10.8728
10.372
9.87389
9.37994
8.89156
8.41019
7.93723
7.47409
7.02207
6.58244
6.15636
5.74485
5.3488
4.96891
4.60563
4.25917
17.4444
18.0147
18.5838
19.1466
19.6985
20.2356
20.7547
21.2537
21.7308
22.1848
22.6151
23.0211
23.4025
23.7591
24.0908
24.3977
24.6795
24.9364
25.1685
25.3758
25.5586
25.717
25.8514
25.9622
26.0496
26.1142
26.1564
26.1767
26.1756
26.1536
26.1112
26.049
25.9674
25.867
25.7483
25.6116
25.4575
25.2862
25.0983
24.8942
24.6742
24.439
24.1889
23.9245
23.6464
23.3552
23.0515
22.7356
22.4081
22.0694
21.7198
21.3595
20.9887
20.6077
20.2167
19.8158
19.4054
18.9858
18.5575
18.1208
17.6763
17.2244
16.7657
16.3005
15.8293
15.3522
14.8697
14.382
13.8894
13.3922
12.8911
12.3865
11.8795
11.3709
10.862
10.354
9.84857
9.34705
8.85107
8.36217
7.8819
7.41176
6.9532
6.50758
6.07622
5.66029
5.26082
4.87865
4.51434
4.16814
17.419
18.0188
18.6166
19.206
19.7816
20.339
20.875
21.3875
21.8753
22.3376
22.7741
23.1847
23.5695
23.9286
24.262
24.5699
24.8522
25.1091
25.3406
25.547
25.7283
25.885
26.0172
26.1255
26.2103
26.2719
26.3109
26.3279
26.3234
26.2979
26.252
26.1863
26.1013
25.9976
25.8756
25.7357
25.5784
25.404
25.2129
25.0055
24.7821
24.5433
24.2897
24.0217
23.74
23.4453
23.1382
22.8193
22.4891
22.1478
21.796
21.4336
21.0609
20.6779
20.2847
19.8816
19.4686
19.0463
18.615
18.1752
17.7276
17.2726
16.8109
16.3428
15.8687
15.3888
14.9033
14.4123
13.9159
13.4143
12.908
12.3974
11.8833
11.367
10.8495
10.3324
9.81738
9.30607
8.80023
8.3016
7.81186
7.33266
6.86556
6.41211
5.97376
5.55193
5.14786
4.76261
4.39692
4.0511
17.3861
18.0255
18.6613
19.2852
19.8906
20.4728
21.0287
21.5567
22.0562
22.5271
22.97
23.3852
23.7733
24.1347
24.4697
24.7785
25.0612
25.3179
25.5487
25.7537
25.9333
26.0877
26.2172
26.3224
26.4037
26.4617
26.4968
26.5097
26.501
26.4712
26.421
26.351
26.2619
26.1541
26.0282
25.8846
25.7236
25.5455
25.3506
25.1393
24.9119
24.6688
24.4107
24.1382
23.852
23.5529
23.2417
22.919
22.5854
22.2413
21.8869
21.5223
21.1475
20.7624
20.3669
19.9611
19.5451
19.1194
18.6843
18.2407
17.7891
17.3303
16.865
16.3935
15.9162
15.4332
14.9446
14.4501
13.9496
13.4431
12.9307
12.4129
11.8905
11.3644
10.8363
10.3078
9.78068
9.25706
8.73888
8.22809
7.72654
7.236
6.75819
6.29478
5.84745
5.41789
5.00772
4.61834
4.2508
3.90557
17.3448
18.0372
18.7228
19.3907
20.0329
20.6443
21.2225
21.7668
22.2779
22.7569
23.2053
23.6244
24.0152
24.3785
24.7148
25.0244
25.3073
25.5637
25.7934
25.9969
26.1742
26.3257
26.4519
26.5533
26.6305
26.684
26.7143
26.7223
26.7084
26.6734
26.618
26.543
26.4489
26.3364
26.2059
26.058
25.8929
25.7107
25.5117
25.2959
25.0638
24.8156
24.5521
24.2739
23.9821
23.6776
23.3613
23.0341
22.6966
22.3493
21.9922
21.6255
21.2487
20.8615
20.4636
20.0549
19.6354
19.2055
18.7659
18.3173
17.8608
17.3973
16.9276
16.4522
15.9716
15.4856
14.994
14.4963
13.9918
13.4802
12.9612
12.4351
11.9025
11.3648
10.8235
10.2808
9.73885
9.20008
8.66678
8.14115
7.62524
7.12092
6.62998
6.15419
5.69547
5.25587
4.83755
4.44255
4.07249
3.72811
17.2939
18.0583
18.8097
19.5331
20.2191
20.8633
21.4646
22.0245
22.5454
23.0305
23.4825
23.9039
24.2963
24.6608
24.9981
25.3083
25.5914
25.8472
26.0758
26.2772
26.4517
26.5998
26.7219
26.8188
26.8909
26.9391
26.9638
26.9658
26.9458
26.9046
26.843
26.7619
26.662
26.544
26.4085
26.2559
26.0863
25.8998
25.6963
25.4758
25.2383
24.9842
24.7141
24.4291
24.1302
23.8188
23.4962
23.1636
22.8216
22.4708
22.1113
21.7427
21.3644
20.9756
20.5756
20.1638
19.7403
19.3054
18.86
18.4051
17.9423
17.4729
16.998
16.5184
16.0345
15.5459
15.0521
14.5519
14.0442
13.5276
13.0017
12.4662
11.9219
11.37
10.8127
10.2525
9.69233
9.13506
8.58349
8.04011
7.50714
6.98646
6.47983
5.98895
5.51587
5.06313
4.63371
4.23081
3.85712
3.514
17.2335
18.098
18.9365
19.7289
20.4654
21.1437
21.7662
22.3378
22.8643
23.3513
23.8036
24.2248
24.6171
24.9821
25.32
25.6309
25.9143
26.1697
26.3969
26.5959
26.767
26.9108
27.028
27.1193
27.1856
27.2274
27.2455
27.2406
27.2134
27.1648
27.0958
27.0074
26.9006
26.7764
26.6353
26.4777
26.3037
26.1131
25.9052
25.6797
25.4363
25.1752
24.8973
24.6037
24.2959
23.9759
23.6454
23.306
22.9589
22.6046
22.243
21.8736
21.495
21.1056
20.7041
20.2894
19.8613
19.4202
18.9672
18.5042
18.0331
17.5561
17.0749
16.5907
16.1037
15.6136
15.1191
14.6183
14.1088
13.5885
13.0557
12.51
11.9519
11.383
10.8059
10.2241
9.64144
9.06169
8.48826
7.92397
7.37119
6.83169
6.30687
5.79799
5.3069
4.8367
4.39163
3.97692
3.59767
3.25645
17.1662
18.1748
19.1296
20.0051
20.7953
21.5042
22.1409
22.7158
23.2396
23.7218
24.1692
24.5868
24.9771
25.3417
25.6805
25.9928
26.2771
26.5324
26.7581
26.9542
27.1212
27.2597
27.3709
27.4556
27.5149
27.5495
27.56
27.5471
27.5114
27.4539
27.3759
27.2789
27.1641
27.0326
26.8853
26.7228
26.5447
26.3506
26.1391
25.9088
25.6592
25.3902
25.1028
24.7983
24.479
24.1475
23.8069
23.4592
23.1062
22.7485
22.3858
22.0172
21.6406
21.2529
20.8513
20.4341
20.0007
19.5517
19.0887
18.6145
18.132
17.645
17.1559
16.6666
16.1772
15.6873
15.1949
14.6969
14.189
13.667
13.1282
12.5714
11.9972
11.4074
10.8057
10.1967
9.58622
8.97908
8.37971
7.79115
7.21601
6.65565
6.11088
5.58133
5.06776
4.574
4.10578
3.67192
3.28338
2.94534
17.1039
18.3289
19.4364
20.4039
21.242
21.9685
22.6042
23.1669
23.6745
24.142
24.5776
24.9876
25.3739
25.7382
26.0789
26.3946
26.6812
26.9373
27.1615
27.3542
27.5159
27.6478
27.7513
27.828
27.8794
27.9059
27.9079
27.8859
27.8402
27.7722
27.6832
27.5756
27.451
27.3112
27.1571
26.9896
26.8085
26.6128
26.3996
26.1655
25.9097
25.6315
25.3324
25.0138
24.6793
24.3321
23.9781
23.6198
23.2601
22.899
22.537
22.172
21.8017
21.42
21.0207
20.6019
20.1621
19.7031
19.2262
18.7363
18.2373
17.7366
17.2371
16.7422
16.2513
15.7644
15.2784
14.7896
14.2894
13.7694
13.2264
12.6576
12.0648
11.4489
10.816
10.1714
9.526
8.88516
8.25549
7.6389
7.03943
6.45708
5.89287
5.34159
4.8
4.27447
3.77036
3.30163
2.89632
2.5647
17.0925
18.6522
19.9446
20.9889
21.849
22.5631
23.1725
23.697
24.167
24.6076
25.0226
25.422
25.802
26.1683
26.513
26.8377
27.1289
27.3879
27.6098
27.7985
27.9529
28.0765
28.17
28.2366
28.2791
28.297
28.29
28.2582
28.2009
28.1203
28.0168
27.8964
27.7593
27.6101
27.4476
27.2759
27.0925
26.9
26.6897
26.4529
26.1919
25.9022
25.59
25.2517
24.8974
24.5262
24.155
23.782
23.4156
23.0504
22.692
22.3341
21.9791
21.6119
21.2177
20.7996
20.3507
19.88
19.3822
18.871
18.3448
17.826
17.3116
16.812
16.3192
15.8401
15.3657
14.8984
14.4181
13.9047
13.3615
12.7783
12.1655
11.5147
10.8429
10.1472
9.45905
8.77499
8.11231
7.46186
6.83811
6.23226
5.65617
5.08779
4.50904
3.94404
3.38395
2.83995
2.40312
2.0877
17.324
19.3602
20.8097
21.8387
22.6661
23.3082
23.8628
24.3052
24.7015
25.1099
25.4897
25.8842
26.2493
26.6291
26.9755
27.3289
27.6226
27.8914
28.1054
28.2919
28.4337
28.5481
28.6267
28.6797
28.7138
28.7235
28.7074
28.6668
28.5945
28.5012
28.374
28.2409
28.0844
27.928
27.7508
27.5784
27.3895
27.2122
27.0176
26.7749
26.5151
26.2049
25.8847
25.5122
25.1394
24.7198
24.3342
23.9343
23.5692
23.1915
22.8461
22.4916
22.1735
21.8427
21.4488
21.0413
20.5703
20.0958
19.557
19.0272
18.4412
17.909
17.3643
16.8716
16.3671
15.909
15.4424
15.0255
14.5943
14.0829
13.5538
12.9414
12.3208
11.6105
10.9039
10.1118
9.38611
8.63393
7.95139
7.24625
6.6109
5.96453
5.40826
4.84886
4.19823
3.60647
2.9743
2.22391
1.73505
1.4674
18.6981
20.9128
22.28
22.9787
23.7497
24.1789
24.7145
24.9793
25.2181
25.6531
25.9352
26.3884
26.6749
27.1379
27.4273
27.9056
28.1516
28.4736
28.6401
28.8494
28.9535
29.0707
29.12
29.1494
29.1834
29.1867
29.1595
29.1208
29.018
28.9303
28.7395
28.6187
28.409
28.2751
28.0469
27.9041
27.6694
27.5488
27.4144
27.1212
26.9101
26.5218
26.2543
25.7728
25.4484
24.8641
24.5336
24.0361
23.7407
23.2855
23.0132
22.5962
22.3857
22.1641
21.6991
21.374
20.7945
20.404
19.7186
19.2638
18.4602
18.0094
17.3421
16.9479
16.3478
15.9901
15.4473
15.1731
14.8858
14.2864
13.8659
13.1159
12.6052
11.7009
11.088
9.98062
9.35119
8.39244
7.82291
6.93005
6.39946
5.56696
5.16476
4.74125
3.80258
3.32703
2.73484
1.23126
0.748399
0.619802
4.02681
3.65014
3.2941
2.95765
2.63949
2.33816
2.05205
1.7795
1.51881
1.26829
1.02629
0.791178
0.561373
0.335328
0.111528
4.00539
3.62946
3.27446
2.9393
2.62263
2.3229
2.03846
1.76761
1.50861
1.25976
1.01938
0.785859
0.557604
0.33308
0.11078
3.96221
3.58779
3.23494
2.90243
2.58878
2.29231
2.01126
1.74383
1.48824
1.24273
1.00561
0.775259
0.550096
0.328601
0.109292
3.89651
3.52448
3.17502
2.84667
2.53771
2.24627
1.97041
1.7082
1.45776
1.21729
0.985064
0.759457
0.53891
0.321932
0.107076
3.80713
3.43857
3.09394
2.77146
2.46907
2.18461
1.91588
1.66077
1.4173
1.18358
0.957884
0.738582
0.524148
0.313136
0.104154
3.69243
3.32867
2.99066
2.67612
2.38249
2.10718
1.84769
1.60169
1.36705
1.14184
0.924295
0.712827
0.505957
0.302305
0.100558
3.55015
3.19297
2.86388
2.55982
2.27754
2.01389
1.76598
1.53122
1.30736
1.0924
0.884618
0.682462
0.484539
0.289564
0.0963297
3.37726
3.02914
2.71203
2.4217
2.15393
1.90484
1.67109
1.44984
1.23873
1.03578
0.839301
0.647855
0.460166
0.27508
0.0915247
3.16971
2.83424
2.53335
2.26099
2.0116
1.78043
1.56367
1.3583
1.16193
0.972661
0.788939
0.609481
0.433182
0.259059
0.0862129
2.92198
2.60473
2.3261
2.07729
1.851
1.64158
1.44485
1.25775
1.07802
0.903978
0.734302
0.56794
0.404014
0.241759
0.0804791
2.62659
2.33655
2.08897
1.87106
1.67351
1.49001
1.31636
1.14979
0.988412
0.830913
0.676338
0.523955
0.373171
0.223478
0.0744229
2.27347
2.02589
1.82215
1.64442
1.48194
1.32856
1.18079
1.03663
0.894907
0.754911
0.616173
0.478363
0.341229
0.204557
0.068156
1.85019
1.67136
1.52931
1.4025
1.28126
1.16149
1.04159
0.921008
0.799664
0.67764
0.555069
0.432089
0.30882
0.185362
0.0617988
1.3466
1.28002
1.22119
1.15499
1.07908
0.994539
0.903043
0.806137
0.70509
0.600904
0.494366
0.386097
0.276595
0.166271
0.0554746
0.777786
0.880909
0.920438
0.917155
0.885518
0.834528
0.769894
0.695396
0.613644
0.526512
0.435387
0.341332
0.245189
0.147647
0.0493031
9.93026
9.79042
9.64941
9.50634
9.36011
9.20927
9.05183
8.88488
8.70393
8.50152
8.2639
7.96176
7.51871
6.6819
4.40625
9.90604
9.71724
9.52567
9.32924
9.12535
8.91066
8.68056
8.42832
8.14363
7.80951
7.39596
6.84513
6.03511
4.69166
2.21522
9.88244
9.64597
9.40531
9.1573
8.89808
8.62274
8.32463
7.99429
7.61762
7.17262
6.62332
5.90845
4.92192
3.48819
1.38113
9.85978
9.5776
9.29006
8.99312
8.68198
8.35062
7.99107
7.59239
7.13903
6.60815
5.96563
5.1604
4.11924
2.75229
1.00201
9.83833
9.51295
9.18132
8.83879
8.47993
8.09806
7.68466
7.22846
6.71424
6.12118
5.42091
4.57616
3.5428
2.28257
0.799103
9.81829
9.45264
9.08014
8.69579
8.29383
7.86738
7.40795
6.90479
6.34419
5.70864
4.9765
4.12287
3.12389
1.96787
0.675873
9.7998
9.39707
8.98719
8.56501
8.12473
7.6596
7.16159
6.62102
6.02615
5.36315
4.61645
3.77052
2.81403
1.74757
0.594135
9.78294
9.34645
8.90278
8.4468
7.97287
7.47463
6.94479
6.37492
5.75543
5.07578
4.32529
3.49492
2.58053
1.58768
0.536584
9.76771
9.30083
8.82692
8.34104
7.83788
7.31161
6.75578
6.16327
5.52647
4.83759
4.08959
3.27766
2.40152
1.46822
0.494361
9.7541
9.26008
8.75935
8.24727
7.71894
7.16911
6.59222
5.98238
5.33366
4.64045
3.89829
3.10498
2.26219
1.37691
0.462463
9.74202
9.22398
8.69967
8.1648
7.61491
7.0454
6.45152
5.82849
5.17173
4.4773
3.74248
2.96668
2.15235
1.30588
0.437836
9.73139
9.19224
8.64733
8.09273
7.5245
6.93861
6.33107
5.69801
5.03596
4.34218
3.61514
2.85512
2.06482
1.24981
0.418507
9.72208
9.16451
8.6017
8.03014
7.44635
6.84686
6.22832
5.58765
4.92223
4.23016
3.51069
2.76457
1.99445
1.20507
0.403142
9.71399
9.14041
8.56213
7.97605
7.3791
6.76832
6.14094
5.49449
4.82698
4.13716
3.42474
2.6907
1.93746
1.16903
0.390804
9.70699
9.11957
8.52799
7.9295
7.32144
6.70131
6.0668
5.41594
4.74723
4.05986
3.35381
2.63014
1.89102
1.13979
0.380817
9.70095
9.10163
8.49864
7.88958
7.27218
6.64429
6.00401
5.34977
4.68045
3.99551
3.29512
2.58031
1.85298
1.11592
0.37268
9.69577
9.08623
8.47349
7.85546
7.23019
6.59586
5.95091
5.29408
4.62451
3.94188
3.24645
2.53917
1.82169
1.09634
0.366015
9.69133
9.07307
8.45201
7.82638
7.19449
6.55481
5.90606
5.24722
4.57764
3.89714
3.20601
2.50512
1.79587
1.08022
0.360532
9.68755
9.06183
8.43371
7.80164
7.16419
6.52007
5.86821
5.20781
4.53837
3.85978
3.17235
2.47686
1.7745
1.0669
0.356006
9.68432
9.05227
8.41815
7.78064
7.13851
6.49069
5.8363
5.17467
4.50544
3.82855
3.1443
2.45336
1.75676
1.05586
0.352259
9.68158
9.04415
8.40495
7.76283
7.11678
6.46589
5.80941
5.14682
4.47783
3.80242
3.12088
2.43379
1.74202
1.04669
0.349149
9.67926
9.03727
8.39376
7.74777
7.09842
6.44496
5.78676
5.12341
4.45467
3.78056
3.10132
2.41747
1.72974
1.03907
0.346563
9.67729
9.03144
8.38429
7.73503
7.08292
6.42731
5.7677
5.10374
4.43525
3.76225
3.08497
2.40385
1.7195
1.03271
0.344409
9.67563
9.02651
8.37629
7.72427
7.06984
6.41244
5.75166
5.08721
4.41895
3.74691
3.07129
2.39246
1.71095
1.02741
0.342613
9.67422
9.02235
8.36953
7.7152
7.05881
6.39992
5.73817
5.07332
4.40528
3.73406
3.05984
2.38295
1.70381
1.02298
0.341113
9.67303
9.01883
8.36384
7.70755
7.04952
6.38938
5.72683
5.06166
4.3938
3.72329
3.05026
2.37498
1.69784
1.01928
0.33986
9.67203
9.01587
8.35904
7.70111
7.04171
6.38052
5.71729
5.05187
4.38418
3.71426
3.04223
2.36832
1.69284
1.01619
0.338813
9.67119
9.01338
8.35499
7.69569
7.03513
6.37307
5.70929
5.04365
4.37611
3.70669
3.0355
2.36274
1.68866
1.0136
0.337937
9.67048
9.01128
8.35159
7.69113
7.02961
6.36681
5.70257
5.03676
4.36934
3.70035
3.02987
2.35807
1.68516
1.01144
0.337204
9.66988
9.00952
8.34874
7.6873
7.02497
6.36156
5.69693
5.03098
4.36367
3.69504
3.02515
2.35416
1.68224
1.00963
0.336592
9.66938
9.00804
8.34634
7.68409
7.02108
6.35716
5.69221
5.02614
4.35893
3.6906
3.02121
2.35089
1.6798
1.00812
0.33608
9.66897
9.0068
8.34434
7.6814
7.01783
6.35348
5.68826
5.02209
4.35496
3.68689
3.01792
2.34816
1.67776
1.00686
0.335653
9.66862
9.00576
8.34266
7.67916
7.01511
6.35041
5.68496
5.01872
4.35165
3.68379
3.01517
2.34589
1.67605
1.0058
0.335297
9.66832
9.0049
8.34127
7.67729
7.01285
6.34785
5.68222
5.01591
4.3489
3.68122
3.01289
2.344
1.67464
1.00493
0.335001
9.66808
9.00419
8.34011
7.67574
7.01097
6.34573
5.67995
5.01358
4.34663
3.67909
3.01101
2.34244
1.67347
1.00421
0.334757
9.66788
9.0036
8.33916
7.67446
7.00943
6.34398
5.67808
5.01167
4.34475
3.67734
3.00945
2.34115
1.67251
1.00361
0.334556
9.66772
9.00312
8.33838
7.67342
7.00817
6.34256
5.67655
5.01011
4.34323
3.67591
3.00819
2.34011
1.67173
1.00313
0.334392
9.66759
9.00273
8.33776
7.67259
7.00716
6.34142
5.67533
5.00886
4.342
3.67476
3.00717
2.33927
1.6711
1.00274
0.334261
9.66749
9.00243
8.33727
7.67193
7.00637
6.34052
5.67437
5.00787
4.34104
3.67386
3.00637
2.33861
1.67061
1.00244
0.334157
9.66741
9.0022
8.3369
7.67143
7.00576
6.33984
5.67364
5.00713
4.34031
3.67318
3.00577
2.33811
1.67023
1.0022
0.334079
9.66736
9.00204
8.33663
7.67108
7.00534
6.33936
5.67312
5.0066
4.33979
3.6727
3.00534
2.33775
1.66997
1.00204
0.334024
9.66732
9.00194
8.33647
7.67086
7.00507
6.33906
5.6728
5.00627
4.33947
3.6724
3.00508
2.33753
1.6698
1.00194
0.333989
9.66731
9.00189
8.3364
7.67077
7.00496
6.33894
5.67267
5.00613
4.33933
3.67227
3.00496
2.33744
1.66974
1.0019
0.333975
9.66731
9.00191
8.33642
7.6708
7.005
6.33898
5.67271
5.00618
4.33938
3.67232
3.005
2.33747
1.66976
1.00191
0.33398
9.66734
9.00198
8.33654
7.67096
7.00519
6.3392
5.67294
5.00642
4.33961
3.67253
3.00519
2.33763
1.66988
1.00198
0.334005
9.66738
9.00211
8.33676
7.67125
7.00554
6.33959
5.67336
5.00685
4.34003
3.67293
3.00554
2.33792
1.67009
1.00212
0.33405
9.66745
9.00231
8.33707
7.67167
7.00605
6.34017
5.67399
5.00749
4.34066
3.67351
3.00606
2.33835
1.67041
1.00232
0.334117
9.66754
9.00258
8.33751
7.67225
7.00675
6.34096
5.67484
5.00835
4.34151
3.6743
3.00676
2.33893
1.67085
1.00258
0.334207
9.66766
9.00292
8.33806
7.673
7.00766
6.34198
5.67593
5.00947
4.3426
3.67532
3.00767
2.33968
1.67141
1.00293
0.334325
9.6678
9.00336
8.33877
7.67394
7.00879
6.34326
5.6773
5.01088
4.34398
3.67661
3.00881
2.34062
1.67211
1.00337
0.334472
9.66798
9.00389
8.33963
7.6751
7.01019
6.34485
5.679
5.01261
4.34568
3.6782
3.01022
2.34179
1.67298
1.0039
0.334654
9.6682
9.00454
8.34069
7.67651
7.0119
6.34678
5.68107
5.01473
4.34775
3.68014
3.01194
2.34321
1.67405
1.00456
0.334877
9.66847
9.00533
8.34196
7.67822
7.01397
6.34912
5.68358
5.0173
4.35026
3.68249
3.01402
2.34493
1.67534
1.00536
0.335147
9.66879
9.00628
8.3435
7.68028
7.01646
6.35194
5.6866
5.02039
4.35329
3.68532
3.01653
2.34701
1.67689
1.00632
0.335472
9.66918
9.00742
8.34534
7.68275
7.01945
6.35532
5.69022
5.0241
4.35693
3.68872
3.01954
2.34951
1.67876
1.00747
0.335862
9.66964
9.00878
8.34755
7.6857
7.02303
6.35936
5.69456
5.02854
4.36128
3.69279
3.02315
2.3525
1.68099
1.00886
0.33633
9.67019
9.01041
8.35018
7.68922
7.0273
6.36419
5.69974
5.03385
4.36648
3.69766
3.02747
2.35607
1.68367
1.01051
0.336891
9.67084
9.01234
8.35331
7.69342
7.03238
6.36994
5.70592
5.04018
4.37269
3.70347
3.03263
2.36035
1.68687
1.01249
0.337561
9.67162
9.01464
8.35704
7.69842
7.03844
6.3768
5.71328
5.04773
4.3801
3.71041
3.0388
2.36546
1.6907
1.01486
0.338362
9.67254
9.01738
8.36148
7.70437
7.04565
6.38497
5.72206
5.05673
4.38894
3.71869
3.04615
2.37156
1.69526
1.01769
0.339319
9.67364
9.02063
8.36675
7.71144
7.05423
6.39469
5.7325
5.06746
4.39947
3.72857
3.05493
2.37884
1.70072
1.02107
0.340463
9.67495
9.02449
8.373
7.71984
7.06441
6.40624
5.74493
5.08022
4.41202
3.74035
3.0654
2.38754
1.70724
1.0251
0.34183
9.67649
9.02907
8.38042
7.7298
7.07651
6.41997
5.75971
5.09543
4.42697
3.75439
3.07791
2.39793
1.71503
1.02993
0.343465
9.67832
9.03448
8.38922
7.74161
7.09087
6.43628
5.77729
5.11352
4.4448
3.77115
3.09284
2.41035
1.72435
1.03571
0.345421
9.68049
9.0409
8.39963
7.75561
7.10789
6.45564
5.79818
5.13505
4.46604
3.79115
3.11068
2.4252
1.7355
1.04262
0.347765
9.68305
9.04848
8.41194
7.77218
7.12807
6.47861
5.823
5.16068
4.49135
3.81502
3.13201
2.44297
1.74886
1.05092
0.350576
9.68607
9.05743
8.42649
7.79178
7.15196
6.50585
5.85249
5.19117
4.52153
3.84352
3.15751
2.46426
1.76489
1.06087
0.353952
9.68963
9.06798
8.44365
7.81492
7.18022
6.53813
5.88749
5.22745
4.55751
3.87758
3.18806
2.48979
1.78413
1.07284
0.358014
9.69382
9.0804
8.46387
7.84222
7.2136
6.57634
5.92903
5.27061
4.60042
3.91831
3.22466
2.52047
1.80729
1.08726
0.362909
9.69873
9.09498
8.48763
7.87435
7.25298
6.62152
5.97828
5.32193
4.65161
3.96704
3.26859
2.55737
1.83522
1.10467
0.368826
9.70448
9.11206
8.5155
7.91212
7.29936
6.67488
6.03663
5.38294
4.71269
4.0254
3.32139
2.60187
1.86898
1.12576
0.375998
9.7112
9.13202
8.54811
7.95638
7.35388
6.73781
6.1057
5.45546
4.7856
4.09537
3.38496
2.65565
1.90991
1.15138
0.384725
9.71902
9.15526
8.58614
8.00814
7.41781
6.81188
6.18734
5.5416
4.87265
4.17936
3.46165
2.72083
1.95971
1.18265
0.39539
9.72808
9.18222
8.63034
8.06844
7.49256
6.89886
6.28371
5.64384
4.97662
4.28029
3.55439
2.80011
2.02058
1.22101
0.408495
9.73853
9.21337
8.68151
8.13845
7.57969
7.00074
6.39723
5.76509
5.10078
4.40174
3.66684
2.89693
2.09537
1.26835
0.42471
9.75054
9.24916
8.74044
8.21936
7.68084
7.11968
6.53064
5.90865
5.24905
4.5481
3.80359
3.01571
2.18784
1.32722
0.44494
9.76423
9.29007
8.80794
8.31238
7.7977
7.25795
6.68693
6.07833
5.42604
4.72469
3.97045
3.16225
2.30305
1.40114
0.470444
9.77976
9.33649
8.88476
8.41867
7.93198
7.41794
6.8693
6.27833
5.63709
4.938
4.17479
3.34419
2.44793
1.49503
0.50303
9.79723
9.38879
8.97154
8.53927
8.08523
7.60194
7.08105
6.51323
5.88832
5.19581
4.42593
3.57171
2.63214
1.61606
0.545381
9.81671
9.4472
9.06876
8.67499
8.25878
7.81205
7.32537
6.78776
6.18648
5.50733
4.73562
3.85851
2.86948
1.775
0.601679
9.83823
9.51181
9.17661
8.82626
8.45352
8.04988
7.60506
7.10648
6.5387
5.88313
5.11849
4.223
3.18003
1.98868
0.678834
9.86173
9.5825
9.29499
8.99309
8.66971
8.31629
7.92207
7.47325
6.95187
6.33465
5.59219
4.68991
3.5936
2.28465
0.789192
9.88711
9.65893
9.42335
9.17481
8.90675
8.61101
8.27698
7.89038
7.43157
6.87312
6.17687
5.29154
4.15482
2.71014
0.957131
9.91417
9.74051
9.56069
9.37006
9.163
8.93231
8.66837
8.35764
7.98045
7.50726
6.89282
6.06773
4.92987
3.34973
1.23705
9.9426
9.82634
9.70554
9.57672
9.43563
9.27669
9.09222
8.87102
8.59596
8.23945
7.75503
7.0611
6.01202
4.35913
1.76793
9.97206
9.91532
9.85595
9.79189
9.72062
9.63877
9.54155
9.42179
9.26799
9.06045
8.76268
8.30104
7.51345
6.0201
2.9548
10.0021
10.0061
10.0096
10.0121
10.013
10.0115
10.0065
9.99615
9.97729
9.94405
9.88408
9.7673
9.50495
8.77264
6.11688
10.0323
10.0973
10.1639
10.2333
10.3069
10.3866
10.4751
10.5764
10.6965
10.8461
11.0449
11.3346
11.8227
12.8609
15.9303
10.0621
10.1874
10.3163
10.4516
10.5965
10.7556
10.9349
11.1434
11.3953
11.7141
12.1424
12.764
13.7585
15.5384
19.0293
10.0911
10.275
10.4643
10.6631
10.8764
11.1105
11.3744
11.6803
12.0475
12.5059
13.1056
13.9343
15.1488
17.0275
20.011
0.319819
0.57334
0.683977
0.725124
0.725816
0.700347
0.656873
0.600522
0.534743
0.461971
0.384002
0.302208
0.217677
0.13131
0.0438851
0.171619
0.392952
0.517264
0.578635
0.598792
0.59086
0.563061
0.520815
0.467864
0.406902
0.339941
0.268538
0.19394
0.117191
0.0391989
0.108073
0.279934
0.394253
0.46076
0.491269
0.495163
0.479277
0.448536
0.406543
0.355995
0.298962
0.237083
0.171695
0.103933
0.0347944
0.0752805
0.206874
0.304442
0.367879
0.402222
0.413198
0.405804
0.384067
0.35116
0.309586
0.261344
0.208061
0.151099
0.0916291
0.0307024
0.055659
0.15744
0.238331
0.295197
0.329398
0.343985
0.342286
0.327349
0.301792
0.267806
0.227224
0.181593
0.132241
0.0803365
0.0269421
0.0426601
0.12251
0.188902
0.238252
0.270192
0.286078
0.287957
0.278005
0.258274
0.230603
0.196608
0.157707
0.115154
0.0700777
0.0235218
0.03346
0.0969235
0.151306
0.193394
0.222131
0.237896
0.241841
0.235448
0.220266
0.197788
0.169398
0.136356
0.0998176
0.0608457
0.0204398
0.02666
0.0776425
0.122247
0.157806
0.183077
0.197919
0.202903
0.198991
0.187323
0.169079
0.145415
0.117433
0.0861701
0.0526088
0.0176864
0.0214829
0.0627902
0.0994667
0.129361
0.151263
0.164786
0.170139
0.16792
0.158944
0.14413
0.124429
0.100786
0.0741179
0.0453164
0.0152458
0.0174572
0.0511531
0.081396
0.106463
0.125268
0.137324
0.142632
0.141539
0.134618
0.122574
0.106181
0.0862374
0.0635468
0.038905
0.0130975
0.0142775
0.0419133
0.0669185
0.0879138
0.103957
0.114547
0.119569
0.119203
0.113847
0.104037
0.0903965
0.0735959
0.0543301
0.0333025
0.0112182
0.0117358
0.0345
0.055225
0.0728027
0.0864313
0.0956364
0.100245
0.100333
0.0961687
0.0881597
0.0768054
0.0626657
0.0463364
0.0284334
0.0095832
0.0096852
0.0285025
0.0457167
0.0604331
0.0719768
0.0799169
0.0840587
0.0844132
0.0811594
0.0746041
0.0651477
0.0532553
0.0394349
0.0242218
0.00816769
0.00801865
0.0236178
0.0379423
0.0502661
0.0600238
0.0668344
0.0705018
0.0709988
0.0684418
0.0630624
0.0551811
0.0451832
0.0335001
0.0205941
0.00694739
0.00665624
0.0196181
0.0315569
0.0418807
0.0501169
0.0559339
0.0591458
0.0597045
0.0576833
0.0532576
0.0466838
0.0382809
0.0284141
0.0174806
0.00589929
0.00553722
0.0163288
0.0262927
0.0349444
0.0418894
0.0468419
0.0496318
0.050201
0.0485941
0.0449438
0.0394561
0.0323949
0.0240684
0.0148168
0.00500198
0.00461459
0.0136139
0.0219395
0.029193
0.035045
0.0392513
0.0416592
0.0422082
0.0409233
0.0379055
0.0333207
0.0273872
0.0203649
0.0125441
0.00423594
0.00385154
0.0113668
0.0183306
0.0244144
0.0293433
0.032909
0.0349772
0.0354886
0.0344554
0.0319551
0.0281214
0.0231354
0.0172158
0.0106095
0.00358356
0.00321889
0.00950244
0.0153327
0.0204377
0.0245878
0.0276062
0.0293759
0.0298412
0.0290061
0.0269302
0.0237221
0.0195317
0.0145432
0.00896632
0.0030292
0.00269332
0.0079528
0.0128382
0.0171239
0.0206178
0.0231704
0.0246802
0.0250964
0.0244181
0.0226914
0.0200045
0.0164822
0.0122791
0.00757318
0.00255901
0.00225603
0.00666287
0.01076
0.0143597
0.0173014
0.0194585
0.0207436
0.0211114
0.0205579
0.019119
0.0168669
0.0139052
0.010364
0.00639404
0.00216092
0.00189176
0.00558799
0.00902698
0.0120524
0.0145297
0.0163518
0.017444
0.017766
0.0173124
0.0161113
0.0142219
0.0117305
0.00874652
0.0053976
0.00182441
0.00158811
0.00469168
0.00758106
0.0101258
0.0122128
0.0137518
0.0146789
0.0149589
0.0145857
0.0135814
0.0119947
0.00989768
0.00738241
0.00455683
0.00154041
0.00133489
0.00394406
0.00637442
0.00851679
0.0102762
0.0115765
0.0123631
0.0126054
0.0122971
0.0114558
0.0101218
0.00835523
0.00623371
0.00384855
0.00130111
0.00112376
0.00332056
0.00536771
0.00717365
0.00865851
0.00975783
0.0104252
0.0106341
0.0103784
0.00967233
0.00854908
0.0070592
0.00526804
0.00325291
0.00109983
0.000947835
0.00280095
0.00452846
0.00605338
0.00730842
0.008239
0.00880562
0.00898534
0.00877247
0.00817843
0.0072309
0.00597231
0.00445786
0.00275303
0.000930883
0.000801452
0.00236853
0.00382985
0.00512048
0.00618356
0.00697282
0.00745459
0.00760909
0.0074311
0.00692991
0.00612864
0.00506305
0.00377983
0.00233459
0.000789444
0.000679938
0.00200953
0.00324972
0.00434554
0.00524879
0.00592011
0.00633074
0.00646365
0.00631411
0.00588971
0.00520988