/*--------------------------------*- C++ -*----------------------------------*\
| =========                 |                                                 |
| \\      /  F ield         | OpenFOAM: The Open Source CFD Toolbox           |
|  \\    /   O peration     | Version:  5.x                                   |
|   \\  /    A nd           | Web:      www.OpenFOAM.org                      |
|    \\/     M anipulation  |                                                 |
\*---------------------------------------------------------------------------*/
FoamFile
{
    version     2.0;
    format      ascii;
    class       volScalarField;
    location    "14.2";
    object      gradTx;
}
// * * * * * * * * * * * * * * * * * * * * * * * * * * * * * * * * * * * * * //

dimensions      [0 -1 0 1 0 0 0];

internalField   nonuniform List<scalar> 
6300
(
5.65953
5.94587
6.51429
7.3559
8.45646
9.79532
11.3443
13.0666
14.916
16.8367
18.7645
20.6291
22.3579
23.8813
25.1385
5.37262
5.66319
6.24049
7.09635
8.21754
9.58457
11.1704
12.9389
14.844
16.8289
18.8271
20.7642
22.5626
24.1467
25.4505
4.79455
5.09325
5.68756
6.57091
7.73219
9.15445
10.8131
12.674
14.6915
16.8072
18.95
21.0374
22.9808
24.6919
26.0926
3.91721
4.22708
4.84502
5.76693
6.98526
8.48732
10.253
12.2518
14.4401
16.7579
19.1275
21.454
23.6305
25.5468
27.1033
2.72945
3.05227
3.69794
4.66596
5.95401
7.55598
9.45901
11.6395
14.0585
16.6561
19.3473
22.02
24.5396
26.7606
28.5475
1.2183
1.55403
2.22795
3.24438
4.60826
6.32299
8.38692
10.7882
13.4977
16.4601
19.5848
22.7385
25.7467
28.4079
30.5259
-0.629144
-0.282936
0.414897
1.47477
2.91109
4.74021
6.97686
9.628
12.6833
16.1013
19.7925
23.6017
27.3
30.5976
33.1936
-2.82333
-2.47207
-1.76074
-0.671827
0.820536
2.74932
5.15172
8.06305
11.5054
15.4686
19.8813
24.5754
29.2533
33.4881
36.7922
-5.36929
-5.02179
-4.31451
-3.22241
-1.70699
0.28425
2.81704
5.96644
9.80615
14.3857
19.6883
25.5643
31.6491
37.3086
41.711
-8.26324
-7.9318
-7.25361
-6.19685
-4.71087
-2.72293
-0.134801
3.17891
7.36641
12.5792
18.9212
26.3438
34.4694
42.3854
48.6106
-11.4891
-11.1891
-10.5718
-9.60102
-8.21722
-6.33081
-3.81278
-0.482953
3.90082
9.64274
17.0728
26.4195
37.4987
49.1521
58.6932
-15.0155
-14.764
-14.2439
-13.4187
-12.2267
-10.5708
-8.30306
-5.1993
-0.923467
5.01753
13.3073
24.7619
39.9529
58.03
74.3636
-18.794
-18.6079
-18.2215
-17.6037
-16.7003
-15.4232
-13.6298
-11.0882
-7.41344
-1.95698
6.37614
19.367
39.5201
68.6501
101.072
-22.7588
-22.6525
-22.431
-22.0747
-21.5482
-20.7922
-19.7053
-18.1106
-15.6856
-11.8087
-5.21339
6.8091
30.1091
75.9771
153.319
-26.8304
-26.8127
-26.7758
-26.716
-26.6261
-26.4923
-26.2888
-25.9639
-25.41
-24.3794
-22.2307
-17.0271
-1.87094
51.8282
277.854
26.0297
26.5805
26.8881
26.9545
26.79
26.4111
25.8385
25.0955
24.206
23.193
22.0783
20.881
19.6183
18.3044
16.9519
15.5709
14.1703
12.7573
11.3381
9.91804
8.50168
7.09292
5.69512
4.31115
2.94342
1.59394
0.264337
-1.04413
-2.33055
-3.59433
-4.83517
-6.05304
-7.24809
-8.4206
-9.57091
-10.6993
-11.8061
-12.8912
-13.9546
-14.996
-16.015
-17.0112
-17.9842
-18.9339
-19.8603
-20.764
-21.6455
-22.5058
-23.3462
-24.1677
-24.9713
-25.7578
-26.5273
-27.2797
-28.0142
-28.7297
-29.4245
-30.0971
-30.7457
-31.3687
-31.9647
-32.5323
-33.0707
-33.5785
-34.0544
-34.4965
-34.9023
-35.2683
-35.5901
-35.8623
-36.0789
-36.233
-36.3177
-36.3263
-36.2524
-36.0907
-35.8371
-35.4887
-35.0444
-34.5047
-33.8716
-33.1489
-32.3419
-31.4577
-30.5049
-29.4938
-28.4359
-27.3443
-26.2328
-25.1156
26.3692
26.93
27.2345
27.2864
27.0982
26.6893
26.0833
25.306
24.383
23.3391
22.1965
20.9749
19.6913
18.3598
16.9924
15.5989
14.1878
12.7658
11.339
9.91244
8.49048
7.07691
5.67501
4.28758
2.91698
1.56519
0.233798
-1.07596
-2.36321
-3.62739
-4.86828
-6.0859
-7.28051
-8.45252
-9.60236
-10.7305
-11.8371
-12.9224
-13.9862
-15.0281
-16.0477
-17.0443
-18.0176
-18.9671
-19.893
-20.7956
-21.6756
-22.5344
-23.3731
-24.1931
-24.9957
-25.7818
-26.5516
-27.3051
-28.0413
-28.7589
-29.4562
-30.1313
-30.7822
-31.4072
-32.0049
-32.5742
-33.1142
-33.624
-34.1026
-34.5484
-34.9591
-35.3315
-35.661
-35.9421
-36.1683
-36.3324
-36.4269
-36.4445
-36.3784
-36.2227
-35.973
-35.6263
-35.1814
-34.6387
-34.0002
-33.2697
-32.4527
-31.5561
-30.5886
-29.5606
-28.4842
-27.3726
-26.2405
-25.1029
27.0679
27.6481
27.9441
27.9631
27.7235
27.2506
26.5743
25.7254
24.7338
23.6267
22.4279
21.1577
19.8327
18.4664
17.0699
15.6521
14.2204
12.781
11.3393
9.89994
8.46694
7.04389
5.63387
4.23959
2.86331
1.50693
0.172009
-1.14029
-2.42913
-3.69404
-4.9349
-6.15189
-7.34548
-8.5163
-9.66506
-10.7924
-11.8988
-12.9844
-14.0491
-15.0923
-16.1132
-17.111
-18.0849
-19.0343
-19.9589
-20.8593
-21.7363
-22.5915
-23.4265
-24.2434
-25.0437
-25.8288
-26.5993
-27.355
-28.0949
-28.8171
-29.5196
-30.1999
-30.8556
-31.4847
-32.0858
-32.6579
-33.2007
-33.714
-34.1975
-34.6504
-35.0709
-35.4559
-35.8011
-36.1005
-36.3467
-36.5316
-36.6465
-36.6829
-36.6328
-36.4896
-36.2481
-35.905
-35.4589
-34.9101
-34.2608
-33.5148
-32.6776
-31.756
-30.7589
-29.6969
-28.5826
-27.4303
-26.2559
-25.0762
28.1676
28.775
29.0515
29.0118
28.6839
28.1043
27.3131
26.3497
25.2502
24.0457
22.7618
21.419
20.0331
18.6162
17.1777
15.7249
14.2637
12.7992
11.336
9.87798
8.42884
6.99185
5.56989
4.1655
2.78082
1.41767
0.0775305
-1.23847
-2.52957
-3.79536
-5.03589
-6.25157
-7.4432
-8.6118
-9.75852
-10.8844
-11.9903
-13.0765
-14.1427
-15.1883
-16.2119
-17.2121
-18.1874
-19.1367
-20.0596
-20.9564
-21.8283
-22.6773
-23.5059
-24.3171
-25.1133
-25.8966
-26.668
-27.4274
-28.1733
-28.9035
-29.6147
-30.3035
-30.9668
-31.6021
-32.2078
-32.7834
-33.3293
-33.8466
-34.3361
-34.7985
-35.2331
-35.6373
-36.0068
-36.3348
-36.6129
-36.8311
-36.9787
-37.0452
-37.0208
-36.8975
-36.669
-36.3316
-35.8837
-35.3257
-34.6602
-33.891
-33.0234
-32.0643
-31.0224
-29.9082
-28.7352
-27.5192
-26.2785
-25.0326
29.7388
30.3775
30.6137
30.4747
30.006
29.2621
28.2993
27.1694
25.9172
24.5783
23.18
21.7418
20.2776
18.7967
17.3057
15.8093
14.3114
12.8154
11.3248
9.84295
8.373
6.91793
5.48042
4.06283
2.66718
1.29516
-0.0518085
-1.37261
-2.66648
-3.93311
-5.17267
-6.38589
-7.57404
-8.73876
-9.8819
-11.0052
-12.1101
-13.1971
-14.266
-15.3157
-16.3441
-17.3487
-18.327
-19.277
-20.1977
-21.0891
-21.9529
-22.792
-23.6103
-24.4119
-25.2012
-25.9811
-26.7537
-27.5187
-28.2742
-29.0167
-29.7415
-30.4435
-31.118
-31.7618
-32.3728
-32.9513
-33.4989
-34.0185
-34.5134
-34.9864
-35.4385
-35.8684
-36.2716
-36.6407
-36.9649
-37.2318
-37.4273
-37.5379
-37.551
-37.4563
-37.2463
-36.9168
-36.4663
-35.8959
-35.2085
-34.4083
-33.5006
-32.4916
-31.3893
-30.204
-28.9494
-27.6435
-26.308
-24.9673
31.8918
32.559
32.7153
32.4118
31.7235
30.7345
29.5251
28.1648
26.7084
25.1961
23.6549
22.1016
20.5456
18.9915
17.4411
15.8955
14.3558
12.8235
11.3008
9.79051
8.29547
6.81849
5.36208
3.92842
2.51935
1.13644
-0.218925
-1.54559
-2.84269
-4.10986
-5.34738
-6.55632
-7.73858
-8.89673
-10.0337
-11.1525
-12.2554
-13.3436
-14.417
-15.4736
-16.5103
-17.523
-18.5072
-19.4595
-20.3776
-21.2614
-22.1129
-22.9366
-23.7382
-24.5245
-25.302
-26.0761
-26.8498
-27.6233
-28.3936
-29.1552
-29.9008
-30.6225
-31.3133
-31.968
-32.5844
-33.1632
-33.7082
-34.2255
-34.722
-35.2039
-35.6754
-36.1373
-36.5853
-37.0105
-37.3992
-37.7346
-37.9979
-38.1705
-38.2359
-38.1805
-37.9954
-37.6758
-37.2213
-36.6341
-35.9187
-35.08
-34.1231
-33.0529
-31.8754
-30.599
-29.2372
-27.8101
-26.3448
-24.8733
34.797
35.4754
35.4786
34.9023
33.8736
32.5236
30.9678
29.2979
27.5796
25.8548
24.1467
22.4649
20.8106
19.1803
17.5692
15.973
14.3892
12.8173
11.2587
9.71583
8.19171
6.68922
5.2108
3.75843
2.33369
0.937944
-0.427467
-1.7612
-3.06206
-4.32935
-5.56325
-6.76515
-7.93779
-9.08511
-10.2118
-11.3226
-12.4217
-13.5114
-14.5919
-15.6602
-16.7111
-17.7379
-18.7332
-19.6909
-20.6067
-21.4798
-22.3129
-23.1125
-23.8878
-24.6493
-25.4076
-26.1714
-26.946
-27.732
-28.5251
-29.3164
-30.0941
-30.8457
-31.5601
-32.2292
-32.8496
-33.4232
-33.9572
-34.4622
-34.951
-35.4358
-35.926
-36.4256
-36.9314
-37.4323
-37.9099
-38.3407
-38.6985
-38.9572
-39.094
-39.0911
-38.9375
-38.6288
-38.1667
-37.5567
-36.806
-35.9215
-34.9082
-33.7684
-32.5034
-31.1166
-29.6185
-28.0313
-26.39
-24.7398
38.7221
39.3633
39.0756
38.0434
36.4861
34.6083
32.5741
30.5003
28.4595
26.4889
24.6
22.7881
21.0404
19.3411
17.6755
16.0324
14.4051
12.7917
11.1936
9.61392
8.05661
6.52507
5.02183
3.54852
2.10616
0.695654
-0.681718
-2.0242
-3.32981
-4.59694
-5.82519
-7.01609
-8.17346
-9.30316
-10.4126
-11.5096
-12.6013
-13.6926
-14.784
-15.8715
-16.9466
-17.9979
-19.0134
-19.9823
-20.8971
-21.7554
-22.5609
-23.3234
-24.057
-24.7785
-25.5049
-26.2507
-27.0253
-27.8304
-28.659
-29.4967
-30.3245
-31.1222
-31.8718
-32.5602
-33.1818
-33.7401
-34.2473
-34.7218
-35.1853
-35.6596
-36.1626
-36.7045
-37.2841
-37.8871
-38.4876
-39.0515
-39.5411
-39.9191
-40.153
-40.2184
-40.1023
-39.8022
-39.3247
-38.6814
-37.8854
-36.9481
-35.8749
-34.6639
-33.3064
-31.7939
-30.128
-28.3301
-26.4476
-24.5497
44.1029
44.588
43.7442
41.9401
39.5595
36.9177
34.2372
31.6545
29.2379
27.005
24.9418
23.0185
21.2
19.4529
17.749
16.0685
14.4008
12.744
11.1015
9.47961
7.8842
6.31998
4.78961
3.29391
1.83262
0.405559
-0.986281
-2.34037
-3.65301
-4.92054
-6.1409
-7.31532
-8.44891
-9.55038
-10.6311
-11.704
-12.7816
-13.8733
-14.9818
-16.1007
-17.216
-18.3092
-19.3604
-20.3514
-21.2687
-22.1068
-22.8707
-23.5754
-24.2433
-24.9005
-25.5741
-26.2884
-27.0604
-27.8946
-28.7795
-29.6909
-30.5978
-31.4678
-32.2714
-32.9868
-33.6046
-34.1303
-34.5842
-34.9968
-35.4038
-35.8417
-36.3428
-36.9287
-37.6027
-38.3452
-39.1175
-39.8689
-40.544
-41.0883
-41.4539
-41.6068
-41.5315
-41.2308
-40.7211
-40.0254
-39.1681
-38.1697
-37.0399
-35.77
-34.3321
-32.6919
-30.8274
-28.7502
-26.5273
-24.2748
51.6895
51.7256
49.7947
46.6659
43.0084
39.2825
35.7588
32.5693
29.7515
27.2763
25.0817
23.0974
21.2566
19.502
17.7886
16.0858
14.3806
12.6752
10.9798
9.30684
7.66668
6.06599
4.50729
2.98961
1.50968
0.0646589
-1.34527
-2.71627
-4.04122
-5.31206
-6.52277
-7.6733
-8.77059
-9.8274
-10.8609
-11.8915
-12.9414
-14.0297
-15.1645
-16.3349
-17.5172
-18.6808
-19.794
-20.8264
-21.754
-22.5649
-23.2655
-23.8804
-24.4446
-24.9986
-25.5844
-26.2426
-27.0057
-27.8856
-28.8614
-29.8912
-30.9241
-31.9086
-32.7974
-33.5538
-34.1596
-34.6235
-34.9802
-35.2794
-35.5774
-35.9325
-36.4004
-37.0255
-37.8223
-38.7601
-39.7769
-40.7956
-41.735
-42.514
-43.0608
-43.3234
-43.2845
-42.96
-42.3849
-41.6016
-40.6535
-39.5803
-38.4061
-37.1177
-35.6486
-33.9124
-31.8329
-29.3795
-26.6494
-23.862
62.8727
61.6948
57.5692
52.1516
46.5545
41.3553
36.7983
32.9484
29.7712
27.1429
24.9186
22.969
21.1884
19.4917
17.8124
16.1061
14.3602
12.5916
10.8253
9.08663
7.39209
5.75135
4.16571
2.63083
1.13637
-0.326866
-1.7604
-3.15853
-4.50737
-5.79018
-6.99128
-8.1079
-9.15052
-10.138
-11.0946
-12.0512
-13.0457
-14.1191
-15.2956
-16.552
-17.8449
-19.1249
-20.3436
-21.452
-22.4073
-23.1814
-23.7835
-24.2578
-24.6604
-25.0507
-25.49
-26.0452
-26.7827
-27.7379
-28.8652
-30.0868
-31.3197
-32.4867
-33.5136
-34.3374
-34.9184
-35.2706
-35.4586
-35.5632
-35.6685
-35.8601
-36.2314
-36.8744
-37.8386
-39.0608
-40.4328
-41.8363
-43.1562
-44.2738
-45.0761
-45.4738
-45.4483
-45.0496
-44.348
-43.4146
-42.3187
-41.1358
-39.9362
-38.7253
-37.3493
-35.6269
-33.3762
-30.407
-26.8534
-23.1986
80.4929
75.9078
67.2034
57.8953
49.5259
42.5021
36.8186
32.3582
28.9998
26.4271
24.3594
22.597
20.9989
19.4558
17.8745
16.1831
14.3723
12.5042
10.631
8.80252
7.03976
5.35715
3.75085
2.21369
0.717975
-0.761263
-2.22659
-3.67178
-5.06864
-6.38594
-7.58141
-8.64902
-9.6098
-10.4929
-11.3283
-12.1561
-13.0363
-14.0599
-15.3115
-16.7162
-18.191
-19.6568
-21.0519
-22.2981
-23.3209
-24.0454
-24.4854
-24.7381
-24.8935
-25.0321
-25.2284
-25.5851
-26.2458
-27.3422
-28.7328
-30.2658
-31.8096
-33.2662
-34.5219
-35.47
-36.0064
-36.1537
-36.0567
-35.8454
-35.6346
-35.5286
-35.6707
-36.2604
-37.4826
-39.1455
-41.0429
-42.9966
-44.8684
-46.4868
-47.6738
-48.2327
-48.1488
-47.5747
-46.6442
-45.4609
-44.1084
-42.7149
-41.482
-40.5699
-39.5485
-38.1014
-35.9538
-32.2757
-27.2029
-22.0128
111.068
96.0507
77.7068
62.2876
50.5597
41.7184
35.0772
30.1806
27.0965
24.9839
23.3601
21.9878
20.73
19.4744
18.0947
16.432
14.4664
12.4241
10.3719
8.42369
6.57185
4.85296
3.23632
1.73679
0.275779
-1.21575
-2.72181
-4.25465
-5.74446
-7.15714
-8.3556
-9.3439
-10.1809
-10.9163
-11.573
-12.1854
-12.8201
-13.6723
-15.1068
-16.7794
-18.5497
-20.2904
-21.9746
-23.4653
-24.664
-25.3189
-25.4565
-25.3583
-25.1508
-24.9299
-24.7354
-24.687
-25.0812
-26.5223
-28.3952
-30.4288
-32.4248
-34.3347
-35.9727
-37.1952
-37.6542
-37.3881
-36.8191
-36.1265
-35.4497
-34.8394
-34.4652
-34.7353
-36.4915
-38.8919
-41.5717
-44.2742
-46.945
-49.3207
-51.1752
-51.917
-51.5547
-50.6126
-49.3039
-47.7504
-45.9567
-44.0623
-42.5654
-42.5714
-42.3603
-41.5842
-40.7349
-36.1523
-27.7209
-19.5814
171.524
120.982
83.9963
61.363
47.436
37.7655
30.8231
25.3922
23.794
22.8362
21.9984
21.2133
20.4575
19.6711
18.7223
17.1164
14.6705
12.3579
9.96266
7.90585
5.91227
4.20131
2.55301
1.2043
-0.12257
-1.64939
-3.17849
-4.89953
-6.53135
-8.23679
-9.43238
-10.2565
-10.8984
-11.453
-11.8811
-12.1826
-12.2905
-12.4461
-14.5591
-16.7018
-18.9508
-21.0049
-23.1757
-25.0527
-26.7897
-27.337
-26.7669
-26.1356
-25.427
-24.7894
-24.0318
-23.1514
-22.4087
-25.0805
-27.8257
-30.6454
-33.1638
-35.7941
-38.0216
-40.0191
-40.3457
-39.0583
-37.759
-36.3842
-35.1686
-33.8095
-32.3315
-31.0696
-34.5722
-38.2358
-42.0669
-45.5972
-49.4456
-52.9047
-56.2782
-57.1903
-55.7949
-54.1776
-52.3153
-50.3853
-47.9496
-44.8364
-41.4843
-44.8848
-45.9853
-45.1716
-50.8914
-45.5708
-27.8183
-13.8737
310.823
126.392
69.6168
47.9007
38.1818
29.8839
24.3917
15.0843
19.5689
20.5152
20.5601
20.3965
20.2286
20.1013
20.2956
19.0102
14.6825
12.4103
9.06591
7.29679
4.84556
3.4593
1.43817
0.640266
-0.233058
-2.07979
-3.35881
-5.67286
-7.21221
-10.0506
-11.044
-11.4317
-11.7412
-12.1718
-12.3714
-12.4585
-11.6922
-8.40097
-13.9686
-16.4707
-19.6323
-21.5514
-24.7994
-26.8415
-30.6285
-30.9636
-28.1651
-27.0238
-25.6007
-24.8213
-23.5049
-21.417
-14.8191
-23.5326
-27.1489
-31.2953
-33.7412
-37.8331
-40.4012
-45.2487
-45.361
-40.7452
-38.8072
-36.4121
-35.0939
-32.9506
-29.8862
-20.5428
-32.4205
-37.3379
-42.9951
-46.4613
-52.5065
-56.6112
-64.9249
-65.7858
-60.3542
-58.0948
-55.4236
-53.748
-50.9174
-45.9539
-30.679
-50.5097
-52.3659
-39.3505
-76.9456
-72.8905
-22.4321
0.61137
-23.8979
-22.6012
-21.3591
-20.1889
-19.1043
-18.1148
-17.2262
-16.4414
-15.7611
-15.1842
-14.7088
-14.3323
-14.0525
-13.8672
-13.775
-23.8639
-22.5463
-21.2868
-20.1032
-19.0091
-18.0136
-17.1221
-16.3367
-15.6575
-15.0826
-14.6096
-14.2356
-13.9578
-13.774
-13.6825
-23.7934
-22.4331
-21.1383
-19.9277
-18.8149
-17.8082
-16.9116
-16.1258
-15.4493
-14.879
-14.4112
-14.0423
-13.7689
-13.5883
-13.4985
-23.681
-22.2543
-20.9052
-19.6542
-18.5143
-17.4924
-16.59
-15.8055
-15.1346
-14.5725
-14.1138
-13.7534
-13.4872
-13.3116
-13.2244
-23.5178
-21.9974
-20.5739
-19.2693
-18.0957
-17.0568
-16.1505
-15.3711
-14.7111
-14.1625
-13.7178
-13.3703
-13.1145
-12.9463
-12.8629
-23.2896
-21.6433
-20.1233
-18.7531
-17.542
-16.4884
-15.5839
-14.8172
-14.176
-13.6485
-13.2245
-12.8953
-12.6542
-12.4961
-12.4179
-22.9743
-21.1626
-19.5226
-18.0777
-16.8307
-15.7705
-14.8793
-14.1376
-13.5269
-13.0309
-12.6361
-12.332
-12.1106
-11.966
-11.8946
-22.537
-20.5101
-18.7263
-17.2043
-15.9324
-14.8833
-14.025
-13.327
-12.763
-12.3118
-11.957
-11.686
-11.4899
-11.3624
-11.2996
-21.9192
-19.6143
-17.6681
-16.0806
-14.8112
-13.8052
-13.0102
-12.3821
-11.886
-11.4962
-11.1937
-10.965
-10.8005
-10.6941
-10.6418
-21.0178
-18.3597
-16.2508
-14.6388
-13.4262
-12.5159
-11.8286
-11.3048
-10.9027
-10.5933
-10.3566
-10.1795
-10.053
-9.97145
-9.93147
-19.6379
-16.5555
-14.3365
-12.7974
-11.7388
-11.0037
-10.483
-10.1058
-9.82667
-9.6173
-9.45986
-9.3432
-9.26037
-9.20714
-9.18107
-17.3895
-13.8874
-11.7421
-10.4753
-9.72777
-9.27672
-8.99405
-8.80848
-8.68076
-8.58929
-8.5222
-8.47297
-8.43805
-8.41554
-8.40449
-13.4528
-9.86252
-8.2692
-7.63364
-7.42017
-7.38129
-7.40785
-7.45322
-7.49847
-7.53679
-7.56658
-7.58833
-7.60321
-7.61239
-7.61674
-6.06868
-3.84044
-3.83841
-4.36983
-4.93789
-5.42032
-5.80274
-6.098
-6.32303
-6.49272
-6.61889
-6.71047
-6.77398
-6.81395
-6.83325
8.5065
4.4079
1.1259
-1.06933
-2.54117
-3.5593
-4.28471
-4.81294
-5.20284
-5.4921
-5.70572
-5.8606
-5.9682
-6.03611
-6.06897
-30.5792
-30.6442
-30.7799
-30.9986
-31.3213
-31.7818
-32.4351
-33.3731
-34.7612
-36.9277
-40.6307
-48.0005
-66.5174
-128.275
-392.974
-33.9422
-34.0784
-34.3626
-34.8198
-35.494
-36.4567
-37.825
-39.7964
-42.7218
-47.2687
-54.8118
-68.4174
-95.2578
-151.075
-253.673
-37.2108
-37.4102
-37.8251
-38.4906
-39.4667
-40.8502
-42.7963
-45.5573
-49.5566
-55.5289
-64.7832
-79.6438
-103.876
-141.385
-185.619
-40.3412
-40.5925
-41.1139
-41.9458
-43.1564
-44.8531
-47.2017
-50.4584
-55.0215
-61.51
-70.861
-84.3619
-103.274
-127.027
-148.282
-43.2972
-43.5874
-44.1873
-45.1382
-46.5088
-48.4035
-50.9767
-54.4524
-59.1493
-65.5035
-74.0569
-85.3218
-99.3094
-114.404
-125.704
-46.0518
-46.3674
-47.017
-48.0394
-49.4972
-51.4827
-54.1249
-57.5983
-62.1264
-67.9699
-75.3701
-84.3905
-94.5762
-104.415
-110.973
-48.5874
-48.9155
-49.588
-50.6383
-52.1194
-54.1058
-56.696
-60.0117
-64.1898
-69.3553
-75.5583
-82.6498
-90.0833
-96.7061
-100.795
-50.8953
-51.2246
-51.8966
-52.9382
-54.3908
-56.3098
-58.7632
-61.8263
-65.5676
-70.0202
-75.1296
-80.6716
-86.1532
-90.7562
-93.4568
-52.9745
-53.2958
-53.9486
-54.9529
-56.3384
-58.1426
-60.4071
-63.1699
-66.4513
-70.2289
-74.4003
-78.7352
-82.8332
-86.1273
-87.9938
-54.8308
-55.137
-55.7565
-56.7029
-57.9954
-59.6559
-61.7049
-64.1535
-66.9905
-70.1641
-73.5575
-76.9633
-80.0712
-82.4896
-83.8269
-56.4745
-56.7607
-57.3374
-58.2126
-59.3968
-60.8994
-62.7254
-64.8673
-67.2958
-69.9467
-72.7059
-75.3983
-77.788
-79.6026
-80.5885
-57.9195
-58.1827
-58.711
-59.508
-60.577
-61.9186
-63.5264
-65.382
-67.4468
-69.6541
-71.9008
-74.0434
-75.9042
-77.2909
-78.0347
-59.1819
-59.4205
-59.8981
-60.6145
-61.568
-62.7527
-64.1555
-65.7514
-67.4988
-69.3341
-71.1677
-72.8843
-74.3494
-75.4257
-75.9973
-60.2786
-60.4925
-60.9193
-61.5564
-62.3985
-63.4356
-64.6504
-66.0156
-67.4898
-69.0152
-70.516
-71.8998
-73.0647
-73.9108
-74.3569
-61.2269
-61.4167
-61.7945
-62.356
-63.0936
-63.9949
-65.041
-66.204
-67.4452
-68.7135
-69.9453
-71.0673
-72.0013
-72.6737
-73.0261
-62.0433
-62.2104
-62.5421
-63.0332
-63.6749
-64.4538
-65.3505
-66.3382
-67.3818
-68.437
-69.451
-70.3653
-71.1196
-71.6588
-71.9401
-62.7438
-62.8898
-63.1791
-63.606
-64.1611
-64.8309
-65.5967
-66.4336
-67.3104
-68.189
-69.0259
-69.7743
-70.3872
-70.8229
-71.0493
-63.3429
-63.4697
-63.7206
-64.0896
-64.5676
-65.1414
-65.7935
-66.5014
-67.2376
-67.9699
-68.6624
-69.2773
-69.778
-70.1322
-70.3158
-63.8539
-63.9635
-64.18
-64.4976
-64.9076
-65.3976
-65.9516
-66.5495
-67.1676
-67.7785
-68.3527
-68.8597
-69.2705
-69.56
-69.7097
-64.2888
-64.3831
-64.5692
-64.8416
-65.192
-65.6094
-66.0791
-66.5836
-67.1024
-67.6126
-68.0897
-68.5089
-68.8472
-69.0849
-69.2076
-64.6582
-64.7391
-64.8984
-65.1313
-65.4301
-65.7847
-66.1824
-66.6078
-67.0434
-67.4697
-67.8667
-68.2143
-68.4938
-68.6897
-68.7906
-64.9714
-65.0405
-65.1766
-65.3752
-65.6294
-65.9302
-66.2665
-66.625
-66.9906
-67.3473
-67.6781
-67.9668
-68.1984
-68.3603
-68.4437
-65.2366
-65.2956
-65.4115
-65.5804
-65.7962
-66.0511
-66.3352
-66.6371
-66.9441
-67.2427
-67.5188
-67.7591
-67.9514
-68.0856
-68.1546
-65.4609
-65.511
-65.6096
-65.753
-65.936
-66.1517
-66.3915
-66.6457
-66.9036
-67.1536
-67.3843
-67.5847
-67.7447
-67.8562
-67.9135
-65.6503
-65.6929
-65.7766
-65.8982
-66.0532
-66.2354
-66.4378
-66.6518
-66.8684
-67.078
-67.271
-67.4382
-67.5716
-67.6644
-67.7121
-65.8101
-65.8463
-65.9172
-66.0202
-66.1513
-66.3053
-66.476
-66.6562
-66.8382
-67.014
-67.1755
-67.3153
-67.4266
-67.5041
-67.5438
-65.9448
-65.9755
-66.0355
-66.1227
-66.2336
-66.3636
-66.5075
-66.6592
-66.8122
-66.9598
-67.0952
-67.2122
-67.3052
-67.3699
-67.4031
-66.0583
-66.0842
-66.1351
-66.2088
-66.3025
-66.4123
-66.5336
-66.6614
-66.7901
-66.914
-67.0276
-67.1256
-67.2035
-67.2576
-67.2854
-66.1537
-66.1757
-66.2187
-66.2811
-66.3602
-66.4529
-66.5553
-66.6629
-66.7712
-66.8754
-66.9708
-67.053
-67.1184
-67.1637
-67.1869
-66.2339
-66.2525
-66.2889
-66.3417
-66.4086
-66.4869
-66.5733
-66.664
-66.7552
-66.8429
-66.9231
-66.9922
-67.047
-67.0851
-67.1046
-66.3012
-66.317
-66.3478
-66.3924
-66.449
-66.5152
-66.5882
-66.6648
-66.7417
-66.8156
-66.8831
-66.9413
-66.9874
-67.0194
-67.0358
-66.3576
-66.371
-66.3971
-66.4349
-66.4828
-66.5389
-66.6006
-66.6653
-66.7303
-66.7927
-66.8497
-66.8987
-66.9376
-66.9645
-66.9783
-66.4047
-66.4161
-66.4382
-66.4703
-66.511
-66.5585
-66.6109
-66.6657
-66.7208
-66.7735
-66.8217
-66.8632
-66.896
-66.9188
-66.9305
-66.444
-66.4536
-66.4725
-66.4998
-66.5345
-66.5749
-66.6194
-66.666
-66.7127
-66.7576
-66.7985
-66.8336
-66.8615
-66.8808
-66.8907
-66.4765
-66.4848
-66.5009
-66.5243
-66.5539
-66.5884
-66.6264
-66.6662
-66.7061
-66.7443
-66.7792
-66.8092
-66.8329
-66.8493
-66.8577
-66.5033
-66.5104
-66.5243
-66.5444
-66.5698
-66.5995
-66.6321
-66.6663
-66.7006
-66.7334
-66.7633
-66.789
-66.8094
-66.8235
-66.8307
-66.5252
-66.5314
-66.5434
-66.5608
-66.5829
-66.6086
-66.6368
-66.6664
-66.6961
-66.7245
-66.7503
-66.7726
-66.7902
-66.8024
-66.8086
-66.5428
-66.5482
-66.5588
-66.574
-66.5933
-66.6158
-66.6406
-66.6665
-66.6924
-66.7173
-66.7399
-66.7593
-66.7747
-66.7854
-66.7908
-66.5567
-66.5615
-66.5709
-66.5844
-66.6016
-66.6216
-66.6435
-66.6665
-66.6896
-66.7116
-66.7317
-66.7489
-66.7626
-66.772
-66.7769
-66.5673
-66.5716
-66.5801
-66.5923
-66.6078
-66.6259
-66.6458
-66.6666
-66.6874
-66.7073
-66.7254
-66.741
-66.7534
-66.7619
-66.7663
-66.5748
-66.5788
-66.5866
-66.598
-66.6123
-66.629
-66.6474
-66.6666
-66.6858
-66.7042
-66.721
-66.7354
-66.7468
-66.7546
-66.7587
-66.5796
-66.5834
-66.5908
-66.6015
-66.6151
-66.631
-66.6484
-66.6666
-66.6848
-66.7023
-66.7182
-66.7318
-66.7426
-66.7501
-66.7539
-66.5817
-66.5854
-66.5926
-66.6031
-66.6164
-66.6319
-66.6488
-66.6666
-66.6844
-66.7014
-66.7169
-66.7302
-66.7407
-66.748
-66.7517
-66.5812
-66.585
-66.5922
-66.6028
-66.6161
-66.6317
-66.6488
-66.6666
-66.6845
-66.7016
-66.7172
-66.7306
-66.7411
-66.7485
-66.7522
-66.5782
-66.582
-66.5896
-66.6005
-66.6143
-66.6304
-66.6481
-66.6666
-66.6851
-66.7028
-66.719
-66.7328
-66.7438
-66.7514
-66.7553
-66.5725
-66.5766
-66.5846
-66.5962
-66.6109
-66.6281
-66.6469
-66.6666
-66.6863
-66.7052
-66.7224
-66.7371
-66.7488
-66.7569
-66.761
-66.5639
-66.5684
-66.5771
-66.5898
-66.6058
-66.6245
-66.6451
-66.6666
-66.6881
-66.7087
-66.7274
-66.7435
-66.7563
-66.7651
-66.7696
-66.5522
-66.5572
-66.567
-66.5811
-66.5989
-66.6197
-66.6426
-66.6666
-66.6905
-66.7134
-66.7343
-66.7523
-66.7665
-66.7763
-66.7814
-66.5371
-66.5427
-66.5537
-66.5697
-66.5899
-66.6135
-66.6394
-66.6665
-66.6936
-66.7196
-66.7433
-66.7637
-66.7797
-66.7909
-66.7966
-66.518
-66.5245
-66.5371
-66.5554
-66.5786
-66.6056
-66.6353
-66.6664
-66.6976
-66.7274
-66.7546
-66.778
-66.7964
-66.8092
-66.8158
-66.4944
-66.5019
-66.5166
-66.5378
-66.5646
-66.5959
-66.6303
-66.6664
-66.7025
-66.737
-66.7685
-66.7956
-66.8171
-66.8319
-66.8395
-66.4657
-66.4744
-66.4915
-66.5162
-66.5475
-66.584
-66.6242
-66.6662
-66.7084
-66.7487
-66.7856
-66.8172
-66.8423
-66.8596
-66.8685
-66.4309
-66.4411
-66.4611
-66.4901
-66.5267
-66.5696
-66.6167
-66.666
-66.7155
-66.7629
-66.8062
-66.8434
-66.8729
-66.8933
-66.9037
-66.3889
-66.401
-66.4245
-66.4586
-66.5017
-66.5521
-66.6076
-66.6658
-66.7241
-66.78
-66.831
-66.8749
-66.9097
-66.9338
-66.9461
-66.3387
-66.3528
-66.3806
-66.4208
-66.4717
-66.5312
-66.5967
-66.6654
-66.7344
-66.8005
-66.8609
-66.9128
-66.954
-66.9825
-66.9971
-66.2785
-66.2953
-66.3281
-66.3756
-66.4357
-66.5061
-66.5836
-66.6649
-66.7466
-66.8249
-66.8965
-66.9581
-67.007
-67.0409
-67.0582
-66.2068
-66.2266
-66.2654
-66.3215
-66.3927
-66.476
-66.5678
-66.6642
-66.761
-66.8541
-66.9391
-67.0123
-67.0704
-67.1107
-67.1314
-66.1213
-66.1447
-66.1906
-66.257
-66.3413
-66.4399
-66.5488
-66.6632
-66.7782
-66.8887
-66.9899
-67.077
-67.1462
-67.1942
-67.2188
-66.0196
-66.0472
-66.1015
-66.1801
-66.2799
-66.3968
-66.5259
-66.6618
-66.7984
-66.9299
-67.0504
-67.1542
-67.2367
-67.294
-67.3234
-65.8986
-65.9313
-65.9955
-66.0885
-66.2067
-66.3452
-66.4984
-66.6597
-66.8223
-66.9788
-67.1224
-67.2463
-67.3448
-67.4132
-67.4483
-65.755
-65.7936
-65.8694
-65.9794
-66.1193
-66.2835
-66.4652
-66.6569
-66.8502
-67.0367
-67.208
-67.3559
-67.4737
-67.5555
-67.5975
-65.5845
-65.6301
-65.7196
-65.8496
-66.0151
-66.2096
-66.4252
-66.6529
-66.883
-67.1053
-67.3097
-67.4866
-67.6275
-67.7256
-67.7759
-65.3823
-65.4361
-65.5417
-65.6952
-65.8908
-66.121
-66.3766
-66.6472
-66.9211
-67.1863
-67.4305
-67.6422
-67.8111
-67.9288
-67.9891
-65.1428
-65.2061
-65.3305
-65.5114
-65.7425
-66.0148
-66.3178
-66.6392
-66.9653
-67.2818
-67.5739
-67.8276
-68.0304
-68.1717
-68.2443
-64.8594
-64.9337
-65.0799
-65.293
-65.5654
-65.8872
-66.2462
-66.6279
-67.0163
-67.3941
-67.7439
-68.0484
-68.2922
-68.4624
-68.55
-64.5243
-64.6115
-64.783
-65.0334
-65.3541
-65.7339
-66.1587
-66.6119
-67.0745
-67.5261
-67.9453
-68.3113
-68.6051
-68.8106
-68.9163
-64.1287
-64.2306
-64.4314
-64.7249
-65.1018
-65.5493
-66.0516
-66.5894
-67.1405
-67.6804
-68.1836
-68.6244
-68.9792
-69.228
-69.3562
-63.6624
-63.7811
-64.0154
-64.3585
-64.8003
-65.3268
-65.9199
-66.5576
-67.2141
-67.8604
-68.4652
-68.9973
-69.427
-69.729
-69.885
-63.1136
-63.2514
-63.5238
-63.9236
-64.4401
-65.0579
-65.7572
-66.5129
-67.2949
-68.069
-68.7974
-69.4412
-69.9634
-70.3316
-70.5221
-62.469
-62.6284
-62.9437
-63.4078
-64.0095
-64.7325
-65.5553
-66.4497
-67.3813
-68.3094
-69.1882
-69.9696
-70.6066
-71.0576
-71.2914
-61.7139
-61.8971
-62.2602
-62.7965
-63.4946
-64.338
-65.3036
-66.3608
-67.4702
-68.5839
-69.6466
-70.5984
-71.3789
-71.9343
-72.2231
-60.8316
-61.0409
-61.4566
-62.0727
-62.8787
-63.8585
-64.9885
-66.2356
-67.556
-68.8938
-70.1822
-71.3459
-72.3077
-72.996
-73.3554
-59.8039
-60.0413
-60.5139
-61.2171
-62.1423
-63.2748
-64.5919
-66.0595
-67.6297
-69.238
-70.8042
-72.2338
-73.4263
-74.2861
-74.7371
-58.6115
-58.8783
-59.4111
-60.2075
-61.2618
-62.563
-64.0908
-65.8123
-67.6767
-69.6117
-71.5209
-73.2863
-74.7759
-75.8599
-76.4321
-57.2339
-57.5307
-58.1254
-59.0188
-60.21
-61.6937
-63.4553
-65.4659
-67.6748
-70.0031
-72.3375
-74.5302
-76.4072
-77.7892
-78.5243
-55.6501
-55.9764
-56.6323
-57.6232
-58.9552
-60.6315
-62.647
-64.9817
-67.5901
-70.3902
-73.2524
-75.9933
-78.3821
-80.1676
-81.127
-53.8398
-54.1933
-54.9065
-55.9908
-57.4614
-59.3336
-61.6171
-64.3073
-67.3721
-70.7343
-74.2517
-77.7008
-80.7759
-83.1194
-84.3959
-51.7842
-52.1606
-52.923
-54.0903
-55.6889
-57.7501
-60.3048
-63.3729
-66.9476
-70.9704
-75.2982
-79.668
-83.6777
-86.8122
-88.551
-49.4672
-49.8598
-50.6585
-51.8903
-53.5951
-55.8241
-58.636
-62.0867
-66.212
-70.9949
-76.3154
-81.8852
-87.1871
-91.4742
-93.9136
-46.8777
-47.2772
-48.0934
-49.3619
-51.1372
-53.4935
-56.5235
-60.3321
-65.0197
-70.6458
-77.1594
-84.2884
-91.401
-97.4191
-100.97
-44.0111
-44.4052
-45.2143
-46.4817
-48.276
-50.6952
-53.8704
-57.967
-63.1758
-69.6804
-77.576
-86.703
-96.3747
-105.077
-110.492
-40.8708
-41.2451
-42.0171
-43.2357
-44.981
-47.3719
-50.5775
-54.8296
-60.4319
-67.749
-77.1373
-88.7391
-102.021
-115.019
-123.774
-37.4708
-37.8092
-38.5099
-39.6242
-41.2379
-43.4831
-46.5579
-50.7546
-56.4972
-64.3792
-75.1615
-89.6082
-107.865
-127.905
-143.136
-33.8361
-34.1217
-34.7156
-35.6661
-37.0562
-39.0182
-41.7593
-45.6062
-51.0769
-58.9954
-70.6409
-87.831
-112.471
-144.132
-173.073
-30.0031
-30.2206
-30.6738
-31.403
-32.4777
-34.0123
-36.193
-39.3301
-43.9568
-51.0233
-62.27
-80.88
-112.201
-162.246
-223.108
-26.0195
-26.1559
-26.4406
-26.9
-27.5801
-28.558
-29.9628
-32.0197
-35.1425
-40.1485
-48.7858
-65.1017
-98.929
-172.848
-315.408
-21.9413
-21.9884
-22.0865
-22.244
-22.476
-22.8072
-23.2799
-23.9692
-25.0208
-26.752
-29.9696
-37.1627
-57.8146
-135.783
-506.705
-17.8308
-17.7859
-17.6913
-17.5366
-17.3031
-16.9585
-16.4468
-15.6674
-14.4275
-12.3237
-8.39291
0.122394
23.1024
104.724
479.797
-13.7519
-13.6181
-13.3381
-12.8843
-12.2077
-11.2261
-9.79991
-7.68558
-4.43462
0.835295
9.9995
27.3623
63.2953
141.445
291.391
-9.76613
-9.55226
-9.10603
-8.38697
-7.32451
-5.80257
-3.63118
-0.493495
4.15571
11.2892
22.6978
41.7059
74.1705
128.304
207.122
27.5027
11.2203
4.68031
1.29304
-0.760067
-2.12166
-3.07387
-3.76174
-4.26818
-4.64413
-4.92242
-5.12482
-5.26588
-5.35515
-5.39842
17.3866
10.6476
5.72219
2.51413
0.378906
-1.09898
-2.15666
-2.93205
-3.50907
-3.94103
-4.263
-4.49848
-4.66333
-4.768
-4.81883
11.9502
8.81542
5.57141
2.99017
1.06139
-0.368107
-1.43546
-2.24009
-2.85066
-3.31429
-3.66359
-3.92114
-4.10254
-4.21819
-4.2745
8.69057
7.05904
4.96031
3.01309
1.39714
0.11128
-0.896694
-1.68289
-2.29425
-2.76693
-3.12785
-3.39666
-3.58737
-3.70956
-3.76923
6.5639
5.62705
4.24394
2.80595
1.50365
0.397687
-0.511931
-1.24709
-1.83413
-2.29715
-2.65605
-2.92638
-3.11974
-3.24433
-3.30535
5.08776
4.50491
3.56564
2.50455
1.4738
0.547741
-0.248314
-0.91415
-1.46012
-1.89966
-2.24574
-2.50952
-2.69984
-2.8232
-2.88383
4.01633
3.63023
2.97192
2.18205
1.37123
0.607513
-0.0751265
-0.664433
-1.16002
-1.56704
-1.89257
-2.14366
-2.32643
-2.4456
-2.50439
3.21299
2.94456
2.46954
1.87408
1.23593
0.610977
0.0332474
-0.479794
-0.921407
-1.29101
-1.59107
-1.82522
-1.99715
-2.10993
-2.16575
2.59602
2.40232
2.05079
1.59574
1.09145
0.581642
0.0966989
-0.344754
-0.732797
-1.06325
-1.33532
-1.54999
-1.70892
-1.81378
-1.86586
2.11355
1.96967
1.7039
1.35157
0.950794
0.535036
0.129948
-0.2468
-0.584175
-0.876017
-1.11942
-1.31345
-1.45822
-1.55426
-1.60212
1.73098
1.62165
1.4171
1.14104
0.820532
0.481015
0.143515
-0.176187
-0.467168
-0.722419
-0.937799
-1.11111
-1.24135
-1.3282
-1.3716
1.42432
1.33972
1.17996
0.961369
0.703462
0.425588
0.144722
-0.125518
-0.37497
-0.5965
-0.785383
-0.938665
-1.05461
-1.13228
-1.17121
1.1764
1.10998
0.983663
0.80899
0.600252
0.372234
0.13855
-0.0892847
-0.302159