/*--------------------------------*- C++ -*----------------------------------*\
| =========                 |                                                 |
| \\      /  F ield         | OpenFOAM: The Open Source CFD Toolbox           |
|  \\    /   O peration     | Version:  5.x                                   |
|   \\  /    A nd           | Web:      www.OpenFOAM.org                      |
|    \\/     M anipulation  |                                                 |
\*---------------------------------------------------------------------------*/
FoamFile
{
    version     2.0;
    format      ascii;
    class       volScalarField;
    location    "0.3";
    object      gradTx;
}
// * * * * * * * * * * * * * * * * * * * * * * * * * * * * * * * * * * * * * //

dimensions      [0 -1 0 1 0 0 0];

internalField   nonuniform List<scalar> 
2048
(
0.0050738
0.0150197
0.0243978
0.0328874
0.040244
0.0463288
0.0510864
0.0545413
0.0567789
0.0579237
0.0581193
0.057513
0.0562454
0.0544458
0.0522298
0.0497001
0.046948
0.0440533
0.0410855
0.0381033
0.0351539
0.0322737
0.0294881
0.0268133
0.0242576
0.0218229
0.019507
0.0173038
0.015205
0.0132002
0.011277
0.00942165
0.00761907
0.00585303
0.00410654
0.00236209
0.000601843
-0.00119213
-0.00303758
-0.00495179
-0.00695105
-0.00904997
-0.0112605
-0.0135908
-0.0160429
-0.018611
-0.0212781
-0.0240127
-0.0267657
-0.0294671
-0.0320242
-0.034322
-0.0362262
-0.03759
-0.0382639
-0.0381094
-0.0370127
-0.0348996
-0.0317465
-0.0275872
-0.0225135
-0.0166701
-0.0102448
-0.0034562
0.0151654
0.044882
0.0728701
0.0981674
0.120041
0.138077
0.152123
0.162268
0.168782
0.172049
0.172507
0.170599
0.166745
0.16133
0.154694
0.14714
0.138937
0.130322
0.1215
0.112643
0.103894
0.0953567
0.0871075
0.0791924
0.0716342
0.0644378
0.0575949
0.0510876
0.0448906
0.0389727
0.0332975
0.0278241
0.0225074
0.0172994
0.0121497
0.00700621
0.00181616
-0.00347369
-0.00891612
-0.0145626
-0.0204618
-0.0266578
-0.0331871
-0.040075
-0.0473298
-0.0549365
-0.0628477
-0.0709734
-0.0791706
-0.0872338
-0.0948888
-0.101793
-0.107544
-0.111699
-0.113807
-0.113444
-0.110263
-0.104035
-0.0946858
-0.0823136
-0.0671943
-0.0497636
-0.0305871
-0.0103201
0.0252743
0.0747652
0.121286
0.163205
0.199296
0.228883
0.251749
0.268093
0.27841
0.28338
0.283755
0.280287
0.273672
0.264541
0.25345
0.240888
0.227294
0.213051
0.198498
0.183916
0.169537
0.155532
0.142021
0.129074
0.116726
0.10498
0.0938187
0.0832115
0.073116
0.0634806
0.0542455
0.045343
0.0366992
0.0282348
0.0198669
0.01151
0.00307736
-0.0055185
-0.0143646
-0.023546
-0.033144
-0.0432328
-0.0538753
-0.0651173
-0.0769784
-0.0894413
-0.102437
-0.115828
-0.129388
-0.142787
-0.155578
-0.167192
-0.176957
-0.184125
-0.187922
-0.187623
-0.182622
-0.172516
-0.157166
-0.136731
-0.111674
-0.0827327
-0.0508641
-0.0171649
0.0356581
0.105418
0.17081
0.229469
0.279652
0.320442
0.351616
0.37355
0.387043
0.393126
0.392909
0.387467
0.377781
0.364714
0.349021
0.33137
0.312351
0.292493
0.272259
0.252042
0.232157
0.212837
0.194241
0.176457
0.159521
0.143431
0.128158
0.113655
0.0998623
0.0867089
0.0741115
0.0619766
0.0502012
0.0386755
0.0272845
0.0159103
0.00443283
-0.00726871
-0.019315
-0.0318247
-0.0449123
-0.0586839
-0.073232
-0.0886273
-0.104908
-0.122066
-0.140022
-0.158606
-0.177526
-0.19634
-0.214435
-0.231021
-0.245143
-0.255726
-0.261643
-0.261822
-0.25536
-0.241642
-0.22044
-0.191973
-0.156903
-0.116289
-0.0715143
-0.0241387
0.0465529
0.137518
0.222484
0.298248
0.36252
0.414176
0.453067
0.479854
0.495738
0.502191
0.500733
0.49279
0.479622
0.462314
0.441802
0.418907
0.394366
0.368843
0.342926
0.317117
0.291814
0.267308
0.243788
0.22135
0.200023
0.179793
0.160611
0.142415
0.125127
0.108656
0.0928969
0.07773
0.0630237
0.0486373
0.0344244
0.0202349
0.00591649
-0.00868415
-0.0237209
-0.0393463
-0.0557088
-0.0729485
-0.0911909
-0.110538
-0.131056
-0.152755
-0.175567
-0.199305
-0.223632
-0.248014
-0.271684
-0.293629
-0.3126
-0.327161
-0.335785
-0.336993
-0.329521
-0.312491
-0.285557
-0.248987
-0.203667
-0.151018
-0.0928965
-0.031362
0.0581859
0.171715
0.277286
0.370728
0.449161
0.511308
0.557209
0.587952
0.605283
0.611219
0.607756
0.596697
0.579574
0.557671
0.532075
0.50374
0.473532
0.442248
0.410604
0.379211
0.348554
0.318977
0.290685
0.263773
0.238253
0.214083
0.191194
0.169505
0.14892
0.129331
0.110611
0.0926141
0.0751796
0.0581357
0.0413043
0.0245039
0.00755109
-0.00973932
-0.0275538
-0.0460788
-0.0654977
-0.0859867
-0.107708
-0.130801
-0.155369
-0.181456
-0.209021
-0.237888
-0.267699
-0.29785
-0.327439
-0.355235
-0.379675
-0.398924
-0.410992
-0.413916
-0.405986
-0.385988
-0.353415
-0.308582
-0.252632
-0.187407
-0.115305
-0.0389325
0.0707872
0.208659
0.336183
0.448047
0.54074
0.612912
0.664952
0.698571
0.716229
0.720621
0.714297
0.69945
0.677872
0.651002
0.62004
0.586042
0.549992
0.512816
0.475367
0.438375
0.402412
0.367868
0.334958
0.303757
0.274241
0.246333
0.219937
0.19495
0.171263
0.148752
0.127269
0.106644
0.0866841
0.0671857
0.0479389
0.0287316
0.00935015
-0.0104208
-0.0307998
-0.0520071
-0.074262
-0.0977785
-0.122759
-0.149385
-0.177806
-0.208117
-0.240324
-0.27429
-0.309667
-0.345815
-0.381721
-0.415939
-0.446581
-0.471367
-0.487767
-0.493235
-0.485509
-0.462943
-0.424807
-0.371464
-0.304366
-0.22586
-0.138976
-0.0469279
0.0845987
0.249028
0.400162
0.531333
0.63836
0.719945
0.777044
0.812235
0.828914
0.830607
0.820492
0.801164
0.77463
0.742433
0.705829
0.665939
0.62385
0.580626
0.537267
0.494639
0.453407
0.414003
0.376636
0.341337
0.30803
0.276588
0.246879
0.218784
0.192183
0.166941
0.142893
0.119838
0.0975541
0.0758023
0.0543405
0.0329268
0.0113196
-0.0107254
-0.0334574
-0.0571307
-0.0820009
-0.108321
-0.136335
-0.166274
-0.19834
-0.232693
-0.269409
-0.308424
-0.349437
-0.391813
-0.43446
-0.475738
-0.513415
-0.54472
-0.566495
-0.575491
-0.568754
-0.544086
-0.500454
-0.438264
-0.359357
-0.266706
-0.164092
-0.0554055
0.0998827
0.29355
0.470263
0.621736
0.743094
0.83327
0.894083
0.929289
0.943483
0.941201
0.926319
0.901823
0.869871
0.832027
0.78953
0.743524
0.695187
0.645732
0.596334
0.548016
0.501548
0.457399
0.415748
0.376559
0.339674
0.304903
0.272073
0.24105
0.211714
0.183927
0.157504
0.132218
0.107808
0.0840007
0.0605195
0.0370947
0.0134591
-0.010658
-0.0355355
-0.061461
-0.0887273
-0.117627
-0.148448
-0.181469
-0.216955
-0.255144
-0.296208
-0.340186
-0.386876
-0.435694
-0.485516
-0.534533
-0.580167
-0.619102
-0.647457
-0.661131
-0.656314
-0.630091
-0.581025
-0.509556
-0.418022
-0.310198
-0.190778
-0.0644009
0.11693
0.343024
0.547601
0.720449
0.855996
0.953665
1.01653
1.0499
1.0599
1.05225
1.03161
1.00131
0.963546
0.919801
0.871206
0.818874
0.764067
0.708175
0.652583
0.598505
0.546835
0.498069
0.45233
0.409476
0.369242
0.331348
0.295581
0.261798
0.229895
0.199739
0.17113
0.143807
0.117467
0.0917967
0.0664853
0.0412371
0.0157631
-0.0102306
-0.0370512
-0.0650196
-0.094466
-0.125723
-0.159121
-0.194989
-0.233656
-0.275449
-0.320659
-0.36947
-0.421828
-0.477265
-0.534684
-0.592147
-0.646732
-0.694536
-0.730842
-0.750531
-0.748727
-0.721598
-0.667157
-0.585865
-0.480709
-0.35651
-0.219091
-0.0739247
0.136065
0.398337
0.633394
0.828729
0.97811
1.08182
1.14469
1.17406
1.17794
1.16346
1.13609
1.09941
1.05555
1.00575
0.950912
0.892062
0.830548
0.767983
0.706015
0.646092
0.589256
0.536023
0.48642
0.440155
0.396812
0.356006
0.317472
0.281082
0.246765
0.214408
0.183798
0.15463
0.126554
0.0992074
0.0722469
0.0453535
0.0182219
-0.00946099
-0.0380288
-0.0678361
-0.0992514
-0.132647
-0.168394
-0.206869
-0.248463
-0.293599
-0.342712
-0.396169
-0.454123
-0.5163
-0.581705
-0.648327
-0.712919
-0.770948
-0.816752
-0.843997
-0.84649
-0.819231
-0.759481
-0.667687
-0.547692
-0.405721
-0.249014
-0.0839574
0.157659
0.460483
0.728973
0.947904
1.11047
1.21835
1.27874
1.30161
1.29722
1.27436
1.23935
1.19588
1.14577
1.08986
1.02871
0.963166
0.89469
0.825181
0.756619
0.690749
0.628792
0.571271
0.518066
0.468671
0.422478
0.378969
0.337827
0.298958
0.262364
0.227967
0.195536
0.164715
0.135092
0.106251
0.0778132
0.0494414
0.0208223
-0.00837129
-0.0384978
-0.0699467
-0.103126
-0.138448
-0.176321
-0.217161
-0.261417
-0.309609
-0.362335
-0.420187
-0.483591
-0.552553
-0.626278
-0.702759
-0.778456
-0.84818
-0.905209
-0.941773
-0.950068
-0.923609
-0.858634
-0.755493
-0.619174
-0.457803
-0.280435
-0.0944437
0.182132
0.530577
0.835809
1.07939
1.25411
1.36374
1.41872
1.43219
1.41718
1.38439
1.34092
1.29039
1.23405
1.17213
1.10468
1.03228
0.956558
0.87979
0.804376
0.732434
0.665412
0.603821
0.547321
0.495115
0.446351
0.400347
0.356731
0.315485
0.276727
0.240443
0.206375
0.174092
0.143108
0.112949
0.0831935
0.0534967
0.0235479
-0.00698749
-0.0384919
-0.0713918
-0.106138
-0.143181
-0.182966
-0.225936
-0.272581
-0.323516
-0.379518
-0.441445
-0.510064
-0.585764
-0.66807
-0.755076
-0.843
-0.925989
-0.996156
-1.04404
-1.05989
-1.03536
-0.965283
-0.849747
-0.695269
-0.512601
-0.313133
-0.105286
0.209966
0.60988
0.95552
1.22469
1.41003
1.5184
1.56447
1.56531
1.53712
1.49281
1.44025
1.38262
1.32026
1.25259
1.17893
1.09953
1.01622
0.931828
0.849256
0.771092
0.699076
0.633682
0.57425
0.519589
0.468555
0.420261
0.374278
0.330716
0.289887
0.251863
0.216342
0.182791
0.150634
0.119324
0.0883979
0.0575137
0.0263798
-0.00533851
-0.0380477
-0.072215
-0.108338
-0.146909
-0.188401
-0.233275
-0.282037
-0.33538
-0.394278
-0.45989
-0.53339
-0.61567
-0.706725
-0.804868
-0.906142
-1.00405
-1.08945
-1.15093
-1.17636
-1.15514
-1.08015
-0.950923
-0.776
-0.569805
-0.346756
-0.116337
0.241716
0.699803
1.08989
1.38542
1.57919
1.68255
1.71573
1.70029
1.65618
1.59883
1.53676
1.47225
1.40429
1.33128
1.25164
1.16505
1.07376
0.981315
0.891223
0.80665
0.729729
0.660865
0.598931
0.542213
0.489228
0.438851
0.390567
0.344704
0.301865
0.262248
0.225469
0.190847
0.157701
0.125403
0.0934378
0.0614855
0.0292967
-0.00345563
-0.0372035
-0.0724613
-0.109781
-0.149697
-0.192709
-0.239277
-0.28989
-0.345288
-0.40666
-0.475498
-0.553437
-0.642016
-0.741876
-0.851697
-0.967421
-1.08195
-1.18489
-1.26249
-1.29982
-1.2836
-1.20406
-1.05952
-0.861277
-0.62892
-0.380803
-0.127394
0.278025
0.801932
1.24085
1.56327
1.76249
1.85628
1.87204
1.83632
1.77335
1.70152
1.62982
1.55897
1.48605
1.40832
1.32301
1.22903
1.12925
1.02827
0.930232
0.83902
0.757306
0.685382
0.621456
0.563116
0.508527
0.456271
0.405704
0.357487
0.312674
0.271616
0.233789
0.198294
0.164345
0.131216
0.0983256
0.0654028
0.0322747
-0.00137195
-0.035999
-0.072176
-0.110519
-0.15161
-0.195971
-0.244051
-0.296262
-0.353351
-0.416739
-0.488279
-0.570104
-0.664559
-0.773155
-0.895106
-1.02633
-1.15922
-1.28217
-1.37873
-1.43058
-1.42145
-1.33796
-1.17611
-0.950879
-0.689237
-0.414603
-0.138194
0.319652
0.918032
1.41053
1.76008
1.96073
2.03944
2.03282
1.97248
1.8875
1.79988
1.71882
1.64254
1.56547
1.48382
1.39334
1.29165
1.18276
1.07272
0.966235
0.868087
0.781721
0.707254
0.641938
0.582439
0.526617
0.472698
0.419796
0.369094
0.322309
0.27998
0.241337
0.205173
0.170604
0.1368
0.103075
0.069254
0.0352877
0.000878091
-0.0344736
-0.0714032
-0.110606
-0.152712
-0.198272
-0.247713
-0.301297
-0.359699
-0.424618
-0.498286
-0.583324
-0.683074
-0.800198
-0.934635
-1.08232
-1.23529
-1.38093
-1.49959
-1.56884
-1.56938
-1.48297
-1.30133
-1.04442
-0.749792
-0.447301
-0.148411
0.367504
1.05005
1.60118
1.97782
2.17457
2.23162
2.19736
2.10772
1.99736
1.89282
1.80317
1.72281
1.64251
1.55795
1.463
1.35315
1.23434
1.1147
0.999182
0.893714
0.802869
0.726509
0.660518
0.600331
0.543674
0.488333
0.432959
0.379533
0.330747
0.287348
0.248157
0.211521
0.176519
0.142197
0.107702
0.0730237
0.038307
0.00325918
-0.0326668
-0.070185
-0.11009
-0.153066
-0.199692
-0.250388
-0.305155
-0.364481
-0.430428
-0.505616
-0.593068
-0.697359
-0.822655
-0.969838
-1.13485
-1.30951
-1.48073
-1.62496
-1.71466
-1.72807
-1.64051
-1.43601
-1.14131
-0.809322
-0.477853
-0.15766
0.422701
1.20012
1.81517
2.21867
2.40447
2.43206
2.36488
2.24095
2.10153
1.97917
1.88234
1.79974
1.71713
1.63092
1.53249
1.41377
1.28399
1.15427
1.02903
0.915729
0.820618
0.743188
0.677375
0.616934
0.559877
0.503413
0.445309
0.388785
0.337943
0.293728
0.254306
0.217378
0.182128
0.14746
0.112222
0.076691
0.0413019
0.00573568
-0.030617
-0.0685608
-0.10902
-0.152726
-0.200301
-0.252201
-0.308016
-0.367858
-0.434317
-0.510416
-0.599353
-0.707237
-0.84019
-1.0003
-1.18336
-1.38114
-1.58108
-1.75473
-1.86792
-1.8981
-1.81233
-1.58114
-1.2407
-0.866227
-0.505026
-0.165506
0.486675
1.37054
2.0549
2.48508
2.65063
2.63956
2.53461
2.37109
2.19848
2.05769
1.95585
1.87349
1.78927
1.7029
1.60248
1.47374
1.33162
1.19152
1.05575
0.933916
0.834805
0.75735
0.692736
0.632379
0.575395
0.518223
0.456968
0.396795
0.343824
0.299126
0.259857
0.222781
0.187469
0.152652
0.116653
0.080227
0.0442404
0.0082722
-0.0283619
-0.0665659
-0.107438
-0.151746
-0.200157
-0.253282
-0.310083
-0.369993
-0.436447
-0.512892
-0.602242
-0.712552
-0.852487
-1.02566
-1.22734
-1.4493
-1.68142
-1.88886
-2.02824
-2.0799
-2.00071
-1.73804
-1.34134
-0.918525
-0.527424
-0.171479
0.561332
1.56374
2.32271
2.77994
2.91289
2.85233
2.70592
2.49706
2.28654
2.12705
2.02337
1.94446
1.85875
1.77402
1.67386
1.53328
1.37703
1.22664
1.07934
0.948008
0.845226
0.769078
0.706905
0.646759
0.590382
0.533113
0.468059
0.403463
0.348285
0.303551
0.264913
0.227754
0.192571
0.15786
0.121011
0.0835919
0.0470901
0.0108343
-0.0259383
-0.0642307
-0.105388
-0.150173
-0.199296
-0.253752
-0.311588
-0.371047
-0.436977
-0.513317
-0.601847
-0.71317
-0.859238
-1.04561
-1.26635
-1.51297
-1.78113
-2.02744
-2.19484
-2.27356
-2.20863
-1.90838
-1.4415
-0.96382
-0.543525
-0.175096
0.6493
1.78221
2.62066
3.10684
3.19058
3.0678
2.87853
2.61789
2.36384
2.1858
2.08467
2.01342
1.92521
1.84433
1.74788
1.59254
1.41979
1.25994
1.09982
0.957663
0.851629
0.778479
0.720291
0.660103
0.604947
0.548535
0.478699
0.408628
0.351191
0.307019
0.269619
0.232306
0.197451
0.163196
0.125311
0.0867298
0.0498209
0.0133891
-0.023383
-0.0615797
-0.102908
-0.148055
-0.197727
-0.253729
-0.3128
-0.371162
-0.436049
-0.512045
-0.598328
-0.708971
-0.860138
-1.05997
-1.3001
-1.57091
-1.87953
-2.17089
-2.36643
-2.47864
-2.44001
-2.09436
-1.53875
-0.999279
-0.551748
-0.175897
0.754318
2.02842
2.95024
3.47042
3.48239
3.2824
3.05275
2.73275
2.4283
2.2324
2.13966
2.08166
1.988
1.9137
1.82626
1.65156
1.4592
1.29195
1.11727
0.962446
0.853705
0.785687
0.733455
0.672334
0.619141
0.565081
0.488998
0.412056
0.352371
0.309552
0.274178
0.236415
0.202103
0.168815
0.129562
0.0895633
0.0524093
0.015906
-0.0207338
-0.0586285
-0.100037
-0.145446
-0.195416
-0.253313
-0.314047
-0.370448
-0.433762
-0.509536
-0.591893
-0.699844
-0.854862
-1.06861
-1.32852
-1.62156
-1.97584
-2.32022
-2.54109
-2.69385
-2.70013
-2.29879
-1.62968
-1.02164
-0.550544
-0.173479
0.881808
2.30465
3.31197
3.87695
3.78609
3.49118
3.22994
2.84091
2.47751
2.26517
2.18835
2.15119
2.04594
1.9817
1.91146
1.71019
1.49412
1.32355
1.13177
0.961802
0.851084
0.790857
0.747176
0.683213
0.632914
0.583547
0.499033
0.413419
0.35162
0.311182
0.278881
0.240006
0.206492
0.174931
0.133761
0.0919855
0.0548438
0.0183569
-0.0180321
-0.0553819
-0.0968141
-0.142411
-0.192283
-0.252582
-0.315739
-0.368967
-0.430139
-0.506382
-0.582789
-0.685687
-0.84304
-1.07157
-1.35189
-1.66293
-2.0691
-2.47733
-2.71601
-2.9166
-2.99603
-2.52529
-1.70954
-1.02727
-0.538513
-0.167539
1.0397
2.6128
3.70478
4.33514
4.09823
3.6874
3.41302
2.94176
2.50872
2.28229
2.23086
2.22501
2.09716
2.04751
2.00693
1.76795
1.52282
1.35614
1.14343
0.955022
0.843334
0.794147
0.762538
0.692265
0.646082
0.605012
0.508827
0.412278
0.348709
0.311945
0.284135
0.24293
0.210539
0.181848
0.137885
0.0938506
0.057135
0.0207163
-0.0153256
-0.0518292
-0.0932787
-0.139047
-0.188177
-0.251578
-0.318407
-0.366712
-0.425085
-0.503356
-0.571292
-0.666402
-0.824223
-1.06893
-1.371
-1.69246
-2.1581
-2.64551
-2.88733
-3.14245
-3.33718
-2.77841
-1.77176
-1.01226
-0.514546
-0.157914
1.23958
2.95404
4.12517
4.85723
4.41366
3.86197
3.60726
3.03462
2.51871
2.28185
2.26721
2.30753
2.1387
2.1097
2.11755
1.82391
1.54281
1.39186
1.15234
0.941214
0.829965
0.795682
0.78106
0.69868
0.65827
0.630956
0.518305
0.408068
0.343395
0.311866
0.290515
0.244927
0.214104
0.189989
0.141878
0.0949625
0.0593276
0.0229598
-0.0126735
-0.0479387
-0.0894683
-0.135495
-0.182863
-0.250281
-0.322747
-0.363585
-0.418333
-0.501469
-0.557678
-0.641908
-0.797842
-1.06089
-1.38743
-1.70679
-2.24113
-2.83012
-3.0499
-3.36428
-3.73628
-3.06381
-1.80732
-0.972672
-0.477973
-0.144617
1.49829
3.32846
4.56612
5.46053
4.72498
4.00276
3.82124
3.11851
2.50369
2.26189
2.29723
2.40505
2.16618
2.16604
2.25012
1.87644
1.55053
1.43395
1.15843
0.919264
0.810455
0.795492
0.80485
0.701185
0.668853
0.663397
0.527226
0.400076
0.335436
0.310946
0.298814
0.245581
0.216969
0.199942
0.14563
0.095062
0.0615174
0.0250619
-0.0101524
-0.0436512
-0.0854159
-0.13197
-0.176004
-0.248592
-0.329694
-0.359366
-0.409369
-0.502052
-0.542191
-0.612156
-0.763156
-1.04759
-1.40379
-1.7015
-2.31572
-3.03933
-3.19702
-3.57133
-4.2103
-3.3884
-1.804
-0.904813
-0.428723
-0.12786
1.83995
3.73445
5.01566
6.16932
5.02174
4.0938
4.06813
3.19173
2.45926
2.22049
2.32017
2.52646
2.17326
2.21323
2.41404
1.92292
1.5411
1.48716
1.16141
0.887811
0.784281
0.79342
0.836823
0.697887
0.676881
0.705072
0.535096
0.387438
0.32463
0.309116
0.310127
0.244261
0.218819
0.212522
0.148951
0.0938117
0.0638737
0.0269914
-0.00786467
-0.038871
-0.0811436
-0.128795
-0.167131
-0.246285
-0.340494
-0.353689
-0.397352
-0.506864
-0.524976
-0.577163
-0.719209
-1.02909
-1.42419
-1.67087
-2.37822
-3.28516
-3.32021
-3.74796
-4.78171
-3.76048
-1.74539
-0.805761
-0.36745
-0.108056
2.29863
4.16809
5.4551
7.01735
5.28939
4.11426
4.36723
3.2512
2.38037
2.15596
2.33433
2.68405
2.15107
2.24659
2.62208
1.95939
1.50793
1.55824
1.16048
0.845228
0.750985
0.788974
0.880961
0.686084
0.680996
0.759659
0.541034
0.369132
0.310844
0.306191
0.325942
0.240051
0.219216
0.228832
0.151539
0.0907811
0.0666663
0.0287047
-0.0059477
-0.0334563
-0.0766516
-0.126438
-0.155624
-0.242963
-0.356811
-0.34601
-0.380995
-0.51823
-0.506002
-0.537064
-0.664787
-1.00511
-1.45469
-1.60754
-2.42327
-3.58474
-3.40901
-3.87207
-5.48009
-4.18981
-1.60979
-0.674015
-0.295626
-0.0858105
2.92165
4.62219
5.85682
8.05086
5.50807
4.03738
4.74592
3.29159
2.2613
2.0671
2.33637
2.89453
2.08745
2.25966
2.89135
1.98009
1.44238
1.6566
1.15408
0.789627
0.710263
0.781136
0.942642
0.662029
0.679341
0.832042
0.543614
0.343992
0.294076
0.301786
0.348258
0.231665
0.217577
0.250352
0.152927
0.0854308
0.0702979
0.0301361
-0.00458545
-0.0272084
-0.0719022
-0.12557
-0.140683
-0.237992
-0.380841
-0.335573
-0.358444
-0.53921
-0.484937
-0.492192
-0.59838
-0.974809
-1.50393
-1.50219
-2.44299
-3.96165
-3.45075
-3.91337
-6.34388
-4.68759
-1.36892
-0.510373
-0.215556
-0.0618744
3.77354
5.08528
6.18177
9.33215
5.65101
3.82922
5.24189
3.30408
2.09582
1.95354
2.32055
3.18032
1.96615
2.24386
3.24437
1.97689
1.33329
1.79507
1.13949
0.718886
0.662084
0.768096
1.02904
0.620663
0.669454
0.928618
0.540646
0.310736
0.274515
0.295216
0.379729
0.217342
0.21315
0.279027
0.152435
0.0770991
0.0753425
0.0311837
-0.00402055
-0.0198609
-0.0667985
-0.127114
-0.121311
-0.23042
-0.41545
-0.321381
-0.327121
-0.57381
-0.460996
-0.443172
-0.518178
-0.936403
-1.58385
-1.34319
-2.42614
-4.44758
-3.43051
-3.83122
-7.42257
-5.2664
-0.98646
-0.319051
-0.130287
-0.0370864
4.94069
5.54031
6.37649
10.9438
5.68267
3.44739
5.90571
3.27485
1.87737
1.81621
2.27763
3.57097
1.76589
2.18798
3.71031
1.93864
1.16654
1.99075
1.11232
0.630715
0.60685
0.746921
1.14957
0.555309
0.648164
1.05764
0.528922
0.268017
0.252621
0.28536
0.423833
0.194732
0.204989
0.317376
0.149095
0.0649894
0.0825874
0.0316929
-0.00456711
-0.0110696
-0.0611551
-0.132321
-0.0962855
-0.218886
-0.464324
-0.302169
-0.283549
-0.627227
-0.432737
-0.391054
-0.422086
-0.88673
-1.71051
-1.11632
-2.35699
-5.08407
-3.33102
-3.5723
-8.77902
-5.93998
-0.416473
-0.109044
-0.0433797
-0.0122922
)
;

boundaryField
{
    left
    {
        type            calculated;
        value           uniform 0;
    }
    right
    {
        type            calculated;
        value           uniform 0;
    }
    interface
    {
        type            calculated;
        value           nonuniform List<scalar> 
64
(
4.94069
5.54031
6.37649
10.9438
5.68267
3.44739
5.90571
3.27485
1.87737
1.81621
2.27763
3.57097
1.76589
2.18798
3.71031
1.93864
1.16654
1.99075
1.11232
0.630715
0.60685
0.746921
1.14957
0.555309
0.648164
1.05764
0.528922
0.268017
0.252621
0.28536
0.423833
0.194732
0.204989
0.317376
0.149095
0.0649894
0.0825874
0.0316929
-0.00456711
-0.0110696
-0.0611551
-0.132321
-0.0962855
-0.218886
-0.464324
-0.302169
-0.283549
-0.627227
-0.432737
-0.391054
-0.422086
-0.88673
-1.71051
-1.11632
-2.35699
-5.08407
-3.33102
-3.5723
-8.77902
-5.93998
-0.416473
-0.109044
-0.0433797
-0.0122922
)
;
    }
    bottom
    {
        type            calculated;
        value           nonuniform List<scalar> 
64
(
0.0050738
0.0150197
0.0243978
0.0328874
0.040244
0.0463288
0.0510864
0.0545413
0.0567789
0.0579237
0.0581193
0.057513
0.0562454
0.0544458
0.0522298
0.0497001
0.046948
0.0440533
0.0410855
0.0381033
0.0351539
0.0322737
0.0294881
0.0268133
0.0242576
0.0218229
0.019507
0.0173038
0.015205
0.0132002
0.011277
0.00942165
0.00761907
0.00585303
0.00410654
0.00236209
0.000601843
-0.00119213
-0.00303758
-0.00495179
-0.00695105
-0.00904997
-0.0112605
-0.0135908
-0.0160429
-0.018611
-0.0212781
-0.0240127
-0.0267657
-0.0294671
-0.0320242
-0.034322
-0.0362262
-0.03759
-0.0382639
-0.0381094
-0.0370127
-0.0348996
-0.0317465
-0.0275872
-0.0225135
-0.0166701
-0.0102448
-0.0034562
)
;
    }
    defaultFaces
    {
        type            empty;
    }
}


// ************************************************************************* //
