/*--------------------------------*- C++ -*----------------------------------*\
| =========                 |                                                 |
| \\      /  F ield         | OpenFOAM: The Open Source CFD Toolbox           |
|  \\    /   O peration     | Version:  5.x                                   |
|   \\  /    A nd           | Web:      www.OpenFOAM.org                      |
|    \\/     M anipulation  |                                                 |
\*---------------------------------------------------------------------------*/
FoamFile
{
    version     2.0;
    format      ascii;
    class       volScalarField;
    location    "0.3";
    object      gradTy;
}
// * * * * * * * * * * * * * * * * * * * * * * * * * * * * * * * * * * * * * //

dimensions      [0 -1 0 1 0 0 0];

internalField   nonuniform List<scalar> 
2048
(
-29.0988
-29.0765
-29.0329
-28.9696
-28.8888
-28.7933
-28.6861
-28.5699
-28.4477
-28.3219
-28.1948
-28.0683
-27.944
-27.8231
-27.7068
-27.5956
-27.4903
-27.3913
-27.2986
-27.2125
-27.1329
-27.0596
-26.9926
-26.9314
-26.876
-26.826
-26.7812
-26.7412
-26.706
-26.6752
-26.6486
-26.6262
-26.6077
-26.593
-26.5822
-26.5752
-26.5719
-26.5725
-26.577
-26.5856
-26.5985
-26.6158
-26.6377
-26.6646
-26.6967
-26.7343
-26.7776
-26.8268
-26.882
-26.9433
-27.0104
-27.0828
-27.16
-27.2409
-27.3242
-27.4081
-27.4908
-27.57
-27.6436
-27.7091
-27.7644
-27.8077
-27.8374
-27.8526
-29.1153
-29.0924
-29.0474
-28.9822
-28.8992
-28.8013
-28.6916
-28.5732
-28.4488
-28.3212
-28.1925
-28.0647
-27.9393
-27.8175
-27.7004
-27.5888
-27.4831
-27.3838
-27.291
-27.2049
-27.1253
-27.0521
-26.9852
-26.9242
-26.869
-26.8191
-26.7745
-26.7347
-26.6996
-26.6689
-26.6424
-26.62
-26.6016
-26.587
-26.5762
-26.5691
-26.5658
-26.5663
-26.5707
-26.5791
-26.5918
-26.6089
-26.6306
-26.6573
-26.6892
-26.7266
-26.7697
-26.8188
-26.8741
-26.9355
-27.0029
-27.0759
-27.1539
-27.2359
-27.3205
-27.406
-27.4905
-27.5716
-27.647
-27.7142
-27.7711
-27.8156
-27.8462
-27.8618
-29.1472
-29.1228
-29.0751
-29.0063
-28.919
-28.8164
-28.7021
-28.5792
-28.4508
-28.3197
-28.188
-28.0576
-27.9302
-27.8068
-27.6884
-27.5757
-27.4694
-27.3696
-27.2766
-27.1904
-27.1109
-27.038
-26.9713
-26.9106
-26.8557
-26.8062
-26.7618
-26.7223
-26.6875
-26.657
-26.6307
-26.6085
-26.5901
-26.5756
-26.5647
-26.5576
-26.5541
-26.5545
-26.5586
-26.5668
-26.5792
-26.5959
-26.6172
-26.6435
-26.6749
-26.7119
-26.7547
-26.8036
-26.8588
-26.9205
-26.9885
-27.0626
-27.1422
-27.2262
-27.3134
-27.402
-27.4899
-27.5746
-27.6535
-27.7241
-27.784
-27.8308
-27.8631
-27.8795
-29.1932
-29.1667
-29.1151
-29.0408
-28.9471
-28.8378
-28.7166
-28.5874
-28.4533
-28.3171
-28.1812
-28.0473
-27.917
-27.7913
-27.6711
-27.5571
-27.4498
-27.3494
-27.2562
-27.1699
-27.0906
-27.0179
-26.9517
-26.8915
-26.837
-26.7879
-26.744
-26.7049
-26.6704
-26.6403
-26.6143
-26.5923
-26.574
-26.5595
-26.5487
-26.5414
-26.5378
-26.5379
-26.5418
-26.5495
-26.5614
-26.5776
-26.5983
-26.6239
-26.6547
-26.6911
-26.7334
-26.782
-26.8372
-26.8992
-26.968
-27.0435
-27.1252
-27.2122
-27.3031
-27.396
-27.4888
-27.5788
-27.663
-27.7385
-27.8026
-27.8529
-27.8876
-27.9052
-29.2529
-29.2235
-29.1666
-29.085
-28.9828
-28.8644
-28.7345
-28.597
-28.4556
-28.3132
-28.172
-28.0338
-27.8999
-27.7714
-27.6491
-27.5334
-27.425
-27.3239
-27.2303
-27.1441
-27.065
-26.9928
-26.9271
-26.8675
-26.8136
-26.7652
-26.7218
-26.6832
-26.6492
-26.6195
-26.5938
-26.572
-26.554
-26.5396
-26.5287
-26.5214
-26.5175
-26.5173
-26.5207
-26.528
-26.5392
-26.5547
-26.5747
-26.5995
-26.6295
-26.6651
-26.7067
-26.7548
-26.8097
-26.872
-26.9417
-27.0189
-27.1032
-27.1938
-27.2894
-27.3881
-27.4873
-27.584
-27.6751
-27.757
-27.8268
-27.8816
-27.9193
-27.9386
-29.3259
-29.2929
-29.229
-29.1381
-29.0252
-28.8956
-28.7548
-28.6073
-28.4572
-28.3075
-28.1602
-28.017
-27.8792
-27.7475
-27.6226
-27.5052
-27.3954
-27.2936
-27.1997
-27.1136
-27.0349
-26.9633
-26.8982
-26.8394
-26.7862
-26.7385
-26.6958
-26.6579
-26.6244
-26.5952
-26.5699
-26.5485
-26.5306
-26.5163
-26.5054
-26.4979
-26.4939
-26.4933
-26.4962
-26.5029
-26.5134
-26.5281
-26.5471
-26.571
-26.5999
-26.6345
-26.6752
-26.7225
-26.7771
-26.8394
-26.91
-26.989
-27.0763
-27.1712
-27.2724
-27.3779
-27.485
-27.5902
-27.6897
-27.7797
-27.8564
-27.9167
-27.9582
-27.9794
-29.4122
-29.3746
-29.3021
-29.1997
-29.0735
-28.9304
-28.7766
-28.6176
-28.4576
-28.2996
-28.1456
-27.997
-27.8548
-27.7197
-27.5921
-27.4727
-27.3616
-27.259
-27.1649
-27.0789
-27.0008
-26.9299
-26.8657
-26.8078
-26.7555
-26.7086
-26.6667
-26.6295
-26.5967
-26.568
-26.5432
-26.5221
-26.5045
-26.4903
-26.4794
-26.4718
-26.4674
-26.4664
-26.4688
-26.4748
-26.4845
-26.4982
-26.5162
-26.5389
-26.5666
-26.5999
-26.6394
-26.6858
-26.7397
-26.8019
-26.8732
-26.9541
-27.0446
-27.1443
-27.2519
-27.3655
-27.4818
-27.5971
-27.7068
-27.8063
-27.8913
-27.9582
-28.0042
-28.0276
-29.5121
-29.4688
-29.3857
-29.2692
-29.1271
-28.968
-28.7992
-28.6271
-28.456
-28.289
-28.1279
-27.9737
-27.827
-27.6883
-27.5579
-27.4363
-27.3237
-27.2204
-27.1262
-27.0406
-26.9632
-26.8933
-26.8302
-26.7732
-26.722
-26.676
-26.6349
-26.5985
-26.5664
-26.5384
-26.5142
-26.4935
-26.4761
-26.4621
-26.4512
-26.4434
-26.4387
-26.4373
-26.4391
-26.4443
-26.4531
-26.4658
-26.4826
-26.5039
-26.5302
-26.5621
-26.6001
-26.6451
-26.698
-26.7598
-26.8316
-26.9141
-27.0079
-27.1128
-27.2277
-27.3504
-27.4775
-27.6045
-27.7262
-27.837
-27.9317
-28.0062
-28.0572
-28.0832
-29.626
-29.5757
-29.4797
-29.3461
-29.1853
-29.0074
-28.8215
-28.6348
-28.4518
-28.2755
-28.1071
-27.9472
-27.7959
-27.6534
-27.5201
-27.3963
-27.2823
-27.1783
-27.0841
-26.9991
-26.9226
-26.8539
-26.792
-26.7363
-26.6861
-26.6411
-26.601
-26.5655
-26.5342
-26.5069
-26.4832
-26.463
-26.446
-26.432
-26.4211
-26.4132
-26.4082
-26.4062
-26.4074
-26.4118
-26.4196
-26.4312
-26.4467
-26.4665
-26.4913
-26.5214
-26.5577
-26.601
-26.6525
-26.7135
-26.7853
-26.8693
-26.9663
-27.0766
-27.1994
-27.3323
-27.4717
-27.6124
-27.748
-27.8718
-27.9777
-28.0607
-28.1174
-28.1463
-29.7547
-29.6957
-29.584
-29.4301
-29.2471
-29.0476
-28.8426
-28.6398
-28.4443
-28.2585
-28.0829
-27.9174
-27.7616
-27.6155
-27.4791
-27.3531
-27.2377
-27.133
-27.0389
-26.9548
-26.8795
-26.8122
-26.7518
-26.6974
-26.6484
-26.6045
-26.5654
-26.5307
-26.5003
-26.4738
-26.4508
-26.4311
-26.4144
-26.4006
-26.3897
-26.3815
-26.3762
-26.3738
-26.3743
-26.3778
-26.3846
-26.3949
-26.409
-26.4273
-26.4502
-26.4785
-26.5127
-26.554
-26.6037
-26.6633
-26.7347
-26.8196
-26.9197
-27.0355
-27.1666
-27.3109
-27.4642
-27.6204
-27.772
-27.9108
-28.0294
-28.1219
-28.1848
-28.2167
-29.8989
-29.8295
-29.6989
-29.5207
-29.3116
-29.0875
-28.8612
-28.6413
-28.433
-28.2377
-28.0552
-27.8844
-27.7244
-27.5746
-27.4352
-27.3068
-27.1899
-27.0848
-26.991
-26.9079
-26.8343
-26.7687
-26.7099
-26.657
-26.6093
-26.5665
-26.5284
-26.4947
-26.4652
-26.4395
-26.4173
-26.3981
-26.3817
-26.3681
-26.3572
-26.3489
-26.3432
-26.3403
-26.34
-26.3427
-26.3484
-26.3574
-26.37
-26.3866
-26.4076
-26.4337
-26.4657
-26.5045
-26.5518
-26.6094
-26.6797
-26.7651
-26.8678
-26.9891
-27.1291
-27.2858
-27.4545
-27.6284
-27.7983
-27.9543
-28.087
-28.1899
-28.2594
-28.2943
-30.0597
-29.9776
-29.8242
-29.6172
-29.3779
-29.1259
-28.8762
-28.6383
-28.417
-28.2128
-28.0241
-27.8486
-27.6846
-27.5312
-27.3887
-27.2578
-27.1394
-27.0338
-26.9407
-26.859
-26.7873
-26.7237
-26.6668
-26.6155
-26.5691
-26.5274
-26.4903
-26.4577
-26.4292
-26.4044
-26.3829
-26.3643
-26.3484
-26.3349
-26.3239
-26.3154
-26.3095
-26.306
-26.305
-26.3068
-26.3113
-26.319
-26.33
-26.3448
-26.3639
-26.3877
-26.417
-26.453
-26.4974
-26.5524
-26.6208
-26.7059
-26.8106
-26.9372
-27.0863
-27.2563
-27.4423
-27.6361
-27.827
-28.0024
-28.151
-28.2651
-28.3412
-28.3791
-30.2384
-30.1409
-29.9601
-29.7191
-29.4448
-29.1614
-28.8864
-28.6298
-28.3958
-28.1836
-27.9896
-27.8101
-27.6424
-27.4856
-27.3399
-27.2063
-27.0863
-26.9804
-26.8881
-26.8082
-26.7388
-26.6776
-26.6229
-26.5733
-26.5282
-26.4876
-26.4515
-26.4199
-26.3925
-26.3688
-26.3481
-26.3301
-26.3145
-26.3012
-26.2902
-26.2815
-26.2752
-26.2712
-26.2695
-26.2703
-26.2737
-26.28
-26.2894
-26.3024
-26.3193
-26.3407
-26.3672
-26.4
-26.4409
-26.4925
-26.5582
-26.642
-26.748
-26.8794
-27.0378
-27.2221
-27.427
-27.6433
-27.8579
-28.0556
-28.2217
-28.3474
-28.4301
-28.4708
-30.4363
-30.3203
-30.1067
-29.8255
-29.5109
-29.1927
-28.8905
-28.6148
-28.369
-28.15
-27.952
-27.7693
-27.5984
-27.4383
-27.289
-27.1525
-27.0308
-26.9247
-26.8335
-26.7559
-26.6893
-26.6309
-26.5785
-26.5307
-26.487
-26.4473
-26.4121
-26.3816
-26.3554
-26.3327
-26.313
-26.2956
-26.2804
-26.2673
-26.2562
-26.2474
-26.2407
-26.2362
-26.2338
-26.2337
-26.2359
-26.2407
-26.2485
-26.2596
-26.2744
-26.2932
-26.3167
-26.3459
-26.3828
-26.4301
-26.492
-26.5735
-26.6798
-26.8154
-26.9831
-27.1825
-27.4082
-27.6495
-27.8913
-28.1143
-28.2996
-28.4373
-28.5259
-28.5689
-30.6552
-30.5166
-30.2641
-29.9355
-29.5747
-29.2181
-28.8871
-28.5923
-28.3359
-28.112
-27.9115
-27.7266
-27.553
-27.3895
-27.2364
-27.0965
-26.9731
-26.8668
-26.777
-26.7022
-26.639
-26.5839
-26.534
-26.488
-26.4456
-26.4068
-26.3724
-26.3429
-26.318
-26.2966
-26.2779
-26.2612
-26.2464
-26.2333
-26.2222
-26.2131
-26.2061
-26.2011
-26.1981
-26.197
-26.198
-26.2014
-26.2075
-26.2167
-26.2293
-26.2456
-26.2658
-26.2911
-26.3234
-26.3657
-26.4227
-26.5006
-26.606
-26.7449
-26.9216
-27.1369
-27.3851
-27.6543
-27.9272
-28.1791
-28.3855
-28.5349
-28.6285
-28.6729
-30.897
-30.731
-30.4322
-30.0481
-29.6345
-29.236
-28.875
-28.5614
-28.2961
-28.0695
-27.8687
-27.6825
-27.5066
-27.3398
-27.1823
-27.0385
-26.9131
-26.8068
-26.7188
-26.6474
-26.5883
-26.537
-26.4898
-26.4456
-26.4043
-26.3662
-26.3324
-26.304
-26.2806
-26.2606
-26.2429
-26.2269
-26.2125
-26.1995
-26.1882
-26.179
-26.1717
-26.1663
-26.1625
-26.1604
-26.1602
-26.1622
-26.1666
-26.1739
-26.1845
-26.1981
-26.215
-26.2362
-26.2634
-26.2996
-26.3505
-26.4235
-26.5267
-26.6677
-26.8528
-27.0847
-27.3573
-27.6572
-27.9655
-28.2509
-28.4802
-28.6406
-28.7373
-28.782
-31.1637
-30.9644
-30.6111
-30.162
-29.6881
-29.2447
-28.8528
-28.521
-28.2493
-28.023
-27.8241
-27.6377
-27.4599
-27.2898
-27.1271
-26.9785
-26.8511
-26.7449
-26.659
-26.5917
-26.5375
-26.4905
-26.4462
-26.4037
-26.3635
-26.3256
-26.2922
-26.2651
-26.2433
-26.2249
-26.2083
-26.193
-26.1789
-26.1659
-26.1545
-26.1451
-26.1376
-26.1317
-26.1273
-26.1242
-26.1228
-26.1233
-26.126
-26.1315
-26.14
-26.1512
-26.1647
-26.1816
-26.2032
-26.2325
-26.2759
-26.3423
-26.4419
-26.5835
-26.776
-27.0252
-27.3239
-27.6574
-28.0064
-28.3309
-28.5849
-28.7546
-28.8519
-28.8951
-31.4579
-31.2178
-30.8009
-30.2755
-29.7331
-29.2427
-28.8195
-28.4702
-28.1952
-27.9727
-27.7785
-27.5927
-27.4131
-27.2401
-27.071
-26.9165
-26.7871
-26.6811
-26.5975
-26.5352
-26.4869
-26.4449
-26.4035
-26.3626
-26.3233
-26.2853
-26.2519
-26.226
-26.2062
-26.1897
-26.1742
-26.1596
-26.1459
-26.1328
-26.1211
-26.1115
-26.1038
-26.0975
-26.0925
-26.0886
-26.0859
-26.0848
-26.0859
-26.0895
-26.0963
-26.1051
-26.1152
-26.1276
-26.1432
-26.1647
-26.1992
-26.2574
-26.3517
-26.4922
-26.6908
-26.9577
-27.2844
-27.6537
-28.0495
-28.4205
-28.7008
-28.8771
-28.9715
-29.0112
-31.7823
-31.492
-31.0017
-30.3871
-29.7666
-29.2283
-28.7741
-28.408
-28.1337
-27.9192
-27.7331
-27.5482
-27.3668
-27.1914
-27.0143
-26.8521
-26.7211
-26.6156
-26.5344
-26.4782
-26.4368
-26.4007
-26.3619
-26.3224
-26.284
-26.2453
-26.2114
-26.1869
-26.1695
-26.1552
-26.1409
-26.1268
-26.1135
-26.1002
-26.0881
-26.0784
-26.0706
-26.064
-26.0584
-26.0535
-26.0495
-26.047
-26.0463
-26.0481
-26.0533
-26.0601
-26.0666
-26.0746
-26.0842
-26.0967
-26.1209
-26.169
-26.2564
-26.3937
-26.5962
-26.8818
-27.2383
-27.6449
-28.0946
-28.5218
-28.8298
-29.0084
-29.0952
-29.1287
-32.1403
-31.7871
-31.2141
-30.4946
-29.785
-29.2006
-28.7158
-28.3331
-28.0647
-27.863
-27.6891
-27.5046
-27.3212
-27.1446
-26.9573
-26.785
-26.6533
-26.5485
-26.4694
-26.4207
-26.3875
-26.3583
-26.3218
-26.2833
-26.246
-26.2057
-26.1705
-26.1479
-26.1332
-26.1217
-26.1083
-26.0947
-26.0819
-26.0682
-26.0555
-26.0458
-26.0379
-26.0311
-26.025
-26.0192
-26.0139
-26.0099
-26.0074
-26.0073
-26.0113
-26.0164
-26.0194
-26.0231
-26.0266
-26.0292
-26.0414
-26.0773
-26.1564
-26.2881
-26.4914
-26.7969
-27.1853
-27.6287
-28.1409
-28.6378
-28.9739
-29.1485
-29.2218
-29.246
-32.5357
-32.1024
-31.4393
-30.5958
-29.7837
-29.1588
-28.6445
-28.244
-27.9884
-27.8048
-27.6483
-27.4626
-27.2762
-27.1012
-26.9001
-26.7143
-26.5841
-26.4799
-26.4023
-26.3629
-26.3394
-26.3184
-26.2833
-26.2452
-26.2096
-26.1666
-26.129
-26.1088
-26.0976
-26.0893
-26.0767
-26.0634
-26.0513
-26.0368
-26.0233
-26.0138
-26.006
-25.999
-25.9924
-25.9857
-25.9791
-25.9736
-25.9693
-25.9671
-25.9704
-25.9744
-25.9735
-25.9732
-25.9711
-25.9626
-25.9613
-25.9826
-26.0522
-26.1758
-26.3753
-26.7027
-27.1258
-27.6025
-28.187
-28.7723
-29.1356
-29.2972
-29.3498
-29.3614
-32.9734
-32.4356
-31.6793
-30.6883
-29.7565
-29.1034
-28.5604
-28.1386
-27.9052
-27.7452
-27.613
-27.4221
-27.2314
-27.0629
-26.843
-26.6387
-26.514
-26.4104
-26.3324
-26.3051
-26.2926
-26.2818
-26.2465
-26.208
-26.1754
-26.128
-26.0864
-26.0698
-26.0627
-26.0585
-26.046
-26.0328
-26.022
-26.0063
-25.9915
-25.9825
-25.9749
-25.9677
-25.9608
-25.9532
-25.9452
-25.9383
-25.932
-25.9275
-25.9308
-25.9343
-25.929
-25.9253
-25.9184
-25.8974
-25.8811
-25.8849
-25.9447
-26.0574
-26.2463
-26.5989
-27.061
-27.5621
-28.2305
-28.9309
-29.3176
-29.4539
-29.4776
-29.4729
-33.4597
-32.782
-31.9382
-30.7692
-29.6955
-29.0363
-28.4645
-28.014
-27.8162
-27.6844
-27.5863
-27.3833
-27.1855
-27.0324
-26.7861
-26.5562
-26.4439
-26.3403
-26.2589
-26.2476
-26.2472
-26.2495
-26.2113
-26.1713
-26.1442
-26.09
-26.0423
-26.0308
-26.0285
-26.0297
-26.0164
-26.0028
-25.9941
-25.9765
-25.9599
-25.9519
-25.9446
-25.9373
-25.9302
-25.9217
-25.9121
-25.904
-25.8957
-25.8881
-25.8923
-25.8967
-25.8859
-25.8794
-25.8694
-25.834
-25.8013
-25.7839
-25.8347
-25.9342
-26.1018
-26.4854
-26.9935
-27.5021
-28.2679
-29.1217
-29.5227
-29.6177
-29.603
-29.5785
-34.0027
-33.1327
-32.2231
-30.8355
-29.5895
-28.9619
-28.3585
-27.8657
-27.7233
-27.6223
-27.5726
-27.3453
-27.1363
-27.0138
-26.7295
-26.4635
-26.3755
-26.2705
-26.1803
-26.1911
-26.2033
-26.223
-26.1777
-26.1344
-26.1172
-26.0525
-25.9955
-25.9922
-25.995
-26.0035
-25.9878
-25.9731
-25.968
-25.9475
-25.9283
-25.9222
-25.9153
-25.9078
-25.9007
-25.8914
-25.88
-25.8708
-25.8605
-25.8487
-25.8552
-25.862
-25.8438
-25.8356
-25.825
-25.7727
-25.7229
-25.6791
-25.7235
-25.808
-25.9384
-26.3621
-26.9285
-27.415
-28.2932
-29.3556
-29.7538
-29.7866
-29.7239
-29.6763
-34.6135
-33.4726
-32.5457
-30.8841
-29.4232
-28.8878
-28.2454
-27.6868
-27.6298
-27.5573
-27.578
-27.3069
-27.0801
-27.0126
-26.6733
-26.356
-26.3117
-26.2018
-26.0942
-26.1365
-26.1602
-26.2041
-26.145
-26.0961
-26.0959
-26.0155
-25.9448
-25.9542
-25.9621
-25.9806
-25.9599
-25.9435
-25.9444
-25.9193
-25.8964
-25.8935
-25.887
-25.8793
-25.8723
-25.8622
-25.8486
-25.8388
-25.8266
-25.8088
-25.8193
-25.8312
-25.8021
-25.7935
-25.7866
-25.7135
-25.6469
-25.5692
-25.6126
-25.6821
-25.751
-26.2288
-26.8743
-27.2902
-28.2979
-29.6488
-30.013
-29.9579
-29.8376
-29.7645
-35.3073
-33.7776
-32.9245
-30.9112
-29.1753
-28.8268
-28.1288
-27.4675
-27.5416
-27.4861
-27.6109
-27.2659
-27.0109
-27.0373
-26.6171
-26.2268
-26.2565
-26.1356
-25.9972
-26.0859
-26.1168
-26.1957
-26.1124
-26.0546
-26.0831
-25.9789
-25.8884
-25.9178
-25.9292
-25.9621
-25.9326
-25.9132
-25.9239
-25.8918
-25.8636
-25.8661
-25.8596
-25.8515
-25.8452
-25.8343
-25.818
-25.8081
-25.7944
-25.7675
-25.7845
-25.8053
-25.7599
-25.7528
-25.7558
-25.6559
-25.575
-25.4522
-25.5036
-25.5612
-25.5322
-26.0849
-26.8439
-27.1138
-28.2693
-30.0234
-30.3011
-30.1278
-29.9416
-29.8414
-36.1053
-34.0106
-33.3884
-30.9126
-28.8164
-28.7987
-28.0139
-27.1932
-27.4683
-27.4022
-27.6834
-27.2185
-26.92
-27.0999
-26.5606
-26.0662
-26.2167
-26.0735
-25.8843
-26.0422
-26.0708
-26.2016
-26.0788
-26.007
-26.082
-25.9425
-25.8235
-25.8841
-25.8957
-25.9496
-25.9053
-25.8812
-25.9078
-25.8649
-25.8292
-25.8403
-25.8333
-25.8245
-25.8193
-25.8078
-25.7877
-25.7788
-25.7644
-25.7239
-25.7505
-25.7859
-25.7159
-25.7127
-25.735
-25.5988
-25.5094
-25.3246
-25.3984
-25.4528
-25.2715
-25.9287
-26.8571
-26.8671
-28.1893
-30.5109
-30.6162
-30.2912
-30.0332
-29.9058
-37.0367
-34.1161
-33.9805
-30.8834
-28.3064
-28.8329
-27.9066
-26.8427
-27.4251
-27.2941
-27.8123
-27.1598
-26.7946
-27.2172
-26.5027
-25.8606
-26.2018
-26.0175
-25.7483
-26.0104
-26.0185
-26.2273
-26.0424
-25.9495
-26.098
-25.9056
-25.7468
-25.8555
-25.8598
-25.9452
-25.8772
-25.8462
-25.8975
-25.8381
-25.7922
-25.8167
-25.8079
-25.7979
-25.7946
-25.7827
-25.7575
-25.7508
-25.7375
-25.6764
-25.7169
-25.7755
-25.6682
-25.672
-25.7275
-25.5402
-25.454
-25.1815
-25.299
-25.3675
-24.9546
-25.7572
-26.9428
-26.5255
-28.0325
-31.1545
-30.9521
-30.4418
-30.11
-29.9568
-38.1419
-34.0135
-34.7635
-30.8172
-27.591
-28.9715
-27.8139
-26.3867
-27.4357
-27.1431
-28.0212
-27.0825
-26.6167
-27.4124
-26.4418
-25.5917
-26.2257
-25.9699
-25.5789
-25.9982
-25.9534
-26.2804
-26.0004
-25.8764
-26.1379
-25.8676
-25.6534
-25.8354
-25.8193
-25.9519
-25.8473
-25.8063
-25.8955
-25.8112
-25.7512
-25.7962
-25.7833
-25.7717
-25.7713
-25.7593
-25.7269
-25.7241
-25.7148
-25.6232
-25.6831
-25.7773
-25.6139
-25.6288
-25.7378
-25.4763
-25.4142
-25.0157
-25.2072
-25.3206
-24.562
-25.5648
-27.1417
-26.0573
-27.7638
-32.0134
-31.2961
-30.5724
-30.1698
-29.994
-39.4761
-33.5891
-35.8271
-30.7055
-26.5976
-29.2738
-27.7431
-25.7843
-27.5352
-26.9202
-28.3426
-26.9767
-26.3619
-27.7173
-26.3753
-25.2346
-26.3079
-25.9332
-25.3623
-26.0174
-25.8661
-26.3717
-25.9497
-25.7805
-26.2114
-25.8271
-25.5372
-25.8292
-25.7702
-25.9739
-25.8141
-25.7591
-25.9049
-25.7835
-25.7046
-25.7801
-25.7593
-25.7455
-25.7495
-25.7379
-25.6953
-25.6987
-25.6982
-25.5618
-25.6481
-25.796
-25.5498
-25.5809
-25.7721
-25.4016
-25.3982
-24.8172
-25.1242
-25.3338
-24.0679
-25.3419
-27.5097
-25.422
-27.3362
-33.1675
-31.6257
-30.6756
-30.2113
-30.0175
-41.1134
-32.6858
-37.2952
-30.5364
-25.2313
-29.8204
-27.7016
-24.9806
-27.7751
-26.5825
-28.8209
-26.8294
-25.9974
-28.1743
-26.2993
-24.7573
-26.475
-25.91
-25.0798
-26.0849
-25.7424
-26.5157
-25.8855
-25.6518
-26.3316
-25.7825
-25.3902
-25.8445
-25.7071
-26.0171
-25.7757
-25.7016
-25.9301
-25.7543
-25.6504
-25.7705
-25.7358
-25.7192
-25.7294
-25.7192
-25.6621
-25.6744
-25.6905
-25.4892
-25.6107
-25.8378
-25.4713
-25.5251
-25.8391
-25.3076
-25.4182
-24.5728
-25.0508
-25.4365
-23.4394
-25.0739
-28.1222
-24.5685
-26.687
-34.7235
-31.9053
-30.7443
-30.2342
-30.0279
-43.1524
-31.0917
-39.3365
-30.2931
-23.3695
-30.719
-27.6958
-23.9026
-28.2275
-26.0675
-29.5154
-26.6235
-25.4801
-28.8385
-26.2079
-24.1177
-26.7627
-25.9027
-24.7066
-26.2248
-25.5616
-26.7321
-25.8018
-25.4774
-26.5154
-25.731
-25.202
-25.8921
-25.6216
-26.0893
-25.7296
-25.6294
-25.9768
-25.7222
-25.5859
-25.7699
-25.7122
-25.6924
-25.7112
-25.7039
-25.6264
-25.651
-25.6953
-25.4017
-25.569
-25.911
-25.3726
-25.4572
-25.9506
-25.1817
-25.4907
-24.2648
-24.9857
-25.6681
-22.6344
-24.7384
-29.0779
-23.4338
-25.7343
-36.8203
-32.0804
-30.7733
-30.2387
-30.0264
)
;

boundaryField
{
    left
    {
        type            calculated;
        value           nonuniform List<scalar> 
32
(
-29.0988
-29.1153
-29.1472
-29.1932
-29.2529
-29.3259
-29.4122
-29.5121
-29.626
-29.7547
-29.8989
-30.0597
-30.2384
-30.4363
-30.6552
-30.897
-31.1637
-31.4579
-31.7823
-32.1403
-32.5357
-32.9734
-33.4597
-34.0027
-34.6135
-35.3073
-36.1053
-37.0367
-38.1419
-39.4761
-41.1134
-43.1524
)
;
    }
    right
    {
        type            calculated;
        value           nonuniform List<scalar> 
32
(
-27.8526
-27.8618
-27.8795
-27.9052
-27.9386
-27.9794
-28.0276
-28.0832
-28.1463
-28.2167
-28.2943
-28.3791
-28.4708
-28.5689
-28.6729
-28.782
-28.8951
-29.0112
-29.1287
-29.246
-29.3614
-29.4729
-29.5785
-29.6763
-29.7645
-29.8414
-29.9058
-29.9568
-29.994
-30.0175
-30.0279
-30.0264
)
;
    }
    interface
    {
        type            calculated;
        value           nonuniform List<scalar> 
64
(
-44.2863
-30.0916
-40.5246
-30.1504
-22.2974
-31.2715
-27.7024
-23.2846
-28.5174
-25.7566
-29.9253
-26.5035
-25.1771
-29.2303
-26.1576
-23.7516
-26.9417
-25.9033
-24.4938
-26.3164
-25.4538
-26.8612
-25.7542
-25.377
-26.6256
-25.7032
-25.0961
-25.9256
-25.5721
-26.1337
-25.7042
-25.5891
-26.0064
-25.7053
-25.5507
-25.7721
-25.7003
-25.6788
-25.7026
-25.6971
-25.6078
-25.6394
-25.7013
-25.3536
-25.5467
-25.9566
-25.3173
-25.4195
-26.0191
-25.1089
-25.5425
-24.0923
-24.9549
-25.8217
-22.1819
-24.5504
-29.6556
-22.7874
-25.1704
-38.0237
-32.1338
-30.7774
-30.2365
-30.0226
)
;
    }
    bottom
    {
        type            calculated;
        value           nonuniform List<scalar> 
64
(
-29.0945
-29.0724
-29.0292
-28.9663
-28.8861
-28.7913
-28.6846
-28.569
-28.4474
-28.3221
-28.1954
-28.0693
-27.9452
-27.8246
-27.7084
-27.5974
-27.4922
-27.3932
-27.3006
-27.2145
-27.1349
-27.0616
-26.9945
-26.9333
-26.8778
-26.8278
-26.7829
-26.7429
-26.7076
-26.6768
-26.6502
-26.6278
-26.6092
-26.5946
-26.5838
-26.5767
-26.5735
-26.5741
-26.5787
-26.5873
-26.6002
-26.6176
-26.6396
-26.6666
-26.6987
-26.7363
-26.7797
-26.8289
-26.8841
-26.9453
-27.0123
-27.0846
-27.1616
-27.2422
-27.3251
-27.4086
-27.4909
-27.5696
-27.6427
-27.7077
-27.7627
-27.8057
-27.8352
-27.8502
)
;
    }
    defaultFaces
    {
        type            empty;
    }
}


// ************************************************************************* //
