/*--------------------------------*- C++ -*----------------------------------*\
| =========                 |                                                 |
| \\      /  F ield         | OpenFOAM: The Open Source CFD Toolbox           |
|  \\    /   O peration     | Version:  5.x                                   |
|   \\  /    A nd           | Web:      www.OpenFOAM.org                      |
|    \\/     M anipulation  |                                                 |
\*---------------------------------------------------------------------------*/
FoamFile
{
    version     2.0;
    format      ascii;
    class       volScalarField;
    location    "0.3";
    object      T;
}
// * * * * * * * * * * * * * * * * * * * * * * * * * * * * * * * * * * * * * //

dimensions      [0 0 0 1 0 0 0];

internalField   nonuniform List<scalar> 
2048
(
9.79098
9.79114
9.79145
9.7919
9.79247
9.79316
9.79392
9.79475
9.79563
9.79653
9.79744
9.79834
9.79923
9.8001
9.80094
9.80173
9.80249
9.8032
9.80387
9.80448
9.80506
9.80558
9.80606
9.8065
9.8069
9.80726
9.80758
9.80787
9.80813
9.80835
9.80854
9.8087
9.80883
9.80894
9.80901
9.80907
9.80909
9.80908
9.80905
9.80899
9.8089
9.80877
9.80861
9.80842
9.80819
9.80792
9.80761
9.80725
9.80686
9.80642
9.80594
9.80542
9.80486
9.80428
9.80369
9.80309
9.8025
9.80193
9.80141
9.80094
9.80055
9.80024
9.80002
9.79992
9.38195
9.38243
9.38336
9.3847
9.38642
9.38846
9.39074
9.39321
9.39581
9.39848
9.40119
9.40387
9.40652
9.40909
9.41156
9.41392
9.41616
9.41826
9.42023
9.42206
9.42375
9.4253
9.42673
9.42803
9.4292
9.43027
9.43122
9.43207
9.43281
9.43347
9.43403
9.43451
9.4349
9.43521
9.43544
9.43559
9.43566
9.43565
9.43555
9.43537
9.4351
9.43473
9.43426
9.43369
9.43301
9.43221
9.43129
9.43025
9.42908
9.42778
9.42635
9.42481
9.42317
9.42145
9.41968
9.41789
9.41613
9.41445
9.41288
9.41149
9.41031
9.40939
9.40876
9.40843
8.99049
8.99128
8.99282
8.99507
8.99792
9.0013
9.00508
9.00916
9.01345
9.01786
9.02231
9.02673
9.03107
9.03528
9.03934
9.0432
9.04686
9.05031
9.05352
9.05651
9.05927
9.06181
9.06413
9.06624
9.06816
9.06989
9.07144
9.07282
9.07404
9.07511
9.07603
9.0768
9.07744
9.07795
9.07833
9.07857
9.07869
9.07867
9.07851
9.07822
9.07778
9.07718
9.07643
9.0755
9.07439
9.07309
9.0716
9.06989
9.06798
9.06585
9.06352
9.06099
9.05829
9.05546
9.05254
9.04959
9.04667
9.04388
9.04128
9.03897
9.03701
9.03548
9.03442
9.03389
8.61564
8.61675
8.61893
8.62209
8.6261
8.63083
8.63612
8.64182
8.64779
8.65391
8.66008
8.66619
8.67218
8.678
8.68358
8.6889
8.69394
8.69866
8.70308
8.70717
8.71095
8.71443
8.71761
8.7205
8.72312
8.72548
8.7276
8.72949
8.73115
8.73261
8.73386
8.73492
8.7358
8.73649
8.73701
8.73735
8.73751
8.73748
8.73728
8.73688
8.73628
8.73548
8.73445
8.73319
8.73168
8.72991
8.72787
8.72553
8.72291
8.71999
8.71677
8.71329
8.70955
8.70563
8.70156
8.69745
8.69338
8.68947
8.68583
8.68258
8.67983
8.67768
8.6762
8.67544
8.25653
8.25799
8.26083
8.26494
8.27015
8.27627
8.28309
8.29043
8.29809
8.30592
8.31378
8.32157
8.32918
8.33656
8.34363
8.35036
8.35672
8.36269
8.36825
8.3734
8.37816
8.38252
8.38651
8.39014
8.39343
8.39639
8.39905
8.40141
8.4035
8.40532
8.40689
8.40822
8.40932
8.41019
8.41084
8.41127
8.41147
8.41145
8.4112
8.41071
8.40997
8.40897
8.40769
8.40612
8.40424
8.40203
8.39946
8.39654
8.39324
8.38955
8.38549
8.38106
8.37631
8.37129
8.36609
8.3608
8.35556
8.3505
8.34579
8.34158
8.33801
8.33521
8.33329
8.33231
7.91235
7.91417
7.91772
7.92284
7.9293
7.93687
7.94528
7.95429
7.96366
7.9732
7.98276
7.99219
8.0014
8.0103
8.01883
8.02693
8.03457
8.04173
8.04839
8.05456
8.06024
8.06545
8.07021
8.07454
8.07845
8.08198
8.08514
8.08796
8.09044
8.09261
8.09448
8.09607
8.09738
8.09842
8.09919
8.09971
8.09996
8.09994
8.09965
8.09908
8.09821
8.09704
8.09553
8.09367
8.09144
8.08881
8.08577
8.08228
8.07834
8.07392
8.06903
8.06368
8.05793
8.05182
8.04546
8.03898
8.03253
8.02629
8.02046
8.01525
8.01082
8.00735
8.00496
8.00375
7.58233
7.58454
7.58885
7.59505
7.60285
7.61195
7.62201
7.63273
7.64384
7.65511
7.66636
7.67743
7.68821
7.69861
7.70856
7.71799
7.72687
7.73518
7.7429
7.75003
7.7566
7.76261
7.76809
7.77307
7.77758
7.78164
7.78528
7.78852
7.79137
7.79387
7.79602
7.79785
7.79935
7.80056
7.80145
7.80205
7.80235
7.80235
7.80203
7.80138
7.8004
7.79906
7.79735
7.79523
7.79268
7.78967
7.78617
7.78216
7.7776
7.77248
7.7668
7.76055
7.7538
7.7466
7.73907
7.73136
7.72365
7.71618
7.70919
7.70291
7.69758
7.6934
7.69052
7.68905
7.26574
7.26838
7.27352
7.28089
7.29013
7.30084
7.31263
7.32512
7.33801
7.35102
7.36396
7.37666
7.389
7.40087
7.4122
7.42293
7.43301
7.44242
7.45116
7.45921
7.46661
7.47338
7.47955
7.48515
7.49022
7.49478
7.49886
7.50249
7.5057
7.5085
7.51092
7.51296
7.51466
7.51601
7.51703
7.51771
7.51806
7.51807
7.51772
7.51702
7.51594
7.51446
7.51255
7.5102
7.50736
7.504
7.50009
7.49558
7.49045
7.48466
7.4782
7.47108
7.46334
7.45504
7.44631
7.43734
7.42833
7.41956
7.41133
7.40392
7.39763
7.39269
7.3893
7.38757
6.9619
6.96502
6.97107
6.97972
6.9905
7.00294
7.01654
7.03088
7.04558
7.06036
7.075
7.08931
7.10318
7.11649
7.12918
7.14117
7.15241
7.16289
7.17259
7.18153
7.18972
7.1972
7.20401
7.21019
7.21578
7.22081
7.22531
7.22931
7.23284
7.23593
7.23859
7.24085
7.24272
7.24422
7.24534
7.24611
7.2465
7.24653
7.24617
7.24542
7.24425
7.24264
7.24057
7.23801
7.2349
7.23123
7.22693
7.22197
7.2163
7.20988
7.20268
7.19471
7.18598
7.17658
7.16663
7.15634
7.14597
7.13583
7.12628
7.11768
7.11036
7.10461
7.10066
7.09865
6.67016
6.67381
6.68088
6.69092
6.70339
6.71767
6.73319
6.74944
6.766
6.78256
6.79888
6.8148
6.83018
6.84491
6.85892
6.87214
6.88451
6.89601
6.90664
6.91641
6.92534
6.93349
6.94091
6.94763
6.9537
6.95917
6.96406
6.96841
6.97224
6.97559
6.97848
6.98094
6.98298
6.98461
6.98584
6.98669
6.98713
6.98718
6.98681
6.98602
6.98478
6.98307
6.98085
6.9781
6.97476
6.97079
6.96615
6.96077
6.95461
6.94759
6.93969
6.93088
6.92119
6.91067
6.89948
6.88783
6.87603
6.86444
6.85348
6.84359
6.83517
6.82857
6.82403
6.82172
6.38989
6.39415
6.40234
6.41394
6.42824
6.44451
6.46205
6.48028
6.49874
6.51709
6.53509
6.55259
6.56945
6.58558
6.60088
6.61529
6.62876
6.64125
6.65276
6.66331
6.67295
6.68172
6.6897
6.69692
6.70345
6.70932
6.71458
6.71925
6.72336
6.72696
6.73006
6.7327
6.73489
6.73666
6.73799
6.73891
6.73941
6.73948
6.73912
6.73829
6.737
6.73519
6.73285
6.72993
6.72639
6.72217
6.71721
6.71146
6.70483
6.69726
6.6887
6.67909
6.66844
6.65681
6.64434
6.63128
6.61797
6.60483
6.59237
6.5811
6.5715
6.56398
6.55882
6.5562
6.12052
6.12545
6.13491
6.14823
6.16453
6.18293
6.2026
6.22289
6.24328
6.26343
6.2831
6.30216
6.32047
6.33796
6.35453
6.37011
6.38463
6.39807
6.41042
6.42171
6.432
6.44136
6.44986
6.45755
6.4645
6.47075
6.47635
6.48131
6.48569
6.48951
6.49281
6.49562
6.49796
6.49984
6.50128
6.50227
6.50282
6.50292
6.50256
6.50172
6.50038
6.4985
6.49605
6.49299
6.48926
6.48482
6.47959
6.4735
6.46646
6.45838
6.44919
6.43881
6.42723
6.41449
6.40072
6.3862
6.37129
6.35651
6.34243
6.32968
6.31882
6.31033
6.30452
6.30156
5.86147
5.86716
5.87805
5.89328
5.91178
5.93247
5.9544
5.97681
5.99915
6.02109
6.04242
6.063
6.08274
6.10156
6.11937
6.13608
6.15163
6.16597
6.17912
6.19111
6.20201
6.21191
6.22088
6.22901
6.23635
6.24296
6.24886
6.25411
6.25872
6.26275
6.26624
6.2692
6.27168
6.27367
6.27521
6.27627
6.27688
6.27701
6.27666
6.27581
6.27443
6.27249
6.26995
6.26677
6.26289
6.25825
6.25278
6.24639
6.23899
6.23045
6.22068
6.20958
6.19709
6.18323
6.16815
6.1521
6.13552
6.11898
6.10317
6.08882
6.07661
6.06709
6.0606
6.0573
5.6122
5.61877
5.63126
5.64863
5.66954
5.69269
5.71698
5.74158
5.7659
5.78961
5.81255
5.83462
5.85576
5.87588
5.8949
5.91272
5.92926
5.94448
5.95838
5.97102
5.98248
5.99286
6.00228
6.01081
6.01852
6.02545
6.03165
6.03715
6.04199
6.04621
6.04986
6.05297
6.05557
6.05768
6.0593
6.06044
6.06109
6.06126
6.06093
6.06007
6.05867
6.05669
6.05408
6.0508
6.04679
6.04199
6.03631
6.02967
6.02194
6.013
6.0027
5.99091
5.97755
5.96259
5.94617
5.92855
5.9102
5.89179
5.87411
5.85803
5.84439
5.83378
5.82658
5.82295
5.37221
5.37976
5.39408
5.41382
5.43737
5.46317
5.48995
5.51679
5.54308
5.56854
5.59305
5.61657
5.63905
5.66045
5.68066
5.69956
5.71707
5.73312
5.74773
5.76097
5.77294
5.78377
5.79359
5.80249
5.81054
5.81778
5.82425
5.82998
5.83502
5.83942
5.84322
5.84646
5.84918
5.85139
5.8531
5.85431
5.85502
5.85523
5.85491
5.85406
5.85265
5.85063
5.84797
5.84461
5.84049
5.83555
5.8297
5.82284
5.81484
5.80555
5.79478
5.78236
5.76817
5.75213
5.73435
5.71511
5.6949
5.67449
5.65479
5.63686
5.62168
5.60994
5.60202
5.59804
5.14098
5.14967
5.16604
5.18844
5.21489
5.24352
5.2729
5.30202
5.33028
5.35744
5.38346
5.40837
5.43217
5.45481
5.47618
5.49615
5.51459
5.53144
5.54673
5.56051
5.57294
5.58418
5.59436
5.6036
5.61196
5.61949
5.62622
5.63217
5.63739
5.64194
5.64588
5.64925
5.65207
5.65438
5.65618
5.65745
5.65822
5.65846
5.65818
5.65734
5.65592
5.65388
5.65118
5.64776
5.64356
5.6385
5.63251
5.62548
5.61726
5.60766
5.59649
5.5835
5.56852
5.55143
5.53229
5.51136
5.4892
5.46666
5.44478
5.42485
5.40803
5.39513
5.38649
5.38217
4.91804
4.92803
4.94673
4.97211
5.00173
5.03338
5.06546
5.09691
5.1271
5.15589
5.18335
5.2096
5.23468
5.25852
5.28105
5.30207
5.32141
5.33903
5.35493
5.36922
5.38206
5.39365
5.40416
5.41371
5.42236
5.43017
5.43714
5.44329
5.44867
5.45336
5.45742
5.4609
5.46383
5.46623
5.46811
5.46945
5.47027
5.47056
5.4703
5.46948
5.46807
5.46602
5.46329
5.45983
5.45555
5.45041
5.44431
5.43714
5.42874
5.41891
5.4074
5.39391
5.37819
5.36008
5.33959
5.31693
5.29272
5.2679
5.24368
5.22156
5.20301
5.18892
5.17958
5.17494
4.70293
4.71441
4.73574
4.76445
4.79755
4.8324
4.86729
4.90107
4.93315
4.96349
4.9923
5.01984
5.04614
5.07117
5.09483
5.11688
5.13711
5.15546
5.17195
5.18668
5.19988
5.21177
5.22258
5.23241
5.24134
5.2494
5.2566
5.26293
5.26846
5.27327
5.27744
5.28102
5.28405
5.28654
5.28849
5.28991
5.29078
5.2911
5.29088
5.29008
5.28868
5.28664
5.2839
5.2804
5.27608
5.27087
5.26469
5.25741
5.24889
5.23888
5.22709
5.21317
5.19679
5.17771
5.15586
5.13144
5.10508
5.07785
5.05108
5.02659
5.00621
4.99092
4.98092
4.97599
4.4952
4.5084
4.5327
4.56513
4.60203
4.64027
4.67803
4.71417
4.74806
4.77984
4.80991
4.83867
4.86616
4.89233
4.91712
4.94022
4.9613
4.98034
4.99737
5.0125
5.02599
5.03814
5.04921
5.05931
5.06849
5.07681
5.08422
5.09072
5.09637
5.10128
5.10555
5.10923
5.11235
5.11492
5.11695
5.11843
5.11935
5.11972
5.11953
5.11876
5.11739
5.11536
5.11262
5.1091
5.10473
5.09947
5.09324
5.0859
5.07729
5.06717
5.05519
5.04091
5.02393
5.00393
4.98077
4.95452
4.92593
4.89615
4.86662
4.83952
4.8172
4.80075
4.79014
4.78496
4.29441
4.30962
4.33724
4.37383
4.4149
4.45667
4.49738
4.53587
4.57148
4.60458
4.63578
4.6657
4.69433
4.72161
4.74755
4.77169
4.7936
4.8133
4.83084
4.84629
4.86002
4.87238
4.88369
4.89403
4.90345
4.91201
4.91964
4.92629
4.93204
4.93704
4.94139
4.94516
4.94835
4.95101
4.95312
4.95466
4.95563
4.95604
4.95589
4.95516
4.95381
4.9518
4.94907
4.94554
4.94115
4.93585
4.92959
4.92221
4.91356
4.90339
4.89129
4.87675
4.85924
4.8384
4.81395
4.78586
4.75493
4.72247
4.68993
4.65995
4.63561
4.61803
4.60691
4.60155
4.10015
4.11769
4.14902
4.19028
4.23589
4.2813
4.32502
4.36586
4.40306
4.43732
4.46953
4.50055
4.53029
4.55863
4.58573
4.61094
4.63364
4.65397
4.67198
4.6877
4.7016
4.71412
4.72564
4.73621
4.74585
4.75466
4.76251
4.76928
4.77512
4.78017
4.7846
4.78845
4.79172
4.79446
4.79665
4.79825
4.79926
4.79972
4.7996
4.79891
4.7976
4.79561
4.7929
4.78939
4.78497
4.77965
4.77338
4.76599
4.75734
4.74719
4.73505
4.72033
4.70237
4.68076
4.65509
4.6251
4.59174
4.55651
4.52069
4.48749
4.46105
4.44245
4.43093
4.42546
3.912
3.93229
3.96769
4.01418
4.06478
4.11389
4.16065
4.20384
4.24246
4.27771
4.31076
4.34286
4.37368
4.40302
4.43132
4.45764
4.48109
4.50201
4.52046
4.53638
4.55039
4.563
4.57471
4.5855
4.59534
4.60441
4.61248
4.61937
4.62525
4.63034
4.63485
4.63877
4.64211
4.64494
4.64721
4.64886
4.64992
4.65041
4.65034
4.64968
4.64841
4.64647
4.64379
4.64029
4.63586
4.63051
4.62426
4.61688
4.60826
4.59819
4.5861
4.57131
4.55298
4.53068
4.50389
4.47194
4.43605
4.39799
4.35859
4.32174
4.29314
4.27366
4.26191
4.25641
3.72955
3.75312
3.79293
3.84531
3.90138
3.95414
4.00396
4.04954
4.08936
4.12542
4.15912
4.19229
4.22417
4.25441
4.28398
4.31148
4.33559
4.35708
4.37596
4.392
4.40604
4.41867
4.43059
4.44159
4.4516
4.46094
4.46926
4.47622
4.48214
4.48724
4.49181
4.4958
4.4992
4.50212
4.50447
4.50617
4.50727
4.50781
4.50777
4.50716
4.50594
4.50403
4.50139
4.49792
4.49348
4.48811
4.4819
4.47456
4.46598
4.45606
4.44411
4.42934
4.41071
4.38783
4.36004
4.32608
4.28753
4.24667
4.20335
4.1623
4.13151
4.11137
4.09958
4.09416
3.55238
3.57994
3.6244
3.68344
3.74556
3.80175
3.85466
3.90269
3.94343
3.98011
4.01422
4.0485
4.08145
4.11243
4.14337
4.17217
4.19682
4.21886
4.23818
4.25422
4.26823
4.28082
4.29295
4.30417
4.3143
4.32395
4.33254
4.33954
4.34545
4.35053
4.35518
4.35925
4.36268
4.3657
4.36815
4.36988
4.37102
4.37159
4.37159
4.37103
4.36986
4.368
4.36541
4.362
4.35752
4.35213
4.34599
4.33869
4.33017
4.32047
4.30874
4.29413
4.27525
4.25188
4.22328
4.18722
4.14587
4.10235
4.05472
4.00872
3.97581
3.9553
3.94371
3.93847
3.38008
3.41257
3.46173
3.52835
3.59721
3.65642
3.71244
3.76307
3.80437
3.84147
3.87569
3.91119
3.94522
3.97672
4.0092
4.03944
4.06445
4.08703
4.10683
4.12276
4.13668
4.14911
4.16149
4.17294
4.18313
4.19313
4.20203
4.20903
4.21492
4.21993
4.22467
4.22881
4.23226
4.23539
4.23794
4.2397
4.24087
4.24148
4.24152
4.241
4.2399
4.23809
4.23556
4.23221
4.22769
4.22226
4.21623
4.20898
4.2005
4.19112
4.17968
4.16537
4.14627
4.12252
4.09339
4.05508
4.01071
3.96485
3.91251
3.86057
3.82569
3.8052
3.79405
3.78912
3.21221
3.25094
3.30452
3.37985
3.45631
3.51778
3.57699
3.63051
3.67183
3.70922
3.74313
3.78007
3.81524
3.8469
3.88117
3.91308
3.93817
3.96129
3.98167
3.9973
4.01108
4.02324
4.03594
4.04764
4.05778
4.06821
4.07749
4.08441
4.09025
4.09514
4.09999
4.10422
4.10765
4.11091
4.11358
4.11535
4.11655
4.1172
4.11727
4.1168
4.11577
4.11401
4.11154
4.10829
4.10372
4.09821
4.09235
4.08513
4.07668
4.06771
4.05662
4.04277
4.02347
3.99942
3.97013
3.92938
3.88169
3.83407
3.77656
3.71731
3.68081
3.66084
3.65042
3.6459
3.04827
3.09509
3.15229
3.23778
3.32293
3.38544
3.44801
3.50485
3.54547
3.58309
3.61615
3.65488
3.69131
3.72258
3.759
3.79289
3.81764
3.84135
3.86245
3.87755
3.89117
3.90287
3.91603
3.92803
3.93795
3.94893
3.95868
3.9654
3.97118
3.97589
3.9809
3.98522
3.98857
3.992
3.99482
3.99655
3.99779
3.99848
3.99857
3.99816
3.99721
3.99549
3.99308
3.98999
3.98532
3.97969
3.97409
3.96689
3.9584
3.94995
3.93927
3.9261
3.90653
3.88223
3.85336
3.80987
3.75838
3.70996
3.64678
3.57839
3.54089
3.52201
3.51261
3.50862
2.88775
2.94524
3.00445
3.10198
3.19724
3.25891
3.32517
3.38604
3.42491
3.46289
3.4943
3.5354
3.57325
3.60331
3.64242
3.67875
3.70251
3.72691
3.74898
3.76321
3.77673
3.78771
3.80152
3.81386
3.82333
3.83502
3.84536
3.85174
3.85747
3.86188
3.86713
3.87158
3.87476
3.87841
3.8814
3.88307
3.88434
3.88506
3.88518
3.88482
3.88396
3.88228
3.87994
3.87706
3.87224
3.86642
3.86119
3.854
3.84535
3.8376
3.82731
3.81512
3.79516
3.77062
3.74294
3.6963
3.64028
3.59254
3.52316
3.44311
3.40564
3.38857
3.38046
3.37708
2.73001
2.80184
2.86026
2.97231
3.07955
3.13761
3.20813
3.27408
3.30973
3.34847
3.3771
3.42142
3.46098
3.48864
3.53118
3.57058
3.59241
3.6177
3.64111
3.65397
3.66752
3.67743
3.69218
3.70496
3.71362
3.72625
3.73736
3.74315
3.74889
3.75287
3.75846
3.76305
3.76596
3.7699
3.77311
3.77464
3.77595
3.77672
3.77685
3.77654
3.7758
3.77414
3.77185
3.76928
3.76426
3.75813
3.75344
3.74622
3.73725
3.73041
3.72047
3.70963
3.68906
3.66417
3.63882
3.58845
3.5268
3.48192
3.4058
3.31066
3.27486
3.26036
3.2538
3.25112
2.57433
2.66564
2.71878
2.84866
2.97037
3.02079
3.09654
3.1691
3.1994
3.23977
3.26399
3.31278
3.35445
3.37801
3.42506
3.46836
3.48694
3.51344
3.53871
3.5495
3.56339
3.5717
3.5878
3.60116
3.60848
3.62239
3.63449
3.63937
3.64524
3.64856
3.65467
3.65945
3.66191
3.66625
3.66973
3.67103
3.6724
3.67322
3.67334
3.67308
3.67249
3.67083
3.66857
3.66644
3.66113
3.65453
3.65064
3.64333
3.63379
3.62818
3.61841
3.60948
3.58795
3.56248
3.54101
3.48614
3.4172
3.3783
3.29491
3.18006
3.14842
3.13728
3.13247
3.13054
2.41984
2.53776
2.57876
2.73095
2.87039
2.90754
2.99005
3.07135
3.0933
3.13684
3.15435
3.20936
3.25373
3.2708
3.32386
3.37219
3.38563
3.41385
3.44173
3.44946
3.46419
3.47015
3.4882
3.50231
3.50759
3.52323
3.53661
3.54013
3.54632
3.5487
3.55555
3.56057
3.56234
3.56723
3.57106
3.572
3.57347
3.57435
3.57444
3.57422
3.57382
3.57214
3.56985
3.56835
3.56265
3.55536
3.55261
3.54514
3.53468
3.53073
3.52083
3.51454
3.49156
3.46505
3.44959
3.38923
3.3106
3.28203
3.19088
3.05007
3.0263
3.01924
3.01633
3.01517
2.26545
2.41985
2.43859
2.61912
2.78058
2.7967
2.88831
2.98125
2.99065
3.03992
3.04741
3.1111
3.159
3.16628
3.22738
3.28223
3.28796
3.31868
3.35017
3.35344
3.36988
3.37241
3.39322
3.40833
3.41057
3.42859
3.44362
3.44511
3.452
3.45301
3.46092
3.46625
3.467
3.47266
3.47692
3.47732
3.47895
3.4799
3.47994
3.47976
3.4796
3.47785
3.47546
3.47484
3.46862
3.46033
3.45918
3.45147
3.43958
3.43794
3.42736
3.42475
3.39965
3.3713
3.36476
3.29764
3.20588
3.19355
3.09425
2.9192
2.90863
2.90619
2.90522
2.90483
)
;

boundaryField
{
    left
    {
        type            zeroGradient;
    }
    right
    {
        type            zeroGradient;
    }
    interface
    {
        type            fixedValue;
        value           nonuniform List<scalar> 
64
(
2.18623
2.36616
2.36616
2.56537
2.74101
2.74101
2.83908
2.94001
2.94001
2.99427
2.99427
3.06415
3.11448
3.11448
3.18115
3.24038
3.24038
3.27301
3.30707
3.30707
3.32508
3.32508
3.34792
3.36373
3.36373
3.38344
3.3996
3.3996
3.40714
3.40714
3.41585
3.4214
3.4214
3.42762
3.43218
3.43218
3.43395
3.43495
3.43495
3.43478
3.43478
3.43297
3.43048
3.43048
3.42392
3.41489
3.41489
3.40699
3.39402
3.39402
3.38265
3.38265
3.35599
3.32608
3.32608
3.25469
3.15375
3.15375
3.05016
2.85203
2.85203
2.85203
2.85203
2.85203
)
;
    }
    bottom
    {
        type            fixedValue;
        value           uniform 10;
    }
    defaultFaces
    {
        type            empty;
    }
}


// ************************************************************************* //
