/*--------------------------------*- C++ -*----------------------------------*\
| =========                 |                                                 |
| \\      /  F ield         | OpenFOAM: The Open Source CFD Toolbox           |
|  \\    /   O peration     | Version:  5.x                                   |
|   \\  /    A nd           | Web:      www.OpenFOAM.org                      |
|    \\/     M anipulation  |                                                 |
\*---------------------------------------------------------------------------*/
FoamFile
{
    version     2.0;
    format      ascii;
    class       volScalarField;
    location    "1.9";
    object      gradTy;
}
// * * * * * * * * * * * * * * * * * * * * * * * * * * * * * * * * * * * * * //

dimensions      [0 -1 0 1 0 0 0];

internalField   nonuniform List<scalar> 
3200
(
-0.00398216
0.00125672
-0.00726428
0.0063381
-0.00510016
0.00581421
-0.00342964
0.00417412
-0.00276152
0.00105367
0.00270777
-0.00117871
0.00162688
-0.000980363
0.00120012
-0.000753208
0.000909208
-0.000577079
0.000693933
-0.000442375
0.000531233
-0.000338916
0.000406984
-0.000259224
0.00031156
-0.000197781
0.000238075
-0.000150431
0.000181446
-0.000113995
0.000137837
-8.60183e-05
0.000104307
-6.45954e-05
7.85872e-05
-4.8242e-05
5.89129e-05
-3.58019e-05
4.39115e-05
-2.63753e-05
3.25141e-05
-1.92633e-05
2.38896e-05
-1.39248e-05
1.73926e-05
-9.94336e-06
1.25162e-05
-7.03008e-06
8.73676e-06
-5.54882e-06
2.4603e-06
5.3769e-06
-1.892e-06
2.92388e-06
-1.3557e-06
1.87257e-06
-8.45484e-07
1.1838e-06
-5.0507e-07
7.25653e-07
-2.9149e-07
4.30548e-07
-1.62991e-07
2.47523e-07
-8.84754e-08
1.38129e-07
-4.65829e-08
7.48843e-08
-2.35903e-08
3.93379e-08
-1.11464e-08
1.99484e-08
-3.68487e-09
8.62991e-09
1.20716e-10
2.11605e-09
4.35528e-10
1.01023e-10
2.40766e-11
6.85741e-12
-0.00292228
0.00053554
-0.00492375
0.00411195
-0.00324543
0.00386985
-0.0021247
0.00277544
-0.00179046
0.00075191
0.00191508
-0.000696142
0.00109252
-0.000607359
0.0008005
-0.000468873
0.000605839
-0.000359661
0.000462249
-0.000275831
0.000353838
-0.000211336
0.000271091
-0.000161613
0.000207557
-0.000123262
0.000158634
-9.37057e-05
0.000120932
-7.09655e-05
9.18939e-05
-5.35106e-05
6.95642e-05
-4.01502e-05
5.24316e-05
-2.99567e-05
3.93229e-05
-2.22069e-05
2.93248e-05
-1.63384e-05
2.17264e-05
-1.19142e-05
1.59744e-05
-8.5961e-06
1.16395e-05
-6.12467e-06
8.38233e-06
-4.32855e-06
5.82234e-06
-3.57592e-06
1.75336e-06
3.82814e-06
-1.0726e-06
1.98416e-06
-8.11411e-07
1.26538e-06
-5.04344e-07
8.01233e-07
-2.98629e-07
4.9219e-07
-1.70615e-07
2.9264e-07
-9.4391e-08
1.68573e-07
-5.06744e-08
9.42505e-08
-2.63609e-08
5.11993e-08
-1.31458e-08
2.69673e-08
-6.03932e-09
1.37645e-08
-1.70983e-09
6.04883e-09
4.27651e-10
1.53568e-09
3.81656e-10
9.07206e-11
2.1701e-11
6.18613e-12
-0.00200165
0.000169827
-0.00316416
0.00254048
-0.00197054
0.00244905
-0.00125625
0.00175478
-0.00110425
0.000504874
0.00127299
-0.000389891
0.000697433
-0.000358898
0.000507763
-0.000278478
0.000383924
-0.000213876
0.000292846
-0.000164099
0.000224146
-0.000125738
0.000171734
-9.61372e-05
0.000131501
-7.32972e-05
0.000100523
-5.56936e-05
7.66493e-05
-4.2152e-05
5.82599e-05
-3.17609e-05
4.41165e-05
-2.38108e-05
3.32628e-05
-1.77483e-05
2.49565e-05
-1.31419e-05
1.86196e-05
-9.65602e-06
1.38023e-05
-7.03006e-06
1.01545e-05
-5.06238e-06
7.4042e-06
-3.59871e-06
5.3356e-06
-2.54276e-06
3.68885e-06
-2.19294e-06
1.17594e-06
2.55789e-06
-5.71881e-07
1.27824e-06
-4.62244e-07
8.11865e-07
-2.86354e-07
5.14775e-07
-1.67897e-07
3.16809e-07
-9.48288e-08
1.88709e-07
-5.18172e-08
1.08892e-07
-2.74543e-08
6.09832e-08
-1.40729e-08
3.31854e-08
-6.88309e-09
1.75191e-08
-3.04628e-09
8.99071e-09
-6.64709e-10
4.00261e-09
4.65241e-10
1.0457e-09
2.93236e-10
7.1543e-11
1.71991e-11
4.90956e-12
-0.00116876
2.32899e-05
-0.0017671
0.00137675
-0.00105366
0.00135256
-0.000657056
0.000968417
-0.000597215
0.000291107
0.000727833
-0.000193913
0.000387865
-0.000187554
0.00028097
-0.000146178
0.000212288
-0.000112385
0.000161891
-8.62614e-05
0.000123904
-6.61002e-05
9.49342e-05
-5.05315e-05
7.26998e-05
-3.85146e-05
5.55811e-05
-2.92523e-05
4.2388e-05
-2.21281e-05
3.22249e-05
-1.6663e-05
2.44075e-05
-1.24831e-05
1.84075e-05
-9.29703e-06
1.38149e-05
-6.87744e-06
1.03106e-05
-5.04745e-06
7.64599e-06
-3.66978e-06
5.62784e-06
-2.63824e-06
4.1058e-06
-1.87178e-06
2.96008e-06
-1.32242e-06
2.03904e-06
-1.18068e-06
6.77456e-07
1.4677e-06
-2.7068e-07
7.15693e-07
-2.3385e-07
4.53101e-07
-1.44452e-07
2.87582e-07
-8.39274e-08
1.77231e-07
-4.6888e-08
1.05712e-07
-2.53141e-08
6.10778e-08
-1.3237e-08
3.42475e-08
-6.68331e-09
1.86605e-08
-3.20209e-09
9.86762e-09
-1.35859e-09
5.08381e-09
-1.92978e-10
2.28431e-09
3.37982e-10
6.08989e-10
1.83568e-10
4.56754e-11
1.10278e-11
3.15298e-12
-0.000384175
-4.63978e-06
-0.00056803
0.000435415
-0.000330756
0.000432263
-0.00020365
0.000309367
-0.000188615
9.51677e-05
0.000236811
-5.82472e-05
0.000124437
-5.80941e-05
8.98948e-05
-4.53982e-05
6.78928e-05
-3.49245e-05
5.17689e-05
-2.68125e-05
3.96202e-05
-2.05466e-05
3.03569e-05
-1.57059e-05
2.32481e-05
-1.19688e-05
1.77751e-05
-9.08821e-06
1.35571e-05
-6.87278e-06
1.03077e-05
-5.17351e-06
7.80808e-06
-3.87414e-06
5.88946e-06
-2.88396e-06
4.42076e-06
-2.1322e-06
3.29997e-06
-1.56381e-06
2.44767e-06
-1.13607e-06
1.80205e-06
-8.15941e-07
1.31507e-06
-5.7823e-07
9.48328e-07
-4.08517e-07
6.51931e-07
-3.71969e-07
2.21353e-07
4.7839e-07
-7.86693e-08
2.3043e-07
-7.10361e-08
1.45623e-07
-4.38047e-08
9.24754e-08
-2.5306e-08
5.70325e-08
-1.404e-08
3.40425e-08
-7.52099e-09
1.96822e-08
-3.89871e-09
1.10433e-08
-1.94836e-09
6.02126e-09
-9.20141e-10
3.18683e-09
-3.78422e-10
1.6452e-09
-3.16939e-11
7.42791e-10
1.21952e-10
2.00099e-10
6.23909e-11
1.56822e-11
3.79441e-12
1.08826e-12
0.000384918
4.89238e-06
0.000568141
-0.000435335
0.000330805
-0.000432232
0.000203669
-0.000309355
0.00018862
-9.51658e-05
-0.000236809
5.82518e-05
-0.000124431
5.81018e-05
-8.98871e-05
4.54053e-05
-6.78865e-05
3.493e-05
-5.17641e-05
2.68167e-05
-3.96166e-05
2.05496e-05
-3.03543e-05
1.57081e-05
-2.32463e-05
1.19703e-05
-1.77738e-05
9.08929e-06
-1.35562e-05
6.87351e-06
-1.03071e-05
5.17399e-06
-7.8077e-06
3.87444e-06
-5.88923e-06
2.88413e-06
-4.42063e-06
2.13229e-06
-3.29991e-06
1.56385e-06
-2.44765e-06
1.13607e-06
-1.80206e-06
8.15922e-07
-1.31509e-06
5.78201e-07
-9.48362e-07
4.08478e-07
-6.51977e-07
3.71917e-07
-2.21407e-07
-4.78438e-07
7.86319e-08
-2.30458e-07
7.10155e-08
-1.45639e-07
4.3792e-08
-9.24857e-08
2.52975e-08
-5.70394e-08
1.40344e-08
-3.40469e-08
7.51745e-09
-1.9685e-08
3.89654e-09
-1.1045e-08
1.94706e-09
-6.02226e-09
9.1938e-10
-3.1874e-09
3.77989e-10
-1.64552e-09
3.1466e-11
-7.42946e-10
-1.22052e-10
-2.0016e-10
-6.24247e-11
-1.57005e-11
-3.80232e-12
-1.08314e-12
0.00116928
-2.31056e-05
0.00176719
-0.00137668
0.0010537
-0.00135253
0.000657078
-0.000968402
0.000597225
-0.000291101
-0.000727827
0.00019392
-0.000387857
0.000187562
-0.000280963
0.000146185
-0.000212282
0.00011239
-0.000161886
8.62654e-05
-0.000123901
6.61032e-05
-9.49317e-05
5.05336e-05
-7.26979e-05
3.85162e-05
-5.55798e-05
2.92534e-05
-4.2387e-05
2.21289e-05
-3.22242e-05
1.66635e-05
-2.4407e-05
1.24835e-05
-1.84072e-05
9.29726e-06
-1.38147e-05
6.87759e-06
-1.03104e-05
5.04754e-06
-7.64593e-06
3.66982e-06
-5.62781e-06
2.63826e-06
-4.10579e-06
1.87178e-06
-2.96009e-06
1.32241e-06
-2.03906e-06
1.18066e-06
-6.77486e-07
-1.46773e-06
2.70658e-07
-7.15709e-07
2.33839e-07
-4.53109e-07
1.44445e-07
-2.87588e-07
8.39225e-08
-1.77235e-07
4.68848e-08
-1.05715e-07
2.5312e-08
-6.10795e-08
1.32357e-08
-3.42486e-08
6.6825e-09
-1.86611e-08
3.20161e-09
-9.86798e-09
1.35832e-09
-5.08402e-09
1.92829e-10
-2.28441e-09
-3.38048e-10
-6.09029e-10
-1.8359e-10
-4.5688e-11
-1.10334e-11
-3.14949e-12
0.00200175
-0.00016978
0.0031642
-0.00254045
0.00197056
-0.00244903
0.00125627
-0.00175477
0.00110427
-0.000504865
-0.00127298
0.000389898
-0.000697427
0.000358904
-0.000507758
0.000278482
-0.000383921
0.000213879
-0.000292843
0.000164101
-0.000224144
0.00012574
-0.000171733
9.61386e-05
-0.0001315
7.32982e-05
-0.000100522
5.56944e-05
-7.66486e-05
4.21525e-05
-5.82594e-05
3.17613e-05
-4.41161e-05
2.38111e-05
-3.32626e-05
1.77485e-05
-2.49563e-05
1.3142e-05
-1.86195e-05
9.65613e-06
-1.38022e-05
7.03014e-06
-1.01544e-05
5.06243e-06
-7.40416e-06
3.59874e-06
-5.33557e-06
2.54278e-06
-3.68883e-06
2.19296e-06
-1.17593e-06
-2.55789e-06
5.71885e-07
-1.27823e-06
4.62246e-07
-8.11864e-07
2.86356e-07
-5.14774e-07
1.67898e-07
-3.16808e-07
9.48291e-08
-1.88709e-07
5.18174e-08
-1.08892e-07
2.74544e-08
-6.09832e-08
1.40729e-08
-3.31854e-08
6.88308e-09
-1.75191e-08
3.04626e-09
-8.99072e-09
6.64697e-10
-4.00262e-09
-4.65248e-10
-1.04571e-09
-2.93239e-10
-7.1545e-11
-1.72002e-11
-4.90899e-12
0.00292184
-0.000535684
0.00492369
-0.00411199
0.0032454
-0.00386986
0.00212469
-0.00277544
0.00179046
-0.000751907
-0.00191508
0.000696142
-0.00109252
0.000607356
-0.000800503
0.00046887
-0.000605842
0.000359659
-0.000462251
0.000275829
-0.000353839
0.000211334
-0.000271092
0.000161612
-0.000207557
0.000123262
-0.000158634
9.37053e-05
-0.000120932
7.09653e-05
-9.18941e-05
5.35105e-05
-6.95643e-05
4.01502e-05
-5.24316e-05
2.99566e-05
-3.93229e-05
2.2207e-05
-2.93248e-05
1.63384e-05
-2.17263e-05
1.19142e-05
-1.59744e-05
8.59613e-06
-1.16395e-05
6.12471e-06
-8.38229e-06
4.32858e-06
-5.8223e-06
3.57596e-06
-1.75332e-06
-3.82811e-06
1.07262e-06
-1.98414e-06
8.11425e-07
-1.26537e-06
5.04353e-07
-8.01226e-07
2.98635e-07
-4.92185e-07
1.70619e-07
-2.92637e-07
9.43933e-08
-1.68571e-07
5.06759e-08
-9.42494e-08
2.63617e-08
-5.11987e-08
1.31462e-08
-2.69669e-08
6.03959e-09
-1.37643e-08
1.70997e-09
-6.04874e-09
-4.27589e-10
-1.53564e-09
-3.81635e-10
-9.07095e-11
-2.16963e-11
-6.18925e-12
0.00398124
-0.00125706
0.0072641
-0.00633824
0.00510006
-0.00581428
0.00342959
-0.00417416
0.00276149
-0.00105369
-0.00270779
0.00117869
-0.0016269
0.000980344
-0.00120014
0.000753193
-0.000909221
0.000577067
-0.000693944
0.000442366
-0.000531241
0.000338909
-0.00040699
0.000259219
-0.000311564
0.000197777
-0.000238078
0.000150428
-0.000181449
0.000113993
-0.000137838
8.6017e-05
-0.000104308
6.45945e-05
-7.85879e-05
4.82414e-05
-5.89134e-05
3.58015e-05
-4.39118e-05
2.6375e-05
-3.25143e-05
1.92632e-05
-2.38897e-05
1.39247e-05
-1.73926e-05
9.94331e-06
-1.25163e-05
7.03008e-06
-8.73674e-06
5.54885e-06
-2.46026e-06
-5.37686e-06
1.89203e-06
-2.92386e-06
1.35572e-06
-1.87256e-06
8.45493e-07
-1.18379e-06
5.05077e-07
-7.25648e-07
2.91495e-07
-4.30544e-07
1.62994e-07
-2.4752e-07
8.84774e-08
-1.38127e-07
4.65842e-08
-7.48833e-08
2.3591e-08
-3.93373e-08
1.11468e-08
-1.99481e-08
3.68512e-09
-8.62974e-09
-1.20605e-10
-2.11599e-09
-4.35489e-10
-1.01002e-10
-2.40667e-11
-6.86346e-12
-0.0787727
0.0616338
0.00767753
0.00660659
-0.00186941
0.00298316
-0.00259051
0.00262416
-0.00288399
0.000312186
0.00286208
-0.00182277
0.00214522
-0.00165514
0.00184583
-0.00140536
0.00157652
-0.00117556
0.00132883
-0.000974319
0.00110815
-0.000801876
0.000916463
-0.000656306
0.000752997
-0.00053477
0.000615476
-0.000434143
0.00050095
-0.000351363
0.000406311
-0.00028361
0.000328574
-0.000228383
0.000265026
-0.000183523
0.000213281
-0.000147191
0.000171286
-0.000117848
0.000137303
-9.4213e-05
0.00010988
-7.52276e-05
8.78044e-05
-6.0039e-05
7.00143e-05
-4.82219e-05
5.44724e-05
-4.45551e-05
1.16108e-05
4.37737e-05
-2.26693e-05
2.89766e-05
-1.96903e-05
2.29635e-05
-1.60895e-05
1.85523e-05
-1.32255e-05
1.51315e-05
-1.10174e-05
1.24856e-05
-9.32994e-06
1.04581e-05
-8.02952e-06
8.94625e-06
-6.83056e-06
7.71322e-06
-5.42501e-06
6.36193e-06
-3.93981e-06
4.8325e-06
-2.75966e-06
3.77758e-06
-6.94765e-07
1.70283e-06
3.44897e-07
7.99384e-08
1.92243e-08
5.62669e-09
-0.0562766
0.0412932
0.00747216
0.00498996
-0.000997792
0.00199322
-0.00166385
0.00169301
-0.00194908
0.00022329
0.00198087
-0.00113363
0.00141951
-0.00105058
0.00121831
-0.000891196
0.00104158
-0.000744127
0.000878765
-0.000615818
0.000733373
-0.00050622
0.000606866
-0.000413927
0.000498851
-0.000337014
0.000407896
-0.000273424
0.000332098
-0.000221171
0.000269428
-0.00017844
0.000217928
-0.000143635
0.000175815
-0.000115379
0.000141513
-9.25077e-05
0.000113667
-7.40441e-05
9.11289e-05
-5.91784e-05
7.29365e-05
-4.7243e-05
5.82875e-05
-3.77039e-05
4.64616e-05
-3.03705e-05
3.58261e-05
-2.94614e-05
8.28346e-06
3.06747e-05
-1.37463e-05
1.93286e-05
-1.23545e-05
1.52322e-05
-1.01288e-05
1.2292e-05
-8.34053e-06
1.00145e-05
-6.96255e-06
8.25206e-06
-5.91064e-06
6.90156e-06
-5.09772e-06
5.90295e-06
-4.3314e-06
5.10632e-06
-3.41329e-06
4.23529e-06
-2.4482e-06
3.23163e-06
-1.68807e-06
2.58075e-06
-3.20495e-07
1.2038e-06
3.01139e-07
7.17479e-08
1.73275e-08
5.07464e-09
-0.0376845
0.0262066
0.00601183
0.00351231
-0.000486432
0.0012682
-0.00101868
0.00104096
-0.00124754
0.000150267
0.00129389
-0.000671794
0.000894198
-0.000636057
0.000765483
-0.000539133
0.000655015
-0.000449374
0.000553096
-0.000371343
0.000461896
-0.000304897
0.00038242
-0.000249074
0.000314484
-0.000202639
0.000257231
-0.0001643
0.000209488
-0.00013283
0.000169995
-0.000107119
0.00013753
-8.61903e-05
0.000110972
-6.92102e-05
8.93357e-05
-5.54726e-05
7.17673e-05
-4.43877e-05
5.75445e-05
-3.54668e-05
4.60617e-05
-2.83078e-05
3.68128e-05
-2.25918e-05
2.93338e-05
-1.82536e-05
2.24274e-05
-1.84994e-05
5.56108e-06
2.02401e-05
-7.93011e-06
1.22647e-05
-7.39499e-06
9.61391e-06
-6.08383e-06
7.74994e-06
-5.01849e-06
6.30775e-06
-4.19802e-06
5.1912e-06
-3.57241e-06
4.33567e-06
-3.08749e-06
3.70772e-06
-2.62025e-06
3.21679e-06
-2.04906e-06
2.68133e-06
-1.45159e-06
2.05438e-06
-9.84266e-07
1.67055e-06
-1.23351e-07
8.01787e-07
2.30417e-07
5.654e-08
1.37329e-08
4.02548e-09
-0.0216493
0.0144821
0.00384251
0.00209359
-0.000206144
0.000703988
-0.000548159
0.000562114
-0.000694119
8.68035e-05
0.000730725
-0.000351722
0.000492278
-0.000339225
0.000420524
-0.000287364
0.000360075
-0.000239178
0.000304247
-0.000197408
0.000254211
-0.000161929
0.000210554
-0.000132179
0.000173205
-0.000107468
0.000141709
-8.70904e-05
0.000115431
-7.03784e-05
9.36869e-05
-5.67339e-05
7.58062e-05
-4.56343e-05
6.11762e-05
-3.66331e-05
4.92544e-05
-2.93538e-05
3.95726e-05
-2.34823e-05
3.17333e-05
-1.87589e-05
2.54031e-05
-1.49697e-05
2.03033e-05
-1.1947e-05
1.61739e-05
-9.67862e-06
1.2283e-05
-1.01457e-05
3.20625e-06
1.15128e-05
-4.05447e-06
6.78973e-06
-3.90684e-06
5.29979e-06
-3.22373e-06
4.26873e-06
-2.66312e-06
3.47172e-06
-2.23155e-06
2.85445e-06
-1.90279e-06
2.38151e-06
-1.6473e-06
2.0363e-06
-1.39664e-06
1.77059e-06
-1.08531e-06
1.4814e-06
-7.60916e-07
1.13864e-06
-5.08403e-07
9.38162e-07
-3.50509e-08
4.59585e-07
1.43769e-07
3.60747e-08
8.8055e-09
2.58284e-09
-0.00706015
0.00462757
0.00131681
0.000696229
-5.4858e-05
0.000225708
-0.000172648
0.000177453
-0.000222617
2.84251e-05
0.00023626
-0.000109034
0.000157083
-0.000106313
0.000134024
-9.00319e-05
0.000114799
-7.48742e-05
9.70342e-05
-6.17558e-05
8.10983e-05
-5.06287e-05
6.71855e-05
-4.13089e-05
5.52772e-05
-3.35742e-05
4.52315e-05
-2.71998e-05
3.68484e-05
-2.19748e-05
2.99099e-05
-1.77106e-05
2.42034e-05
-1.4243e-05
1.95337e-05
-1.14316e-05
1.57281e-05
-9.15865e-06
1.26372e-05
-7.32567e-06
1.01343e-05
-5.85137e-06
8.11307e-06
-4.66898e-06
6.48451e-06
-3.72622e-06
5.16485e-06
-3.0235e-06
3.90771e-06
-3.22889e-06
1.04826e-06
3.73603e-06
-1.23911e-06
2.17304e-06
-1.21781e-06
1.69222e-06
-1.00664e-06
1.36238e-06
-8.32297e-07
1.10755e-06
-6.98116e-07
9.10143e-07
-5.95961e-07
7.58897e-07
-5.16454e-07
6.48827e-07
-4.3763e-07
5.64827e-07
-3.38858e-07
4.73525e-07
-2.36159e-07
3.6459e-07
-1.56408e-07
3.02487e-07
-5.5144e-09
1.49772e-07
4.87805e-08
1.23838e-08
3.03073e-09
8.88338e-10
0.00706109
-0.00462733
-0.00131675
-0.000696148
5.49483e-05
-0.000225611
0.000172743
-0.000177368
0.000222689
-2.83639e-05
-0.000236206
0.000109084
-0.000157036
0.000106355
-0.000133986
9.00667e-05
-0.000114768
7.4902e-05
-9.70094e-05
6.17779e-05
-8.10786e-05
5.06463e-05
-6.71698e-05
4.13228e-05
-5.52647e-05
3.35853e-05
-4.52216e-05
2.72086e-05
-3.68406e-05
2.19818e-05
-2.99036e-05
1.77162e-05
-2.41985e-05
1.42474e-05
-1.95298e-05
1.14351e-05
-1.5725e-05
9.16142e-06
-1.26347e-05
7.32788e-06
-1.01324e-05
5.85313e-06
-8.11151e-06
4.67038e-06
-6.48326e-06
3.72733e-06
-5.16388e-06
3.02432e-06
-3.90705e-06
3.2294e-06
-1.04786e-06
-3.73568e-06
1.23945e-06
-2.1727e-06
1.21814e-06
-1.69192e-06
1.00691e-06
-1.36215e-06
8.32498e-07
-1.10738e-06
6.98255e-07
-9.10032e-07
5.96044e-07
-7.5884e-07
5.16487e-07
-6.48817e-07
4.37621e-07
-5.64853e-07
3.38819e-07
-4.73572e-07
2.36106e-07
-3.64645e-07
1.56356e-07
-3.02533e-07
5.4783e-09
-1.49797e-07
-4.87954e-08
-1.23911e-08
-3.03398e-09
-8.92387e-10
0.02165
-0.0144819
-0.00384245
-0.00209352
0.000206218
-0.000703909
0.000548235
-0.000562046
0.000694178
-8.67533e-05
-0.000730681
0.000351763
-0.00049224
0.00033926
-0.000420492
0.000287393
-0.000360049
0.000239201
-0.000304227
0.000197427
-0.000254194
0.000161943
-0.000210541
0.000132191
-0.000173194
0.000107478
-0.0001417
8.70978e-05
-0.000115425
7.03844e-05
-9.36816e-05
5.67386e-05
-7.5802e-05
4.5638e-05
-6.11729e-05
3.6636e-05
-4.92518e-05
2.93561e-05
-3.95705e-05
2.34842e-05
-3.17316e-05
1.87604e-05
-2.54017e-05
1.49709e-05
-2.03022e-05
1.1948e-05
-1.61731e-05
9.67934e-06
-1.22824e-05
1.01462e-05
-3.20587e-06
-1.15124e-05
4.05478e-06
-6.78942e-06
3.90713e-06
-5.29953e-06
3.22396e-06
-4.26853e-06
2.6633e-06
-3.47156e-06
2.23167e-06
-2.85435e-06
1.90287e-06
-2.38145e-06
1.64734e-06
-2.03628e-06
1.39664e-06
-1.7706e-06
1.08529e-06
-1.48143e-06
7.60885e-07
-1.13868e-06
5.0837e-07
-9.38191e-07
3.50274e-08
-4.59601e-07
-1.43779e-07
-3.60795e-08
-8.80759e-09
-2.58558e-09
0.0376847
-0.0262065
-0.00601179
-0.00351228
0.000486464
-0.00126817
0.00101871
-0.00104094
0.00124757
-0.000150246
-0.00129387
0.000671811
-0.000894182
0.000636072
-0.00076547
0.000539145
-0.000655004
0.000449384
-0.000553088
0.000371351
-0.000461889
0.000304904
-0.000382414
0.00024908
-0.000314479
0.000202643
-0.000257227
0.000164303
-0.000209485
0.000132833
-0.000169993
0.000107121
-0.000137528
8.6192e-05
-0.000110971
6.92116e-05
-8.93344e-05
5.54737e-05
-7.17663e-05
4.43886e-05
-5.75437e-05
3.54675e-05
-4.6061e-05
2.83083e-05
-3.68123e-05
2.25923e-05
-2.93334e-05
1.82539e-05
-2.24271e-05
1.84996e-05
-5.56085e-06
-2.02399e-05
7.93028e-06
-1.22645e-05
7.39514e-06
-9.61378e-06
6.08395e-06
-7.74984e-06
5.01858e-06
-6.30767e-06
4.19809e-06
-5.19114e-06
3.57246e-06
-4.33563e-06
3.08753e-06
-3.70769e-06
2.62027e-06
-3.21677e-06
2.04907e-06
-2.68132e-06
1.45159e-06
-2.05438e-06
9.84265e-07
-1.67055e-06
1.23349e-07
-8.01789e-07
-2.30418e-07
-5.65404e-08
-1.37331e-08
-4.02587e-09
0.056276
-0.0412933
-0.00747218
-0.00499
0.000997747
-0.00199327
0.0016638
-0.00169305
0.00194905
-0.000223321
-0.0019809
0.00113361
-0.00141954
0.00105055
-0.00121833
0.000891179
-0.0010416
0.000744113
-0.000878777
0.000615807
-0.000733383
0.000506212
-0.000606873
0.00041392
-0.000498857
0.000337009
-0.000407901
0.00027342
-0.000332102
0.000221167
-0.000269431
0.000178437
-0.000217931
0.000143633
-0.000175816
0.000115378
-0.000141514
9.25063e-05
-0.000113668
7.4043e-05
-9.11299e-05
5.91775e-05
-7.29372e-05
4.72424e-05
-5.82881e-05
3.77034e-05
-4.6462e-05
3.03701e-05
-3.58264e-05
2.94611e-05
-8.28362e-06
-3.06748e-05
1.37461e-05
-1.93287e-05
1.23544e-05
-1.52323e-05
1.01287e-05
-1.22921e-05
8.34044e-06
-1.00146e-05
6.96249e-06
-8.25211e-06
5.9106e-06
-6.90158e-06
5.09772e-06
-5.90295e-06
4.33141e-06
-5.1063e-06
3.41332e-06
-4.23526e-06
2.44823e-06
-3.23159e-06
1.6881e-06
-2.58072e-06
3.20518e-07
-1.20379e-06
-3.0113e-07
-7.17433e-08
-1.73255e-08
-5.07216e-09
0.0787715
-0.0616342
-0.00767766
-0.00660674
0.00186926
-0.00298331
0.00259036
-0.00262429
0.00288387
-0.000312288
-0.00286217
0.00182269
-0.00214529
0.00165507
-0.00184589
0.0014053
-0.00157658
0.00117551
-0.00132887
0.000974282
-0.00110818
0.000801846
-0.00091649
0.000656282
-0.000753019
0.000534751
-0.000615493
0.000434128
-0.000500964
0.000351351
-0.000406322
0.0002836
-0.000328582
0.000228376
-0.000265033
0.000183516
-0.000213286
0.000147186
-0.00017129
0.000117845
-0.000137307
9.42098e-05
-0.000109882
7.52251e-05
-8.78067e-05
6.0037e-05
-7.00161e-05
4.82204e-05
-5.44737e-05
4.45541e-05
-1.16116e-05
-4.37744e-05
2.26686e-05
-2.89773e-05
1.96897e-05
-2.2964e-05
1.6089e-05
-1.85527e-05
1.32251e-05
-1.51318e-05
1.10172e-05
-1.24859e-05
9.32976e-06
-1.04582e-05
8.02941e-06
-8.94632e-06
6.83052e-06
-7.71322e-06
5.42502e-06
-6.3619e-06
3.93985e-06
-4.83245e-06
2.75971e-06
-3.77753e-06
6.94804e-07
-1.70281e-06
-3.4488e-07
-7.99305e-08
-1.92209e-08
-5.62199e-09
-0.0787867
0.0616492
0.00769731
0.00659492
-0.00185069
0.00296614
-0.00257161
0.00260637
-0.00286249
0.00031091
0.00284067
-0.00180801
0.0021284
-0.00164127
0.00183075
-0.00139313
0.00156314
-0.00116495
0.00131712
-0.000965224
0.00109804
-0.000794151
0.000907818
-0.000649796
0.000745674
-0.000529323
0.000609319
-0.000429613
0.000495809
-0.000347618
0.000402043
-0.000280529
0.000325051
-0.000225862
0.000262133
-0.000181468
0.000210916
-0.000145524
0.000169362
-0.000116502
0.000135745
-9.31285e-05
0.000108622
-7.43573e-05
8.67928e-05
-5.93421e-05
6.9204e-05
-4.76612e-05
5.38402e-05
-4.40371e-05
1.14757e-05
4.32652e-05
-2.24068e-05
2.86406e-05
-1.94633e-05
2.26981e-05
-1.59052e-05
1.8339e-05
-1.30756e-05
1.49588e-05
-1.08946e-05
1.23449e-05
-9.22867e-06
1.03424e-05
-7.94613e-06
8.85033e-06
-6.76503e-06
7.63571e-06
-5.37735e-06
6.30317e-06
-3.90721e-06
4.79023e-06
-2.74004e-06
3.74878e-06
-6.89842e-07
1.69023e-06
3.42343e-07
7.93465e-08
1.9082e-08
5.58506e-09
-0.0562864
0.0413042
0.0074863
0.0049829
-0.000985374
0.0019823
-0.0016515
0.00168165
-0.00193446
0.000222374
0.00196612
-0.00112437
0.00140843
-0.00104172
0.0012084
-0.000883397
0.00103277
-0.000737377
0.000871046
-0.000610039
0.000726699
-0.000501319
0.000601157
-0.000409802
0.000494011
-0.000333566
0.000403825
-0.00027056
0.000328697
-0.000218805
0.000266603
-0.000176496
0.000215596
-0.000142044
0.000173898
-0.000114084
0.000139946
-9.14578e-05
0.000112392
-7.31963e-05
9.00953e-05
-5.84962e-05
7.2102e-05
-4.66959e-05
5.76163e-05
-3.72659e-05
4.5924e-05
-3.00172e-05
3.54104e-05
-2.91188e-05
8.18709e-06
3.03183e-05
-1.35871e-05
1.91044e-05
-1.22121e-05
1.50561e-05
-1.00129e-05
1.21506e-05
-8.24612e-06
9.90011e-06
-6.88509e-06
8.15885e-06
-5.84672e-06
6.825e-06
-5.04511e-06
5.83934e-06
-4.29028e-06
5.05469e-06
-3.3837e-06
4.19596e-06
-2.42821e-06
3.20316e-06
-1.67638e-06
2.561e-06
-3.18308e-07
1.19489e-06
2.98909e-07
7.12166e-08
1.71993e-08
5.03709e-09
-0.037691
0.026214
0.00602131
0.00350826
-0.000478595
0.00126152
-0.00101099
0.00103404
-0.00123813
0.000149648
0.00128429
-0.000666258
0.000887243
-0.000630665
0.000759275
-0.00053439
0.000649489
-0.000445276
0.000548252
-0.000367841
0.000457704
-0.000301931
0.000378831
-0.000246581
0.00031144
-0.000200557
0.000254669
-0.000162572
0.000207347
-0.000131404
0.000168216
-0.000105948
0.00013606
-8.52332e-05
0.000109764
-6.84315e-05
8.83476e-05
-5.48417e-05
7.09628e-05
-4.38786e-05
5.68923e-05
-3.50574e-05
4.5535e-05
-2.79796e-05
3.6389e-05
-2.23292e-05
2.89945e-05
-1.80411e-05
2.21672e-05
-1.82843e-05
5.4964e-06
2.0005e-05
-7.83835e-06
1.21224e-05
-7.30981e-06
9.50272e-06
-6.01427e-06
7.66072e-06
-4.96176e-06
6.23563e-06
-4.15141e-06
5.13247e-06
-3.53391e-06
4.28744e-06
-3.05582e-06
3.66758e-06
-2.59563e-06
3.18408e-06
-2.03154e-06
2.65631e-06
-1.4399e-06
2.03617e-06
-9.77639e-07
1.65773e-06
-1.22577e-07
7.95843e-07
2.28711e-07
5.61213e-08
1.36313e-08
3.99569e-09
-0.021653
0.0144864
0.00384797
0.00209152
-0.000201824
0.000700392
-0.000543964
0.000558409
-0.000688863
8.64452e-05
0.000725319
-0.000348802
0.00048846
-0.000336336
0.000417122
-0.000284825
0.000357044
-0.000236988
0.000301588
-0.000195539
0.000251908
-0.000160347
0.000208582
-0.000130851
0.000171531
-0.000106361
0.000140299
-8.61716e-05
0.000114253
-6.96206e-05
9.27076e-05
-5.6112e-05
7.4997e-05
-4.51264e-05
6.05109e-05
-3.62201e-05
4.87101e-05
-2.90194e-05
3.91293e-05
-2.32126e-05
3.13738e-05
-1.85421e-05
2.51127e-05
-1.4796e-05
2.00697e-05
-1.1808e-05
1.59869e-05
-9.56594e-06
1.21405e-05
-1.00277e-05
3.16896e-06
1.1379e-05
-4.00757e-06
6.71096e-06
-3.86186e-06
5.23849e-06
-3.18689e-06
4.21957e-06
-2.63305e-06
3.432e-06
-2.20682e-06
2.82212e-06
-1.88235e-06
2.35496e-06
-1.63049e-06
2.01417e-06
-1.38363e-06
1.75251e-06
-1.07613e-06
1.46753e-06
-7.54864e-07
1.1285e-06
-5.05065e-07
9.30946e-07
-3.48779e-08
4.56175e-07
1.42704e-07
3.58076e-08
8.74031e-09
2.56373e-09
-0.00706135
0.00462896
0.00131859
0.000695598
-5.34792e-05
0.000224575
-0.000171316
0.000176289
-0.000220927
2.83074e-05
0.000234514
-0.000108125
0.000155866
-0.000105405
0.000132942
-8.92344e-05
0.000113834
-7.41868e-05
9.61872e-05
-6.11696e-05
8.03646e-05
-5.01331e-05
6.65568e-05
-4.08929e-05
5.47435e-05
-3.32274e-05
4.47821e-05
-2.69123e-05
3.64725e-05
-2.17378e-05
2.95974e-05
-1.75162e-05
2.39452e-05
-1.40842e-05
1.93214e-05
-1.13026e-05
1.55544e-05
-9.0542e-06
1.24957e-05
-7.24146e-06
1.00196e-05
-5.78371e-06
8.02037e-06
-4.61477e-06
6.4099e-06
-3.68286e-06
5.10513e-06
-2.98829e-06
3.86239e-06
-3.19134e-06
1.03607e-06
3.69262e-06
-1.22478e-06
2.14783e-06
-1.20379e-06
1.67264e-06
-9.95143e-07
1.34669e-06
-8.22904e-07
1.09487e-06
-6.90387e-07
8.99827e-07
-5.89569e-07
7.50428e-07
-5.11197e-07
6.41764e-07
-4.33573e-07
5.59047e-07
-3.36011e-07
4.69082e-07
-2.34294e-07
3.61335e-07
-1.55397e-07
3.00158e-07
-5.50284e-09
1.4866e-07
4.84191e-08
1.22921e-08
3.00829e-09
8.81764e-10
0.00706228
-0.00462872
-0.00131853
-0.000695518
5.35683e-05
-0.000224479
0.00017141
-0.000176205
0.000220999
-2.82468e-05
-0.000234461
0.000108174
-0.00015582
0.000105447
-0.000132903
8.92688e-05
-0.000113803
7.42143e-05
-9.61627e-05
6.11915e-05
-8.03451e-05
5.01505e-05
-6.65414e-05
4.09067e-05
-5.47312e-05
3.32383e-05
-4.47723e-05
2.6921e-05
-3.64648e-05
2.17447e-05
-2.95913e-05
1.75217e-05
-2.39403e-05
1.40886e-05
-1.93175e-05
1.13061e-05
-1.55513e-05
9.05695e-06
-1.24933e-05
7.24364e-06
-1.00176e-05
5.78544e-06
-8.01882e-06
4.61615e-06
-6.40867e-06
3.68395e-06
-5.10418e-06
2.9891e-06
-3.86174e-06
3.19184e-06
-1.03568e-06
-3.69228e-06
1.22512e-06
-2.14749e-06
1.20412e-06
-1.67235e-06
9.95409e-07
-1.34646e-06
8.23104e-07
-1.0947e-06
6.90526e-07
-8.99718e-07
5.89651e-07
-7.50372e-07
5.11229e-07
-6.41753e-07
4.33564e-07
-5.59072e-07
3.35973e-07
-4.69129e-07
2.34242e-07
-3.61389e-07
1.55345e-07
-3.00203e-07
5.467e-09
-1.48685e-07
-4.84339e-08
-1.22993e-08
-3.01152e-09
-8.85785e-10
0.0216536
-0.0144862
-0.00384791
-0.00209146
0.000201897
-0.000700314
0.000544038
-0.000558341
0.000688921
-8.63955e-05
-0.000725275
0.000348843
-0.000488423
0.000336371
-0.00041709
0.000284853
-0.000357019
0.000237011
-0.000301568
0.000195557
-0.000251892
0.000160362
-0.000208569
0.000130862
-0.000171521
0.00010637
-0.000140291
8.61789e-05
-0.000114247
6.96265e-05
-9.27024e-05
5.61166e-05
-7.49928e-05
4.51301e-05
-6.05076e-05
3.6223e-05
-4.87075e-05
2.90217e-05
-3.91272e-05
2.32145e-05
-3.13721e-05
1.85436e-05
-2.51114e-05
1.47972e-05
-2.00686e-05
1.1809e-05
-1.59861e-05
9.56664e-06
-1.21399e-05
1.00281e-05
-3.16859e-06
-1.13787e-05
4.00788e-06
-6.71066e-06
3.86214e-06
-5.23823e-06
3.18713e-06
-4.21937e-06
2.63322e-06
-3.43185e-06
2.20694e-06
-2.82202e-06
1.88243e-06
-2.3549e-06
1.63053e-06
-2.01415e-06
1.38363e-06
-1.75252e-06
1.07611e-06
-1.46756e-06
7.54833e-07
-1.12854e-06
5.05032e-07
-9.30975e-07
3.48546e-08
-4.56191e-07
-1.42714e-07
-3.58123e-08
-8.74239e-09
-2.56645e-09
0.0376911
-0.0262139
-0.00602128
-0.00350822
0.000478627
-0.00126149
0.00101102
-0.00103402
0.00123816
-0.000149627
-0.00128427
0.000666275
-0.000887227
0.000630679
-0.000759262
0.000534402
-0.000649479
0.000445286
-0.000548243
0.000367849
-0.000457697
0.000301937
-0.000378825
0.000246586
-0.000311435
0.000200561
-0.000254665
0.000162576
-0.000207344
0.000131407
-0.000168214
0.00010595
-0.000136058
8.52349e-05
-0.000109763
6.84329e-05
-8.83464e-05
5.48428e-05
-7.09618e-05
4.38795e-05
-5.68915e-05
3.50581e-05
-4.55343e-05
2.79801e-05
-3.63885e-05
2.23296e-05
-2.89941e-05
1.80415e-05
-2.21669e-05
1.82845e-05
-5.49617e-06
-2.00048e-05
7.83853e-06
-1.21222e-05
7.30995e-06
-9.50259e-06
6.01438e-06
-7.66062e-06
4.96184e-06
-6.23556e-06
4.15148e-06
-5.13241e-06
3.53396e-06
-4.2874e-06
3.05585e-06
-3.66755e-06
2.59565e-06
-3.18406e-06
2.03155e-06
-2.65631e-06
1.43991e-06
-2.03617e-06
9.77638e-07
-1.65773e-06
1.22575e-07
-7.95844e-07
-2.28712e-07
-5.61217e-08
-1.36314e-08
-3.99608e-09
0.0562859
-0.0413043
-0.00748633
-0.00498294
0.00098533
-0.00198235
0.00165145
-0.00168169
0.00193442
-0.000222405
-0.00196614
0.00112435
-0.00140845
0.0010417
-0.00120842
0.00088338
-0.00103279
0.000737363
-0.000871058
0.000610029
-0.000726709
0.000501311
-0.000601164
0.000409795
-0.000494017
0.000333561
-0.00040383
0.000270556
-0.0003287
0.000218801
-0.000266606
0.000176493
-0.000215598
0.000142042
-0.0001739
0.000114083
-0.000139947
9.14565e-05
-0.000112393
7.31953e-05
-9.00962e-05
5.84954e-05
-7.21027e-05
4.66952e-05
-5.76169e-05
3.72654e-05
-4.59245e-05
3.00168e-05
-3.54107e-05
2.91186e-05
-8.18724e-06
-3.03185e-05
1.3587e-05
-1.91046e-05
1.2212e-05
-1.50562e-05
1.00128e-05
-1.21507e-05
8.24603e-06
-9.90018e-06
6.88503e-06
-8.1589e-06
5.84668e-06
-6.82502e-06
5.0451e-06
-5.83933e-06
4.2903e-06
-5.05467e-06
3.38373e-06
-4.19593e-06
2.42825e-06
-3.20312e-06
1.67641e-06
-2.56097e-06
3.1833e-07
-1.19487e-06
-2.989e-07
-7.12121e-08
-1.71972e-08
-5.03463e-09
0.0787855
-0.0616495
-0.00769744
-0.00659506
0.00185054
-0.0029663
0.00257146
-0.00260651
0.00286237
-0.000311011
-0.00284076
0.00180792
-0.00212848
0.0016412
-0.00183082
0.00139307
-0.00156319
0.00116491
-0.00131716
0.000965187
-0.00109807
0.000794121
-0.000907845
0.000649772
-0.000745695
0.000529304
-0.000609336
0.000429598
-0.000495823
0.000347606
-0.000402054
0.000280519
-0.00032506
0.000225854
-0.00026214
0.000181462
-0.000210922
0.00014552
-0.000169366
0.000116498
-0.000135748
9.31254e-05
-0.000108624
7.43548e-05
-8.6795e-05
5.93401e-05
-6.92057e-05
4.76597e-05
-5.38415e-05
4.40361e-05
-1.14765e-05
-4.32659e-05
2.24061e-05
-2.86413e-05
1.94627e-05