/*--------------------------------*- C++ -*----------------------------------*\
| =========                 |                                                 |
| \\      /  F ield         | OpenFOAM: The Open Source CFD Toolbox           |
|  \\    /   O peration     | Version:  5.x                                   |
|   \\  /    A nd           | Web:      www.OpenFOAM.org                      |
|    \\/     M anipulation  |                                                 |
\*---------------------------------------------------------------------------*/
FoamFile
{
    version     2.0;
    format      ascii;
    class       volScalarField;
    location    "1.9";
    object      gradTx;
}
// * * * * * * * * * * * * * * * * * * * * * * * * * * * * * * * * * * * * * //

dimensions      [0 -1 0 1 0 0 0];

internalField   nonuniform List<scalar> 
3200
(
0.070456
-0.00337865
-0.00777046
-0.00794636
-0.00690978
-0.0067751
-0.00504689
-0.00490491
-0.00369249
-0.00571476
-0.00266953
-0.00193709
-0.00186302
-0.00143711
-0.00139786
-0.00109022
-0.00106206
-0.000832479
-0.000811367
-0.000637341
-0.000621283
-0.000488184
-0.000475879
-0.000373583
-0.000364118
-0.000285325
-0.000278034
-0.000217323
-0.000211708
-0.000164972
-0.000160653
-0.00012474
-0.000121424
-9.38945e-05
-9.13558e-05
-7.03137e-05
-6.8376e-05
-5.23457e-05
-5.08718e-05
-3.87045e-05
-3.75877e-05
-2.83908e-05
-2.75484e-05
-2.06297e-05
-1.99975e-05
-1.48221e-05
-1.43519e-05
-1.05127e-05
-1.01912e-05
-7.54289e-06
-1.14056e-05
-5.1517e-06
-3.3965e-06
-3.22248e-06
-2.17425e-06
-2.08045e-06
-1.36889e-06
-1.30684e-06
-8.35496e-07
-7.94994e-07
-4.93744e-07
-4.68208e-07
-2.82824e-07
-2.67304e-07
-1.5728e-07
-1.48165e-07
-8.49355e-08
-7.97414e-08
-4.43635e-08
-4.1474e-08
-2.20771e-08
-2.04604e-08
-9.2035e-09
-8.29204e-09
-2.2008e-09
-1.78993e-09
-1.16535e-10
-2.13597e-11
-4.83428e-12
1.08653e-09
0.0701938
-0.00362937
-0.00734664
-0.00775419
-0.00694412
-0.00663992
-0.00517916
-0.0048595
-0.00393983
-0.00526918
-0.00284651
-0.00203201
-0.00185022
-0.00147205
-0.00138051
-0.00111372
-0.00104848
-0.000849836
-0.000800954
-0.000650451
-0.000613278
-0.000498193
-0.000469709
-0.000381269
-0.00035936
-0.000291243
-0.000274367
-0.000221884
-0.000208886
-0.000168485
-0.000158487
-0.000127441
-0.000119766
-9.59665e-05
-9.00905e-05
-7.1899e-05
-6.74138e-05
-5.35546e-05
-5.01429e-05
-3.96232e-05
-3.70381e-05
-2.90862e-05
-2.7136e-05
-2.11537e-05
-1.96902e-05
-1.52156e-05
-1.41279e-05
-1.08203e-05
-1.00896e-05
-8.04031e-06
-1.05153e-05
-5.49695e-06
-3.61017e-06
-3.18633e-06
-2.26029e-06
-2.04178e-06
-1.42477e-06
-1.28098e-06
-8.72693e-07
-7.7885e-07
-5.1774e-07
-4.58555e-07
-2.97729e-07
-2.61742e-07
-1.662e-07
-1.45058e-07
-9.00991e-08
-7.80457e-08
-4.72683e-08
-4.05597e-08
-2.36604e-08
-1.9907e-08
-1.01284e-08
-8.01507e-09
-2.73857e-09
-1.7837e-09
-2.86471e-10
-6.09307e-11
-1.39989e-11
1.08352e-09
0.0699787
-0.00377895
-0.00705518
-0.0076107
-0.0069582
-0.00655096
-0.00526577
-0.00483806
-0.00409719
-0.00497365
-0.00295914
-0.0021016
-0.00184527
-0.00149551
-0.00137016
-0.00112916
-0.00104022
-0.000861197
-0.0007946
-0.000659024
-0.000608384
-0.000504734
-0.000465935
-0.00038629
-0.000356448
-0.00029511
-0.000272123
-0.000224864
-0.00020716
-0.00017078
-0.000157162
-0.000129206
-0.000118752
-9.7321e-05
-8.93171e-05
-7.29355e-05
-6.68261e-05
-5.43453e-05
-4.9698e-05
-4.02242e-05
-3.67029e-05
-2.95412e-05
-2.68847e-05
-2.14967e-05
-1.95032e-05
-1.54735e-05
-1.39927e-05
-1.10247e-05
-1.00407e-05
-8.35669e-06
-9.92479e-06
-5.71689e-06
-3.7653e-06
-3.17024e-06
-2.318e-06
-2.01903e-06
-1.46172e-06
-1.2657e-06
-8.97305e-07
-7.69391e-07
-5.33654e-07
-4.52964e-07
-3.07638e-07
-2.5856e-07
-1.72144e-07
-1.43302e-07
-9.35457e-08
-7.70984e-08
-4.92099e-08
-4.00527e-08
-2.47177e-08
-1.95945e-08
-1.07466e-08
-7.86455e-09
-3.10343e-09
-1.79913e-09
-4.05526e-10
-9.33507e-11
-2.17412e-11
1.08095e-09
0.0698274
-0.00386188
-0.00687251
-0.00751547
-0.00696241
-0.00649706
-0.00531802
-0.0048291
-0.00418981
-0.00479373
-0.00302546
-0.00214712
-0.00184403
-0.00150998
-0.00136443
-0.00113849
-0.00103556
-0.000868052
-0.000790998
-0.000664191
-0.000605605
-0.000508675
-0.000463789
-0.000389315
-0.000354792
-0.000297439
-0.000270846
-0.000226659
-0.000206178
-0.000172162
-0.000156409
-0.000130269
-0.000118176
-9.81373e-05
-8.8878e-05
-7.35603e-05
-6.64925e-05
-5.4822e-05
-4.94457e-05
-4.05866e-05
-3.65129e-05
-2.98157e-05
-2.67425e-05
-2.17037e-05
-1.93974e-05
-1.56293e-05
-1.39167e-05
-1.11496e-05
-1.00196e-05
-8.54289e-06
-9.56518e-06
-5.84651e-06
-3.86611e-06
-3.1644e-06
-2.35356e-06
-2.0066e-06
-1.48419e-06
-1.25729e-06
-9.12286e-07
-7.64236e-07
-5.4336e-07
-4.49953e-07
-3.13693e-07
-2.56869e-07
-1.75782e-07
-1.42382e-07
-9.56587e-08
-7.66077e-08
-5.04015e-08
-3.97923e-08
-2.53661e-08
-1.94307e-08
-1.1126e-08
-7.78908e-09
-3.32995e-09
-1.8181e-09
-4.81303e-10
-1.16138e-10
-2.73256e-11
1.07909e-09
0.0697496
-0.00389861
-0.00678449
-0.00746801
-0.00696304
-0.00647164
-0.0053426
-0.00482609
-0.00423265
-0.00470864
-0.00305615
-0.00216959
-0.001844
-0.00151689
-0.00136189
-0.00114289
-0.00103346
-0.000871277
-0.000789376
-0.000666621
-0.000604352
-0.000510528
-0.000462821
-0.000390737
-0.000354045
-0.000298533
-0.00027027
-0.000227502
-0.000205735
-0.000172812
-0.000156069
-0.000130769
-0.000117916
-9.8521e-05
-8.86799e-05
-7.3854e-05
-6.63422e-05
-5.50461e-05
-4.9332e-05
-4.07571e-05
-3.64273e-05
-2.99448e-05
-2.66784e-05
-2.18011e-05
-1.93499e-05
-1.57027e-05
-1.38828e-05
-1.12089e-05
-1.00123e-05
-8.629e-06
-9.39511e-06
-5.90652e-06
-3.9157e-06
-3.16288e-06
-2.37052e-06
-2.00115e-06
-1.49482e-06
-1.25359e-06
-9.19375e-07
-7.61983e-07
-5.47958e-07
-4.48649e-07
-3.16565e-07
-2.56145e-07
-1.7751e-07
-1.41991e-07
-9.66631e-08
-7.64021e-08
-5.09685e-08
-3.9684e-08
-2.56745e-08
-1.93614e-08
-1.13065e-08
-7.75836e-09
-3.43849e-09
-1.83002e-09
-5.18189e-10
-1.27859e-10
-3.02457e-11
1.07812e-09
0.0697496
-0.00389865
-0.0067845
-0.00746801
-0.00696304
-0.00647164
-0.0053426
-0.00482609
-0.00423265
-0.00470864
-0.00305615
-0.00216959
-0.001844
-0.00151689
-0.00136189
-0.00114289
-0.00103346
-0.000871277
-0.000789376
-0.000666621
-0.000604352
-0.000510528
-0.000462821
-0.000390737
-0.000354045
-0.000298533
-0.00027027
-0.000227502
-0.000205735
-0.000172812
-0.000156069
-0.000130769
-0.000117916
-9.8521e-05
-8.86799e-05
-7.3854e-05
-6.63422e-05
-5.50461e-05
-4.93321e-05
-4.07571e-05
-3.64273e-05
-2.99448e-05
-2.66784e-05
-2.18011e-05
-1.93499e-05
-1.57027e-05
-1.38828e-05
-1.12089e-05
-1.00123e-05
-8.629e-06
-9.39511e-06
-5.90651e-06
-3.9157e-06
-3.16288e-06
-2.37052e-06
-2.00115e-06
-1.49482e-06
-1.25359e-06
-9.19375e-07
-7.61983e-07
-5.47958e-07
-4.48649e-07
-3.16565e-07
-2.56145e-07
-1.7751e-07
-1.41991e-07
-9.66631e-08
-7.64021e-08
-5.09684e-08
-3.9684e-08
-2.56744e-08
-1.93613e-08
-1.13065e-08
-7.75835e-09
-3.43849e-09
-1.83001e-09
-5.18187e-10
-1.27857e-10
-3.02444e-11
1.07812e-09
0.0698275
-0.00386197
-0.00687253
-0.00751548
-0.00696242
-0.00649706
-0.00531802
-0.0048291
-0.00418982
-0.00479373
-0.00302546
-0.00214712
-0.00184403
-0.00150998
-0.00136443
-0.00113849
-0.00103556
-0.000868052
-0.000790999
-0.000664191
-0.000605605
-0.000508675
-0.000463789
-0.000389315
-0.000354792
-0.000297439
-0.000270847
-0.000226659
-0.000206178
-0.000172163
-0.000156409
-0.000130269
-0.000118176
-9.81373e-05
-8.8878e-05
-7.35603e-05
-6.64925e-05
-5.4822e-05
-4.94457e-05
-4.05866e-05
-3.65129e-05
-2.98157e-05
-2.67425e-05
-2.17037e-05
-1.93975e-05
-1.56293e-05
-1.39167e-05
-1.11496e-05
-1.00196e-05
-8.54289e-06
-9.56518e-06
-5.84651e-06
-3.8661e-06
-3.1644e-06
-2.35356e-06
-2.0066e-06
-1.48419e-06
-1.25729e-06
-9.12286e-07
-7.64236e-07
-5.4336e-07
-4.49952e-07
-3.13692e-07
-2.56869e-07
-1.75782e-07
-1.42381e-07
-9.56586e-08
-7.66077e-08
-5.04015e-08
-3.97923e-08
-2.53661e-08
-1.94307e-08
-1.1126e-08
-7.78906e-09
-3.32994e-09
-1.81809e-09
-4.81297e-10
-1.16134e-10
-2.73222e-11
1.07909e-09
0.0699789
-0.00377907
-0.00705521
-0.00761071
-0.00695821
-0.00655096
-0.00526577
-0.00483806
-0.00409719
-0.00497366
-0.00295914
-0.0021016
-0.00184527
-0.00149551
-0.00137017
-0.00112916
-0.00104022
-0.000861198
-0.000794601
-0.000659024
-0.000608385
-0.000504734
-0.000465935
-0.00038629
-0.000356448
-0.00029511
-0.000272123
-0.000224864
-0.00020716
-0.00017078
-0.000157162
-0.000129206
-0.000118752
-9.7321e-05
-8.93172e-05
-7.29355e-05
-6.68261e-05
-5.43453e-05
-4.96981e-05
-4.02242e-05
-3.67029e-05
-2.95412e-05
-2.68848e-05
-2.14967e-05
-1.95032e-05
-1.54735e-05
-1.39927e-05
-1.10247e-05
-1.00407e-05
-8.35669e-06
-9.92479e-06
-5.71689e-06
-3.76529e-06
-3.17024e-06
-2.318e-06
-2.01903e-06
-1.46172e-06
-1.2657e-06
-8.97304e-07
-7.6939e-07
-5.33654e-07
-4.52963e-07
-3.07638e-07
-2.5856e-07
-1.72144e-07
-1.43302e-07
-9.35456e-08
-7.70983e-08
-4.92098e-08
-4.00526e-08
-2.47176e-08
-1.95944e-08
-1.07466e-08
-7.86452e-09
-3.10341e-09
-1.79912e-09
-4.05519e-10
-9.33458e-11
-2.17367e-11
1.08095e-09
0.0701939
-0.00362948
-0.00734667
-0.0077542
-0.00694413
-0.00663992
-0.00517917
-0.0048595
-0.00393984
-0.00526918
-0.00284651
-0.00203201
-0.00185022
-0.00147205
-0.00138051
-0.00111372
-0.00104848
-0.000849837
-0.000800954
-0.000650452
-0.000613278
-0.000498193
-0.00046971
-0.000381269
-0.00035936
-0.000291243
-0.000274367
-0.000221884
-0.000208886
-0.000168485
-0.000158487
-0.000127441
-0.000119766
-9.59666e-05
-9.00905e-05
-7.1899e-05
-6.74138e-05
-5.35546e-05
-5.01429e-05
-3.96232e-05
-3.70381e-05
-2.90862e-05
-2.7136e-05
-2.11537e-05
-1.96902e-05
-1.52156e-05
-1.41279e-05
-1.08203e-05
-1.00896e-05
-8.04031e-06
-1.05153e-05
-5.49694e-06
-3.61017e-06
-3.18633e-06
-2.26028e-06
-2.04178e-06
-1.42477e-06
-1.28098e-06
-8.72693e-07
-7.78849e-07
-5.1774e-07
-4.58555e-07
-2.97729e-07
-2.61742e-07
-1.662e-07
-1.45058e-07
-9.0099e-08
-7.80456e-08
-4.72682e-08
-4.05596e-08
-2.36604e-08
-1.9907e-08
-1.01284e-08
-8.01505e-09
-2.73855e-09
-1.78369e-09
-2.86465e-10
-6.09265e-11
-1.3995e-11
1.08352e-09
0.0704561
-0.0033787
-0.00777047
-0.00794637
-0.00690978
-0.00677511
-0.00504689
-0.00490491
-0.00369249
-0.00571476
-0.00266953
-0.00193709
-0.00186302
-0.00143711
-0.00139786
-0.00109022
-0.00106206
-0.00083248
-0.000811367
-0.000637342
-0.000621283
-0.000488184
-0.000475879
-0.000373583
-0.000364118
-0.000285325
-0.000278034
-0.000217323
-0.000211708
-0.000164972
-0.000160653
-0.00012474
-0.000121424
-9.38945e-05
-9.13559e-05
-7.03137e-05
-6.83761e-05
-5.23457e-05
-5.08718e-05
-3.87045e-05
-3.75877e-05
-2.83908e-05
-2.75484e-05
-2.06297e-05
-1.99975e-05
-1.48221e-05
-1.43519e-05
-1.05127e-05
-1.01912e-05
-7.54289e-06
-1.14056e-05
-5.1517e-06
-3.3965e-06
-3.22248e-06
-2.17425e-06
-2.08045e-06
-1.36889e-06
-1.30684e-06
-8.35496e-07
-7.94994e-07
-4.93744e-07
-4.68208e-07
-2.82824e-07
-2.67304e-07
-1.57279e-07
-1.48165e-07
-8.49354e-08
-7.97414e-08
-4.43635e-08
-4.1474e-08
-2.20771e-08
-2.04604e-08
-9.20349e-09
-8.29204e-09
-2.20079e-09
-1.78993e-09
-1.16532e-10
-2.1358e-11
-4.83264e-12
1.08653e-09
0.13605
-0.0653555
-0.00807495
-0.00526866
-0.00370999
-0.00355112
-0.00341715
-0.00341202
-0.00335044
-0.0057954
-0.00305469
-0.00262928
-0.00257863
-0.00226066
-0.00222766
-0.00192596
-0.00189583
-0.00161998
-0.00159288
-0.00134878
-0.00132505
-0.00111406
-0.0010937
-0.000914433
-0.00089723
-0.00074682
-0.000732446
-0.000607444
-0.000595535
-0.000492402
-0.000482601
-0.000397994
-0.00038997
-0.000320877
-0.000314335
-0.000258124
-0.000252808
-0.000207224
-0.000202919
-0.000166059
-0.000162582
-0.000132857
-0.000130056
-0.000106151
-0.000103902
-8.47348e-05
-8.29458e-05
-6.76745e-05
-6.64793e-05
-5.58781e-05
-9.06443e-05
-4.46637e-05
-3.49616e-05
-3.39354e-05
-2.78419e-05
-2.72646e-05
-2.25459e-05
-2.21071e-05
-1.84393e-05
-1.80997e-05
-1.52676e-05
-1.50061e-05
-1.28352e-05
-1.26345e-05
-1.09706e-05
-1.08072e-05
-9.35751e-06
-9.19834e-06
-7.60563e-06
-7.43426e-06
-5.72958e-06
-5.56623e-06
-4.15754e-06
-3.96901e-06
-1.74703e-06
-1.55824e-06
-9.49972e-08
-1.69334e-08
-3.81574e-09
-2.75711e-07
0.134402
-0.0579221
-0.0124882
-0.0061984
-0.00404433
-0.00362273
-0.00345047
-0.00344249
-0.0035315
-0.0053245
-0.00322188
-0.00269346
-0.00256721
-0.0022849
-0.00220806
-0.00194746
-0.00187776
-0.00163978
-0.00157709
-0.00136644
-0.00131155
-0.00112942
-0.00108232
-0.000927537
-0.00088774
-0.000757851
-0.000724595
-0.000616634
-0.000589081
-0.000499999
-0.000477321
-0.000404236
-0.000385668
-0.000325981
-0.000310842
-0.00026228
-0.00024998
-0.000210598
-0.000200635
-0.000168789
-0.000160743
-0.000135061
-0.000128579
-0.000107925
-0.000102721
-8.61661e-05
-8.20337e-05
-6.89471e-05
-6.63006e-05
-5.92568e-05
-8.34263e-05
-4.73661e-05
-3.62678e-05
-3.37388e-05
-2.83328e-05
-2.69873e-05
-2.29014e-05
-2.18852e-05
-1.87148e-05
-1.79287e-05
-1.54807e-05
-1.48755e-05
-1.29986e-05
-1.25337e-05
-1.10917e-05
-1.0713e-05
-9.45499e-06
-9.08644e-06
-7.71232e-06
-7.31639e-06
-5.85169e-06
-5.47312e-06
-4.23862e-06
-3.80319e-06
-1.91384e-06
-1.47976e-06
-2.29582e-07
-4.82011e-08
-1.10466e-08
-2.78133e-07
0.133053
-0.0526058
-0.0153356
-0.00696265
-0.00430933
-0.00368433
-0.00347719
-0.00346906
-0.00364438
-0.00500941
-0.00332608
-0.00274155
-0.00256202
-0.0023009
-0.00219579
-0.0019613
-0.00186642
-0.00165255
-0.00156722
-0.00137786
-0.00130313
-0.00113936
-0.00107524
-0.000936036
-0.000881847
-0.000765011
-0.000719728
-0.000622603
-0.000585085
-0.000504936
-0.000474055
-0.000408294
-0.000383009
-0.0003293
-0.000308684
-0.000264984
-0.000248234
-0.000212793
-0.000199226
-0.000170566
-0.000159608
-0.000136495
-0.000127669
-0.000109081
-0.000101994
-8.71e-05
-8.14791e-05
-6.98016e-05
-6.62974e-05
-6.13866e-05
-7.86171e-05
-4.90697e-05
-3.72308e-05
-3.3657e-05
-2.86612e-05
-2.68195e-05
-2.31339e-05
-2.17494e-05
-1.88948e-05
-1.78241e-05
-1.56201e-05
-1.47957e-05
-1.31053e-05
-1.24719e-05
-1.11703e-05
-1.06539e-05
-9.51683e-06
-9.01472e-06
-7.77983e-06
-7.24124e-06
-5.93031e-06
-5.41421e-06
-4.28771e-06
-3.6955e-06
-2.02242e-06
-1.43391e-06
-3.21408e-07
-7.36958e-08
-1.71504e-08
-2.80192e-07
0.132106
-0.0491828
-0.017027
-0.00749805
-0.00449315
-0.00372918
-0.00349591
-0.00348826
-0.00370964
-0.00481622
-0.00338629
-0.0027734
-0.00256006
-0.00231064
-0.00218867
-0.00196955
-0.00185981
-0.00166016
-0.00156149
-0.00138468
-0.00129826
-0.00114531
-0.00107116
-0.000941124
-0.000878452
-0.000769301
-0.000716928
-0.000626182
-0.000582787
-0.000507898
-0.000472179
-0.000410729
-0.000381482
-0.000331292
-0.000307446
-0.000266608
-0.000247233
-0.000214112
-0.000198419
-0.000171634
-0.000158959
-0.000137357
-0.000127148
-0.000109775
-0.000101578
-8.76619e-05
-8.1166e-05
-7.03284e-05
-6.63498e-05
-6.26301e-05
-7.56784e-05
-5.00643e-05
-3.78629e-05
-3.36318e-05
-2.8863e-05
-2.67251e-05
-2.32742e-05
-2.16721e-05
-1.90033e-05
-1.77646e-05
-1.5704e-05
-1.47504e-05
-1.31697e-05
-1.24367e-05
-1.12173e-05
-1.06195e-05
-9.55318e-06
-8.97221e-06
-7.81941e-06
-7.1969e-06
-5.97708e-06
-5.37965e-06
-4.31539e-06
-3.631e-06
-2.08759e-06
-1.409e-06
-3.78632e-07
-9.15379e-08
-2.15495e-08
-2.81685e-07
0.131619
-0.0475074
-0.0178133
-0.00777239
-0.00458725
-0.00375273
-0.00350556
-0.00349826
-0.00373944
-0.00472444
-0.00341378
-0.00278924
-0.00255952
-0.00231525
-0.00218541
-0.00197339
-0.00185678
-0.00166371
-0.00155886
-0.00138786
-0.00129603
-0.00114809
-0.00106929
-0.000943506
-0.000876905
-0.00077131
-0.000715653
-0.000627859
-0.000581742
-0.000509285
-0.000471326
-0.00041187
-0.000380789
-0.000332226
-0.000306883
-0.000267369
-0.000246778
-0.00021473
-0.000198052
-0.000172134
-0.000158664
-0.000137761
-0.000126911
-0.000110101
-0.00010139
-8.79259e-05
-8.10255e-05
-7.05798e-05
-6.63909e-05
-6.3202e-05
-7.42854e-05
-5.05218e-05
-3.81755e-05
-3.36275e-05
-2.89592e-05
-2.66829e-05
-2.33402e-05
-2.16373e-05
-1.90542e-05
-1.77378e-05
-1.57435e-05
-1.473e-05
-1.31999e-05
-1.24208e-05
-1.12393e-05
-1.06038e-05
-9.56998e-06
-8.95245e-06
-7.83767e-06
-7.17636e-06
-5.99886e-06
-5.3637e-06
-4.32781e-06
-3.60083e-06
-2.11814e-06
-1.39814e-06
-4.0611e-07
-1.00689e-07
-2.38488e-08
-2.82469e-07
0.13162
-0.0475074
-0.0178133
-0.00777238
-0.00458725
-0.00375273
-0.00350556
-0.00349826
-0.00373944
-0.00472444
-0.00341378
-0.00278924
-0.00255952
-0.00231525
-0.00218542
-0.00197339
-0.00185678
-0.00166371
-0.00155886
-0.00138786
-0.00129603
-0.00114809
-0.00106929
-0.000943506
-0.000876905
-0.000771311
-0.000715653
-0.000627859
-0.000581742
-0.000509285
-0.000471326
-0.000411871
-0.000380789
-0.000332226
-0.000306883
-0.000267369
-0.000246778
-0.00021473
-0.000198052
-0.000172134
-0.000158664
-0.000137761
-0.000126911
-0.000110101
-0.00010139
-8.79259e-05
-8.10255e-05
-7.05798e-05
-6.63909e-05
-6.3202e-05
-7.42854e-05
-5.05218e-05
-3.81755e-05
-3.36275e-05
-2.89592e-05
-2.66829e-05
-2.33402e-05
-2.16373e-05
-1.90542e-05
-1.77378e-05
-1.57435e-05
-1.473e-05
-1.31999e-05
-1.24208e-05
-1.12393e-05
-1.06038e-05
-9.56998e-06
-8.95245e-06
-7.83767e-06
-7.17636e-06
-5.99886e-06
-5.3637e-06
-4.32781e-06
-3.60083e-06
-2.11814e-06
-1.39814e-06
-4.06109e-07
-1.00688e-07
-2.38486e-08
-2.82469e-07
0.132106
-0.049183
-0.0170271
-0.00749805
-0.00449315
-0.00372917
-0.00349592
-0.00348827
-0.00370964
-0.00481622
-0.00338629
-0.0027734
-0.00256007
-0.00231064
-0.00218867
-0.00196955
-0.00185981
-0.00166016
-0.00156149
-0.00138468
-0.00129826
-0.00114531
-0.00107116
-0.000941125
-0.000878453
-0.000769302
-0.000716928
-0.000626183
-0.000582788
-0.000507898
-0.000472179
-0.000410729
-0.000381483
-0.000331292
-0.000307446
-0.000266608
-0.000247233
-0.000214112
-0.000198419
-0.000171634
-0.000158959
-0.000137357
-0.000127148
-0.000109775
-0.000101578
-8.7662e-05
-8.11661e-05
-7.03285e-05
-6.63498e-05
-6.26301e-05
-7.56785e-05
-5.00643e-05
-3.78629e-05
-3.36318e-05
-2.8863e-05
-2.67251e-05
-2.32742e-05
-2.16722e-05
-1.90033e-05
-1.77646e-05
-1.5704e-05
-1.47504e-05
-1.31697e-05
-1.24367e-05
-1.12173e-05
-1.06195e-05
-9.55318e-06
-8.97221e-06
-7.81941e-06
-7.1969e-06
-5.97708e-06
-5.37965e-06
-4.31539e-06
-3.631e-06
-2.08759e-06
-1.409e-06
-3.78629e-07
-9.15362e-08
-2.1549e-08
-2.81684e-07
0.133053
-0.0526059
-0.0153356
-0.00696265
-0.00430933
-0.00368433
-0.00347719
-0.00346907
-0.00364438
-0.00500941
-0.00332608
-0.00274155
-0.00256202
-0.0023009
-0.00219579
-0.00196131
-0.00186642
-0.00165255
-0.00156722
-0.00137786
-0.00130313
-0.00113936
-0.00107524
-0.000936036
-0.000881848
-0.000765012
-0.000719729
-0.000622604
-0.000585085
-0.000504937
-0.000474055
-0.000408295
-0.000383009
-0.0003293
-0.000308684
-0.000264984
-0.000248234
-0.000212793
-0.000199226
-0.000170566
-0.000159608
-0.000136495
-0.000127669
-0.000109081
-0.000101994
-8.71e-05
-8.14792e-05
-6.98017e-05
-6.62975e-05
-6.13867e-05
-7.86172e-05
-4.90697e-05
-3.72309e-05
-3.36571e-05
-2.86612e-05
-2.68195e-05
-2.3134e-05
-2.17494e-05
-1.88949e-05
-1.78241e-05
-1.56201e-05
-1.47957e-05
-1.31053e-05
-1.24719e-05
-1.11703e-05
-1.06539e-05
-9.51684e-06
-9.01472e-06
-7.77984e-06
-7.24124e-06
-5.93031e-06
-5.41421e-06
-4.28771e-06
-3.69549e-06
-2.02242e-06
-1.4339e-06
-3.21405e-07
-7.36936e-08
-1.71498e-08
-2.8019e-07
0.134402
-0.0579222
-0.0124882
-0.00619839
-0.00404432
-0.00362273
-0.00345047
-0.0034425
-0.0035315
-0.00532451
-0.00322188
-0.00269347
-0.00256721
-0.0022849
-0.00220806
-0.00194746
-0.00187776
-0.00163978
-0.0015771
-0.00136644
-0.00131155
-0.00112942
-0.00108232
-0.000927538
-0.00088774
-0.000757851
-0.000724596
-0.000616634
-0.000589082
-0.000499999
-0.000477322
-0.000404236
-0.000385668
-0.000325981
-0.000310842
-0.00026228
-0.000249981
-0.000210598
-0.000200636
-0.000168789
-0.000160743
-0.000135061
-0.00012858
-0.000107925
-0.000102721
-8.61662e-05
-8.20337e-05
-6.89472e-05
-6.63007e-05
-5.92569e-05
-8.34264e-05
-4.73661e-05
-3.62678e-05
-3.37388e-05
-2.83328e-05
-2.69873e-05
-2.29014e-05
-2.18852e-05
-1.87149e-05
-1.79287e-05
-1.54807e-05
-1.48755e-05
-1.29986e-05
-1.25337e-05
-1.10917e-05
-1.0713e-05
-9.455e-06
-9.08645e-06
-7.71233e-06
-7.3164e-06
-5.85169e-06
-5.47312e-06
-4.23862e-06
-3.80319e-06
-1.91384e-06
-1.47975e-06
-2.29579e-07
-4.81992e-08
-1.10461e-08
-2.78132e-07
0.13605
-0.0653556
-0.00807496
-0.00526866
-0.00370999
-0.00355112
-0.00341715
-0.00341202
-0.00335044
-0.0057954
-0.00305469
-0.00262928
-0.00257863
-0.00226066
-0.00222766
-0.00192596
-0.00189583
-0.00161999
-0.00159288
-0.00134878
-0.00132505
-0.00111406
-0.0010937
-0.000914433
-0.00089723
-0.000746821
-0.000732446
-0.000607444
-0.000595536
-0.000492402
-0.000482601
-0.000397995
-0.00038997
-0.000320878
-0.000314335
-0.000258124
-0.000252808
-0.000207224
-0.000202919
-0.000166059
-0.000162582
-0.000132857
-0.000130056
-0.000106151
-0.000103902
-8.47348e-05
-8.29459e-05
-6.76746e-05
-6.64793e-05
-5.58781e-05
-9.06444e-05
-4.46637e-05
-3.49616e-05
-3.39354e-05
-2.78419e-05
-2.72646e-05
-2.25459e-05
-2.21071e-05
-1.84393e-05
-1.80997e-05
-1.52676e-05
-1.50061e-05
-1.28352e-05
-1.26345e-05
-1.09706e-05
-1.08072e-05
-9.35751e-06
-9.19834e-06
-7.60563e-06
-7.43426e-06
-5.72958e-06
-5.56623e-06
-4.15754e-06
-3.96901e-06
-1.74703e-06
-1.55823e-06
-9.49961e-08
-1.69327e-08
-3.81558e-09
-2.75711e-07
0.13556
-0.0653669
-0.00805885
-0.00525098
-0.00368791
-0.00352872
-0.00339355
-0.00338824
-0.00332601
-0.00575224
-0.00303144
-0.00260848
-0.00255814
-0.00224204
-0.00220924
-0.00190947
-0.00187955
-0.0016056
-0.00157869
-0.00133638
-0.00131283
-0.00110348
-0.00108329
-0.000905487
-0.000888428
-0.00073931
-0.000725062
-0.00060118
-0.00058938
-0.000487209
-0.000477501
-0.000393712
-0.000385766
-0.000317364
-0.000310888
-0.000255255
-0.000249995
-0.000204892
-0.000200632
-0.00016417
-0.000160731
-0.000131334
-0.000128564
-0.000104927
-0.000102703
-8.37534e-05
-8.19849e-05
-6.68888e-05
-6.57073e-05
-5.52288e-05
-8.95913e-05
-4.41451e-05
-3.45564e-05
-3.35422e-05
-2.75204e-05
-2.69499e-05
-2.2287e-05
-2.18534e-05
-1.82295e-05
-1.78939e-05
-1.50962e-05
-1.4838e-05
-1.26944e-05
-1.24962e-05
-1.08546e-05
-1.06934e-05
-9.26491e-06
-9.10793e-06
-7.53614e-06
-7.36681e-06
-5.68042e-06
-5.51885e-06
-4.12587e-06
-3.93905e-06
-1.7341e-06
-1.54674e-06
-9.42945e-08
-1.6808e-08
-3.78748e-09
-2.73557e-07
0.133912
-0.0579307
-0.0124743
-0.00618088
-0.00402271
-0.00360033
-0.00342693
-0.00341846
-0.00350578
-0.00528486
-0.00319737
-0.00267225
-0.00254678
-0.00226613
-0.00218977
-0.00193084
-0.00186161
-0.00162526
-0.00156302
-0.00135391
-0.00129944
-0.00111872
-0.001072
-0.000918486
-0.000879021
-0.000750247
-0.000717283
-0.000610289
-0.000582987
-0.000494736
-0.000472273
-0.000399894
-0.000381508
-0.000322417
-0.000307431
-0.000259369
-0.000247197
-0.00020823
-0.000198374
-0.000166871
-0.000158913
-0.000133513
-0.000127104
-0.000106681
-0.000101536
-8.51686e-05
-8.10832e-05
-6.81468e-05
-6.55308e-05
-5.85684e-05
-8.24572e-05
-4.68161e-05
-3.58473e-05
-3.33479e-05
-2.80056e-05
-2.66759e-05
-2.26383e-05
-2.16342e-05
-1.85017e-05
-1.77251e-05
-1.53068e-05
-1.47091e-05
-1.28557e-05
-1.23969e-05
-1.09742e-05
-1.06007e-05
-9.36093e-06
-8.99745e-06
-7.64134e-06
-7.25013e-06
-5.80121e-06
-5.42676e-06
-4.20589e-06
-3.77438e-06
-1.8996e-06
-1.46882e-06
-2.27883e-07
-4.78441e-08
-1.09648e-08
-2.75961e-07
0.132563
-0.0526124
-0.0153231
-0.00694532
-0.00428803
-0.00366194
-0.00345368
-0.00344483
-0.00361786
-0.00497212
-0.00330079
-0.00272001
-0.00254161
-0.00228204
-0.00217758
-0.0019446
-0.00185034
-0.00163795
-0.00155322
-0.00136525
-0.00129108
-0.00112859
-0.00106499
-0.000926916
-0.000873181
-0.000757347
-0.00071246
-0.000616206
-0.000579029
-0.000499628
-0.000469039
-0.000403914
-0.000378876
-0.000325704
-0.000305296
-0.000262045
-0.000245469
-0.000210403
-0.00019698
-0.00016863
-0.000157791
-0.000134932
-0.000126204
-0.000107824
-0.000100817
-8.60919e-05
-8.05351e-05
-6.89916e-05
-6.55276e-05
-6.06735e-05
-7.77039e-05
-4.84999e-05
-3.67992e-05
-3.32672e-05
-2.833e-05
-2.65101e-05
-2.28682e-05
-2.15001e-05
-1.86796e-05
-1.76217e-05
-1.54445e-05
-1.46303e-05
-1.29612e-05
-1.23359e-05
-1.10517e-05
-1.05425e-05
-9.42184e-06
-8.92661e-06
-7.70789e-06
-7.17572e-06
-5.87898e-06
-5.36848e-06
-4.2543e-06
-3.66743e-06
-2.00732e-06
-1.42329e-06
-3.19028e-07
-7.31501e-08
-1.70234e-08
-2.78004e-07
0.131616
-0.0491882
-0.0170154
-0.00748086
-0.00447205
-0.00370681
-0.00347242
-0.00346389
-0.00368266
-0.00478037
-0.00336055
-0.00275166
-0.00253966
-0.00229173
-0.00217051
-0.00195279
-0.00184378
-0.00164551
-0.00154754
-0.00137202
-0.00128625
-0.0011345
-0.00106093
-0.000931964
-0.000869816
-0.000761601
-0.000709686
-0.000619753
-0.000576754
-0.000502562
-0.000467182
-0.000406325
-0.000377365
-0.000327676
-0.000304071
-0.000263652
-0.000244479
-0.000211707
-0.000196181
-0.000169686
-0.000157148
-0.000135785
-0.000125689
-0.00010851
-0.000100406
-8.66475e-05
-8.02256e-05
-6.95123e-05
-6.55794e-05
-6.19025e-05
-7.47993e-05
-4.94831e-05
-3.74239e-05
-3.32422e-05
-2.85295e-05
-2.64168e-05
-2.30067e-05
-2.14237e-05
-1.87867e-05
-1.7563e-05
-1.55274e-05
-1.45856e-05
-1.30247e-05
-1.23012e-05
-1.10981e-05
-1.05086e-05
-9.45763e-06
-8.88463e-06
-7.74689e-06
-7.13181e-06
-5.92524e-06
-5.3343e-06
-4.28158e-06
-3.60337e-06
-2.07198e-06
-1.39856e-06
-3.75827e-07
-9.086e-08
-2.13899e-08
-2.79486e-07
0.13113
-0.0475122
-0.0178021
-0.00775528
-0.00456626
-0.00373037
-0.00348208
-0.00347381
-0.00371225
-0.00468929
-0.00338784
-0.00276739
-0.00253912
-0.00229631
-0.00216728
-0.00195661
-0.00184077
-0.00164904
-0.00154493
-0.00137519
-0.00128405
-0.00113726
-0.00105909
-0.000934326
-0.000868283
-0.000763593
-0.000708423
-0.000621415
-0.000575719
-0.000503937
-0.000466337
-0.000407456
-0.000376679
-0.000328601
-0.000303514
-0.000264406
-0.000244029
-0.000212319
-0.000195819
-0.000170181
-0.000156857
-0.000136185
-0.000125455
-0.000108832
-0.000100219
-8.69084e-05
-8.00867e-05
-6.97608e-05
-6.562e-05
-6.24678e-05
-7.34225e-05
-4.99352e-05
-3.77328e-05
-3.3238e-05
-2.86245e-05
-2.63751e-05
-2.30719e-05
-2.13893e-05
-1.88371e-05
-1.75365e-05
-1.55664e-05
-1.45654e-05
-1.30546e-05
-1.22856e-05
-1.11199e-05
-1.04931e-05
-9.47417e-06
-8.86511e-06
-7.76488e-06
-7.11146e-06
-5.94679e-06
-5.31852e-06
-4.29381e-06
-3.57339e-06
-2.10228e-06
-1.38778e-06
-4.03102e-07
-9.99428e-08
-2.36722e-08
-2.80265e-07
0.13113
-0.0475122
-0.0178021
-0.00775527
-0.00456626
-0.00373037
-0.00348208
-0.00347381
-0.00371226
-0.00468929
-0.00338784
-0.00276739
-0.00253912
-0.00229631
-0.00216728
-0.00195661
-0.00184077
-0.00164904
-0.00154493
-0.00137519
-0.00128405
-0.00113726
-0.00105909
-0.000934327
-0.000868283
-0.000763594
-0.000708423
-0.000621415
-0.000575719
-0.000503937
-0.000466337
-0.000407456
-0.000376679
-0.000328601
-0.000303514
-0.000264406
-0.000244029
-0.000212319
-0.000195819
-0.000170181
-0.000156857
-0.000136185
-0.000125455
-0.000108832
-0.000100219
-8.69085e-05
-8.00867e-05
-6.97609e-05
-6.562e-05
-6.24678e-05
-7.34225e-05
-4.99352e-05
-3.77328e-05
-3.3238e-05
-2.86245e-05
-2.63751e-05
-2.30719e-05
-2.13893e-05
-1.88371e-05
-1.75365e-05
-1.55665e-05
-1.45654e-05
-1.30546e-05
-1.22856e-05
-1.11199e-05
-1.04931e-05
-9.47417e-06
-8.86512e-06
-7.76489e-06
-7.11146e-06
-5.94679e-06
-5.31852e-06
-4.29381e-06
-3.57339e-06
-2.10228e-06
-1.38778e-06
-4.03101e-07
-9.99422e-08
-2.3672e-08
-2.80264e-07
0.131616
-0.0491883
-0.0170154
-0.00748086
-0.00447205
-0.0037068
-0.00347242
-0.00346389
-0.00368266
-0.00478038
-0.00336056
-0.00275166
-0.00253966
-0.00229173
-0.00217051
-0.00195279
-0.00184378
-0.00164551
-0.00154754
-0.00137202
-0.00128625
-0.0011345
-0.00106093
-0.000931964
-0.000869817
-0.000761602
-0.000709686
-0.000619753
-0.000576754
-0.000502562
-0.000467182
-0.000406326
-0.000377365
-0.000327676
-0.000304071
-0.000263652
-0.000244479
-0.000211707
-0.000196181
-0.000169686
-0.000157149
-0.000135785
-0.000125689
-0.00010851
-0.000100406
-8.66475e-05
-8.02257e-05
-6.95124e-05
-6.55794e-05
-6.19026e-05
-7.47994e-05
-4.94831e-05
-3.74239e-05
-3.32422e-05
-2.85295e-05
-2.64168e-05
-2.30068e-05
-2.14237e-05
-1.87868e-05
-1.7563e-05
-1.55275e-05
-1.45856e-05
-1.30247e-05
-1.23012e-05
-1.10981e-05
-1.05086e-05
-9.45763e-06
-8.88463e-06
-7.7469e-06
-7.13181e-06
-5.92524e-06
-5.3343e-06
-4.28158e-06
-3.60337e-06
-2.07197e-06
-1.39856e-06
-3.75825e-07
-9.08583e-08
-2.13895e-08
-2.79485e-07
0.132563
-0.0526125
-0.0153231
-0.00694531
-0.00428803
-0.00366194
-0.00345368
-0.00344484
-0.00361787
-0.00497213
-0.00330079
-0.00272002
-0.00254161
-0.00228205
-0.00217758
-0.0019446
-0.00185034
-0.00163795
-0.00155322
-0.00136525
-0.00129109
-0.00112859
-0.00106499
-0.000926917
-0.000873182
-0.000757348
-0.000712461
-0.000616206
-0.000579029
-0.000499628
-0.000469039
-0.000403914
-0.000378876
-0.000325704
-0.000305296
-0.000262046
-0.00024547
-0.000210403
-0.00019698
-0.00016863
-0.000157791
-0.000134932
-0.000126204
-0.000107824
-0.000100817
-8.60919e-05
-8.05352e-05
-6.89916e-05
-6.55277e-05
-6.06735e-05
-7.77039e-05
-4.84999e-05
-3.67992e-05
-3.32672e-05
-2.83301e-05
-2.65101e-05
-2.28682e-05
-2.15001e-05
-1.86796e-05
-1.76217e-05
-1.54445e-05
-1.46303e-05
-1.29612e-05
-1.23359e-05
-1.10517e-05
-1.05425e-05
-9.42185e-06
-8.92662e-06
-7.70789e-06
-7.17572e-06
-5.87898e-06
-5.36848e-06
-4.2543e-06
-3.66743e-06
-2.00732e-06
-1.42329e-06
-3.19025e-07
-7.31479e-08
-1.70228e-08
-2.78003e-07
0.133912
-0.0579308
-0.0124743
-0.00618087
-0.0040227
-0.00360033
-0.00342693
-0.00341847
-0.00350578
-0.00528486
-0.00319738
-0.00267225
-0.00254678
-0.00226614
-0.00218977
-0.00193084
-0.00186161
-0.00162526
-0.00156303
-0.00135391
-0.00129944
-0.00111872
-0.001072
-0.000918486
-0.000879022
-0.000750248
-0.000717283
-0.000610289
-0.000582988
-0.000494736
-0.000472273
-0.000399894
-0.000381508
-0.000322417
-0.000307431
-0.000259369
-0.000247197
-0.00020823
-0.000198374
-0.000166872
-0.000158913
-0.000133513
-0.000127104
-0.000106681
-0.000101536
-8.51687e-05
-8.10833e-05
-6.81469e-05
-6.55308e-05
-5.85684e-05
-8.24572e-05
-4.68161e-05
-3.58473e-05
-3.3348e-05
-2.80056e-05
-2.66759e-05
-2.26384e-05
-2.16343e-05
-1.85017e-05
-1.77251e-05
-1.53068e-05
-1.47091e-05
-1.28557e-05
-1.23969e-05
-1.09742e-05
-1.06007e-05
-9.36094e-06
-8.99745e-06
-7.64135e-06
-7.25014e-06
-5.80121e-06
-5.42676e-06
-4.20589e-06
-3.77438e-06
-1.8996e-06
-1.46881e-06