/*--------------------------------*- C++ -*----------------------------------*\
| =========                 |                                                 |
| \\      /  F ield         | OpenFOAM: The Open Source CFD Toolbox           |
|  \\    /   O peration     | Version:  5.x                                   |
|   \\  /    A nd           | Web:      www.OpenFOAM.org                      |
|    \\/     M anipulation  |                                                 |
\*---------------------------------------------------------------------------*/
FoamFile
{
    version     2.0;
    format      ascii;
    class       volScalarField;
    location    "12.5";
    object      T;
}
// * * * * * * * * * * * * * * * * * * * * * * * * * * * * * * * * * * * * * //

dimensions      [0 0 0 1 0 0 0];

internalField   nonuniform List<scalar> 
6300
(
10.0862
10.2603
10.4392
10.6261
10.824
11.0358
11.2638
11.5103
11.7768
12.0642
12.373
12.7024
13.0512
13.4169
13.7965
10.0846
10.2554
10.4311
10.615
10.8102
11.0194
11.2453
11.4902
11.7557
12.0429
12.3522
12.6831
13.0341
13.4028
13.7862
10.0813
10.2456
10.415
10.5927
10.7822
10.9863
11.2079
11.4494
11.7128
11.9994
12.3098
12.6435
12.9991
13.3741
13.765
10.0763
10.2307
10.3903
10.5588
10.7395
10.9357
11.1505
11.3867
11.6467
11.9321
12.2439
12.5818
12.9446
13.3293
13.7322
10.0695
10.2104
10.3569
10.5126
10.6812
10.8664
11.0716
11.3002
11.555
11.8384
12.1517
12.4953
12.8679
13.2665
13.6862
10.0609
10.1846
10.3142
10.4534
10.6063
10.777
10.9693
11.1873
11.4347
11.7145
12.0293
12.3798
12.7652
13.1822
13.6251
10.0503
10.153
10.2617
10.3805
10.5138
10.6658
10.8414
11.0451
11.2818
11.5558
11.8709
12.2292
12.6307
13.072
13.5459
10.0378
10.1154
10.1991
10.2932
10.4023
10.5312
10.6851
10.8698
11.0914
11.3559
11.6692
12.0355
12.4564
12.9289
13.4444
10.0232
10.0716
10.1261
10.191
10.271
10.3714
10.4981
10.6577
10.858
11.1073
11.4144
11.787
12.2303
12.7429
13.3145
10.0066
10.0216
10.0426
10.0736
10.1194
10.1854
10.278
10.4049
10.5754
10.8008
11.0939
11.468
11.9346
12.4977
13.1465
9.98802
9.96582
9.94897
9.94138
9.94752
9.97269
10.0235
10.1083
10.238
10.4266
10.6922
11.0564
11.5423
12.1668
12.9244
9.96773
9.90466
9.84611
9.79544
9.75657
9.73434
9.73498
9.76687
9.84156
9.97542
10.1917
10.5229
11.0115
11.7027
12.6173
9.94595
9.83895
9.73534
9.63767
9.54896
9.47308
9.41519
9.38255
9.38591
9.44174
9.57628
9.83211
10.2778
11.0151
12.154
9.92307
9.76986
9.61863
9.47091
9.32851
9.19381
9.0701
8.96221
8.87773
8.82929
8.83947
8.95136
9.25244
9.92568
11.3274
9.89954
9.69877
9.49841
9.2988
9.10033
8.90352
8.70915
8.51842
8.33345
8.15819
8.0009
7.88133
7.85485
8.10775
9.38292
14.1539
14.4833
14.8147
15.1456
15.4736
15.7965
16.1121
16.4188
16.7149
16.9991
17.2703
17.5277
17.7705
17.9983
18.2106
18.4072
18.5878
18.7523
18.9006
19.0328
19.149
19.2492
19.3335
19.4022
19.4555
19.4935
19.5165
19.5247
19.5185
19.4981
19.4638
19.4159
19.3547
19.2804
19.1934
19.0939
18.9822
18.8585
18.7232
18.5765
18.4188
18.2501
18.071
17.8816
17.6822
17.4731
17.2546
17.027
16.7904
16.5452
16.2914
16.0295
15.7594
15.4816
15.196
14.903
14.6027
14.2955
13.9815
13.661
13.3342
13.0016
12.6633
12.3197
11.9711
11.6178
11.2602
10.8987
10.5337
10.1657
9.79513
9.42272
9.0491
8.675
8.30124
7.9287
7.55828
7.19095
6.82769
6.46948
6.11728
5.77205
5.43468
5.106
4.78676
4.47763
4.17915
3.89174
3.61569
3.35113
14.1473
14.4803
14.8153
15.1496
15.4809
15.8067
16.1249
16.4338
16.7318
17.0175
17.29
17.5484
17.792
18.0204
18.2331
18.4299
18.6107
18.7753
18.9236
19.0557
19.1718
19.2717
19.3559
19.4243
19.4772
19.5148
19.5374
19.5453
19.5387
19.5179
19.4832
19.4348
19.3732
19.2985
19.2111
19.1112
18.9991
18.8751
18.7394
18.5923
18.4341
18.2651
18.0855
17.8957
17.6959
17.4865
17.2676
17.0396
16.8027
16.5571
16.3031
16.0409
15.7706
15.4924
15.2065
14.9132
14.6126
14.305
13.9906
13.6697
13.3426
13.0095
12.6708
12.3267
11.9776
11.6239
11.2657
10.9036
10.5379
10.1691
9.79772
9.42435
9.04966
8.6744
8.2994
7.92553
7.55374
7.18501
6.82033
6.46073
6.10718
5.76066
5.42209
5.09233
4.77215
4.46223
4.16315
3.87534
3.5991
3.33456
14.1339
14.4742
14.8165
15.158
15.4958
15.8275
16.151
16.4644
16.7661
17.0549
17.3299
17.5902
17.8353
18.0647
18.2783
18.4756
18.6567
18.8214
18.9697
19.1016
19.2173
19.3169
19.4005
19.4683
19.5206
19.5575
19.5794
19.5864
19.579
19.5574
19.5218
19.4727
19.4102
19.3348
19.2465
19.1458
19.033
18.9081
18.7717
18.6238
18.4648
18.2949
18.1146
17.9239
17.7233
17.5131
17.2935
17.0648
16.8272
16.581
16.3265
16.0636
15.7928
15.5141
15.2276
14.9337
14.6325
14.3242
14.009
13.6873
13.3593
13.0254
12.6858
12.3408
11.9908
11.636
11.2768
10.9135
10.5465
10.1761
9.80305
9.42775
9.05093
8.67333
8.2958
7.91926
7.54469
7.17312
6.80559
6.44316
6.08688
5.73775
5.39676
5.06479
4.74269
4.43118
4.13087
3.84224
3.56561
3.30111
14.1133
14.4651
14.8189
15.1713
15.5193
15.8601
16.1915
16.5115
16.8188
17.1121
17.3905
17.6536
17.9008
18.1318
18.3465
18.5445
18.726
18.8908
19.039
19.1707
19.2859
19.3848
19.4676
19.5346
19.5858
19.6216
19.6423
19.6482
19.6396
19.6167
19.5799
19.5295
19.4658
19.3891
19.2996
19.1978
19.0837
18.9578
18.8201
18.671
18.5108
18.3398
18.1581
17.9663
17.7644
17.553
17.3323
17.1025
16.8639
16.6168
16.3614
16.0978
15.8262
15.5466
15.2594
14.9645
14.6623
14.3529
14.0366
13.7137
13.3845
13.0493
12.7084
12.3621
12.0107
11.6544
11.2937
10.9286
10.5596
10.1871
9.81142
9.43324
9.05319
8.67204
8.29067
7.91005
7.53123
7.15531
6.78341
6.41667
6.05619
5.70307
5.35834
5.02299
4.69792
4.38393
4.08172
3.79182
3.51458
3.25019
14.0848
14.4531
14.8231
15.1909
15.5529
15.9061
16.2481
16.5769
16.8913
17.1903
17.4732
17.7397
17.9895
18.2223
18.4382
18.6371
18.819
18.9839
19.132
19.2631
19.3777
19.4757
19.5574
19.6231
19.673
19.7073
19.7264
19.7307
19.7203
19.6957
19.6572
19.6051
19.5398
19.4614
19.3704
19.267
19.1514
19.0239
18.8847
18.7341
18.5723
18.3996
18.2162
18.0227
17.8192
17.6061
17.3838
17.1526
16.9127
16.6644
16.4079
16.1433
15.8707
15.5901
15.3018
15.0058
14.7022
14.3914
14.0736
13.7491
13.4182
13.0812
12.7386
12.3905
12.0373
11.6793
11.3165
10.9492
10.5777
10.2023
9.82332
9.4413
9.05692
8.67095
8.28435
7.89815
7.51351
7.13163
6.75373
6.38106
6.01483
5.65622
5.30636
4.96632
4.63712
4.31968
4.01479
3.7231
3.44504
3.1808
14.0476
14.4384
14.8304
15.2187
15.5991
15.9682
16.3234
16.663
16.9859
17.2915
17.5794
17.8497
18.1022
18.337
18.5543
18.754
18.9363
19.1012
19.2489
19.3794
19.493
19.5898
19.6701
19.7341
19.7822
19.8146
19.8317
19.8339
19.8214
19.7946
19.7539
19.6996
19.6322
19.5518
19.4588
19.3535
19.2361
19.1067
18.9656
18.813
18.6492
18.4744
18.2889
18.0931
17.8874
17.6722
17.4479
17.2149
16.9734
16.7237
16.4659
16.2001
15.9264
15.6447
15.3551
15.0576
14.7525
14.4399
14.1201
13.7934
13.4603
13.1212
12.7764
12.4262
12.0709
11.7107
11.3456
10.9758
10.6014
10.2225
9.83945
9.45267
9.0628
8.67068
8.27733
7.88391
7.49172
7.1021
6.71644
6.33611
5.96243
5.5967
5.24016
4.89399
4.55934
4.23729
3.92881
3.63471
3.35554
3.09157
14.0007
14.4216
14.8428
15.2578
15.6615
16.05
16.4209
16.7729
17.1052
17.4178
17.711
17.9849
18.2401
18.4769
18.6953
18.8958
19.0783
19.2431
19.3902
19.5198
19.6321
19.7274
19.8059
19.8679
19.9138
19.9438
19.9584
19.9579
19.9427
19.9132
19.8698
19.8129
19.7429
19.6601
19.5648
19.4572
19.3376
19.2061
19.0628
18.9079
18.7417
18.5643
18.3761
18.1776
17.9691
17.7513
17.5245
17.2892
17.0458
16.7944
16.5352
16.2682
15.9933
15.7104
15.4195
15.1204
14.8133
14.4985
14.1762
13.8469
13.511
13.1691
12.8217
12.4691
12.1115
11.7489
11.3815
11.009
10.6314
10.2486
9.86083
9.46836
9.07181
8.67208
8.2703
7.86782
7.46613
7.0668
6.6714
6.28148
5.89851
5.52389
5.15895
4.805
4.46335
4.1353
3.82207
3.52475
3.24414
2.98058
13.943
14.4044
14.864
15.3131
15.7454
16.157
16.5457
16.9108
17.2527
17.5721
17.8699
18.1471
18.4045
18.6427
18.8622
19.0631
19.2457
19.4101
19.5565
19.6849
19.7956
19.889
19.9652
20.0247
20.0678
20.095
20.1065
20.1028
20.0844
20.0516
20.0049
19.9448
19.8718
19.7861
19.6881
19.578
19.456
19.3222
19.1765
19.019
18.85
18.6695
18.4781
18.2761
18.0642
17.8429
17.613
17.375
17.1293
16.8761
16.6155
16.3474
16.0715
15.7876
15.4953
15.1945
14.8852
14.5677
14.2422
13.9095
13.5702
13.225
12.8744
12.519
12.1589
11.7941
11.4244
11.0494
10.6687
10.2818
9.88882
9.48979
9.08531
8.67633
8.26419
7.85049
7.43705
7.02574
6.6184
6.21678
5.82251
5.43706
5.06185
4.69825
4.34775
4.0119
3.69237
3.39071
3.10813
2.8452
13.8731
14.3898
14.9
15.3923
15.8591
16.2967
16.7042
17.0821
17.4324
17.7571
18.0582
18.3375
18.5962
18.8353
19.0554
19.2566
19.4391
19.603
19.7483
19.8752
19.9839
20.0749
20.1483
20.2048
20.2447
20.2683
20.2762
20.2687
20.2464
20.2097
20.1591
20.0952
20.0186
19.9296
19.8286
19.7158
19.5913
19.455
19.3068
19.1466
18.9744
18.7904
18.5949
18.3887
18.1724
17.9469
17.7131
17.4717
17.2234
16.9683
16.7065
16.4376
16.1612
15.8766
15.5833
15.2807
14.9689
14.648
14.3186
13.9815
13.6377
13.2883
12.934
12.5755
12.213
11.8462
11.4748
11.0979
10.7145
10.3239
9.92536
9.51895
9.10515
8.68504
8.26021
7.83271
7.40481
6.97886
6.55706
6.14143
5.73371
5.33543
4.94795
4.57261
4.21097
3.86497
3.5369
3.22915
2.94378
2.6818
13.7906
14.3841
14.9618
15.508
16.0147
16.4798
16.9048
17.2931
17.6487
17.9758
18.2778
18.5572
18.816
19.0552
19.2754
19.4768
19.6591
19.8223
19.9664
20.0914
20.1976
20.2856
20.3557
20.4086
20.4445
20.4641
20.4678
20.4558
20.4289
20.3874
20.3322
20.2638
20.1829
20.0901
19.9858
19.8702
19.7432
19.6047
19.4542
19.2912
19.1156
18.9274
18.7271
18.5155
18.2935
18.0625
17.8238
17.5783
17.3269
17.0699
16.8073
16.5384
16.2624
15.9781
15.6842
15.3801
15.0653
14.7403
14.4058
14.0629
13.7133
13.3584
12.9996
12.6376
12.2729
11.905
11.533
11.1555
10.7708
10.377
9.97313
9.55863
9.13398
8.70041
8.25998
7.81538
7.36968
6.9259
6.48678
6.0546
5.63125
5.21818
4.8165
4.42716
4.0516
3.69218
3.3521
3.03533
2.74571
2.4852
13.6966
14.4011
15.069
15.6803
16.23
16.7204
17.1582
17.5508
17.906
18.2306
18.5295
18.8065
19.0637
19.3022
19.5224
19.7241
19.9064
20.069
20.2116
20.3343
20.4375
20.5218
20.5878
20.6363
20.6677
20.6827
20.6814
20.6643
20.6319
20.5848
20.5238
20.45
20.3641
20.2669
20.159
20.0406
19.9116
19.7715
19.6192
19.4537
19.2745
19.0816
18.8754
18.6568
18.4275
18.1891
17.9438
17.6932
17.4383
17.1795
16.9169
16.6493
16.3755
16.093
15.7998
15.4944
15.1764
14.8462
14.5047
14.154
13.7962
13.434
13.0694
12.7037
12.3371
11.9694
11.5989
11.2236
10.8399
10.4447
10.036
9.61281
9.17553
8.72553
8.26566
7.79951
7.3317
6.86615
6.4064
5.95496
5.51394
5.08447
4.66719
4.26183
3.86896
3.49147
3.13371
2.80236
2.50571
2.24766
13.5989
14.4705
15.2573
15.9415
16.5302
17.0367
17.4764
17.8622
18.2071
18.5219
18.8128
19.0842
19.3379
19.5754
19.796
19.9989
20.182
20.3443
20.4851
20.605
20.7042
20.7839
20.8449
20.8882
20.9145
20.9243
20.9176
20.8947
20.8559
20.802
20.7338
20.6532
20.5612
20.459
20.347
20.2261
20.0958
19.9555
19.8029
19.6357
19.4531
19.2547
19.0412
18.8135
18.5742
18.3255
18.0714
17.8139
17.555
17.2946
17.0332
16.7691
16.5007
16.2233
15.9325
15.6269
15.305
14.9681
14.6169
14.255
13.8852
13.5129
13.1406
12.7708
12.403
12.0375
11.6719
11.3033
10.9255
10.5317
10.1197
9.68715
9.23529
8.76478
8.28027
7.78596
7.29038
6.79795
6.31401
5.84023
5.37992
4.93314
4.50067
4.07849
3.66409
3.26233
2.87725
2.5194
2.21008
1.95702
13.5309
14.6618
15.5933
16.3398
16.9487
17.4492
17.8719
18.2321
18.5515
18.8476
19.1237
19.387
19.6352
19.8726
20.0946
20.3022
20.4871
20.6502
20.7886
20.905
20.9989
21.0728
21.1273
21.1642
21.1849
21.1892
21.1768
21.1477
21.1013
21.0392
20.9616
20.8727
20.7726
20.6647
20.5478
20.4248
20.294
20.1569
20.0075
19.8395
19.6544
19.449
19.2273
18.9867
18.7342
18.4692
18.2037
17.9364
17.6735
17.411
17.1531
16.895
16.6385
16.3727
16.0866
15.7824
15.4549
15.1103
14.7444
14.3672
13.9774
13.5918
13.2082
12.8347
12.4655
12.1058
11.7488
11.3965
11.0337
10.645
10.2328
9.78916
9.3218
8.82407
8.30888
7.77412
7.24445
6.71742
6.20688
5.70604
5.22637
4.76111
4.31927
3.88387
3.441
3.00913
2.58151
2.16654
1.83339
1.59284
13.6369
15.1399
16.1957
16.936
17.523
17.9733
18.3574
18.6607
18.929
19.2019
19.4531
19.7111
19.9479
20.192
20.4134
20.638
20.8234
20.9913
21.1236
21.237
21.3222
21.3895
21.4346
21.4632
21.4786
21.478
21.4597
21.4253
21.369
21.2988
21.2051
21.1081
20.9952
20.8831
20.7569
20.6346
20.5011
20.3758
20.2385
20.0678
19.8848
19.6664
19.4403
19.1768
18.9121
18.6134
18.3383
18.0525
17.7912
17.5206
17.273
17.0185
16.7895
16.551
16.2666
15.9714
15.6292
15.2829
14.888
14.4974
14.0634
13.6676
13.2611
12.8924
12.514
12.1699
11.8188
11.5046
11.1789
10.7921
10.3908
9.92526
9.45195
8.90838
8.36557
7.75488
7.19462
6.61307
6.08573
5.54131
5.05197
4.55533
4.12854
3.69995
3.20201
2.74979
2.26755
1.69581
1.32333
1.1194
14.6017
16.2617
17.252
17.753
18.294
18.5927
18.9589
19.1394
19.2996
19.5873
19.7723
20.0657
20.2498
20.5437
20.7275
21.0301
21.1845
21.3836
21.4853
21.6095
21.6709
21.7378
21.7656
21.7808
21.7951
21.792
21.7655
21.7341
21.6566
21.5917
21.4531
21.366
21.2164
21.1213
20.9605
20.8601
20.6961
20.6115
20.5175
20.3134
20.1659
19.8947
19.7069
19.3684
19.1387
18.7235
18.488
18.133
17.9221
17.5971
17.4025
17.1049
16.9541
16.795
16.4619
16.2277
15.8094
15.5255
15.025
14.6901
14.0942
13.7587
13.2594
12.9639
12.513
12.244
11.8356
11.629
11.4122
10.9598
10.6414
10.0724
9.68314
8.9915
8.51992
7.66291
7.17535
6.43059
5.98907
5.2972
4.88802
4.24891
3.94035
3.61587
2.89711
2.53367
2.08241
0.938115
0.570573
0.472737
3.07273
2.78531
2.51363
2.25688
2.0141
1.78415
1.56583
1.35785
1.15892
0.967761
0.7831
0.603699
0.428348
0.255867
0.0850993
3.05642
2.76955
2.49865
2.24289
2.00123
1.77251
1.55546
1.34877
1.15114
0.96125
0.777831
0.599641
0.425472
0.254151
0.084529
3.0235
2.73777
2.46851
2.21477
1.97541
1.74917
1.53471
1.33064
1.1356
0.948258
0.767324
0.591553
0.419743
0.250734
0.0833934
2.97341
2.6895
2.42281
2.17223
1.93645
1.71405
1.50354
1.30345
1.11234
0.928846
0.751645
0.579495
0.411208
0.245646
0.0817027
2.90527
2.62398
2.36096
2.11485
1.88409
1.667
1.46193
1.26726
1.08147
0.903127
0.730906
0.563567
0.399944
0.238934
0.0794734
2.81779
2.54015
2.28218
2.04212
1.81803
1.60792
1.4099
1.22218
1.04313
0.871274
0.705276
0.543915
0.386064
0.230669
0.0767293
2.70926
2.43663
2.18545
1.95338
1.73795
1.53675
1.34756
1.16841
0.997581
0.833553
0.675001
0.520745
0.369721
0.220948
0.0735029
2.57735
2.31162
2.06957
1.84799
1.64362
1.45353
1.27515
1.10631
0.945216
0.790346
0.640422
0.494338
0.351123
0.209895
0.0698364
2.41896
2.16288
1.93322
1.72535
1.53501
1.35859
1.19318
1.03646
0.886613
0.742184
0.601992
0.465057
0.330533
0.197671
0.0657832
2.22987
1.98771
1.77504
1.58515
1.41245
1.25263
1.1025
0.959726
0.822581
0.689773
0.5603
0.433358
0.308276
0.184469
0.061408
2.00437
1.78301
1.59406
1.42776
1.277
1.13697
1.00446
0.877346
0.754201
0.634019
0.51607
0.399795
0.284741
0.17052
0.0567868
1.7348
1.54588
1.39042
1.25479
1.1308
1.01376
0.900998
0.790991
0.682849
0.576023
0.470159
0.365005
0.260367
0.156082
0.0520047
1.4117
1.27529
1.16692
1.07017
0.977655
0.886266
0.794771
0.702762
0.61017
0.517059
0.423533
0.329695
0.235637
0.141436
0.0471538
1.02737
0.976642
0.931787
0.881284
0.823371
0.758865
0.689049
0.615106
0.538003
0.458505
0.377213
0.2946
0.211048
0.126867
0.0423281
0.593374
0.672107
0.702293
0.699802
0.675668
0.636764
0.587447
0.530602
0.468223
0.401739
0.332208
0.260442
0.187083
0.112657
0.0376189
9.87785
9.6332
9.38751
9.13998
8.88962
8.63517
8.3749
8.10631
7.82559
7.52648
7.1976
6.81509
6.31755
5.50415
3.55051
9.85836
9.57432
9.28797
8.99755
8.7009
8.39525
8.0768
7.74007
7.37665
6.97284
6.50454
5.92562
5.13933
3.92905
1.82284
9.83939
9.51704
9.19126
8.85942
8.51841
8.16419
7.79139
7.39234
6.95574
6.46395
5.88829
5.18013
4.25553
2.97611
1.16424
9.82119
9.46215
9.09873
8.72767
8.34507
7.94604
7.52417
7.07069
6.57312
6.01328
5.36403
4.58492
3.61812
2.3929
0.864402
9.80398
9.41028
9.01152
8.60393
8.18313
7.74374
7.27891
6.77963
6.23374
5.62469
4.92994
4.12003
3.16015
2.02028
0.70366
9.78791
9.36193
8.93043
8.48936
8.03408
7.55909
7.05756
6.52092
5.93822
5.29558
4.57582
3.75928
2.82716
1.77041
0.605901
9.7731
9.31742
8.85598
8.38464
7.89873
7.39285
6.86058
6.29418
5.68432
5.02
4.28891
3.47877
2.58073
1.59535
0.540984
9.7596
9.27689
8.78841
8.29003
7.77724
7.24494
6.6873
6.09761
5.46822
4.7908
4.05686
3.25931
2.39493
1.46819
0.495236
9.74741
9.24038
8.72771
8.20543
7.66929
7.11462
6.53627
5.92859
5.28549
4.60082
3.869
3.08625
2.25242
1.37314
0.461649
9.73652
9.20778
8.67367
8.13045
7.5742
7.00074
6.40562
5.78415
5.13162
4.44357
3.71649
2.94867
2.14145
1.30046
0.436259
9.72686
9.17892
8.62595
8.06451
7.49106
6.9019
6.29325
5.66129
5.0024
4.31343
3.59227
2.83845
2.05395
1.24388
0.416648
9.71836
9.15354
8.58411
8.00692
7.41882
6.81659
6.19705
5.55713
4.89405
4.20565
3.49073
2.74952
1.9842
1.19921
0.401251
9.71092
9.13138
8.54764
7.95691
7.35639
6.74331
6.11501
5.46904
4.80329
4.11629
3.40743
2.67733
1.92811
1.16355
0.389007
9.70446
9.11212
8.51603
7.91369
7.30267
6.68059
6.04525
5.39467
4.72729
4.0421
3.33888
2.61842
1.88268
1.13482
0.379173
9.69886
9.09547
8.48875
7.87651
7.25662
6.62708
5.98605
5.33197
4.66364
3.98042
3.2823
2.57013
1.84564
1.11151
0.371211
9.69404
9.08114
8.46531
7.84463
7.21728
6.58155
5.93593
5.27916
4.61035
3.92908
3.23548
2.53039
1.81531
1.09248
0.364722
9.6899
9.06885
8.44523
7.81739
7.18375
6.54289
5.89354
5.2347
4.56571
3.88629
3.19666
2.49757
1.79035
1.07686
0.359407
9.68636
9.05833
8.42807
7.79416
7.15525
6.51012
5.85774
5.19731
4.52831
3.85059
3.16439
2.4704
1.76976
1.064
0.355034
9.68334
9.04936
8.41346
7.77441
7.13105
6.48238
5.82753
5.16585
4.49696
3.82077
3.13753
2.44786
1.75271
1.05338
0.351424
9.68076
9.04173
8.40104
7.75764
7.11056
6.45893
5.80206
5.13941
4.47068
3.79585
3.11515
2.42911
1.73856
1.04457
0.348434
9.67857
9.03525
8.3905
7.74343
7.09321
6.43913
5.78059
5.11718
4.44865
3.775
3.09647
2.4135
1.72679
1.03726
0.345953
9.67672
9.02975
8.38156
7.7314
7.07855
6.42242
5.76252
5.09849
4.43017
3.75756
3.08086
2.40048
1.717
1.03117
0.34389
9.67515
9.02509
8.37401
7.72123
7.06618
6.40834
5.7473
5.08279
4.41467
3.74295
3.06781
2.3896
1.70883
1.0261
0.342172
9.67382
9.02116
8.36762
7.71264
7.05574
6.39647
5.7345
5.0696
4.40166
3.7307
3.05689
2.38052
1.70201
1.02187
0.340738
9.6727
9.01783
8.36223
7.7054
7.04694
6.38647
5.72373
5.05852
4.39075
3.72045
3.04776
2.37292
1.69631
1.01834
0.339542
9.67175
9.01503
8.35768
7.6993
7.03952
6.37806
5.71468
5.04921
4.38159
3.71185
3.0401
2.36657
1.69154
1.01539
0.338542
9.67095
9.01267
8.35385
7.69415
7.03329
6.37099
5.70707
5.04139
4.37391
3.70464
3.0337
2.36125
1.68755
1.01292
0.337706
9.67028
9.01068
8.35062
7.68983
7.02804
6.36504
5.70068
5.03483
4.36747
3.6986
3.02833
2.3568
1.68422
1.01086
0.337007
9.66971
9.009
8.34791
7.68619
7.02363
6.36005
5.69531
5.02933
4.36207
3.69354
3.02383
2.35307
1.68143
1.00913
0.336422
9.66923
9.00759
8.34563
7.68313
7.01993
6.35586
5.69081
5.02472
4.35754
3.68931
3.02007
2.34995
1.67909
1.00768
0.335933
9.66884
9.00641
8.34371
7.68057
7.01682
6.35235
5.68705
5.02086
4.35376
3.68576
3.01693
2.34734
1.67714
1.00648
0.335525
9.6685
9.00542
8.34211
7.67842
7.01422
6.34941
5.68389
5.01763
4.35059
3.6828
3.0143
2.34517
1.67551
1.00547
0.335184
9.66822
9.0046
8.34078
7.67663
7.01205
6.34695
5.68126
5.01493
4.34795
3.68033
3.01211
2.34335
1.67416
1.00463
0.3349
9.66799
9.00391
8.33966
7.67514
7.01025
6.34491
5.67907
5.01269
4.34575
3.67827
3.01028
2.34184
1.67303
1.00393
0.334664
9.6678
9.00334
8.33874
7.6739
7.00875
6.34322
5.67726
5.01083
4.34393
3.67657
3.00878
2.34059
1.67209
1.00336
0.334468
9.66764
9.00287
8.33798
7.67288
7.00752
6.34182
5.67576
5.0093
4.34244
3.67517
3.00754
2.33957
1.67133
1.00288
0.334308
9.66751
9.00249
8.33736
7.67205
7.00651
6.34069
5.67454
5.00806
4.34122
3.67403
3.00652
2.33873
1.6707
1.00249
0.334177
9.6674
9.00218
8.33686
7.67138
7.0057
6.33977
5.67357
5.00706
4.34024
3.67312
3.00571
2.33806
1.6702
1.00218
0.334072
9.66732
9.00193
8.33646
7.67086
7.00507
6.33906
5.6728
5.00627
4.33947
3.67239
3.00507
2.33753
1.6698
1.00194
0.333989
9.66726
9.00175
8.33617
7.67046
7.00458
6.33851
5.67221
5.00567
4.33888
3.67185
3.00459
2.33713
1.6695
1.00175
0.333927
9.66721
9.00162
8.33595
7.67017
7.00424
6.33812
5.6718
5.00524
4.33846
3.67146
3.00424
2.33684
1.66929
1.00162
0.333882
9.66719
9.00154
8.33582
7.67
7.00403
6.33788
5.67154
5.00498
4.3382
3.67122
3.00403
2.33667
1.66916
1.00154
0.333854
9.66717
9.0015
8.33576
7.66992
7.00393
6.33777
5.67142
5.00486
4.33809
3.67111
3.00394
2.33659
1.6691
1.0015
0.333842
9.66718
9.00151
8.33578
7.66994
7.00396
6.3378
5.67145
5.00489
4.33812
3.67114
3.00396
2.33661
1.66912
1.00151
0.333845
9.6672
9.00157
8.33587
7.67006
7.0041
6.33797
5.67163
5.00508
4.3383
3.6713
3.00411
2.33673
1.66921
1.00157
0.333864
9.66723
9.00167
8.33604
7.67028
7.00438
6.33827
5.67196
5.00541
4.33863
3.67161
3.00438
2.33696
1.66937
1.00167
0.333899
9.66728
9.00182
8.33629
7.67062
7.00478
6.33873
5.67245
5.00591
4.33911
3.67207
3.00478
2.33729
1.66962
1.00183
0.333952
9.66735
9.00203
8.33662
7.67107
7.00533
6.33935
5.67311
5.00659
4.33978
3.67269
3.00533
2.33774
1.66996
1.00204
0.334023
9.66745
9.0023
8.33706
7.67166
7.00604
6.34015
5.67397
5.00747
4.34064
3.67349
3.00604
2.33833
1.6704
1.00231
0.334115
9.66756
9.00264
8.33761
7.67239
7.00693
6.34116
5.67505
5.00857
4.34172
3.6745
3.00694
2.33907
1.67096
1.00265
0.334231
9.6677
9.00306
8.33829
7.67331
7.00803
6.3424
5.67638
5.00993
4.34305
3.67575
3.00805
2.33999
1.67164
1.00308
0.334374
9.66788
9.00358
8.33912
7.67442
7.00937
6.34392
5.67801
5.0116
4.34469
3.67727
3.0094
2.34111
1.67248
1.00359
0.334549
9.66809
9.0042
8.34013
7.67576
7.011
6.34576
5.67998
5.01362
4.34666
3.67912
3.01104
2.34246
1.67349
1.00422
0.334761
9.66834
9.00494
8.34134
7.67738
7.01296
6.34798
5.68236
5.01605
4.34904
3.68135
3.01301
2.3441
1.67471
1.00497
0.335016
9.66864
9.00584
8.34279
7.67932
7.01531
6.35063
5.68521
5.01897
4.3519
3.68402
3.01538
2.34606
1.67618
1.00588
0.335324
9.669
9.00691
8.34452
7.68165
7.01812
6.35382
5.68862
5.02246
4.35533
3.68723
3.01822
2.34841
1.67794
1.00697
0.335692
9.66944
9.00819
8.34659
7.68442
7.02148
6.35761
5.69269
5.02664
4.35942
3.69106
3.02162
2.35123
1.68005
1.00827
0.336133
9.66995
9.00971
8.34906
7.68772
7.02548
6.36214
5.69755
5.03162
4.3643
3.69563
3.02568
2.35459
1.68257
1.00983
0.33666
9.67056
9.01152
8.35199
7.69166
7.03025
6.36754
5.70335
5.03756
4.37014
3.70109
3.03053
2.35861
1.68558
1.01169
0.33729
9.67129
9.01368
8.35548
7.69634
7.03593
6.37397
5.71025
5.04465
4.37709
3.70761
3.03632
2.36341
1.68917
1.01392
0.338043
9.67216
9.01624
8.35963
7.7019
7.04267
6.38161
5.71847
5.05308
4.38537
3.71538
3.04322
2.36914
1.69346
1.01658
0.338943
9.67318
9.01927
8.36455
7.70851
7.05069
6.39071
5.72825
5.06313
4.39525
3.72464
3.05146
2.37599
1.69859
1.01975
0.340018
9.6744
9.02287
8.37039
7.71635
7.06021
6.40151
5.73988
5.07509
4.40702
3.7357
3.0613
2.38416
1.70472
1.02355
0.341305
9.67584
9.02714
8.37731
7.72565
7.07151
6.41434
5.75372
5.08933
4.42104
3.74888
3.07305
2.39393
1.71205
1.02809
0.342844
9.67755
9.03219
8.38551
7.73667
7.08491
6.42958
5.77016
5.10627
4.43775
3.76462
3.08709
2.40561
1.72082
1.03353
0.344688
9.67956
9.03816
8.3952
7.74971
7.10079
6.44766
5.78969
5.12644
4.45767
3.7834
3.10386
2.41959
1.73133
1.04006
0.346899
9.68194
9.0452
8.40665
7.76514
7.1196
6.4691
5.8129
5.15044
4.48142
3.80582
3.12393
2.43634
1.74394
1.04789
0.349555
9.68474
9.05351
8.42016
7.78336
7.14184
6.49451
5.84045
5.17898
4.50973
3.83262
3.14796
2.45643
1.75908
1.0573
0.352749
9.68804
9.06329
8.43608
7.80484
7.16812
6.52458
5.87314
5.21294
4.54349
3.86466
3.17675
2.48055
1.7773
1.06864
0.356599
9.69191
9.07477
8.45479
7.83015
7.19912
6.56015
5.9119
5.25333
4.58377
3.903
3.21131
2.50958
1.79926
1.08233
0.361252
9.69644
9.08822
8.47674
7.85988
7.23563
6.60216
5.95783
5.30135
4.63183
3.94891
3.25284
2.54458
1.8258
1.09891
0.366891
9.70173
9.10394
8.50242
7.89474
7.27856
6.6517
6.01219
5.35841
4.6892
4.00395
3.30284
2.58686
1.85798
1.11906
0.373751
9.70789
9.12225
8.53238
7.9355
7.32891
6.71001
6.07646
5.4262
4.75769
4.07001
3.36315
2.63812
1.89714
1.14364
0.382133
9.71503
9.1435
8.56721
7.98301
7.38779
6.77851
6.15232
5.50667
4.83948
4.1494
3.43607
2.70044
1.94498
1.17378
0.392432
9.72327
9.16804
8.60753
8.03817
7.45643
6.85875
6.2417
5.60209
4.93717
4.24492
3.52448
2.77653
2.00374
1.21097
0.405169
9.73273
9.19627
8.65398
8.10194
7.53612
6.95243
6.34675
5.71509
5.05382
4.36002
3.63198
2.86987
2.07639
1.25721
0.421056
9.74354
9.22852
8.70721
8.17528
7.62823
7.06137
6.46982
5.84865
5.19307
4.49888
3.76313
2.985
2.16687
1.31524
0.441078
9.75579
9.26515
8.76781
8.2591
7.73408
7.18744
6.61347
6.0061
5.35912
4.6666
3.92371
3.1279
2.2806
1.38893
0.466646
9.76958
9.30644
8.83631
8.35426
7.85495
7.33249
6.78029
6.19104
5.55679
4.86931
4.12102
3.30654
2.42516
1.48386
0.499857
9.78497
9.35257
8.91307
8.46139
7.99189
7.49818
6.97284
6.40724
5.7914
5.11423
4.36429
3.53165
2.61131
1.60846
0.543975
9.80198
9.40364
8.9983
8.58088
8.14563
7.68582
7.19335
6.6583
6.06859
5.40968
4.66499
3.81763
2.85475
1.77585
0.604389
9.82057
9.45955
9.09191
8.71274
8.31643
7.89614
7.4434
6.94732
6.39382
5.76468
5.03698
4.18384
3.17876
2.00751
0.690715
9.84067
9.52007
9.19351
8.85652
8.50385
8.129
7.72354
7.27621
6.77156
6.18811
5.49607
4.65553
3.61815
2.34023
0.821926
9.86212
9.58473
9.30234
9.01117
8.70667
8.38309
8.03273
7.64488
7.20401
6.68693
6.05825
5.26392
4.22457
2.83988
1.04032
9.88469
9.65286
9.41727
9.17506
8.92272
8.65575
8.36795
8.05036
7.68936
7.26321
6.73546
6.04242
5.07079
3.62761
1.45389
9.90811
9.7236
9.5368
9.34596
9.14893
8.94287
8.72384
8.48595
8.21993
7.91003
7.52742
7.01435
6.24445
4.92265
2.37722
9.93204
9.79591
9.65912
9.52115
9.38138
9.23899
9.0928
8.94106
8.78093
8.60731
8.40995
8.16461
7.80134
7.06738
4.83459
9.95612
9.86868
9.78224
9.69758
9.61565
9.53771
9.46558
9.40198
9.35127
9.32105
9.32575
9.39671
9.6156
10.2529
12.4561
9.97997
9.94075
9.90413
9.8721
9.84711
9.83239
9.83242
9.8539
9.90734
10.0105
10.1955
10.526
11.1392
12.3511
14.873
10.0032
10.011
10.0228
10.0417
10.0714
10.1168
10.1843
10.2836
10.4289
10.643
10.9642
11.459
12.247
13.5393
15.6637
0.244
0.437443
0.521871
0.553274
0.553807
0.534375
0.501205
0.458208
0.408017
0.35249
0.292999
0.230588
0.16609
0.100191
0.0334847
0.130937
0.299813
0.394668
0.441499
0.456882
0.450832
0.429622
0.397387
0.356985
0.31047
0.259378
0.204896
0.147978
0.0894172
0.029909
0.0824568
0.213585
0.300812
0.351559
0.374839
0.377812
0.365691
0.342236
0.310195
0.271626
0.228109
0.180895
0.131004
0.0793009
0.0265482
0.0574375
0.157842
0.232286
0.280689
0.306894
0.31527
0.309628
0.293043
0.267935
0.236214
0.199405
0.158751
0.115288
0.0699128
0.0234259
0.0424668
0.120124
0.181844
0.225233
0.251329
0.262459
0.261163
0.249766
0.230266
0.204335
0.173371
0.138555
0.100899
0.0612962
0.0205567
0.032549
0.0934729
0.14413
0.181783
0.206154
0.218275
0.219709
0.212115
0.197061
0.175948
0.15001
0.120329
0.0878613
0.0534686
0.0179469
0.0255294
0.0739509
0.115444
0.147557
0.169483
0.181511
0.184522
0.179644
0.16806
0.15091
0.129248
0.104038
0.0761595
0.0464244
0.0155952
0.020341
0.0592397
0.0932718
0.120403
0.139685
0.151009
0.154811
0.151827
0.142924
0.129004
0.110949
0.089599
0.0657462
0.0401395
0.0134944
0.0163909
0.0479075
0.0758909
0.0986993
0.115411
0.125728
0.129812
0.128119
0.121271
0.109968
0.094937
0.0768972
0.0565504
0.0345754
0.0116322
0.0133194
0.0390285
0.062103
0.0812287
0.0955761
0.104775
0.108825
0.107991
0.10271
0.093521
0.0810133
0.0657969
0.0484846
0.0296835
0.00999306
0.0108933
0.0319787
0.0510569
0.0670757
0.079316
0.0873962
0.0912274
0.0909488
0.0868622
0.0793775
0.0689699
0.0561515
0.0414523
0.0254088
0.00855913
0.00895402
0.0263224
0.0421349
0.0555461
0.0659443
0.0729675
0.0764834
0.0765505
0.0733736
0.0672629
0.0586
0.0478118
0.0353531
0.0216937
0.00731166
0.00738946
0.0217464
0.0348802
0.0461083
0.0549157
0.0609738
0.0641338
0.0644043
0.0619217
0.0569202
0.0497054
0.0406318
0.0300874
0.0184804
0.00623165
0.00611791
0.0180195
0.0289485
0.0383511
0.0457958
0.050992
0.0537901
0.0541693
0.0522184
0.0481141
0.042101
0.034473
0.0255592
0.0157125
0.00530058
0.00507843
0.0149678
0.0240766
0.0319532
0.0382371
0.0426752
0.0451258
0.045552
0.0440099
0.0406333
0.0356177
0.0292067
0.0216787
0.013337
0.0045009
0.00422465
0.0124581
0.0200602
0.026661
0.0319597
0.0357383
0.0378668
0.0383011
0.0370751
0.0342901
0.0301032
0.0247159
0.0183631
0.0113046
0.00381628
0.00352072
0.0103868
0.0167388
0.0222729
0.0267377
0.0299469
0.0317841
0.0322029
0.0312226
0.0289201
0.0254221
0.0208952
0.0155375
0.00957053
0.00323182
0.00293855
0.00867232
0.0139854
0.0186271
0.0223875
0.025108
0.0266859
0.0270761
0.0262879
0.0243802
0.0214553
0.0176512
0.0131348
0.00809455
0.00273409
0.00245587
0.00724992
0.0116981
0.015593
0.0187593
0.0210623
0.0224125
0.0227674
0.0221303
0.0205465
0.0180988
0.0149018
0.0110958
0.00684088
0.00231113
0.00205488
0.00606764
0.00979496
0.0130648
0.0157305
0.017678
0.0188299
0.0191474
0.0186299
0.0173125
0.0152625
0.0125752
0.00936839
0.005778
0.00195241
0.00172126
0.00508351
0.00820943
0.0109559
0.0132003
0.014846
0.0158266
0.0161072
0.0156849
0.0145871
0.0128688
0.0106091
0.00790732
0.0048784
0.0016487
0.00144336
0.00426347
0.00688731
0.00919565
0.0110857
0.0124759
0.0133092
0.0135549
0.0132088
0.0122924
0.0108509
0.00895
0.00667333
0.00411821
0.00139197
0.0012117
0.00357967
0.00578422
0.00772579
0.00931814
0.0104924
0.0111998
0.0114134
0.0111287
0.0103624
0.00915176
0.00755178
0.00563267
0.00347679
0.00117531
0.00101853
0.00300934
0.00486372
0.00649836
0.00784084
0.00883295
0.00943315
0.00961801
0.00938276
0.00874087
0.00772298
0.0063751
0.00475637
0.00293647
0.000992753
0.000857471
0.00253371
0.00409577
0.00547376
0.00660678
0.0074456
0.00795485
0.00811425
0.00791915
0.00738037
0.00652329
0.00538645
0.00401973
0.0024821
0.000839213
0.000723278
0.00213736
0.0034556
0.00461925
0.00557695
0.00628706
0.00671944
0.00685659
0.00669415
0.00624085
0.0055178
0.0045574
0.00340174
0.0021008
0.000710346
0.00061163
0.00180755
0.00292276
0.00390771
0.00471901
0.00532133
0.005689
0.00580691
0.00567108
0.0052886
0.00467711
0.00386389
0.0028846
0.00178165
0.000602469
0.000518961
0.00153377
0.00248034
0.00331673
0.00400613