/*--------------------------------*- C++ -*----------------------------------*\
| =========                 |                                                 |
| \\      /  F ield         | OpenFOAM: The Open Source CFD Toolbox           |
|  \\    /   O peration     | Version:  5.x                                   |
|   \\  /    A nd           | Web:      www.OpenFOAM.org                      |
|    \\/     M anipulation  |                                                 |
\*---------------------------------------------------------------------------*/
FoamFile
{
    version     2.0;
    format      ascii;
    class       volScalarField;
    location    "7.4";
    object      T;
}
// * * * * * * * * * * * * * * * * * * * * * * * * * * * * * * * * * * * * * //

dimensions      [0 0 0 1 0 0 0];

internalField   nonuniform List<scalar> 
6300
(
10.4331
11.302
12.1791
13.07
13.9794
14.9122
15.8721
16.8625
17.8853
18.9416
20.0306
21.1504
22.2969
23.4646
24.6467
10.4303
11.2936
12.1655
13.0512
13.9561
14.8848
15.8416
16.8298
17.8517
18.9085
19.9997
21.1233
22.2753
23.45
24.6402
10.4246
11.2768
12.1378
13.0133
13.9088
14.8293
15.7795
16.7632
17.7831
18.8408
19.9363
21.0675
22.2306
23.4196
24.6263
10.416
11.2512
12.0956
12.9553
13.8362
14.744
15.6838
16.6601
17.6764
18.7351
19.8367
20.9796
22.1599
23.371
24.6038
10.4043
11.2162
12.038
12.876
13.7368
14.6266
15.5514
16.5168
17.5273
18.5863
19.6956
20.8541
22.0581
23.3003
24.5701
10.3893
11.1715
11.964
12.7739
13.6082
14.474
15.3784
16.3281
17.3293
18.3872
19.5049
20.6829
21.9178
23.2017
24.5218
10.3709
11.1163
11.8726
12.6473
13.448
14.2828
15.1599
16.0878
17.0746
18.1279
19.2536
20.4544
21.7282
23.0666
24.4539
10.3488
11.0501
11.7628
12.4945
13.2537
14.0491
14.8906
15.7883
16.7532
17.7962
18.927
20.1525
21.4737
22.8824
24.3592
10.323
10.9727
11.6338
12.3143
13.0229
13.7694
14.5647
15.4214
16.3535
17.3763
18.5056
19.7548
21.1313
22.6299
24.227
10.2934
10.8838
11.4853
12.1059
12.7543
13.4408
14.1775
14.9789
15.8628
16.8499
17.964
19.2296
20.6664
22.2786
24.0406
10.2602
10.7839
11.3178
11.8695
12.4474
13.0618
13.7253
14.454
15.2687
16.1962
17.2707
18.533
20.0257
21.7773
23.7709
10.2236
10.6737
11.1325
11.6067
12.104
12.6336
13.2078
13.843
14.5615
15.3953
16.3893
17.6059
19.1258
21.0335
23.3611
10.1841
10.5546
10.9319
11.321
11.728
12.1607
12.6293
13.1483
13.7391
14.4341
15.285
16.3752
17.838
19.8694
22.6757
10.1425
10.4288
10.7193
11.0172
11.3264
11.6518
12.0003
12.3819
12.8121
13.3168
13.9413
14.7717
15.9813
17.9302
21.3128
10.0994
10.2987
10.4993
10.7022
10.9085
11.1197
11.3381
11.5667
11.8107
12.0795
12.3915
12.7886
13.3852
14.5569
17.7816
25.736
26.7249
27.7072
28.6778
29.6318
30.5644
31.4718
32.3501
33.1965
34.0084
34.7836
35.5206
36.218
36.875
37.4908
38.0649
38.597
39.0871
39.5352
39.9415
40.3061
40.6297
40.9126
41.1554
41.3588
41.5236
41.6505
41.7404
41.7941
41.8126
41.7966
41.7472
41.6651
41.5513
41.4066
41.2319
41.0279
40.7955
40.5354
40.2484
39.9353
39.5967
39.2335
38.8464
38.436
38.0031
37.5483
37.0722
36.5755
36.0586
35.5221
34.9665
34.3923
33.7999
33.1898
32.5624
31.9184
31.2581
30.5823
29.8915
29.1863
28.4674
27.7355
26.9912
26.2353
25.4686
24.6918
23.9059
23.1118
22.3105
21.5032
20.6914
19.8765
19.06
18.2439
17.43
16.6204
15.8171
15.0223
14.2381
13.4666
12.71
11.9702
11.249
10.5482
9.86915
9.21318
8.58123
7.97396
7.3917
25.7375
26.7339
27.7237
28.7014
29.6619
30.6005
31.5129
32.3957
33.2457
34.0605
34.8381
35.5769
36.2757
36.9337
37.5501
38.1246
38.6569
39.147
39.5948
40.0006
40.3647
40.6876
40.9696
41.2114
41.4138
41.5774
41.7032
41.7918
41.8443
41.8614
41.8442
41.7935
41.7101
41.5951
41.4492
41.2733
41.0682
40.8347
40.5735
40.2854
39.9712
39.6316
39.2674
38.8792
38.4679
38.034
37.5783
37.1014
36.6039
36.0863
35.5491
34.9929
34.418
33.8249
33.2141
32.586
31.9412
31.2801
30.6034
29.9117
29.2056
28.4857
27.7528
27.0075
26.2505
25.4827
24.7047
23.9174
23.1217
22.3187
21.5095
20.6956
19.8783
19.0593
18.2404
17.4237
16.611
15.8046
15.0067
14.2195
13.445
12.6856
11.9431
11.2195
10.5166
9.8358
9.17846
8.54557
7.93781
7.35554
25.7402
26.7521
27.7571
28.7493
29.7231
30.6736
31.5964
32.4879
33.3451
34.1657
34.9479
35.6902
36.3917
37.0515
37.6692
38.2445
38.7771
39.2669
39.7143
40.1192
40.4821
40.8034
41.0837
41.3236
41.5238
41.6852
41.8085
41.8946
41.9445
41.9591
41.9392
41.886
41.8001
41.6827
41.5344
41.3562
41.1488
40.913
40.6496
40.3594
40.0431
39.7014
39.335
38.9449
38.5315
38.0958
37.6383
37.1597
36.6606
36.1415
35.603
35.0454
34.4692
33.8748
33.2627
32.6332
31.9868
31.3241
30.6457
29.9522
29.2442
28.5224
27.7875
27.0401
26.2811
25.5109
24.7305
23.9405
23.1418
22.3354
21.5224
20.7042
19.8822
19.0581
18.2337
17.4111
16.5923
15.7798
14.9756
14.1822
13.4017
12.6365
11.8887
11.1602
10.4529
9.76853
9.10838
8.47356
7.86483
7.28255
25.7437
26.7798
27.8086
28.8232
29.8175
30.7861
31.7244
32.6289
33.4967
34.3257
35.1144
35.8618
36.567
37.2294
37.8489
38.4251
38.958
39.4476
39.894
40.2976
40.6587
40.9777
41.2554
41.4923
41.6892
41.847
41.9666
42.0489
42.0949
42.1055
42.0818
42.0246
41.935
41.8139
41.662
41.4803
41.2695
41.0304
40.7638
40.4703
40.1508
39.8059
39.4364
39.0432
38.6269
38.1882
37.7281
37.2469
36.7455
36.2243
35.6837
35.1242
34.5462
33.9499
33.3357
32.7041
32.0554
31.3903
30.7093
30.013
29.3022
28.5775
27.8396
27.0893
26.3271
25.5537
24.7696
23.9757
23.1726
22.3612
21.5426
20.718
19.8888
19.0569
18.2241
17.3926
16.5646
15.7425
14.9288
14.1259
13.3363
12.5622
11.8061
11.0701
10.3562
9.66619
9.00167
8.36387
7.75363
7.17138
25.7471
26.8176
27.8799
28.9259
29.9485
30.9416
31.9007
32.8221
33.7035
34.5431
35.34
36.0935
36.8031
37.4687
38.0902
38.6675
39.2006
39.6897
40.1349
40.5365
40.8951
41.211
41.4849
41.7177
41.9102
42.0632
42.1777
42.2548
42.2955
42.3008
42.2718
42.2094
42.1147
41.9886
41.832
41.6456
41.4304
41.1869
40.916
40.6182
40.2944
39.9452
39.5715
39.1741
38.7537
38.3112
37.8473
37.3629
36.8584
36.3343
35.7912
35.2293
34.6488
34.0501
33.4334
32.799
32.1473
31.4789
30.7943
30.0944
29.3797
28.6511
27.9094
27.1551
26.3889
25.6112
24.8227
24.0238
23.215
22.3971
21.571
20.7379
19.8992
19.0567
18.2124
17.3687
16.528
15.693
14.8662
14.0503
13.2481
12.462
11.6945
10.948
10.2248
9.52701
8.85635
8.21434
7.60202
7.01986
25.7495
26.8668
27.9743
29.062
30.1213
31.1458
32.1305
33.0725
33.9699
34.8217
35.6276
36.3877
37.102
37.7709
38.3945
38.9728
39.506
39.9943
40.4378
40.8369
41.1921
41.504
41.7732
42.0006
42.1873
42.3341
42.4421
42.5125
42.5464
42.5449
42.5091
42.4401
42.3389
42.2066
42.044
41.852
41.6312
41.3823
41.1061
40.803
40.4738
40.1193
39.7402
39.3373
38.9117
38.4643
37.9958
37.5071
36.9987
36.4713
35.9252
35.3604
34.7773
34.1758
33.556
32.9183
32.2628
31.5902
30.9011
30.1964
29.4768
28.7433
27.9967
27.2376
26.4666
25.6841
24.8904
24.0857
23.2702
22.4445
21.6093
20.7655
19.9147
19.0587
18.1996
17.3402
16.4831
15.6312
14.7876
13.955
13.1365
12.3347
11.5524
10.7923
10.0568
9.34855
8.66963
8.02195
7.40683
6.82492
25.7498
26.9297
28.0969
29.2384
30.344
31.4066
32.4216
33.3867
34.3013
35.1657
35.9806
36.7471
37.4659
38.1378
38.7633
39.3425
39.8756
40.3627
40.8041
41.2
41.5509
41.8576
42.1209
42.3417
42.521
42.6601
42.7601
42.8222
42.8476
42.8376
42.7935
42.7163
42.6073
42.4675
42.2978
42.099
41.8718
41.6166
41.3341
41.0248
40.6892
40.3281
39.9423
39.5329
39.1007
38.647
38.1728
37.6789
37.1661
36.6348
36.0853
35.5176
34.9317
34.3272
33.7041
33.0625
32.4025
31.7248
31.03
30.3193
29.5936
28.854
28.1015
27.3369
26.5606
25.7728
24.9735
24.1626
23.3399
22.5053
21.6594
20.803
19.9374
19.0646
18.1873
17.3081
16.4304
15.5575
14.6927
13.8393
13.0004
12.1791
11.3783
10.6008
9.8496
9.12766
8.4378
7.78254
7.16373
6.58228
25.7469
27.0107
28.256
29.466
30.6282
31.7353
32.7838
33.7731
34.7046
35.5803
36.4029
37.1744
37.8968
38.5711
39.198
39.7779
40.3107
40.7964
41.2351
41.6271
41.9728
42.2732
42.5291
42.7417
42.9121
43.0418
43.1319
43.1839
43.1991
43.1789
43.1247
43.0378
42.9195
42.7709
42.5929
42.3864
42.1518
41.8896
41.6001
41.2837
40.9407
40.5718
40.178
39.7604
39.3202
38.8588
38.3775
37.8774
37.3594
36.8239
36.2711
35.7006
35.1121
34.5049
33.8785
33.2326
32.5674
31.8834
31.1816
30.4632
29.7299
28.9829
28.2235
27.4526
26.6707
25.8777
25.0731
24.2562
23.4261
22.5822
21.7244
20.8533
19.9701
19.0771
18.1771
17.2737
16.3706
15.4718
14.5812
13.7025
12.839
11.9939
11.1703
10.3713
9.6001
8.86042
8.15602
7.49052
6.86674
6.28609
25.7405
27.1177
28.4658
29.7618
30.9914
32.148
33.2308
34.2424
35.1874
36.071
36.8979
37.6721
38.3962
39.0719
39.6999
40.2804
40.8129
41.297
41.7327
42.12
42.4595
42.7521
42.999
43.2016
43.3613
43.4796
43.558
43.5979
43.6009
43.5685
43.5023
43.4038
43.2746
43.1158
42.9286
42.7135
42.4711
42.2014
41.9044
41.5801
41.2288
40.8509
40.4474
40.0198
39.5696
39.0986
38.6087
38.1012
37.5774
37.0375
36.4817
35.9092
35.319
34.7098
34.0804
33.4301
32.7588
32.0671
31.3564
30.6284
29.8853
29.1291
28.3615
27.5839
26.7964
25.9988
25.19
24.3683
23.5318
22.6788
21.8084
20.9206
20.0167
19.0992
18.1717
17.2384
16.3043
15.3741
14.4525
13.5435
12.6508
11.7776
10.9268
10.1014
9.3051
8.54223
7.81811
7.13829
6.50752
5.92823
25.7317
27.2661
28.7501
30.1527
31.4591
32.6666
33.7797
34.8069
35.758
36.6426
37.4684
38.2411
38.9646
39.6406
40.2697
40.8512
41.384
41.8669
42.2992
42.681
43.0129
43.296
43.532
43.7225
43.8694
43.9742
44.0388
44.0644
44.0529
44.006
43.9256
43.8135
43.6715
43.5011
43.3035
43.0793
42.8288
42.5517
42.2473
41.9149
41.5544
41.1661
40.7511
40.311
39.8482
39.3652
38.8645
38.3481
37.8177
37.2736
36.7156
36.1426
35.5526
34.9431
34.3118
33.6573
32.979
32.2779
31.5556
30.8149
30.059
29.2911
28.5138
27.7287
26.9362
26.1357
25.3251
24.5015
23.661
22.8002
21.917
21.0107
20.0825
19.1355
18.1741
17.2042
16.232
15.2639
14.3053
13.3609
12.4344
11.5288
10.6465
9.78969
8.96173
8.16812
7.41629
6.71532
6.07407
5.49708
25.7267
27.4869
29.1513
30.6815
32.0687
33.3204
34.4519
35.4804
36.4239
37.2982
38.1145
38.8806
39.6005
40.2763
40.9073
41.4916
42.0262
42.5088
42.9378
43.3132
43.6357
43.9072
44.1296
44.3055
44.4371
44.5263
44.5746
44.5837
44.5552
44.4912
44.3937
44.2655
44.1085
43.9249
43.7159
43.4823
43.2242
42.9406
42.6297
42.2896
41.9193
41.5191
41.0901
40.6345
40.1554
39.6566
39.1421
38.6148
38.077
37.529
36.9707
36.3999
35.8137
35.2074
34.5763
33.918
33.2317
32.5185
31.7808
31.0229
30.2496
29.4663
28.6768
27.8837
27.0873
26.2866
25.4786
24.6584
23.819
22.9536
22.0584
21.1318
20.1753
19.1921
18.1887
17.1727
16.1538
15.1397
14.1376
13.1521
12.1876
11.2462
10.3292
9.43625
8.56878
7.73371
6.9411
6.20624
5.54798
4.97531
25.7469
27.8449
29.7456
31.4155
32.873
34.147
35.2717
36.2756
37.1889
38.0368
38.8325
39.5858
40.2995
40.9758
41.6113
42.203
42.7427
43.2271
43.6529
44.0207
44.3315
44.5882
44.7937
44.9516
45.0653
45.1364
45.1664
45.1565
45.1081
45.0236
44.9056
44.758
44.5834
44.3846
44.163
43.9201
43.6556
43.3683
43.0537
42.7069
42.3269
41.9128
41.4669
40.991
40.4905
39.97
39.4374
38.8963
38.3502
37.7989
37.243
36.679
36.1034
35.5067
34.8794
34.2188
33.5225
32.7939
32.0347
31.2528
30.454
29.6499
28.8446
28.043
27.244
26.4479
25.6493
24.8426
24.0139
23.1496
22.2449
21.2958
20.3061
19.2776
18.2211
17.1454
16.0682
14.9981
13.9455
12.9131
11.9074
10.9283
9.97734
9.04594
8.12903
7.23807
6.38263
5.58678
4.89855
4.33554
25.8689
28.4867
30.6716
32.4549
33.9408
35.1882
36.2647
37.2005
38.0477
38.8497
39.6107
40.3476
41.0516
41.7332
42.3778
42.9883
43.5381
44.0291
44.4506
44.8096
45.1043
45.3422
45.5254
45.6608
45.7539
45.805
45.8147
45.7838
45.7121
45.6037
45.4594
45.2888
45.0921
44.8765
44.6399
44.3885
44.1189
43.8347
43.5232
43.1715
42.783
42.3515
41.8863
41.3822
40.854
40.3
39.7445
39.1841
38.6305
38.075
37.5262
36.9742
36.423
35.8493
35.2299
34.5702
33.8596
33.1126
32.3208
31.5063
30.6659
29.8345
29.0066
28.1982
27.3963
26.6122
25.8312
25.0581
24.2599
23.4033
22.4948
21.5182
20.4922
19.4032
18.2807
17.1199
15.9723
14.8311
13.7241
12.6354
11.5889
10.5695
9.59715
8.63461
7.65178
6.69117
5.73824
4.81225
4.06871
3.53194
26.401
29.7514
32.1753
33.9223
35.3514
36.4751
37.4596
38.2523
38.971
39.7211
40.4228
41.156
41.8352
42.5433
43.1928
43.8602
44.4175
44.9305
45.3375
45.6904
45.9583
46.1742
46.3251
46.4301
46.5021
46.5326
46.5206
46.4694
46.3681
46.2348
46.0502
45.8565
45.6275
45.3981
45.1372
44.8826
44.6027
44.3396
44.0501
43.6882
43.3006
42.8381
42.3612
41.8073
41.2538
40.6317
40.0583
39.4615
38.9128
38.3409
37.8136
37.2678
36.7744
36.2573
35.638
34.9946
34.2485
33.4955
32.6392
31.7966
30.8643
30.0139
29.1399
28.3437
27.5226
26.7717
26.0012
25.3094
24.5896
23.7315
22.8423
21.8115
20.7686
19.5767
18.3954
17.0753
15.8668
14.6146
13.476
12.2969
11.231
10.1429
9.20269
8.25235
7.14242
6.1331
5.05499
3.77491
2.94108
2.48435
28.7692
32.3495
34.6534
35.8466
37.2015
37.9616
38.9303
39.4098
39.8486
40.6615
41.1888
42.0415
42.5766
43.4372
43.981
44.8899
45.36
45.9837
46.3016
46.6929
46.8864
47.0989
47.1902
47.246
47.3094
47.3207
47.2824
47.226
47.0696
46.9388
46.6535
46.4744
46.1627
45.9642
45.6247
45.4124
45.0616
44.8817
44.6808
44.2411
43.9253
43.3448
42.9464
42.2313
41.7517
40.8929
40.4049
39.6692
39.2278
38.542
38.1272
37.4853
37.1592
36.8121
36.0801
35.5662
34.6468
34.0268
32.9372
32.2157
30.9441
30.2269
29.1606
28.5247
27.5472
26.9592
26.0574
25.6007
25.1181
24.1042
23.3933
22.1217
21.2595
19.7345
18.7095
16.8696
15.8241
14.2344
13.2862
11.7949
10.9051
9.50302
8.82271
8.09977
6.48807
5.67399
4.66248
2.09494
1.27035
1.04988
6.77875
6.14564
5.54694
4.98096
4.4456
3.93841
3.45673
2.99779
2.55875
2.13679
1.72912
1.33303
0.945859
0.565002
0.187916
6.74308
6.11113
5.51412
4.95028
4.41736
3.91283
3.43394
2.97784
2.54163
2.12246
1.71752
1.3241
0.939525
0.561223
0.18666
6.67113
6.04158
5.44806
4.88858
4.36067
3.86156
3.38832
2.93794
2.50743
2.09386
1.69439
1.30629
0.926908
0.553696
0.184159
6.56163
5.93589
5.34788
4.79523
4.2751
3.78436
3.31978
2.87813
2.45625
2.05113
1.65987
1.27973
0.908108
0.542487
0.180434
6.41258
5.79237
5.21225
4.66929
4.16007
3.68094
3.22826
2.7985
2.38829
1.99449
1.61419
1.24465
0.883293
0.527699
0.175522
6.22116
5.60866
5.03939
4.50955
4.01487
3.55102
3.11379
2.69927
2.30387
1.92434
1.55773
1.20135
0.852707
0.509487
0.169475
5.98351
5.38164
4.82703
4.31456
3.83879
3.39441
2.97655
2.58087
2.20354
1.84124
1.49102
1.15029
0.816688
0.48806
0.162363
5.69442
5.10728
4.57245
4.08282
3.63125
3.21123
2.8171
2.44407
2.08816
1.74602
1.4148
1.09207
0.775687
0.463692
0.15428
5.34692
4.78054
4.27261
3.81294
3.39211
3.00211
2.63649
2.29013
1.95899
1.63984
1.33007
1.02751
0.730281
0.436733
0.145341
4.93155
4.39527
3.92443
3.50417
3.12207
2.76857
2.43659
2.12094
1.81778
1.52425
1.23811
0.957588
0.681187
0.407612
0.13569
4.43545
3.94448
3.52562
3.15719
2.82338
2.51347
2.22033
1.93921
1.66693
1.40124
1.14052
0.883532
0.629255
0.376833
0.125492
3.84133
3.42151
3.07634
2.77552
2.50076
2.24157
1.992
1.74862
1.50945
1.27324
1.03919
0.806746
0.575459
0.344966
0.114938
3.12783
2.82382
2.58267
2.36774
2.16253
1.96002
1.75743
1.55381
1.34898
1.14305
0.93625
0.728788
0.520861
0.312629
0.104228
2.27745
2.16322
2.06275
1.95022
1.82157
1.67852
1.52387
1.36018
1.18958
1.01373
0.833952
0.651284
0.466558
0.280458
0.0935714
1.31558
1.48881
1.55485
1.54877
1.49497
1.40861
1.29932
1.17345
1.0354
0.888317
0.734531
0.575829
0.413621
0.249069
0.0831693
10.0596
10.1783
10.2955
10.4102
10.5208
10.6254
10.7215
10.8051
10.87
10.9057
10.8926
10.7879
10.4782
9.58249
6.51258
10.0237
10.0698
10.1121
10.1475
10.1724
10.182
10.1697
10.1257
10.0349
9.87239
9.59343
9.11137
8.24228
6.57011
3.18135
9.98866
9.96402
9.93335
9.89206
9.83458
9.75374
9.63977
9.47872
9.24969
8.91987
8.43526
7.70353
6.564
4.74974
1.9153
9.95498
9.86239
9.76199
9.64786
9.51298
9.34846
9.14252
8.87891
8.5344
8.07477
7.44865
6.57882
5.3542
3.63782
1.34103
9.92306
9.76619
9.60013
9.41806
9.21194
8.97191
8.68527
8.33524
7.899
7.34526
6.63122
5.70045
4.48587
2.92892
1.03428
9.89322
9.67635
9.44939
9.20493
8.93444
8.62769
8.27203
7.85139
7.34517
6.72703
5.96427
5.01914
3.85526
2.45452
0.848314
9.86566
9.59351
9.3108
9.00986
8.68208
8.31742
7.90389
7.42695
6.86901
6.20919
5.42394
4.4897
3.38912
2.12277
0.725135
9.84051
9.51801
9.18485
8.83342
8.45532
8.04107
7.57975
7.05873
6.46358
5.77842
4.98706
4.07575
3.03807
1.88219
0.638502
9.81778
9.44991
9.07159
8.67548
8.25365
7.79739
7.29705
6.74197
6.12065
5.42138
4.63346
3.74954
2.76908
1.70259
0.575
9.79745
9.38905
8.97067
8.53538
8.07587
7.58431
7.05235
6.47118
5.83184
5.12587
4.3465
3.49036
2.55983
1.56541
0.527059
9.77941
9.33512
8.88149
8.4121
7.92033
7.39927
6.84182
6.24078
5.58927
4.88133
4.11284
3.28282
2.39493
1.45872
0.490069
9.76351
9.28768
8.80323
8.30435
7.78511
7.23951
6.66153
6.0454
5.38588
4.67882
3.92189
3.11547
2.26358
1.37457
0.461051
9.74961
9.24621
8.735
8.21074
7.6682
7.1022
6.50773
5.88015
5.2155
4.51094
3.7653
2.97967
2.15801
1.30742
0.437992
9.7375
9.21017
8.67583
8.12982
7.56757
6.98466
6.37692
5.74063
5.07282
4.37158
3.63646
2.86889
2.07253
1.25336
0.419482
9.72703
9.179
8.62474
8.06016
7.48129
6.88436
6.26591
5.62299
4.95335
4.25574
3.53014
2.77811
2.00289
1.20951
0.404502
9.718
9.15215
8.58082
8.00043
7.40755
6.79899
6.17189
5.52389
4.85331
4.15932
3.44218
2.70341
1.94586
1.17372
0.3923
9.71024
9.12912
8.54319
7.94937
7.3447
6.72649
6.09238
5.44048
4.76951
4.07897
3.36925
2.64175
1.89896
1.14437
0.382308
9.7036
9.10941
8.51104
7.90583
7.29125
6.66503
6.02522
5.3703
4.69931
4.01194
3.30865
2.59071
1.86026
1.1202
0.374089
9.69794
9.09259
8.48365
7.86879
7.24588
6.613
5.96854
5.31127
4.64047
3.95596
3.25821
2.54836
1.82823
1.10023
0.367305
9.69311
9.07828
8.46035
7.83735
7.20744
6.56902
5.92075
5.26164
4.59114
3.90917
3.21617
2.51315
1.80165
1.08369
0.361689
9.68901
9.06613
8.44058
7.81069
7.17491
6.53187
5.88047
5.21992
4.54978
3.87004
3.1811
2.48383
1.77956
1.06996
0.357029
9.68553
9.05582
8.42383
7.78813
7.14741
6.50052
5.84656
5.18486
4.5151
3.83728
3.15179
2.45938
1.76116
1.05853
0.353154
9.68258
9.04709
8.40965
7.76906
7.12419
6.47409
5.818
5.15539
4.486
3.80985
3.1273
2.43897
1.74582
1.04901
0.349927
9.68009
9.03971
8.39767
7.75295
7.1046
6.45182
5.79398
5.13064
4.46159
3.78688
3.1068
2.42192
1.73301
1.04107
0.347236
9.67798
9.03347
8.38756
7.73936
7.08809
6.43307
5.77377
5.10984
4.44111
3.76762
3.08965
2.40766
1.72231
1.03443
0.344989
9.6762
9.02821
8.37902
7.72791
7.07418
6.41729
5.75678
5.09237
4.42392
3.75149
3.07529
2.39573
1.71336
1.02889
0.343112
9.6747
9.02377
8.37183
7.71826
7.06248
6.40402
5.74251
5.0777
4.40951
3.73796
3.06326
2.38574
1.70588
1.02426
0.341543
9.67344
9.02004
8.36578
7.71014
7.05263
6.39286
5.73051
5.06539
4.39742
3.72662
3.05318
2.37738
1.69962
1.02038
0.34023
9.67238
9.0169
8.36069
7.70331
7.04436
6.38349
5.72045
5.05507
4.38728
3.71713
3.04475
2.37039
1.69438
1.01714
0.339133
9.67149
9.01426
8.35641
7.69758
7.03741
6.37563
5.71201
5.04641
4.37879
3.70918
3.03769
2.36454
1.69
1.01443
0.338215
9.67074
9.01204
8.35283
7.69277
7.03159
6.36904
5.70493
5.03916
4.37168
3.70252
3.03178
2.35964
1.68634
1.01216
0.337449
9.67011
9.01019
8.34982
7.68875
7.02671
6.36352
5.69902
5.03311
4.36575
3.69696
3.02685
2.35556
1.68328
1.01027
0.336809
9.66959
9.00864
8.34731
7.68538
7.02264
6.35892
5.69408
5.02805
4.36079
3.69233
3.02274
2.35215
1.68074
1.0087
0.336276
9.66915
9.00735
8.34522
7.68259
7.01926
6.35509
5.68998
5.02385
4.35667
3.68848
3.01933
2.34933
1.67862
1.00739
0.335834
9.66879
9.00628
8.34349
7.68027
7.01645
6.35192
5.68658
5.02037
4.35326
3.68529
3.0165
2.34699
1.67687
1.00631
0.335468
9.66849
9.0054
8.34207
7.67836
7.01414
6.34931
5.68378
5.0175
4.35046
3.68267
3.01418
2.34506
1.67543
1.00542
0.335167
9.66825
9.00468
8.34091
7.6768
7.01226
6.34718
5.6815
5.01517
4.34818
3.68054
3.01229
2.3435
1.67426
1.0047
0.334922
9.66805
9.0041
8.33997
7.67556
7.01075
6.34548
5.67967
5.0133
4.34635
3.67882
3.01077
2.34224
1.67332
1.00412
0.334725
9.6679
9.00365
8.33924
7.67458
7.00956
6.34414
5.67824
5.01183
4.34491
3.67748
3.00958
2.34126
1.67259
1.00366
0.334571
9.66779
9.00331
8.33869
7.67384
7.00867
6.34312
5.67715
5.01072
4.34382
3.67647
3.00868
2.34051
1.67203
1.00332
0.334455
9.6677
9.00307
8.3383
7.67331
7.00804
6.34241
5.67639
5.00994
4.34306
3.67575
3.00804
2.33999
1.67164
1.00307
0.334373
9.66765
9.00292
8.33806
7.67299
7.00765
6.34197
5.67591
5.00946
4.34258
3.67531
3.00765
2.33966
1.6714
1.00292
0.334322
9.66763
9.00286
8.33796
7.67286
7.00749
6.34179
5.67572
5.00926
4.34239
3.67513
3.00749
2.33953
1.6713
1.00286
0.334302
9.66764
9.00289
8.338
7.67292
7.00756
6.34187
5.67581
5.00935
4.34248
3.67521
3.00756
2.33959
1.67134
1.00289
0.334311
9.66768
9.003
8.33819
7.67316
7.00786
6.34221
5.67617
5.00971
4.34284
3.67554
3.00786
2.33984
1.67153
1.003
0.334349
9.66775
9.0032
8.33852
7.67361
7.00839
6.34281
5.67682
5.01038
4.34349
3.67615
3.0084
2.34028
1.67186
1.00321
0.334419
9.66785
9.00351
8.33901
7.67426
7.00918
6.3437
5.67777
5.01136
4.34444
3.67705
3.00919
2.34094
1.67235
1.00351
0.334521
9.66799
9.00391
8.33967
7.67514
7.01025
6.34491
5.67907
5.01268
4.34574
3.67826
3.01026
2.34182
1.67301
1.00392
0.33466
9.66817
9.00444
8.34052
7.67628
7.01163
6.34647
5.68074
5.01439
4.34741
3.67982
3.01165
2.34297
1.67387
1.00445
0.334839
9.66839
9.0051
8.34159
7.67772
7.01336
6.34843
5.68283
5.01653
4.34951
3.68178
3.01339
2.34441
1.67494
1.00512
0.335064
9.66867
9.00592
8.34291
7.67948
7.0155
6.35084
5.68542
5.01918
4.3521
3.6842
3.01553
2.34618
1.67627
1.00594
0.335342
9.669
9.00691
8.34451
7.68163
7.0181
6.35378
5.68857
5.02241
4.35526
3.68715
3.01815
2.34835
1.67789
1.00694
0.335681
9.66941
9.00811
8.34646
7.68424
7.02125
6.35735
5.69239
5.02631
4.35909
3.69073
3.02132
2.35098
1.67985
1.00815
0.336091
9.6699
9.00956
8.3488
7.68737
7.02505
6.36163
5.69699
5.03102
4.3637
3.69504
3.02514
2.35414
1.68222
1.00962
0.336586
9.67048
9.01129
8.3516
7.69113
7.0296
6.36678
5.7025
5.03667
4.36923
3.70022
3.02973
2.35794
1.68506
1.01137
0.337181
9.67118
9.01336
8.35496
7.69562
7.03504
6.37293
5.7091
5.04343
4.37585
3.70641
3.03523
2.36249
1.68847
1.01348
0.337894
9.67202
9.01583
8.35896
7.70099
7.04153
6.38028
5.71699
5.0515
4.38377
3.71382
3.0418
2.36794
1.69254
1.016
0.338747
9.67302
9.01878
8.36373
7.70738
7.04927
6.38904
5.72639
5.06114
4.39322
3.72267
3.04966
2.37445
1.69741
1.01901
0.339767
9.6742
9.02228
8.36941
7.71499
7.05849
6.39948
5.7376
5.07263
4.4045
3.73323
3.05904
2.38222
1.70323
1.02261
0.340986
9.67561
9.02644
8.37616
7.72404
7.06946
6.4119
5.75095
5.08633
4.41794
3.74583
3.07023
2.3915
1.71018
1.02692
0.342442
9.67728
9.03139
8.38417
7.73479
7.08251
6.42669
5.76684
5.10265
4.43397
3.76086
3.08359
2.40259
1.71849
1.03206
0.344183
9.67926
9.03726
8.39369
7.74757
7.09801
6.44426
5.78575
5.12208
4.45307
3.77879
3.09953
2.41583
1.72841
1.0382
0.346264
9.68162
9.04422
8.40498
7.76272
7.11641
6.46515
5.80824
5.14521
4.47583
3.80017
3.11856
2.43164
1.74027
1.04555
0.348752
9.6844
9.05247
8.41835
7.7807
7.13826
6.48997
5.83499
5.17274
4.50295
3.82567
3.14129
2.45054
1.75445
1.05434
0.351731
9.68769
9.06222
8.43419
7.80199
7.16416
6.51942
5.86677
5.20551
4.53527
3.8561
3.16844
2.47314
1.77143
1.06487
0.355299
9.69159
9.07375
8.45292
7.8272
7.19485
6.55437
5.90454
5.2445
4.57379
3.89243
3.2009
2.50019
1.79177
1.0775
0.359578
9.69618
9.08736
8.47504
7.857
7.23119
6.59581
5.9494
5.2909
4.61972
3.93581
3.23973
2.5326
1.81616
1.09265
0.364718
9.70159
9.10341
8.50114
7.8922
7.27416
6.64491
6.00266
5.3461
4.67447
3.98765
3.28622
2.57148
1.84547
1.11087
0.370902
9.70796
9.12229
8.53188
7.9337
7.32493
6.70302
6.06584
5.41176
4.73977
4.04964
3.34194
2.61818
1.88073
1.13283
0.378358
9.71543
9.14445
8.568
7.98256
7.38482
6.77174
6.14076
5.48984
4.81767
4.12381
3.40882
2.67437
1.92326
1.15935
0.387369
9.72417
9.17042
8.61037
8.03997
7.45534
6.8529
6.22952
5.58268
4.91063
4.21265
3.48921
2.74213
1.97468
1.19147
0.398295
9.73438
9.20074
8.65993
8.10726
7.53822
6.94859
6.33457
5.69301
5.02159
4.31917
3.58601
2.82404
2.03703
1.23051
0.411591
9.74626
9.23605
8.71771
8.1859
7.63539
7.0612
6.45875
5.82406
5.15408
4.44703
3.7028
2.92334
2.11291
1.27817
0.427845
9.76001
9.277
8.78486
8.27752
7.749
7.19343
6.6053
5.9796
5.3123
4.6007
3.84405
3.04413
2.20568
1.33663
0.447824
9.77589
9.32429
8.86255
8.38386
7.88138
7.34828
6.77791
6.16404
5.50127
4.78563
4.01535
3.19167
2.3197
1.40882
0.472553
9.7941
9.37861
8.952
8.5067
8.035
7.529
6.98073
6.38242
5.72694
5.00851
4.22371
3.37275
2.46072
1.49863
0.503418
9.81488
9.44065
9.05441
8.64788
8.21244
7.73905
7.21828
6.64048
5.99631
5.27746
4.47802
3.59621
2.6365
1.61144
0.542352
9.83842
9.51103
9.1709
8.80912
8.41623
7.982
7.4954
6.94463
6.31751
5.60236
4.7895
3.87376
2.85764
1.75483
0.592127
9.86488
9.59027
9.30242
8.99196
8.64869
8.2613
7.81707
7.30177
6.69983
5.99508
5.17242
4.22099
3.13899
1.93979
0.656869
9.89436
9.67869
9.44963
9.19756
8.91178
8.58005
8.18806
7.71905
7.15353
6.46966
5.64475
4.65887
3.50171
2.18288
0.743009
9.92689
9.7764
9.6128
9.42655
9.20677
8.94062
8.61252
8.20332
7.68937
7.04215
6.22882
5.21567
3.97667
2.51001
0.861194
9.9624
9.88319
9.7917
9.67881
9.53393
9.34417
9.09328
8.76028
8.31774
7.72996
6.95163
5.92928
4.60972
2.96361
1.03047
10.0007
9.99851
9.98543
9.95326
9.89223
9.79015
9.63103
9.39327
9.04694
8.55004
7.84387
6.84924
5.46951
3.61652
1.28847
10.0414
10.1214
10.1924
10.2477
10.279
10.2757
10.2233
10.1016
9.88065
9.51539
8.93637
8.03657
6.65792
4.59929
1.7193
10.0842
10.2504
10.4103
10.5588
10.6898
10.7952
10.8638
10.8788
10.8145
10.6291
10.2516
9.55637
8.31849
6.1524
2.53806
10.1284
10.3839
10.6361
10.882
11.1183
11.3404
11.5414
11.711
11.8324
11.8762
11.7873
11.453
10.6236
8.71119
4.37191
10.1733
10.5198
10.8661
11.2119
11.5567
11.9
12.2407
12.5766
12.9041
13.2154
13.4932
13.6932
13.6806
12.9552
9.26441
10.2183
10.6559
11.0965
11.5423
11.9961
12.4615
12.9431
13.448
13.987
14.5778
15.2531
16.081
17.2325
19.2585
24.4609
10.2626
10.7898
11.3231
11.8672
12.4275
13.0115
13.6294
14.2957
15.0337
15.8813
16.9069
18.244
20.177
23.3557
29.2335
10.3056
10.9196
11.5424
12.1806
12.8424
13.5381
14.2818
15.0937
16.0041
17.061
18.3444
19.9929
22.2561
25.5784
30.6796
0.540734
0.968839
1.15536
1.22451
1.22541
1.1822
1.10865
1.01343
0.90234
0.779486
0.647892
0.509866
0.36724
0.221526
0.0740355
0.29005
0.663895
0.873684
0.977119
1.01097
0.997416
0.950366
0.878967
0.789534
0.686611
0.573589
0.453089
0.327215
0.19772
0.0661343
0.182595
0.472871
0.665855
0.77804
0.829427
0.835889
0.808978
0.757016
0.686088
0.600742
0.504472
0.40004
0.289701
0.175362
0.0587068
0.127161
0.349405
0.514129
0.621174
0.679077
0.697528
0.684976
0.648229
0.592646
0.522452
0.441017
0.351089
0.254962
0.154611
0.0518054
0.0940021
0.265881
0.402453
0.498427
0.556117
0.580689
0.57777
0.552516
0.509345
0.451961
0.383456
0.30644
0.223152
0.135563
0.0454627
0.0720401
0.206873
0.318965
0.402261
0.456151
0.482933
0.486069
0.469238
0.435909
0.389188
0.331802
0.266143
0.194326
0.118257
0.0396929
0.0564991
0.163656
0.255469
0.326512
0.375005
0.401593
0.408228
0.397413
0.371769
0.333816
0.28589
0.23012
0.168452
0.102681
0.0344933
0.0450139
0.131092
0.206395
0.266419
0.309067
0.334105
0.3425
0.335882
0.316172
0.285368
0.245421
0.198189
0.145425
0.088784
0.0298479
0.0362707
0.106011
0.167928
0.218389
0.255355
0.278171
0.287195
0.283438
0.268277
0.243265
0.210007
0.170098
0.125088
0.0764794
0.0257299
0.0294727
0.08636
0.137415
0.179729
0.211467
0.231811
0.240763
0.238909
0.227219
0.206885
0.179211
0.145548
0.10725
0.0656605
0.0221048
0.0241036
0.0707586
0.112971
0.148411
0.175489
0.193361
0.201831
0.201209
0.192163
0.1756
0.152573
0.124214
0.0916965
0.0562062
0.0189334
0.0198121
0.0582418
0.0932278
0.122899
0.145902
0.161437
0.169212
0.169356
0.162324
0.148802
0.129635
0.105768
0.0782061
0.0479893
0.0161742
0.01635
0.0481158
0.0771747
0.102016
0.1215
0.134901
0.141889
0.142485
0.13699
0.125923
0.10996
0.0898858
0.0665586
0.0408816
0.0137854
0.0135363
0.039869
0.0640495
0.084852
0.101322
0.112816
0.119005
0.119842
0.115523
0.106442
0.0931379
0.0762619
0.0565422
0.034759
0.0117259
0.0112361
0.0331165
0.0532694
0.0706956
0.0845975
0.0944153
0.0998354
0.100777
0.0973638
0.0898923
0.0787956
0.0646121
0.0479581
0.0295041
0.0099569
0.00934696
0.0275632
0.0443823
0.0589859
0.0707082
0.079067
0.0837751
0.0847348
0.0820214
0.0758593
0.066596
0.0546773
0.0406233
0.0250081
0.00844241
0.00778935
0.02298
0.0370332
0.0492765
0.0591539
0.0662531
0.0703168
0.0712427
0.0690731
0.0639788
0.0562398
0.0462248
0.0343722
0.0211719
0.00714942
0.00650113
0.0191863
0.0309406
0.0412093
0.0495284
0.0555464
0.0590368
0.0598994
0.058155
0.0539344
0.0474635
0.0390478
0.0290565
0.0179065
0.00604826
0.00543306
0.0160388
0.0258794
0.0344957
0.0415001
0.0465945
0.049581
0.0503658
0.048956
0.045452
0.0400371
0.0329647
0.0245452
0.0151328
0.00511248
0.00454574
0.0134226
0.0216679
0.0289011
0.0347979
0.0391057
0.0416536
0.0423557
0.0412106
0.0382962
0.0337613
0.0278166
0.0207231
0.012781
0.00431876
0.00380742
0.0112447
0.0181591
0.0242342
0.0291986
0.0328388
0.0350075
0.0356279
0.0346936
0.0322652
0.0284643
0.0234661
0.01749
0.0107904
0.00364669
0.00319237
0.00942976
0.015233
0.0203385
0.0245187
0.0275933
0.0294362
0.0299794
0.0292138
0.0271869
0.0239985
0.0197943
0.0147591
0.009108
0.00307854
0.0026796
0.0079162
0.0127914
0.017085
0.0206062
0.0232028
0.0247671
0.0252394
0.0246095
0.0229149
0.0202377
0.0166995
0.0124557
0.00768831
0.00259898
0.00225194
0.00665354
0.0107535
0.0143676
0.0173357
0.0195291
0.020856
0.0212646
0.0207444
0.0193251
0.0170746
0.0140945
0.0105157
0.00649213
0.00219484
0.00189528
0.00560028
0.00905289
0.0120986
0.0146029
0.0164569
0.0175824
0.0179346
0.0175033
0.0163124
0.0144179
0.0119052
0.00888445
0.00548595
0.00185483
0.001598
0.00472224
0.00763472
0.0102056
0.0123215
0.0138903
0.0148455
0.0151485
0.0147895
0.013788
0.0121905
0.0100686
0.0075154
0.00464126
0.00156935
0.00135053
0.00399122
0.00645367
0.00862849
0.0104198
0.0117498
0.0125615
0.0128218
0.0125218
0.0116773
0.010327
0.00853144
0.00636915
0.00393385
0.00133024
0.00114497
0.00338392
0.00547229
0.00731756
0.00883852
0.00996893
0.0106604
0.0108841
0.0106322
0.00991756
0.00877278
0.00724881
0.00541241
0.00334328
0.00113059
0.000974806
0.00288114
0.00465967
0.00623176
0.00752832
0.00849283
0.00908383
0.00927656
0.00906391
0.00845643