/*--------------------------------*- C++ -*----------------------------------*\
| =========                 |                                                 |
| \\      /  F ield         | OpenFOAM: The Open Source CFD Toolbox           |
|  \\    /   O peration     | Version:  5.x                                   |
|   \\  /    A nd           | Web:      www.OpenFOAM.org                      |
|    \\/     M anipulation  |                                                 |
\*---------------------------------------------------------------------------*/
FoamFile
{
    version     2.0;
    format      ascii;
    class       volScalarField;
    location    "3.2001";
    object      gradTx;
}
// * * * * * * * * * * * * * * * * * * * * * * * * * * * * * * * * * * * * * //

dimensions      [0 -1 0 1 0 0 0];

internalField   nonuniform List<scalar> 
2048
(
0.00773422
0.0229665
0.0375123
0.0509851
0.0630915
0.0736457
0.0825685
0.0898719
0.0956369
0.0999885
0.103073
0.105042
0.106041
0.106207
0.105669
0.104547
0.102957
0.101008
0.0988014
0.096427
0.0939595
0.0914568
0.0889594
0.086492
0.0840663
0.0816846
0.0793421
0.0770293
0.0747325
0.0724348
0.0701165
0.0677568
0.0653356
0.0628359
0.0602449
0.0575551
0.0547628
0.0518669
0.0488658
0.0457552
0.0425275
0.0391713
0.0356737
0.0320234
0.0282144
0.0242501
0.0201465
0.0159355
0.011666
0.00740525
0.00323813
-0.000734323
-0.00439825
-0.00763233
-0.0103153
-0.0123356
-0.013602
-0.0140547
-0.0136739
-0.0124852
-0.0105611
-0.00801703
-0.00500423
-0.00170078
0.0230599
0.0684628
0.111784
0.151856
0.187799
0.219066
0.245434
0.266958
0.283897
0.296641
0.305635
0.311334
0.314175
0.314561
0.312869
0.309457
0.304665
0.29882
0.292222
0.285141
0.277798
0.270366
0.262963
0.255659
0.248486
0.241449
0.234532
0.227706
0.22093
0.214154
0.207318
0.200358
0.193215
0.185836
0.178182
0.170233
0.16198
0.15342
0.144551
0.135362
0.125829
0.115918
0.105588
0.0948017
0.0835386
0.0718056
0.0596481
0.0471586
0.0344814
0.0218153
0.0094126
-0.00242519
-0.0133571
-0.0230182
-0.0310421
-0.0370899
-0.0408835
-0.0422383
-0.0410912
-0.0375174
-0.0317339
-0.0240878
-0.015034
-0.005109
0.0382579
0.113544
0.185266
0.251438
0.310589
0.361832
0.404841
0.439766
0.467098
0.487528
0.501829
0.510768
0.515063
0.515373
0.512309
0.506448
0.498349
0.488549
0.477551
0.465799
0.453666
0.44143
0.429282
0.417329
0.405614
0.394136
0.382867
0.371756
0.360736
0.349721
0.338612
0.327301
0.315681
0.303664
0.291187
0.278215
0.264741
0.250767
0.236296
0.221312
0.205776
0.189628
0.172791
0.155197
0.136801
0.117604
0.0976754
0.0771604
0.0562928
0.035398
0.014892
-0.00472509
-0.0228832
-0.0389674
-0.0523549
-0.0624647
-0.0688146
-0.0710799
-0.0691433
-0.063125
-0.0533885
-0.0405196
-0.0252853
-0.00859125
0.0536421
0.15912
0.259371
0.351521
0.43348
0.504049
0.562868
0.610269
0.647061
0.674308
0.693153
0.704692
0.709922
0.709738
0.70496
0.696373
0.68474
0.670811
0.655295
0.638822
0.621913
0.604953
0.588194
0.571764
0.555705
0.540003
0.524606
0.509444
0.494424
0.479426
0.464307
0.448906
0.433068
0.41666
0.399592
0.381824
0.363355
0.344203
0.324384
0.303886
0.282653
0.260592
0.237582
0.213509
0.188289
0.16191
0.134448
0.106097
0.0771725
0.0481212
0.0195202
-0.00793009
-0.0334237
-0.0560808
-0.0749996
-0.0893273
-0.0983463
-0.101564
-0.0987892
-0.0901823
-0.076261
-0.0578677
-0.0361034
-0.012265
0.0694965
0.206008
0.335361
0.453672
0.558202
0.647478
0.721206
0.780027
0.82519
0.858233
0.88073
0.894125
0.899684
0.898508
0.891598
0.879917
0.864432
0.846107
0.825871
0.804554
0.782834
0.7612
0.739948
0.719211
0.69901
0.679297
0.659999
0.641022
0.622252
0.603537
0.584684
0.565472
0.545683
0.525133
0.503702
0.481348
0.45809
0.433977
0.409054
0.383316
0.356695
0.329055
0.300216
0.269998
0.238264
0.204965
0.17018
0.134135
0.0972234
0.0600074
0.0232228
-0.0122281
-0.0452928
-0.0748058
-0.0995534
-0.118369
-0.130252
-0.134501
-0.130824
-0.119415
-0.10096
-0.0765875
-0.0477692
-0.016225
0.086093
0.254987
0.414413
0.559327
0.686291
0.793626
0.881242
0.95026
1.00254
1.04022
1.06537
1.07981
1.08504
1.08234
1.07283
1.05764
1.03791
1.01484
0.989613
0.963272
0.936669
0.910393
0.884768
0.859902
0.835765
0.812262
0.789286
0.766729
0.744461
0.722302
0.700006
0.677277
0.653816
0.629373
0.603796
0.577046
0.549178
0.520298
0.490494
0.459788
0.428093
0.395221
0.360913
0.324899
0.286962
0.247003
0.205082
0.161453
0.116578
0.0711296
0.0259972
-0.017713
-0.0586917
-0.0954629
-0.126459
-0.150144
-0.165174
-0.170578
-0.165928
-0.151441
-0.127998
-0.0970584
-0.0605132
-0.0205485
0.103705
0.306833
0.497684
0.669854
0.819161
0.943812
1.04411
1.1219
1.17985
1.22087
1.2476
1.26224
1.26649
1.26173
1.24915
1.22998
1.20556
1.17735
1.14678
1.11519
1.08361
1.05272
1.02285
0.994056
0.966206
0.939135
0.9127
0.886786
0.861269
0.835948
0.810516
0.784582
0.757741
0.729658
0.700136
0.669152
0.636822
0.603335
0.568855
0.533441
0.496994
0.459256
0.419862
0.37842
0.334606
0.288244
0.239365
0.188242
0.135396
0.0816039
0.027904
-0.0243968
-0.073724
-0.118265
-0.15605
-0.185103
-0.203653
-0.21039
-0.204694
-0.186799
-0.157815
-0.119597
-0.0745232
-0.0252971
0.122619
0.362348
0.586349
0.786604
0.958146
1.09921
1.21075
1.29563
1.35761
1.40052
1.4277
1.44171
1.44437
1.43706
1.42094
1.39733
1.36773
1.33388
1.29758
1.26046
1.22378
1.18833
1.15439
1.12189
1.09057
1.06015
1.03047
1.0014
0.972876
0.944679
0.916437
0.887636
0.857726
0.826255
0.792974
0.757884
0.721197
0.683224
0.644244
0.604378
0.563511
0.521297
0.477229
0.430754
0.381404
0.328904
0.273241
0.214698
0.153854
0.0915817
0.0290571
-0.03222
-0.0904073
-0.143331
-0.188564
-0.223605
-0.246158
-0.254468
-0.24766
-0.225971
-0.19079
-0.144463
-0.0899455
-0.0305175
0.143143
0.422391
0.681638
0.910948
1.10453
1.26086
1.3819
1.47189
1.53602
1.57928
1.60576
1.61835
1.61889
1.6086
1.58855
1.56
1.52467
1.48465
1.44214
1.39917
1.35728
1.31733
1.27953
1.2436
1.20909
1.17556
1.1428
1.11077
1.07946
1.04868
1.01798
0.986675
0.954031
0.91943
0.882554
0.843447
0.802454
0.760069
0.716733
0.672658
0.627719
0.581451
0.533156
0.482075
0.427554
0.36919
0.306915
0.241022
0.172143
0.101241
0.029615
-0.0410606
-0.108682
-0.170695
-0.224156
-0.265941
-0.293097
-0.303299
-0.295323
-0.269392
-0.22725
-0.171861
-0.106884
-0.0362402
0.165616
0.487899
0.784867
1.0443
1.25958
1.42971
1.55812
1.65091
1.71506
1.75701
1.78165
1.79213
1.79015
1.7766
1.75225
1.7183
1.67666
1.62983
1.58057
1.53139
1.48417
1.43984
1.39844
1.35943
1.32203
1.28562
1.24994
1.21507
1.18117
1.1481
1.11532
1.08193
1.04692
1.00946
0.969123
0.926033
0.880725
0.833942
0.786354
0.738307
0.689663
0.639798
0.58777
0.532549
0.473247
0.409302
0.340587
0.267408
0.190458
0.110779
0.0297709
-0.0507425
-0.128419
-0.200313
-0.262907
-0.312335
-0.344833
-0.35734
-0.348157
-0.317466
-0.267469
-0.201937
-0.125393
-0.0424769
0.190417
0.559903
0.897463
1.18816
1.42455
1.60661
1.73981
1.83268
1.89449
1.93336
1.95509
1.96293
1.9582
1.94125
1.91235
1.87253
1.82392
1.76957
1.71292
1.65711
1.60443
1.55589
1.51128
1.4696
1.42966
1.39059
1.35209
1.31446
1.27812
1.24307
1.20864
1.17362
1.13666
1.09661
1.05293
1.00583
0.956123
0.904886
0.853104
0.801312
0.749353
0.696398
0.641181
0.582331
0.518664
0.44943
0.374443
0.294042
0.208988
0.120397
0.0297447
-0.0610429
-0.149423
-0.232067
-0.304824
-0.362955
-0.401692
-0.417034
-0.406629
-0.370572
-0.311671
-0.234766
-0.145471
-0.0492172
0.217971
0.639556
1.02098
1.34408
1.60069
1.79229
1.92719
2.01701
2.07383
2.1078
2.12564
2.13051
2.12304
2.10273
2.06915
2.02298
1.96667
1.90398
1.83919
1.77627
1.71803
1.66555
1.61819
1.57436
1.5323
1.49078
1.44948
1.40906
1.37039
1.33368
1.29807
1.26196
1.22351
1.18118
1.13423
1.08303
1.02874
0.972915
0.916944
0.861621
0.806775
0.751293
0.693491
0.631571
0.563984
0.489756
0.408656
0.321092
0.227911
0.130299
0.0297729
-0.0716992
-0.171441
-0.26577
-0.349847
-0.417911
-0.46397
-0.482817
-0.471212
-0.429077
-0.360024
-0.270346
-0.167048
-0.0564242
0.24876
0.728145
1.15714
1.51375
1.78922
1.98739
2.12031
2.20349
2.2524
2.2796
2.29274
2.29457
2.28464
2.26126
2.22297
2.17
2.10516
2.03316
1.95936
1.88877
1.82489
1.76882
1.71934
1.67399
1.63029
1.58651
1.54235
1.49899
1.45803
1.41998
1.38375
1.34717
1.30777
1.26348
1.2133
1.1578
1.09867
1.03802
0.977796
0.91915
0.861887
0.80451
0.744793
0.680415
0.609382
0.530449
0.443378
0.348702
0.247384
0.140676
0.0301
-0.0824167
-0.194163
-0.30116
-0.397845
-0.477262
-0.531932
-0.555135
-0.542407
-0.493343
-0.412636
-0.30858
-0.189969
-0.0640288
0.283333
0.82711
1.30782
1.69894
1.99137
2.19241
2.31906
2.3915
2.42929
2.44786
2.45573
2.45479
2.44298
2.41708
2.37422
2.31394
2.23961
2.1572
2.07337
1.99445
1.92487
1.86572
1.8149
1.76879
1.72401
1.67818
1.63092
1.58432
1.54102
1.502
1.46579
1.42945
1.38974
1.34385
1.29042
1.23033
1.16598
1.10015
1.03555
0.973778
0.914625
0.856067
0.795174
0.729011
0.655035
0.571671
0.478738
0.37699
0.267536
0.151701
0.0309691
-0.0928756
-0.217226
-0.337911
-0.448618
-0.541008
-0.605812
-0.634443
-0.620757
-0.563741
-0.469546
-0.349255
-0.213986
-0.071925
0.322312
0.938058
1.47507
1.90155
2.20832
2.4077
2.52314
2.58024
2.60343
2.61152
2.61387
2.61082
2.59803
2.57046
2.52337
2.45521
2.37027
2.27619
2.18112
2.09309
2.01778
1.95623
1.90506
1.85911
1.81392
1.7662
1.71546
1.66505
1.61927
1.5797
1.54428
1.509
1.46972
1.42266
1.36589
1.3008
1.23072
1.15927
1.09004
1.02534
0.964909
0.905978
0.844721
0.777507
0.701125
0.613572
0.514839
0.40604
0.288465
0.163517
0.0326127
-0.102739
-0.240221
-0.375626
-0.5019
-0.609093
-0.685807
-0.72122
-0.706879
-0.64067
-0.530711
-0.39202
-0.238733
-0.0799646
0.366416
1.06277
1.66114
2.12361
2.44117
2.63341
2.73209
2.76876
2.77351
2.76939
2.76637
2.76233
2.74981
2.72175
2.67098
2.59428
2.49738
2.39021
2.2825
2.18441
2.10338
2.04033
1.99004
1.94531
1.90048
1.85108
1.79622
1.74117
1.69264
1.65303
1.61931
1.58603
1.54805
1.50032
1.44002
1.36938
1.29296
1.21527
1.14108
1.07365
1.01264
0.95426
0.893516
0.826057
0.747846
0.656289
0.551747
0.435903
0.310228
0.176231
0.0352434
-0.111659
-0.262693
-0.413843
-0.557357
-0.681398
-0.772064
-0.815959
-0.801493
-0.724574
-0.595991
-0.436364
-0.263719
-0.0879532
0.416479
1.20323
1.86846
2.36729
2.69095
2.86949
2.94532
2.95592
2.93808
2.92011
2.91243
2.90904
2.8983
2.87133
2.81774
2.73163
2.62116
2.49937
2.37737
2.26805
2.18135
2.11799
2.0701
2.02776
1.98426
1.93344
1.87349
1.81255
1.76087
1.72187
1.69097
1.6607
1.62507
1.5773
1.51316
1.43621
1.35275
1.26807
1.18843
1.11847
1.05772
1.00095
0.941633
0.874814
0.795417
0.699953
0.589491
0.466591
0.332846
0.189908
0.0390453
-0.119288
-0.28415
-0.452032
-0.61459
-0.757751
-0.864653
-0.919169
-0.905469
-0.815975
-0.665124
-0.48158
-0.288311
-0.0956494
0.47349
1.36157
2.09962
2.63496
2.95849
3.11556
3.16211
3.14053
3.09548
3.06221
3.05125
3.05079
3.04351
3.01964
2.96452
2.86779
2.74176
2.60378
2.46558
2.34357
2.25128
2.1892
2.14557
2.10683
2.06582
2.014
1.94758
1.87898
1.82361
1.78611
1.75937
1.73317
1.70113
1.65416
1.58563
1.50141
1.41018
1.31757
1.2318
1.1595
1.10006
1.0461
0.989135
0.923931
0.844089
0.744679
0.628051
0.498089
0.356299
0.204561
0.044165
-0.125284
-0.304064
-0.489595
-0.673148
-0.837927
-0.963544
-1.03135
-1.01988
-0.915505
-0.737695
-0.526739
-0.311734
-0.102766
0.538661
1.54011
2.35732
2.92922
3.24443
3.37085
3.38175
3.32131
3.24386
3.19405
3.18211
3.18757
3.18537
3.16712
3.1124
3.00329
2.85925
2.70368
2.547
2.4104
2.3127
2.25396
2.21685
2.18286
2.14576
2.09368
2.01883
1.94011
1.88038
1.84559
1.82468
1.80353
1.77656
1.73155
1.65777
1.56503
1.46535
1.36367
1.27085
1.19642
1.13955
1.08983
1.03606
0.973553
0.894177
0.790568
0.66734
0.530354
0.380531
0.220146
0.0507046
-0.129325
-0.321879
-0.525865
-0.732532
-0.921669
-1.06856
-1.15294
-1.14608
-1.02396
-0.81308
-0.570652
-0.333064
-0.108975
0.613527
1.74131
2.64432
3.25306
3.54908
3.63408
3.60357
3.497
3.38119
3.31387
3.30437
3.31964
3.32369
3.31417
3.2628
3.13864
2.97351
2.79939
2.62154
2.46788
2.365
2.31232
2.2845
2.25607
2.22469
2.17365
2.08761
1.99543
1.93054
1.90018
1.88718
1.87177
1.85168
1.81032
1.72989
1.62702
1.51843
1.40629
1.30515
1.22882
1.17613
1.13231
1.08237
1.0238
0.946087
0.8377
0.707193
0.563337
0.405455
0.236553
0.0587154
-0.13111
-0.337018
-0.560097
-0.79221
-1.00873
-1.1793
-1.28431
-1.28581
-1.14234
-0.890382
-0.611841
-0.351255
-0.113924
0.700129
1.9677
2.96327
3.61001
3.87232
3.90326
3.8272
3.6664
3.50517
3.41971
3.41753
3.44762
3.458
3.46112
3.41764
3.27427
3.08414
2.89148
2.68917
2.51518
2.40741
2.36436
2.34929
2.32653
2.30314
2.25541
2.15431
2.0442
1.97329
1.94976
1.94731
1.93774
1.92674
1.89156
1.80226
1.68716
1.56974
1.44538
1.33421
1.25624
1.20978
1.17387
1.12797
1.07475
1.00037
0.886121
0.747326
0.597003
0.430962
0.253599
0.0681949
-0.130379
-0.348891
-0.591459
-0.851629
-1.09891
-1.29512
-1.42557
-1.44134
-1.27194
-0.968319
-0.648511
-0.365158
-0.117249
0.801291
2.22179
3.3165
4.00451
4.21342
4.17547
4.05276
3.82845
3.61326
3.5094
3.52128
3.57274
3.58745
3.6081
3.57951
3.41044
3.19028
2.98087
2.74993
2.55124
2.43903
2.41026
2.41231
2.394
2.38153
2.34097
2.21934
2.08542
2.00762
1.99426
2.0058
2.00103
2.00185
1.97673
1.87503
1.745
1.61977
1.48095
1.3574
1.2781
1.2405
1.215
1.17259
1.1264
1.0578
0.935824
0.787304
0.631376
0.456925
0.271017
0.0790867
-0.126916
-0.356911
-0.619008
-0.910223
-1.19221
-1.41495
-1.5765
-1.61567
-1.41442
-1.04508
-0.678533
-0.373576
-0.118598
0.921052
2.50597
3.70571
4.44234
4.57081
4.44648
4.28131
3.98226
3.70254
3.58054
3.61549
3.69704
3.71048
3.75487
3.75207
3.54711
3.29042
3.06908
2.80395
2.5748
2.45871
2.45025
2.47514
2.45778
2.46005
2.43304
2.28308
2.11775
2.0323
2.03366
2.06379
2.06085
2.07697
2.06785
1.94821
1.79971
1.66933
1.51303
1.37399
1.29373
1.26835
1.25648
1.21575
1.17862
1.11947
0.986714
0.826475
0.666594
0.483206
0.28844
0.0912872
-0.120566
-0.360515
-0.641663
-0.967413
-1.28892
-1.53726
-1.73629
-1.81276
-1.57192
-1.11813
-0.699452
-0.375329
-0.117665
1.06531
2.82226
4.13143
4.93134
4.94181
4.71036
4.51535
4.1271
3.76968
3.63043
3.70018
3.82377
3.82455
3.90068
3.94045
3.68379
3.38209
3.15849
2.85144
2.58425
2.46508
2.48464
2.54012
2.5165
2.53851
2.53531
2.34581
2.13943
2.04586
2.06802
2.12307
2.11584
2.15172
2.16778
2.02152
1.84992
1.71972
1.54172
1.38306
1.30234
1.29343
1.29948
1.2566
1.23112
1.18696
1.03856
0.863897
0.702994
0.509658
0.305382
0.104659
-0.111239
-0.359192
-0.658163
-1.02258
-1.38984
-1.65993
-1.90326
-2.03792
-1.74715
-1.18392
-0.708521
-0.369344
-0.114214
1.24277
3.17206
4.59239
5.48242
5.32215
4.95886
4.75958
4.26236
3.81082
3.65603
3.77549
3.95795
3.92567
4.04396
4.15194
3.81925
3.46149
3.25282
2.89265
2.57764
2.45651
2.51373
2.61062
2.56783
2.61622
2.6528
2.40758
2.14823
2.0466
2.0974
2.18635
2.16388
2.2253
2.2805
2.09431
1.89357
1.77296
1.5671
1.3835
1.30298
1.31583
1.34577
1.29383
1.2833
1.26252
1.09092
0.898231
0.741236
0.536115
0.321213
0.119056
-0.0989249
-0.352526
-0.667015
-1.07504
-1.49662
-1.78004
-2.07442
-2.2982
-1.94352
-1.23754
-0.702788
-0.354757
-0.108114
1.46626
3.55576
5.08446
6.11094
5.70549
5.18062
5.02193
4.38728
3.82147
3.654
3.8414
4.10702
4.0078
4.18196
4.39679
3.95121
3.52301
3.35767
2.92769
2.55258
2.43107
2.53771
2.69153
2.6081
2.69166
2.79239
2.46802
2.1414
2.03257
2.12181
2.25763
2.2017
2.29627
2.41162
2.16532
1.92757
1.83212
1.58923
1.37395
1.29457
1.3356
1.39796
1.32544
1.33419
1.34936
1.14304
0.927618
0.782462
0.562365
0.335123
0.134357
-0.0837004
-0.340259
-0.66643
-1.12388
-1.61208
-1.89384
-2.2449
-2.60302
-2.16526
-1.27226
-0.679251
-0.331027
-0.099362
1.7545
3.97227
5.59942
6.83858
6.08263
5.36032
5.31489
4.50065
3.79644
3.62068
3.89753
4.28183
4.06218
4.31034
4.68932
4.07586
3.5586
3.48133
2.95635
2.50618
2.38658
2.55648
2.78989
2.63185
2.76229
2.96347
2.52602
2.11561
2.00165
2.14103
2.34275
2.22457
2.3623
2.569
2.23248
1.9475
1.90173
1.60795
1.35281
1.27588
1.35263
1.4598
1.34848
1.38229
1.45199
1.19369
0.94951
0.828516
0.588102
0.346089
0.150523
-0.0657328
-0.322369
-0.654258
-1.16785
-1.74074
-1.99653
-2.4073
-2.96487
-2.41755
-1.27893
-0.635098
-0.298051
-0.0881021
2.13453
4.41832
6.12322
7.6957
6.44055
5.47743
5.6572
4.60017
3.72978
3.55222
3.9425
4.49783
4.07635
4.42253
5.04929
4.18728
3.55706
3.63578
2.97771
2.4351
2.32062
2.56929
2.91559
2.63124
2.82412
3.1787
2.5793
2.06698
1.95159
2.15437
2.45001
2.22575
2.41987
2.7634
2.29254
1.94723
1.98834
1.62274
1.31819
1.24559
1.36645
1.5366
1.35878
1.42539
1.57666
1.24098
0.960491
0.882215
0.612848
0.352823
0.167658
-0.0452818
-0.299171
-0.627921
-1.20511
-1.8894
-2.08218
-2.55072
-3.40022
-2.70661
-1.2453
-0.568072
-0.256261
-0.0746274
2.64472
4.88765
6.6339
8.72439
6.76123
5.50492
6.07597
4.68153
3.61481
3.44477
3.97331
4.77659
4.03316
4.50907
5.50359
4.2767
3.50317
3.83795
2.9896
2.33547
2.2307
2.57432
3.08243
2.59537
2.87129
3.45505
2.6238
1.99114
1.8802
2.16027
2.59103
2.19594
2.46387
3.00952
2.34068
1.91839
2.10124
1.63236
1.26794
1.20232
1.37603
1.63577
1.35056
1.46035
1.73187
1.28213
0.956044
0.947697
0.635824
0.353732
0.1861
-0.0226935
-0.271448
-0.584363
-1.2328
-2.06789
-2.1437
-2.65969
-3.93061
-3.03977
-1.15517
-0.476961
-0.206694
-0.0593681
3.33857
5.37005
7.09897
9.98215
7.0201
5.40766
6.60932
4.73719
3.44425
3.2948
3.9842
5.14773
3.90941
4.55676
6.0882
4.33156
3.37672
4.11126
2.98784
2.20305
2.1144
2.56801
3.30925
2.50948
2.89558
3.81498
2.65294
1.88334
1.7855
2.15571
2.7817
2.12262
2.48718
3.32699
2.37006
1.84991
2.25327
1.6345
1.19968
1.14477
1.37937
1.76744
1.316
1.48286
1.92907
1.31313
0.930314
1.03084
0.655785
0.346866
0.206523
0.00161248
-0.240595
-0.520021
-1.24667
-2.2899
-2.17276
-2.71285
-4.58395
-3.42555
-0.987412
-0.362253
-0.151002
-0.0428627
4.28927
5.85004
7.47235
11.5463
7.18421
5.14069
7.30936
4.7546
3.21045
3.09952
3.9653
5.65114
3.6745
4.54771
6.85052
4.33444
3.15135
4.48749
2.96522
2.03339
1.96966
2.5442
3.62141
2.35404
2.88584
4.28785
2.65655
1.73872
1.66601
2.13555
3.04349
1.98922
2.48008
3.74165
2.37115
1.72733
2.46184
1.62518
1.11092
1.07184
1.37309
1.94526
1.24473
1.48711
2.18331
1.32835
0.875832
1.13975
0.670788
0.329882
0.230046
0.027165
-0.208786
-0.43084
-1.24035
-2.57393
-2.15991
-2.6814
-5.39599
-3.87356
-0.714909
-0.226973
-0.0913893
-0.0257118
5.59513
6.30557
7.6908
13.5189
7.21007
4.64726
8.24583
4.71411
2.90586
2.85757
3.90087
6.33957
3.28875
4.45823
7.85194
4.26185
2.79341
5.00885
2.91021
1.82207
1.79518
2.49301
4.05248
2.10369
2.82733
4.91152
2.61966
1.55266
1.52109
2.09149
3.40476
1.7743
2.42973
4.28698
2.33111
1.53219
2.75012
1.59804
0.999188
0.982852
1.35176
2.18726
1.12328
1.46552
2.51413
1.32017
0.783232
1.28533
0.677899
0.300014
0.258369
0.053473
-0.17915
-0.312343
-1.20467
-2.94433
-2.09473
-2.52733
-6.41205
-4.39448
-0.303337
-0.0776882
-0.0304492
-0.00852278
)
;

boundaryField
{
    left
    {
        type            calculated;
        value           uniform 0;
    }
    right
    {
        type            calculated;
        value           uniform 0;
    }
    interface
    {
        type            calculated;
        value           nonuniform List<scalar> 
64
(
5.59513
6.30557
7.6908
13.5189
7.21007
4.64726
8.24583
4.71411
2.90586
2.85757
3.90087
6.33957
3.28875
4.45823
7.85194
4.26185
2.79341
5.00885
2.91021
1.82207
1.79518
2.49301
4.05248
2.10369
2.82733
4.91152
2.61966
1.55266
1.52109
2.09149
3.40476
1.7743
2.42973
4.28698
2.33111
1.53219
2.75012
1.59804
0.999188
0.982852
1.35176
2.18726
1.12328
1.46552
2.51413
1.32017
0.783232
1.28533
0.677899
0.300014
0.258369
0.053473
-0.17915
-0.312343
-1.20467
-2.94433
-2.09473
-2.52733
-6.41205
-4.39448
-0.303337
-0.0776882
-0.0304492
-0.00852278
)
;
    }
    bottom
    {
        type            calculated;
        value           nonuniform List<scalar> 
64
(
0.00773422
0.0229665
0.0375123
0.0509851
0.0630915
0.0736457
0.0825685
0.0898719
0.0956369
0.0999885
0.103073
0.105042
0.106041
0.106207
0.105669
0.104547
0.102957
0.101008
0.0988014
0.096427
0.0939595
0.0914568
0.0889594
0.086492
0.0840663
0.0816846
0.0793421
0.0770293
0.0747325
0.0724348
0.0701165
0.0677568
0.0653356
0.0628359
0.0602449
0.0575551
0.0547628
0.0518669
0.0488658
0.0457552
0.0425275
0.0391713
0.0356737
0.0320234
0.0282144
0.0242501
0.0201465
0.0159355
0.011666
0.00740525
0.00323813
-0.000734323
-0.00439825
-0.00763233
-0.0103153
-0.0123356
-0.013602
-0.0140547
-0.0136739
-0.0124852
-0.0105611
-0.00801703
-0.00500423
-0.00170078
)
;
    }
    defaultFaces
    {
        type            empty;
    }
}


// ************************************************************************* //
