/*--------------------------------*- C++ -*----------------------------------*\
| =========                 |                                                 |
| \\      /  F ield         | OpenFOAM: The Open Source CFD Toolbox           |
|  \\    /   O peration     | Version:  5.x                                   |
|   \\  /    A nd           | Web:      www.OpenFOAM.org                      |
|    \\/     M anipulation  |                                                 |
\*---------------------------------------------------------------------------*/
FoamFile
{
    version     2.0;
    format      ascii;
    class       volScalarField;
    location    "7.1";
    object      gradTx;
}
// * * * * * * * * * * * * * * * * * * * * * * * * * * * * * * * * * * * * * //

dimensions      [0 -1 0 1 0 0 0];

internalField   nonuniform List<scalar> 
6300
(
93.9284
94.505
95.6462
97.327
99.5081
102.133
105.127
108.391
111.807
115.231
118.503
121.449
123.895
125.676
126.655
93.3493
93.9379
95.104
96.8243
99.0616
101.762
104.853
108.237
111.795
115.381
118.826
121.947
124.556
126.474
127.551
92.1791
92.7908
94.005
95.8019
98.1492
100.999
104.282
107.907
111.753
115.668
119.47
122.955
125.905
128.11
129.39
90.3947
91.0388
92.3208
94.2266
96.7321
99.7986
103.367
107.354
111.639
116.064
120.43
124.495
127.996
130.667
132.276
87.9637
88.6465
90.0102
92.0491
94.7514
98.0933
102.033
106.499
111.381
116.518
121.686
126.597
130.914
134.282
136.381
84.8475
85.571
87.0218
89.2058
92.1284
95.7881
100.168
105.225
110.867
116.939
123.195
129.29
134.779
139.163
141.973
81.0054
81.7658
83.2976
85.6216
88.7658
92.7598
97.6256
103.362
109.92
117.172
124.864
132.586
139.745
145.616
149.466
76.4007
77.1869
78.7789
81.2149
84.551
88.8573
94.2097
100.674
108.278
116.96
126.502
136.441
145.997
154.085
159.503
71.0074
71.8001
73.4137
75.9057
79.3636
83.906
89.6792
96.8454
105.555
115.886
127.739
140.675
153.714
165.222
173.121
64.8192
65.5901
67.1681
69.6282
73.0894
77.7218
83.7531
91.4707
101.207
113.286
127.891
144.802
162.958
179.965
192.077
57.8581
58.571
60.0383
62.3475
65.6419
70.1362
76.1384
84.0751
94.5142
108.157
125.735
147.682
173.345
199.601
219.561
50.1821
50.7956
52.0647
54.0796
56.9924
61.0409
66.5868
74.1746
84.6154
99.0887
119.207
146.842
183.136
225.527
261.946
41.8906
42.3627
43.3434
44.9118
47.2052
50.446
54.9913
61.4191
70.6816
84.3724
105.16
137.34
186.823
257.422
333.648
33.1253
33.4196
34.0325
35.0174
36.4688
38.5449
41.5115
45.8268
52.3173
62.5563
79.7186
110.532
169.391
283.684
473.012
24.0641
24.1564
24.348
24.6549
25.106
25.7518
26.6812
28.0575
30.2025
33.8144
40.623
55.6746
96.5228
234.905
803.855
126.801
126.211
124.959
123.064
120.565
117.515
113.977
110.017
105.702
101.094
96.252
91.225
86.0569
80.7848
75.4403
70.0503
64.6383
59.2249
53.8286
48.4662
43.153
37.9028
32.7282
27.6401
22.6481
17.7602
12.9827
8.32044
3.77667
-0.646816
-4.94956
-9.1323
-13.1967
-17.1453
-20.9809
-24.7066
-28.3252
-31.8397
-35.2521
-38.5646
-41.7788
-44.8962
-47.9189
-50.8488
-53.689
-56.4429
-59.1148
-61.7095
-64.2319
-66.6869
-69.0785
-71.4101
-73.6834
-75.8989
-78.0554
-80.1508
-82.1817
-84.1445
-86.0351
-87.8501
-89.5862
-91.2405
-92.8103
-94.2928
-95.6841
-96.9789
-98.17
-99.2476
-100.199
-101.01
-101.663
-102.14
-102.421
-102.489
-102.325
-101.916
-101.25
-100.319
-99.1199
-97.6525
-95.9219
-93.9377
-91.7135
-89.2679
-86.624
-83.8096
-80.857
-77.8021
-74.6842
-71.5436
127.746
127.162
125.882
123.932
121.356
118.216
114.582
110.526
106.12
101.431
96.5159
91.4263
86.2049
80.8875
75.5043
70.0808
64.6392
59.1993
53.7789
48.3946
43.0615
37.7935
32.6031
27.5014
22.4981
17.6011
12.8168
8.14994
3.60367
-0.820374
-5.12198
-9.30217
-13.363
-17.3074
-21.1385
-24.8598
-28.4746
-31.9856
-35.3952
-38.7052
-41.917
-45.0318
-48.0512
-50.977
-53.812
-56.5598
-59.2248
-61.8123
-64.3278
-66.7767
-69.1638
-71.4926
-73.7653
-75.9823
-78.1422
-80.2422
-82.2785
-84.2468
-86.1427
-87.9623
-89.7024
-91.3606
-92.9347
-94.4226
-95.8215
-97.1268
-98.3319
-99.4273
-100.401
-101.236
-101.916
-102.42
-102.728
-102.82
-102.677
-102.285
-101.63
-100.705
-99.5044
-98.0298
-96.2859
-94.2817
-92.031
-89.5521
-86.8682
-84.0075
-81.0029
-77.8919
-74.7155
-71.5165
129.686
129.11
127.768
125.697
122.957
119.626
115.79
111.537
106.946
102.089
97.0291
91.8154
86.4892
81.0834
75.6248
70.1359
64.6364
59.1444
53.6764
48.2485
42.8756
37.5718
32.3498
27.2209
22.1948
17.2797
12.4818
7.80593
3.25492
-1.1699
-5.46878
-9.64338
-13.6965
-17.6318
-21.4535
-25.1658
-28.7724
-32.2767
-35.6808
-38.9862
-42.1937
-45.3038
-48.3171
-51.2348
-54.0594
-56.7946
-59.4452
-62.0175
-64.5183
-66.9543
-69.3315
-71.6546
-73.9261
-76.1465
-78.3137
-80.4238
-82.4718
-84.4519
-86.3586
-88.1874
-89.9352
-91.6001
-93.1815
-94.6791
-96.0919
-97.4174
-98.6501
-99.7814
-100.798
-101.684
-102.419
-102.98
-103.343
-103.487
-103.388
-103.03
-102.398
-101.484
-100.282
-98.7937
-97.023
-94.9792
-92.6756
-90.1301
-87.3657
-84.4111
-81.3007
-78.0747
-74.7781
-71.4588
132.729
132.157
130.703
128.422
125.406
121.76
117.599
113.03
108.15
103.039
97.7611
92.3647
86.8865
81.3537
75.7874
70.2049
64.6219
59.0536
53.5153
48.0223
42.5897
37.2318
31.962
26.7919
21.7316
16.7893
11.9713
7.28221
2.72468
-1.70046
-5.99415
-10.159
-14.199
-18.1193
-21.9255
-25.623
-29.217
-32.711
-36.1075
-39.4072
-42.6097
-45.7141
-48.7194
-51.6257
-54.4345
-57.1498
-59.7772
-62.3246
-64.8008
-67.2152
-69.5759
-71.8894
-74.1593
-76.3858
-78.5658
-80.6936
-82.7615
-84.7612
-86.6852
-88.5277
-90.2857
-91.9584
-93.5476
-95.0561
-96.4866
-97.8398
-99.113
-100.299
-101.384
-102.349
-103.171
-103.823
-104.275
-104.5
-104.471
-104.167
-103.572
-102.675
-101.472
-99.9624
-98.152
-96.0493
-93.667
-91.0219
-88.1359
-85.0378
-81.7636
-78.358
-74.8724
-71.3633
137.058
136.472
134.823
132.206
128.757
124.634
119.991
114.97
109.685
104.228
98.6615
93.0299
87.3606
81.6707
75.9718
70.2733
64.585
58.9187
53.2881
47.7084
42.1954
36.7646
31.4301
26.2045
21.0983
16.1197
11.2752
6.56923
2.00405
-2.41996
-6.70463
-10.8539
-14.8734
-18.7705
-22.553
-26.2288
-29.8045
-33.285
-36.6726
-39.9671
-43.1661
-46.266
-49.2632
-52.1556
-54.9433
-57.6302
-60.2232
-62.7327
-65.1712
-67.5519
-69.8869
-72.1857
-74.4535
-76.6905
-78.8919
-81.0483
-83.1479
-85.178
-87.1275
-88.9884
-90.7573
-92.4355
-94.0284
-95.544
-96.9911
-98.3759
-99.7003
-100.959
-102.139
-103.218
-104.167
-104.951
-105.533
-105.876
-105.948
-105.722
-105.178
-104.306
-103.1
-101.563
-99.7004
-97.5207
-95.0355
-92.259
-89.2105
-85.9165
-82.4147
-78.7551
-74.9994
-71.2181
142.958
142.314
140.336
137.184
133.078
128.252
122.927
117.285
111.468
105.571
99.6539
93.7474
87.8624
81.9992
76.1543
70.3255
64.5153
58.7314
52.9867
47.2978
41.6823
36.1581
30.7412
25.4451
20.2809
15.2571
10.3799
5.65361
1.08042
-3.33978
-7.60972
-11.7349
-15.7236
-19.586
-23.3336
-26.9778
-30.5283
-33.9918
-37.3709
-40.6636
-43.8641
-46.9646
-49.9569
-52.8349
-55.5964
-58.2444
-60.7882
-63.2419
-65.6237
-67.9532
-70.2488
-72.5253
-74.7907
-77.0454
-79.2813
-81.4835
-83.6329
-85.7095
-87.6959
-89.5802
-91.3582
-93.0339
-94.6188
-96.1293
-97.5836
-98.9974
-100.38
-101.732
-103.038
-104.274
-105.399
-106.369
-107.133
-107.642
-107.853
-107.732
-107.257
-106.415
-105.205
-103.632
-101.704
-99.4306
-96.822
-93.8867
-90.637
-87.0934
-83.292
-79.2892
-75.1624
-71.0047
150.869
150.075
147.535
143.534
138.432
132.589
126.315
119.852
113.362
106.941
100.629
94.4322
88.3312
82.2997
76.312
70.3499
64.4065
58.4866
52.6044
46.7804
41.0373
35.3968
29.8778
24.4956
19.2613
14.1833
9.26733
4.51772
-0.0632236
-4.4756
-8.72278
-12.8121
-16.7549
-20.566
-24.2624
-27.8609
-31.3766
-34.8194
-38.1927
-41.4917
-44.7052
-47.8181
-50.8142
-53.6809
-56.4115
-59.0078
-61.4816
-63.8534
-66.1502
-68.4018
-70.6372
-72.8794
-75.1421
-77.4259
-79.7178
-81.9933
-84.2214
-86.3695
-88.4098
-90.3236
-92.1049
-93.7617
-95.3149
-96.7941
-98.2328
-99.6621
-101.104
-102.567
-104.039
-105.485
-106.855
-108.083
-109.099
-109.836
-110.234
-110.252
-109.861
-109.052
-107.831
-106.209
-104.202
-101.823
-99.0774
-95.966
-92.4853
-88.6402
-84.4581
-80.0006
-75.369
-70.6948
161.482
160.35
156.835
151.466
144.85
137.541
129.976
122.455
115.156
108.15
101.439
94.9765
88.6981
82.5357
76.4315
70.3462
64.2628
58.1863
52.1375
46.1461
40.2439
34.4599
28.8174
23.3328
18.0168
12.876
7.91543
3.1392
-1.44927
-5.84886
-10.0627
-14.0996
-17.9753
-21.7108
-25.3311
-28.8626
-32.3288
-35.7464
-39.1204
-42.4419
-45.6904
-48.8383
-51.8569
-54.7219
-57.4186
-59.9465
-62.3207
-64.5717
-66.7403
-68.8728
-71.0143
-73.2029
-75.4618
-77.7934
-80.1764
-82.5702
-84.9235
-87.1834
-89.3045
-91.2563
-93.0293
-94.6374
-96.116
-97.5157
-98.894
-100.306
-101.797
-103.389
-105.073
-106.806
-108.512
-110.099
-111.465
-112.514
-113.164
-113.357
-113.064
-112.283
-111.032
-109.34
-107.235
-104.74
-101.859
-98.5757
-94.8568
-90.6713
-86.0196
-80.9616
-75.6357
-70.2436
175.922
174.052
168.8
161.19
152.263
142.86
133.569
124.738
116.523
108.935
101.888
95.2543
88.8963
82.6864
76.5225
70.3382
64.1082
57.8452
51.5871
45.3825
39.2797
33.319
27.5292
21.9272
16.5199
11.3095
6.29824
1.49065
-3.10687
-7.48916
-11.6565
-15.6189
-19.3968
-23.0205
-26.5271
-29.9573
-33.3501
-36.7352
-40.1225
-43.4962
-46.8193
-50.0437
-53.1196
-56.0039
-58.6678
-61.1049
-63.3361
-65.4073
-67.3813
-69.3293
-71.3225
-73.4237
-75.6755
-78.0855
-80.618
-83.2042
-85.7587
-88.1958
-90.4415
-92.4452
-94.1896
-95.6979
-97.0291
-98.2666
-99.5045
-100.836
-102.343
-104.076
-106.037
-108.162
-110.341
-112.432
-114.287
-115.765
-116.749
-117.161
-116.969
-116.189
-114.868
-113.063
-110.829
-108.211
-105.218
-101.812
-97.8987
-93.3724
-88.1646
-82.3073
-75.9968
-69.5732
196.121
192.621
184.157
172.807
160.356
148.016
136.494
126.129
116.988
108.937
101.739
95.1337
88.8793
82.7691
76.6415
70.3945
63.9997
57.4962
50.9586
44.4718
38.1103
31.9316
25.9705
20.2411
14.7396
9.45645
4.38806
-0.460002
-5.07387
-9.43833
-13.5451
-17.4028
-21.0395
-24.498
-27.8323
-31.1048
-34.3815
-37.7196
-41.1433
-44.6222
-48.0891
-51.4616
-54.6572
-57.6018
-60.2421
-62.5587
-64.5806
-66.3813
-68.0584
-69.7193
-71.4736
-73.4262
-75.6599
-78.1997
-80.9809
-83.8821
-86.7615
-89.4824
-91.9256
-94.0056
-95.6887
-97.0117
-98.0756
-99.0153
-99.978
-101.113
-102.562
-104.435
-106.761
-109.44
-112.293
-115.102
-117.649
-119.726
-121.158
-121.831
-121.717
-120.874
-119.4
-117.4
-114.977
-112.219
-109.171
-105.775
-101.822
-97.0535
-91.2437
-84.304
-76.5197
-68.5353
225.647
218.336
203.662
186.009
168.286
151.989
137.753
125.752
115.88
107.709
100.735
94.5056
88.653
82.8752
76.9311
70.6623
64.0468
57.1953
50.2564
43.3797
36.6775
30.2303
24.0778
18.2269
12.645
7.29437
2.161
-2.7474
-7.39941
-11.758
-15.7913
-19.5044
-22.9378
-26.1534
-29.2255
-32.2452
-35.3235
-38.5797
-42.0836
-45.7641
-49.4936
-53.1332
-56.5548
-59.6366
-62.2811
-64.4355
-66.1424
-67.5318
-68.7573
-69.9737
-71.3378
-73.0226
-75.2021
-77.9649
-81.1698
-84.5899
-87.9912
-91.1673
-93.931
-96.136
-97.7046
-98.6971
-99.2996
-99.7291
-100.202
-100.935
-102.168
-104.14
-106.973
-110.468
-114.306
-118.149
-121.686
-124.613
-126.66
-127.631
-127.514
-126.468
-124.685
-122.344
-119.604
-116.643
-113.625
-110.538
-106.919
-102.232
-95.9487
-87.5154
-77.3295
-66.8081
271.764
254.649
227.452
199.309
174.161
152.995
135.789
122.308
112.32
104.757
98.6549
93.3337
88.3174
83.2191
77.6871
71.428
64.4327
57.0194
49.4639
42.036
34.8771
28.1047
21.7508
15.8253
10.2175
4.81985
-0.389562
-5.40344
-10.1468
-14.5452
-18.4981
-22.0077
-25.149
-28.0145
-30.6932
-33.3004
-36.0082
-39.0822
-42.7686
-46.8342
-51.0266
-55.1175
-58.9403
-62.2998
-65.0247
-66.9556
-68.1598
-68.917
-69.4683
-70.0141
-70.7389
-71.9052
-73.9031
-77.0921
-81.0475
-85.3233
-89.5439
-93.4445
-96.7395
-99.1813
-100.549
-100.943
-100.771
-100.379
-100.049
-100.037
-100.709
-102.605
-106.23
-111.002
-116.309
-121.635
-126.601
-130.766
-133.71
-134.994
-134.647
-133.12
-130.775
-127.859
-124.55
-121.146
-118.177
-116.068
-113.551
-109.709
-103.748
-93.2497
-78.6213
-63.6065
351.036
305.479
252.598
208.291
174.297
148.292
128.457
113.831
105.267
99.697
95.449
91.7209
88.0978
84.1861
79.4884
73.2525
65.4195
57.0475
48.4867
40.3044
32.5197
25.3761
18.807
12.9665
7.48785
2.07463
-3.22111
-8.44826
-13.3903
-17.9731
-21.8424
-25.0402
-27.7563
-30.1434
-32.2627
-34.2098
-36.1643
-38.7016
-42.9065
-47.7203
-52.7046
-57.4864
-61.9916
-65.8753
-68.9101
-70.5208
-70.8196
-70.5971
-70.1858
-69.7953
-69.5029
-69.5891
-70.8874
-75.1143
-80.4624
-86.1346
-91.556
-96.5923
-100.775
-103.772
-104.794
-104
-102.559
-100.938
-99.4377
-98.154
-97.4836
-98.5782
-103.832
-110.762
-118.285
-125.639
-132.664
-138.678
-143.146
-144.706
-143.477
-140.947
-137.687
-133.935
-129.633
-125.019
-121.489
-122.182
-122.089
-120.235
-118.079
-104.93
-80.4685
-56.8255
506.173
366.848
265.394
202.419
162.924
134.704
113.622
96.6223
93.9007
92.7315
91.4925
89.955
88.2923
86.2833
83.503
77.3759
67.1814
57.3465
46.9638
38
29.2388
21.8204
14.8141
9.58674
4.66438
-0.839197
-6.15077
-11.9028
-17.1502
-22.4272
-26.1526
-28.7655
-30.8364
-32.6567
-34.0791
-35.1075
-35.48
-35.9188
-42.1663
-48.3597
-54.6726
-60.2525
-65.9363
-70.6719
-74.8446
-75.9737
-74.2286
-72.5479
-70.8718
-69.4342
-67.7202
-65.5264
-63.6533
-71.5207
-79.4094
-87.3055
-94.1211
-100.968
-106.517
-111.205
-111.652
-107.988
-104.604
-101.32
-98.5134
-95.3861
-91.7154
-88.5606
-99.0216
-109.665
-120.5
-130.116
-140.183
-148.811
-156.769
-158.433
-154.176
-149.825
-145.304
-140.803
-135.164
-127.329
-118.72
-129.425
-133.161
-131.192
-148.242
-132.897
-81.136
-40.5432
859.336
373.673
222.776
162.732
135.314
110.83
92.9084
58.8502
80.2967
85.8643
87.964
88.3676
88.9834
89.4896
92.3356
87.3545
68.4245
58.4336
43.3972
35.4036
24.0244
17.6711
8.25961
5.76823
2.67836
-4.02882
-8.44526
-16.0832
-20.8662
-29.1146
-32.0636
-33.2698
-34.2763
-35.7419
-36.4618
-36.9483
-34.6993
-24.7705
-41.5028
-48.8258
-57.6949
-62.8675
-71.2448
-76.2773
-85.1604
-85.5637
-77.5433
-74.4906
-71.213
-69.4698
-66.6273
-61.0008
-42.3918
-67.895
-78.3443
-90.0309
-96.6404
-107.209
-113.496
-124.745
-124.427
-111.573
-106.504
-101.011
-98.05
-93.3993
-85.203
-58.9348
-93.9462
-108.292
-124.468
-133.942
-149.773
-159.905
-179.454
-180.685
-165.008
-158.945
-152.89
-149.306
-143.854
-130.751
-88.1382
-146.701
-152.449
-114.76
-225.048
-213.304
-65.7192
1.29614
-68.1131
-64.4535
-60.9417
-57.6286
-54.5536
-51.7452
-49.221
-46.9902
-45.0552
-43.4135
-42.0599
-40.9879
-40.1908
-39.6629
-39.4
-68.0247
-64.3046
-60.7421
-57.3895
-54.2863
-51.4601
-48.9268
-46.6938
-44.7611
-43.1248
-41.7778
-40.7124
-39.921
-39.3973
-39.1366
-67.841
-63.9973
-60.3318
-56.8999
-53.7414
-50.8812
-48.3318
-46.0961
-44.1702
-42.5459
-41.2134
-40.1622
-39.383
-38.868
-38.6119
-67.5473
-63.5107
-59.6871
-56.1362
-52.8972
-49.9906
-47.4224
-45.188
-43.2769
-41.6748
-40.367
-39.3395
-38.5801
-38.0793
-37.8305
-67.1189
-62.8101
-58.7686
-55.0598
-51.7198
-48.761
-46.1782
-43.9561
-42.0738
-40.5088
-39.2398
-38.2481
-37.5181
-37.038
-36.7999
-66.5166
-61.8411
-57.5167
-53.6137
-50.1606
-47.1544
-44.5728
-42.3838
-40.5526
-39.046
-37.8348
-36.8944
-36.2055
-35.754
-35.5306
-65.6789
-60.5203
-55.8425
-51.717
-48.1537
-45.1226
-42.5742
-40.4531
-38.7062
-37.2874
-36.1583
-35.2886
-34.6551
-34.2415
-34.0373
-64.507
-58.7177
-53.6151
-49.2574
-45.6138
-42.6075
-40.1477
-38.1473
-36.5312
-35.2386
-34.222
-33.4459
-32.8843
-32.5192
-32.3393
-62.8343
-56.2277
-50.6421
-46.083
-42.4358
-39.5454
-37.2613
-35.4568
-34.0322
-32.9131
-32.0447
-31.3883
-30.9164
-30.6111
-30.461
-60.3643
-52.7157
-46.6416
-41.9959
-38.5004
-35.8762
-33.8949
-32.3856
-31.2274
-30.3363
-29.6551
-29.1455
-28.7817
-28.5472
-28.4322
-56.5342
-47.6286
-41.2119
-36.758
-33.693
-31.5638
-30.0557
-28.9631
-28.1549
-27.549
-27.0937
-26.7564
-26.5171
-26.3633
-26.2881
-50.2113
-40.0521
-33.8189
-30.1307
-27.9493
-26.6297
-25.8008
-25.2555
-24.8799
-24.6108
-24.4136
-24.269
-24.1666
-24.1006
-24.0682
-39.0106
-28.5488
-23.8803
-21.9959
-21.3435
-21.2047
-21.2617
-21.3781
-21.4978
-21.6004
-21.6806
-21.7392
-21.7793
-21.8039
-21.8156
-17.8169
-11.252
-11.1572
-12.6289
-14.2238
-15.5834
-16.6629
-17.4969
-18.1327
-18.6122
-18.9687
-19.2275
-19.407
-19.5199
-19.5744
24.2264
12.5153
3.13245
-3.1385
-7.33903
-10.2422
-12.3093
-13.8136
-14.9235
-15.7466
-16.3544
-16.7949
-17.1009
-17.294
-17.3875
15.6721
15.5727
15.3636
15.0224
14.5104
13.7635
12.6756
11.063
8.58449
4.53574
-2.77229
-18.2603
-59.6822
-204.502
-841.547
8.11118
7.84459
7.28669
6.38337
5.04022
3.10106
0.306861
-3.78614
-9.97884
-19.8188
-36.5425
-67.4642
-129.884
-262.137
-508.463
0.734513
0.317952
-0.55113
-1.95099
-4.01679
-6.96833
-11.1607
-17.178
-26.0102
-39.3936
-60.4534
-94.794
-151.588
-240.555
-346.432
-6.35364
-6.89519
-8.02108
-9.82357
-12.4593
-16.1766
-21.3616
-28.6155
-38.8816
-53.638
-75.142
-106.531
-150.95
-207.226
-257.925
-13.0664
-13.7032
-15.0218
-17.1181
-20.1514
-24.3663
-30.1261
-37.9618
-48.635
-63.1962
-82.9658
-109.22
-142.075
-177.768
-204.625
-19.3376
-20.0384
-21.4831
-23.7624
-27.0233
-31.4835
-37.4495
-45.3382
-55.6888
-69.1374
-86.2853
-107.326
-131.23
-154.443
-169.973
-25.1227
-25.8574
-27.3653
-29.7254
-33.0629
-37.5552
-43.438
-51.0054
-60.5917
-72.5095
-86.9011
-103.442
-120.865
-136.453
-146.105
-30.398
-31.1401
-32.656
-35.0101
-38.3008
-42.6614
-48.2567
-55.2708
-63.8758
-74.164
-86.024
-98.9444
-111.774
-122.584
-128.94
-35.1584
-35.8859
-37.3651
-39.6447
-42.7961
-46.9104
-52.0902
-58.4316
-65.991
-74.7269
-84.4102
-94.5092
-104.087
-111.806
-116.187
-39.4141
-40.1099
-41.5188
-43.6742
-46.6229
-50.4198
-55.1171
-60.7466
-67.2893
-74.6319
-82.5076
-90.4358
-97.6893
-103.345
-106.477
-43.1868
-43.8391
-45.1544
-47.153
-49.861
-53.3039
-57.4968
-62.4272
-68.0322
-74.1666
-80.5685
-86.8306
-92.4007
-96.6374
-98.9419
-46.5069
-47.108
-48.3157
-50.1395
-52.5888
-55.6675
-59.3644
-63.6395
-68.4073
-73.5155
-78.7262
-83.7058
-88.0378
-91.2708
-93.0063
-49.4097
-49.9559
-51.0496
-52.6917
-54.8797
-57.602
-60.8304
-64.5098
-68.546
-72.7931
-77.0441
-81.0306
-84.438
-86.9438
-88.2757
-51.9335
-52.4238
-53.4027
-54.865
-56.7997
-59.1851
-61.9833
-65.1322
-68.5381
-72.0678
-75.5458
-78.7573
-81.464
-83.4318
-84.4698
-54.1169
-54.5527
-55.4202
-56.7104
-58.4067
-60.4817
-62.8926
-65.5763
-68.4442
-71.3785
-74.2323
-76.8345
-79.003
-80.5653
-81.3845
-55.9979
-56.3818
-57.1444
-58.274
-59.7509
-61.5451
-63.6126
-65.8925
-68.3041
-70.745
-73.0934
-75.2128
-76.9629
-78.2146
-78.8679
-57.6123
-57.9482
-58.6138
-59.5963
-60.8749
-62.4187
-64.1851
-66.1174
-68.1435
-70.1758
-72.1135
-73.8475
-75.2687
-76.2793
-76.8048
-58.9936
-59.2856
-59.8632
-60.7132
-61.8147
-63.1379
-64.6425
-66.2771
-67.9785
-69.6722
-71.275
-72.6993
-73.8596
-74.6808
-75.1065
-60.1723
-60.4248
-60.9235
-61.6556
-62.6007
-63.731
-65.0095
-66.3905
-67.8189
-69.2317
-70.5605
-71.7344
-72.686
-73.3568
-73.7038
-61.1757
-61.3931
-61.8219
-62.4499
-63.2583
-64.2212
-65.3055
-66.4709
-67.67
-68.8497
-69.9533
-70.9238
-71.7072
-72.2577
-72.5419
-62.0281
-62.2146
-62.5821
-63.1191
-63.8085
-64.627
-65.5452
-66.5279
-67.5345
-68.5204
-69.4387
-70.2429
-70.89
-71.3436
-71.5773
-62.751
-62.9106
-63.2245
-63.6825
-64.2691
-64.9636
-65.7402
-66.5684
-67.4134
-68.238
-69.0033
-69.6712
-70.2072
-70.582
-70.775
-63.3633
-63.4993
-63.7668
-64.1566
-64.6548
-65.2433
-65.8994
-66.597
-67.3066
-67.9968
-68.6353
-69.1912
-69.6362
-69.9468
-70.1065
-63.881
-63.9968
-64.2244
-64.5554
-64.9779
-65.4759
-66.0299
-66.6173
-67.2133
-67.7913
-68.3248
-68.7882
-69.1583
-69.4164
-69.5489
-64.3184
-64.4168
-64.61
-64.8908
-65.2486
-65.6697
-66.1371
-66.6317
-67.1323
-67.6169
-68.0631
-68.4498
-68.7583
-68.9731
-69.0834
-64.6875
-64.771
-64.9348
-65.1727
-65.4755
-65.8312
-66.2255
-66.6419
-67.0626
-67.469
-67.8425
-68.1658
-68.4233
-68.6025
-68.6943
-64.9986
-65.0694
-65.2081
-65.4095
-65.6656
-65.966
-66.2985
-66.6491
-67.0028
-67.3439
-67.6569
-67.9275
-68.1427
-68.2924
-68.3691
-65.2606
-65.3206
-65.438
-65.6084
-65.8248
-66.0785
-66.3589
-66.6542
-66.9517
-67.2382
-67.5008
-67.7275
-67.9077
-68.0329
-68.097
-65.4811
-65.5318
-65.6312
-65.7753
-65.9583
-66.1725
-66.409
-66.6579
-66.9082
-67.1491
-67.3696
-67.5599
-67.7109
-67.8158
-67.8695
-65.6663
-65.7092
-65.7934
-65.9153
-66.0699
-66.2509
-66.4506
-66.6604
-66.8713
-67.0741
-67.2595
-67.4193
-67.5462
-67.6342
-67.6793
-65.8217
-65.8581
-65.9293
-66.0325
-66.1634
-66.3164
-66.4851
-66.6622
-66.8402
-67.011
-67.1672
-67.3017
-67.4084
-67.4824
-67.5203
-65.9518
-65.9827
-66.0431
-66.1306
-66.2414
-66.371
-66.5137
-66.6635
-66.8139
-66.9582
-67.09
-67.2034
-67.2934
-67.3557
-67.3876
-66.0605
-66.0868
-66.1381
-66.2124
-66.3065
-66.4164
-66.5375
-66.6644
-66.7918
-66.9139
-67.0255
-67.1214
-67.1975
-67.2502
-67.2771
-66.1511
-66.1734
-66.2171
-66.2804
-66.3606
-66.4541
-66.5571
-66.6651
-66.7733
-66.8771
-66.9718
-67.0532
-67.1178
-67.1625
-67.1853
-66.2261
-66.2452
-66.2826
-66.3368
-66.4053
-66.4853
-66.5733
-66.6656
-66.758
-66.8465
-66.9273
-66.9968
-67.0518
-67.0899
-67.1094
-66.2879
-66.3043
-66.3365
-66.3831
-66.4421
-66.5109
-66.5866
-66.6659
-66.7453
-66.8214
-66.8908
-66.9504
-66.9976
-67.0303
-67.047
-66.3382
-66.3525
-66.3804
-66.4209
-66.472
-66.5317
-66.5974
-66.6661
-66.7349
-66.8009
-66.861
-66.9126
-66.9535
-66.9818
-66.9962
-66.3786
-66.3911
-66.4157
-66.4512
-66.4961
-66.5484
-66.606
-66.6663
-66.7266
-66.7844
-66.837
-66.8823
-66.9181
-66.9428
-66.9555
-66.4103
-66.4215
-66.4433
-66.4749
-66.5149
-66.5615
-66.6127
-66.6664
-66.72
-66.7714
-66.8183
-66.8585
-66.8903
-66.9123
-66.9236
-66.4343
-66.4444
-66.4642
-66.4929
-66.5291
-66.5714
-66.6178
-66.6665
-66.7151
-66.7616
-66.8041
-66.8405
-66.8693
-66.8893
-66.8995
-66.4512
-66.4606
-66.479
-66.5056
-66.5392
-66.5784
-66.6214
-66.6665
-66.7116
-66.7547
-66.794
-66.8278
-66.8545
-66.873
-66.8824
-66.4616
-66.4706
-66.4881
-66.5134
-66.5454
-66.5827
-66.6237
-66.6665
-66.7094
-66.7505
-66.7879
-66.82
-66.8454
-66.863
-66.872
-66.4658
-66.4746
-66.4917
-66.5165
-66.5479
-66.5844
-66.6245
-66.6665
-66.7086
-66.7488
-66.7854
-66.8168
-66.8417
-66.8589
-66.8677
-66.4639
-66.4728
-66.4901
-66.5151
-66.5467
-66.5836
-66.6242
-66.6665
-66.709
-66.7495
-66.7865
-66.8183
-66.8434
-66.8607
-66.8696
-66.4559
-66.4651
-66.4831
-66.5091
-66.542
-66.5803
-66.6225
-66.6665
-66.7106
-66.7528
-66.7913
-66.8243
-66.8504
-66.8684
-66.8777
-66.4415
-66.4513
-66.4705
-66.4983
-66.5334
-66.5744
-66.6194
-66.6665
-66.7136
-66.7587
-66.7998
-66.8351
-66.863
-66.8823
-66.8922
-66.4203
-66.431
-66.452
-66.4824
-66.5209
-66.5657
-66.6149
-66.6665
-66.718
-66.7674
-66.8123
-66.851
-66.8815
-66.9027
-66.9135
-66.3916
-66.4036
-66.427
-66.4609
-66.5038
-66.5539
-66.6088
-66.6664
-66.724
-66.7791
-66.8293
-66.8725
-66.9066
-66.9302
-66.9423
-66.3546
-66.3682
-66.3948
-66.4332
-66.4819
-66.5386
-66.601
-66.6663
-66.7316
-66.7942
-66.8512
-66.9002
-66.939
-66.9658
-66.9795
-66.3082
-66.3238
-66.3543
-66.3984
-66.4543
-66.5195
-66.5911
-66.6661
-66.7412
-66.8131
-66.8787
-66.935
-66.9796
-67.0105
-67.0263
-66.2509
-66.269
-66.3043
-66.3555
-66.4202
-66.4958
-66.5789
-66.6659
-66.753
-66.8365
-66.9126
-66.978
-67.0298
-67.0656
-67.084
-66.1811
-66.2022
-66.2434
-66.3031
-66.3787
-66.4669
-66.5639
-66.6656
-66.7674
-66.865
-66.9539
-67.0304
-67.091
-67.1329
-67.1544
-66.0966
-66.1214
-66.1698
-66.2398
-66.3284
-66.4319
-66.5458
-66.6651
-66.7847
-66.8994
-67.004
-67.0939
-67.1651
-67.2145
-67.2397
-65.995
-66.0241
-66.0811
-66.1634
-66.2678
-66.3897
-66.5238
-66.6645
-66.8055
-66.9408
-67.0642
-67.1703
-67.2545
-67.3127
-67.3426
-65.8732
-65.9075
-65.9747
-66.0719
-66.195
-66.3389
-66.4974
-66.6636
-66.8304
-66.9903
-67.1364
-67.2621
-67.3617
-67.4308
-67.4661
-65.7276
-65.7681
-65.8475
-65.9623
-66.1079
-66.278
-66.4655
-66.6623
-66.8599
-67.0495
-67.2228
-67.3719
-67.4902
-67.5722
-67.6142
-65.5539
-65.6018
-65.6956
-65.8314
-66.0037
-66.2051
-66.4272
-66.6606
-66.8949
-67.1201
-67.3259
-67.5032
-67.6439
-67.7414
-67.7914
-65.347
-65.4036
-65.5145
-65.6752
-65.8791
-66.1178
-66.3812
-66.658
-66.9364
-67.204
-67.4489
-67.6599
-67.8274
-67.9437
-68.0032
-65.1007
-65.1677
-65.2989
-65.4891
-65.7305
-66.0134
-66.3258
-66.6545
-66.9853
-67.3037
-67.5953
-67.8468
-68.0466
-68.1854
-68.2564
-64.808
-64.8872
-65.0423
-65.2673
-65.5532
-65.8884
-66.259
-66.6495
-67.0429
-67.4219
-67.7695
-68.0696
-68.3082
-68.474
-68.5589
-64.4604
-64.5539
-64.7372
-65.0033
-65.3416
-65.7388
-66.1785
-66.6424
-67.1105
-67.562
-67.9767
-68.3351
-68.6204
-68.8187
-68.9204
-64.0479
-64.1582
-64.3746
-64.689
-65.0893
-65.5597
-66.0813
-66.6324
-67.1895
-67.7278
-68.2229
-68.6515
-68.9929
-69.2306
-69.3524
-63.5589
-63.6889
-63.9441
-64.3152
-64.7882
-65.3451
-65.9636
-66.6183
-67.2814
-67.9235
-68.5152
-69.0282
-69.4376
-69.7227
-69.8691
-62.9796
-63.1326
-63.4331
-63.8706
-64.429
-65.0876
-65.8206
-66.5984
-67.388
-68.1544
-68.8621
-69.477
-69.9685
-70.3112
-70.4873
-62.2942
-62.4738
-62.8271
-63.3419
-64.0003
-64.7784
-65.6467
-66.5703
-67.5107
-68.4259
-69.2733
-70.0114
-70.6026
-71.0155
-71.2278
-61.4841
-61.6946
-62.1089
-62.7136
-63.4886
-64.4067
-65.4342
-66.5307
-67.6507
-68.7445
-69.7605
-70.6479
-71.3604
-71.859
-72.1156
-60.5279
-60.7738
-61.2585
-61.9671
-62.8774
-63.9591
-65.1737
-66.4748
-67.809
-69.1171
-70.3368
-71.4059
-72.2667
-72.8704
-73.1816
-59.401
-59.6874
-60.2526
-61.0806
-62.1473
-63.4192
-64.8531
-66.396
-67.9854
-69.5511
-71.0176
-72.3085
-73.3515
-74.085
-74.4637
-58.0752
-58.4075
-59.0641
-60.0285
-61.2748
-62.7669
-64.4569
-66.2848
-68.1783
-70.054
-71.8204
-73.383
-74.6511
-75.5457
-76.0087
-56.5188
-56.9026
-57.6621
-58.7806
-60.2317
-61.9771
-63.9649
-66.1281
-68.3835
-70.6327
-72.7647
-74.6621
-76.2098
-77.3063
-77.875
-54.6961
-55.1368
-56.0107
-57.302
-58.9844
-61.019
-63.3511
-65.9073
-68.5931
-71.2927
-73.8718
-76.1839
-78.0819
-79.4331
-80.1362
-52.5674
-53.0703
-54.0697
-55.5518
-57.4925
-59.8544
-62.5818
-65.5965
-68.7929
-72.0364
-75.1643
-77.9932
-80.3336
-82.0098
-82.8854
-50.0897
-50.6591
-51.7937
-53.4832
-55.7083
-58.436
-61.6132
-65.1595
-68.9601
-72.8603
-76.6642
-80.1418
-83.0462
-85.1423
-86.2426
-47.2167
-47.8557
-49.1325
-51.0427
-53.5752
-56.7055
-60.3882
-64.5459
-69.0582
-73.7509
-78.3905
-82.6882
-86.3201
-88.966
-90.3636
-43.9002
-44.6096
-46.0316
-48.1704
-51.027
-54.5917
-58.8334
-63.6861
-69.0309
-74.6784
-80.3541
-85.6967
-90.2784
-93.6564
-95.455
-40.0913
-40.8689
-42.4331
-44.7999
-47.9874
-52.0077
-56.8545
-62.4846
-68.7934
-75.5862
-82.549
-89.2335
-95.0722
-99.4434
-101.795
-35.7427
-36.5822
-38.2777
-40.8598
-44.3696
-48.8499
-54.3317
-60.8117
-68.2199
-76.3757
-84.9368
-93.3575
-100.885
-106.633
-109.767
-30.8115
-31.7015
-33.5067
-36.2758
-40.0781
-44.9969
-51.1158
-58.4942
-67.1273
-76.8836
-87.4218
-98.1017
-107.932
-115.636
-119.916
-25.2625
-26.1858
-28.0668
-30.9745
-35.0116
-40.3109
-47.0253
-55.3055
-65.2547
-76.8483
-89.8082
-103.435
-116.456
-127.017
-133.037
-19.0729
-20.0054
-21.9144
-24.8894
-29.069
-34.6423
-41.8476
-50.9579
-62.2401
-75.8642
-91.7307
-109.19
-126.689
-141.549
-150.338
-12.2364
-13.1475
-15.0221
-17.9684
-22.1588
-27.8407
-35.3474
-45.1022
-57.5991
-73.3229
-92.5471
-114.916
-138.753
-160.297
-173.742
-4.76763
-5.62127
-7.38616
-10.1839
-14.2134
-19.7724
-27.2862
-37.3426
-50.7171
-68.3506
-91.1797
-119.621
-152.409
-184.668
-206.481
3.29318
2.53711
0.96636
-1.54461
-5.20656
-10.3469
-17.4597
-27.2789
-40.8779
-59.7703
-85.9144
-121.309
-166.43
-216.293
-254.365
11.8782
11.2604
9.97105
7.89326
4.82637
0.447577
-5.75419
-14.5909
-27.3629
-46.1544
-74.2252
-116.24
-177.157
-256.105
-328.687
20.8914
20.4493
19.5224
18.0172
15.7696
12.5074
7.78047
0.829413
-9.66829
-26.0948
-52.8524
-98.0455
-175.362
-300.335
-453.409
30.2106
29.9737
29.4744
28.6558
27.4165
25.5835
22.8589
18.7118
12.1428
1.13837
-18.6776
-57.5423
-140.47
-325.048
-684.429
39.6932
39.6794
39.647
39.5856
39.4748
39.2777
38.9241
38.2751
37.0327
34.4897
28.7247
13.5603
-34.9868
-228.367
-1165.01
49.1842
49.3966
49.8388
50.5485
51.5921
53.0793
55.1932
58.249
62.8244
70.0773
82.6534
107.845
171.074
384.472
1341.65
58.5264
58.9531
59.8434
61.2783
63.3999
66.4446
70.8067
77.1658
86.7551
101.966
127.82
175.711
272.849
480.789
875.372
67.571
68.1863
69.4686
71.53
74.5654
78.8934
85.0315
93.8376
106.779
126.463
157.681
209.376
297.672
447.486
683.14
79.0167
32.1676
13.3787
3.66321
-2.21714
-6.11242
-8.83406
-10.7987
-12.2444
-13.3171
-14.1109
-14.6881
-15.0903
-15.3448
-15.4681
49.9317
30.5468
16.3923
7.18328
1.06061
-3.17303
-6.20038
-8.41823
-10.0678
-11.3021
-12.2217
-12.8942
-13.3649
-13.6637
-13.8088
34.3078
25.2935
15.9714
8.55997
3.02652
-1.07129
-4.12879
-6.4323
-8.17932
-9.50538
-10.5041
-11.2403
-11.7587
-12.0891
-12.25
24.9436
20.2536
14.2236
8.6324
3.99542
0.308021
-2.58077
-4.83277
-6.58314
-7.93594
-8.96856
-9.73745
-10.2828
-10.6323
-10.8029
18.8361
16.1439
12.1709
8.04209
4.30487
1.13273
-1.47494
-3.58153
-5.26299
-6.58876
-7.61612
-8.38975
-8.94302
-9.29946
-9.47405
14.5981
12.9236
10.2261
7.1798
4.22184
1.56545
-0.717075
-2.62548
-4.1898
-5.44876
-6.43979
-7.19499
-7.73978
-8.09285
-8.26638
11.5226
10.4137
8.52347
6.25608
3.92933
1.73853
-0.219011
-1.90836
-3.32861
-4.49475
-5.42718
-6.14627
-6.66961
-7.01083
-7.17914
9.21708
8.44634
7.08263
5.37352
3.54237
1.74962
0.092805
-1.37809
-2.64386
-3.70298
-4.56267
-5.23342
-5.72583
-6.04882
-6.2087
7.44671
6.89064
5.88159
4.57565
3.12871
1.66628
0.275507
-0.990238
-2.1026
-3.04968
-3.8293
-4.44436
-4.89965
-5.20003
-5.34921
6.06241
5.64943
4.88667
3.87564
2.72577
1.53316
0.371383
-0.708898
-1.6761
-2.51262
-3.21019
-3.7662
-4.181
-4.45617
-4.59328
4.96484
4.65107
4.06411
3.272
2.35249
1.3786
0.410663
-0.506079
-1.34033
-2.07203
-2.68936
-3.18605
-3.55929
-3.80813
-3.93251
4.08513
3.84237
3.38396
2.75681
2.01694
1.2199
0.414388
-0.360541
-1.07576
-1.71084
-2.25227
-2.6916
-3.02391
-3.2465
-3.35806
3.37395
3.18338
2.82097
2.31986
1.72108
1.06706
0.396872
-0.256464
-0.866829
-1.41467
-1.88605
-2.27145
-2.56469
-2.76194
-2.86105
2.79507
2.6437
2.35426
1.95071
1.46355
0.925443
0.367649
-0.182226
-0.701308
-1.17159
-1.57952
-1.91529
-2.1721
-2.34551
-2.43283
2.32127
2.19988
1.96676
1.6396