/*--------------------------------*- C++ -*----------------------------------*\
| =========                 |                                                 |
| \\      /  F ield         | OpenFOAM: The Open Source CFD Toolbox           |
|  \\    /   O peration     | Version:  5.x                                   |
|   \\  /    A nd           | Web:      www.OpenFOAM.org                      |
|    \\/     M anipulation  |                                                 |
\*---------------------------------------------------------------------------*/
FoamFile
{
    version     2.0;
    format      ascii;
    class       volScalarField;
    location    "1.7001";
    object      gradTx;
}
// * * * * * * * * * * * * * * * * * * * * * * * * * * * * * * * * * * * * * //

dimensions      [0 -1 0 1 0 0 0];

internalField   nonuniform List<scalar> 
2048
(
0.00771506
0.0229085
0.0374154
0.0508494
0.0629167
0.0734318
0.0823149
0.089578
0.0953019
0.0996114
0.102653
0.104577
0.10553
0.105648
0.10506
0.103885
0.10224
0.100233
0.0979656
0.0955262
0.0929898
0.0904141
0.0878393
0.0852902
0.0827787
0.0803069
0.0778705
0.0754602
0.0730627
0.0706614
0.0682372
0.0657699
0.0632397
0.06063
0.0579284
0.0551273
0.0522233
0.0492151
0.0461017
0.0428794
0.0395416
0.0360781
0.0324779
0.0287313
0.0248342
0.0207918
0.0166221
0.0123589
0.0080533
0.0037753
-0.000386881
-0.00432822
-0.00793041
-0.0110674
-0.0136137
-0.0154541
-0.0164951
-0.0166764
-0.0159797
-0.014434
-0.0121171
-0.00915108
-0.00569464
-0.00193283
0.0230032
0.0682914
0.111498
0.151455
0.187283
0.218434
0.244685
0.26609
0.282908
0.295527
0.304393
0.309961
0.312665
0.312909
0.311069
0.307503
0.302549
0.296533
0.289755
0.282482
0.274936
0.267288
0.259656
0.25211
0.244684
0.23738
0.230185
0.223071
0.215997
0.208914
0.201764
0.194486
0.18702
0.179316
0.171335
0.163057
0.154473
0.145582
0.13638
0.12686
0.117001
0.106771
0.096136
0.0850635
0.0735384
0.0615732
0.0492187
0.0365729
0.0237867
0.0110668
-0.00132458
-0.0130741
-0.0238274
-0.0332053
-0.0408281
-0.0463459
-0.0494737
-0.050025
-0.0479412
-0.0433079
-0.0363577
-0.0274583
-0.0170878
-0.00580031
0.0381652
0.113264
0.184798
0.250783
0.309747
0.360801
0.40362
0.438352
0.465486
0.485714
0.499806
0.50853
0.512602
0.512682
0.509377
0.503265
0.494903
0.484825
0.473532
0.461469
0.449003
0.436416
0.423894
0.411547
0.399417
0.387504
0.375781
0.364198
0.352689
0.341173
0.329552
0.317719
0.305572
0.293023
0.280011
0.266503
0.252488
0.237972
0.222956
0.207429
0.191357
0.174684
0.157345
0.139279
0.120451
0.10087
0.0806151
0.0598393
0.038787
0.017796
-0.0027017
-0.0221862
-0.0400646
-0.0556978
-0.0684399
-0.0776904
-0.0829548
-0.0839049
-0.0804303
-0.0726688
-0.0610107
-0.0460766
-0.0286758
-0.009735
0.053515
0.158736
0.258731
0.350625
0.432328
0.502639
0.561198
0.608335
0.644857
0.671827
0.690387
0.701633
0.706559
0.70606
0.700955
0.692025
0.680033
0.665725
0.649807
0.632908
0.615545
0.598104
0.580833
0.563863
0.547235
0.530935
0.514915
0.499104
0.483413
0.467726
0.451901
0.435784
0.419221
0.402083
0.384283
0.365779
0.346569
0.326673
0.306106
0.284858
0.262883
0.240095
0.216388
0.191659
0.165838
0.138924
0.111006
0.0822871
0.0530965
0.0238973
-0.0047119
-0.0320031
-0.0571374
-0.0791994
-0.0972525
-0.110415
-0.11795
-0.119358
-0.114459
-0.103437
-0.0868491
-0.0655874
-0.0408171
-0.0138577
0.0693365
0.205526
0.334555
0.452546
0.556754
0.645707
0.71911
0.7776
0.822425
0.855122
0.877262
0.890289
0.895467
0.893896
0.886576
0.874467
0.858533
0.839735
0.818996
0.797145
0.774856
0.752617
0.730721
0.709304
0.688386
0.667921
0.647836
0.628041
0.608423
0.588835
0.56909
0.548973
0.528269
0.5068
0.484447
0.461168
0.436978
0.411927
0.386057
0.359369
0.331803
0.303235
0.273504
0.242446
0.209941
0.175957
0.140584
0.104061
0.0667953
0.0293682
-0.00745824
-0.0427457
-0.0753976
-0.1042
-0.12789
-0.14526
-0.155282
-0.157244
-0.150866
-0.136376
-0.114511
-0.0864675
-0.053805
-0.0182666
0.0859014
0.25441
0.41345
0.55798
0.684562
0.791513
0.878742
0.947367
0.999244
1.03651
1.06124
1.07524
1.08002
1.07684
1.06685
1.05115
1.03089
1.00726
0.981433
0.954456
0.927176
0.900176
0.873782
0.848101
0.823105
0.798701
0.774781
0.751241
0.727954
0.704746
0.681376
0.657558
0.632998
0.607455
0.580775
0.552919
0.523939
0.493934
0.462994
0.43114
0.398298
0.364297
0.3289
0.29186
0.252983
0.212185
0.169544
0.125324
0.0799996
0.0342636
-0.0109635
-0.0545317
-0.0950751
-0.131053
-0.160833
-0.182821
-0.195634
-0.198288
-0.190367
-0.172133
-0.144533
-0.109113
-0.0678794
-0.023042
0.103483
0.306164
0.496569
0.668297
0.817164
0.941374
1.04123
1.11857
1.17606
1.2166
1.24284
1.25697
1.26071
1.2554
1.24226
1.22251
1.19748
1.16862
1.13738
1.10505
1.07269
1.04097
1.01021
0.980471
0.951626
0.92351
0.89598
0.868925
0.842223
0.815679
0.788996
0.761793
0.733676
0.704316
0.673521
0.641261
0.607648
0.57286
0.537059
0.500304
0.462509
0.423438
0.382754
0.340097
0.295169
0.247816
0.198084
0.146254
0.0928566
0.038688
-0.0151805
-0.0673899
-0.116295
-0.159998
-0.196445
-0.223582
-0.239585
-0.243121
-0.233588
-0.211274
-0.177374
-0.133853
-0.0832348
-0.0282476
0.122368
0.361591
0.585089
0.784847
0.955893
1.09646
1.20751
1.29188
1.35334
1.39572
1.42235
1.43579
1.43787
1.42994
1.4132
1.38894
1.35865
1.32409
1.28702
1.24908
1.21153
1.17514
1.14019
1.10662
1.07418
1.04258
1.01165
0.981298
0.951424
0.921835
0.892167
0.861921
0.830561
0.797645
0.762928
0.726405
0.688274
0.648835
0.608356
0.566958
0.52454
0.480785
0.43522
0.387335
0.336696
0.283052
0.226404
0.167039
0.105538
0.0427872
-0.0200024
-0.081271
-0.139089
-0.191175
-0.234991
-0.267934
-0.287633
-0.292304
-0.281091
-0.2543
-0.213428
-0.160956
-0.100022
-0.0339313
0.142863
0.421549
0.680237
0.908997
1.10204
1.25782
1.37832
1.46775
1.53131
1.57398
1.59986
1.61181
1.61171
1.60075
1.58
1.55074
1.51467
1.47386
1.43052
1.38665
1.34379
1.3028
1.26388
1.22677
1.191
1.15616
1.12202
1.08855
1.05573
1.02339
0.991091
0.95817
0.923905
0.887698
0.849233
0.808545
0.765964
0.721958
0.676954
0.631159
0.584463
0.536436
0.48643
0.433737
0.377748
0.318089
0.254702
0.187874
0.118231
0.0467384
-0.0252722
-0.0960574
-0.163408
-0.224633
-0.276647
-0.316191
-0.340215
-0.346351
-0.333397
-0.301664
-0.253031
-0.190631
-0.118346
-0.0401237
0.165308
0.486973
0.78333
1.04217
1.25685
1.42639
1.55421
1.6464
1.70994
1.75125
1.77523
1.78502
1.78233
1.76805
1.74295
1.70823
1.66579
1.61812
1.56795
1.5178
1.46952
1.42405
1.38143
1.34112
1.30234
1.26449
1.2273
1.19085
1.15529
1.1205
1.08595
1.05076
1.01396
0.974735
0.932672
0.88787
0.840843
0.792299
0.742882
0.692928
0.642315
0.590466
0.5365
0.479457
0.418504
0.353115
0.283167
0.20895
0.13113
0.0507408
-0.0307927
-0.111572
-0.189126
-0.26034
-0.321511
-0.368602
-0.397719
-0.405744
-0.391001
-0.353782
-0.296464
-0.223024
-0.138259
-0.0468358
0.190082
0.558896
0.895792
1.18584
1.4216
1.60303
1.7356
1.82783
1.88898
1.92717
1.94818
1.95528
1.94978
1.93204
1.90234
1.86169
1.81223
1.75699
1.69937
1.64252
1.58871
1.53894
1.493
1.4499
1.40848
1.36785
1.32771
1.28836
1.25021
1.21328
1.1769
1.13991
1.10099
1.05902
1.01349
0.964559
0.913018
0.859897
0.806137
0.752253
0.698108
0.642929
0.585532
0.524636
0.459132
0.38831
0.311981
0.230451
0.144431
0.0550058
-0.0363361
-0.127587
-0.216049
-0.298185
-0.369607
-0.425356
-0.460497
-0.470949
-0.454389
-0.411047
-0.343952
-0.258208
-0.159756
-0.0540549
0.217608
0.638468
1.01918
1.34158
1.59752
1.78846
1.92269
2.01184
2.06796
2.1012
2.11827
2.12234
2.11405
2.0929
2.05846
2.01143
1.95422
1.89059
1.82479
1.76077
1.70133
1.64752
1.59873
1.55337
1.50971
1.46652
1.42347
1.38121
1.34059
1.30182
1.26408
1.22582
1.18524
1.14085
1.09192
1.03879
0.982583
0.924766
0.866679
0.809082
0.751822
0.693859
0.633617
0.569412
0.499796
0.423842
0.341309
0.252545
0.158317
0.059747
-0.0416532
-0.14383
-0.243921
-0.337983
-0.420886
-0.486584
-0.528867
-0.542426
-0.524051
-0.473832
-0.395663
-0.296172
-0.182757
-0.0617406
0.24837
0.726975
1.15521
1.51108
1.78584
1.98331
2.11555
2.19802
2.24619
2.27262
2.28495
2.28593
2.27512
2.25084
2.21165
2.15776
2.09199
2.01903
1.94418
1.87244
1.80728
1.7498
1.69878
1.6518
1.60639
1.56083
1.51481
1.46949
1.42644
1.38617
1.34763
1.3087
1.267
1.2205
1.16823
1.11073
1.04961
0.986892
0.924434
0.863334
0.803417
0.743281
0.680838
0.613917
0.540654
0.459869
0.371295
0.275376
0.172953
0.0651708
-0.0464832
-0.159993
-0.272424
-0.379478
-0.475229
-0.552362
-0.603117
-0.620642
-0.600505
-0.542506
-0.451698
-0.336804
-0.207095
-0.0698187
0.282914
0.825857
1.30575
1.69609
1.98779
2.1881
2.31404
2.38575
2.42278
2.44054
2.44755
2.4457
2.43295
2.40609
2.36229
2.30106
2.22578
2.14238
2.05747
1.97736
1.90643
1.84578
1.79332
1.74547
1.69887
1.65116
1.60195
1.55328
1.50776
1.46635
1.42764
1.38875
1.34656
1.29831
1.2427
1.18056
1.11418
1.04624
0.979291
0.914891
0.852829
0.791206
0.727272
0.658283
0.581868
0.496536
0.402062
0.299063
0.188478
0.0714668
-0.0505627
-0.175739
-0.301186
-0.42234
-0.532446
-0.62271
-0.683504
-0.706076
-0.684313
-0.617445
-0.512086
-0.379872
-0.232504
-0.0781765
0.321865
0.93672
1.47287
1.89853
2.20453
2.40317
2.51788
2.57424
2.59664
2.60389
2.60533
2.60131
2.58753
2.55894
2.51086
2.44173
2.35582
2.26073
2.16457
2.07531
1.9986
1.93546
1.88254
1.83474
1.78761
1.73792
1.68516
1.6326
1.58447
1.54234
1.50421
1.46617
1.4242
1.37464
1.3156
1.24845
1.17633
1.10274
1.0311
0.963599
0.899979
0.837644
0.772996
0.702642
0.623598
0.533979
0.433702
0.323689
0.205
0.0787994
-0.0536359
-0.190713
-0.329786
-0.466171
-0.592279
-0.697589
-0.770246
-0.799227
-0.77611
-0.699052
-0.576769
-0.425001
-0.258595
-0.086657
0.365938
1.06135
1.6588
2.12042
2.43719
2.62867
2.72661
2.76252
2.76647
2.76147
2.7575
2.75243
2.73884
2.70972
2.65791
2.58021
2.48234
2.37417
2.26536
2.16602
2.08353
2.0188
1.96665
1.91994
1.87308
1.82163
1.76468
1.70741
1.65641
1.61406
1.57741
1.54113
1.50026
1.44987
1.38725
1.31454
1.23612
1.15632
1.07968
1.00927
0.944775
0.882611
0.818082
0.747129
0.666016
0.572317
0.466273
0.349304
0.222589
0.0872994
-0.0554633
-0.204545
-0.357757
-0.510501
-0.654399
-0.776901
-0.863511
-0.900612
-0.876637
-0.787776
-0.645584
-0.471644
-0.284851
-0.0950555
0.415969
1.20171
1.86598
2.36392
2.68676
2.86454
2.93962
2.94947
2.93082
2.91194
2.90325
2.89877
2.88691
2.85881
2.80413
2.71701
2.60557
2.48278
2.3597
2.24913
2.1609
2.09577
2.0459
2.00146
1.95581
1.90286
1.84079
1.77759
1.72334
1.68142
1.64733
1.61382
1.57505
1.52446
1.45796
1.37899
1.29361
1.20689
1.12479
1.05168
0.987118
0.926134
0.862597
0.79188
0.709315
0.611662
0.499796
0.375919
0.241277
0.0970569
-0.0558308
-0.216866
-0.384593
-0.554792
-0.718415
-0.860493
-0.963391
-1.01076
-0.986788
-0.884145
-0.718245
-0.519054
-0.310603
-0.103118
0.472947
1.35995
2.09699
2.6314
2.9541
3.11041
3.15622
3.13389
3.08802
3.05382
3.0418
3.04018
3.03171
3.00664
2.95038
2.85263
2.72565
2.5867
2.44744
2.32418
2.23033
2.16637
2.12063
2.07966
2.03637
1.98235
1.91381
1.84295
1.78492
1.74428
1.7141
1.68438
1.64892
1.59895
1.52805
1.44189
1.34886
1.25434
1.16616
1.09055
1.02691
0.968269
0.906597
0.837029
0.753715
0.652109
0.534241
0.403512
0.261055
0.108115
-0.0545583
-0.227312
-0.409752
-0.598433
-0.783878
-0.948164
-1.06987
-1.13018
-1.10767
-0.988799
-0.7943
-0.566249
-0.335037
-0.110542
0.538081
1.53839
2.35453
2.92547
3.23984
3.3655
3.37567
3.3145
3.23624
3.18548
3.17242
3.17665
3.17318
3.15364
3.09773
2.98761
2.84264
2.68613
2.52846
2.39063
2.29133
2.23059
2.19122
2.15486
2.11536
2.06099
1.98406
1.90313
1.84066
1.80252
1.77786
1.75289
1.7222
1.67397
1.59784
1.5033
1.40197
1.29859
1.20345
1.12556
1.06408
1.00912
0.950111
0.882701
0.799494
0.693741
0.569517
0.432031
0.281876
0.120461
-0.051506
-0.235537
-0.43267
-0.640737
-0.85029
-1.03969
-1.18278
-1.25935
-1.24068
-1.10254
-0.873084
-0.61198
-0.357187
-0.116988
0.612908
1.73948
2.64136
3.2491
3.54429
3.62853
3.59732
3.49004
3.37343
3.30514
3.29446
3.30842
3.31112
3.30023
3.2476
3.12244
2.95643
2.78142
2.60265
2.44781
2.34328
2.28847
2.25823
2.22729
2.19335
2.13994
2.05191
1.95762
1.88995
1.85598
1.8389
1.81936
1.79517
1.75034
1.66764
1.56315
1.4531
1.33954
1.23627
1.15634
1.09855
1.04887
0.993122
0.929
0.84701
0.736618
0.605456
0.461409
0.30366
0.134024
-0.0465806
-0.241223
-0.452765
-0.680933
-0.917118
-1.13485
-1.30174
-1.39861
-1.38761
-1.22641
-0.953641
-0.654695
-0.375956
-0.122083
0.699469
1.96575
2.96012
3.60583
3.86731
3.89753
3.82077
3.65931
3.49732
3.41087
3.40744
3.43614
3.44509
3.44672
3.40189
3.25756
3.06661
2.8731
2.66998
2.49489
2.38545
2.3401
2.32242
2.29702
2.27088
2.22066
2.11774
2.00572
1.93199
1.90456
1.89765
1.88363
1.86808
1.82909
1.73768
1.62124
1.50254
1.37715
1.26414
1.18244
1.13029
1.0878
1.03553
0.975987
0.896753
0.780772
0.641783
0.491586
0.3263
0.148663
-0.0397366
-0.244094
-0.469454
-0.718147
-0.9838
-1.23353
-1.42607
-1.54808
-1.55081
-1.36172
-1.03462
-0.692517
-0.390144
-0.125448
0.800585
2.21972
3.31316
4.00009
4.20819
4.16955
4.04617
3.82125
3.60535
3.50049
3.51104
3.561
3.5742
3.59324
3.56319
3.39322
3.17233
2.96211
2.73049
2.53083
2.41691
2.38566
2.38487
2.3638
2.34835
2.30515
2.18196
2.04642
1.96579
1.94818
1.95481
1.94531
1.94105
1.91166
1.80813
1.6771
1.55074
1.41141
1.28646
1.20332
1.15931
1.12639
1.0771
1.02365
0.949414
0.826188
0.678082
0.52254
0.349668
0.164162
-0.0309748
-0.243924
-0.482177
-0.751376
-1.04976
-1.33579
-1.55471
-1.7075
-1.73339
-1.51019
-1.11412
-0.72322
-0.398505
-0.12672
0.920295
2.50377
3.70215
4.43766
4.56537
4.44038
4.27455
3.97497
3.69461
3.5716
3.60512
3.68506
3.69694
3.73955
3.73514
3.52939
3.27207
3.04994
2.78431
2.55436
2.43655
2.42538
2.44717
2.42695
2.42594
2.39606
2.24493
2.07841
1.99016
1.98683
2.01152
2.00363
2.01401
2
1.87898
1.72994
1.59849
1.44236
1.30254
1.21834
1.18568
1.16538
1.11738
1.07187
1.00598
0.872773
0.713745
0.554342
0.373621
0.18021
-0.0203341
-0.240552
-0.490418
-0.779451
-1.11438
-1.44205
-1.68607
-1.87597
-1.93948
-1.67402
-1.18947
-0.744241
-0.39981
-0.125576
1.0645
2.81992
4.12766
4.92636
4.93614
4.7041
4.50841
4.11974
3.76178
3.62151
3.68972
3.81155
3.81076
3.8849
3.92284
3.66557
3.36338
3.13896
2.83166
2.56389
2.443
2.45954
2.51159
2.48512
2.50348
2.49702
2.30693
2.09995
2.00364
2.02056
2.06953
2.0573
2.08662
2.09685
1.94998
1.77844
1.64701
1.47009
1.31148
1.22676
1.20947
1.20587
1.15563
1.12035
1.06786
0.920316
0.747902
0.587229
0.398003
0.196391
-0.00787465
-0.233889
-0.49376
-0.800982
-1.177
-1.55332
-1.81793
-2.05168
-2.17457
-1.85602
-1.25697
-0.752717
-0.392945
-0.121776
1.24189
3.16957
4.58837
5.4771
5.31626
4.95243
4.75245
4.25494
3.80299
3.64719
3.76495
3.94549
3.91167
4.02772
4.13355
3.80054
3.44248
3.23284
2.87276
2.55749
2.43463
2.48847
2.58151
2.53601
2.58026
2.61298
2.368
2.10884
2.00456
2.04942
2.13147
2.10423
2.15807
2.20608
2.02049
1.82058
1.69822
1.49467
1.31223
1.22768
1.23078
1.24953
1.19062
1.16854
1.13709
0.96842
0.779334
0.621705
0.422637
0.212155
0.00634797
-0.223929
-0.491939
-0.814287
-1.23684
-1.67152
-1.94728
-2.23141
-2.44605
-2.0597
-1.31147
-0.745575
-0.377018
-0.115183
1.46529
3.55314
5.08019
6.10524
5.69938
5.17407
5.01457
4.37982
3.81376
3.64531
3.83083
4.09429
3.99369
4.16529
4.37747
3.93204
3.50377
3.33717
2.90773
2.53276
2.40956
2.51234
2.66176
2.576
2.6548
2.75073
2.42778
2.10239
1.99103
2.07344
2.20128
2.14127
2.22696
2.33313
2.08931
1.85339
1.75505
1.51613
1.30348
1.22009
1.24965
1.29879
1.22054
1.21553
1.21657
1.0164
0.806358
0.65869
0.447304
0.226785
0.0223224
-0.210748
-0.484934
-0.817314
-1.29287
-1.79991
-2.07015
-2.41
-2.76375
-2.28946
-1.34595
-0.719692
-0.351473
-0.105799
1.75343
3.96951
5.59489
6.83242
6.07631
5.35367
5.30726
4.49317
3.78891
3.61221
3.88693
4.26877
4.04805
4.29325
4.66888
4.05626
3.53925
3.46018
2.93636
2.48685
2.3656
2.53104
2.7593
2.5997
2.72457
2.91949
2.48517
2.07729
1.96096
2.09238
2.28465
2.16382
2.29103
2.48557
2.15442
1.87261
1.82182
1.53434
1.2837
1.20286
1.26596
1.35717
1.24267
1.25995
1.31038
1.06317
0.826695
0.699699
0.471706
0.239363
0.0401347
-0.1945
-0.473081
-0.807541
-1.34366
-1.94361
-2.18149
-2.57953
-3.14076
-2.55066
-1.35086
-0.672153
-0.316217
-0.0937768
2.13333
4.41544
6.11843
7.68898
6.43405
5.47075
5.64921
4.59268
3.7225
3.54406
3.93192
4.48434
4.06237
4.40508
5.02743
4.16733
3.53777
3.61376
2.95774
2.41641
2.30039
2.54385
2.88393
2.59936
2.78562
3.13174
2.5379
2.02972
1.91218
2.10559
2.38969
2.16533
2.34687
2.67385
2.2127
1.87232
1.90482
1.54878
1.25106
1.17475
1.2793
1.42964
1.25319
1.29975
1.42415
1.10702
0.837299
0.747089
0.495399
0.248722
0.060037
-0.175403
-0.45722
-0.781884
-1.38706
-2.11029
-2.275
-2.72845
-3.59435
-2.84973
-1.31342
-0.600622
-0.271715
-0.0794248
2.64333
4.88467
6.62887
8.71697
6.75459
5.49829
6.06751
4.67406
3.60785
3.43702
3.96277
4.76252
4.01953
4.49134
5.47991
4.2565
3.48419
3.81475
2.96969
2.31761
2.21145
2.54896
3.0493
2.56422
2.83219
3.40421
2.58201
1.95535
1.84255
2.11151
2.52773
2.13676
2.38952
2.91216
2.2595
1.84447
2.01292
1.55828
1.20348
1.13449
1.28868
1.52311
1.24676
1.33206
1.56561
1.14546
0.834173
0.804352
0.51769
0.253389
0.082531
-0.153707
-0.438876
-0.736605
-1.41983
-2.31096
-2.34306
-2.84036
-4.14717
-3.19424
-1.21671
-0.503861
-0.219062
-0.0631943
3.33691
5.367
7.09373
9.97385
7.01337
5.40121
6.60021
4.72976
3.43768
3.28757
3.97376
5.13283
3.89643
4.53889
6.06214
4.31127
3.3584
4.08643
2.96808
2.18622
2.09641
2.54284
3.27405
2.47972
2.85617
3.75903
2.61096
1.84949
1.75016
2.10722
2.71431
2.06593
2.41205
3.21952
2.2882
1.7784
2.15842
1.56062
1.13866
1.08092
1.29222
1.64702
1.21617
1.35294
1.74508
1.17487
0.81216
0.876483
0.537496
0.251539
0.108466
-0.129646
-0.420478
-0.66724
-1.4371
-2.56092
-2.3767
-2.89263
-4.82857
-3.59296
-1.03872
-0.382414
-0.159997
-0.0456473
4.28725
5.84699
7.46696
11.5368
7.17747
5.13459
7.29937
4.74727
3.20435
3.09295
3.95502
5.63505
3.66256
4.52991
6.82133
4.3143
3.13418
4.46038
2.94574
2.0178
1.95324
2.51938
3.5833
2.32653
2.84656
4.22512
2.61475
1.70734
1.63359
2.08766
2.97035
1.93671
2.40509
3.62094
2.28958
1.66021
2.35801
1.55199
1.05416
1.01305
1.28673
1.81409
1.15183
1.35712
1.9762
1.19015
0.764711
0.970399
0.553159
0.240939
0.139144
-0.103377
-0.405603
-0.568569
-1.43173
-2.88081
-2.36558
-2.85483
-5.67624
-4.05576
-0.751182
-0.239473
-0.0968299
-0.0274079
5.59259
6.30257
7.68537
13.508
7.20344
4.64175
8.23462
4.70695
2.9003
2.85182
3.89087
6.32179
3.27837
4.44082
7.81859
4.2422
2.77809
4.97858
2.89121
1.80793
1.78068
2.46881
4.01021
2.07958
2.78883
4.8398
2.57863
1.52426
1.49228
2.04473
3.32353
1.72823
2.35617
4.14881
2.25121
1.47216
2.6339
1.52631
0.947542
0.930358
1.26715
2.04112
1.04125
1.33772
2.27665
1.18439
0.683656
1.09543
0.562199
0.218906
0.176438
-0.07488
-0.399247
-0.434631
-1.39347
-3.29775
-2.29815
-2.68685
-6.73795
-4.59353
-0.318324
-0.0819359
-0.0322725
-0.00910293
)
;

boundaryField
{
    left
    {
        type            calculated;
        value           uniform 0;
    }
    right
    {
        type            calculated;
        value           uniform 0;
    }
    interface
    {
        type            calculated;
        value           nonuniform List<scalar> 
64
(
5.59259
6.30257
7.68537
13.508
7.20344
4.64175
8.23462
4.70695
2.9003
2.85182
3.89087
6.32179
3.27837
4.44082
7.81859
4.2422
2.77809
4.97858
2.89121
1.80793
1.78068
2.46881
4.01021
2.07958
2.78883
4.8398
2.57863
1.52426
1.49228
2.04473
3.32353
1.72823
2.35617
4.14881
2.25121
1.47216
2.6339
1.52631
0.947542
0.930358
1.26715
2.04112
1.04125
1.33772
2.27665
1.18439
0.683656
1.09543
0.562199
0.218906
0.176438
-0.07488
-0.399247
-0.434631
-1.39347
-3.29775
-2.29815
-2.68685
-6.73795
-4.59353
-0.318324
-0.0819359
-0.0322725
-0.00910293
)
;
    }
    bottom
    {
        type            calculated;
        value           nonuniform List<scalar> 
64
(
0.00771506
0.0229085
0.0374154
0.0508494
0.0629167
0.0734318
0.0823149
0.089578
0.0953019
0.0996114
0.102653
0.104577
0.10553
0.105648
0.10506
0.103885
0.10224
0.100233
0.0979656
0.0955262
0.0929898
0.0904141
0.0878393
0.0852902
0.0827787
0.0803069
0.0778705
0.0754602
0.0730627
0.0706614
0.0682372
0.0657699
0.0632397
0.06063
0.0579284
0.0551273
0.0522233
0.0492151
0.0461017
0.0428794
0.0395416
0.0360781
0.0324779
0.0287313
0.0248342
0.0207918
0.0166221
0.0123589
0.0080533
0.0037753
-0.000386881
-0.00432822
-0.00793041
-0.0110674
-0.0136137
-0.0154541
-0.0164951
-0.0166764
-0.0159797
-0.014434
-0.0121171
-0.00915108
-0.00569464
-0.00193283
)
;
    }
    defaultFaces
    {
        type            empty;
    }
}


// ************************************************************************* //
