/*--------------------------------*- C++ -*----------------------------------*\
| =========                 |                                                 |
| \\      /  F ield         | OpenFOAM: The Open Source CFD Toolbox           |
|  \\    /   O peration     | Version:  5.x                                   |
|   \\  /    A nd           | Web:      www.OpenFOAM.org                      |
|    \\/     M anipulation  |                                                 |
\*---------------------------------------------------------------------------*/
FoamFile
{
    version     2.0;
    format      ascii;
    class       volScalarField;
    location    "1.7001";
    object      gradTy;
}
// * * * * * * * * * * * * * * * * * * * * * * * * * * * * * * * * * * * * * //

dimensions      [0 -1 0 1 0 0 0];

internalField   nonuniform List<scalar> 
2048
(
-27.5164
-27.4826
-27.4161
-27.3188
-27.1936
-27.0437
-26.8727
-26.6842
-26.4817
-26.2684
-26.0472
-25.8208
-25.5914
-25.361
-25.1312
-24.9035
-24.6789
-24.4584
-24.2427
-24.0321
-23.8271
-23.6276
-23.4338
-23.2456
-23.0628
-22.8855
-22.7136
-22.5468
-22.3853
-22.229
-22.0779
-21.9322
-21.7918
-21.657
-21.528
-21.4049
-21.2881
-21.1777
-21.0739
-20.9771
-20.8873
-20.8049
-20.7302
-20.6635
-20.6051
-20.5554
-20.5146
-20.483
-20.4608
-20.448
-20.4445
-20.4499
-20.4636
-20.4848
-20.5123
-20.5446
-20.5802
-20.6172
-20.6536
-20.6875
-20.7171
-20.7408
-20.7573
-20.7658
-27.5437
-27.5091
-27.4409
-27.3415
-27.2136
-27.0608
-26.8869
-26.6955
-26.4904
-26.2747
-26.0515
-25.8232
-25.5923
-25.3605
-25.1296
-24.9009
-24.6756
-24.4546
-24.2385
-24.0277
-23.8225
-23.623
-23.4293
-23.2411
-23.0584
-22.8812
-22.7093
-22.5426
-22.3811
-22.2248
-22.0736
-21.9277
-21.7873
-21.6523
-21.5231
-21.3999
-21.2828
-21.1722
-21.0683
-20.9712
-20.8813
-20.7987
-20.7237
-20.6567
-20.5981
-20.548
-20.507
-20.4753
-20.4531
-20.4404
-20.4371
-20.443
-20.4574
-20.4796
-20.5082
-20.5419
-20.579
-20.6175
-20.6555
-20.6908
-20.7217
-20.7464
-20.7637
-20.7726
-27.596
-27.5597
-27.4884
-27.3846
-27.2516
-27.0932
-26.9136
-26.7168
-26.5067
-26.2865
-26.0593
-25.8276
-25.5937
-25.3593
-25.1263
-24.8959
-24.6692
-24.4472
-24.2304
-24.0192
-23.8138
-23.6144
-23.4206
-23.2326
-23.0501
-22.873
-22.7012
-22.5346
-22.3731
-22.2167
-22.0655
-21.9194
-21.7787
-21.6434
-21.5139
-21.3903
-21.2729
-21.162
-21.0577
-20.9602
-20.8699
-20.7868
-20.7114
-20.6439
-20.5847
-20.5341
-20.4927
-20.4607
-20.4384
-20.4259
-20.4231
-20.4299
-20.4457
-20.4695
-20.5004
-20.5367
-20.5766
-20.6181
-20.6591
-20.6973
-20.7306
-20.7574
-20.776
-20.7856
-27.6711
-27.6323
-27.5563
-27.446
-27.3054
-27.1388
-26.951
-26.7465
-26.5292
-26.3026
-26.0699
-25.8334
-25.5952
-25.3574
-25.1213
-24.8885
-24.6599
-24.4364
-24.2187
-24.007
-23.8015
-23.602
-23.4085
-23.2206
-23.0384
-22.8615
-22.6898
-22.5233
-22.3619
-22.2055
-22.0541
-21.9077
-21.7666
-21.6309
-21.5009
-21.3768
-21.2589
-21.1475
-21.0427
-20.9447
-20.8538
-20.7702
-20.694
-20.6258
-20.5658
-20.5145
-20.4724
-20.4399
-20.4174
-20.4051
-20.4031
-20.4111
-20.4287
-20.455
-20.489
-20.529
-20.5731
-20.619
-20.6644
-20.7067
-20.7437
-20.7733
-20.7939
-20.8045
-27.7674
-27.7253
-27.643
-27.524
-27.3732
-27.1959
-26.9975
-26.7829
-26.5565
-26.3221
-26.0824
-25.8399
-25.5966
-25.3543
-25.1146
-24.8787
-24.6477
-24.4226
-24.2038
-23.9915
-23.7858
-23.5865
-23.3932
-23.2057
-23.0237
-22.8471
-22.6757
-22.5094
-22.348
-22.1915
-22.0399
-21.8932
-21.7516
-21.6153
-21.4847
-21.3599
-21.2414
-21.1294
-21.024
-20.9254
-20.8338
-20.7494
-20.6724
-20.6031
-20.5421
-20.4898
-20.4469
-20.4137
-20.3909
-20.3788
-20.3774
-20.3869
-20.4068
-20.4363
-20.4743
-20.519
-20.5685
-20.6201
-20.6712
-20.719
-20.7607
-20.794
-20.8173
-20.8293
-27.8839
-27.8374
-27.747
-27.617
-27.4534
-27.2627
-27.0512
-26.8245
-26.5875
-26.3436
-26.0959
-25.8466
-25.5974
-25.35
-25.1059
-24.8664
-24.6327
-24.4056
-24.1856
-23.9729
-23.7671
-23.568
-23.3752
-23.1882
-23.0066
-22.8304
-22.6592
-22.4931
-22.3318
-22.1753
-22.0235
-21.8764
-21.7342
-21.5972
-21.4657
-21.3401
-21.2209
-21.1082
-21.0021
-20.9029
-20.8105
-20.7252
-20.6471
-20.5767
-20.5144
-20.4608
-20.4167
-20.3826
-20.3593
-20.3472
-20.3466
-20.3577
-20.3802
-20.4134
-20.4561
-20.5067
-20.5627
-20.6214
-20.6796
-20.7341
-20.7816
-20.8196
-20.8461
-20.8597
-28.0198
-27.9679
-27.8673
-27.7237
-27.5444
-27.3376
-27.1106
-26.8699
-26.6206
-26.3663
-26.1098
-25.8529
-25.5971
-25.3441
-25.0951
-24.8516
-24.6149
-24.3857
-24.1645
-23.9513
-23.7457
-23.5471
-23.3549
-23.1685
-22.9875
-22.8116
-22.6408
-22.4749
-22.3138
-22.1573
-22.0052
-21.8577
-21.7147
-21.5768
-21.4444
-21.3179
-21.1978
-21.0843
-20.9776
-20.8776
-20.7845
-20.6982
-20.6189
-20.547
-20.4832
-20.428
-20.3824
-20.3471
-20.3231
-20.3108
-20.311
-20.3237
-20.349
-20.3863
-20.4346
-20.4919
-20.5557
-20.6229
-20.6896
-20.752
-20.8066
-20.8501
-20.8804
-20.8959
-28.1748
-28.1162
-28.0031
-27.8429
-27.6449
-27.419
-27.1741
-26.9175
-26.6547
-26.3892
-26.1232
-25.8583
-25.5956
-25.3364
-25.0822
-24.8343
-24.5942
-24.3628
-24.1404
-23.927
-23.7219
-23.5241
-23.3327
-23.147
-22.9666
-22.7912
-22.6208
-22.4552
-22.2944
-22.1379
-21.9856
-21.8375
-21.6937
-21.5547
-21.4211
-21.2935
-21.1724
-21.0581
-20.9508
-20.8502
-20.7562
-20.6689
-20.5883
-20.5148
-20.449
-20.392
-20.3445
-20.3078
-20.2826
-20.27
-20.2707
-20.285
-20.3133
-20.3552
-20.4095
-20.4745
-20.5474
-20.6243
-20.7011
-20.7729
-20.8356
-20.8856
-20.9202
-20.9378
-28.349
-28.2821
-28.1538
-27.9735
-27.7533
-27.5052
-27.2399
-26.9658
-26.6885
-26.4112
-26.1356
-25.8625
-25.5926
-25.3269
-25.0669
-24.8143
-24.5705
-24.3368
-24.1135
-23.9001
-23.6958
-23.4991
-23.3089
-23.1242
-22.9444
-22.7695
-22.5995
-22.4343
-22.2738
-22.1174
-21.965
-21.8162
-21.6714
-21.5311
-21.3961
-21.2672
-21.1451
-21.0301
-20.9221
-20.821
-20.7263
-20.6379
-20.5558
-20.4804
-20.4125
-20.3532
-20.3036
-20.2649
-20.2384
-20.2251
-20.226
-20.2419
-20.2732
-20.3197
-20.3808
-20.4544
-20.5375
-20.6258
-20.7141
-20.7969
-20.869
-20.9262
-20.9656
-20.9857
-28.5424
-28.4656
-28.3188
-28.1147
-27.8682
-27.5946
-27.3065
-27.0134
-26.7208
-26.4317
-26.1465
-25.8653
-25.5881
-25.3156
-25.0494
-24.7915
-24.5439
-24.3078
-24.0836
-23.8707
-23.6677
-23.4727
-23.2839
-23.1003
-22.9212
-22.7468
-22.5772
-22.4124
-22.2524
-22.0963
-21.9437
-21.7943
-21.6483
-21.5064
-21.3698
-21.2394
-21.1161
-21.0003
-20.8919
-20.7903
-20.6951
-20.6056
-20.5219
-20.4445
-20.3741
-20.3121
-20.2599
-20.2189
-20.1906
-20.1763
-20.1772
-20.1943
-20.2285
-20.28
-20.3482
-20.4313
-20.5259
-20.6271
-20.7287
-20.8241
-20.9068
-20.9721
-21.0168
-21.0395
-28.7558
-28.6668
-28.4979
-28.2653
-27.9882
-27.6855
-27.3722
-27.0586
-26.7506
-26.4497
-26.1555
-25.8664
-25.5819
-25.3024
-25.0296
-24.766
-24.5141
-24.2756
-24.0509
-23.839
-23.6379
-23.445
-23.2581
-23.0757
-22.8973
-22.7232
-22.5539
-22.3898
-22.2304
-22.0748
-21.9222
-21.772
-21.6246
-21.4808
-21.3422
-21.2101
-21.0856
-20.9691
-20.8604
-20.7587
-20.663
-20.5726
-20.4872
-20.4074
-20.3342
-20.2692
-20.2139
-20.1703
-20.1398
-20.124
-20.1245
-20.1425
-20.1793
-20.2357
-20.3114
-20.4048
-20.5123
-20.6281
-20.7449
-20.8546
-20.9493
-21.0235
-21.0738
-21.0992
-28.9899
-28.8861
-28.6907
-28.4243
-28.1117
-27.776
-27.435
-27.1001
-26.7766
-26.4648
-26.1623
-25.866
-25.5744
-25.2875
-25.0075
-24.7376
-24.4811
-24.2402
-24.0153
-23.8051
-23.6067
-23.4166
-23.2319
-23.0509
-22.8731
-22.6991
-22.53
-22.3665
-22.2081
-22.0533
-21.9007
-21.7498
-21.6007
-21.4546
-21.3136
-21.1795
-21.0537
-20.9367
-20.828
-20.7264
-20.6305
-20.5392
-20.4521
-20.3697
-20.2933
-20.2247
-20.1661
-20.1192
-20.0861
-20.0685
-20.068
-20.0865
-20.1256
-20.1868
-20.2703
-20.3748
-20.4963
-20.6286
-20.7628
-20.8888
-20.9969
-21.0806
-21.1367
-21.1648
-29.2458
-29.1242
-28.8969
-28.5906
-28.2369
-27.8643
-27.4933
-27.1362
-26.7978
-26.4764
-26.1669
-25.8642
-25.5656
-25.2712
-24.9833
-24.7063
-24.4447
-24.2014
-23.9767
-23.7689
-23.5742
-23.3877
-23.2057
-23.0261
-22.8486
-22.6744
-22.5054
-22.3427
-22.1856
-22.032
-21.8797
-21.7279
-21.5768
-21.428
-21.2841
-21.1477
-21.0205
-20.903
-20.7947
-20.6937
-20.598
-20.506
-20.417
-20.3318
-20.2518
-20.1792
-20.1165
-20.0661
-20.03
-20.01
-20.0082
-20.0265
-20.0675
-20.1331
-20.2244
-20.3407
-20.4778
-20.6285
-20.7824
-20.9269
-21.0498
-21.1436
-21.2056
-21.2361
-29.5248
-29.3817
-29.1164
-28.7632
-28.3621
-27.9482
-27.5451
-27.1655
-26.8134
-26.4841
-26.1693
-25.8612
-25.5561
-25.2538
-24.957
-24.6719
-24.4049
-24.159
-23.935
-23.7306
-23.5407
-23.3589
-23.1799
-23.0017
-22.8243
-22.6494
-22.4801
-22.3183
-22.163
-22.0112
-21.8595
-21.7068
-21.5534
-21.4011
-21.2537
-21.1146
-20.9859
-20.8683
-20.7607
-20.6609
-20.5659
-20.4732
-20.3824
-20.294
-20.2099
-20.1327
-20.0657
-20.0113
-19.9717
-19.9489
-19.9451
-19.9628
-20.0049
-20.0744
-20.1735
-20.3021
-20.4561
-20.6274
-20.8038
-20.9693
-21.1085
-21.2127
-21.2802
-21.3129
-29.8285
-29.6594
-29.3489
-28.9405
-28.4851
-28.0258
-27.5886
-27.1865
-26.8223
-26.4877
-26.1699
-25.8576
-25.5463
-25.2356
-24.9289
-24.6345
-24.3612
-24.1128
-23.89
-23.6903
-23.5067
-23.3305
-23.1551
-22.9782
-22.8004
-22.6241
-22.4539
-22.2933
-22.1406
-21.9912
-21.8404
-21.6867
-21.5306
-21.3742
-21.2224
-21.0803
-20.95
-20.8324
-20.7263
-20.6284
-20.5345
-20.4415
-20.3486
-20.2568
-20.1679
-20.0856
-20.0138
-19.955
-19.9115
-19.8856
-19.8793
-19.8955
-19.9378
-20.0105
-20.1172
-20.2586
-20.4309
-20.625
-20.827
-21.0166
-21.1737
-21.2883
-21.3604
-21.3947
-30.1588
-29.9584
-29.5945
-29.1213
-28.6037
-28.0949
-27.6219
-27.1977
-26.8239
-26.4873
-26.1691
-25.8539
-25.5367
-25.2174
-24.899
-24.5937
-24.3136
-24.0627
-23.8416
-23.648
-23.4723
-23.3032
-23.1317
-22.9559
-22.7772
-22.5983
-22.4266
-22.2675
-22.1184
-21.9724
-21.8228
-21.6681
-21.5089
-21.3473
-21.1903
-21.0446
-20.9127
-20.7953
-20.6914
-20.5962
-20.5042
-20.411
-20.3161
-20.2205
-20.1263
-20.0381
-19.961
-19.8975
-19.8499
-19.8203
-19.811
-19.8249
-19.8665
-19.9414
-20.055
-20.2098
-20.4017
-20.6209
-20.852
-21.0694
-21.246
-21.3705
-21.4461
-21.4811
-30.5179
-30.2795
-29.8529
-29.3038
-28.7152
-28.1533
-27.6433
-27.1976
-26.8175
-26.4828
-26.1677
-25.8508
-25.528
-25.1997
-24.8677
-24.5492
-24.2618
-24.0082
-23.7894
-23.6036
-23.438
-23.2775
-23.1101
-22.9353
-22.7551
-22.5722
-22.3977
-22.2407
-22.0965
-21.9551
-21.8071
-21.6513
-21.4886
-21.3207
-21.1571
-21.0076
-20.8739
-20.7569
-20.6561
-20.5648
-20.4755
-20.3822
-20.285
-20.1854
-20.0851
-19.9903
-19.9075
-19.8391
-19.7869
-19.7535
-19.7406
-19.7514
-19.7911
-19.8669
-19.9866
-20.155
-20.3677
-20.6143
-20.8788
-21.1286
-21.3263
-21.4595
-21.5367
-21.5711
-30.9082
-30.6238
-30.1241
-29.4861
-28.8167
-28.1988
-27.6511
-27.1845
-26.8023
-26.4747
-26.1667
-25.8491
-25.5207
-25.1834
-24.835
-24.5005
-24.2057
-23.9493
-23.7329
-23.5572
-23.4043
-23.2543
-23.0911
-22.9165
-22.7344
-22.5455
-22.3667
-22.2125
-22.075
-21.9399
-21.7936
-21.6365
-21.4703
-21.2943
-21.1225
-20.969
-20.8335
-20.7171
-20.6204
-20.5343
-20.4487
-20.3555
-20.2558
-20.152
-20.0445
-19.9421
-19.8536
-19.7799
-19.723
-19.6855
-19.6685
-19.6753
-19.7118
-19.787
-19.9116
-20.0938
-20.3286
-20.6044
-20.9073
-21.1955
-21.4157
-21.5557
-21.6318
-21.664
-31.3328
-30.9919
-30.4085
-29.6663
-28.9046
-28.2298
-27.644
-27.1569
-26.778
-26.4633
-26.1674
-25.8493
-25.5153
-25.1699
-24.8012
-24.4469
-24.145
-23.8857
-23.6716
-23.5086
-23.3714
-23.2344
-23.0748
-22.8999
-22.7159
-22.5182
-22.3326
-22.1825
-22.054
-21.9274
-21.7826
-21.624
-21.4544
-21.2683
-21.0862
-20.9288
-20.7913
-20.6754
-20.5843
-20.5051
-20.4245
-20.331
-20.2286
-20.1206
-20.0048
-19.8936
-19.7992
-19.7204
-19.6584
-19.6167
-19.5953
-19.5972
-19.629
-19.7016
-19.8295
-20.0257
-20.2838
-20.59
-20.9372
-21.2716
-21.5156
-21.6592
-21.7306
-21.7586
-31.795
-31.3838
-30.7066
-29.8418
-28.9743
-28.2448
-27.6208
-27.1126
-26.7442
-26.4494
-26.1717
-25.8521
-25.512
-25.1608
-24.7666
-24.3869
-24.0799
-23.8175
-23.6046
-23.4579
-23.34
-23.2191
-23.0618
-22.8856
-22.7004
-22.4901
-22.2942
-22.1502
-22.0337
-21.9183
-21.7744
-21.6138
-21.442
-21.2428
-21.0473
-20.8871
-20.7475
-20.6314
-20.5479
-20.4773
-20.4035
-20.3091
-20.2034
-20.0919
-19.9661
-19.8444
-19.7447
-19.6605
-19.5932
-19.5475
-19.5214
-19.5175
-19.543
-19.6108
-19.7397
-19.9504
-20.2329
-20.5695
-20.9678
-21.3592
-21.6277
-21.7701
-21.8322
-21.8536
-32.2989
-31.7989
-31.02
-30.0101
-29.0203
-28.2432
-27.5812
-27.0493
-26.7007
-26.4334
-26.1821
-25.8579
-25.5105
-25.1585
-24.7312
-24.3187
-24.011
-23.7448
-23.5305
-23.4051
-23.3104
-23.2099
-23.0522
-22.8732
-22.6894
-22.461
-22.2497
-22.1152
-22.014
-21.9139
-21.7691
-21.6058
-21.4342
-21.2177
-21.0049
-20.8441
-20.702
-20.5844
-20.511
-20.4513
-20.3864
-20.2898
-20.1802
-20.0665
-19.9284
-19.794
-19.6901
-19.6008
-19.5275
-19.4784
-19.4473
-19.4368
-19.4543
-19.5148
-19.6414
-19.8675
-20.176
-20.5406
-20.9982
-21.4614
-21.7537
-21.8881
-21.9356
-21.9478
-32.8497
-32.2344
-31.3515
-30.1683
-29.0352
-28.2258
-27.5254
-26.9635
-26.6479
-26.4159
-26.202
-25.8667
-25.5097
-25.1666
-24.6953
-24.2391
-23.9392
-23.668
-23.4475
-23.3504
-23.2828
-23.209
-23.046
-22.8621
-22.6849
-22.4308
-22.1966
-22.0771
-21.995
-21.9159
-21.7665
-21.5992
-21.4329
-21.1933
-20.9572
-20.8003
-20.6551
-20.5334
-20.4739
-20.427
-20.3744
-20.2731
-20.1586
-20.0456
-19.8919
-19.7415
-19.6359
-19.5414
-19.4613
-19.4098
-19.3736
-19.3557
-19.3635
-19.4137
-19.5337
-19.7768
-20.1139
-20.5001
-21.0264
-21.5826
-21.896
-22.013
-22.0393
-22.0395
-33.454
-32.6848
-31.7062
-30.3134
-29.0088
-28.1953
-27.4545
-26.8505
-26.5869
-26.3969
-26.2363
-25.8778
-25.5074
-25.1904
-24.6591
-24.1433
-23.867
-23.5882
-23.3525
-23.2943
-23.2573
-23.2193
-23.0427
-22.8506
-22.6902
-22.3994
-22.1315
-22.036
-21.9765
-21.9266
-21.7663
-21.5929
-21.4409
-21.1695
-20.9017
-20.7569
-20.6072
-20.4769
-20.4368
-20.4046
-20.369
-20.2589
-20.1378
-20.0306
-19.8565
-19.6858
-19.5827
-19.4828
-19.3944
-19.3422
-19.3007
-19.2749
-19.2713
-19.3082
-19.4152
-19.6782
-20.0482
-20.4438
-21.0497
-21.7289
-22.0567
-22.1439
-22.1417
-22.1272
-34.1203
-33.1399
-32.093
-30.442
-28.9272
-28.1575
-27.3708
-26.7033
-26.5199
-26.3754
-26.2916
-25.8899
-25.499
-25.2377
-24.6227
-24.0243
-23.7981
-23.5068
-23.2414
-23.2382
-23.233
-23.245
-23.0414
-22.836
-22.7102
-22.3667
-22.0494
-21.9924
-21.9577
-21.9495
-21.7676
-21.5844
-21.4621
-21.1463
-20.8345
-20.7159
-20.5592
-20.4124
-20.4003
-20.3835
-20.3724
-20.2465
-20.1163
-20.024
-19.8223
-19.6247
-19.5313
-19.4254
-19.3263
-19.2763
-19.2292
-19.195
-19.1784
-19.1993
-19.2838
-19.5715
-19.9822
-20.3659
-21.0636
-21.9091
-22.2382
-22.2793
-22.2412
-22.2094
-34.8608
-33.5827
-32.5262
-30.5508
-28.7711
-28.1229
-27.2781
-26.5117
-26.4516
-26.3485
-26.3779
-25.9004
-25.4776
-25.3199
-24.5861
-23.8715
-23.7388
-23.4262
-23.1076
-23.1847
-23.208
-23.2922
-23.0404
-22.8139
-22.7521
-22.3327
-21.9436
-21.9484
-21.9369
-21.9895
-21.7691
-21.5699
-21.5027
-21.1237
-20.7499
-20.6807
-20.5122
-20.3367
-20.3659
-20.3628
-20.3877
-20.2351
-20.0918
-20.029
-19.7891
-19.5553
-19.4835
-19.3697
-19.256
-19.2129
-19.1594
-19.1167
-19.0856
-19.0883
-19.1368
-19.4565
-19.9219
-20.2583
-21.0615
-22.1356
-22.442
-22.4172
-22.3356
-22.2846
-35.6917
-33.9855
-33.0286
-30.636
-28.5133
-28.1084
-27.1818
-26.2607
-26.3903
-26.3102
-26.509
-25.9052
-25.4318
-25.4536
-24.5493
-23.6696
-23.6993
-23.3496
-22.9418
-23.1385
-23.1783
-23.3696
-23.0371
-22.7769
-22.8264
-22.2973
-21.8047
-21.9078
-21.911
-22.054
-21.7685
-21.5435
-21.5714
-21.1016
-20.6399
-20.6564
-20.4678
-20.2446
-20.3361
-20.3403
-20.4194
-20.2234
-20.0606
-20.0509
-19.7568
-19.4734
-19.4417
-19.3164
-19.182
-19.1532
-19.0917
-19.0407
-18.9936
-18.9776
-18.9702
-19.3325
-19.8763
-20.1107
-21.0335
-22.4258
-22.6689
-22.5546
-22.423
-22.3517
-36.6364
-34.3056
-33.6348
-30.6937
-28.1161
-28.1398
-27.089
-25.9286
-26.3497
-26.2492
-26.7046
-25.8985
-25.3447
-25.6627
-24.5119
-23.3968
-23.6946
-23.2814
-22.7301
-23.108
-23.1367
-23.4894
-23.0276
-22.7145
-22.9482
-22.2602
-21.6196
-21.8775
-21.8741
-22.1532
-21.7627
-21.4962
-21.6806
-21.0798
-20.4927
-20.6511
-20.4284
-20.1289
-20.3152
-20.3122
-20.4737
-20.2093
-20.0175
-20.0966
-19.725
-19.3731
-19.41
-19.2662
-19.102
-19.099
-19.026
-18.9676
-18.9028
-18.8709
-18.7783
-19.198
-19.8597
-19.9091
-20.9657
-22.8041
-22.9174
-22.6876
-22.5014
-22.4095
-37.727
-34.4795
-34.3963
-30.7197
-27.5277
-28.2556
-27.0089
-25.4841
-26.3524
-26.1466
-26.9928
-25.8719
-25.1918
-25.9803
-24.4734
-23.0227
-23.7468
-23.2272
-22.4533
-23.1067
-23.0712
-23.6693
-23.0066
-22.6112
-23.1385
-22.2209
-21.3705
-21.8694
-21.8162
-22.3018
-21.7472
-21.4149
-21.8481
-21.0578
-20.2923
-20.6765
-20.3969
-19.9794
-20.3102
-20.2724
-20.5599
-20.1901
-19.9546
-20.1766
-19.6929
-19.246
-19.394
-19.2199
-19.0126
-19.0527
-18.962
-18.8983
-18.8134
-18.7737
-18.5538
-19.0499
-19.8927
-19.6355
-20.8384
-23.3042
-23.183
-22.8114
-22.5688
-22.4574
-39.0084
-34.4147
-35.3879
-30.7089
-26.6775
-28.5106
-26.9526
-24.8836
-26.4334
-25.9717
-27.4126
-25.8142
-24.9381
-26.4522
-24.4324
-22.5055
-23.8878
-23.1939
-22.0839
-23.1557
-22.9622
-23.9338
-22.9671
-22.4448
-23.4263
-22.1784
-21.0333
-21.9018
-21.7215
-22.5201
-21.7162
-21.2812
-22.0978
-21.035
-20.0164
-20.7493
-20.3769
-19.7815
-20.3324
-20.2105
-20.6905
-20.1619
-19.861
-20.3047
-19.6597
-19.0808
-19.4024
-19.178
-18.909
-19.0181
-18.8988
-18.8336
-18.7246
-18.6939
-18.2865
-18.8829
-20.0047
-19.2668
-20.6241
-23.9723
-23.4558
-22.9206
-22.6237
-22.4951
-40.5423
-33.9805
-36.7147
-30.655
-25.4711
-28.9814
-26.9329
-24.0667
-26.6451
-25.6772
-28.0177
-25.7107
-24.5353
-27.1405
-24.3869
-21.789
-24.1616
-23.19
-21.5844
-23.2871
-22.7803
-24.3166
-22.8995
-22.1851
-23.8511
-22.1309
-20.5759
-22.0029
-21.5656
-22.8363
-21.6618
-21.0695
-22.4628
-21.0102
-19.6351
-20.893
-20.3727
-19.5155
-20.3987
-20.1112
-20.883
-20.1197
-19.7217
-20.5003
-19.6236
-18.8626
-19.447
-19.1411
-18.7846
-19.0004
-18.8349
-18.7748
-18.6345
-18.6428
-17.9635
-18.6881
-20.2364
-18.7737
-20.286
-24.8705
-23.7185
-23.0091
-22.6649
-22.5225
-42.4119
-32.9962
-38.5226
-30.5497
-23.7841
-29.7719
-26.9642
-22.9515
-27.0644
-25.1934
-28.8813
-25.5424
-23.9186
-28.1272
-24.334
-20.799
-24.6283
-23.2251
-20.9039
-23.5479
-22.4813
-24.8639
-22.7918
-21.7908
-24.4649
-22.0754
-19.9555
-22.2136
-21.3121
-23.2886
-21.5742
-20.7455
-22.9863
-20.9819
-19.1091
-21.1394
-20.3894
-19.1545
-20.5338
-19.9516
-21.1614
-20.0572
-19.5166
-20.789
-19.582
-18.5715
-19.5444
-19.1091
-18.6308
-19.007
-18.7676
-18.7236
-18.5396
-18.6361
-17.5687
-18.4516
-20.6426
-18.1196
-19.7745
-26.0817
-23.9434
-23.0716
-22.6922
-22.5402
-44.7283
-31.218
-41.0081
-30.3812
-21.4552
-31.0208
-27.0618
-21.4294
-27.8003
-24.4196
-30.1012
-25.2852
-23.0018
-29.5197
-24.2689
-19.4391
-25.3678
-23.3103
-19.9747
-24.0049
-22.0024
-25.637
-22.6287
-21.2078
-25.3359
-22.0072
-19.1166
-22.5919
-20.9086
-23.9281
-21.4407
-20.2635
-23.725
-20.9473
-18.387
-21.5308
-20.4326
-18.6626
-20.7725
-19.6985
-21.5572
-19.9656
-19.2185
-21.204
-19.5312
-18.1816
-19.7162
-19.0808
-18.4355
-19.0475
-18.692
-18.6823
-18.4328
-18.6946
-17.0813
-18.1518
-21.295
-17.2592
-19.0242
-27.7133
-24.0878
-23.1033
-22.7051
-22.548
)
;

boundaryField
{
    left
    {
        type            calculated;
        value           nonuniform List<scalar> 
32
(
-27.5164
-27.5437
-27.596
-27.6711
-27.7674
-27.8839
-28.0198
-28.1748
-28.349
-28.5424
-28.7558
-28.9899
-29.2458
-29.5248
-29.8285
-30.1588
-30.5179
-30.9082
-31.3328
-31.795
-32.2989
-32.8497
-33.454
-34.1203
-34.8608
-35.6917
-36.6364
-37.727
-39.0084
-40.5423
-42.4119
-44.7283
)
;
    }
    right
    {
        type            calculated;
        value           nonuniform List<scalar> 
32
(
-20.7658
-20.7726
-20.7856
-20.8045
-20.8293
-20.8597
-20.8959
-20.9378
-20.9857
-21.0395
-21.0992
-21.1648
-21.2361
-21.3129
-21.3947
-21.4811
-21.5711
-21.664
-21.7586
-21.8536
-21.9478
-22.0395
-22.1272
-22.2094
-22.2846
-22.3517
-22.4095
-22.4574
-22.4951
-22.5225
-22.5402
-22.548
)
;
    }
    interface
    {
        type            calculated;
        value           nonuniform List<scalar> 
64
(
-46.014
-30.0955
-42.4485
-30.2794
-20.1076
-31.7794
-27.1291
-20.5511
-28.2632
-23.9455
-30.8141
-25.1311
-22.4563
-30.3324
-24.2326
-18.6532
-25.8171
-23.3667
-19.4383
-24.2922
-21.7088
-26.0887
-22.5312
-20.8613
-25.8453
-21.9692
-18.6346
-22.8313
-20.6617
-24.3019
-21.3608
-19.9765
-24.1561
-20.9281
-17.9697
-21.7686
-20.4614
-18.3787
-20.923
-19.5438
-21.789
-19.9113
-19.0425
-21.4478
-19.5028
-17.9583
-19.8237
-19.0672
-18.3257
-19.0776
-18.6514
-18.6643
-18.3754
-18.743
-16.8116
-17.9829
-21.6927
-16.771
-18.58
-28.6494
-24.1334
-23.1109
-22.7077
-22.5494
)
;
    }
    bottom
    {
        type            calculated;
        value           nonuniform List<scalar> 
64
(
-27.5093
-27.4757
-27.4096
-27.313
-27.1884
-27.0393
-26.869
-26.6812
-26.4794
-26.2667
-26.0461
-25.8202
-25.5912
-25.3611
-25.1317
-24.9042
-24.6798
-24.4594
-24.2438
-24.0333
-23.8283
-23.6288
-23.435
-23.2467
-23.064
-22.8867
-22.7147
-22.5479
-22.3864
-22.2301
-22.0791
-21.9333
-21.793
-21.6582
-21.5293
-21.4063
-21.2895
-21.1791
-21.0754
-20.9786
-20.8889
-20.8066
-20.7319
-20.6653
-20.607
-20.5573
-20.5165
-20.485
-20.4628
-20.4499
-20.4464
-20.4516
-20.4652
-20.4861
-20.5133
-20.5453
-20.5805
-20.6171
-20.6531
-20.6866
-20.7159
-20.7393
-20.7557
-20.7641
)
;
    }
    defaultFaces
    {
        type            empty;
    }
}


// ************************************************************************* //
