/*--------------------------------*- C++ -*----------------------------------*\
| =========                 |                                                 |
| \\      /  F ield         | OpenFOAM: The Open Source CFD Toolbox           |
|  \\    /   O peration     | Version:  5.x                                   |
|   \\  /    A nd           | Web:      www.OpenFOAM.org                      |
|    \\/     M anipulation  |                                                 |
\*---------------------------------------------------------------------------*/
FoamFile
{
    version     2.0;
    format      ascii;
    class       volScalarField;
    location    "1.7001";
    object      T;
}
// * * * * * * * * * * * * * * * * * * * * * * * * * * * * * * * * * * * * * //

dimensions      [0 0 0 1 0 0 0];

internalField   nonuniform List<scalar> 
2048
(
9.80237
9.80261
9.80308
9.80378
9.80467
9.80574
9.80697
9.80831
9.80977
9.81129
9.81288
9.8145
9.81615
9.8178
9.81945
9.82108
9.82269
9.82428
9.82583
9.82734
9.82881
9.83024
9.83164
9.83299
9.8343
9.83558
9.83681
9.83801
9.83917
9.84029
9.84138
9.84243
9.84343
9.8444
9.84533
9.84621
9.84705
9.84784
9.84859
9.84928
9.84993
9.85052
9.85106
9.85153
9.85195
9.85231
9.8526
9.85283
9.85299
9.85308
9.85311
9.85307
9.85297
9.85282
9.85263
9.8524
9.85214
9.85188
9.85162
9.85138
9.85117
9.851
9.85089
9.85083
9.41554
9.41626
9.41768
9.41975
9.42241
9.4256
9.42924
9.43324
9.43755
9.44209
9.44679
9.4516
9.45647
9.46137
9.46625
9.47109
9.47586
9.48054
9.48513
9.4896
9.49395
9.49819
9.50231
9.5063
9.51019
9.51395
9.5176
9.52114
9.52457
9.52789
9.5311
9.5342
9.53718
9.54004
9.54278
9.5454
9.54788
9.55023
9.55243
9.55449
9.55639
9.55814
9.55973
9.56115
9.56239
9.56345
9.56431
9.56498
9.56546
9.56573
9.5658
9.56569
9.56539
9.56494
9.56436
9.56367
9.56291
9.56212
9.56134
9.56062
9.55999
9.55948
9.55913
9.55895
9.04509
9.04628
9.04863
9.05206
9.05647
9.06174
9.06774
9.07435
9.08144
9.0889
9.09662
9.10452
9.11251
9.12054
9.12853
9.13645
9.14426
9.15192
9.15941
9.16672
9.17383
9.18075
9.18747
9.194
9.20033
9.20648
9.21244
9.21822
9.22382
9.22924
9.23448
9.23954
9.24441
9.24909
9.25357
9.25784
9.2619
9.26573
9.26933
9.2727
9.27582
9.27868
9.28127
9.2836
9.28563
9.28736
9.28878
9.28988
9.29065
9.29109
9.29121
9.29101
9.29051
9.28975
9.28877
9.28762
9.28634
9.28502
9.28372
9.28251
9.28145
9.2806
9.28001
9.27971
8.69002
8.69169
8.69498
8.69978
8.70594
8.71329
8.72164
8.73082
8.74065
8.75098
8.76165
8.77255
8.78357
8.79463
8.80564
8.81653
8.82726
8.83779
8.84807
8.85809
8.86785
8.87733
8.88654
8.89548
8.90416
8.91258
8.92075
8.92867
8.93635
8.94378
8.95096
8.9579
8.96458
8.971
8.97715
8.98301
8.98858
8.99384
8.99879
9.00341
9.00769
9.01162
9.01519
9.01838
9.02118
9.02357
9.02552
9.02703
9.02809
9.02869
9.02884
9.02855
9.02784
9.02676
9.02536
9.02372
9.02191
9.02004
9.01818
9.01646
9.01495
9.01374
9.0129
9.01247
8.34942
8.35158
8.35584
8.36204
8.36998
8.37944
8.39016
8.40191
8.41446
8.42761
8.44118
8.45502
8.469
8.48301
8.49694
8.51071
8.52426
8.53754
8.55051
8.56313
8.57542
8.58735
8.59894
8.61018
8.6211
8.6317
8.64197
8.65194
8.6616
8.67095
8.68
8.68874
8.69716
8.70525
8.71299
8.72039
8.72741
8.73404
8.74028
8.74611
8.75151
8.75647
8.76099
8.76502
8.76856
8.77158
8.77406
8.77598
8.77731
8.77806
8.77823
8.77783
8.77689
8.77547
8.77364
8.77148
8.7691
8.76662
8.76418
8.76191
8.75992
8.75833
8.75722
8.75665
8.02246
8.02514
8.03041
8.03806
8.04784
8.05945
8.07258
8.08691
8.10218
8.11814
8.13457
8.1513
8.16818
8.18505
8.20183
8.21839
8.23467
8.25061
8.26615
8.28128
8.29598
8.31025
8.32411
8.33756
8.35061
8.36328
8.37557
8.38749
8.39905
8.41024
8.42107
8.43153
8.44162
8.45132
8.4606
8.46946
8.47788
8.48584
8.49332
8.50031
8.50679
8.51275
8.51817
8.52303
8.52729
8.53094
8.53393
8.53623
8.53784
8.53873
8.53891
8.53839
8.53721
8.53542
8.53311
8.5304
8.5274
8.52428
8.5212
8.51833
8.51582
8.51382
8.51241
8.51169
7.70838
7.71161
7.71794
7.72713
7.73883
7.75266
7.76825
7.7852
7.8032
7.82195
7.84122
7.86079
7.8805
7.90019
7.91973
7.93901
7.95793
7.97643
7.99445
8.01198
8.02899
8.0455
8.06152
8.07707
8.09216
8.1068
8.12102
8.1348
8.14817
8.16112
8.17366
8.18578
8.19747
8.20871
8.21948
8.22975
8.23952
8.24874
8.25742
8.26553
8.27305
8.27998
8.28628
8.29194
8.29691
8.30116
8.30466
8.30735
8.30923
8.31026
8.31044
8.30978
8.30833
8.30615
8.30333
8.30001
8.29634
8.29252
8.28875
8.28522
8.28214
8.27968
8.27796
8.27708
7.40647
7.41029
7.41777
7.42858
7.44229
7.45845
7.47656
7.49618
7.51693
7.53847
7.56055
7.58292
7.60542
7.62786
7.6501
7.67202
7.69351
7.71448
7.73488
7.7547
7.77392
7.79256
7.81064
7.82819
7.84522
7.86176
7.8778
7.89337
7.90847
7.9231
7.93728
7.95098
7.96421
7.97694
7.98914
8.00078
8.01184
8.02229
8.03211
8.0413
8.04983
8.05769
8.06485
8.07129
8.07696
8.08181
8.0858
8.08889
8.09102
8.09219
8.09236
8.09156
8.08982
8.08721
8.08385
8.07987
8.07547
8.07088
8.06634
8.0621
8.05839
8.05543
8.05336
8.0523
7.11607
7.12054
7.12925
7.1418
7.15765
7.17623
7.19696
7.21931
7.24283
7.26716
7.29201
7.31716
7.34238
7.36752
7.39241
7.4169
7.44087
7.46423
7.48693
7.50893
7.53026
7.55093
7.57097
7.59042
7.60931
7.62764
7.64544
7.6627
7.67945
7.6957
7.71144
7.72667
7.74138
7.75554
7.76912
7.78208
7.79439
7.80602
7.81695
7.82717
7.83667
7.84543
7.85343
7.86064
7.86699
7.87244
7.87693
7.8804
7.8828
7.88409
7.88426
7.8833
7.88126
7.8782
7.87424
7.86955
7.86436
7.85892
7.85353
7.8485
7.84411
7.84059
7.83815
7.8369
6.83657
6.84174
6.85179
6.86622
6.88436
6.90549
6.92893
6.95406
6.98038
7.0075
7.03511
7.06298
7.09089
7.11867
7.14614
7.17314
7.19953
7.2252
7.25009
7.27419
7.29752
7.32012
7.34202
7.36329
7.38393
7.40399
7.42345
7.44234
7.46066
7.47844
7.49568
7.51238
7.52852
7.54406
7.55898
7.57321
7.58672
7.59949
7.61148
7.6227
7.63314
7.64277
7.65159
7.65954
7.66657
7.67262
7.67761
7.68147
7.68414
7.68556
7.68572
7.6846
7.68223
7.67869
7.6741
7.66864
7.66258
7.65622
7.6499
7.644
7.63884
7.63473
7.63188
7.63041
6.56739
6.57333
6.58485
6.60132
6.62191
6.64574
6.672
6.69998
6.72912
6.75901
6.78935
6.81989
6.85045
6.88082
6.91083
6.94027
6.969
6.9969
7.02391
7.05001
7.07524
7.09966
7.12333
7.14631
7.16864
7.19033
7.21139
7.23182
7.25165
7.27089
7.28956
7.30767
7.32518
7.34207
7.35828
7.37374
7.38842
7.40228
7.41529
7.42747
7.4388
7.44928
7.45889
7.46758
7.47529
7.48193
7.48742
7.49168
7.49462
7.49619
7.49634
7.49506
7.49235
7.4883
7.48304
7.47675
7.46974
7.46236
7.45503
7.44816
7.44218
7.43742
7.43411
7.43242
6.30796
6.31476
6.32792
6.34661
6.36984
6.39654
6.42573
6.45662
6.4886
6.52124
6.55426
6.58744
6.62058
6.6535
6.68599
6.71783
6.74885
6.7789
6.80793
6.83592
6.86295
6.88909
6.91444
6.93905
6.96298
6.98623
7.00881
7.03071
7.05197
7.07261
7.09265
7.11211
7.13096
7.14915
7.16661
7.18327
7.19907
7.21398
7.22797
7.24106
7.25325
7.26455
7.27494
7.28436
7.29273
7.29997
7.30598
7.31064
7.31387
7.31559
7.31574
7.31429
7.31124
7.30666
7.30068
7.29351
7.28547
7.27698
7.26852
7.26061
7.25372
7.24824
7.24446
7.24253
6.05778
6.06554
6.0805
6.10165
6.12772
6.15745
6.1897
6.22356
6.25839
6.29376
6.32941
6.36516
6.40084
6.43626
6.47118
6.50537
6.53861
6.57075
6.60171
6.6315
6.66022
6.68798
6.7149
6.74107
6.76652
6.79127
6.8153
6.83861
6.86122
6.88318
6.90454
6.92529
6.94543
6.96489
6.98357
7.0014
7.01828
7.0342
7.04912
7.06309
7.0761
7.08819
7.09933
7.10947
7.11852
7.12636
7.13289
7.13797
7.14149
7.14337
7.14353
7.14192
7.13853
7.13341
7.12667
7.11855
7.10941
7.09971
7.09001
7.08094
7.07306
7.06683
7.06254
7.06035
5.81635
5.82519
5.84216
5.866
5.89516
5.92811
5.96354
6.00043
6.03809
6.07614
6.11436
6.15263
6.19079
6.22866
6.26598
6.30248
6.33789
6.37203
6.40484
6.43633
6.46663
6.4959
6.52431
6.55195
6.57886
6.60504
6.63045
6.6551
6.67899
6.70221
6.72482
6.74683
6.76822
6.78891
6.80879
6.82774
6.84568
6.86256
6.87838
6.89316
6.90697
6.91981
6.93169
6.94254
6.95226
6.96072
6.96778
6.97329
6.97713
6.97918
6.97936
6.9776
6.97387
6.96819
6.96067
6.95155
6.94121
6.93019
6.91914
6.9088
6.89985
6.8928
6.88798
6.88554
5.58319
5.59325
5.61246
5.63927
5.67179
5.70817
5.74689
5.78685
5.82733
5.86799
5.90871
5.94941
5.99
6.03027
6.06996
6.10874
6.14627
6.18236
6.21692
6.25
6.28177
6.31245
6.34225
6.37128
6.39959
6.42715
6.4539
6.47981
6.50492
6.52932
6.55312
6.57633
6.59893
6.62084
6.64189
6.66195
6.6809
6.69871
6.71536
6.73093
6.74548
6.75905
6.77165
6.78321
6.79361
6.8027
6.8103
6.81625
6.82041
6.82266
6.82288
6.82098
6.81692
6.81068
6.80235
6.79217
6.78055
6.7681
6.75557
6.74384
6.73373
6.72582
6.72045
6.71774
5.35785
5.36928
5.39101
5.42112
5.45728
5.49728
5.53942
5.58249
5.62575
5.66894
5.71205
5.75511
5.79806
5.8407
5.88274
5.92376
5.96337
6.00133
6.03756
6.07213
6.10525
6.13724
6.16834
6.1987
6.22834
6.25723
6.28526
6.31238
6.33862
6.36414
6.38906
6.41343
6.43722
6.46032
6.48253
6.50367
6.52361
6.5423
6.55974
6.57604
6.59128
6.60556
6.61886
6.63112
6.64221
6.65194
6.6601
6.66651
6.67101
6.67346
6.67374
6.67173
6.66735
6.66055
6.6514
6.6401
6.62712
6.61312
6.59897
6.58572
6.57436
6.56555
6.55962
6.55665
5.13989
5.15289
5.17744
5.2112
5.25131
5.29516
5.34083
5.38702
5.433
5.47861
5.524
5.56934
5.61459
5.65955
5.70392
5.74718
5.78883
5.82861
5.86642
5.90235
5.9367
5.96988
6.0022
6.03381
6.06474
6.09493
6.12421
6.15245
6.17976
6.20631
6.2323
6.25779
6.28273
6.30701
6.33037
6.35257
6.37346
6.39299
6.41118
6.42814
6.44404
6.45899
6.47299
6.48595
6.49773
6.50811
6.51685
6.52373
6.52859
6.53127
6.53163
6.52953
6.52485
6.51751
6.50751
6.49506
6.48062
6.46495
6.44904
6.43412
6.42141
6.41167
6.40519
6.40196
4.92889
4.94367
4.97139
5.0092
5.05362
5.10152
5.15082
5.20015
5.24875
5.29665
5.34419
5.39171
5.43919
5.48645
5.53315
5.57865
5.62229
5.66382
5.70313
5.7403
5.77576
5.81
5.84346
5.87627
5.90845
5.93991
5.9704
5.99972
6.02799
6.05549
6.0825
6.10906
6.13513
6.16059
6.1851
6.20834
6.23016
6.25049
6.26936
6.28693
6.30344
6.31903
6.3337
6.34736
6.35985
6.37091
6.38023
6.3876
6.39284
6.39576
6.39622
6.39406
6.38912
6.38125
6.37042
6.35676
6.34079
6.32332
6.30547
6.28871
6.27457
6.26389
6.25687
6.25342
4.72445
4.74126
4.77252
4.81484
4.86394
4.91609
4.96912
5.02158
5.07269
5.12271
5.17224
5.22185
5.27151
5.32101
5.37006
5.41781
5.46342
5.50665
5.54737
5.58566
5.62207
5.65726
5.69178
5.72574
5.75912
5.79184
5.82352
5.85385
5.883
5.91137
5.93933
5.96693
5.9941
6.02074
6.04641
6.07068
6.09339
6.11449
6.13397
6.1521
6.16915
6.18535
6.20068
6.21504
6.22827
6.24002
6.24995
6.25782
6.26345
6.26663
6.26721
6.26502
6.25985
6.2515
6.23983
6.22493
6.20734
6.18797
6.16798
6.14919
6.13353
6.12191
6.1144
6.11075
4.52617
4.54532
4.58053
4.62786
4.68206
4.73862
4.79545
4.85104
4.90452
4.95646
5.0078
5.05941
5.11119
5.16288
5.21432
5.26437
5.3119
5.35676
5.39882
5.43809
5.47531
5.51132
5.54683
5.58189
5.61643
5.65043
5.6833
5.71455
5.74448
5.77361
5.80248
5.83108
5.85933
5.88718
5.91403
5.93929
5.96288
5.9847
6.00474
6.02333
6.04087
6.05766
6.07365
6.0887
6.10268
6.11517
6.1257
6.13409
6.14012
6.14358
6.14431
6.14212
6.13677
6.12797
6.11549
6.09931
6.08003
6.05863
6.03632
6.01527
5.998
5.98547
5.97754
5.97372
4.33366
4.35552
4.39509
4.44802
4.50777
4.56888
4.62957
4.68828
4.74392
4.79757
4.85051
4.90405
4.95789
5.01171
5.0656
5.11802
5.1674
5.21385
5.25719
5.29729
5.33515
5.37183
5.40828
5.44441
5.48006
5.51537
5.54946
5.58155
5.61214
5.64193
5.67165
5.70123
5.73052
5.7596
5.78768
5.81391
5.83834
5.86086
5.88138
5.90037
5.91833
5.93569
5.95232
5.96805
5.98282
5.99607
6.00722
6.01613
6.02258
6.02632
6.02723
6.02508
6.0196
6.01041
5.99716
5.97967
5.95861
5.9351
5.91023
5.88664
5.86768
5.85431
5.84604
5.84212
4.14655
4.17157
4.21592
4.27511
4.34092
4.40661
4.47122
4.53306
4.59063
4.64572
4.70002
4.75544
4.81131
4.86714
4.92359
4.97849
5.02963
5.07762
5.1222
5.16295
5.20129
5.23848
5.27584
5.313
5.34971
5.38639
5.42174
5.45458
5.48569
5.51601
5.54657
5.5771
5.60737
5.63775
5.6671
5.69426
5.71951
5.74272
5.76362
5.78292
5.80122
5.81915
5.83642
5.85281
5.86841
5.88248
5.89423
5.90367
5.91056
5.91459
5.91569
5.91363
5.90807
5.89856
5.88459
5.86575
5.84284
5.81717
5.78949
5.763
5.74229
5.72818
5.71969
5.71573
3.96446
3.99322
4.04271
4.10891
4.18138
4.25158
4.32014
4.38516
4.44436
4.50062
4.55597
4.61328
4.67113
4.72881
4.78799
4.84553
4.89829
4.94778
4.9936
5.03479
5.07342
5.11093
5.14921
5.18741
5.22506
5.26322
5.29993
5.33337
5.36488
5.39557
5.42697
5.45843
5.48959
5.52136
5.55209
5.58008
5.60615
5.63003
5.65122
5.67074
5.68929
5.70779
5.72571
5.74271
5.75921
5.77415
5.78648
5.79645
5.8038
5.80813
5.80944
5.80749
5.80192
5.79217
5.77756
5.75734
5.7325
5.70465
5.67387
5.64404
5.62156
5.60687
5.5983
5.59438
3.78701
3.82028
3.87513
3.94927
4.02908
4.10352
4.17609
4.24441
4.30483
4.36196
4.418
4.47727
4.53711
4.59635
4.65851
4.71894
4.77306
4.82405
4.87116
4.91254
4.95128
4.98888
5.02814
5.06737
5.1058
5.1456
5.18383
5.21769
5.24945
5.28031
5.3126
5.34498
5.37689
5.41019
5.44241
5.47112
5.49799
5.52259
5.54393
5.56358
5.58227
5.60137
5.61995
5.63749
5.65496
5.67086
5.68372
5.69423
5.70207
5.70667
5.70821
5.70642
5.7009
5.69099
5.67587
5.65421
5.62733
5.5974
5.56321
5.52944
5.50521
5.49016
5.48169
5.47788
3.6138
3.65261
3.71285
3.796
3.88401
3.96213
4.03878
4.11065
4.17174
4.22949
4.28572
4.34715
4.40902
4.46939
4.53488
4.59856
4.65365
4.70614
4.75467
4.79591
4.8346
4.87199
4.91236
4.95266
4.99161
5.0333
5.07327
5.1073
5.13917
5.16994
5.20321
5.23655
5.26897
5.30399
5.33791
5.36713
5.3948
5.4202
5.44151
5.46121
5.47988
5.49967
5.51892
5.53687
5.55544
5.57241
5.5857
5.59676
5.60513
5.60997
5.61176
5.61017
5.60476
5.59479
5.57932
5.55614
5.52708
5.49529
5.45735
5.41885
5.39299
5.37787
5.36969
5.36609
3.44442
3.49021
3.55546
3.64897
3.74624
3.82707
3.90793
3.98378
4.0448
4.10296
4.15872
4.22267
4.28667
4.34747
4.41683
4.48427
4.53971
4.59376
4.64399
4.68463
4.72314
4.75993
4.80165
4.84311
4.88215
4.92607
4.96811
5.00194
5.03381
5.06416
5.09861
5.13295
5.16552
5.20254
5.23843
5.26783
5.29635
5.32268
5.34373
5.36341
5.38186
5.40246
5.42245
5.4406
5.46043
5.47862
5.49219
5.50382
5.51278
5.5178
5.51987
5.5185
5.51328
5.50334
5.48774
5.46294
5.43149
5.39825
5.35618
5.31188
5.28463
5.26982
5.26214
5.25884
3.2784
3.33319
3.40244
3.50803
3.61596
3.69792
3.78326
3.86377
3.92367
3.98217
4.03655
4.10364
4.16995
4.23014
4.30411
4.37604
4.43087
4.48664
4.539
4.5784
4.61672
4.65233
4.69581
4.73856
4.77705
4.8237
4.86829
4.90136
4.9332
4.96264
4.99859
5.03404
5.06621
5.10563
5.14388
5.17296
5.2024
5.22989
5.25035
5.27
5.28794
5.30957
5.33035
5.3484
5.36972
5.38935
5.40295
5.41518
5.42481
5.42992
5.43229
5.43118
5.42622
5.41639
5.40098
5.3744
5.34024
5.30623
5.25963
5.20808
5.17992
5.16587
5.15892
5.15599
3.1152
3.18187
3.25318
3.37307
3.49346
3.57413
3.66443
3.75067
3.80795
3.867
3.9187
3.98987
4.05883
4.11682
4.19649
4.27393
4.32672
4.38448
4.43965
4.47691
4.51516
4.5488
4.59466
4.63892
4.67589
4.72597
4.77376
4.80528
4.83719
4.86504
4.90299
4.93972
4.97065
5.01306
5.05421
5.0822
5.11272
5.14173
5.16112
5.18082
5.19783
5.2208
5.24251
5.25996
5.28312
5.30447
5.31772
5.33063
5.34106
5.34612
5.34884
5.34799
5.34335
5.3337
5.31892
5.29036
5.25297
5.21926
5.16771
5.10694
5.07866
5.0659
5.05989
5.05741
2.95422
3.03682
3.10686
3.24397
3.37927
3.45505
3.55109
3.64466
3.69715
3.75741
3.80456
3.88124
3.95339
4.00685
4.09374
4.1781
4.22676
4.28698
4.34597
4.37979
4.41839
4.44889
4.49805
4.54418
4.57818
4.63269
4.68456
4.71338
4.74567
4.77096
4.81165
4.84995
4.87843
4.92462
4.96943
4.99523
5.02707
5.05813
5.07577
5.09574
5.11122
5.13601
5.15882
5.17498
5.20044
5.2239
5.23624
5.24997
5.26138
5.26615
5.26929
5.26873
5.26449
5.25501
5.24147
5.21064
5.16926
5.13742
5.08049
5.00782
4.98067
4.9698
4.96493
4.96295
2.79469
2.89896
2.9624
3.12064
3.27409
3.33981
3.44288
3.54607
3.59068
3.6535
3.69342
3.77768
3.85382
3.89944
3.99566
4.08888
4.13039
4.19383
4.25809
4.28658
4.32641
4.3521
4.40587
4.45441
4.48336
4.54367
4.60083
4.62526
4.65863
4.67995
4.72448
4.76477
4.78904
4.84015
4.88965
4.91166
4.94522
4.97911
4.99399
5.01469
5.02777
5.05507
5.07924
5.09308
5.12152
5.14761
5.15823
5.17299
5.18562
5.18979
5.19349
5.19318
5.18943
5.18004
5.16858
5.13513
5.08855
5.06085
4.99816
4.90996
4.88588
4.8775
4.87393
4.8725
2.63569
2.76966
2.8184
3.00301
3.17893
3.2273
3.33939
3.45541
3.48774
3.55554
3.58439
3.67914
3.76049
3.79359
3.90205
4.00676
4.03687
4.1047
4.17626
4.19676
4.23931
4.2578
4.31804
4.36977
4.39075
4.45873
4.52278
4.54044
4.57614
4.59149
4.64138
4.68431
4.7019
4.75947
4.81505
4.83102
4.86694
4.90471
4.91544
4.93765
4.94709
4.97786
5.00378
5.01386
5.04619
5.07561
5.08339
5.09951
5.11371
5.1168
5.12124
5.12114
5.11801
5.10847
5.10024
5.06373
5.01022
4.9898
4.921
4.81242
4.79426
4.78895
4.78678
4.78592
2.47607
2.65084
2.67302
2.891
3.09515
3.11611
3.2402
3.37344
3.38729
3.46408
3.47641
3.58567
3.67397
3.68812
3.81274
3.93245
3.94531
4.01926
4.10089
4.10961
4.15739
4.16526
4.23454
4.29058
4.29953
4.37773
4.45077
4.45831
4.49841
4.50494
4.5623
4.6088
4.61631
4.68243
4.74596
4.75278
4.79197
4.83509
4.83966
4.8647
4.86874
4.9043
4.93252
4.93684
4.97433
5.00799
5.01134
5.02935
5.04557
5.04692
5.05241
5.05243
5.05007
5.03996
5.03649
4.99641
4.93343
4.92459
4.84947
4.71403
4.70592
4.70409
4.70336
4.70308
)
;

boundaryField
{
    left
    {
        type            zeroGradient;
    }
    right
    {
        type            zeroGradient;
    }
    interface
    {
        type            fixedValue;
        value           nonuniform List<scalar> 
64
(
2.39342
2.59678
2.59678
2.83662
3.05903
3.05903
3.19148
3.33653
3.33653
3.42107
3.42107
3.54053
3.63364
3.63364
3.76922
3.89895
3.89895
3.9773
4.06599
4.06599
4.11841
4.11841
4.19408
4.25312
4.25312
4.33828
4.41731
4.41731
4.46131
4.46131
4.52395
4.57294
4.57294
4.64486
4.7137
4.7137
4.75523
4.8021
4.8021
4.82962
4.82962
4.86857
4.89835
4.89835
4.93933
4.97577
4.97577
4.99514
5.01269
5.01269
5.01895
5.01895
5.01711
5.00634
5.00634
4.96416
4.89453
4.89453
4.81616
4.66264
4.66264
4.66264
4.66264
4.66264
)
;
    }
    bottom
    {
        type            fixedValue;
        value           uniform 10;
    }
    defaultFaces
    {
        type            empty;
    }
}


// ************************************************************************* //
