/*--------------------------------*- C++ -*----------------------------------*\
| =========                 |                                                 |
| \\      /  F ield         | OpenFOAM: The Open Source CFD Toolbox           |
|  \\    /   O peration     | Version:  5.x                                   |
|   \\  /    A nd           | Web:      www.OpenFOAM.org                      |
|    \\/     M anipulation  |                                                 |
\*---------------------------------------------------------------------------*/
FoamFile
{
    version     2.0;
    format      ascii;
    class       volScalarField;
    location    "2.8";
    object      gradTx;
}
// * * * * * * * * * * * * * * * * * * * * * * * * * * * * * * * * * * * * * //

dimensions      [0 -1 0 1 0 0 0];

internalField   nonuniform List<scalar> 
6300
(
212.082
213.06
214.994
217.839
221.522
225.942
230.961
236.405
242.056
247.659
252.925
257.544
261.204
263.614
264.532
211.101
212.101
214.081
216.997
220.783
225.339
230.534
236.194
242.101
247.993
253.569
258.501
262.451
265.103
266.193
209.118
210.16
212.227
215.283
219.269
224.096
229.64
235.733
242.158
248.641
254.856
260.436
264.993
268.153
269.6
206.089
207.19
209.382
212.637
216.911
222.132
228.193
234.938
242.154
249.553
256.775
263.392
268.929
272.914
274.938
201.955
203.128
205.47
208.97
213.603
219.326
226.058
233.671
241.963
250.639
259.298
267.424
274.414
279.634
282.518
196.646
197.895
200.398
204.166
209.204
215.507
223.041
231.722
241.383
251.74
262.35
272.59
281.666
288.688
292.822
190.085
191.403
194.059
198.088
203.536
210.453
218.874
228.789
240.105
252.585
265.77
278.918
290.969
300.627
306.591
182.202
183.572
186.344
190.587
196.397
203.894
213.209
224.452
237.662
252.72
269.225
286.339
302.663
316.257
324.981
172.948
174.334
177.157
181.517
187.566
195.513
205.612
218.145
233.367
251.405
272.067
294.547
317.084
336.754
349.853
162.304
163.658
166.431
170.753
176.836
184.978
195.58
209.144
226.252
247.464
273.086
302.694
334.367
363.817
384.359
150.302
151.561
154.151
158.227
164.044
171.981
182.581
196.598
215.031
239.11
270.114
308.771
353.867
399.784
434.22
137.04
138.129
140.382
143.959
149.13
156.317
166.163
179.632
198.159
223.829
259.483
308.404
372.542
447.225
510.852
122.687
123.532
125.286
128.093
132.196
137.993
146.119
157.605
174.141
198.557
235.583
292.813
380.664
505.714
640.069
107.486
108.022
109.137
110.928
113.566
117.336
122.714
130.523
142.241
160.673
191.472
246.596
351.581
554.89
890.593
91.7483
91.9307
92.3093
92.9147
93.8023
95.0674
96.8762
99.5313
103.622
110.417
123.034
150.512
224.169
471.663
1484.82
263.982
262.15
259.1
254.868
249.525
243.169
235.912
227.874
219.175
209.929
200.238
190.193
179.875
169.353
158.687
147.929
137.126
126.322
115.555
104.86
94.2706
83.8158
73.5217
63.4107
53.5015
43.8094
34.346
25.1195
16.135
7.39485
-1.10115
-9.35526
-17.3713
-25.1544
-32.71
-40.044
-47.1618
-54.0684
-60.7682
-67.265
-73.5621
-79.6628
-85.5711
-91.2916
-96.8303
-102.194
-107.392
-112.433
-117.327
-122.084
-126.713
-131.219
-135.609
-139.884
-144.045
-148.09
-152.016
-155.817
-159.491
-163.034
-166.441
-169.711
-172.84
-175.825
-178.659
-181.333
-183.834
-186.143
-188.238
-190.088
-191.662
-192.924
-193.835
-194.359
-194.46
-194.106
-193.272
-191.935
-190.083
-187.71
-184.817
-181.415
-177.525
-173.175
-168.404
-163.263
-157.812
-152.121
-146.265
-140.325
265.727
263.902
260.8
256.466
250.984
244.465
237.035
228.825
219.964
210.569
200.747
190.588
180.171
169.562
158.82
147.994
137.13
126.27
115.451
104.709
94.0777
83.5855
73.259
63.1207
53.1896
43.4806
34.0051
24.7712
15.7833
7.04331
-1.44954
-9.69817
-17.7071
-25.4822
-33.0295
-40.3556
-47.4663
-54.3667
-61.0612
-67.5531
-73.8453
-79.9405
-85.842
-91.5541
-97.0823
-102.434
-107.618
-112.645
-117.525
-122.27
-126.888
-131.388
-135.774
-140.049
-144.213
-148.262
-152.193
-156.001
-159.68
-163.227
-166.639
-169.913
-173.048
-176.041
-178.888
-181.581
-184.109
-186.452
-188.588
-190.486
-192.112
-193.427
-194.392
-194.967
-195.113
-194.798
-193.993
-192.676
-190.832
-188.456
-185.548
-182.118
-178.186
-173.778
-168.936
-163.708
-158.158
-152.356
-146.384
-140.326
269.307
267.491
264.272
259.717
253.937
247.073
239.281
230.716
221.521
211.827
201.741
191.355
180.743
169.965
159.074
148.116
137.131
126.159
115.238
104.402
93.6851
83.1175
72.7259
62.5332
52.5583
42.8159
33.317
24.0687
15.0747
6.33592
-2.14969
-10.3864
-18.3801
-26.1381
-33.6682
-40.9779
-48.074
-54.9621
-61.6463
-68.1293
-74.4126
-80.4977
-86.3864
-92.0817
-97.5889
-102.915
-108.071
-113.068
-117.92
-122.638
-127.235
-131.72
-136.099
-140.375
-144.545
-148.605
-152.549
-156.37
-160.06
-163.616
-167.035
-170.315
-173.459
-176.467
-179.338
-182.069
-184.648
-187.059
-189.279
-191.274
-193.007
-194.434
-195.51
-196.19
-196.43
-196.194
-195.45
-194.173
-192.348
-189.967
-187.03
-183.544
-179.528
-175.007
-170.02
-164.618
-158.864
-152.836
-146.624
-140.323
274.917
273.098
269.667
264.73
258.449
251.018
242.641
233.511
223.799
213.648
203.169
192.449
181.553
170.532
159.427
148.276
137.114
125.977
114.902
103.924
93.0788
82.3971
71.9073
61.6329
51.5928
41.8013
32.2683
23
13.9989
5.26397
-3.2084
-11.4245
-19.3927
-27.1227
-34.6245
-41.9081
-48.9816
-55.8516
-62.5217
-68.9934
-75.2661
-81.3384
-87.2096
-92.8808
-98.3561
-103.643
-108.754
-113.702
-118.505
-123.181
-127.743
-132.205
-136.574
-140.852
-145.035
-149.115
-153.082
-156.925
-160.634
-164.202
-167.628
-170.914
-174.066
-177.09
-179.991
-182.772
-185.428
-187.942
-190.291
-192.439
-194.341
-195.945
-197.198
-198.044
-198.433
-198.321
-197.671
-196.458
-194.663
-192.277
-189.299
-185.734
-181.595
-176.906
-171.702
-166.031
-159.962
-153.581
-146.99
-140.304
282.882
281.023
277.231
271.679
264.616
256.324
247.084
237.144
226.711
215.941
204.945
193.798
182.546
171.221
159.849
148.453
137.062
125.708
114.427
103.258
92.2376
81.4015
70.7794
60.3959
50.2699
40.4147
30.8389
21.547
12.5397
3.81397
-4.6362
-12.8199
-20.7487
-28.436
-35.8957
-43.141
-50.183
-57.0294
-63.6836
-70.1447
-76.4085
-82.4693
-88.3215
-93.9627
-99.3948
-104.626
-109.669
-114.545
-119.276
-123.886
-128.396
-132.824
-137.18
-141.465
-145.673
-149.789
-153.795
-157.674
-161.409
-164.993
-168.423
-171.707
-174.856
-177.887
-180.817
-183.657
-186.409
-189.063
-191.593
-193.958
-196.102
-197.963
-199.47
-200.555
-201.156
-201.219
-200.704
-199.579
-197.828
-195.439
-192.411
-188.747
-184.453
-179.547
-174.053
-168.018
-161.509
-154.626
-147.493
-140.252
293.712
291.729
287.328
280.803
272.551
262.997
252.533
241.489
230.109
218.561
206.941
195.297
183.643
171.98
160.305
148.625
136.958
125.334
113.792
102.377
91.1325
80.0986
69.3088
58.789
48.5575
38.6261
29.0011
19.6846
10.675
1.96716
-6.44781
-14.5825
-22.4529
-30.0775
-37.476
-44.6672
-51.6666
-58.4845
-65.1239
-71.5806
-77.8441
-83.901
-89.738
-95.3461
-100.724
-105.878
-110.828
-115.598
-120.222
-124.735
-129.168
-133.548
-137.888
-142.191
-146.443
-150.619
-154.691
-158.628
-162.404
-166.005
-169.43
-172.692
-175.815
-178.83
-181.772
-184.667
-187.531
-190.361
-193.131
-195.792
-198.272
-200.488
-202.348
-203.762
-204.652
-204.951
-204.611
-203.602
-201.908
-199.521
-196.439
-192.664
-188.194
-183.03
-177.183
-170.683
-163.595
-156.031
-148.148
-140.137
308.197
305.916
300.481
292.413
282.363
270.979
258.821
246.316
233.751
221.284
208.973
196.811
184.756
172.757
160.771
148.78
136.794
124.843
112.977
101.252
89.7252
78.445
67.4502
56.7676
46.4136
36.3966
26.7192
17.3803
8.37585
-0.301463
-8.6632
-16.7259
-24.5112
-32.045
-39.3553
-46.4699
-53.4121
-60.1971
-66.828
-73.2951
-79.5779
-85.6498
-91.4846
-97.0622
-102.374
-107.427
-112.244
-116.862
-121.329
-125.698
-130.017
-134.328
-138.652
-142.99
-147.32
-151.602
-155.783
-159.812
-163.65
-167.27
-170.672
-173.877
-176.928
-179.88
-182.793
-185.721
-188.702
-191.745
-194.827
-197.884
-200.822
-203.524
-205.865
-207.725
-208.997
-209.601
-209.482
-208.612
-206.984
-204.6
-201.465
-197.58
-192.932
-187.497
-181.252
-174.193
-166.366
-157.894
-148.986
-139.913
327.571
324.642
317.424
306.876
294.093
280.075
265.609
251.233
237.253
223.782
210.792
198.174
185.792
173.514
161.244
148.932
136.58
124.231
111.958
99.8436
87.9635
76.3815
65.1426
54.2733
43.785
33.6784
23.95
14.5944
5.60558
-3.02469
-11.3095
-19.2691
-26.9322
-34.3346
-41.517
-48.5214
-55.3847
-62.1321
-68.7686
-75.2758
-81.6159
-87.7407
-93.6022
-99.1615
-104.398
-109.316
-113.946
-118.343
-122.579
-126.732
-130.881
-135.088
-139.394
-143.801
-148.269
-152.728
-157.092
-161.275
-165.207
-168.849
-172.196
-175.284
-178.183
-180.985
-183.792
-186.699
-189.782
-193.074
-196.557
-200.147
-203.71
-207.079
-210.076
-212.532
-214.304
-215.289
-215.431
-214.712
-213.146
-210.758
-207.571
-203.593
-198.801
-193.13
-186.492
-178.806
-170.064
-160.386
-150.058
-139.501
353.848
349.54
339.16
324.555
307.601
289.817
272.265
255.579
240.026
225.591
212.076
199.201
186.679
174.264
161.781
149.145
136.362
123.512
110.715
98.0987
85.7741
73.825
62.3034
51.2312
40.6067
30.416
20.644
11.2802
2.31876
-6.24577
-14.4244
-22.24
-29.7292
-36.9416
-43.9359
-50.7765
-57.5251
-64.2276
-70.8961
-77.4977
-83.9645
-90.2118
-96.1554
-101.726
-106.882
-111.621
-115.985
-120.057
-123.947
-127.774
-131.659
-135.708
-139.993
-144.523
-149.23
-153.992
-158.662
-163.097
-167.184
-170.853
-174.093
-176.963
-179.576
-182.082
-184.645
-187.425
-190.558
-194.128
-198.13
-202.448
-206.877
-211.169
-215.064
-218.321
-220.742
-222.192
-222.617
-222.032
-220.491
-218.065
-214.815
-210.778
-205.931
-200.156
-193.238
-184.938
-175.108
-163.812
-151.458
-138.76
390.48
383.176
366.977
345.618
322.301
299.221
277.676
258.293
241.192
226.079
212.442
199.724
187.417
175.115
162.542
149.573
136.244
122.719
109.214
95.9358
83.0456
70.6543
58.818
47.5451
36.8042
26.5506
16.7502
7.38643
-1.54007
-10.0231
-18.0628
-25.6815
-32.9259
-39.8633
-46.5771
-53.165
-59.7328
-66.373
-73.1209
-79.9147
-86.6303
-93.121
-99.2467
-104.888
-109.968
-114.466
-118.445
-122.036
-125.405
-128.732
-132.201
-135.989
-140.239
-144.988
-150.113
-155.39
-160.569
-165.422
-169.762
-173.472
-176.525
-179.012
-181.123
-183.096
-185.185
-187.641
-190.704
-194.559
-199.249
-204.587
-210.241
-215.829
-220.969
-225.314
-228.576
-230.57
-231.257
-230.724
-229.109
-226.555
-223.192
-219.128
-214.395
-208.827
-201.97
-193.273
-182.264
-168.757
-153.353
-137.402
443.844
429.615
402.223
369.501
336.66
306.416
279.974
257.722
239.497
224.442
211.49
199.658
188.15
176.36
163.877
150.523
136.409
121.901
107.391
93.2153
79.6004
66.6857
54.5223
43.0936
32.3003
22.0328
12.2273
2.86257
-6.03812
-14.4393
-22.3085
-29.6627
-36.5653
-43.1082
-49.4005
-55.5834
-61.8371
-68.3642
-75.2806
-82.4453
-89.6207
-96.5569
-103.036
-108.862
-113.891
-118.061
-121.465
-124.333
-126.924
-129.488
-132.284
-135.607
-139.765
-144.914
-150.778
-156.928
-162.946
-168.483
-173.248
-177.038
-179.773
-181.601
-182.866
-183.945
-185.197
-186.983
-189.707
-193.788
-199.434
-206.268
-213.701
-221.131
-228.02
-233.864
-238.233
-240.829
-241.653
-240.972
-239.078
-236.208
-232.577
-228.439
-224.057
-219.354
-213.351
-204.937
-193.013
-176.433
-156.036
-134.786
526.885
495.003
445.139
393.555
347.282
308.142
276.24
251.354
233.243
219.779
208.931
199.13
189.293
178.606
166.472
152.571
137.144
121.09
105.085
89.6892
75.1481
61.6356
49.169
37.7272
27.0392
16.8496
7.06904
-2.33005
-11.2563
-19.6223
-27.2965
-34.2949
-40.7239
-46.7146
-52.3823
-57.9009
-63.5484
-69.7959
-77.0836
-84.9614
-92.9564
-100.652
-107.766
-113.983
-119.052
-122.759
-125.256
-127.031
-128.482
-129.911
-131.609
-134.021
-137.865
-143.812
-151.028
-158.658
-166.016
-172.656
-178.14
-182.121
-184.327
-185
-184.878
-184.543
-184.44
-184.973
-186.756
-190.762
-197.906
-207.085
-217.164
-227.21
-236.573
-244.536
-250.444
-253.636
-254.216
-252.965
-250.449
-246.956
-242.691
-238.097
-234.18
-231.752
-228.201
-221.652
-210.465
-189.605
-159.945
-129.311
669.07
586.284
490.525
409.951
347.631
299.442
262.407
235.233
220.299
211.357
204.869
198.66
191.667
182.941
171.618
156.821
138.786
120.213
101.907
84.9352
69.2166
55.0813
42.3407
31.2755
21.0607
11.0768
1.36088
-8.20452
-17.2821
-25.8029
-33.259
-39.7486
-45.5151
-50.7875
-55.5802
-60.0342
-64.397
-69.7309
-78.0382
-87.3099
-96.724
-105.589
-113.787
-120.757
-126.177
-129.203
-130.087
-130.196
-130.071
-129.949
-129.905
-130.374
-132.936
-140.884
-150.683
-160.778
-170.12
-178.495
-185.196
-189.759
-191.087
-189.545
-187.195
-184.807
-182.765
-181.161
-180.604
-183.218
-193.447
-206.606
-220.675
-234.269
-247.139
-258.168
-266.564
-270.201
-269.412
-266.779
-263.224
-258.813
-253.278
-246.78
-242.155
-245.767
-247.363
-245.046
-241.844
-215.446
-165.254
-116.636
946.099
696.241
514.047
400.061
327.633
274.683
234.379
201.49
198.732
199.408
200.412
199.325
196.544
191.022
181.773
165.74
141.208
118.953
96.8094
78.3781
61.0062
46.519
33.1003
23.5994
14.7491
4.91742
-4.56496
-14.7826
-24.1109
-33.518
-40.6148
-46.2448
-51.0191
-55.5522
-59.2671
-62.2997
-63.8485
-65.3853
-77.6052
-89.4542
-101.284
-111.486
-121.577
-129.765
-136.751
-138.73
-136.033
-133.7
-131.658
-129.873
-127.463
-123.715
-120.252
-135.29
-149.914
-163.981
-175.617
-186.743
-195.33
-202.058
-201.979
-195.252
-189.567
-184.574
-180.459
-175.84
-169.885
-164.706
-184.767
-204.816
-224.868
-242.371
-260.355
-275.591
-289.533
-293.14
-287.261
-281.917
-277.231
-272.285
-265.248
-252.762
-238.267
-262.685
-272.155
-269.714
-306.621
-275.548
-168.297
-84.4914
1573.28
708.75
439.344
330.329
279.59
231.718
195.676
124.365
172.227
186.996
198.973
202.441
205.376
204.477
201.707
186.903
140.356
117.539
86.3689
70.2978
48.6431
36.4189
18.2183
14.9862
9.84976
-1.746
-9.43341
-22.6431
-30.8279
-44.5618
-50.0849
-53.9752
-56.8724
-61.4968
-63.9383
-66.7034
-63.3186
-45.6569
-77.7078
-91.6277
-108.188
-117.546
-132.11
-140.505
-154.536
-154.994
-141.456
-136.787
-132.877
-130.698
-126.948
-116.645
-80.9258
-130.294
-149.948
-170.682
-181.852
-198.646
-208.142
-224.161
-222.442
-199.461
-190.94
-183.078
-178.877
-172.444
-158.05
-109.845
-176.105
-203.018
-232.731
-249.779
-277.526
-294.874
-327.382
-329.736
-304.337
-296.107
-291.611
-288.763
-285.064
-261.636
-178.34
-301.123
-314.098
-237.719
-469.286
-445.341
-137.578
0.437885
-133.795
-126.79
-120.033
-113.631
-107.669
-102.207
-97.2871
-92.93
-89.1445
-85.9286
-83.2744
-81.1706
-79.6053
-78.5683
-78.0517
-133.67
-126.54
-119.677
-113.191
-107.167
-101.666
-96.7229
-92.3576
-88.574
-85.3663
-82.7233
-80.6313
-79.0764
-78.047
-77.5345
-133.409
-126.022
-118.942
-112.287
-106.143
-100.564
-95.5804
-91.2029
-87.4267
-84.2385
-81.6206
-79.5541
-78.0214
-77.0082
-76.5042
-132.983
-125.195
-117.782
-110.873
-104.551
-98.8649
-93.8314
-89.446
-85.6906
-82.5397
-79.9658
-77.9424
-76.4463
-75.4595
-74.9692
-132.347
-123.992
-116.119
-108.869
-102.323
-96.5128
-91.4335
-87.0585
-83.3491
-80.2632
-77.7598
-75.8025
-74.3614
-73.4135
-72.9434
-131.427
-122.305
-113.831
-106.16
-99.3589
-93.4287
-88.3306
-84.0044
-80.3835
-77.4035
-75.0069
-73.146
-71.7826
-70.889
-70.4467
-130.106
-119.969
-110.741
-102.581
-95.5225
-89.5117
-84.4549
-80.2444
-76.7764
-73.9595
-71.7178
-69.9911
-68.7336
-67.9126
-67.5072
-128.19
-116.721
-106.58
-97.9015
-90.6371
-84.64
-79.7322
-75.7412
-72.5175
-69.9398
-67.9132
-66.3664
-65.2473
-64.52
-64.1618
-125.348
-112.146
-100.955
-91.8068
-84.4834
-78.6785
-74.0921
-70.4699
-67.6121
-65.3682
-63.6282
-62.3134
-61.3688
-60.7577
-60.4575
-120.981
-105.559
-93.2853
-83.8867
-76.8106
-71.4977
-67.487
-64.4337
-62.0921
-60.2921
-58.9174
-57.8895
-57.1563
-56.684
-56.4525
-113.941
-95.8225
-82.7399
-73.6431
-67.3738
-63.0139
-59.9241
-57.6852
-56.0301
-54.7902
-53.8593
-53.1706
-52.6824
-52.3689
-52.2155
-101.899
-81.05
-68.2083
-60.5714
-56.0271
-53.2595
-51.5096
-50.3524
-49.5524
-48.9787
-48.5584
-48.2508
-48.0332
-47.8933
-47.8247
-79.9415
-58.2694
-48.4709
-44.4064
-42.9031
-42.4871
-42.5018
-42.6621
-42.848
-43.0135
-43.1444
-43.2404
-43.3059
-43.346
-43.3649
-37.5394
-23.6148
-22.9993
-25.6797
-28.6914
-31.2834
-33.3482
-34.9456
-36.1637
-37.0823
-37.765
-38.2603
-38.6035
-38.8195
-38.9237
47.5198
24.3489
5.7687
-6.62147
-14.8992
-20.6066
-24.6618
-27.6081
-29.7787
-31.3867
-32.5727
-33.4318
-34.0282
-34.4044
-34.5863
77.1525
76.9987
76.6742
76.142
75.3377
74.1544
72.4136
69.8035
65.7407
59.0097
46.6714
20.1007
-51.9844
-306.494
-1431.72
63.9892
63.5414
62.6033
61.0818
58.8137
55.5287
50.7771
43.7856
33.1541
16.1682
-12.8659
-66.848
-176.352
-409.246
-844.132
51.1356
50.4234
48.9366
46.5389
42.9948
37.9205
30.695
20.2943
4.97885
-18.3078
-55.0789
-115.239
-215.029
-371.724
-558.54
38.7755
37.8424
35.9014
32.7912
28.2376
21.8054
12.817
0.214931
-17.6618
-43.4207
-81.0511
-136.109
-214.186
-313.281
-402.676
27.0624
25.9603
23.6772
20.0451
14.7841
7.46472
-2.55227
-16.2023
-34.829
-60.2889
-94.9206
-140.995
-198.746
-261.569
-308.891
16.1138
14.8975
12.3891
8.4293
2.75947
-5.00323
-15.3994
-29.1645
-47.2516
-70.7875
-100.843
-137.772
-179.782
-220.621
-247.965
6.00896
4.73117
2.10815
-1.99957
-7.81228
-15.6428
-25.9074
-39.126
-55.891
-76.7592
-101.989
-131.02
-161.632
-189.042
-206.026
-3.20922
-4.50166
-7.1424
-11.245
-16.9832
-24.5924
-34.3642
-46.6251
-61.6817
-79.7019
-100.496
-123.17
-145.705
-164.703
-175.88
-11.5305
-12.7988
-15.3784
-19.355
-24.8552
-32.0404
-41.0924
-52.183
-65.4147
-80.7185
-97.6961
-115.416
-132.233
-145.794
-153.494
-18.9716
-20.1858
-22.6447
-26.4075
-31.5575
-38.1921
-46.405
-56.254
-67.7088
-80.5729
-94.3806
-108.289
-121.021
-130.954
-136.455
-25.57
-26.7089
-29.006
-32.4972
-37.2291
-43.2481
-50.5816
-59.2099
-69.0242
-79.772
-90.9949
-101.979
-111.753
-119.19
-123.236
-31.378
-32.4281
-34.5384
-37.7256
-42.0073
-47.3914
-53.8591
-61.3421
-69.6913
-78.6411
-87.7749
-96.5076
-104.107
-109.781
-112.827
-36.457
-37.4116
-39.3232
-42.1941
-46.0203
-50.7823
-56.4317
-62.8727
-69.9413
-77.3823
-84.8333
-91.823
-97.7993
-102.195
-104.532
-40.8734
-41.7307
-43.4422
-45.9995
-49.3836
-53.5573
-58.4546
-63.9676
-69.9325
-76.1165
-82.2118
-87.842
-92.5884
-96.0396
-97.8604
-44.6947
-45.4568
-46.9741
-49.231
-52.1987
-55.8298
-60.0499
-64.7487
-69.7715
-74.9122
-79.9132
-84.4746
-88.2765
-91.0159
-92.4525
-47.987
-48.6586
-49.9926
-51.9689
-54.5534
-57.6935
-61.3128
-65.305
-69.5285
-73.8048
-77.9198
-81.6344
-84.7021
-86.8966
-88.042
-50.8131
-51.4007
-52.5653
-54.2846
-56.5222
-59.2245
-62.317
-65.7005
-69.249
-72.8092
-76.2044
-79.2431
-81.7341
-83.5056
-84.4268
-53.2312
-53.7422
-54.7529
-56.2405
-58.1685
-60.4847
-63.119
-65.9814
-68.9613
-71.9282
-74.7364
-77.2321
-79.2656
-80.7049
-81.451
-55.2947
-55.7367
-56.6095
-57.8908
-59.5453
-61.524
-63.7626
-66.1808
-68.6825
-71.1574
-73.4852
-75.5421
-77.2096
-78.3853
-78.9934
-57.0514
-57.432
-58.1826
-59.2819
-60.697
-62.3828
-64.2815
-66.3223
-68.4224
-70.4888
-72.4222
-74.1224
-75.4951
-76.4598
-76.9578
-58.544
-58.8705
-59.5137
-60.4538
-61.6608
-63.0939
-64.7017
-66.4226
-68.1856
-69.9124
-71.5211
-72.93
-74.0637
-74.8584
-75.2679
-59.8098
-60.0891
-60.6386
-61.4405
-62.4676
-63.6836
-65.0435
-66.4937
-67.9738
-69.418
-70.7585
-71.9287
-72.8676
-73.5244
-73.8624
-60.8818
-61.12
-61.5884
-62.2708
-63.1431
-64.1735
-65.3225
-66.5441
-67.7869
-68.9957
-70.1143
-71.088
-71.8675
-72.4117
-72.6915
-61.7885
-61.9912
-62.3896
-62.9693
-63.709
-64.581
-65.5511
-66.5799
-67.6236
-68.6361
-69.5705
-70.3822
-71.0306
-71.4827
-71.7148
-62.5544
-62.7266
-63.0649
-63.5566
-64.1832
-64.9204
-65.739
-66.6052
-67.482
-68.3306
-69.1121
-69.7896
-70.33
-70.7063
-70.8994
-63.2007
-63.3468
-63.6337
-64.0502
-64.5804
-65.2034
-65.8938
-66.6231
-67.3599
-68.0716
-68.7259
-69.2922
-69.7432
-70.057
-70.2179
-63.7455
-63.8694
-64.1124
-64.465
-64.9134
-65.4395
-66.0218
-66.6358
-67.2552
-67.8526
-68.4009
-68.8748
-69.2518
-69.5139
-69.6482
-64.2043
-64.3092
-64.515
-64.8133
-65.1923
-65.6365
-66.1276
-66.6448
-67.1658
-67.6675
-68.1275
-68.5246
-68.8402
-69.0595
-69.1718
-64.5903
-64.6791
-64.8532
-65.1056
-65.426
-65.8011
-66.2154
-66.6512
-67.0897
-67.5115
-67.8978
-68.231
-68.4956
-68.6793
-68.7733
-64.9146
-64.9898
-65.1372
-65.3507
-65.6216
-65.9385
-66.2882
-66.6557
-67.0251
-67.3801
-67.705
-67.9849
-68.2071
-68.3612
-68.4402
-65.1867
-65.2505
-65.3753
-65.556
-65.7852
-66.0532
-66.3486
-66.6589
-66.9705
-67.2698
-67.5434
-67.779
-67.9658
-68.0955
-68.1618
-65.4146
-65.4687
-65.5745
-65.7277
-65.9218
-66.1488
-66.3988
-66.6612
-66.9245
-67.1772
-67.4081
-67.6068
-67.7644
-67.8736
-67.9295
-65.605
-65.6509
-65.7408
-65.8709
-66.0358
-66.2283
-66.4404
-66.6628
-66.8858
-67.0998
-67.2952
-67.4632
-67.5964
-67.6887
-67.736
-65.7635
-65.8026
-65.8792
-65.9901
-66.1304
-66.2943
-66.4748
-66.6639
-66.8535
-67.0353
-67.2012
-67.3438
-67.4569
-67.5352
-67.5752
-65.8948
-65.9283
-65.9939
-66.0887
-66.2088
-66.3489
-66.5031
-66.6647
-66.8266
-66.9818
-67.1234
-67.245
-67.3414
-67.4082
-67.4423
-66.0029
-66.0318
-66.0882
-66.1698
-66.2731
-66.3937
-66.5264
-66.6653
-66.8044
-66.9377
-67.0593
-67.1638
-67.2465
-67.3038
-67.3331
-66.091
-66.116
-66.165
-66.2359
-66.3256
-66.4302
-66.5452
-66.6657
-66.7863
-66.9018
-67.0072
-67.0977
-67.1693
-67.2189
-67.2443
-66.1617
-66.1837
-66.2267
-66.2889
-66.3676
-66.4594
-66.5603
-66.666
-66.7717
-66.873
-66.9653
-67.0446
-67.1074
-67.1508
-67.173
-66.2171
-66.2367
-66.275
-66.3304
-66.4005
-66.4823
-66.5721
-66.6662
-66.7603
-66.8504
-66.9325
-67.003
-67.0588
-67.0975
-67.1172
-66.259
-66.2767
-66.3115
-66.3618
-66.4254
-66.4995
-66.581
-66.6663
-66.7516
-66.8333
-66.9077
-66.9716
-67.0222
-67.0572
-67.0751
-66.2885
-66.305
-66.3372
-66.3839
-66.4429
-66.5117
-66.5873
-66.6664
-66.7455
-66.8213
-66.8903
-66.9495
-66.9964
-67.0288
-67.0454
-66.3065
-66.3222
-66.353
-66.3974
-66.4536
-66.5191
-66.5911
-66.6664
-66.7418
-66.8139
-66.8796
-66.936
-66.9806
-67.0115
-67.0273
-66.3137
-66.3291
-66.3592
-66.4028
-66.4579
-66.5221
-66.5926
-66.6665
-66.7403
-66.811
-66.8754
-66.9306
-66.9743
-67.0046
-67.0201
-66.3101
-66.3257
-66.3561
-66.4001
-66.4558
-66.5206
-66.5919
-66.6665
-66.7411
-66.8124
-66.8774
-66.9333
-66.9774
-67.008
-67.0236
-66.2958
-66.312
-66.3436
-66.3894
-66.4473
-66.5147
-66.5889
-66.6664
-66.744
-66.8183
-66.8859
-66.944
-66.9899
-67.0217
-67.038
-66.2702
-66.2875
-66.3213
-66.3703
-66.4321
-66.5042
-66.5835
-66.6664
-66.7493
-66.8287
-66.901
-66.9631
-67.0123
-67.0463
-67.0637
-66.2327
-66.2516
-66.2886
-66.3421
-66.4098
-66.4888
-66.5755
-66.6663
-66.7571
-66.8441
-66.9233
-66.9913
-67.0451
-67.0824
-67.1014
-66.182
-66.2031
-66.2444
-66.3042
-66.3797
-66.4679
-66.5648
-66.6662
-66.7676
-66.8648
-66.9533
-67.0293
-67.0894
-67.1311
-67.1524
-66.1166
-66.1405
-66.1874
-66.2552
-66.3409
-66.4409
-66.5509
-66.666
-66.7812
-66.8914
-66.992
-67.0783
-67.1466
-67.1939
-67.2181
-66.0346
-66.0621
-66.1159
-66.1938
-66.2922
-66.4071
-66.5334
-66.6657
-66.7981
-66.9249
-67.0405
-67.1398
-67.2184
-67.2728
-67.3006
-65.9335
-65.9654
-66.0278
-66.118
-66.2322
-66.3654
-66.5119
-66.6653
-66.819
-66.9661
-67.1003
-67.2156
-67.3069
-67.3702
-67.4025
-65.8103
-65.8475
-65.9203
-66.0256
-66.1588
-66.3144
-66.4855
-66.6647
-66.8443
-67.0164
-67.1733
-67.3082
-67.415
-67.4889
-67.5268
-65.6613
-65.7049
-65.7903
-65.9138
-66.0701
-66.2526
-66.4534
-66.6639
-66.8749
-67.0771
-67.2616
-67.4202
-67.5458
-67.6328
-67.6773
-65.4821
-65.5334
-65.6338
-65.7791
-65.9632
-66.1781
-66.4147
-66.6628
-66.9116
-67.1501
-67.3678
-67.555
-67.7034
-67.8062
-67.8588
-65.2672
-65.3277
-65.4462
-65.6176
-65.8348
-66.0885
-66.368
-66.6612
-66.9553
-67.2375
-67.4952
-67.7169
-67.8926
-68.0144
-68.0768
-65.0104
-65.0818
-65.2217
-65.4243
-65.681
-65.9811
-66.3119
-66.659
-67.0074
-67.3419
-67.6476
-67.9107
-68.1193
-68.2639
-68.338
-64.704
-64.7884
-64.9538
-65.1934
-65.4972
-65.8525
-66.2443
-66.6558
-67.0692
-67.4663
-67.8295
-68.1422
-68.3904
-68.5625
-68.6506
-64.339
-64.4388
-64.6344
-64.9179
-65.2775
-65.6985
-66.163
-66.6514
-67.1423
-67.6144
-68.0463
-68.4186
-68.7142
-68.9193
-69.0243
-63.9047
-64.0227
-64.2541
-64.5895
-65.0154
-65.5142
-66.0652
-66.645
-67.2286
-67.7902
-68.3046
-68.7483
-69.1008
-69.3456
-69.4709
-63.3885
-63.528
-63.8016
-64.1984
-64.7026
-65.2938
-65.9475
-66.6361
-67.3301
-67.9987
-68.6119
-69.1413
-69.5623
-69.8547
-70.0046
-62.7754
-62.9402
-63.2635
-63.7327
-64.3294
-65.0299
-65.8054
-66.6236
-67.4492
-68.2458
-68.9773
-69.6097
-70.113
-70.4628
-70.6422
-62.048
-62.2425
-62.6241
-63.1784
-63.8843
-64.7139
-65.6338
-66.6059
-67.5884
-68.538
-69.4114
-70.1676
-70.7701
-71.1893
-71.4044
-61.1856
-61.4148
-61.8648
-62.5191
-63.3533
-64.3352
-65.426
-66.5808
-67.7505
-68.8832
-69.927
-70.8321
-71.5544
-72.0575
-72.3158
-60.1642
-60.4338
-60.9637
-61.7349
-62.7197
-63.881
-65.1737
-66.5455
-67.9382
-69.2901
-70.5387
-71.6236
-72.4908
-73.0957
-73.4064
-58.9556
-59.2723
-59.895
-60.8026
-61.9635
-63.3355
-64.8666
-66.4957
-68.1543
-69.7688
-71.2639
-72.5663
-73.6094
-74.338
-74.7127
-57.5273
-57.8983
-58.6285
-59.6946
-61.0608
-62.6796
-64.4914
-66.4253
-68.4009
-70.3304
-72.1229
-73.6888
-74.9461
-75.8261
-76.279
-55.8415
-56.275
-57.1291
-58.3781
-59.9828
-61.8898
-64.0314
-66.3261
-68.6794
-70.9871
-73.1391
-75.0256
-76.5448
-77.6104
-78.1598
-53.8549
-54.3596
-55.3555
-56.8148
-58.695
-60.9371
-63.4652
-66.1861
-68.9896
-71.7518
-74.3394
-76.6175
-78.4584
-79.7532
-80.4218
-51.518
-52.1035
-53.2603
-54.9595
-57.1559
-59.7858
-62.7653
-65.9887
-69.3285
-72.6376
-75.7547
-78.5126
-80.751
-82.3306
-83.1479
-48.7749
-49.4507
-50.7885
-52.7591
-55.316
-58.392
-61.8961
-65.7105
-69.6886
-73.6568
-77.4192
-80.7684
-83.5009
-85.437
-86.4413
-45.5626
-46.3386
-47.8776
-50.1519
-53.1157
-56.7009
-60.8115
-65.3185
-70.0556
-74.8187
-79.3705
-83.4523
-86.8037
-89.19
-90.4319
-41.8118
-42.697
-44.4564
-47.066
-50.484
-54.6451
-59.4518
-64.7668
-70.4044
-76.1272
-81.648
-86.643
-90.7764
-93.7375
-95.2845
-37.4467
-38.4487
-40.4453
-43.419
-47.3367
-52.1411
-57.7394
-63.991
-70.694
-77.5757
-84.2905
-90.4318
-95.5627
-99.2664
-101.211
-32.3863
-33.5101
-35.7559
-39.1169
-43.574
-49.0859
-55.5734
-62.9017
-70.8594
-79.1399
-87.331
-94.922
-101.34
-106.016
-108.487
-26.546
-27.7929
-30.2927
-34.0539
-39.0793
-45.3534
-52.8238
-61.3755
-70.8007
-80.7661
-90.7877
-100.227
-108.325
-114.298
-117.479
-19.8406
-21.2063
-23.9542
-28.1135
-33.7178
-40.7906
-49.3234
-59.2427
-70.3666
-82.353
-94.6488
-106.461
-116.785
-124.518
-128.678
-12.1874
-13.6605
-16.6363
-21.1704
-27.337
-35.2144
-44.8604
-56.2734
-69.3335
-83.7248
-98.845
-113.73
-127.044
-137.217
-142.767
-3.51217
-5.07218
-8.23703
-13.0943
-19.7687
-28.4103
-39.1708
-52.1603
-67.3758
-84.5901
-103.204
-122.087
-139.484
-153.125
-160.708
6.24538
4.62963
1.33655
-3.75712
-10.8351
-20.1355
-31.9335
-46.5017
-64.0299
-84.4831
-107.376
-131.477
-154.529
-173.24
-183.913
17.1238
15.4951
12.1594
6.95702
-0.358984
-10.1268
-22.7731
-38.7877
-58.6528
-82.6812
-110.709
-141.594
-172.588
-198.935
-214.528
29.1318
27.5446
24.2774
19.1378
11.8188
1.87984
-11.274
-28.4001
-50.3846
-78.102
-112.056
-151.633
-193.874
-232.097
-255.97
42.2405
40.7591
37.6943
32.8306
25.8148
16.1181
2.98294
-14.6392
-38.1352
-69.1918
-109.497
-159.822
-217.947
-275.221
-313.987
56.3761
55.0715
52.3588
48.0163
41.6711
32.743
20.3549
3.20005
-20.6358
-53.8589
-99.9788
-162.594
-242.608
-331.195
-398.921
71.4157
70.3597
68.1532
64.5909
59.3196
51.7694
41.0359
25.678
3.38181
-29.5702
-79.0055
-153.281
-261.313
-401.652
-530.882
87.1864
86.4446
84.8869
82.3505
78.5487
73.0047
64.9266
52.9728
34.7982
6.16452
-40.7815
-120.527
-257.577
-479.82
-752.579
103.47
103.094
102.298
100.987
98.9857
95.9978
91.507
84.5858
73.4761
54.6148
20.2192
-47.9753
-194.678
-522.9
-1163.68
120.011
120.031
120.065
120.099
120.106
120.032
119.773
119.105
117.535
113.851
104.69
79.0962
-5.7201
-348.918
-2019.76
136.536
136.956
137.828
139.227
141.278
144.193
148.319
154.248
163.058
176.888
200.571
247.293
362.669
747.041
2459.69
152.767
153.563
155.223
157.898
161.849
167.511
175.609
187.386
205.092
233.078
280.449
367.81
544.249
920.575
1632.74
168.441
169.566
171.911
175.679
181.227
189.133
200.339
216.401
239.982
275.804
332.553
426.462
587.011
860.873
1300.41
158.303
64.1074
26.4651
7.07893
-4.61242
-12.3338
-17.7156
-21.5929
-24.4413
-26.5522
-28.1125
-29.2462
-30.0356
-30.535
-30.7769
99.929
60.978
32.602
14.1902
1.98236
-6.43778
-12.4456
-16.8388
-20.1012
-22.5393
-24.354
-25.6799
-26.6074
-27.1959
-27.4816
68.6035
50.5044
31.8191
16.993
5.94681
-2.2169
-8.29681
-12.8699
-16.3334
-18.9592
-20.9348
-22.3901
-23.4143
-24.0669
-24.3845
49.8465
40.4377
28.3561
17.1707
7.90952
0.556915
-5.19435
-9.67153
-13.1471
-15.8305
-17.8769
-19.3996
-20.4791
-21.1705
-21.5079
37.6232
32.2268
24.2704
16.0121
8.54677
2.21868
-2.97665
-7.16862
-10.511
-13.1439
-15.1825
-16.7167
-17.8134
-18.5196
-18.8655
29.147
25.7934
20.3943
14.3028
8.3942
3.09381
-1.45571
-5.25565
-8.36755
-10.8699
-12.8384
-14.3376
-15.4186
-16.1189
-16.4631
22.9997
20.7802
16.9989
12.4664
7.8192
3.44746
-0.455303
-3.82045
-6.6473
-8.9667
-10.8201
-12.2488
-13.2881
-13.9655
-14.2996
18.3934
16.8517
14.125
10.7096
7.05285
3.47543
0.171759
-2.75904
-5.27941
-7.38699
-9.09678
-10.4302
-11.4088
-12.0505
-12.368
14.8577
13.7459
11.7292
9.12034
6.23138
3.31326
0.539879
-1.98263
-4.19815
-6.08347
-7.63472
-8.85804
-9.76331
-10.3604
-10.6569
12.0938
11.2686
9.74468
7.72551
5.4301
3.05056
0.733775
-1.41938
-3.34618
-5.01189
-6.40036
-7.50667
-8.3318
-8.87905
-9.1517
9.90306
9.27627
8.10399
6.52246
4.68722
2.74427
0.814032
-1.01331
-2.67551
-4.13282
-5.3619
-6.35051
-7.09321
-7.58831
-7.83573
8.14749
7.66272
6.74746
5.49556
4.01912
2.42912
0.822829
-0.721912
-2.14711
-3.4122
-4.4904
-5.36508
-6.02653
-6.46953
-6.69153
6.72852
6.34808
5.62465
4.62456
3.42984
2.12528
0.788874
-0.513524
-1.72989
-2.82135
-3.76022
-4.52768
-5.11151
-5.50418
-5.70146
5.5737
5.27159
4.69394
3.88869
2.91682
1.84355
0.731296
-0.364877
-1.3994
-2.33643
-3.14904
-3.81779
-4.32921
-4.67448
-4.84835
4.62864
4.3864
3.92124
3.26851
2.47419
1.58887
0.662549
-0.259044
-1.13659
-1.93791
-2.63776
-3.21712
-3.66225
-3.96379
-4.11594
3.85178
3.656
3.27877