/*--------------------------------*- C++ -*----------------------------------*\
| =========                 |                                                 |
| \\      /  F ield         | OpenFOAM: The Open Source CFD Toolbox           |
|  \\    /   O peration     | Version:  5.x                                   |
|   \\  /    A nd           | Web:      www.OpenFOAM.org                      |
|    \\/     M anipulation  |                                                 |
\*---------------------------------------------------------------------------*/
FoamFile
{
    version     2.0;
    format      ascii;
    class       volScalarField;
    location    "4.8";
    object      gradTy;
}
// * * * * * * * * * * * * * * * * * * * * * * * * * * * * * * * * * * * * * //

dimensions      [0 -1 0 1 0 0 0];

internalField   nonuniform List<scalar> 
2048
(
-27.5091
-27.4752
-27.4085
-27.311
-27.1855
-27.0352
-26.8636
-26.6745
-26.4713
-26.2572
-26.0352
-25.8078
-25.5774
-25.3458
-25.1147
-24.8856
-24.6595
-24.4374
-24.2199
-24.0074
-23.8003
-23.5986
-23.4025
-23.2117
-23.0262
-22.846
-22.6709
-22.5008
-22.3358
-22.1757
-22.0206
-21.8706
-21.7257
-21.5862
-21.4522
-21.324
-21.2017
-21.0855
-20.9758
-20.8728
-20.7766
-20.6875
-20.6059
-20.532
-20.4663
-20.409
-20.3605
-20.3211
-20.2909
-20.2701
-20.2586
-20.256
-20.2619
-20.2754
-20.2954
-20.3206
-20.3496
-20.3804
-20.4113
-20.4405
-20.4662
-20.4869
-20.5014
-20.5089
-27.5365
-27.5017
-27.4335
-27.3337
-27.2055
-27.0523
-26.8779
-26.6859
-26.4801
-26.2636
-26.0395
-25.8103
-25.5783
-25.3453
-25.1132
-24.8831
-24.6563
-24.4336
-24.2158
-24.0031
-23.7959
-23.5942
-23.3981
-23.2074
-23.022
-22.8418
-22.6668
-22.4968
-22.3317
-22.1716
-22.0165
-21.8664
-21.7214
-21.5817
-21.4476
-21.3191
-21.1966
-21.0803
-20.9704
-20.8672
-20.7708
-20.6815
-20.5996
-20.5255
-20.4594
-20.4018
-20.3531
-20.3135
-20.2833
-20.2626
-20.2513
-20.2492
-20.2557
-20.27
-20.2911
-20.3176
-20.348
-20.3803
-20.4127
-20.4432
-20.4702
-20.4919
-20.5071
-20.5149
-27.5889
-27.5525
-27.4811
-27.377
-27.2436
-27.0848
-26.9047
-26.7074
-26.4965
-26.2756
-26.0475
-25.8149
-25.5798
-25.3444
-25.1101
-24.8783
-24.6501
-24.4264
-24.2079
-23.9949
-23.7875
-23.5858
-23.3897
-23.1992
-23.014
-22.834
-22.6591
-22.4891
-22.3241
-22.164
-22.0088
-21.8585
-21.7132
-21.5733
-21.4388
-21.31
-21.1872
-21.0705
-20.9603
-20.8566
-20.7598
-20.6701
-20.5877
-20.513
-20.4464
-20.3883
-20.3391
-20.2992
-20.2689
-20.2483
-20.2374
-20.2361
-20.2438
-20.2597
-20.2829
-20.3119
-20.3449
-20.3801
-20.4153
-20.4486
-20.4779
-20.5015
-20.518
-20.5265
-27.6642
-27.6253
-27.5492
-27.4386
-27.2976
-27.1307
-26.9424
-26.7372
-26.5192
-26.2919
-26.0583
-25.8208
-25.5817
-25.3427
-25.1054
-24.8711
-24.6411
-24.416
-24.1966
-23.983
-23.7755
-23.5739
-23.378
-23.1877
-23.0027
-22.8229
-22.6482
-22.4784
-22.3135
-22.1533
-21.9979
-21.8474
-21.7018
-21.5614
-21.4264
-21.2971
-21.1738
-21.0567
-20.9459
-20.8418
-20.7444
-20.654
-20.5709
-20.4955
-20.4281
-20.3692
-20.3193
-20.2788
-20.2483
-20.2278
-20.2175
-20.2172
-20.2266
-20.2449
-20.271
-20.3035
-20.3404
-20.3798
-20.4192
-20.4564
-20.4891
-20.5155
-20.5339
-20.5434
-27.7608
-27.7186
-27.636
-27.5168
-27.3657
-27.188
-26.989
-26.7739
-26.5469
-26.3116
-26.0711
-25.8276
-25.5833
-25.3399
-25.0989
-24.8617
-24.6293
-24.4025
-24.182
-23.9679
-23.7603
-23.5588
-23.3632
-23.1733
-22.9887
-22.8092
-22.6347
-22.4651
-22.3002
-22.14
-21.9845
-21.8336
-21.6875
-21.5466
-21.4109
-21.281
-21.1571
-21.0393
-20.928
-20.8233
-20.7252
-20.6341
-20.5501
-20.4736
-20.4051
-20.3451
-20.2943
-20.2531
-20.2221
-20.2017
-20.192
-20.1931
-20.2046
-20.2258
-20.2556
-20.2926
-20.3346
-20.3794
-20.4243
-20.4666
-20.5039
-20.5338
-20.5548
-20.5656
-27.8775
-27.831
-27.7403
-27.6101
-27.4462
-27.2551
-27.0431
-26.8158
-26.5781
-26.3335
-26.085
-25.8347
-25.5844
-25.3359
-25.0906
-24.8498
-24.6147
-24.386
-24.1644
-23.9498
-23.7421
-23.5409
-23.3458
-23.1564
-22.9722
-22.7931
-22.619
-22.4496
-22.2849
-22.1247
-21.9689
-21.8176
-21.671
-21.5293
-21.3929
-21.2621
-21.1375
-21.0191
-20.9071
-20.8017
-20.7029
-20.6109
-20.5258
-20.448
-20.3782
-20.3169
-20.2648
-20.2226
-20.191
-20.1705
-20.1615
-20.164
-20.1778
-20.2025
-20.2368
-20.2791
-20.3274
-20.3789
-20.4305
-20.4793
-20.5221
-20.5566
-20.5806
-20.5929
-28.0138
-27.9618
-27.861
-27.7171
-27.5375
-27.3303
-27.1028
-26.8615
-26.6116
-26.3566
-26.0992
-25.8413
-25.5846
-25.3304
-25.0803
-24.8355
-24.5973
-24.3666
-24.1438
-23.9288
-23.7213
-23.5207
-23.3262
-23.1374
-22.9538
-22.7752
-22.6014
-22.4323
-22.2678
-22.1076
-21.9516
-21.7999
-21.6525
-21.5099
-21.3725
-21.2409
-21.1154
-20.9963
-20.8836
-20.7776
-20.678
-20.5849
-20.4986
-20.4194
-20.3479
-20.2849
-20.2313
-20.1878
-20.1554
-20.1346
-20.1261
-20.1301
-20.1465
-20.175
-20.2144
-20.2632
-20.3188
-20.3783
-20.438
-20.4944
-20.544
-20.5837
-20.6114
-20.6256
-28.1691
-28.1104
-27.9971
-27.8366
-27.6383
-27.412
-27.1666
-26.9095
-26.646
-26.3798
-26.113
-25.8472
-25.5835
-25.3232
-25.0678
-24.8186
-24.5771
-24.3442
-24.1202
-23.9051
-23.6981
-23.4983
-23.3048
-23.1167
-22.9338
-22.7557
-22.5823
-22.4136
-22.2493
-22.0892
-21.933
-21.7808
-21.6326
-21.4889
-21.3503
-21.2176
-21.0911
-20.9713
-20.858
-20.7513
-20.6509
-20.5568
-20.4691
-20.3882
-20.3148
-20.2499
-20.1943
-20.1492
-20.1156
-20.0944
-20.0862
-20.0916
-20.1108
-20.1434
-20.1886
-20.2445
-20.3087
-20.3775
-20.4468
-20.5122
-20.5696
-20.6155
-20.6473
-20.6636
-28.3436
-28.2767
-28.1482
-27.9677
-27.7471
-27.4986
-27.2328
-26.9582
-26.6802
-26.4022
-26.1259
-25.8519
-25.581
-25.3142
-25.053
-24.7991
-24.554
-24.3188
-24.0939
-23.8789
-23.6727
-23.4741
-23.2818
-23.0947
-22.9125
-22.7349
-22.562
-22.3937
-22.2298
-22.0699
-21.9136
-21.7607
-21.6114
-21.4665
-21.3265
-21.1925
-21.065
-20.9444
-20.8306
-20.7234
-20.6223
-20.5271
-20.4379
-20.3551
-20.2795
-20.2121
-20.1543
-20.1072
-20.0721
-20.0501
-20.042
-20.0487
-20.0706
-20.1076
-20.1591
-20.2231
-20.2969
-20.3765
-20.4569
-20.5327
-20.5991
-20.652
-20.6885
-20.7071
-28.5375
-28.4605
-28.3136
-28.1092
-27.8624
-27.5884
-27.2998
-27.0061
-26.713
-26.4231
-26.1372
-25.8551
-25.5769
-25.3033
-25.036
-24.7768
-24.5279
-24.2903
-24.0647
-23.8502
-23.6454
-23.4484
-23.2576
-23.0717
-22.8903
-22.7132
-22.5407
-22.3729
-22.2096
-22.05
-21.8935
-21.74
-21.5895
-21.443
-21.3014
-21.1659
-21.0373
-20.916
-20.8018
-20.6942
-20.5925
-20.4963
-20.4055
-20.3205
-20.2423
-20.1722
-20.1116
-20.0621
-20.0252
-20.002
-19.9938
-20.0016
-20.0261
-20.0676
-20.1257
-20.1986
-20.2833
-20.3752
-20.4683
-20.5562
-20.6328
-20.6934
-20.7351
-20.7562
-28.7513
-28.6622
-28.4931
-28.2602
-27.9828
-27.6796
-27.3658
-27.0518
-26.7431
-26.4416
-26.1466
-25.8567
-25.5712
-25.2907
-25.0167
-24.7518
-24.4986
-24.2588
-24.0326
-23.8192
-23.6164
-23.4216
-23.2327
-23.0481
-22.8673
-22.6906
-22.5186
-22.3514
-22.1888
-22.0297
-21.8733
-21.719
-21.5671
-21.4187
-21.2751
-21.1379
-21.0081
-20.8861
-20.7717
-20.664
-20.562
-20.4648
-20.3723
-20.2849
-20.2037
-20.1304
-20.0667
-20.0144
-19.9752
-19.9505
-19.9417
-19.9503
-19.9772
-20.0232
-20.0883
-20.1709
-20.2677
-20.3734
-20.481
-20.5827
-20.6708
-20.7401
-20.7872
-20.8109
-28.9858
-28.8819
-28.6863
-28.4196
-28.1067
-27.7706
-27.4291
-27.0936
-26.7695
-26.4571
-26.1539
-25.8568
-25.5642
-25.2763
-24.9951
-24.724
-24.4662
-24.224
-23.9976
-23.7859
-23.5859
-23.394
-23.2074
-23.0242
-22.8441
-22.6675
-22.4957
-22.3293
-22.1677
-22.0095
-21.8532
-21.6981
-21.5445
-21.3938
-21.2478
-21.1086
-20.9775
-20.855
-20.7407
-20.6333
-20.5311
-20.4331
-20.3388
-20.2487
-20.1642
-20.0872
-20.0199
-19.9644
-19.9224
-19.8958
-19.8861
-19.8949
-19.9239
-19.9743
-20.0465
-20.1395
-20.2497
-20.371
-20.4952
-20.6125
-20.7136
-20.7921
-20.8448
-20.8712
-29.2421
-29.1204
-28.8929
-28.5864
-28.2323
-27.8592
-27.4877
-27.1302
-26.7912
-26.4691
-26.1589
-25.8554
-25.556
-25.2605
-24.9714
-24.6932
-24.4304
-24.1858
-23.9597
-23.7505
-23.5542
-23.366
-23.1821
-23.0004
-22.8207
-22.644
-22.4723
-22.3067
-22.1465
-21.9895
-21.8335
-21.6776
-21.5221
-21.3685
-21.2195
-21.078
-20.9456
-20.8228
-20.7089
-20.6022
-20.5003
-20.4016
-20.3054
-20.2124
-20.124
-20.0428
-19.9715
-19.9123
-19.8673
-19.8383
-19.8272
-19.8358
-19.8663
-19.9207
-20.0002
-20.1042
-20.229
-20.3679
-20.5109
-20.646
-20.7614
-20.8497
-20.9081
-20.9369
-29.5216
-29.3784
-29.1128
-28.7593
-28.3578
-27.9436
-27.54
-27.1599
-26.8072
-26.4773
-26.1618
-25.853
-25.547
-25.2436
-24.9457
-24.6594
-24.3911
-24.144
-23.9186
-23.7129
-23.5215
-23.3381
-23.1573
-22.9771
-22.7974
-22.6201
-22.4481
-22.2835
-22.1253
-21.9701
-21.8148
-21.6579
-21.5
-21.343
-21.1904
-21.0462
-20.9123
-20.7894
-20.6765
-20.5711
-20.47
-20.3707
-20.2726
-20.1763
-20.0836
-19.9976
-19.9217
-19.8584
-19.8099
-19.7783
-19.7653
-19.7731
-19.8045
-19.8624
-19.949
-20.0645
-20.2052
-20.3636
-20.5282
-20.6835
-20.8147
-20.9131
-20.977
-21.0079
-29.8258
-29.6565
-29.3458
-28.9371
-28.4812
-28.0216
-27.5839
-27.1813
-26.8166
-26.4814
-26.1629
-25.8499
-25.5377
-25.226
-24.9181
-24.6225
-24.348
-24.0984
-23.8743
-23.6733
-23.4883
-23.3106
-23.1334
-22.9546
-22.7746
-22.5958
-22.423
-22.2597
-22.1042
-21.9515
-21.7972
-21.6394
-21.4787
-21.3174
-21.1605
-21.0131
-20.8777
-20.7549
-20.6436
-20.5403
-20.4405
-20.3409
-20.2407
-20.1408
-20.0431
-19.9518
-19.8708
-19.8031
-19.7508
-19.716
-19.7006
-19.707
-19.7385
-19.7991
-19.8926
-20.02
-20.1779
-20.358
-20.547
-20.7256
-20.8742
-20.9827
-21.0512
-21.0838
-30.1565
-29.956
-29.5918
-29.1183
-28.6002
-28.091
-27.6176
-27.1929
-26.8186
-26.4814
-26.1627
-25.8467
-25.5286
-25.2083
-24.8888
-24.5822
-24.301
-24.0488
-23.8265
-23.6317
-23.4548
-23.2842
-23.111
-22.9333
-22.7525
-22.5712
-22.3969
-22.2352
-22.0833
-21.9342
-21.7811
-21.6223
-21.4585
-21.2919
-21.1296
-20.9786
-20.8416
-20.7191
-20.6102
-20.5099
-20.4122
-20.3125
-20.2101
-20.1063
-20.003
-19.9055
-19.819
-19.7465
-19.69
-19.6518
-19.6336
-19.6378
-19.6685
-19.7309
-19.8306
-19.9703
-20.1465
-20.3505
-20.5675
-20.7729
-20.9404
-21.0587
-21.1307
-21.1641
-30.5161
-30.2776
-29.8506
-29.3012
-28.7122
-28.1497
-27.6393
-27.1932
-26.8126
-26.4774
-26.1618
-25.8442
-25.5204
-25.1911
-24.8579
-24.5382
-24.2497
-23.9949
-23.7749
-23.588
-23.4213
-23.2594
-23.0905
-22.9137
-22.7314
-22.5461
-22.3691
-22.2095
-22.0628
-21.9185
-21.767
-21.6071
-21.4398
-21.2666
-21.0975
-20.9427
-20.8039
-20.682
-20.5764
-20.4803
-20.3856
-20.2859
-20.1812
-20.0731
-19.9633
-19.8588
-19.7665
-19.6888
-19.6279
-19.5861
-19.5647
-19.566
-19.5946
-19.6576
-19.7627
-19.9148
-20.1105
-20.3405
-20.5895
-20.8262
-21.0142
-21.1413
-21.2151
-21.248
-30.9069
-30.6223
-30.1223
-29.4839
-28.814
-28.1957
-27.6475
-27.1805
-26.7979
-26.4698
-26.1612
-25.8429
-25.5137
-25.1754
-24.8258
-24.4901
-24.194
-23.9364
-23.719
-23.5422
-23.3884
-23.2372
-23.0724
-22.896
-22.7118
-22.5205
-22.3391
-22.1825
-22.0427
-21.9048
-21.7551
-21.5939
-21.423
-21.2416
-21.0641
-20.9051
-20.7645
-20.6433
-20.5422
-20.4517
-20.361
-20.2615
-20.1543
-20.0417
-19.9244
-19.8117
-19.7133
-19.6304
-19.5648
-19.5193
-19.4942
-19.4919
-19.5172
-19.5792
-19.6885
-19.8531
-20.0694
-20.3271
-20.613
-20.8868
-21.0968
-21.2308
-21.3038
-21.3347
-31.332
-30.9908
-30.4071
-29.6644
-28.9022
-28.227
-27.6406
-27.1532
-26.7739
-26.4589
-26.1625
-25.8437
-25.5089
-25.1625
-24.7925
-24.4368
-24.1337
-23.8733
-23.6582
-23.4944
-23.3563
-23.2183
-23.0572
-22.8805
-22.6944
-22.4941
-22.306
-22.1537
-22.0231
-21.8939
-21.7459
-21.5832
-21.4088
-21.2169
-21.0288
-20.8659
-20.7233
-20.6026
-20.5076
-20.4244
-20.3392
-20.2394
-20.1294
-20.0125
-19.8863
-19.7641
-19.6597
-19.5714
-19.5008
-19.4516
-19.4227
-19.4159
-19.4365
-19.4956
-19.6075
-19.7847
-20.0225
-20.3092
-20.6377
-20.9562
-21.1895
-21.3274
-21.3962
-21.4233
-31.7947
-31.3833
-30.7057
-29.8403
-28.9723
-28.2423
-27.6178
-27.1092
-26.7405
-26.4454
-26.1673
-25.8471
-25.5061
-25.1539
-24.7583
-24.3773
-24.0691
-23.8055
-23.5916
-23.4443
-23.3257
-23.204
-23.0453
-22.8673
-22.68
-22.467
-22.2685
-22.1225
-22.0041
-21.8866
-21.7394
-21.5747
-21.3981
-21.1927
-20.9909
-20.8251
-20.6802
-20.5596
-20.4725
-20.3986
-20.3206
-20.2201
-20.1067
-19.9862
-19.8491
-19.7157
-19.6058
-19.512
-19.436
-19.3835
-19.3507
-19.3388
-19.353
-19.407
-19.5193
-19.7093
-19.9696
-20.2852
-20.6629
-21.0365
-21.2938
-21.4311
-21.4915
-21.5124
-32.2991
-31.7988
-31.0195
-30.009
-29.0186
-28.241
-27.5785
-27.0462
-26.6974
-26.4299
-26.1783
-25.8535
-25.5052
-25.1522
-24.7235
-24.3094
-24.0005
-23.7332
-23.518
-23.3921
-23.2969
-23.1958
-23.0368
-22.856
-22.6701
-22.4388
-22.2248
-22.0885
-21.9858
-21.884
-21.7359
-21.5685
-21.3922
-21.169
-20.9492
-20.7828
-20.6354
-20.5133
-20.437
-20.3746
-20.3062
-20.2035
-20.0862
-19.9634
-19.813
-19.6658
-19.5517
-19.4525
-19.3705
-19.3154
-19.2787
-19.261
-19.2671
-19.3134
-19.4232
-19.6266
-19.9107
-20.2529
-20.6877
-21.1307
-21.4116
-21.5418
-21.5885
-21.6008
-32.8504
-32.2348
-31.3514
-30.1676
-29.0337
-28.2238
-27.5229
-26.9606
-26.6449
-26.4128
-26.1987
-25.8628
-25.5051
-25.161
-24.6881
-24.2301
-23.9292
-23.6568
-23.4352
-23.3379
-23.2702
-23.196
-23.0316
-22.8459
-22.6668
-22.4095
-22.1723
-22.0514
-21.9682
-21.8878
-21.7352
-21.5638
-21.3929
-21.1459
-20.902
-20.7398
-20.5891
-20.4627
-20.4011
-20.3524
-20.2972
-20.1896
-20.0673
-19.9454
-19.7781
-19.6136
-19.498
-19.3933
-19.3041
-19.2478
-19.2071
-19.1834
-19.1794
-19.2151
-19.3183
-19.5364
-19.8463
-20.2093
-20.7103
-21.243
-21.545
-21.6592
-21.6861
-21.6871
-33.4552
-32.6857
-31.7066
-30.313
-29.0076
-28.1936
-27.4523
-26.8478
-26.5842
-26.3943
-26.2336
-25.8745
-25.5033
-25.1855
-24.6523
-24.1346
-23.8573
-23.5772
-23.3405
-23.2824
-23.2454
-23.2075
-23.0294
-22.8355
-22.6734
-22.3789
-22.1075
-22.0111
-21.9511
-21.9006
-21.7368
-21.5593
-21.4031
-21.1233
-20.8467
-20.6971
-20.5417
-20.4062
-20.3652
-20.3321
-20.2951
-20.1782
-20.0491
-19.9339
-19.7443
-19.5575
-19.4451
-19.3346
-19.2365
-19.1811
-19.1365
-19.1066
-19.0905
-19.1125
-19.2036
-19.4386
-19.7778
-20.1503
-20.7279
-21.3794
-21.6962
-21.7825
-21.7827
-21.7698
-34.1221
-33.1413
-32.0939
-30.442
-28.9262
-28.1561
-27.3688
-26.7008
-26.5175
-26.3732
-26.2896
-25.8872
-25.4955
-25.2335
-24.6164
-24.0157
-23.7887
-23.4961
-23.2295
-23.2268
-23.2219
-23.2345
-23.0292
-22.822
-22.6949
-22.347
-22.0254
-21.9683
-21.9336
-21.9257
-21.7401
-21.5526
-21.4271
-21.1014
-20.7793
-20.6569
-20.4941
-20.3414
-20.3298
-20.3131
-20.3022
-20.1688
-20.0302
-19.9314
-19.7116
-19.4953
-19.3943
-19.2771
-19.1669
-19.116
-19.0673
-19.0315
-19.0011
-19.0064
-19.0773
-19.3329
-19.7085
-20.0704
-20.7364
-21.5482
-21.8673
-21.9104
-21.8765
-21.8474
-34.8631
-33.5846
-32.5277
-30.5511
-28.7702
-28.1218
-27.2764
-26.5092
-26.4496
-26.3467
-26.3766
-25.8982
-25.4746
-25.3166
-24.5802
-23.8628
-23.7299
-23.4158
-23.0956
-23.1737
-23.1977
-23.2831
-23.0292
-22.8007
-22.7386
-22.3137
-21.9193
-21.925
-21.9141
-21.9684
-21.7434
-21.5397
-21.4709
-21.08
-20.6938
-20.6226
-20.4474
-20.2646
-20.2965
-20.2943
-20.3219
-20.1603
-20.0081
-19.9416
-19.68
-19.4238
-19.3475
-19.2213
-19.0942
-19.0535
-18.9998
-18.959
-18.9118
-18.898
-18.9371
-19.2193
-19.6434
-19.962
-20.7292
-21.7613
-22.06
-22.0408
-21.9658
-21.9185
-35.6947
-33.9878
-33.0306
-30.6366
-28.5124
-28.1076
-27.1802
-26.2582
-26.3885
-26.3087
-26.5084
-25.9035
-25.4292
-25.4515
-24.5439
-23.6605
-23.6909
-23.3395
-22.9294
-23.1281
-23.1687
-23.3621
-23.0269
-22.7645
-22.8151
-22.2789
-21.7793
-21.8851
-21.8893
-22.036
-21.7445
-21.5146
-21.5437
-21.0592
-20.5819
-20.5998
-20.4035
-20.1705
-20.2679
-20.2735
-20.3588
-20.1513
-19.9786
-19.9701
-19.6493
-19.3381
-19.3073
-19.168
-19.0163
-18.995
-18.9339
-18.8904
-18.8231
-18.7892
-18.7796
-19.0969
-19.5912
-19.8152
-20.697
-22.0354
-22.275
-22.171
-22.0486
-21.9819
-36.6399
-34.3083
-33.6374
-30.6946
-28.1151
-28.1394
-27.0876
-25.9259
-26.3482
-26.2481
-26.705
-25.8973
-25.3425
-25.662
-24.5069
-23.3871
-23.6868
-23.2716
-22.717
-23.0981
-23.1276
-23.484
-23.0183
-22.7025
-22.9397
-22.2424
-21.5924
-21.8557
-21.8531
-22.139
-21.7403
-21.468
-21.6583
-21.0386
-20.4315
-20.5966
-20.3647
-20.0516
-20.2484
-20.2468
-20.4198
-20.1397
-19.9362
-20.0247
-19.6191
-19.2316
-19.2784
-19.1181
-18.9304
-18.9425
-18.8694
-18.8268
-18.7354
-18.6829
-18.6003
-18.9642
-19.5647
-19.6172
-20.6262
-22.3938
-22.5109
-22.2972
-22.1228
-22.0367
-37.7312
-34.4826
-34.3997
-30.7209
-27.5264
-28.2556
-27.0078
-25.481
-26.3513
-26.1456
-26.9943
-25.8711
-25.1896
-25.9814
-24.4688
-23.0118
-23.7401
-23.2177
-22.439
-23.0975
-23.0623
-23.6665
-22.9981
-22.599
-23.1337
-22.2038
-21.3404
-21.8488
-21.7955
-22.2923
-21.7261
-21.3864
-21.8328
-21.0179
-20.2258
-20.6252
-20.334
-19.897
-20.2457
-20.2072
-20.5145
-20.1224
-19.8723
-20.1165
-19.5887
-19.095
-19.2673
-19.0725
-18.8322
-18.899
-18.8052
-18.7698
-18.6484
-18.5835
-18.3929
-18.8184
-19.5831
-19.351
-20.4978
-22.869
-22.7633
-22.4148
-22.1867
-22.0822
-39.0133
-34.418
-35.3922
-30.7104
-26.6757
-28.5112
-26.9517
-24.8799
-26.4327
-25.9707
-27.4155
-25.8138
-24.9356
-26.4557
-24.4283
-22.4928
-23.8825
-23.1849
-22.0677
-23.1476
-22.9532
-23.9343
-22.9591
-22.4318
-23.4265
-22.1619
-20.9989
-21.883
-21.7002
-22.5169
-21.696
-21.2508
-22.0922
-20.9964
-19.9417
-20.7031
-20.3154
-19.6916
-20.2713
-20.1442
-20.6563
-20.0956
-19.7749
-20.2608
-19.5572
-18.9154
-19.2835
-19.0323
-18.7159
-18.8692
-18.7396
-18.7217
-18.561
-18.4975
-18.1493
-18.654
-19.6736
-18.9952
-20.2854
-23.505
-23.0229
-22.5184
-22.2387
-22.1179
-40.548
-33.9837
-36.7202
-30.6568
-25.4685
-28.9828
-26.9324
-24.0619
-26.6451
-25.676
-28.0225
-25.7105
-24.532
-27.1471
-24.3834
-21.7734
-24.1583
-23.1817
-21.5654
-23.2806
-22.7704
-24.3215
-22.8918
-22.1699
-23.858
-22.115
-20.5349
-21.987
-21.5424
-22.8414
-21.6421
-21.035
-22.47
-20.9732
-19.5483
-20.8545
-20.3134
-19.4145
-20.343
-20.0412
-20.8638
-20.0538
-19.6278
-20.4786
-19.523
-18.676
-19.3405
-18.9981
-18.5731
-18.8596
-18.6694
-18.6852
-18.471
-18.4343
-17.859
-18.4623
-19.8737
-18.5227
-19.9529
-24.3615
-23.2731
-22.6025
-22.2777
-22.1439
-42.4185
-32.9991
-38.5294
-30.5518
-23.7801
-29.7745
-26.9641
-22.9453
-27.0655
-25.1914
-28.8886
-25.5423
-23.9137
-28.138
-24.3311
-20.7792
-24.6281
-23.2179
-20.8808
-23.5438
-22.4695
-24.8746
-22.784
-21.7717
-24.481
-22.0602
-19.9052
-22.2025
-21.2848
-23.3049
-21.5543
-20.7035
-23.0111
-20.9465
-19.0046
-21.1125
-20.3334
-19.0375
-20.4868
-19.874
-21.1623
-19.9904
-19.4089
-20.7976
-19.4836
-18.3544
-19.4566
-18.9706
-18.3929
-18.8795
-18.5897
-18.6643
-18.3741
-18.4068
-17.509
-18.2295
-20.2343
-17.9001
-19.4523
-25.5177
-23.4872
-22.6617
-22.3033
-22.1605
-44.736
-31.2202
-41.0168
-30.3836
-21.4491
-31.0249
-27.0623
-21.4209
-27.8028
-24.4161
-30.1117
-25.2849
-22.9942
-29.5361
-24.2666
-19.4131
-25.3718
-23.3044
-19.9454
-24.0046
-21.9868
-25.6554
-22.6203
-21.1822
-25.3643
-21.9926
-19.0529
-22.588
-20.8737
-23.9593
-21.4193
-20.2089
-23.7733
-20.9136
-18.2567
-21.5202
-20.3807
-18.5221
-20.7388
-19.6068
-21.5848
-19.8955
-19.088
-21.253
-19.4342
-17.92
-19.6551
-18.9477
-18.1589
-18.9402
-18.491
-18.6628
-18.2611
-18.43
-17.0809
-17.932
-20.819
-17.0831
-18.717
-27.0736
-23.6211
-22.6879
-22.3115
-22.1644
)
;

boundaryField
{
    left
    {
        type            calculated;
        value           nonuniform List<scalar> 
32
(
-27.5091
-27.5365
-27.5889
-27.6642
-27.7608
-27.8775
-28.0138
-28.1691
-28.3436
-28.5375
-28.7513
-28.9858
-29.2421
-29.5216
-29.8258
-30.1565
-30.5161
-30.9069
-31.332
-31.7947
-32.2991
-32.8504
-33.4552
-34.1221
-34.8631
-35.6947
-36.6399
-37.7312
-39.0133
-40.548
-42.4185
-44.736
)
;
    }
    right
    {
        type            calculated;
        value           nonuniform List<scalar> 
32
(
-20.5089
-20.5149
-20.5265
-20.5434
-20.5656
-20.5929
-20.6256
-20.6636
-20.7071
-20.7562
-20.8109
-20.8712
-20.9369
-21.0079
-21.0838
-21.1641
-21.248
-21.3347
-21.4233
-21.5124
-21.6008
-21.6871
-21.7698
-21.8474
-21.9185
-21.9819
-22.0367
-22.0822
-22.1179
-22.1439
-22.1605
-22.1644
)
;
    }
    interface
    {
        type            calculated;
        value           nonuniform List<scalar> 
64
(
-46.0223
-30.0971
-42.4582
-30.282
-20.1002
-31.7845
-27.1299
-20.5412
-28.2667
-23.9411
-30.8265
-25.1307
-22.447
-30.3521
-24.2307
-18.6234
-25.8237
-23.3616
-19.4054
-24.2941
-21.6907
-26.1115
-22.5223
-20.8316
-25.8807
-21.9549
-18.563
-22.8318
-20.6218
-24.3415
-21.3382
-19.9141
-24.2178
-20.8951
-17.824
-21.7677
-20.4118
-18.2242
-20.8971
-19.4428
-21.8316
-19.8388
-18.8976
-21.5197
-19.4061
-17.6701
-19.778
-18.937
-18.026
-18.9821
-18.4353
-18.6671
-18.1989
-18.4562
-16.8445
-17.7634
-21.176
-16.6196
-18.2809
-27.9652
-23.6609
-22.6915
-22.3103
-22.1622
)
;
    }
    bottom
    {
        type            calculated;
        value           nonuniform List<scalar> 
64
(
-27.5019
-27.4683
-27.402
-27.3051
-27.1803
-27.0307
-26.8599
-26.6715
-26.469
-26.2555
-26.034
-25.8072
-25.5771
-25.3459
-25.1151
-24.8862
-24.6603
-24.4383
-24.2209
-24.0085
-23.8015
-23.5998
-23.4036
-23.2128
-23.0273
-22.8471
-22.672
-22.5019
-22.3368
-22.1767
-22.0217
-21.8717
-21.7269
-21.5874
-21.4534
-21.3252
-21.203
-21.0869
-20.9772
-20.8742
-20.7781
-20.6891
-20.6075
-20.5338
-20.4681
-20.4109
-20.3624
-20.323
-20.2929
-20.2721
-20.2605
-20.2578
-20.2635
-20.2767
-20.2965
-20.3214
-20.35
-20.3804
-20.411
-20.4398
-20.4651
-20.4856
-20.4999
-20.5073
)
;
    }
    defaultFaces
    {
        type            empty;
    }
}


// ************************************************************************* //
