/*--------------------------------*- C++ -*----------------------------------*\
| =========                 |                                                 |
| \\      /  F ield         | OpenFOAM: The Open Source CFD Toolbox           |
|  \\    /   O peration     | Version:  5.x                                   |
|   \\  /    A nd           | Web:      www.OpenFOAM.org                      |
|    \\/     M anipulation  |                                                 |
\*---------------------------------------------------------------------------*/
FoamFile
{
    version     2.0;
    format      ascii;
    class       volScalarField;
    location    "2.4";
    object      gradTx;
}
// * * * * * * * * * * * * * * * * * * * * * * * * * * * * * * * * * * * * * //

dimensions      [0 -1 0 1 0 0 0];

internalField   nonuniform List<scalar> 
2048
(
0.00773241
0.022961
0.0375033
0.0509724
0.0630751
0.0736257
0.0825448
0.0898443
0.0956054
0.099953
0.103033
0.104998
0.105993
0.106154
0.105611
0.104484
0.102888
0.100933
0.0987204
0.0963392
0.0938646
0.0913543
0.0888488
0.0863727
0.0839378
0.0815464
0.0791937
0.0768702
0.0745622
0.0722528
0.0699224
0.0675503
0.0651163
0.0626034
0.0599989
0.0572953
0.0544889
0.0515785
0.0485626
0.045437
0.0421941
0.0388228
0.0353103
0.0316455
0.0278227
0.0238454
0.01973
0.0155086
0.0112306
0.00696348
0.00279277
-0.00117989
-0.00483996
-0.00806538
-0.0107342
-0.0127343
-0.0139742
-0.0143938
-0.0139734
-0.0127393
-0.0107645
-0.00816548
-0.0050946
-0.00173112
0.0230546
0.0684468
0.111757
0.151818
0.187751
0.219007
0.245364
0.266876
0.283804
0.296536
0.305518
0.311205
0.314032
0.314403
0.312697
0.309269
0.304462
0.298599
0.291983
0.284882
0.277518
0.270064
0.262636
0.255307
0.248107
0.241041
0.234094
0.227236
0.220427
0.213616
0.206744
0.199748
0.192567
0.185148
0.177455
0.169466
0.16117
0.152568
0.143655
0.134422
0.124844
0.114888
0.104513
0.093684
0.0823797
0.0706082
0.0584156
0.0458952
0.0331923
0.020507
0.00809318
-0.00374581
-0.0146669
-0.024303
-0.0322856
-0.0382741
-0.0419892
-0.0432459
-0.0419816
-0.0382728
-0.0323388
-0.0245293
-0.0153028
-0.00519925
0.0382492
0.113518
0.185222
0.251377
0.310511
0.361736
0.404727
0.439634
0.466947
0.487358
0.501638
0.510556
0.514829
0.515117
0.512029
0.506143
0.498018
0.48819
0.477161
0.465378
0.45321
0.440938
0.42875
0.416755
0.404996
0.393471
0.382153
0.37099
0.359915
0.348844
0.337677
0.326305
0.314624
0.302543
0.290001
0.276962
0.26342
0.249376
0.234833
0.219776
0.204167
0.187945
0.171035
0.15337
0.134906
0.115646
0.0956593
0.0750929
0.0541823
0.0332549
0.0127291
-0.00689169
-0.025034
-0.0410791
-0.0544008
-0.0644147
-0.0706367
-0.0727415
-0.0706123
-0.0643717
-0.054387
-0.0412486
-0.0257291
-0.00874028
0.0536302
0.159084
0.259312
0.351437
0.433373
0.503917
0.562712
0.610088
0.646854
0.674074
0.692892
0.704402
0.709603
0.709388
0.704578
0.695956
0.684287
0.67032
0.654763
0.638246
0.62129
0.604281
0.587467
0.57098
0.554861
0.539094
0.523629
0.508396
0.493302
0.478226
0.463027
0.447544
0.43162
0.415125
0.397968
0.380109
0.361546
0.342298
0.322381
0.301782
0.280448
0.258284
0.235174
0.211002
0.185688
0.15922
0.131678
0.103255
0.0742692
0.0451707
0.0165396
-0.0109193
-0.036395
-0.059002
-0.0778335
-0.0920318
-0.100876
-0.103873
-0.100832
-0.091917
-0.0776506
-0.0588824
-0.0367212
-0.0124725
0.0694815
0.205963
0.335286
0.453567
0.558067
0.647312
0.72101
0.7798
0.82493
0.857941
0.880403
0.893762
0.899284
0.898069
0.891119
0.879396
0.863865
0.845493
0.825205
0.803833
0.782054
0.760357
0.739037
0.718229
0.697951
0.678158
0.658774
0.639708
0.620844
0.602031
0.583076
0.56376
0.543864
0.523204
0.501661
0.479192
0.455816
0.431583
0.406535
0.38067
0.35392
0.326149
0.297182
0.266839
0.234984
0.201572
0.166683
0.130545
0.0935532
0.0562738
0.0194463
-0.0160211
-0.0490692
-0.0785251
-0.103168
-0.121824
-0.133489
-0.137459
-0.133443
-0.12164
-0.102742
-0.0778894
-0.0485619
-0.0164912
0.086075
0.254933
0.414324
0.559201
0.68613
0.793429
0.881008
0.949989
1.00223
1.03987
1.06498
1.07937
1.08457
1.08182
1.07226
1.05702
1.03723
1.01411
0.988821
0.962415
0.935742
0.90939
0.883684
0.858733
0.834504
0.810905
0.787826
0.765161
0.742781
0.720504
0.698086
0.675232
0.651642
0.627068
0.601358
0.57447
0.546462
0.517437
0.487484
0.456624
0.424772
0.391743
0.357279
0.321112
0.283029
0.242931
0.200883
0.15714
0.112165
0.066635
0.0214443
-0.0222939
-0.0632618
-0.0999735
-0.130852
-0.154351
-0.169121
-0.17419
-0.169129
-0.154162
-0.130179
-0.0986515
-0.0614833
-0.0208742
0.103684
0.30677
0.497581
0.669709
0.818975
0.943585
1.04385
1.12159
1.1795
1.22046
1.24715
1.26174
1.26595
1.26113
1.24849
1.22927
1.20479
1.17651
1.14587
1.1142
1.08254
1.05157
1.02161
0.992711
0.964755
0.937572
0.911018
0.88498
0.859332
0.833874
0.8083
0.782221
0.755231
0.726995
0.697319
0.666177
0.633685
0.60003
0.565377
0.529784
0.493154
0.45523
0.415652
0.37403
0.330043
0.283518
0.234489
0.183229
0.130262
0.0763689
0.0225924
-0.0297521
-0.0790791
-0.123563
-0.161223
-0.190068
-0.208322
-0.214668
-0.20849
-0.190028
-0.160403
-0.121487
-0.0756739
-0.0256835
0.122596
0.362277
0.586232
0.786441
0.957936
1.09895
1.21045
1.29528
1.35721
1.40007
1.4272
1.44115
1.44376
1.43638
1.42021
1.39652
1.36686
1.33294
1.29656
1.25935
1.22258
1.18703
1.15299
1.12038
1.08894
1.0584
1.02857
0.999372
0.970696
0.942344
0.91394
0.884973
0.854895
0.823252
0.789797
0.75453
0.71766
0.679499
0.640322
0.600251
0.559174
0.516747
0.472465
0.425782
0.376233
0.323546
0.26771
0.209009
0.148022
0.0856266
0.0230037
-0.0383372
-0.0965407
-0.149417
-0.194522
-0.22934
-0.251562
-0.259428
-0.252065
-0.22972
-0.193796
-0.146657
-0.091281
-0.0309659
0.143117
0.422313
0.681508
0.910767
1.1043
1.26058
1.38157
1.47151
1.53558
1.57878
1.60521
1.61773
1.61821
1.60786
1.58773
1.55912
1.52372
1.48361
1.44102
1.39796
1.35597
1.31591
1.27799
1.24194
1.20729
1.17363
1.14072
1.10853
1.07705
1.04609
1.01521
0.983727
0.950894
0.916103
0.879035
0.839732
0.798538
0.755944
0.712389
0.668086
0.62291
0.576398
0.527861
0.476544
0.421798
0.363222
0.300752
0.234678
0.165635
0.0945863
0.0228366
-0.047928
-0.115588
-0.17757
-0.230908
-0.272459
-0.299254
-0.308961
-0.300357
-0.273678
-0.230685
-0.174368
-0.108408
-0.0367519
0.165587
0.487812
0.784725
1.0441
1.25933
1.4294
1.55776
1.65049
1.71458
1.75647
1.78105
1.79146
1.78941
1.77579
1.75137
1.71734
1.67562
1.62871
1.57935
1.53007
1.48274
1.43829
1.39677
1.35762
1.32007
1.28351
1.24767
1.21263
1.17854
1.14528
1.1123
1.07871
1.04349
1.00582
0.965277
0.921975
0.87645
0.829439
0.781612
0.733312
0.684402
0.634265
0.581965
0.526479
0.466924
0.402744
0.333812
0.260432
0.183295
0.103444
0.0222851
-0.0583479
-0.136093
-0.20798
-0.270464
-0.319654
-0.351765
-0.363727
-0.353842
-0.322306
-0.271347
-0.204764
-0.127111
-0.0430531
0.190385
0.559809
0.897308
1.18794
1.42428
1.60628
1.73942
1.83223
1.89398
1.93278
1.95444
1.96221
1.95741
1.94038
1.9114
1.87149
1.8228
1.76836
1.71161
1.65569
1.6029
1.55423
1.50948
1.46765
1.42756
1.38832
1.34965
1.31183
1.27529
1.24003
1.20538
1.17014
1.13295
1.09268
1.04877
1.00145
0.951507
0.900027
0.847986
0.795916
0.743665
0.690407
0.634886
0.57574
0.511794
0.442302
0.367077
0.286456
0.201194
0.112405
0.0215703
-0.0693732
-0.15786
-0.24053
-0.313199
-0.371094
-0.409424
-0.424172
-0.412989
-0.375987
-0.316005
-0.237921
-0.147386
-0.049859
0.217937
0.639455
1.02082
1.34385
1.60039
1.79193
1.92677
2.01653
2.07328
2.10718
2.12495
2.12974
2.12219
2.1018
2.06813
2.02188
1.96548
1.90269
1.8378
1.77477
1.71641
1.66379
1.61628
1.57229
1.53006
1.48836
1.44688
1.40626
1.36738
1.33043
1.29459
1.25824
1.21954
1.17696
1.12978
1.07833
1.02381
0.967721
0.911472
0.855849
0.800681
0.744863
0.686724
0.624476
0.556583
0.482074
0.400718
0.312917
0.219509
0.121674
0.0209304
-0.08074
-0.180635
-0.275032
-0.359053
-0.426895
-0.472531
-0.490738
-0.478275
-0.435088
-0.364827
-0.273836
-0.169162
-0.0571319
0.248724
0.728037
1.15696
1.5135
1.78891
1.98701
2.11987
2.20298
2.25182
2.27894
2.29201
2.29376
2.28374
2.26028
2.2219
2.16883
2.1039
2.0318
1.9579
1.88719
1.82318
1.76697
1.71732
1.6718
1.62792
1.58396
1.53959
1.49603
1.45484
1.41654
1.38006
1.34321
1.30355
1.25899
1.20856
1.15281
1.09343
1.03251
0.971994
0.913025
0.855409
0.797662
0.737571
0.672832
0.601465
0.522231
0.434889
0.339962
0.2384
0.131443
0.0206124
-0.0921516
-0.204106
-0.311227
-0.407899
-0.487116
-0.541353
-0.56387
-0.550202
-0.499972
-0.417922
-0.312409
-0.192283
-0.0648022
0.283294
0.826994
1.30762
1.69867
1.99104
2.19201
2.3186
2.39096
2.42868
2.44717
2.45496
2.45394
2.44203
2.41604
2.37309
2.31271
2.23829
2.15578
2.07184
1.99279
1.92308
1.86378
1.81278
1.7665
1.72153
1.67549
1.62803
1.5812
1.53766
1.49837
1.46189
1.42526
1.38527
1.3391
1.28541
1.22507
1.16045
1.09435
1.02944
0.967322
0.907786
0.84882
0.787515
0.720954
0.646614
0.562931
0.469716
0.367707
0.257996
0.141889
0.0208621
-0.103286
-0.22791
-0.348785
-0.459537
-0.551759
-0.616128
-0.64403
-0.629318
-0.571011
-0.475326
-0.353425
-0.216497
-0.0727629
0.32227
0.937934
1.47486
1.90127
2.20797
2.40727
2.52265
2.57968
2.60279
2.61081
2.61307
2.60993
2.59704
2.56937
2.52218
2.45393
2.36889
2.27471
2.17953
2.09137
2.01592
1.95421
1.90285
1.85672
1.81132
1.76339
1.71243
1.6618
1.61576
1.57591
1.54019
1.5046
1.46502
1.41766
1.36061
1.29527
1.22492
1.15319
1.08364
1.01858
0.95773
0.89835
0.836639
0.768988
0.692212
0.604322
0.5053
0.396238
0.278397
0.153156
0.0219153
-0.113802
-0.251636
-0.387312
-0.513702
-0.620771
-0.697057
-0.731698
-0.716241
-0.648605
-0.536994
-0.396531
-0.241437
-0.0808645
0.366372
1.06264
1.66092
2.12331
2.4408
2.63297
2.73158
2.76818
2.77286
2.76865
2.76554
2.7614
2.74877
2.72061
2.66974
2.59294
2.49595
2.38868
2.28085
2.18264
2.10145
2.03823
1.98775
1.94282
1.89778
1.84816
1.79307
1.73778
1.68898
1.64907
1.61504
1.58142
1.54312
1.49507
1.4345
1.36359
1.28691
1.20894
1.13443
1.06661
1.00515
0.946271
0.885024
0.817085
0.73845
0.646542
0.541709
0.425603
0.299662
0.165355
0.0239881
-0.123351
-0.274827
-0.426342
-0.570058
-0.694038
-0.784286
-0.827372
-0.811696
-0.7332
-0.602783
-0.441208
-0.266606
-0.0889111
0.416432
1.20309
1.86823
2.36698
2.69056
2.86903
2.94479
2.95532
2.9374
2.91935
2.91157
2.90807
2.89723
2.87015
2.81645
2.73024
2.61967
2.49778
2.37567
2.26623
2.17936
2.11583
2.06774
2.02518
1.98145
1.93041
1.87023
1.80905
1.75709
1.71777
1.68652
1.65589
1.61991
1.57181
1.50739
1.43018
1.34647
1.26151
1.18154
1.11117
1.04993
0.992615
0.932746
0.865398
0.785542
0.689717
0.578969
0.455817
0.321813
0.178555
0.0272686
-0.131581
-0.296987
-0.465344
-0.628211
-0.771386
-0.877892
-0.931562
-0.916554
-0.825318
-0.672429
-0.486746
-0.291368
-0.0966594
0.47344
1.36142
2.09938
2.63463
2.95808
3.11508
3.16157
3.13991
3.09478
3.06142
3.05037
3.04979
3.0424
3.01841
2.96318
2.86635
2.74023
2.60215
2.46384
2.3417
2.24926
2.18698
2.14313
2.10416
2.06292
2.01087
1.94422
1.87537
1.81971
1.78187
1.75476
1.72817
1.69575
1.64843
1.57962
1.49515
1.40367
1.3108
1.22471
1.15197
1.09199
1.03744
0.979864
0.914076
0.833737
0.73396
0.617059
0.486862
0.344831
0.192772
0.031908
-0.138148
-0.317588
-0.503718
-0.687706
-0.852595
-0.977846
-1.04477
-1.03189
-0.925593
-0.74551
-0.532206
-0.31494
-0.10382
0.538607
1.53995
2.35707
2.92887
3.24401
3.37036
3.38118
3.32068
3.24315
3.19325
3.1812
3.18655
3.18423
3.16585
3.11101
3.0018
2.85767
2.702
2.54522
2.4085
2.31064
2.25169
2.21435
2.18011
2.14277
2.09045
2.01538
1.93641
1.87638
1.84123
1.81992
1.79835
1.77097
1.72559
1.65152
1.55854
1.45863
1.35671
1.26357
1.18869
1.13124
1.08086
1.02641
0.963262
0.883346
0.779371
0.655892
0.518695
0.368662
0.207966
0.0380131
-0.142724
-0.33607
-0.540794
-0.748046
-0.937412
-1.08397
-1.16745
-1.15908
-1.03482
-0.821397
-0.576392
-0.336395
-0.110064
0.613469
1.74114
2.64405
3.25269
3.54864
3.63357
3.60299
3.49635
3.38046
3.31306
3.30344
3.31859
3.3225
3.31286
3.26137
3.13711
2.97189
2.79767
2.61973
2.46595
2.3629
2.31
2.28194
2.25325
2.22161
2.17032
2.08406
1.99165
1.92646
1.89571
1.88227
1.86642
1.84588
1.80412
1.72341
1.62032
1.51152
1.39916
1.29772
1.22093
1.1676
1.12305
1.07237
1.01307
0.934768
0.826027
0.695302
0.551264
0.39322
0.224031
0.0456407
-0.145008
-0.351857
-0.575822
-0.808698
-1.02559
-1.19587
-1.29994
-1.29985
-1.15401
-0.899185
-0.617815
-0.354675
-0.115035
0.700068
1.96752
2.96298
3.60963
3.87186
3.90273
3.82661
3.66574
3.50444
3.41888
3.41658
3.44655
3.45679
3.45977
3.41615
3.27269
3.08248
2.88972
2.68733
2.51322
2.40529
2.36201
2.34667
2.32365
2.29997
2.25198
2.15068
2.04036
1.96914
1.9452
1.94227
1.93222
1.92072
1.88511
1.79555
1.68026
1.56264
1.43811
1.32666
1.24821
1.20105
1.16433
1.11762
1.06359
0.988549
0.873972
0.735006
0.584532
0.418396
0.240791
0.0547942
-0.144736
-0.364357
-0.607965
-0.869106
-1.11695
-1.31288
-1.44238
-1.45651
-1.28445
-0.97758
-0.654666
-0.368627
-0.118366
0.801226
2.2216
3.31619
4.00411
4.21294
4.17492
4.05215
3.82778
3.61252
3.50857
3.52032
3.57164
3.5862
3.6067
3.57797
3.40881
3.18857
2.97908
2.74807
2.54928
2.43689
2.40787
2.40964
2.39105
2.37828
2.33744
2.21563
2.08154
2.00342
1.98961
2.00063
1.99535
1.99562
1.97002
1.86809
1.7379
1.61249
1.47354
1.34977
1.26997
1.23159
1.20519
1.16192
1.1148
1.04545
0.923198
0.774571
0.618517
0.444061
0.257984
0.0654245
-0.141692
-0.372989
-0.636271
-0.928702
-1.21149
-1.43396
-1.59454
-1.63205
-1.42783
-1.05476
-0.684804
-0.377046
-0.119705
0.920983
2.50577
3.70538
4.44191
4.57031
4.44592
4.28069
3.98158
3.7018
3.57971
3.61452
3.69592
3.70921
3.75343
3.75047
3.54543
3.28868
3.06726
2.80207
2.57283
2.45657
2.44784
2.47242
2.45477
2.4567
2.4294
2.2793
2.11383
2.02808
2.02894
2.0585
2.05502
2.07052
2.06086
1.94103
1.79242
1.66186
1.50552
1.36632
1.28555
1.25929
1.2464
1.20476
1.16659
1.10656
0.973611
0.813349
0.653347
0.470078
0.27525
0.077436
-0.135718
-0.377192
-0.659646
-0.986904
-1.30952
-1.55755
-1.7556
-1.83047
-1.58628
-1.12817
-0.705757
-0.378744
-0.118743
1.06524
2.82204
4.13109
4.93088
4.94128
4.70979
4.51471
4.12642
3.76895
3.6296
3.69921
3.82263
3.82326
3.8992
3.93879
3.68207
3.38031
3.15663
2.84956
2.5823
2.46295
2.48221
2.53735
2.51344
2.53508
2.53154
2.34197
2.1355
2.04164
2.06324
2.11766
2.10989
2.14506
2.16048
2.01411
1.84247
1.71207
1.53411
1.37538
1.29414
1.28424
1.28914
1.24534
1.21865
1.17342
1.02498
0.850407
0.689349
0.496299
0.292112
0.090701
-0.126726
-0.376466
-0.676812
-1.04309
-1.41187
-1.68152
-1.92384
-2.0571
-1.76253
-1.19424
-0.714761
-0.372643
-0.115244
1.24269
3.17183
4.59202
5.48193
5.32161
4.95826
4.75892
4.26167
3.8101
3.65521
3.7745
3.95678
3.92436
4.04243
4.15021
3.81748
3.45969
3.25092
2.89075
2.57571
2.4544
2.51129
2.60779
2.56473
2.6127
2.64889
2.40367
2.14432
2.0424
2.09258
2.1808
2.15782
2.21843
2.27285
2.08668
1.88597
1.76511
1.55942
1.37586
1.29483
1.30653
1.33516
1.28234
1.27039
1.24829
1.07688
0.884419
0.727163
0.522556
0.307946
0.105084
-0.114705
-0.370416
-0.68625
-1.09655
-1.52023
-1.80294
-2.09626
-2.31905
-1.96001
-1.24802
-0.708846
-0.357873
-0.109074
1.46617
3.55552
5.08407
6.11042
5.70493
5.18002
5.02125
4.38659
3.82076
3.65319
3.84042
4.10583
4.00648
4.1804
4.39497
3.9494
3.52119
3.35572
2.92579
2.55068
2.429
2.53526
2.68865
2.60498
2.68806
2.78831
2.46405
2.13753
2.02842
2.11695
2.25194
2.19557
2.2892
2.40357
2.15747
1.91985
1.82403
1.58149
1.36641
1.28651
1.32622
1.38704
1.31377
1.32086
1.33431
1.12854
0.913545
0.767907
0.548635
0.321957
0.120479
-0.0997317
-0.358812
-0.686135
-1.14637
-1.63746
-1.91802
-2.26795
-2.62579
-2.18297
-1.28274
-0.684992
-0.333892
-0.100234
1.7544
3.97202
5.599
6.83802
6.08205
5.35971
5.31419
4.49996
3.79574
3.61989
3.89654
4.28061
4.06086
4.30874
4.6874
4.07401
3.55677
3.47932
2.95445
2.50433
2.38456
2.55402
2.78693
2.62872
2.75861
2.95916
2.522
2.11181
1.99759
2.13615
2.33689
2.21841
2.35503
2.56045
2.22443
1.93971
1.89335
1.60017
1.34543
1.26799
1.34317
1.44851
1.33672
1.36856
1.43597
1.17876
0.93527
0.813383
0.574233
0.333132
0.136862
-0.0819719
-0.341677
-0.674269
-1.19127
-1.76818
-2.02192
-2.43142
-2.9899
-2.43661
-1.28919
-0.640371
-0.300598
-0.0888674
2.13442
4.41805
6.12278
7.69509
6.43996
5.47681
5.65646
4.59947
3.7291
3.55146
3.94152
4.49657
4.07505
4.42089
5.04724
4.18541
3.55524
3.63369
2.97581
2.43331
2.31868
2.56683
2.91253
2.62814
2.82036
3.1741
2.57522
2.06329
1.94766
2.14948
2.44394
2.21963
2.41243
2.75424
2.28431
1.93944
1.9796
1.61493
1.31102
1.23795
1.35696
1.52486
1.34707
1.4113
1.55942
1.22569
0.946217
0.866356
0.598873
0.340197
0.154356
-0.06168
-0.319393
-0.648006
-1.22936
-1.9193
-2.10869
-2.57569
-3.42797
-2.72719
-1.25505
-0.572714
-0.258428
-0.0752703
2.6446
4.88738
6.63344
8.72371
6.76062
5.50431
6.07519
4.68084
3.61416
3.44405
3.97233
4.77528
4.03188
4.50741
5.50137
4.2748
3.50138
3.83575
2.98771
2.33376
2.22885
2.57187
3.07922
2.59234
2.86747
3.45008
2.6197
1.9876
1.87645
2.15538
2.58466
2.18995
2.4563
2.99957
2.33233
1.91072
2.09201
1.62455
1.26106
1.19502
1.36652
1.62342
1.33907
1.44598
1.7131
1.26655
0.941931
0.930886
0.621788
0.341571
0.173321
-0.0391902
-0.292838
-0.604201
-1.25775
-2.10082
-2.17112
-2.68515
-3.9617
-3.06209
-1.164
-0.480804
-0.208427
-0.0598765
3.33841
5.36977
7.09849
9.98139
7.01948
5.40707
6.60848
4.7365
3.44364
3.29413
3.98323
5.14635
3.9082
4.55508
6.08576
4.32965
3.37498
4.10891
2.98596
2.20144
2.11268
2.56559
3.30585
2.50659
2.89174
3.80951
2.64882
1.87999
1.78199
2.15086
2.77494
2.11689
2.47953
3.31601
2.36165
1.84249
2.24336
1.62672
1.19318
1.1379
1.3699
1.75427
1.30497
1.46831
1.90832
1.29739
0.916637
1.01275
0.641753
0.335318
0.194452
-0.014899
-0.263537
-0.539172
-1.27209
-2.32663
-2.20082
-2.73828
-4.61919
-3.44984
-0.994801
-0.365139
-0.15226
-0.0432284
4.28909
5.84977
7.47186
11.5454
7.18359
5.14013
7.30844
4.75392
3.20989
3.09891
3.96435
5.64964
3.67338
4.54604
6.84779
4.33255
3.14973
4.48492
2.96337
2.0319
1.96809
2.54181
3.61774
2.35138
2.88201
4.28172
2.65245
1.73562
1.66279
2.13077
3.03616
1.98392
2.47246
3.72933
2.36278
1.72037
2.451
1.61748
1.10488
1.06553
1.36371
1.93094
1.23449
1.47257
2.15998
1.31265
0.862971
1.11991
0.656855
0.319106
0.218896
0.0107621
-0.233845
-0.448712
-1.2659
-2.61553
-2.18821
-2.70601
-5.43651
-3.90011
-0.720147
-0.228764
-0.0921478
-0.025931
5.5949
6.3053
7.6903
13.5179
7.20946
4.64675
8.24479
4.71345
2.90534
2.85704
3.89994
6.33792
3.28778
4.4566
7.84881
4.26
2.79197
5.00599
2.90841
1.82072
1.79379
2.49068
4.0484
2.10136
2.82358
4.90452
2.61564
1.54985
1.51824
2.08682
3.39663
1.76966
2.42226
4.27289
2.32292
1.52597
2.73799
1.59051
0.993688
0.977244
1.34259
2.17133
1.11426
1.45124
2.48739
1.30476
0.771708
1.2631
0.664217
0.290177
0.248374
0.0373661
-0.207128
-0.328152
-1.22988
-2.99226
-2.12271
-2.55007
-6.45929
-4.42361
-0.305507
-0.0782979
-0.0307017
-0.00859574
)
;

boundaryField
{
    left
    {
        type            calculated;
        value           uniform 0;
    }
    right
    {
        type            calculated;
        value           uniform 0;
    }
    interface
    {
        type            calculated;
        value           nonuniform List<scalar> 
64
(
5.5949
6.3053
7.6903
13.5179
7.20946
4.64675
8.24479
4.71345
2.90534
2.85704
3.89994
6.33792
3.28778
4.4566
7.84881
4.26
2.79197
5.00599
2.90841
1.82072
1.79379
2.49068
4.0484
2.10136
2.82358
4.90452
2.61564
1.54985
1.51824
2.08682
3.39663
1.76966
2.42226
4.27289
2.32292
1.52597
2.73799
1.59051
0.993688
0.977244
1.34259
2.17133
1.11426
1.45124
2.48739
1.30476
0.771708
1.2631
0.664217
0.290177
0.248374
0.0373661
-0.207128
-0.328152
-1.22988
-2.99226
-2.12271
-2.55007
-6.45929
-4.42361
-0.305507
-0.0782979
-0.0307017
-0.00859574
)
;
    }
    bottom
    {
        type            calculated;
        value           nonuniform List<scalar> 
64
(
0.00773241
0.022961
0.0375033
0.0509724
0.0630751
0.0736257
0.0825448
0.0898443
0.0956054
0.099953
0.103033
0.104998
0.105993
0.106154
0.105611
0.104484
0.102888
0.100933
0.0987204
0.0963392
0.0938646
0.0913543
0.0888488
0.0863727
0.0839378
0.0815464
0.0791937
0.0768702
0.0745622
0.0722528
0.0699224
0.0675503
0.0651163
0.0626034
0.0599989
0.0572953
0.0544889
0.0515785
0.0485626
0.045437
0.0421941
0.0388228
0.0353103
0.0316455
0.0278227
0.0238454
0.01973
0.0155086
0.0112306
0.00696348
0.00279277
-0.00117989
-0.00483996
-0.00806538
-0.0107342
-0.0127343
-0.0139742
-0.0143938
-0.0139734
-0.0127393
-0.0107645
-0.00816548
-0.0050946
-0.00173112
)
;
    }
    defaultFaces
    {
        type            empty;
    }
}


// ************************************************************************* //
