/*--------------------------------*- C++ -*----------------------------------*\
| =========                 |                                                 |
| \\      /  F ield         | OpenFOAM: The Open Source CFD Toolbox           |
|  \\    /   O peration     | Version:  5.x                                   |
|   \\  /    A nd           | Web:      www.OpenFOAM.org                      |
|    \\/     M anipulation  |                                                 |
\*---------------------------------------------------------------------------*/
FoamFile
{
    version     2.0;
    format      ascii;
    class       volScalarField;
    location    "2.4";
    object      gradTy;
}
// * * * * * * * * * * * * * * * * * * * * * * * * * * * * * * * * * * * * * //

dimensions      [0 -1 0 1 0 0 0];

internalField   nonuniform List<scalar> 
2048
(
-27.5098
-27.4759
-27.4093
-27.3118
-27.1863
-27.036
-26.8645
-26.6755
-26.4723
-26.2583
-26.0364
-25.8091
-25.5788
-25.3473
-25.1164
-24.8874
-24.6615
-24.4395
-24.2222
-24.0099
-23.803
-23.6016
-23.4057
-23.2152
-23.03
-22.8501
-22.6753
-22.5057
-22.341
-22.1813
-22.0267
-21.8771
-21.7328
-21.5938
-21.4604
-21.3328
-21.2111
-21.0956
-20.9866
-20.8843
-20.7889
-20.7006
-20.6199
-20.5469
-20.4821
-20.4257
-20.3782
-20.3398
-20.3107
-20.291
-20.2805
-20.279
-20.2859
-20.3005
-20.3215
-20.3478
-20.3776
-20.4093
-20.441
-20.4708
-20.4971
-20.5182
-20.5331
-20.5407
-27.5372
-27.5025
-27.4342
-27.3345
-27.2063
-27.0532
-26.8788
-26.6869
-26.4811
-26.2647
-26.0407
-25.8116
-25.5797
-25.3469
-25.1148
-24.8849
-24.6583
-24.4358
-24.2181
-24.0056
-23.7986
-23.5972
-23.4013
-23.2108
-23.0258
-22.8459
-22.6712
-22.5016
-22.3369
-22.1773
-22.0226
-21.8729
-21.7284
-21.5893
-21.4557
-21.3279
-21.206
-21.0904
-20.9812
-20.8787
-20.7831
-20.6946
-20.6136
-20.5403
-20.4752
-20.4186
-20.3708
-20.3323
-20.3031
-20.2835
-20.2732
-20.2722
-20.2797
-20.2952
-20.3173
-20.3448
-20.3761
-20.4093
-20.4425
-20.4737
-20.5012
-20.5233
-20.5388
-20.5468
-27.5896
-27.5532
-27.4818
-27.3777
-27.2444
-27.0857
-26.9056
-26.7083
-26.4975
-26.2767
-26.0487
-25.8161
-25.5812
-25.3459
-25.1117
-24.88
-24.652
-24.4285
-24.2102
-23.9973
-23.7902
-23.5887
-23.3929
-23.2026
-23.0177
-22.838
-22.6635
-22.4939
-22.3293
-22.1696
-22.0148
-21.8649
-21.7202
-21.5808
-21.4469
-21.3187
-21.1965
-21.0805
-20.971
-20.8681
-20.772
-20.6831
-20.6016
-20.5278
-20.4621
-20.405
-20.3568
-20.3179
-20.2886
-20.2691
-20.2593
-20.2591
-20.2679
-20.2849
-20.3092
-20.3391
-20.3731
-20.4092
-20.4453
-20.4792
-20.5091
-20.5331
-20.55
-20.5586
-27.6649
-27.626
-27.5499
-27.4394
-27.2984
-27.1315
-26.9432
-26.7381
-26.5202
-26.293
-26.0595
-25.8221
-25.583
-25.3441
-25.107
-24.8729
-24.643
-24.4181
-24.1988
-23.9855
-23.7781
-23.5767
-23.3811
-23.1911
-23.0064
-22.827
-22.6526
-22.4831
-22.3186
-22.1588
-22.0039
-21.8538
-21.7087
-21.5688
-21.4344
-21.3057
-21.1831
-21.0666
-20.9566
-20.8532
-20.7566
-20.667
-20.5848
-20.5102
-20.4437
-20.3858
-20.3369
-20.2975
-20.268
-20.2486
-20.2394
-20.2402
-20.2507
-20.2701
-20.2973
-20.3308
-20.3688
-20.4091
-20.4494
-20.4873
-20.5206
-20.5475
-20.5662
-20.5759
-27.7614
-27.7192
-27.6367
-27.5175
-27.3664
-27.1888
-26.9899
-26.7748
-26.5478
-26.3127
-26.0722
-25.8289
-25.5847
-25.3414
-25.1005
-24.8634
-24.6311
-24.4046
-24.1842
-23.9703
-23.7629
-23.5616
-23.3663
-23.1766
-22.9923
-22.8131
-22.639
-22.4697
-22.3053
-22.1455
-21.9903
-21.8399
-21.6944
-21.5539
-21.4189
-21.2896
-21.1662
-21.0492
-20.9386
-20.8346
-20.7373
-20.647
-20.5638
-20.4882
-20.4207
-20.3617
-20.3118
-20.2717
-20.2418
-20.2224
-20.2139
-20.2161
-20.2287
-20.2511
-20.282
-20.3201
-20.3632
-20.4089
-20.4547
-20.4978
-20.5357
-20.5662
-20.5875
-20.5984
-27.8782
-27.8316
-27.741
-27.6108
-27.4469
-27.2558
-27.0439
-26.8167
-26.579
-26.3345
-26.0861
-25.8358
-25.5857
-25.3373
-25.0921
-24.8515
-24.6165
-24.388
-24.1665
-23.9521
-23.7447
-23.5437
-23.3489
-23.1596
-22.9758
-22.797
-22.6232
-22.4542
-22.2898
-22.13
-21.9747
-21.8239
-21.6777
-21.5365
-21.4007
-21.2706
-21.1465
-21.0288
-20.9175
-20.8129
-20.7148
-20.6236
-20.5394
-20.4625
-20.3936
-20.3333
-20.2822
-20.2411
-20.2106
-20.1912
-20.1833
-20.1869
-20.202
-20.2278
-20.2633
-20.3068
-20.3562
-20.4087
-20.4613
-20.5109
-20.5544
-20.5894
-20.6138
-20.6263
-28.0144
-27.9624
-27.8616
-27.7177
-27.5382
-27.331
-27.1036
-26.8624
-26.6125
-26.3575
-26.1002
-25.8425
-25.5858
-25.3318
-25.0817
-24.8371
-24.5991
-24.3685
-24.1459
-23.9311
-23.7238
-23.5234
-23.3292
-23.1406
-22.9573
-22.779
-22.6055
-22.4368
-22.2726
-22.1128
-21.9573
-21.806
-21.6591
-21.5171
-21.3803
-21.2492
-21.1243
-21.0058
-20.8939
-20.7886
-20.6898
-20.5975
-20.5121
-20.4338
-20.3632
-20.3012
-20.2486
-20.2062
-20.1749
-20.1552
-20.1479
-20.153
-20.1707
-20.2004
-20.2411
-20.2911
-20.3479
-20.4084
-20.4692
-20.5265
-20.5768
-20.6171
-20.6451
-20.6595
-28.1697
-28.111
-27.9977
-27.8372
-27.639
-27.4127
-27.1673
-26.9103
-26.6469
-26.3807
-26.114
-25.8483
-25.5847
-25.3245
-25.0692
-24.8202
-24.5788
-24.3461
-24.1223
-23.9073
-23.7005
-23.5009
-23.3076
-23.1199
-22.9372
-22.7594
-22.5863
-22.4179
-22.254
-22.0943
-21.9386
-21.7868
-21.639
-21.4959
-21.3579
-21.2258
-21.0999
-20.9807
-20.8682
-20.7622
-20.6626
-20.5693
-20.4824
-20.4025
-20.33
-20.266
-20.2115
-20.1675
-20.135
-20.1149
-20.1079
-20.1145
-20.135
-20.1689
-20.2154
-20.2726
-20.338
-20.408
-20.4784
-20.5448
-20.6029
-20.6494
-20.6817
-20.6982
-28.3442
-28.2772
-28.1487
-27.9683
-27.7477
-27.4992
-27.2335
-26.9589
-26.6811
-26.4031
-26.1268
-25.8529
-25.5821
-25.3155
-25.0544
-24.8006
-24.5556
-24.3206
-24.0959
-23.881
-23.6751
-23.4767
-23.2845
-23.0978
-22.9158
-22.7385
-22.5659
-22.3979
-22.2344
-22.0749
-21.919
-21.7665
-21.6178
-21.4734
-21.334
-21.2006
-21.0737
-20.9537
-20.8406
-20.7341
-20.6338
-20.5394
-20.4511
-20.3692
-20.2945
-20.2281
-20.1713
-20.1253
-20.0914
-20.0705
-20.0637
-20.0716
-20.0948
-20.1332
-20.186
-20.2514
-20.3266
-20.4074
-20.4889
-20.5659
-20.6331
-20.6866
-20.7235
-20.7424
-28.538
-28.461
-28.3141
-28.1097
-27.863
-27.589
-27.3005
-27.0068
-26.7138
-26.424
-26.1381
-25.8561
-25.578
-25.3046
-25.0373
-24.7783
-24.5295
-24.2921
-24.0666
-23.8523
-23.6477
-23.4509
-23.2603
-23.0747
-22.8934
-22.7166
-22.5445
-22.377
-22.214
-22.0548
-21.8988
-21.7457
-21.5958
-21.4497
-21.3087
-21.1738
-21.0458
-20.9251
-20.8116
-20.7047
-20.6038
-20.5084
-20.4184
-20.3344
-20.2571
-20.188
-20.1285
-20.0802
-20.0443
-20.0223
-20.0153
-20.0244
-20.0502
-20.0932
-20.1527
-20.2271
-20.3133
-20.4065
-20.5008
-20.5899
-20.6674
-20.7288
-20.7709
-20.7922
-28.7518
-28.6626
-28.4936
-28.2607
-27.9833
-27.6802
-27.3665
-27.0524
-26.7438
-26.4424
-26.1475
-25.8577
-25.5723
-25.2918
-25.018
-24.7533
-24.5002
-24.2605
-24.0344
-23.8212
-23.6186
-23.424
-23.2353
-23.0509
-22.8704
-22.694
-22.5222
-22.3554
-22.1931
-22.0344
-21.8784
-21.7246
-21.5732
-21.4253
-21.2822
-21.1456
-21.0164
-20.8951
-20.7814
-20.6744
-20.5731
-20.4767
-20.385
-20.2986
-20.2184
-20.1461
-20.0835
-20.0323
-19.9942
-19.9707
-19.9632
-19.973
-20.0013
-20.0488
-20.1154
-20.1996
-20.2979
-20.4052
-20.5142
-20.617
-20.7062
-20.7761
-20.8238
-20.8477
-28.9862
-28.8824
-28.6867
-28.4201
-28.1072
-27.7711
-27.4297
-27.0943
-26.7702
-26.4579
-26.1547
-25.8577
-25.5652
-25.2774
-24.9964
-24.7253
-24.4677
-24.2256
-23.9994
-23.7878
-23.588
-23.3963
-23.2099
-23.0269
-22.847
-22.6708
-22.4993
-22.3332
-22.1719
-22.014
-21.8581
-21.7035
-21.5505
-21.4002
-21.2548
-21.1161
-20.9857
-20.8638
-20.7502
-20.6434
-20.542
-20.4448
-20.3513
-20.2622
-20.1787
-20.1027
-20.0365
-19.9821
-19.9413
-19.9159
-19.9074
-19.9176
-19.948
-19.9999
-20.0737
-20.1684
-20.2803
-20.4033
-20.529
-20.6475
-20.7497
-20.829
-20.8823
-20.9089
-29.2425
-29.1208
-28.8933
-28.5868
-28.2328
-27.8597
-27.4883
-27.1308
-26.7919
-26.4699
-26.1597
-25.8563
-25.5569
-25.2616
-24.9726
-24.6945
-24.4319
-24.1873
-23.9614
-23.7523
-23.5562
-23.3682
-23.1845
-23.003
-22.8235
-22.6471
-22.4757
-22.3104
-22.1505
-21.9939
-21.8384
-21.6829
-21.5278
-21.3748
-21.2264
-21.0854
-20.9536
-20.8314
-20.7182
-20.6121
-20.511
-20.413
-20.3177
-20.2256
-20.1383
-20.0582
-19.9879
-19.9298
-19.886
-19.8582
-19.8484
-19.8583
-19.8903
-19.9463
-20.0275
-20.1333
-20.2599
-20.4006
-20.5453
-20.6818
-20.7983
-20.8875
-20.9465
-20.9755
-29.5219
-29.3787
-29.1132
-28.7597
-28.3583
-27.944
-27.5405
-27.1605
-26.8078
-26.478
-26.1626
-25.8538
-25.5479
-25.2446
-24.9468
-24.6607
-24.3925
-24.1455
-23.9203
-23.7147
-23.5235
-23.3402
-23.1596
-22.9796
-22.8002
-22.6231
-22.4514
-22.2871
-22.1292
-21.9743
-21.8194
-21.6631
-21.5056
-21.3491
-21.1971
-21.0535
-20.9202
-20.7978
-20.6856
-20.5808
-20.4804
-20.3819
-20.2847
-20.1893
-20.0977
-20.0128
-19.938
-19.8758
-19.8285
-19.798
-19.7862
-19.7954
-19.8283
-19.8879
-19.9763
-20.0937
-20.2365
-20.3968
-20.5632
-20.7201
-20.8525
-20.9519
-21.0162
-21.0475
-29.826
-29.6568
-29.3461
-28.9374
-28.4816
-28.022
-27.5843
-27.1818
-26.8172
-26.4821
-26.1636
-25.8507
-25.5385
-25.227
-24.9192
-24.6237
-24.3493
-24.0998
-23.8759
-23.675
-23.4901
-23.3126
-23.1356
-22.957
-22.7772
-22.5987
-22.4262
-22.2632
-22.1079
-21.9556
-21.8016
-21.6443
-21.4842
-21.3234
-21.167
-21.0202
-20.8854
-20.7631
-20.6525
-20.5498
-20.4507
-20.3519
-20.2525
-20.1536
-20.057
-19.9668
-19.8869
-19.8203
-19.7692
-19.7355
-19.7214
-19.7291
-19.7622
-19.8245
-19.9199
-20.0494
-20.2095
-20.3917
-20.5827
-20.763
-20.9129
-21.0224
-21.0915
-21.1243
-30.1567
-29.9562
-29.5921
-29.1186
-28.6006
-28.0914
-27.618
-27.1934
-26.8192
-26.482
-26.1633
-25.8475
-25.5294
-25.2092
-24.8898
-24.5834
-24.3022
-24.0502
-23.828
-23.6333
-23.4565
-23.2861
-23.1131
-22.9356
-22.755
-22.5739
-22.3999
-22.2385
-22.0869
-21.9381
-21.7854
-21.6271
-21.4638
-21.2977
-21.1359
-20.9856
-20.8491
-20.7272
-20.6189
-20.5192
-20.4221
-20.3232
-20.2217
-20.1188
-20.0167
-19.9203
-19.835
-19.7636
-19.7083
-19.6712
-19.6542
-19.6598
-19.6919
-19.7562
-19.8579
-19.9998
-20.1784
-20.3847
-20.6039
-20.8112
-20.9801
-21.0994
-21.172
-21.2056
-30.5162
-30.2778
-29.8509
-29.3014
-28.7125
-28.1501
-27.6397
-27.1936
-26.8131
-26.478
-26.1623
-25.8448
-25.5212
-25.192
-24.8589
-24.5393
-24.2509
-23.9962
-23.7763
-23.5896
-23.423
-23.2612
-23.0925
-22.9159
-22.7338
-22.5487
-22.372
-22.2127
-22.0663
-21.9222
-21.7711
-21.6117
-21.4448
-21.2722
-21.1038
-20.9495
-20.8113
-20.6899
-20.5849
-20.4893
-20.3952
-20.2963
-20.1925
-20.0854
-19.9768
-19.8734
-19.7823
-19.7058
-19.646
-19.6053
-19.585
-19.5876
-19.6178
-19.6827
-19.7899
-19.9444
-20.1427
-20.3752
-20.6267
-20.8655
-21.055
-21.1831
-21.2574
-21.2905
-30.907
-30.6225
-30.1225
-29.4841
-28.8143
-28.196
-27.6478
-27.1809
-26.7983
-26.4702
-26.1618
-25.8436
-25.5144
-25.1762
-24.8267
-24.4911
-24.1951
-23.9377
-23.7204
-23.5437
-23.3899
-23.2389
-23.0743
-22.8981
-22.7141
-22.523
-22.3419
-22.1856
-22.046
-21.9084
-21.7591
-21.5983
-21.4279
-21.247
-21.0702
-20.9118
-20.7717
-20.6511
-20.5505
-20.4605
-20.3704
-20.2716
-20.1653
-20.0538
-19.9376
-19.8262
-19.729
-19.6473
-19.5828
-19.5383
-19.5143
-19.5132
-19.5401
-19.604
-19.7155
-19.8827
-20.1019
-20.3624
-20.651
-20.927
-21.1387
-21.2736
-21.3471
-21.3783
-31.332
-30.9909
-30.4073
-29.6646
-28.9024
-28.2273
-27.641
-27.1535
-26.7743
-26.4593
-26.163
-25.8443
-25.5095
-25.1632
-24.7934
-24.4378
-24.1349
-23.8746
-23.6596
-23.4958
-23.3579
-23.2199
-23.059
-22.8825
-22.6965
-22.4966
-22.3087
-22.1566
-22.0262
-21.8973
-21.7496
-21.5873
-21.4135
-21.2222
-21.0348
-20.8725
-20.7304
-20.6103
-20.5157
-20.433
-20.3483
-20.2493
-20.1401
-20.0243
-19.8993
-19.7785
-19.6753
-19.5881
-19.5186
-19.4704
-19.4426
-19.4369
-19.4591
-19.5201
-19.6344
-19.8144
-20.0553
-20.345
-20.6765
-20.9975
-21.2325
-21.3713
-21.4406
-21.4678
-31.7947
-31.3834
-30.7058
-29.8405
-28.9725
-28.2425
-27.6181
-27.1096
-26.7409
-26.4458
-26.1678
-25.8476
-25.5067
-25.1546
-24.7592
-24.3783
-24.0702
-23.8067
-23.5929
-23.4457
-23.3272
-23.2055
-23.0469
-22.8691
-22.682
-22.4693
-22.2711
-22.1253
-22.0071
-21.8898
-21.743
-21.5787
-21.4026
-21.1979
-20.9968
-20.8315
-20.6873
-20.5671
-20.4805
-20.407
-20.3294
-20.2296
-20.1171
-19.9976
-19.8619
-19.7299
-19.6212
-19.5287
-19.4538
-19.4022
-19.3702
-19.3594
-19.3752
-19.4311
-19.5459
-19.739
-20.0027
-20.3215
-20.7025
-21.0789
-21.3381
-21.4762
-21.5369
-21.5579
-32.2991
-31.7989
-31.0196
-30.0091
-29.0188
-28.2412
-27.5788
-27.0465
-26.6977
-26.4302
-26.1787
-25.8539
-25.5058
-25.1529
-24.7242
-24.3104
-24.0016
-23.7343
-23.5192
-23.3934
-23.2983
-23.1972
-23.0383
-22.8577
-22.672
-22.441
-22.2273
-22.0912
-21.9887
-21.887
-21.7392
-21.5723
-21.3965
-21.174
-20.955
-20.7892
-20.6424
-20.5207
-20.4448
-20.3827
-20.3147
-20.2126
-20.0962
-19.9745
-19.8256
-19.68
-19.5671
-19.4691
-19.3882
-19.3339
-19.2979
-19.2812
-19.2889
-19.3371
-19.4494
-19.6563
-19.9441
-20.2898
-20.7282
-21.1744
-21.4572
-21.5881
-21.635
-21.6473
-32.8504
-32.2348
-31.3514
-30.1677
-29.0339
-28.224
-27.5232
-26.9609
-26.6452
-26.4131
-26.1991
-25.8632
-25.5055
-25.1615
-24.6888
-24.231
-23.9302
-23.6579
-23.4365
-23.3392
-23.2714
-23.1973
-23.0331
-22.8475
-22.6686
-22.4116
-22.1747
-22.054
-21.9709
-21.8906
-21.7383
-21.5674
-21.397
-21.1507
-20.9078
-20.7461
-20.596
-20.4701
-20.4087
-20.3602
-20.3053
-20.1984
-20.077
-19.9561
-19.7904
-19.6277
-19.5132
-19.4098
-19.3218
-19.266
-19.2259
-19.203
-19.2007
-19.2384
-19.3441
-19.566
-19.8799
-20.2466
-20.7516
-21.2882
-21.5921
-21.7068
-21.7336
-21.7345
-33.4551
-32.6856
-31.7066
-30.3131
-29.0077
-28.1938
-27.4525
-26.8481
-26.5845
-26.3945
-26.2338
-25.8748
-25.5037
-25.1859
-24.653
-24.1355
-23.8582
-23.5783
-23.3417
-23.2836
-23.2466
-23.2086
-23.0308
-22.837
-22.6751
-22.3809
-22.1099
-22.0136
-21.9536
-21.9031
-21.7398
-21.5627
-21.407
-21.1281
-20.8524
-20.7033
-20.5486
-20.4136
-20.3726
-20.3396
-20.3028
-20.1867
-20.0585
-19.9442
-19.7564
-19.5716
-19.4603
-19.3511
-19.2542
-19.1992
-19.155
-19.1256
-19.1113
-19.1354
-19.2288
-19.4679
-19.8119
-20.188
-20.7701
-21.4261
-21.7448
-21.8313
-21.8312
-21.818
-34.122
-33.1412
-32.0938
-30.442
-28.9263
-28.1563
-27.369
-26.701
-26.5178
-26.3734
-26.2898
-25.8874
-25.4958
-25.2339
-24.617
-24.0165
-23.7896
-23.4972
-23.2307
-23.2279
-23.223
-23.2355
-23.0304
-22.8234
-22.6964
-22.349
-22.0278
-21.9707
-21.936
-21.928
-21.7428
-21.5558
-21.4306
-21.106
-20.785
-20.663
-20.5009
-20.3488
-20.3371
-20.3203
-20.3094
-20.1768
-20.0393
-19.9411
-19.7236
-19.5095
-19.4094
-19.2936
-19.1848
-19.134
-19.0854
-19.0498
-19.0213
-19.0288
-19.1017
-19.3621
-19.743
-20.1083
-20.7794
-21.5967
-21.9176
-21.9604
-21.926
-21.8964
-34.8629
-33.5844
-32.5275
-30.551
-28.7703
-28.1219
-27.2765
-26.5095
-26.4498
-26.3469
-26.3767
-25.8984
-25.4749
-25.317
-24.5808
-23.8636
-23.7308
-23.4168
-23.0968
-23.1748
-23.1987
-23.284
-23.0303
-22.802
-22.7399
-22.3156
-21.9217
-21.9274
-21.9164
-21.9704
-21.7459
-21.5427
-21.4741
-21.0845
-20.6996
-20.6286
-20.4542
-20.2721
-20.3037
-20.3013
-20.3286
-20.168
-20.0168
-19.9507
-19.6918
-19.4382
-19.3624
-19.2377
-19.1123
-19.0713
-19.0175
-18.9765
-18.9315
-18.92
-18.9604
-19.2482
-19.6786
-20
-20.773
-21.812
-22.1121
-22.0921
-22.0161
-21.9682
-35.6944
-33.9876
-33.0304
-30.6365
-28.5125
-28.1076
-27.1804
-26.2585
-26.3887
-26.3089
-26.5085
-25.9037
-25.4295
-25.4517
-24.5444
-23.6614
-23.6917
-23.3405
-22.9306
-23.1291
-23.1696
-23.3628
-23.0278
-22.7657
-22.8162
-22.2807
-21.7819
-21.8874
-21.8914
-22.0377
-21.7468
-21.5175
-21.5464
-21.0635
-20.5879
-20.6056
-20.4102
-20.1783
-20.2749
-20.2803
-20.3649
-20.1587
-19.9871
-19.9784
-19.6608
-19.353
-19.322
-19.1844
-19.0349
-19.0126
-18.9513
-18.9068
-18.8423
-18.8108
-18.8015
-19.1255
-19.6273
-19.853
-20.7414
-22.0886
-22.329
-22.2235
-22.0997
-22.0323
-36.6396
-34.3081
-33.6372
-30.6945
-28.1152
-28.1394
-27.0878
-25.9261
-26.3484
-26.2482
-26.705
-25.8974
-25.3427
-25.662
-24.5074
-23.3881
-23.6876
-23.2725
-22.7183
-23.0991
-23.1285
-23.4845
-23.0191
-22.7037
-22.9405
-22.2442
-21.5951
-21.8579
-21.8551
-22.1403
-21.7424
-21.4707
-21.6604
-21.0427
-20.4378
-20.6021
-20.3713
-20.0597
-20.2553
-20.2534
-20.4251
-20.1467
-19.9446
-20.0319
-19.6304
-19.2472
-19.2927
-19.1344
-18.9497
-18.9597
-18.8866
-18.8418
-18.754
-18.7043
-18.6203
-18.9925
-19.6022
-19.6543
-20.6711
-22.4503
-22.5669
-22.3508
-22.1746
-22.0876
-37.7308
-34.4823
-34.3994
-30.7208
-27.5266
-28.2556
-27.0079
-25.4813
-26.3514
-26.1457
-26.9942
-25.8712
-25.1898
-25.9812
-24.4693
-23.0129
-23.7407
-23.2186
-22.4404
-23.0984
-23.0632
-23.6667
-22.9989
-22.6002
-23.1341
-22.2054
-21.3435
-21.8508
-21.7975
-22.2931
-21.7281
-21.3891
-21.8341
-21.0219
-20.2327
-20.6304
-20.3405
-19.9057
-20.2522
-20.2138
-20.5187
-20.1292
-19.8807
-20.1222
-19.5998
-19.1117
-19.281
-19.0887
-18.8526
-18.9159
-18.8224
-18.7831
-18.6666
-18.6051
-18.4103
-18.8462
-19.6227
-19.3869
-20.5428
-22.9294
-22.8215
-22.4694
-22.2391
-22.1335
-39.0129
-34.4176
-35.3917
-30.7102
-26.6759
-28.5111
-26.9518
-24.8802
-26.4328
-25.9708
-27.4152
-25.8138
-24.9358
-26.4553
-24.4287
-22.494
-23.883
-23.1858
-22.0694
-23.1484
-22.9541
-23.9342
-22.9598
-22.433
-23.4264
-22.1635
-21.0024
-21.8848
-21.7023
-22.517
-21.6979
-21.2538
-22.0924
-21.0003
-19.9495
-20.7077
-20.3217
-19.7011
-20.2774
-20.1509
-20.6592
-20.1022
-19.7838
-20.2645
-19.568
-18.9339
-19.2962
-19.0482
-18.7379
-18.8854
-18.7571
-18.7327
-18.579
-18.52
-18.1632
-18.6813
-19.7163
-19.029
-20.3299
-23.5705
-23.0832
-22.574
-22.2916
-22.1696
-40.5474
-33.9834
-36.7196
-30.6566
-25.4687
-28.9826
-26.9324
-24.0624
-26.6451
-25.6761
-28.022
-25.7105
-24.5324
-27.1464
-24.3837
-21.775
-24.1586
-23.1825
-21.5673
-23.2812
-22.7713
-24.3209
-22.8925
-22.1713
-23.8571
-22.1165
-20.5391
-21.9885
-21.5446
-22.8406
-21.644
-21.0384
-22.4688
-20.9768
-19.5575
-20.8582
-20.3194
-19.4253
-20.3485
-20.0483
-20.8649
-20.0604
-19.6376
-20.4796
-19.5335
-18.6971
-19.3515
-19.0137
-18.5974
-18.8746
-18.6876
-18.693
-18.4888
-18.4584
-17.8681
-18.4889
-19.921
-18.5532
-19.9964
-24.4336
-23.3353
-22.6588
-22.331
-22.1959
-42.4179
-32.9989
-38.5287
-30.5516
-23.7805
-29.7742
-26.9641
-22.9459
-27.0654
-25.1916
-28.8878
-25.5423
-23.9142
-28.1369
-24.3313
-20.7812
-24.628
-23.2186
-20.8831
-23.5442
-22.4706
-24.8734
-22.7847
-21.7736
-24.4792
-22.0617
-19.9104
-22.2034
-21.2875
-23.3029
-21.5561
-20.7077
-23.008
-20.95
-19.0157
-21.1149
-20.339
-19.0501
-20.4913
-19.882
-21.161
-19.997
-19.4203
-20.7949
-19.4938
-18.3792
-19.4652
-18.9855
-18.4205
-18.8928
-18.6095
-18.668
-18.392
-18.4336
-17.5115
-18.2553
-20.2883
-17.9255
-19.4939
-25.5986
-23.5512
-22.7184
-22.3567
-22.2127
-44.7352
-31.22
-41.016
-30.3834
-21.4497
-31.0245
-27.0622
-21.4217
-27.8026
-24.4165
-30.1106
-25.285
-22.995
-29.5345
-24.2669
-19.4157
-25.3714
-23.305
-19.9485
-24.0046
-21.9884
-25.6534
-22.6211
-21.1848
-25.3612
-21.9941
-19.0596
-22.5883
-20.8773
-23.9557
-21.4214
-20.2147
-23.7677
-20.917
-18.2709
-21.521
-20.3861
-18.5376
-20.742
-19.6167
-21.5806
-19.9028
-19.1025
-21.2458
-19.4445
-17.9507
-19.6608
-18.9623
-18.1921
-18.9513
-18.5145
-18.6616
-18.2804
-18.4625
-17.0754
-17.9581
-20.8841
-17.1027
-18.7571
-27.1678
-23.6879
-22.7468
-22.3669
-22.2184
)
;

boundaryField
{
    left
    {
        type            calculated;
        value           nonuniform List<scalar> 
32
(
-27.5098
-27.5372
-27.5896
-27.6649
-27.7614
-27.8782
-28.0144
-28.1697
-28.3442
-28.538
-28.7518
-28.9862
-29.2425
-29.5219
-29.826
-30.1567
-30.5162
-30.907
-31.332
-31.7947
-32.2991
-32.8504
-33.4551
-34.122
-34.8629
-35.6944
-36.6396
-37.7308
-39.0129
-40.5474
-42.4179
-44.7352
)
;
    }
    right
    {
        type            calculated;
        value           nonuniform List<scalar> 
32
(
-20.5407
-20.5468
-20.5586
-20.5759
-20.5984
-20.6263
-20.6595
-20.6982
-20.7424
-20.7922
-20.8477
-20.9089
-20.9755
-21.0475
-21.1243
-21.2056
-21.2905
-21.3783
-21.4678
-21.5579
-21.6473
-21.7345
-21.818
-21.8964
-21.9682
-22.0323
-22.0876
-22.1335
-22.1696
-22.1959
-22.2127
-22.2184
)
;
    }
    interface
    {
        type            calculated;
        value           nonuniform List<scalar> 
64
(
-46.0215
-30.097
-42.4573
-30.2818
-20.101
-31.784
-27.1298
-20.5422
-28.2663
-23.9415
-30.8252
-25.1307
-22.4479
-30.3501
-24.2309
-18.6265
-25.823
-23.3622
-19.4088
-24.2939
-21.6926
-26.1092
-22.5232
-20.8348
-25.8769
-21.9564
-18.5706
-22.8318
-20.6261
-24.3372
-21.3406
-19.9209
-24.2109
-20.8986
-17.8402
-21.7675
-20.4171
-18.2416
-20.8996
-19.454
-21.826
-19.8466
-18.9141
-21.51
-19.4168
-17.7046
-19.7822
-18.9517
-18.0627
-18.9922
-18.4614
-18.6635
-18.2195
-18.4926
-16.8349
-17.7901
-21.2482
-16.6363
-18.3206
-28.0678
-23.7299
-22.7522
-22.3676
-22.218
)
;
    }
    bottom
    {
        type            calculated;
        value           nonuniform List<scalar> 
64
(
-27.5027
-27.469
-27.4028
-27.3059
-27.1811
-27.0315
-26.8608
-26.6725
-26.47
-26.2566
-26.0352
-25.8085
-25.5785
-25.3474
-25.1168
-24.888
-24.6623
-24.4405
-24.2233
-24.0111
-23.8042
-23.6028
-23.4068
-23.2163
-23.0311
-22.8512
-22.6764
-22.5067
-22.3421
-22.1824
-22.0278
-21.8782
-21.7339
-21.595
-21.4616
-21.334
-21.2124
-21.097
-20.9881
-20.8858
-20.7904
-20.7022
-20.6215
-20.5486
-20.4839
-20.4276
-20.3802
-20.3418
-20.3127
-20.2929
-20.2824
-20.2808
-20.2875
-20.3019
-20.3226
-20.3485
-20.378
-20.4093
-20.4406
-20.4701
-20.496
-20.5169
-20.5316
-20.5391
)
;
    }
    defaultFaces
    {
        type            empty;
    }
}


// ************************************************************************* //
