/*--------------------------------*- C++ -*----------------------------------*\
| =========                 |                                                 |
| \\      /  F ield         | OpenFOAM: The Open Source CFD Toolbox           |
|  \\    /   O peration     | Version:  5.x                                   |
|   \\  /    A nd           | Web:      www.OpenFOAM.org                      |
|    \\/     M anipulation  |                                                 |
\*---------------------------------------------------------------------------*/
FoamFile
{
    version     2.0;
    format      ascii;
    class       volScalarField;
    location    "2.4";
    object      T;
}
// * * * * * * * * * * * * * * * * * * * * * * * * * * * * * * * * * * * * * //

dimensions      [0 0 0 1 0 0 0];

internalField   nonuniform List<scalar> 
2048
(
9.80241
9.80266
9.80313
9.80383
9.80472
9.8058
9.80702
9.80838
9.80983
9.81137
9.81296
9.81459
9.81624
9.8179
9.81955
9.8212
9.82282
9.82441
9.82597
9.8275
9.82898
9.83043
9.83184
9.83321
9.83454
9.83583
9.83709
9.83831
9.83949
9.84064
9.84175
9.84282
9.84386
9.84486
9.84581
9.84673
9.8476
9.84843
9.84922
9.84995
9.85064
9.85127
9.85185
9.85237
9.85284
9.85324
9.85358
9.85386
9.85407
9.85421
9.85429
9.8543
9.85425
9.85415
9.854
9.85381
9.8536
9.85337
9.85315
9.85294
9.85275
9.8526
9.8525
9.85244
9.41568
9.4164
9.41782
9.41989
9.42256
9.42576
9.42941
9.43343
9.43775
9.4423
9.44702
9.45185
9.45674
9.46166
9.46657
9.47143
9.47623
9.48095
9.48556
9.49007
9.49446
9.49874
9.5029
9.50695
9.51088
9.5147
9.51841
9.52202
9.52552
9.52891
9.53219
9.53537
9.53843
9.54139
9.54422
9.54693
9.54952
9.55197
9.55428
9.55646
9.55848
9.56036
9.56207
9.56362
9.565
9.5662
9.56721
9.56802
9.56864
9.56906
9.56928
9.56931
9.56917
9.56886
9.56841
9.56785
9.56721
9.56653
9.56586
9.56522
9.56466
9.56421
9.5639
9.56373
9.04532
9.04651
9.04887
9.0523
9.05672
9.06201
9.06803
9.07465
9.08176
9.08925
9.09699
9.10492
9.11295
9.12101
9.12905
9.13701
9.14486
9.15257
9.16012
9.16748
9.17466
9.18165
9.18844
9.19505
9.20147
9.2077
9.21376
9.21964
9.22535
9.23089
9.23626
9.24144
9.24645
9.25128
9.25591
9.26034
9.26456
9.26857
9.27236
9.27591
9.27922
9.28229
9.2851
9.28763
9.28989
9.29185
9.2935
9.29484
9.29585
9.29653
9.29689
9.29693
9.29667
9.29615
9.29539
9.29445
9.29338
9.29224
9.2911
9.29003
9.28909
9.28833
9.2878
9.28753
8.69033
8.692
8.6953
8.70011
8.70628
8.71365
8.72203
8.73123
8.74109
8.75145
8.76216
8.7731
8.78417
8.79527
8.80634
8.81729
8.82809
8.83868
8.84903
8.85914
8.86898
8.87855
8.88786
8.89691
8.90571
8.91425
8.92255
8.93061
8.93844
8.94603
8.95338
8.9605
8.96737
8.97399
8.98034
8.98642
8.99222
8.99772
9.00292
9.0078
9.01235
9.01656
9.02042
9.02391
9.02701
9.02971
9.03199
9.03383
9.03522
9.03615
9.03663
9.03667
9.03629
9.03553
9.03444
9.0331
9.03157
9.02994
9.02832
9.02679
9.02545
9.02437
9.02361
9.02322
8.3498
8.35197
8.35623
8.36245
8.37041
8.37989
8.39064
8.40242
8.41501
8.4282
8.44182
8.45571
8.46975
8.48381
8.49781
8.51166
8.52529
8.53866
8.55171
8.56444
8.57683
8.58888
8.60059
8.61198
8.62304
8.63379
8.64423
8.65438
8.66422
8.67378
8.68304
8.692
8.70065
8.70899
8.717
8.72467
8.73198
8.73891
8.74547
8.75162
8.75736
8.76268
8.76755
8.77197
8.77589
8.77931
8.78219
8.78452
8.78627
8.78744
8.78803
8.78805
8.78753
8.78652
8.78508
8.78329
8.78127
8.77912
8.77697
8.77495
8.77317
8.77174
8.77074
8.77022
8.02291
8.0256
8.03087
8.03855
8.04835
8.05999
8.07314
8.08752
8.10283
8.11884
8.13533
8.15212
8.16906
8.18601
8.20286
8.21952
8.2359
8.25193
8.26759
8.28283
8.29766
8.31208
8.32608
8.33969
8.35292
8.36577
8.37826
8.39039
8.40217
8.4136
8.42468
8.43542
8.44579
8.45578
8.46538
8.47457
8.48333
8.49165
8.4995
8.50688
8.51377
8.52016
8.52601
8.53132
8.53605
8.54017
8.54364
8.54644
8.54855
8.54995
8.55063
8.55062
8.54994
8.54864
8.54681
8.54455
8.54199
8.53927
8.53655
8.53398
8.53173
8.52991
8.52865
8.52799
7.70889
7.71213
7.71848
7.72768
7.73941
7.75327
7.76889
7.78589
7.80394
7.82275
7.84208
7.86173
7.88151
7.90129
7.92092
7.9403
7.95934
7.97795
7.9961
8.01376
8.03092
8.04759
8.06378
8.07952
8.0948
8.10966
8.1241
8.13813
8.15176
8.16499
8.17782
8.19025
8.20226
8.21385
8.22498
8.23564
8.2458
8.25544
8.26455
8.27311
8.28111
8.28852
8.29533
8.30151
8.30702
8.31182
8.31588
8.31915
8.32161
8.32322
8.32399
8.32393
8.32306
8.32146
8.3192
8.31642
8.31326
8.30991
8.30655
8.30339
8.30061
8.29838
8.29682
8.29602
7.40704
7.41087
7.41836
7.42919
7.44294
7.45913
7.47728
7.49695
7.51776
7.53937
7.56151
7.58397
7.60655
7.62908
7.65143
7.67346
7.69507
7.71618
7.73673
7.7567
7.77608
7.7949
7.81318
7.83093
7.84819
7.86496
7.88126
7.89711
7.91249
7.92744
7.94194
7.956
7.9696
7.98272
7.99532
8.0074
8.0189
8.02982
8.04014
8.04983
8.0589
8.06731
8.07504
8.08207
8.08835
8.09383
8.09846
8.1022
8.10499
8.10682
8.10767
8.10754
8.10647
8.10452
8.1018
8.09844
8.09463
8.09058
8.08653
8.08271
8.07935
8.07665
8.07477
8.0738
7.1167
7.12117
7.12989
7.14247
7.15836
7.17698
7.19775
7.22015
7.24373
7.26814
7.29307
7.3183
7.34362
7.36887
7.39387
7.41848
7.44259
7.4661
7.48895
7.51113
7.53264
7.55351
7.57376
7.59344
7.61257
7.63117
7.64925
7.66682
7.68389
7.70048
7.71658
7.7322
7.74732
7.76192
7.77595
7.78939
7.80219
7.81434
7.82582
7.8366
7.84669
7.85607
7.86471
7.87257
7.8796
7.88575
7.89095
7.89515
7.89828
7.90032
7.90124
7.90103
7.89974
7.89742
7.89419
7.89021
7.88568
7.88086
7.87602
7.87147
7.86747
7.86426
7.86202
7.86087
6.83724
6.84242
6.85249
6.86694
6.88511
6.90629
6.92978
6.95497
6.98136
7.00855
7.03625
7.06421
7.09223
7.12013
7.14773
7.17486
7.20139
7.22722
7.25229
7.27658
7.30011
7.32291
7.34505
7.36656
7.38748
7.40782
7.42759
7.44681
7.46548
7.48363
7.50127
7.51839
7.53498
7.551
7.56641
7.58117
7.59523
7.60856
7.62115
7.63298
7.64406
7.65437
7.66388
7.67256
7.68033
7.68715
7.69292
7.69758
7.70106
7.70331
7.70429
7.704
7.70247
7.69975
7.69597
7.6913
7.68598
7.68031
7.67461
7.66925
7.66454
7.66077
7.65814
7.6568
6.5681
6.57404
6.58559
6.60209
6.62271
6.64659
6.67291
6.70095
6.73017
6.76014
6.79056
6.82121
6.85188
6.88238
6.91252
6.94211
6.971
6.99908
7.02627
7.05256
7.07801
7.10265
7.12658
7.14983
7.17244
7.19444
7.21583
7.23661
7.25682
7.27647
7.29557
7.31414
7.33214
7.34954
7.36628
7.38231
7.39758
7.41205
7.42571
7.43855
7.45058
7.46179
7.47215
7.48163
7.49014
7.49762
7.50397
7.50909
7.51292
7.51538
7.51643
7.51605
7.51426
7.51112
7.50675
7.50133
7.49515
7.48854
7.48189
7.47563
7.47014
7.46576
7.46271
7.46115
6.30871
6.31552
6.32869
6.34742
6.37069
6.39743
6.42668
6.45764
6.4897
6.52243
6.55555
6.58884
6.6221
6.65516
6.68779
6.71978
6.75097
6.78121
6.81043
6.83864
6.86589
6.89227
6.91788
6.94278
6.96702
6.9906
7.01353
7.03581
7.05747
7.07854
7.09905
7.119
7.13837
7.15711
7.17515
7.19242
7.20885
7.22441
7.23909
7.25289
7.26583
7.27791
7.28911
7.29937
7.30863
7.31677
7.32369
7.32929
7.33347
7.33615
7.33727
7.3368
7.33475
7.33116
7.32615
7.31994
7.31281
7.30517
7.29748
7.29023
7.28388
7.27882
7.27532
7.27354
6.05856
6.06633
6.08131
6.10249
6.12861
6.15839
6.1907
6.22463
6.25954
6.295
6.33076
6.36663
6.40244
6.438
6.47307
6.50743
6.54085
6.57318
6.60434
6.63436
6.66332
6.69134
6.71854
6.745
6.77078
6.79587
6.82028
6.84399
6.86703
6.88945
6.9113
6.93258
6.95327
6.97331
6.99261
7.01108
7.02864
7.04525
7.06091
7.07563
7.08944
7.10236
7.11436
7.12541
7.13539
7.1442
7.15171
7.15779
7.16233
7.16524
7.16644
7.16589
7.16356
7.15951
7.15384
7.14676
7.13861
7.12984
7.12099
7.11265
7.10537
7.09959
7.09561
7.09358
5.81715
5.826
5.84299
5.86687
5.89608
5.92909
5.96458
6.00154
6.03929
6.07744
6.11577
6.15416
6.19245
6.23047
6.26796
6.30463
6.34023
6.37457
6.4076
6.43932
6.46987
6.49942
6.52811
6.55607
6.58332
6.60986
6.63568
6.66074
6.68509
6.70879
6.73191
6.75448
6.77645
6.79776
6.8183
6.83793
6.85658
6.8742
6.89078
6.90637
6.92101
6.93474
6.94754
6.95935
6.97006
6.97955
6.98766
6.99423
6.99915
7.00229
7.00358
7.00295
7.00035
6.99582
6.98945
6.98146
6.97221
6.96221
6.95209
6.94254
6.93424
6.92769
6.9232
6.92092
5.58401
5.59408
5.61332
5.64017
5.67274
5.70917
5.74796
5.788
5.82858
5.86934
5.91017
5.951
5.99173
6.03216
6.07202
6.11097
6.1487
6.185
6.21979
6.25311
6.28514
6.31611
6.34621
6.37557
6.40424
6.43218
6.45934
6.48569
6.51127
6.53618
6.56052
6.58431
6.60754
6.6301
6.65184
6.67262
6.69232
6.71089
6.72835
6.74476
6.76019
6.77469
6.78826
6.80083
6.81229
6.82246
6.83117
6.83825
6.84356
6.84695
6.84834
6.84764
6.84479
6.83978
6.83268
6.82372
6.81328
6.80194
6.79042
6.77956
6.77015
6.76278
6.75776
6.75523
5.35869
5.37013
5.39189
5.42204
5.45825
5.49831
5.54053
5.58368
5.62703
5.67033
5.71355
5.75675
5.79985
5.84265
5.88487
5.92608
5.96589
6.00408
6.04054
6.07535
6.10875
6.14102
6.17244
6.20314
6.23316
6.26245
6.29091
6.31848
6.34522
6.37126
6.39675
6.42173
6.44617
6.46995
6.49289
6.51478
6.5355
6.555
6.57328
6.59045
6.60661
6.62186
6.63619
6.64952
6.66172
6.67259
6.68192
6.68952
6.69522
6.69889
6.70039
6.69964
6.69654
6.69105
6.68321
6.67323
6.66152
6.64872
6.63567
6.62336
6.61276
6.60452
6.59897
6.59619
5.14074
5.15375
5.17834
5.21213
5.2523
5.29621
5.34196
5.38824
5.43431
5.48003
5.52554
5.57102
5.61642
5.66156
5.70611
5.74957
5.79143
5.83144
5.86949
5.90568
5.94031
5.97378
6.00643
6.0384
6.06972
6.10032
6.13004
6.15876
6.18657
6.21367
6.24025
6.26638
6.292
6.317
6.34112
6.36411
6.38581
6.40618
6.42524
6.44311
6.45996
6.47592
6.49098
6.50506
6.51802
6.52961
6.53958
6.54771
6.55382
6.55776
6.5594
6.55861
6.55529
6.54933
6.54075
6.5297
6.51664
6.50227
6.48753
6.47363
6.46174
6.45261
6.44653
6.44351
4.92975
4.94455
4.9723
5.01015
5.05463
5.10259
5.15197
5.20139
5.2501
5.2981
5.34577
5.39343
5.44107
5.4885
5.5354
5.5811
5.62497
5.66673
5.70629
5.74373
5.77947
5.81402
5.84781
5.88099
5.91356
5.94546
5.9764
6.00621
6.03501
6.06308
6.09069
6.11792
6.1447
6.17091
6.19621
6.22027
6.24294
6.26414
6.2839
6.30241
6.3199
6.33653
6.35232
6.36715
6.38088
6.39321
6.40382
6.41249
6.41903
6.42327
6.42506
6.42426
6.42074
6.41434
6.405
6.39285
6.37835
6.36229
6.34571
6.33004
6.31678
6.30675
6.30015
6.29691
4.72532
4.74215
4.77344
4.81581
4.86497
4.91718
4.97029
5.02284
5.07406
5.12419
5.17385
5.2236
5.27343
5.32311
5.37236
5.42033
5.46617
5.50963
5.55061
5.58917
5.62587
5.66138
5.69624
5.73058
5.76437
5.79754
5.82969
5.86052
5.89021
5.91916
5.94774
5.97603
6.00394
6.03137
6.05787
6.08298
6.10657
6.12856
6.14897
6.16805
6.18612
6.2034
6.21989
6.23548
6.24999
6.26308
6.27435
6.28358
6.29056
6.2951
6.29706
6.29629
6.2926
6.28578
6.2757
6.26241
6.2464
6.22853
6.20992
6.19231
6.17758
6.16664
6.15957
6.15613
4.52704
4.54621
4.58145
4.62884
4.68309
4.73973
4.79664
4.85232
4.9059
4.95796
5.00944
5.0612
5.11314
5.16502
5.21667
5.26694
5.3147
5.35981
5.40213
5.44168
5.47919
5.51552
5.55138
5.58683
5.6218
5.65626
5.68962
5.72138
5.75186
5.78159
5.8111
5.84041
5.86942
5.89809
5.9258
5.95195
5.97644
5.99918
6.02016
6.03974
6.05831
6.07622
6.09341
6.10973
6.12507
6.13895
6.15088
6.16067
6.16811
6.17296
6.17511
6.17439
6.17058
6.16339
6.15258
6.13812
6.12053
6.10075
6.07991
6.06013
6.04385
6.03203
6.02454
6.02095
4.33453
4.35641
4.39602
4.449
4.50882
4.57
4.63078
4.68958
4.74533
4.79909
4.85217
4.90586
4.95988
5.01389
5.068
5.12064
5.17027
5.21697
5.26057
5.30095
5.33911
5.37611
5.41292
5.44945
5.48554
5.52132
5.55591
5.58853
5.61967
5.65006
5.68046
5.71076
5.74084
5.77078
5.79975
5.82689
5.85226
5.87573
5.8972
5.91718
5.93621
5.95472
5.97259
5.98964
6.00583
6.02054
6.03314
6.0435
6.05141
6.05658
6.05893
6.05829
6.05441
6.04691
6.03541
6.01975
6.0005
5.97872
5.95543
5.9332
5.91529
5.90265
5.89483
5.89113
4.14742
4.17246
4.21685
4.27609
4.34197
4.40774
4.47244
4.53437
4.59206
4.64727
4.7017
4.75728
4.81332
4.86934
4.92602
4.98116
5.03255
5.0808
5.12565
5.16668
5.20531
5.24283
5.28056
5.31813
5.35528
5.39245
5.42832
5.46169
5.49337
5.5243
5.55555
5.58682
5.6179
5.64918
5.67946
5.70756
5.73377
5.75795
5.77982
5.80013
5.81951
5.83862
5.85717
5.87493
5.89201
5.9076
5.92086
5.9318
5.94019
5.94568
5.94825
5.94772
5.94382
5.93607
5.92394
5.90704
5.88608
5.86223
5.83625
5.81123
5.79163
5.77827
5.77023
5.76649
3.96533
3.99411
4.04363
4.1099
4.18244
4.25272
4.32138
4.38649
4.4458
4.50218
4.55767
4.61513
4.67316
4.73104
4.79046
4.84824
4.90125
4.95102
4.99711
5.03858
5.07751
5.11535
5.154
5.19261
5.23071
5.26938
5.30663
5.34061
5.37269
5.40399
5.43609
5.46832
5.50031
5.53302
5.56472
5.59368
5.62073
5.64561
5.66778
5.68831
5.70795
5.72766
5.7469
5.76531
5.78336
5.79989
5.81378
5.82531
5.8342
5.84
5.8428
5.84242
5.83856
5.83063
5.81794
5.79979
5.77702
5.75112
5.72216
5.69391
5.67259
5.65866
5.65053
5.64682
3.78787
3.82116
3.87606
3.95025
4.03015
4.10467
4.17733
4.24575
4.30628
4.36353
4.4197
4.47913
4.53916
4.59861
4.66101
4.7217
4.77608
4.82733
4.87472
4.91638
4.95542
4.99335
5.03299
5.07264
5.11153
5.15186
5.19064
5.22505
5.25738
5.28885
5.32185
5.35503
5.38779
5.42206
5.4553
5.485
5.51288
5.5385
5.56082
5.58148
5.60126
5.62162
5.64155
5.66053
5.67963
5.6972
5.71166
5.72378
5.7332
5.73929
5.74233
5.74212
5.73837
5.73036
5.71722
5.69776
5.6731
5.64521
5.61298
5.58093
5.5579
5.54361
5.53556
5.53196
3.61465
3.65349
3.71377
3.79699
3.88508
3.96329
4.04003
4.112
4.17321
4.23107
4.28743
4.34902
4.41108
4.47166
4.53741
4.60135
4.6567
4.70947
4.75829
4.7998
4.83878
4.8765
4.91726
4.958
4.99741
5.03964
5.08019
5.11476
5.1472
5.17858
5.21259
5.24673
5.28002
5.31606
5.35105
5.38127
5.40999
5.43643
5.45872
5.47942
5.49918
5.52025
5.5409
5.56033
5.5806
5.59934
5.61426
5.62697
5.63698
5.6433
5.6466
5.64659
5.64302
5.63501
5.62157
5.60074
5.57407
5.5444
5.50856
5.47193
5.44731
5.43293
5.42516
5.42175
3.44526
3.49107
3.55637
3.64995
3.74732
3.82823
3.90919
3.98514
4.04627
4.10454
4.16044
4.22456
4.28874
4.34976
4.41938
4.4871
4.5428
4.59714
4.64767
4.68857
4.72737
4.76448
4.8066
4.8485
4.88801
4.9325
4.97514
5.0095
5.04194
5.07289
5.10809
5.14326
5.1767
5.2148
5.25182
5.28222
5.31181
5.33922
5.36123
5.38192
5.40144
5.42337
5.44478
5.46442
5.48606
5.50612
5.52133
5.53467
5.54532
5.55181
5.55538
5.55558
5.55227
5.54436
5.53083
5.50854
5.47965
5.4486
5.40878
5.36655
5.34056
5.32646
5.31916
5.31603
3.27922
3.33404
3.40334
3.50901
3.61703
3.69908
3.78452
3.86514
3.92515
3.98376
4.03827
4.10553
4.17204
4.23243
4.30668
4.37891
4.434
4.49006
4.54273
4.58239
4.62099
4.6569
4.7008
4.744
4.78295
4.8302
4.87542
4.90901
4.94142
4.97144
5.00817
5.04447
5.0775
5.11806
5.15751
5.18757
5.21813
5.24674
5.26813
5.28879
5.30776
5.33076
5.35302
5.37253
5.39579
5.41741
5.43263
5.44663
5.45804
5.46458
5.46845
5.46886
5.46589
5.45818
5.44482
5.42095
5.38957
5.35777
5.31358
5.26433
5.23744
5.22404
5.21743
5.21465
3.11601
3.18271
3.25407
3.37405
3.49454
3.57529
3.66569
3.75206
3.80943
3.86859
3.92041
3.99177
4.06093
4.11911
4.19908
4.27684
4.32988
4.38794
4.44343
4.48093
4.51947
4.55339
4.59968
4.64441
4.68181
4.73254
4.781
4.81302
4.84548
4.87388
4.91265
4.95026
4.98202
5.02565
5.06809
5.09703
5.12869
5.15889
5.17916
5.19986
5.21785
5.24227
5.2655
5.28436
5.3096
5.3331
5.3479
5.36266
5.37498
5.38138
5.38561
5.3862
5.38368
5.37622
5.36343
5.3378
5.30345
5.27191
5.22296
5.16478
5.13774
5.12556
5.11984
5.11749
2.95501
3.03765
3.10774
3.24494
3.38035
3.45621
3.55236
3.64606
3.69864
3.75901
3.80626
3.88314
3.95549
4.00914
4.09635
4.18106
4.22994
4.29047
4.3498
4.38384
4.42273
4.45349
4.5031
4.54972
4.58412
4.63933
4.69193
4.72119
4.75404
4.77983
4.8214
4.8606
4.88983
4.93736
4.98357
5.01025
5.04328
5.07562
5.09405
5.11503
5.13139
5.15773
5.18212
5.19958
5.22731
5.25311
5.26689
5.28255
5.29598
5.30198
5.30665
5.3074
5.30543
5.29824
5.28655
5.25894
5.2209
5.19109
5.13699
5.06729
5.0413
5.03091
5.02627
5.0244
2.79546
2.89978
2.96326
3.12161
3.27518
3.34097
3.44415
3.54748
3.59217
3.6551
3.69511
3.77957
3.85593
3.9017
3.99828
4.09188
4.13358
4.19735
4.26198
4.29066
4.33078
4.35669
4.41095
4.45999
4.48928
4.55036
4.60833
4.63314
4.66708
4.68882
4.7343
4.77554
4.80045
4.85302
4.90407
4.92683
4.96165
4.99693
5.01249
5.03422
5.04805
5.07703
5.10287
5.11781
5.14875
5.17744
5.18929
5.20609
5.22094
5.22614
5.23142
5.23222
5.23096
5.22398
5.21411
5.18423
5.1414
5.11546
5.05583
4.97111
4.94802
4.94002
4.93661
4.93526
2.63644
2.77047
2.81924
3.00397
3.18003
3.22845
3.34066
3.45684
3.48922
3.55715
3.58606
3.68104
3.76262
3.79583
3.90468
4.00982
4.04007
4.10825
4.18023
4.20086
4.24372
4.26236
4.32315
4.37541
4.39663
4.46548
4.53044
4.54837
4.58468
4.60033
4.65126
4.69521
4.71326
4.77247
4.8298
4.84631
4.88356
4.9229
4.93411
4.95743
4.96741
5.00005
5.02775
5.03862
5.07377
5.10612
5.11479
5.13309
5.14978
5.15362
5.15976
5.16046
5.16009
5.15315
5.14607
5.11359
5.06434
5.04521
4.97977
4.87532
4.85789
4.85281
4.85075
4.84993
2.47679
2.65163
2.67383
2.89195
3.09627
3.11725
3.24148
3.3749
3.38877
3.46569
3.47806
3.58757
3.67612
3.69031
3.81538
3.93558
3.94851
4.02283
4.10495
4.11372
4.16184
4.16978
4.23968
4.29629
4.30535
4.38453
4.45861
4.46626
4.50704
4.51371
4.57226
4.61985
4.62756
4.69555
4.76109
4.76814
4.80877
4.8537
4.85848
4.88476
4.88902
4.92671
4.95687
4.96153
5.00222
5.03926
5.04299
5.06338
5.08247
5.08414
5.09153
5.0919
5.0927
5.08542
5.08245
5.04699
4.98894
4.98066
4.90925
4.7788
4.77101
4.76926
4.76857
4.7683
)
;

boundaryField
{
    left
    {
        type            zeroGradient;
    }
    right
    {
        type            zeroGradient;
    }
    interface
    {
        type            fixedValue;
        value           nonuniform List<scalar> 
64
(
2.39413
2.59758
2.59758
2.83757
3.06016
3.06016
3.19275
3.33801
3.33801
3.42269
3.42269
3.54243
3.6358
3.6358
3.77186
3.90213
3.90213
3.98087
4.07009
4.07009
4.12288
4.12288
4.19922
4.25887
4.25887
4.34509
4.42526
4.42526
4.47
4.47
4.53393
4.58408
4.58408
4.65802
4.72905
4.72905
4.7721
4.82094
4.82094
4.84982
4.84982
4.89107
4.9229
4.9229
4.96735
5.00747
5.00747
5.02934
5.05003
5.05003
5.05838
5.05838
5.05998
5.05221
5.05221
5.01504
4.95078
4.95078
4.87635
4.7284
4.7284
4.7284
4.7284
4.7284
)
;
    }
    bottom
    {
        type            fixedValue;
        value           uniform 10;
    }
    defaultFaces
    {
        type            empty;
    }
}


// ************************************************************************* //
