/*--------------------------------*- C++ -*----------------------------------*\
| =========                 |                                                 |
| \\      /  F ield         | OpenFOAM: The Open Source CFD Toolbox           |
|  \\    /   O peration     | Version:  5.x                                   |
|   \\  /    A nd           | Web:      www.OpenFOAM.org                      |
|    \\/     M anipulation  |                                                 |
\*---------------------------------------------------------------------------*/
FoamFile
{
    version     2.0;
    format      ascii;
    class       volScalarField;
    location    "16.8";
    object      T;
}
// * * * * * * * * * * * * * * * * * * * * * * * * * * * * * * * * * * * * * //

dimensions      [0 0 0 1 0 0 0];

internalField   nonuniform List<scalar> 
6300
(
9.967
9.90223
9.84115
9.78617
9.73961
9.70365
9.68032
9.67136
9.67822
9.70193
9.74306
9.80162
9.87705
9.9682
10.0734
9.96576
9.89853
9.83504
9.77774
9.72898
9.69101
9.66592
9.65552
9.66134
9.68448
9.72558
9.7847
9.86128
9.95413
10.0615
9.96327
9.89109
9.82274
9.76074
9.70754
9.66549
9.63679
9.62343
9.62709
9.64904
9.69005
9.75028
9.82919
9.92551
10.0373
9.9595
9.87982
9.80409
9.73494
9.67493
9.62659
9.59231
9.5743
9.57451
9.59449
9.63525
9.69712
9.77963
9.8814
10.0002
9.95441
9.86458
9.77886
9.69997
9.63064
9.57361
9.53152
9.50692
9.50214
9.51913
9.5593
9.62329
9.71077
9.82022
9.94899
9.94795
9.84525
9.74678
9.65541
9.57405
9.50566
9.45322
9.4197
9.40796
9.42055
9.45948
9.52594
9.61987
9.73969
9.88214
9.94008
9.82167
9.7076
9.60084
9.50448
9.42173
9.35596
9.31068
9.28942
9.29558
9.33211
9.40107
9.50302
9.63646
9.79736
9.93077
9.79374
9.6611
9.53587
9.42128
9.32079
9.2382
9.17762
9.14344
9.14021
9.17227
9.24315
9.35466
9.50571
9.69139
9.92001
9.76144
9.60717
9.46024
9.32395
9.20195
9.09842
9.01812
8.96647
8.94951
8.97356
9.04457
9.16669
9.34028
9.55959
9.90783
9.72483
9.5459
9.37397
9.2123
9.06462
8.93538
8.82994
8.75479
8.71775
8.72787
8.79484
8.92722
9.12907
9.39482
9.89431
9.68414
9.47763
9.27744
9.08664
8.90884
8.74853
8.61144
8.50498
8.4388
8.4253
8.47964
8.61824
8.8539
9.18536
9.8796
9.63979
9.40301
9.17153
8.94795
8.73554
8.53845
8.3623
8.21485
8.10713
8.05486
8.08015
8.21216
8.48288
8.90926
9.86389
9.59239
9.3231
9.05768
8.79811
8.54689
8.30741
8.08442
7.88498
7.71998
7.60682
7.57391
7.66732
7.95614
8.51726
9.84746
9.54279
9.23932
8.93798
8.63989
8.3465
8.05986
7.78298
7.52066
7.28097
7.07848
6.94131
6.92704
7.15706
7.8701
9.83064
9.49197
9.1534
8.81502
8.47695
8.13936
7.80253
7.46697
7.13368
6.80473
6.48481
6.18579
5.94243
5.8749
6.46976
10.1807
10.2848
10.3941
10.5069
10.6217
10.7371
10.8515
10.964
11.0732
11.1784
11.2788
11.3736
11.4624
11.5448
11.6204
11.6889
11.7502
11.8041
11.8506
11.8895
11.9208
11.9446
11.9609
11.9696
11.971
11.965
11.9517
11.9312
11.9037
11.8693
11.828
11.7799
11.7252
11.6641
11.5965
11.5226
11.4425
11.3563
11.2642
11.1661
11.0623
10.9528
10.8377
10.7172
10.5913
10.4603
10.3242
10.183
10.037
9.88625
9.73079
9.57073
9.40617
9.2372
9.0639
8.88638
8.70475
8.51913
8.32965
8.13645
7.9397
7.73956
7.53619
7.32979
7.12053
6.90861
6.69424
6.47765
6.25909
6.03885
5.81723
5.59461
5.37137
5.14796
4.92487
4.70261
4.48173
4.26281
4.04642
3.83315
3.62358
3.41825
3.21771
3.02243
2.83286
2.64939
2.47232
2.3019
2.13828
1.98154
10.171
10.2774
10.389
10.504
10.6209
10.7382
10.8544
10.9684
11.079
11.1853
11.2866
11.3822
11.4716
11.5545
11.6304
11.6992
11.7607
11.8148
11.8613
11.9003
11.9316
11.9553
11.9715
11.9802
11.9814
11.9753
11.9619
11.9413
11.9136
11.879
11.8375
11.7893
11.7345
11.6732
11.6054
11.5314
11.4512
11.3648
11.2725
11.1743
11.0703
10.9606
10.8454
10.7247
10.5987
10.4675
10.3312
10.1899
10.0438
9.89288
9.73729
9.57711
9.41242
9.24331
9.06987
8.8922
8.71039
8.52458
8.33489
8.14148
7.94449
7.7441
7.54049
7.33381
7.12427
6.91205
6.69735
6.4804
6.26144
6.04074
5.81862
5.59542
5.37155
5.14745
4.92361
4.70056
4.47887
4.25911
4.04188
3.82779
3.61741
3.41133
3.21008
3.01417
2.82406
2.64013
2.46272
2.29208
2.12836
1.97164
10.1516
10.2625
10.3787
10.4983
10.6195
10.7407
10.8605
10.9776
11.0908
11.1994
11.3025
11.3996
11.4902
11.574
11.6506
11.72
11.7819
11.8362
11.8828
11.9218
11.9532
11.9768
11.9929
12.0014
12.0024
11.996
11.9823
11.9614
11.9334
11.8985
11.8567
11.8081
11.753
11.6913
11.6233
11.549
11.4685
11.3818
11.2892
11.1907
11.0864
10.9764
10.8609
10.7398
10.6135
10.4819
10.3453
10.2037
10.0573
9.90613
9.75029
9.58987
9.42493
9.25557
9.08185
8.90386
8.72171
8.53552
8.34541
8.15155
7.9541
7.75322
7.54909
7.34189
7.13179
6.91898
6.70364
6.48599
6.26623
6.04463
5.82149
5.59714
5.37199
5.1465
4.92116
4.69652
4.47316
4.25171
4.03279
3.81702
3.60502
3.3974
3.19473
2.99754
2.8063
2.62146
2.44335
2.27225
2.10833
1.95167
10.1219
10.24
10.3634
10.4901
10.618
10.7453
10.8705
10.9922
11.1093
11.2211
11.3269
11.4262
11.5185
11.6036
11.6813
11.7514
11.8138
11.8684
11.9153
11.9544
11.9857
12.0092
12.025
12.0332
12.0339
12.0271
12.0129
11.9916
11.9631
11.9277
11.8854
11.8363
11.7807
11.7186
11.6501
11.5754
11.4944
11.4074
11.3143
11.2154
11.1106
11.0001
10.884
10.7625
10.6356
10.5035
10.3664
10.2244
10.0775
9.92598
9.76977
9.609
9.44372
9.27398
9.09985
8.92141
8.73875
8.55198
8.36125
8.16671
7.96854
7.76692
7.56202
7.35404
7.14313
6.92946
6.7132
6.49451
6.27359
6.05067
5.82601
5.59995
5.37288
5.14527
4.91763
4.69056
4.46467
4.24063
4.0191
3.80077
3.58629
3.37631
3.17145
2.97228
2.77932
2.59305
2.41386
2.24206
2.07783
1.92127
10.0813
10.2097
10.3435
10.4801
10.6173
10.7529
10.8853
11.0132
11.1355
11.2515
11.3607
11.4626
11.5571
11.6438
11.7227
11.7937
11.8567
11.9118
11.9589
11.998
12.0292
12.0525
12.068
12.0758
12.076
12.0686
12.0539
12.0319
12.0027
11.9666
11.9236
11.8739
11.8176
11.7549
11.6858
11.6105
11.529
11.4414
11.3478
11.2482
11.1428
11.0317
10.9149
10.7927
10.6651
10.5323
10.3945
10.2519
10.1045
9.95239
9.79573
9.63452
9.46881
9.29861
9.12397
8.94494
8.76159
8.57405
8.38246
8.187
7.98786
7.78523
7.57933
7.37031
7.15836
6.9436
6.72616
6.50617
6.28377
6.05913
5.83248
5.60414
5.37449
5.144
4.91324
4.68283
4.45347
4.22587
4.00077
3.77892
3.56103
3.34782
3.13994
2.93803
2.74268
2.55443
2.37371
2.20092
2.03627
1.87987
10.0291
10.1715
10.3194
10.4693
10.6186
10.765
10.9065
11.0421
11.1706
11.2916
11.4048
11.5098
11.6066
11.6952
11.7754
11.8474
11.9111
11.9666
12.0138
12.0529
12.0839
12.1069
12.122
12.1292
12.1287
12.1207
12.1051
12.0823
12.0523
12.0153
11.9714
11.9208
11.8638
11.8002
11.7304
11.6544
11.5722
11.484
11.3897
11.2894
11.1832
11.0713
10.9536
10.8304
10.7019
10.5682
10.4295
10.2861
10.138
9.9853
9.82811
9.66642
9.50024
9.32954
9.15431
8.97457
8.79038
8.60186
8.40916
8.2125
8.01209
7.80819
7.60101
7.39074
7.17754
6.96151
6.74273
6.52123
6.29709
6.0704
5.84134
5.61015
5.37723
5.14307
4.90828
4.67355
4.43967
4.20745
3.97772
3.75131
3.52901
3.3116
3.0998
2.89431
2.6958
2.5049
2.32215
2.14801
1.9828
1.82664
9.9642
10.1256
10.292
10.4594
10.6242
10.7838
10.9364
11.0809
11.2165
11.3431
11.4604
11.5687
11.668
11.7584
11.84
11.9129
11.9772
12.033
12.0804
12.1194
12.1501
12.1726
12.1871
12.1936
12.1923
12.1833
12.1668
12.1429
12.1118
12.0737
12.0287
11.9771
11.919
11.8545
11.7839
11.707
11.6241
11.5351
11.4401
11.339
11.2319
11.1189
11.0001
10.8757
10.746
10.6111
10.4713
10.3269
10.178
10.0246
9.86684
9.7047
9.53808
9.36688
9.19104
9.0105
8.82531
8.63557
8.44148
8.24328
8.04128
7.83578
7.62705
7.41532
7.20072
6.98332
6.76311
6.54003
6.31401
6.08504
5.85317
5.6186
5.38171
5.143
4.90316
4.663
4.42343
4.18539
3.94985
3.71773
3.48992
3.26725
3.05053
2.8405
2.63794
2.44359
2.25815
2.08223
1.91628
1.76047
9.88524
10.0722
10.2634
10.4531
10.6372
10.8127
10.978
11.1323
11.2754
11.4076
11.5291
11.6405
11.742
11.8341
11.9169
11.9906
12.0555
12.1115
12.1589
12.1976
12.2279
12.2498
12.2635
12.2692
12.2669
12.2567
12.239
12.2138
12.1813
12.1418
12.0955
12.0425
11.9832
11.9176
11.846
11.7683
11.6846
11.5949
11.4991
11.3971
11.2889
11.1747
11.0545
10.9287
10.7974
10.661
10.5198
10.3741
10.2242
10.0701
9.91182
9.74932
9.58239
9.41083
9.23442
9.05305
8.8667
8.67547
8.47961
8.27946
8.07542
7.86793
7.65734
7.44393
7.22785
7.00911
6.78756
6.56299
6.33513
6.10377
5.86881
5.63036
5.38873
5.1445
4.89845
4.65156
4.40493
4.15971
3.91701
3.67791
3.44338
3.21432
2.99156
2.77592
2.56824
2.36942
2.18041
2.00208
1.83512
1.67983
9.79078
10.0127
10.2366
10.4549
10.6624
10.8562
11.0353
11.1997
11.35
11.4873
11.6124
11.7263
11.8297
11.923
12.0068
12.0811
12.1463
12.2024
12.2496
12.2879
12.3176
12.3387
12.3515
12.356
12.3525
12.341
12.3218
12.295
12.2609
12.2196
12.1716
12.117
12.0563
11.9894
11.9167
11.8382
11.7538
11.6633
11.5668
11.4639
11.3546
11.239
11.1171
10.9893
10.856
10.7176
10.5746
10.4274
10.2763
10.1214
9.96281
9.80021
9.63329
9.46164
9.28486
9.10268
8.91501
8.72196
8.52384
8.32114
8.11447
7.90444
7.6916
7.47632
7.25876
7.03885
6.81629
6.59061
6.36123
6.12762
5.88943
5.64662
5.39945
5.14856
4.8949
4.6397
4.38437
4.13033
3.87895
3.63145
3.38893
3.15228
2.92233
2.69985
2.48574
2.28111
2.08725
1.90554
1.73714
1.58258
9.67935
9.95024
10.218
10.4722
10.7071
10.9209
11.1137
11.2872
11.4434
11.5843
11.7118
11.8272
11.9316
12.0257
12.11
12.1848
12.2501
12.3061
12.3529
12.3907
12.4195
12.4396
12.4512
12.4544
12.4495
12.4364
12.4154
12.3867
12.3505
12.3071
12.257
12.2004
12.1379
12.0696
11.9957
11.9164
11.8314
11.7405
11.6435
11.5398
11.4294
11.3121
11.1881
11.0578
10.9218
10.7807
10.6353
10.4861
10.3337
10.1781
10.0194
9.85722
9.69091
9.51974
9.34298
9.16013
8.97098
8.77564
8.57456
8.36847
8.15827
7.94494
7.7293
7.51191
7.29297
7.07232
6.84945
6.62349
6.39335
6.15799
5.91667
5.66909
5.41548
5.15654
4.89351
4.628
4.3619
4.09708
3.83525
3.57782
3.32597
3.08057
2.8423
2.61169
2.38956
2.17725
1.97659
1.78983
1.61918
1.46572
9.55023
9.89219
10.219
10.5171
10.7823
11.0155
11.22
11.3996
11.5587
11.7007
11.8284
11.9438
12.0482
12.1424
12.2269
12.3019
12.3672
12.423
12.4692
12.5061
12.5338
12.5527
12.5628
12.5646
12.5579
12.543
12.52
12.489
12.4503
12.4043
12.3514
12.2924
12.2276
12.1576
12.0825
12.0025
11.9173
11.8266
11.7295
11.6254
11.5139
11.3947
11.2681
11.1345
10.9948
10.8499
10.7012
10.5495
10.3954
10.2393
10.081
9.92002
9.7554
9.58577
9.40977
9.22656
9.03574
8.8375
8.63241
8.42161
8.20647
7.98866
7.76943
7.54965
7.32954
7.10893
6.88697
6.66231
6.43293
6.19686
5.95283
5.70019
5.43911
5.17036
4.89562
4.61707
4.33755
4.05949
3.78515
3.5161
3.25367
2.99858
2.75118
2.5113
2.27922
2.05659
1.84587
1.65091
1.47645
1.32473
9.40629
9.85591
10.2611
10.6092
10.9035
11.1515
11.3617
11.5417
11.6984
11.8376
11.9626
12.0761
12.1793
12.273
12.3575
12.4327
12.498
12.5534
12.5988
12.6345
12.6608
12.678
12.6865
12.6865
12.6781
12.6612
12.6359
12.6023
12.5605
12.5111
12.4547
12.3924
12.3248
12.2527
12.1763
12.0959
12.0111
11.9215
11.8255
11.7216
11.6092
11.4878
11.358
11.2199
11.075
10.9247
10.7713
10.616
10.46
10.3034
10.1464
9.98791
9.82699
9.66087
9.48682
9.30384
9.11107
8.90912
8.69838
8.48089
8.2584
8.03435
7.81025
7.58775
7.36674
7.1474
6.92831
6.70784
6.48208
6.24711
6.00133
5.74334
5.47372
5.19275
4.90316
4.6075
4.31101
4.01651
3.72738
3.44479
3.17079
2.90545
2.64921
2.39965
2.15524
1.91875
1.69245
1.48243
1.30098
1.15253
9.26547
9.88353
10.3854
10.7788
11.0915
11.3416
11.547
11.717
11.8632
11.9946
12.1135
12.2233
12.3238
12.4169
12.5012
12.5775
12.643
12.6982
12.7423
12.7764
12.8007
12.8158
12.8224
12.8206
12.8103
12.7915
12.7637
12.7272
12.6816
12.628
12.5664
12.4999
12.4284
12.354
12.2758
12.1955
12.1118
12.0255
11.9328
11.8299
11.7173
11.5931
11.4596
11.3149
11.1631
11.0037
10.844
10.6834
10.5255
10.3681
10.2136
10.0593
9.90598
9.74729
9.57665
9.39512
9.19952
8.99333
8.77397
8.54728
8.31251
8.08004
7.84871
7.62364
7.40145
7.18545
6.97156
6.76092
6.54442
6.31285
6.06737
5.8032
5.52462
5.22751
4.9194
4.59907
4.28159
3.96573
3.66019
3.36108
3.07541
2.79918
2.53759
2.28057
2.01985
1.76619
1.51558
1.2728
1.07796
0.937258
9.21408
10.0784
10.6657
11.0646
11.3693
11.5961
11.7831
11.9266
12.0493
12.1697
12.2771
12.3838
12.4788
12.5734
12.6565
12.7378
12.8027
12.8587
12.9002
12.9324
12.9534
12.9658
12.9702
12.9668
12.9545
12.9345
12.9037
12.8653
12.814
12.7563
12.6849
12.6144
12.536
12.4605
12.3782
12.2999
12.2162
12.1386
12.0547
11.9518
11.8421
11.7119
11.577
11.42
11.2618
11.083
10.9181
10.7467
10.5902
10.4284
10.2806
10.129
9.99264
9.85081
9.68201
9.50658
9.30308
9.09642
8.86
8.6252
8.36322
8.124
7.87802
7.65531
7.42716
7.22037
7.01006
6.82234
6.62838
6.39855
6.16023
5.88376
5.60213
5.27803
4.95318
4.58648
4.24977
3.90005
3.58368
3.25796
2.96641
2.67179
2.41936
2.16679
1.87426
1.60923
1.32743
0.994108
0.776954
0.658104
9.67741
10.6721
11.2173
11.4857
11.7595
11.9077
12.0816
12.1662
12.2385
12.3634
12.4416
12.5612
12.6341
12.7463
12.8142
12.9216
12.9749
13.0401
13.0712
13.1044
13.1183
13.1273
13.1293
13.1254
13.1098
13.0931
13.0544
13.0221
12.9553
12.9041
12.802
12.7402
12.6392
12.5767
12.4746
12.4118
12.3119
12.2604
12.204
12.0834
11.9962
11.8371
11.7263
11.5267
11.3902
11.1422
11.0013
10.7886
10.6624
10.4685
10.3528
10.1765
10.0871
9.99307
9.79682
9.65836
9.41108
9.24225
8.94363
8.74214
8.38109
8.17758
7.87377
7.69471
7.42205
7.26027
7.01594
6.89266
6.76396
6.49638
6.30796
5.97168
5.74074
5.32959
5.04716
4.53067
4.23663
3.7863
3.52059
3.10561
2.86178
2.4836
2.30133
2.11052
1.68907
1.47639
1.21344
0.548128
0.334389
0.277738
1.81666
1.6465
1.48571
1.33382
1.19023
1.05426
0.925189
0.802256
0.684693
0.571734
0.462626
0.356634
0.253041
0.151149
0.0502705
1.80692
1.63711
1.47681
1.32551
1.18259
1.04735
0.919039
0.796877
0.680081
0.567876
0.459504
0.35423
0.251338
0.150133
0.0499328
1.7873
1.61819
1.45888
1.30879
1.16726
1.0335
0.906731
0.786124
0.670871
0.560178
0.453281
0.34944
0.247946
0.148109
0.0492604
1.75744
1.58945
1.4317
1.28352
1.14412
1.01266
0.888248
0.770009
0.657092
0.548679
0.443995
0.3423
0.242892
0.145097
0.0482595
1.71684
1.55046
1.39494
1.24944
1.11305
0.984757
0.863581
0.748563
0.6388
0.533446
0.431714
0.33287
0.236224
0.141124
0.0469399
1.66474
1.5006
1.34812
1.20626
1.07385
0.949727
0.832745
0.721855
0.616093
0.514585
0.41654
0.321237
0.228008
0.136232
0.0453159
1.60013
1.43906
1.29068
1.15361
1.02637
0.90754
0.795808
0.69001
0.589123
0.492255
0.398621
0.307525
0.218338
0.13048
0.0434068
1.52168
1.36479
1.22191
1.09111
0.970466
0.858244
0.752929
0.653246
0.558129
0.466685
0.37816
0.291901
0.207335
0.123941
0.0412378
1.42755
1.27652
1.14106
1.01843
0.906132
0.802031
0.70441
0.611909
0.523454
0.438192
0.355427
0.274581
0.195156
0.116711
0.0388406
1.31532
1.17266
1.04735
0.935419
0.83359
0.739329
0.650762
0.566517
0.485582
0.407196
0.330772
0.255837
0.181996
0.108905
0.0362537
1.18166
1.05145
0.940235
0.842298
0.753471
0.670925
0.592786
0.517808
0.445153
0.374234
0.304624
0.235996
0.168083
0.10066
0.0335219
1.02214
0.911209
0.81984
0.740057
0.667062
0.598108
0.53164
0.466772
0.402984
0.339959
0.277492
0.215435
0.153679
0.0921271
0.0306958
0.83128
0.751404
0.68785
0.631018
0.576605
0.522798
0.468889
0.41465
0.360047
0.305123
0.249944
0.194573
0.139067
0.0834733
0.0278297
0.604676
0.575269
0.549132
0.519553
0.485535
0.447582
0.406464
0.362886
0.317426
0.27054
0.222585
0.173844
0.124543
0.0748681
0.0249793
0.349186
0.395858
0.413848
0.412522
0.398395
0.375527
0.346493
0.313001
0.276228
0.237022
0.19601
0.153673
0.110391
0.066476
0.0221981
9.81519
9.44528
9.07445
8.70202
8.32715
7.94877
7.56546
7.17519
6.77494
6.35988
5.92143
5.44218
4.87868
4.09235
2.52373
9.80135
9.40347
9.0038
8.60098
8.19339
7.77893
7.35477
6.91686
6.45911
5.97169
5.4376
4.82467
4.06634
3.01511
1.35229
9.78791
9.36289
8.93532
8.50326
8.0644
7.61582
7.15361
6.6723
6.16386
5.61591
5.0085
4.30811
3.45741
2.36256
0.904282
9.77504
9.32409
8.86996
8.41025
7.94215
7.46216
6.96571
6.44658
5.89604
5.30141
4.64396
3.89594
3.018
1.9624
0.699527
9.7629
9.28751
8.80846
8.32306
7.82816
7.31993
6.79355
6.24267
5.65882
5.03053
4.3423
3.57398
2.70197
1.70616
0.58934
9.75158
9.25346
8.75138
8.24246
7.72341
7.19031
6.63839
6.06164
5.45247
4.80126
4.09626
3.32403
2.4719
1.53397
0.522108
9.74117
9.22216
8.69905
8.1689
7.62841
7.07377
6.50047
5.90314
5.27529
4.60935
3.89689
3.12956
2.30143
1.4131
0.477346
9.73168
9.19369
8.65161
8.10252
7.54323
6.97017
6.37925
5.76581
5.12456
4.44976
3.73561
2.9773
2.17275
1.32516
0.445735
9.72313
9.16808
8.60904
8.04321
7.46761
6.87896
6.27366
5.64779
4.99714
4.31748
3.605
2.85716
2.07395
1.25933
0.42249
9.71549
9.14523
8.57117
7.9907
7.40105
6.79931
6.18237
5.54697
4.88986
4.20798
3.49893
2.7616
1.99695
1.20894
0.404895
9.70873
9.12501
8.53776
7.94455
7.34289
6.73022
6.10388
5.46123
4.79977
4.11735
3.41251
2.68499
1.93619
1.16967
0.39129
9.70278
9.10725
8.50848
7.90426
7.29239
6.67061
6.03671
5.38856
4.72425
4.04228
3.34185
2.62315
1.88772
1.13865
0.380599
9.69757
9.09174
8.48297
7.86929
7.24875
6.61942
5.97944
5.32711
4.66097
3.98003
3.28386
2.57293
1.84872
1.11387
0.372091
9.69305
9.07828
8.46087
7.83909
7.21123
6.57563
5.93075
5.27523
4.60799
3.92834
3.23613
2.53194
1.81712
1.09389
0.365254
9.68914
9.06664
8.44181
7.81311
7.17907
6.53827
5.88945
5.2315
4.56363
3.88536
3.19673
2.49832
1.79135
1.07767
0.359715
9.68577
9.05663
8.42543
7.79085
7.1516
6.50649
5.85447
5.19467
4.52647
3.84958
3.16412
2.47065
1.77023
1.06443
0.3552
9.68288
9.04804
8.41141
7.77183
7.12819
6.47951
5.8249
5.16367
4.49535
3.81976
3.13707
2.44779
1.75286
1.05356
0.3515
9.68041
9.0407
8.39943
7.75561
7.1083
6.45664
5.79992
5.13759
4.46927
3.79488
3.11459
2.42887
1.73851
1.0446
0.348455
9.6783
9.03444
8.38923
7.74183
7.09141
6.43729
5.77885
5.11565
4.44742
3.7741
3.09587
2.41316
1.72663
1.0372
0.345941
9.6765
9.02911
8.38056
7.73012
7.07711
6.42093
5.76108
5.09721
4.4291
3.75673
3.08027
2.40009
1.71677
1.03106
0.343858
9.67497
9.02459
8.37321
7.72021
7.06501
6.40712
5.74611
5.08171
4.41374
3.7422
3.06725
2.38921
1.70858
1.02597
0.34213
9.67368
9.02075
8.36697
7.71181
7.05479
6.39546
5.73351
5.06868
4.40085
3.73003
3.05637
2.38014
1.70175
1.02173
0.340692
9.67258
9.0175
8.3617
7.70472
7.04615
6.38564
5.72289
5.05773
4.39004
3.71985
3.04727
2.37256
1.69606
1.0182
0.339494
9.67165
9.01476
8.35724
7.69873
7.03887
6.37736
5.71397
5.04853
4.38097
3.71131
3.03966
2.36623
1.6913
1.01525
0.338495
9.67087
9.01244
8.35348
7.69368
7.03273
6.37039
5.70646
5.0408
4.37336
3.70416
3.03329
2.36093
1.68733
1.01279
0.337661
9.67021
9.01048
8.35031
7.68942
7.02756
6.36452
5.70014
5.03431
4.36698
3.69817
3.02796
2.3565
1.68401
1.01073
0.336964
9.66965
9.00883
8.34764
7.68583
7.02321
6.35959
5.69484
5.02886
4.36162
3.69314
3.02349
2.35279
1.68123
1.00901
0.336381
9.66918
9.00744
8.34539
7.68281
7.01955
6.35544
5.69038
5.02428
4.35713
3.68893
3.01975
2.34969
1.6789
1.00757
0.335894
9.66879
9.00628
8.34349
7.68027
7.01647
6.35196
5.68664
5.02045
4.35336
3.6854
3.01661
2.34709
1.67696
1.00636
0.335486
9.66846
9.00529
8.3419
7.67814
7.01389
6.34903
5.6835
5.01723
4.35021
3.68245
3.01399
2.34492
1.67533
1.00536
0.335145
9.66818
9.00447
8.34057
7.67636
7.01172
6.34658
5.68087
5.01453
4.34757
3.67997
3.01179
2.3431
1.67397
1.00451
0.33486
9.66794
9.00378
8.33945
7.67486
7.00991
6.34453
5.67867
5.01228
4.34536
3.67791
3.00996
2.34158
1.67283
1.00381
0.334623
9.66775
9.0032
8.33852
7.67361
7.0084
6.34282
5.67683
5.0104
4.34351
3.67618
3.00843
2.34031
1.67188
1.00322
0.334424
9.66759
9.00272
8.33774
7.67257
7.00714
6.34139
5.6753
5.00884
4.34198
3.67475
3.00716
2.33926
1.6711
1.00274
0.33426
9.66745
9.00232
8.33709
7.6717
7.00609
6.34021
5.67404
5.00754
4.34071
3.67356
3.00611
2.33839
1.67044
1.00233
0.334123
9.66734
9.002
8.33656
7.67099
7.00523
6.33924
5.67299
5.00647
4.33966
3.67258
3.00524
2.33767
1.66991
1.002
0.334011
9.66725
9.00173
8.33613
7.67041
7.00452
6.33844
5.67214
5.0056
4.33881
3.67178
3.00453
2.33708
1.66947
1.00173
0.333919
9.66718
9.00151
8.33578
7.66994
7.00396
6.3378
5.67145
5.00489
4.33812
3.67114
3.00396
2.33661
1.66912
1.00151
0.333846
9.66712
9.00134
8.3355
7.66957
7.00351
6.3373
5.67091
5.00434
4.33758
3.67063
3.00351
2.33624
1.66884
1.00134
0.333788
9.66708
9.00121
8.33529
7.66929
7.00317
6.33691
5.6705
5.00392
4.33717
3.67025
3.00317
2.33596
1.66863
1.00121
0.333743
9.66704
9.00112
8.33514
7.66908
7.00292
6.33664
5.6702
5.00362
4.33687
3.66997
3.00293
2.33575
1.66848
1.00112
0.333712
9.66702
9.00106
8.33504
7.66896
7.00277
6.33646
5.67001
5.00342
4.33668
3.66979
3.00277
2.33562
1.66838
1.00106
0.333691
9.66701
9.00103
8.335
7.6689
7.00269
6.33638
5.66993
5.00333
4.33659
3.66971
3.0027
2.33556
1.66833
1.00103
0.333682
9.66702
9.00103
8.335
7.6689
7.0027
6.33639
5.66994
5.00334
4.3366
3.66972
3.00271
2.33557
1.66834
1.00103
0.333683
9.66703
9.00107
8.33506
7.66898
7.0028
6.33649
5.67005
5.00346
4.33671
3.66983
3.0028
2.33565
1.6684
1.00107
0.333695
9.66705
9.00113
8.33517
7.66912
7.00297
6.33669
5.67026
5.00367
4.33693
3.67002
3.00297
2.33579
1.66851
1.00114
0.333718
9.66708
9.00124
8.33533
7.66934
7.00324
6.33699
5.67058
5.004
4.33725
3.67033
3.00324
2.33601
1.66867
1.00124
0.333752
9.66713
9.00138
8.33556
7.66965
7.0036
6.3374
5.67102
5.00445
4.33769
3.67074
3.00361
2.33632
1.6689
1.00138
0.333799
9.66719
9.00156
8.33585
7.67004
7.00408
6.33794
5.6716
5.00504
4.33827
3.67127
3.00408
2.33671
1.66919
1.00156
0.333861
9.66727
9.00178
8.33622
7.67053
7.00467
6.33861
5.67232
5.00578
4.33899
3.67195
3.00468
2.33721
1.66956
1.00179
0.333938
9.66737
9.00207
8.33668
7.67114
7.00541
6.33944
5.67321
5.00669
4.33988
3.67279
3.00542
2.33782
1.67002
1.00207
0.334034
9.66748
9.00241
8.33723
7.67189
7.00631
6.34046
5.6743
5.00781
4.34098
3.67381
3.00633
2.33857
1.67058
1.00242
0.334152
9.66762
9.00283
8.33791
7.67279
7.0074
6.3417
5.67563
5.00917
4.3423
3.67505
3.00743
2.33948
1.67126
1.00284
0.334294
9.66779
9.00333
8.33872
7.67388
7.00872
6.34319
5.67722
5.0108
4.3439
3.67654
3.00875
2.34058
1.67208
1.00335
0.334466
9.668
9.00393
8.33969
7.67518
7.0103
6.34497
5.67914
5.01276
4.34582
3.67834
3.01035
2.3419
1.67307
1.00396
0.334672
9.66824
9.00465
8.34086
7.67674
7.01219
6.34711
5.68143
5.01511
4.34812
3.68049
3.01225
2.34348
1.67425
1.00469
0.33492
9.66853
9.00551
8.34225
7.67861
7.01445
6.34966
5.68417
5.01791
4.35087
3.68307
3.01454
2.34537
1.67566
1.00556
0.335216
9.66888
9.00653
8.34391
7.68083
7.01714
6.35271
5.68744
5.02126
4.35416
3.68614
3.01727
2.34763
1.67736
1.00661
0.33557
9.66929
9.00775
8.34588
7.68347
7.02034
6.35634
5.69133
5.02526
4.35808
3.68981
3.02052
2.35033
1.67938
1.00786
0.335994
9.66978
9.0092
8.34823
7.68662
7.02416
6.36066
5.69597
5.03002
4.36275
3.69419
3.02441
2.35355
1.68179
1.00936
0.3365
9.67036
9.01092
8.35102
7.69036
7.02869
6.3658
5.7015
5.03569
4.36832
3.69941
3.02906
2.35741
1.68468
1.01114
0.337104
9.67105
9.01296
8.35433
7.6948
7.03408
6.37191
5.70807
5.04244
4.37496
3.70564
3.0346
2.36201
1.68813
1.01328
0.337827
9.67187
9.01538
8.35825
7.70008
7.04049
6.37917
5.71589
5.05048
4.38287
3.71307
3.04121
2.3675
1.69224
1.01583
0.338691
9.67284
9.01825
8.36291
7.70633
7.04809
6.3878
5.72519
5.06006
4.3923
3.72193
3.04911
2.37406
1.69717
1.01888
0.339726
9.67398
9.02165
8.36842
7.71374
7.0571
6.39805
5.73625
5.07145
4.40353
3.73251
3.05854
2.38191
1.70307
1.02254
0.340965
9.67534
9.02566
8.37494
7.72252
7.06778
6.41021
5.74939
5.08501
4.41692
3.74513
3.06981
2.39131
1.71013
1.02692
0.34245
9.67694
9.0304
8.38265
7.73289
7.08043
6.42463
5.76499
5.10114
4.43288
3.76021
3.0833
2.40256
1.7186
1.03218
0.344234
9.67883
9.036
8.39174
7.74515
7.09539
6.44172
5.78352
5.12034
4.45191
3.77821
3.09944
2.41606
1.72877
1.0385
0.346379
9.68104
9.04258
8.40245
7.75961
7.11307
6.46195
5.8055
5.14317
4.47461
3.79975
3.11879
2.43226
1.741
1.04612
0.348965
9.68365
9.05031
8.41505
7.77664
7.13394
6.48588
5.83157
5.17032
4.50168
3.82551
3.142
2.45176
1.75575
1.05531
0.352088
9.6867
9.05937
8.42983
7.79666
7.15852
6.51415
5.86247
5.20261
4.53399
3.85636
3.1699
2.47525
1.77357
1.06644
0.355873
9.69027
9.06996
8.44713
7.82014
7.18741
6.54749
5.89904
5.24098
4.57254
3.89334
3.20347
2.50364
1.79516
1.07996
0.360475
9.69442
9.0823
8.46732
7.8476
7.22132
6.58674
5.94228
5.28657
4.61858
3.93771
3.24397
2.53804
1.82143
1.09644
0.366097
9.69923
9.09662
8.49079
7.87961
7.26098
6.63286
5.99333
5.34069
4.67355
3.99103
3.29292
2.57986
1.85352
1.11665
0.373
9.70479
9.11318
8.51798
7.9168
7.30723
6.68689
6.05348
5.40486
4.7392
4.05518
3.35225
2.63089
1.89291
1.14157
0.381534
9.71118
9.13223
8.54933
7.95981
7.36096
6.75
6.1242
5.48087
4.8176
4.13247
3.42437
2.69346
1.94158
1.17254
0.39217
9.71848
9.15402
8.58527
8.00931
7.42308
6.82343
6.20708
5.57072
4.91118
4.2257
3.51233
2.77061
2.00216
1.21137
0.405563
9.72676
9.17878
8.62623
8.06593
7.49453
6.90845
6.30385
5.67667
5.02278
4.33828
3.61999
2.8663
2.07825
1.26063
0.422649
9.7361
9.20672
8.67256
8.13025
7.57617
7.00633
6.41629
5.80116
5.15564
4.47432
3.75222
2.98585
2.17487
1.32403
0.444817
9.74653
9.23798
8.72455
8.20275
7.66876
7.11822
6.54615
5.94674
5.31337
4.63869
3.91518
3.13639
2.29917
1.40713
0.474223
9.75807
9.27263
8.78234
8.28372
7.77283
7.24508
6.69498
6.1159
5.49977
4.83695
4.11654
3.32749
2.46154
1.5186
0.514419
9.77071
9.31063
8.84593
8.37321
7.8886
7.38744
6.86394
6.3108
5.71858
5.0752
4.36555
3.572
2.67736
1.67261
0.571735
9.7844
9.35184
8.91507
8.47096
8.01587
7.5453
7.05349
6.53282
5.97291
5.35947
4.67281
3.88672
2.96965
1.89337
0.658628
9.79905
9.39597
8.9893
8.57634
8.15388
7.71789
7.26307
6.78208
6.26442
5.69459
5.04911
4.29238
3.37248
2.22416
0.802821
9.8145
9.44259
9.0679
8.6883
8.30127
7.90357
7.49082
7.05679
6.59215
6.08222
5.50265
4.81133
3.93394
2.74455
1.075
9.83058
9.49115
9.14989
8.80543
8.45607
8.09969
7.73333
7.35274
6.95133
6.51821
6.03378
5.4595
4.71204
3.59838
1.68082
9.84707
9.54097
9.23412
8.92593
8.61575
8.30272
7.98572
7.66313
7.33252
6.9898
6.6273
6.22791
5.74444
5.01046
3.28945
9.86374
9.59132
9.31926
9.04782
8.7774
8.50851
8.24197
7.97909
7.7221
7.47513
7.2464
7.05468
6.9508
7.10795
8.2716
9.88032
9.64142
9.40395
9.16901
8.93797
8.71266
8.49567
8.29094
8.10472
7.94775
7.8398
7.82042
7.97585
8.50644
9.86623
9.89658
9.69053
9.48688
9.28747
9.09455
8.91101
8.74086
8.58991
8.467
8.38632
8.37166
8.46473
8.74034
9.32906
10.4243
0.14365
0.257686
0.307539
0.326139
0.326526
0.315125
0.295604
0.270275
0.240691
0.20795
0.172862
0.136047
0.0979962
0.0591155
0.0197571
0.0771185
0.176644
0.232595
0.260255
0.269374
0.265848
0.253373
0.234387
0.210574
0.183149
0.153017
0.120881
0.0873038
0.0527553
0.0176462
0.0485806
0.125862
0.177297
0.207244
0.221002
0.222785
0.215662
0.201848
0.182965
0.160226
0.134563
0.106715
0.0772852
0.0467841
0.0156624
0.0338479
0.0930265
0.13692
0.165473
0.180944
0.185904
0.182595
0.172829
0.158032
0.139331
0.117625
0.0936467
0.06801
0.0412433
0.0138196
0.0250297
0.0708052
0.107195
0.132786
0.148186
0.154763
0.154011
0.147302
0.13581
0.120522
0.102263
0.0817295
0.0595189
0.0361584
0.0121264
0.0191864
0.0551011
0.0849682
0.107174
0.121552
0.128709
0.129564
0.125094
0.116222
0.103775
0.0884807
0.070976
0.051826
0.0315395
0.0105864
0.0150499
0.0435962
0.068061
0.0869985
0.0999324
0.107032
0.108813
0.105943
0.0991162
0.0890054
0.0762321
0.0613646
0.0449219
0.0273834
0.0091989
0.0119921
0.0349255
0.0549915
0.0709909
0.0823638
0.0890457
0.0912926
0.0895371
0.0842903
0.0760837
0.0654373
0.0528465
0.0387786
0.0236755
0.00795946
0.00966377
0.0282457
0.0447457
0.0581957
0.068052
0.0741389
0.0765507
0.0755553
0.0715193
0.0648556
0.0559922
0.0453537
0.0333537
0.020393
0.00686088
0.00785316
0.0230116
0.0366174
0.0478957
0.0563574
0.0617837
0.0641741
0.0636845
0.0605723
0.0551547
0.0477793
0.0388059
0.0285958
0.0175073
0.00589392
0.00642293
0.0188555
0.0301051
0.0395513
0.0467701
0.0515363
0.0537971
0.0536343
0.0512258
0.0468129
0.0406759
0.0331167
0.0244478
0.0149858
0.00504808
0.00527965
0.0155208
0.0248449
0.0327534
0.0388857
0.0430282
0.0451026
0.0451433
0.0432708
0.039668
0.0345597
0.0281977
0.0208502
0.0127944
0.00431226
0.00435722
0.0128229
0.0205676
0.0271888
0.0323828
0.0359559
0.0378201
0.0379804
0.0365171
0.0335682
0.0293138
0.023963
0.0177445
0.0108991
0.00367524
0.00360753
0.0106255
0.0170702
0.0226149
0.0270054
0.03007
0.0317206
0.0319448
0.0307948
0.0283748
0.024829
0.0203306
0.0150738
0.00926665
0.0031261
0.00299464
0.00882624
0.0141976
0.0188425
0.0225483
0.0251659
0.0266114
0.0268631
0.0259541
0.0239631
0.0210055
0.0172248
0.0127852
0.00786561
0.00265446
0.00249124
0.00734648
0.0118294
0.0157221
0.0188469
0.0210754
0.0223309
0.0225873
0.0218646
0.0202224
0.0177534
0.0145763
0.0108298
0.006667
0.0022507
0.00207619
0.00612518
0.00987108
0.0131347
0.0157678
0.0176605
0.0187441
0.0189913
0.0184134
0.0170557
0.0149928
0.0123231
0.00916344
0.00564437
0.00190602
0.00173293
0.0051143
0.00824759
0.010985
0.0132027
0.0148072
0.015738
0.0159682
0.0155035
0.0143785
0.0126536
0.0104102
0.00774657
0.00477397
0.0016125
0.00144834
0.00427564
0.00689898
0.00919605
0.0110635
0.0124217
0.0132181
0.0134276
0.0130519
0.0121179
0.0106744
0.00878891
0.00654419
0.0040347
0.00136309
0.00121193
0.00357858
0.0057769
0.00770541
0.00927766
0.0104263
0.0111058
0.0112932
0.010988
0.0102111
0.00900203
0.00741702
0.00552564
0.00340797
0.00115157
0.00101524
0.00299838
0.00484213
0.0064621
0.00778594
0.0087567
0.00933511
0.00950068
0.00925165
0.00860417
0.00759067
0.00625783
0.00466418
0.00287756
0.000972497
0.000851413
0.00251495
0.00406272
0.0054244
0.00653935
0.00735944
0.00785105
0.00799602
0.00779191
0.00725138
0.00640101
0.0052797
0.00393668
0.00242939
0.000821144
0.000714865
0.00211189
0.00341251
0.00455799
0.00549745
0.00619025
0.00660764
0.00673372
0.00656574
0.00611369
0.00539945
0.00445549
0.00332324
0.00205129
0.000693427
0.00060102
0.00177577
0.00287002
0.00383461
0.00462681
0.00521226
0.00556646
0.00567558
0.00553678
0.00515803
0.00455738
0.003762
0.00280678
0.00173284
0.000585836
0.000506123
0.00149553
0.00241754
0.00323091
0.00389969
0.00439483
0.00469544
0.00478955
0.00467441
0.00435641
0.00385051
0.00317948
0.00237275
0.00146512
0.000495368
0.000427084
0.00126208
0.00204048
0.0027276
0.00329312
0.00371245
0.00396779
0.00404879
0.00395289
0.00368523
0.00325829
0.00269117
0.00200875
0.00124054
0.000419466
0.000361356
0.00106792
0.00172679
0.00230872
0.00278805
0.00314393
0.00336116