/*--------------------------------*- C++ -*----------------------------------*\
| =========                 |                                                 |
| \\      /  F ield         | OpenFOAM: The Open Source CFD Toolbox           |
|  \\    /   O peration     | Version:  5.x                                   |
|   \\  /    A nd           | Web:      www.OpenFOAM.org                      |
|    \\/     M anipulation  |                                                 |
\*---------------------------------------------------------------------------*/
FoamFile
{
    version     2.0;
    format      ascii;
    class       volScalarField;
    location    "1.9";
    object      T;
}
// * * * * * * * * * * * * * * * * * * * * * * * * * * * * * * * * * * * * * //

dimensions      [0 0 0 1 0 0 0];

internalField   nonuniform List<scalar> 
6300
(
11.7866
15.3658
18.9626
22.588
26.2518
29.962
33.7243
37.5412
41.4114
45.3293
49.2838
53.2588
57.2321
61.1766
65.0607
11.7805
15.3477
18.9332
22.5485
26.2039
29.9082
33.6675
37.4853
41.3609
45.2893
49.2599
53.2565
57.2566
61.2323
65.1506
11.768
15.3107
18.8731
22.4676
26.1057
29.7974
33.5502
37.3691
41.2549
45.2038
49.2064
53.2466
57.3013
61.3407
65.3291
11.7488
15.2536
18.7801
22.342
25.9526
29.6235
33.3647
37.1833
41.0828
45.0615
49.1117
53.2181
57.3569
61.4955
65.5935
11.7221
15.1745
18.6508
22.1667
25.7376
29.3776
33.0997
36.9143
40.8285
44.8445
48.9573
53.1534
57.4084
61.6861
65.9396
11.6873
15.0708
18.481
21.9354
25.452
29.0479
32.74
36.5432
40.4698
44.5273
48.7161
53.0259
57.4327
61.8964
66.3604
11.6435
14.9401
18.266
21.641
25.0855
28.6204
32.267
36.0462
39.9773
44.0759
48.3504
52.7974
57.3958
62.1016
66.8454
11.5898
14.7797
18.0012
21.276
24.6272
28.0796
31.6595
35.3949
39.3146
43.4454
47.8088
52.4137
57.2473
62.2641
67.3781
11.5255
14.5874
17.6822
20.8335
24.0665
27.4095
30.8944
34.5572
38.438
42.5793
47.0222
51.7975
56.9114
62.3247
67.9322
11.4502
14.3615
17.3062
20.3083
23.3945
26.596
29.9495
33.4992
37.2982
41.4087
45.8999
50.839
56.2719
62.1864
68.4628
11.3638
14.102
16.8722
19.6979
22.606
25.6289
28.8065
32.1898
35.8444
39.8547
44.3263
49.3831
55.1466
61.6816
68.8876
11.2669
13.81
16.382
19.0041
21.7016
24.5055
27.4561
30.6071
34.0327
37.8365
42.1646
47.2168
53.2457
60.5011
69.0338
11.1604
13.489
15.841
18.2341
20.6896
23.2342
25.9036
28.748
31.8403
35.2916
39.2756
44.0705
50.1144
58.0388
68.47
11.0463
13.1441
15.2582
17.4011
19.5876
21.8368
24.1748
26.6391
29.287
32.2114
35.5733
39.6718
45.0992
53.0654
65.8628
10.9267
12.7825
14.6462
16.5237
18.4218
20.3494
22.3182
24.3449
26.4553
28.6916
31.1319
33.9415
37.5421
43.2568
56.1468
68.5341
71.6032
74.5631
77.3945
80.0798
82.6033
84.9524
87.117
89.0899
90.8668
92.4462
93.8289
95.018
96.0183
96.8364
97.4801
97.9582
98.2804
98.4568
98.4976
98.4134
98.2147
97.9115
97.5138
97.0311
96.4724
95.8462
95.1604
94.4225
93.639
92.816
91.9588
91.0721
90.1599
89.2254
88.2715
87.3003
86.3133
85.3117
84.2963
83.2675
82.2256
81.1704
80.1017
79.0191
77.9221
76.8102
75.6826
74.5386
73.3774
72.1983
71.0004
69.7829
68.5452
67.2866
66.0065
64.7044
63.38
62.0331
60.6635
59.2712
57.8564
56.4191
54.9598
53.4788
51.9767
50.4543
48.9125
47.3525
45.7758
44.1841
42.5796
40.9649
39.3428
37.7165
36.0896
34.4661
32.8499
31.2454
29.657
28.0891
26.5462
25.0326
23.5525
22.1097
20.7078
19.3497
18.038
16.7746
15.5606
68.6564
71.7545
74.7421
77.5987
80.306
82.8479
85.2112
87.3858
89.3646
91.1437
92.7218
94.1
95.2819
96.2727
97.0795
97.7105
98.1748
98.4826
98.644
98.6699
98.5709
98.3576
98.0404
97.6292
97.1337
96.563
95.9256
95.2296
94.4823
93.6904
92.86
91.9964
91.1043
90.1875
89.2495
88.2928
87.3195
86.3311
85.3286
84.3128
83.2841
82.2424
81.1878
80.1198
79.0381
77.9422
76.8314
75.705
74.5622
73.4023
72.2245
71.0278
69.8115
68.5748
67.3171
66.0377
64.7362
63.4122
62.0655
60.696
59.3036
57.8885
56.4509
54.991
53.5092
52.0061
50.4823
48.9388
47.3767
45.7974
44.2026
42.5945
40.9756
39.3489
37.7174
36.085
34.4556
32.8332
31.2224
29.6275
28.0533
26.5041
24.9846
23.4989
22.051
20.6447
19.283
17.9686
16.7035
15.4888
68.9016
72.0595
75.1037
78.0119
80.764
83.3429
85.7347
87.9293
89.9198
91.7028
93.2775
94.6462
95.813
96.7843
97.5679
98.1729
98.6092
98.8875
99.0189
99.0145
98.8855
98.6429
98.2974
97.8591
97.338
96.7432
96.0834
95.3667
94.6006
93.792
92.9467
92.0703
91.1673
90.2417
89.2965
88.3343
87.357
86.3659
85.3619
84.3454
83.3167
82.2758
81.2223
80.1559
79.0761
77.9822
76.8737
75.7498
74.6096
73.4523
72.277
71.0828
69.8688
68.6343
67.3784
66.1005
64.8002
63.477
62.1307
60.7613
59.3687
57.9531
56.5147
55.0536
53.5703
52.0652
50.5389
48.9921
47.4258
45.8414
44.2404
42.6251
40.9979
39.3617
37.72
36.0763
34.4349
32.8001
31.1764
29.5686
27.9814
26.4196
24.8878
23.3908
21.9326
20.5173
19.1483
17.8284
16.5597
15.3437
69.2706
72.5223
75.6552
78.6436
81.4649
84.1003
86.5353
88.7594
90.7665
92.5539
94.1223
95.475
96.6178
97.5583
98.3056
98.8701
99.2631
99.4961
99.5813
99.5307
99.3561
99.0691
98.6807
98.2015
97.6415
97.0103
96.3167
95.569
94.7747
93.9407
93.0732
92.1776
91.2585
90.3197
89.364
88.3939
87.4109
86.4161
85.4101
84.393
83.3647
82.325
81.2734
80.2095
79.1326
78.042
76.937
75.8168
74.6805
73.5272
72.3559
71.1656
69.9553
68.724
67.4709
66.1953
64.8967
63.5747
62.2291
60.8598
59.467
58.0506
56.611
55.1484
53.663
52.155
50.625
49.0734
47.5011
45.9092
44.2991
42.673
41.0332
39.3828
37.7253
36.0645
34.4049
32.751
31.1077
29.48
27.873
26.2917
24.7414
23.2267
21.7526
20.3234
18.9429
17.6144
16.3404
15.1222
69.7655
73.1504
76.4087
79.5097
82.427
85.1397
87.6324
89.8949
91.9221
93.713
95.27
96.5984
97.706
98.6024
99.2985
99.8065
100.139
100.31
100.332
100.218
99.9811
99.6338
99.1875
98.6531
98.0411
97.361
96.6219
95.8324
95.0002
94.1324
93.2352
92.3141
91.3737
90.4176
89.4486
88.4685
87.4786
86.4796
85.4714
84.454
83.4267
82.3891
81.3405
80.2801
79.2072
78.1211
77.0209
75.9059
74.775
73.6273
72.4615
71.2766
70.0713
68.8446
67.5954
66.323
65.0267
63.7062
62.3614
60.9922
59.5989
58.1816
56.7406
55.276
53.788
52.2767
50.7422
49.1847
47.6048
46.0031
44.3811
42.7406
41.084
39.4143
37.7353
36.0513
34.3668
32.6868
31.0167
29.3618
27.7276
26.1196
24.5434
23.0045
21.5081
20.0593
18.6627
17.3222
16.0406
14.8197
70.389
73.9552
77.3828
80.6339
83.6772
86.4891
89.0537
91.362
93.4106
95.2012
96.7389
98.0319
99.0904
99.9268
100.554
100.987
101.241
101.33
101.269
101.074
100.758
100.334
99.8139
99.2097
98.5318
97.79
96.9936
96.1514
95.2714
94.361
93.4266
92.4738
91.5072
90.5302
89.5452
88.5537
87.5563
86.5531
85.5435
84.5266
83.5015
82.4671
81.4226
80.3669
79.2993
78.219
77.1251
76.0168
74.8929
73.7525
72.5941
71.4163
70.2178
68.9971
67.7531
66.4847
65.1914
63.8727
62.5286
61.1594
59.7653
58.3468
56.9041
55.4374
53.9467
52.4318
50.8925
49.3285
47.7398
46.1266
44.49
42.8315
41.1536
39.4594
37.7529
36.0388
34.3222
32.6086
30.9039
29.2138
27.5445
25.9019
24.292
22.7211
21.1951
19.7202
18.3019
16.9451
15.6535
14.4293
71.1455
74.9537
78.605
82.0509
85.2538
88.1876
90.8369
93.1953
95.263
97.0456
98.5522
99.7947
100.787
101.544
102.082
102.418
102.571
102.557
102.393
102.097
101.682
101.164
100.554
99.8654
99.1076
98.2909
97.425
96.5188
95.5808
94.6187
93.6395
92.6488
91.6513
90.6502
89.6475
88.6439
87.6394
86.633
85.6233
84.6086
83.5874
82.5579
81.519
80.4694
79.4085
78.3353
77.2491
76.149
75.034
73.9028
72.7538
71.5854
70.3957
69.183
67.9455
66.6822
65.3923
64.0755
62.732
61.3622
59.9669
58.5467
57.1022
55.6334
54.1403
52.6223
51.0785
49.5081
47.91
46.2841
44.6305
42.9506
41.2467
39.5222
37.7816
36.03
34.2734
32.5179
30.77
29.0362
27.323
25.637
23.9847
22.3729
20.8088
19.2997
17.8526
16.4742
15.1695
13.9414
72.0417
76.1724
80.1168
83.8114
87.211
90.2885
93.0317
95.4393
97.518
99.2793
100.738
101.91
102.813
103.467
103.891
104.105
104.132
103.99
103.7
103.28
102.748
102.117
101.402
100.613
99.7608
98.856
97.9079
96.9259
95.919
94.8958
93.8637
92.829
91.7963
90.7686
89.7472
88.7322
87.7221
86.7148
85.7077
84.698
83.683
82.6605
81.6289
80.587
79.5339
78.4691
77.392
76.3019
75.1977
74.0781
72.9412
71.7848
70.6066
69.404
68.175
66.918
65.632
64.3168
62.9732
61.6019
60.2044
58.7819
57.3352
55.8647
54.37
52.85
51.3032
49.7274
48.1207
46.4814
44.8091
43.1044
41.3697
39.6086
37.8262
36.0287
34.223
32.4164
30.616
28.8291
27.0627
25.3236
23.619
21.9562
20.3434
18.7897
17.3046
15.8973
14.5753
13.3428
73.089
77.6536
81.9819
85.9897
89.6249
92.8636
95.7019
98.1491
100.222
101.941
103.327
104.402
105.19
105.712
105.992
106.055
105.925
105.627
105.185
104.618
103.946
103.184
102.346
101.443
100.483
99.4764
98.4328
97.3623
96.2748
95.1801
94.0866
93.0015
91.9296
90.8737
89.8343
88.8099
87.7977
86.7938
85.7936
84.7927
83.7874
82.7746
81.7523
80.7193
79.6752
78.6197
77.5528
76.4742
75.383
74.2777
73.1561
72.0154
70.8522
69.6631
68.4449
67.1954
65.9135
64.5993
63.254
61.8795
60.4781
59.052
57.6027
56.1309
54.6362
53.1167
51.5697
49.9916
48.3784
46.7266
45.0344
43.3018
41.5307
39.7257
37.8927
36.0394
34.1743
32.3059
30.4427
28.5926
26.763
24.9608
23.1932
21.4676
19.7931
18.1811
16.6447
15.1977
13.8523
12.6151
74.3084
79.4687
84.3022
88.6975
92.6026
96.0075
98.9273
101.39
103.427
105.072
106.354
107.301
107.939
108.295
108.397
108.272
107.952
107.465
106.839
106.098
105.264
104.353
103.378
102.346
101.265
100.143
98.9899
97.8168
96.6353
95.4571
94.2926
93.1503
92.0359
90.9515
89.8963
88.8671
87.8588
86.8649
85.8782
84.892
83.9008
82.9008
81.8897
80.8666
79.8317
78.7858
77.7299
76.6642
75.5883
74.5005
73.3983
72.2781
71.135
69.9638
68.7597
67.5194
66.2415
64.9267
63.5771
62.196
60.7875
59.3556
57.9028
56.4305
54.9381
53.4231
51.8812
50.3065
48.6917
47.0303
45.3183
43.5545
41.7411
39.8831
37.9886
36.0673
34.1303
32.1882
30.2508
28.3268
26.4238
24.5485
22.7069
20.9054
19.153
17.4637
15.8559
14.352
12.9734
11.732
75.7437
81.7484
87.2468
92.1041
96.2932
99.8421
102.803
105.234
107.189
108.717
109.855
110.635
111.086
111.236
111.117
110.762
110.209
109.493
108.648
107.704
106.684
105.606
104.481
103.311
102.098
100.847
99.5693
98.2773
96.9855
95.7091
94.4617
93.2549
92.095
90.9836
89.9176
88.8914
87.8966
86.9233
85.9602
84.9967
84.0254
83.0416
82.0432
81.0299
80.0033
78.9658
77.9204
76.8685
75.8102
74.7438
73.6665
72.5734
71.4583
70.3121
69.1267
67.8976
66.623
65.3045
63.9455
62.5522
61.131
59.6892
58.2312
56.7594
55.2728
53.7685
52.2404
50.6793
49.0723
47.4072
45.6769
43.8788
42.0157
40.0935
38.1233
36.1181
34.0939
32.0638
30.0399
28.0307
26.0448
24.0875
22.1632
20.2728
18.422
16.6288
14.9178
13.3257
11.8971
10.654
77.5017
84.751
91.1076
96.4656
100.898
104.515
107.435
109.754
111.558
112.913
113.86
114.432
114.655
114.555
114.166
113.527
112.69
111.696
110.591
109.408
108.178
106.919
105.641
104.331
102.976
101.584
100.161
98.731
97.3071
95.914
94.5671
93.2875
92.0802
90.9467
89.8786
88.8678
87.9009
86.965
86.0409
85.1109
84.1669
83.2023
82.2174
81.2115
80.1901
79.1567
78.1201
77.0816
76.0437
75.0026
73.9573
72.9008
71.8263
70.717
69.5569
68.3417
67.0677
65.7407
64.3637
62.9489
61.5045
60.0466
58.5798
57.1099
55.633
54.1487
52.6472
51.1185
49.537
47.878
46.1336
44.2971
42.3757
40.3733
38.3087
36.1963
34.066
31.9307
29.8078
27.7014
25.6248
23.5792
21.5707
19.5831
17.6084
15.6755
13.8085
12.0642
10.5537
9.3186
79.9003
89.0323
96.3995
102.153
106.669
110.183
112.921
115.007
116.565
117.686
118.397
118.721
118.679
118.278
117.567
116.566
115.386
114.046
112.639
111.167
109.706
108.247
106.836
105.408
103.901
102.356
100.758
99.1688
97.5784
96.0474
94.5709
93.212
91.9553
90.8128
89.7543
88.7788
87.8585
86.9879
86.1286
85.2441
84.3371
83.3912
82.4212
81.4147
80.394
79.352
78.3221
77.294
76.2816
75.2677
74.2644
73.2543
72.2445
71.1953
70.0669
68.8707
67.5892
66.2493
64.8366
63.3887
61.8976
60.417
58.9334
57.4708
56.0044
54.554
53.0936
51.6338
50.1138
48.472
46.7231
44.8377
42.8528
40.7427
38.563
36.3005
34.0457
31.7799
29.5522
27.3291
25.1605
23.0176
20.9483
18.8748
16.7348
14.6274
12.5225
10.4662
8.81381
7.62162
84.106
95.8485
104.008
109.613
113.876
116.957
119.34
121.01
122.192
123.037
123.481
123.528
123.209
122.434
121.372
119.853
118.299
116.484
114.768
112.898
111.22
109.498
108.044
106.59
104.872
103.194
101.335
99.6014
97.7582
96.0969
94.401
92.9852
91.6629
90.5547
89.5083
88.6082
87.7426
86.9934
86.2511
85.4089
84.5623
83.6143
82.6773
81.638
80.6285
79.5298
78.5218
77.4837
76.522
75.5178
74.5818
73.6075
72.72
71.7879
70.675
69.5228
68.1952
66.8632
65.3608
63.8911
62.276
60.7923
59.2571
57.8374
56.353
54.9742
53.5392
52.2364
50.8662
49.2207
47.5096
45.5218
43.5103
41.2127
38.9367
36.3938
34.0414
31.5744
29.29
26.8787
24.659
22.3501
20.332
18.2624
15.8144
13.5758
11.1664
8.28667
6.41123
5.38183
95.2783
107.817
115.288
118.996
122.776
124.727
126.774
127.704
128.295
128.955
129.125
128.849
128.386
126.993
125.823
123.177
121.576
118.765
117.108
114.343
112.785
110.354
109.242
108.143
105.777
104.285
101.724
100.185
97.6699
96.1913
93.8233
92.6202
91.0591
90.2052
89.0497
88.3862
87.458
86.9879
86.5168
85.5792
84.9333
83.8213
83.0805
81.8186
80.9915
79.5772
78.7652
77.564
76.8238
75.6704
74.9548
73.8364
73.2602
72.6417
71.34
70.4284
68.8079
67.723
65.8384
64.6034
62.4657
61.2423
59.4149
58.2979
56.5499
55.4757
53.795
52.9363
52.0152
50.0644
48.6946
46.2404
44.5802
41.652
39.6951
36.213
34.2021
31.1064
29.2108
26.1526
24.2861
21.264
19.7901
18.1949
14.5924
12.7704
10.4875
4.66103
2.79041
2.28089
14.2801
12.9548
11.6992
10.5105
9.38453
8.31663
7.3015
6.33354
5.40697
4.51598
3.65484
2.81788
1.99956
1.19448
0.397284
14.2086
12.8851
11.6325
10.4477
9.32652
8.2639
7.25437
6.29217
5.3714
4.48617
3.63067
2.79924
1.98635
1.18659
0.39466
14.0643
12.7444
11.498
10.3214
9.20996
8.1581
7.15995
6.20941
5.30032
4.42663
3.58245
2.76208
1.96
1.17086
0.389435
13.8442
12.5303
11.2938
10.1301
9.03381
7.99862
7.01797
6.08522
5.19386
4.3376
3.51044
2.70665
1.92073
1.14744
0.381649
13.544
12.2389
11.0166
9.87146
8.79659
7.78465
6.82811
5.91966
5.05231
4.2195
3.41508
2.63334
1.86886
1.11651
0.371375
13.1572
11.8648
10.6624
9.54256
8.4965
7.51529
6.5902
5.71303
4.87625
4.07301
3.29708
2.54277
1.80485
1.07839
0.358713
12.675
11.4007
10.2258
9.13987
8.13158
7.18985
6.3044
5.46604
4.66667
3.89922
3.15745
2.43584
1.72938
1.03348
0.343807
12.0856
10.8374
9.7003
8.65957
7.70013
6.80815
5.97154
5.18007
4.42521
3.69977
2.9977
2.31376
1.64336
0.982346
0.326842
11.373
10.1629
9.07848
8.098
7.20128
6.37111
5.59355
4.85753
4.15433
3.47697
2.81981
2.17816
1.54798
0.925703
0.308059
10.5154
9.36294
8.35274
7.4527
6.63589
5.88149
5.17404
4.50221
3.85762
3.23398
2.62644
2.03109
1.44469
0.864431
0.287751
9.48319
8.42072
7.51688
6.72422
6.00812
5.34495
4.71895
4.11966
3.53997
2.97492
2.42088
1.87508
1.33528
0.799582
0.266266
8.23623
7.3199
6.56986
5.91921
5.32747
4.77125
4.23718
3.71753
3.2077
2.70485
2.20709
1.71308
1.22178
0.732349
0.243997
6.72488
6.05284
5.52347
5.05531
4.61131
4.17541
3.741
3.30558
2.86848
2.42971
1.98956
1.54836
1.10644
0.664035
0.221373
4.90733
4.64313
4.4159
4.16728
3.88707
3.57812
3.24583
2.89535
2.53093
2.15596
1.77308
1.38439
0.991564
0.595987
0.198833
2.83636
3.19648
3.32975
3.31084
3.1916
3.00418
2.76887
2.49906
2.20395
1.89012
1.56241
1.22455
0.879452
0.529518
0.176808
10.8146
12.4437
14.0723
15.6998
17.3254
18.9472
20.562
22.1641
23.7426
25.2765
26.72
27.9616
28.6743
27.6855
19.921
10.7128
12.1357
13.5509
14.9519
16.3308
17.6767
18.9736
20.1969
21.3066
22.2334
22.8483
22.8913
21.793
18.2338
9.26349
10.6126
11.8331
13.039
14.2189
15.3587
16.4396
17.4356
18.3078
18.9967
19.4059
19.3727
18.6125
16.6195
12.5389
5.24213
10.5157
11.5405
12.545
13.5134
14.427
15.2611
15.9829
16.5454
16.8803
16.8847
16.4013
15.1889
12.895
9.0768
3.43408
10.4233
11.262
12.0757
12.8458
13.55
14.1603
14.6402
14.9404
14.9927
14.7018
13.9353
12.5158
10.2286
6.88129
2.47687
10.3366
11.0005
11.6365
12.2236
12.7378
13.1496
13.4219
13.5071
13.3429
12.8485
11.9223
10.4446
8.29796
5.41957
1.90104
10.2561
10.7585
11.231
11.652
11.9965
12.2354
12.3332
12.2465
11.9218
11.2947
10.2917
8.83756
6.87516
4.40216
1.52203
10.1824
10.5371
10.8613
11.1331
11.3282
11.4188
11.3723
11.1508
10.7103
10.0017
8.97401
7.58313
5.80669
3.66729
1.25682
10.1155
10.3367
10.5278
10.6674
10.7324
10.6971
10.5327
10.2069
9.68478
8.9298
7.90827
6.59618
4.99006
3.12054
1.0632
10.0556
10.1572
10.2299
10.2533
10.206
10.0649
9.80482
9.39921
8.82061
8.04275
7.04407
5.81319
4.35618
2.70411
0.917501
10.0023
9.99783
9.96606
9.8882
9.74468
9.51501
9.17783
8.71139
8.09459
7.30882
6.34091
5.18707
3.85762
2.38102
0.805376
9.95524
9.85732
9.73415
9.56856
9.34302
9.03965
8.64042
8.12779
7.48571
6.7012
5.76668
4.68276
3.46112
2.12666
0.717607
9.91399
9.73431
9.53162
9.29045
8.9953
8.6307
8.18161
7.63394
6.97557
6.19759
5.29608
4.27397
3.14287
1.92404
0.647984
9.87805
9.62725
9.35573
9.04975
8.69569
8.28032
7.79111
7.21684
6.54835
5.77964
4.9091
3.94077
2.88546
1.7611
0.592176
9.8469
9.53454
9.20373
8.84235
8.43857
7.9811
7.45958
6.86505
6.19061
5.4323
4.58992
3.6679
2.67595
1.62908
0.547065
9.82002
9.45461
9.07292
8.66434
8.21865
7.72628
7.17866
6.56863
5.89103
5.14326
4.32595
3.44353
2.50451
1.52144
0.510353
9.79691
9.38595
8.96074
8.51204
8.03108
7.50976
6.94099
6.31907
5.64009
4.90242
4.10714
3.25841
2.36361
1.43322
0.480312
9.77711
9.32718
8.86484
8.38211
7.87148
7.32611
6.74017
6.10906
5.42984
4.70151
3.92538
3.10523
2.2474
1.36063
0.45562
9.7602
9.277
8.78306
8.27151
7.73594
7.1706
6.57065
5.93241
5.25363
4.53376
3.77414
2.97817
2.15125
1.30068
0.435249
9.74579
9.23427
8.71349
8.17757
7.62105
7.03908
6.42768
5.78386
5.10591
4.39355
3.64811
2.87256
2.07151
1.25103
0.418393
9.73354
9.19795
8.65442
8.09791
7.52378
6.92798
6.30717
5.65896
4.98203
4.27629
3.54296
2.78464
2.00523
1.20982
0.404409
9.72314
9.16714
8.60434
8.03045
7.44154
6.8342
6.20566
5.55398
4.87814
4.17814
3.45513
2.71133
1.95006
1.17555
0.392784
9.71433
9.14104
8.56195
7.9734
7.37208
6.75511
6.1202
5.46575
4.79098
4.09596
3.38171
2.65014
1.90405
1.147
0.383105
9.70688
9.11896
8.52611
7.92522
7.31347
6.68846
6.04828
5.39162
4.71786
4.02712
3.32029
2.59902
1.86566
1.12318
0.375035
9.70058
9.10031
8.49584
7.88455
7.26405
6.63232
5.98777
5.32933
4.65651
3.96943
3.26888
2.55627
1.83358
1.1033
0.368299
9.69526
9.08457
8.47031
7.85027
7.22242
6.58508
5.9369
5.27702
4.60503
3.92108
3.22584
2.52051
1.80676
1.08668
0.362671
9.69077
9.07129
8.44879
7.82139
7.18738
6.54534
5.89415
5.2331
4.56186
3.88056
3.1898
2.49059
1.78433
1.07279
0.357968
9.68699
9.06012
8.43068
7.79708
7.1579
6.51193
5.85824
5.19623
4.52565
3.84661
3.15962
2.46555
1.76557
1.06118
0.354036
9.68382
9.05071
8.41544
7.77665
7.13314
6.48388
5.82811
5.16531
4.49529
3.81816
3.13435
2.44459
1.74988
1.05146
0.350748
9.68114
9.04281
8.40264
7.7595
7.11235
6.46035
5.80284
5.1394
4.46987
3.79435
3.11321
2.42706
1.73676
1.04335
0.348
9.6789
9.03619
8.39191
7.74511
7.09493
6.44063
5.78167
5.11771
4.4486
3.77444
3.09554
2.41242
1.7258
1.03656
0.345705
9.67703
9.03064
8.38293
7.73308
7.08035
6.42414
5.76399
5.09959
4.43084
3.75781
3.08079
2.4002
1.71666
1.03091
0.343791
9.67546
9.02601
8.37544
7.72304
7.06819
6.41039
5.74924
5.08448
4.41603
3.74396
3.0685
2.39002
1.70905
1.0262
0.342198
9.67416
9.02216
8.3692
7.71469
7.05809
6.39896
5.73698
5.07193
4.40374
3.73247
3.05831
2.38158
1.70273
1.0223
0.340876
9.67309
9.01898
8.36405
7.70778
7.04973
6.38952
5.72686
5.06157
4.39359
3.72297
3.04989
2.37461
1.69752
1.01907
0.339786
9.6722
9.01636
8.35982
7.70212
7.04288
6.38177
5.71855
5.05307
4.38526
3.71519
3.04299
2.3689
1.69325
1.01643
0.338892
9.67148
9.01424
8.35638
7.69752
7.03731
6.37548
5.71181
5.04617
4.37851
3.70888
3.03739
2.36427
1.68979
1.01429
0.338168
9.67091
9.01255
8.35365
7.69386
7.03288
6.37047
5.70644
5.04068
4.37313
3.70385
3.03294
2.36058
1.68703
1.01259
0.337591
9.67047
9.01124
8.35152
7.69101
7.02944
6.36658
5.70228
5.03641
4.36896
3.69995
3.02948
2.35772
1.68489
1.01127
0.337144
9.67014
9.01027
8.34995
7.6889
7.02689
6.3637
5.69919
5.03326
4.36587
3.69706
3.02692
2.3556
1.68331
1.01029
0.336813
9.66992
9.0096
8.34887
7.68747
7.02515
6.36174
5.69709
5.0311
4.36376
3.69509
3.02518
2.35416
1.68223
1.00962
0.336587
9.66979
9.00923
8.34827
7.68666
7.02418
6.36064
5.6959
5.02989
4.36258
3.69398
3.02419
2.35335
1.68162
1.00924
0.33646
9.66976
9.00914
8.34812
7.68646
7.02393
6.36036
5.69561
5.02959
4.36228
3.69371
3.02395
2.35314
1.68147
1.00915
0.336428
9.66982
9.00932
8.34842
7.68686
7.02441
6.3609
5.69619
5.03019
4.36286
3.69425
3.02443
2.35354
1.68177
1.00933
0.33649
9.66998
9.00979
8.34917
7.68786
7.02563
6.36228
5.69766
5.03169
4.36434
3.69563
3.02565
2.35455
1.68252
1.0098
0.336648
9.67023
9.01055
8.3504
7.68951
7.02763
6.36453
5.70008
5.03416
4.36675
3.69788
3.02765
2.3562
1.68376
1.01056
0.336907
9.6706
9.01163
8.35215
7.69185
7.03046
6.36773
5.7035
5.03767
4.37018
3.70109
3.03049
2.35855
1.68551
1.01165
0.337274
9.67108
9.01306
8.35447
7.69496
7.03421
6.37197
5.70804
5.04231
4.37473
3.70534
3.03425
2.36167
1.68784
1.01309
0.337761
9.6717
9.01489
8.35743
7.69891
7.039
6.37738
5.71384
5.04824
4.38053
3.71076
3.03906
2.36564
1.69081
1.01492
0.338382
9.67247
9.01716
8.36111
7.70385
7.04496
6.38412
5.72106
5.05563
4.38776
3.71752
3.04505
2.3706
1.69452
1.01722
0.339157
9.67342
9.01996
8.36563
7.7099
7.05229
6.3924
5.72993
5.0647
4.39665
3.72582
3.0524
2.37669
1.69907
1.02003
0.340109
9.67457
9.02335
8.37113
7.71726
7.06119
6.40246
5.74071
5.07574
4.40745
3.73592
3.06136
2.3841
1.70461
1.02346
0.341268
9.67595
9.02745
8.37776
7.72614
7.07194
6.41461
5.75374
5.08907
4.42051
3.74813
3.07218
2.39305
1.71131
1.0276
0.342669
9.67762
9.03238
8.38573
7.73682
7.08486
6.42922
5.7694
5.1051
4.43621
3.76281
3.08519
2.40383
1.71937
1.03258
0.344355
9.67961
9.03827
8.39528
7.74961
7.10034
6.44672
5.78817
5.12431
4.45503
3.78042
3.10081
2.41676
1.72904
1.03856
0.346379
9.68199
9.04532
8.40669
7.76489
7.11884
6.46764
5.81061
5.1473
4.47755
3.80149
3.11949
2.43224
1.74061
1.04572
0.348802
9.68483
9.05372
8.42029
7.78311
7.14091
6.49261
5.83739
5.17474
4.50446
3.82666
3.14183
2.45074
1.75446
1.05429
0.351701
9.68821
9.06372
8.43649
7.80482
7.16721
6.52237
5.86934
5.20748
4.53656
3.85672
3.16851
2.47285
1.77101
1.06452
0.355165
9.69224
9.07561
8.45576
7.83066
7.19852
6.55782
5.9074
5.24651
4.57485
3.89259
3.20036
2.49925
1.79077
1.07675
0.359304
9.69701
9.08975
8.47867
7.86138
7.23576
6.6
5.95272
5.29301
4.6205
3.93536
3.23836
2.53077
1.81437
1.09136
0.364249
9.70269
9.10654
8.50588
7.89789
7.28003
6.65018
6.00666
5.34838
4.67489
3.98637
3.2837
2.56839
1.84255
1.10881
0.370157
9.70942
9.12646
8.53817
7.94123
7.33263
6.70982
6.07082
5.41431
4.7397
4.0472
3.3378
2.61331
1.87622
1.12966
0.377218
9.7174
9.15007
8.57647
7.99266
7.39507
6.78069
6.14713
5.49279
4.81692
4.11973
3.40238
2.66696
1.91646
1.15459
0.385661
9.72684
9.17804
8.62185
8.05363
7.46917
6.86486
6.23786
5.58619
4.90893
4.20625
3.47948
2.73107
1.96457
1.18441
0.395766
9.73802
9.21113
8.67556
8.12585
7.55702
6.96478
6.34568
5.69734
5.01856
4.30948
3.57157
2.80774
2.02215
1.22013
0.407869
9.75122
9.25024
8.73908
8.21134
7.66112
7.08331
6.47377
5.82959
5.14922
4.43268
3.68165
2.89949
2.09113
1.26295
0.422384
9.7668
9.2964
8.81411
8.3124
7.78434
7.22383
6.6259
5.98693
5.30495
4.5798
3.81333
3.0094
2.17387
1.31434
0.439815
9.78515
9.3508
8.9026
8.43174
7.93006
7.3903
6.80647
6.1741
5.49061
4.75558
3.97097
3.14123
2.27325
1.37614
0.460784
9.80673
9.4148
9.0068
8.57246
8.10218
7.58734
7.02069
6.39671
5.71201
4.96575
4.15991
3.29957
2.39282
1.45059
0.486064
9.83205
9.48993
9.12926
8.73809
8.30518
7.8203
7.27467
6.66143
5.97611
5.21722
4.38666
3.49009
2.53701
1.5405
0.516617
9.86169
9.57793
9.27286
8.93267
8.54421
8.09538
7.57554
6.97612
6.29123
5.51838
4.65918
3.7198
2.71131
1.64939
0.553658
9.89628
9.68071
9.4408
9.1607
8.8251
8.41968
7.93158
7.35007
6.66733
5.87944
4.98729
3.99746
2.92267
1.78174
0.59873
9.93652
9.80035
9.63662
9.42719
9.15439
8.80131
8.3524
7.7942
7.11635
6.31279
5.38316
4.33403
3.1799
1.94327
0.653826
9.98313
9.93909
9.8641
9.73763
9.53933
9.24937
8.84899
8.32131
7.65254
6.83358
5.86189
4.74344
3.49434
2.14145
0.72155
10.0369
10.0993
10.1273
10.0979
9.98779
9.77398
9.43384
8.94624
8.29287
7.46029
6.44241
5.24348
3.88077
2.38612
0.805367
10.0986
10.2833
10.4302
10.514
10.5082
10.3862
10.1209
9.6861
9.05749
8.2155
7.1485
5.85714
4.35872
2.69053
0.909982
10.1689
10.4934
10.7771
10.9921
11.1091
11.0976
10.9256
10.5603
9.97009
9.12676
8.01023
6.61442
4.95445
3.07288
1.04195
10.2486
10.7317
11.1715
11.538
11.7992
11.9204
11.8642
11.5905
11.0582
10.2275
9.06567
7.55497
5.70394
3.55885
1.21066
10.3382
10.9999
11.6167
12.157
12.5863
12.8661
12.9534
12.8001
12.3532
11.558
10.3631
8.73164
6.65745
4.18577
1.43011
10.438
11.2991
12.1149
12.8529
13.4768
13.9452
14.2096
14.2131
13.8898
13.1656
11.9634
10.2155
7.88678
5.00975
1.72211
10.5481
11.6297
12.6671
13.6278
14.4751
15.1656
15.6464
15.8527
15.7044
15.1047
13.9422
12.1023
9.49662
6.11869
2.12278
10.6682
11.9909
13.2722
14.4812
15.582
16.5311
17.2735
17.7381
17.8321
17.4342
16.3909
14.5205
11.6424
7.65655
2.69675
10.7976
12.3809
13.9273
15.4093
16.7939
18.0398
19.093
19.8804
20.3006
20.2113
19.4133
17.6379
14.5569
9.87047
3.57181
10.9353
12.7962
14.627
16.4048
18.1017
19.6818
21.0965
22.277
23.1223
23.4797
23.1138
21.6614
18.5858
13.2036
5.03349
11.0797
13.2323
15.3633
17.4561
19.4901
21.4381
23.2621
24.9057
26.282
27.2496
27.5678
26.8112
24.2158
18.4721
7.81225
11.2289
13.6831
16.1257
18.5477
20.9377
23.2799
25.552
27.7191
29.7246
31.4694
32.7672
33.2367
32.031
27.1538
14.0384
11.3807
14.1418
16.9022
19.6612
22.4178
25.1698
27.914
30.6438
33.347
35.9984
38.5403
40.8242
42.3946
41.5552
30.6537
11.5324
14.6007
17.6792
20.7759
23.9003
27.0644
30.2849
33.5858
37.0042
40.6018
44.4911
48.9054
54.4298
62.9423
82.2716
11.6818
15.0522
18.4433
21.871
25.3545
28.919
32.5989
36.4449
40.5355
45.0011
50.0754
56.2137
64.3875
76.8147
98.4547
11.8264
15.489
19.1815
22.9266
26.7518
30.6924
34.7964
39.1327
43.8047
48.976
54.9186
62.106
71.3884
84.2859
103.283
1.16333
2.07835
2.47363
2.61776
2.6166
2.52197
2.3633
2.159
1.9214
1.65915
1.37863
1.08467
0.78112
0.471135
0.157448
0.622711
1.42279
1.86974
2.0886
2.15878
2.12808
2.02629
1.873
1.68165
1.46188
1.22088
0.964175
0.696198
0.420632
0.140688
0.391354
1.01248
1.42427
1.66269
1.77103
1.78355
1.72507
1.61343
1.46163
1.27936
1.07404
0.851511
0.616548
0.37317
0.124922
0.272211
0.747536
1.09919
1.32711
1.44984
1.48833
1.46076
1.38176
1.26278
1.11285
0.939142
0.747488
0.542744
0.329092
0.110263
0.201053
0.568474
0.860056
1.06458
1.18716
1.23898
1.23218
1.17784
1.08543
0.962856
0.816716
0.652556
0.475129
0.288609
0.0967845
0.153981
0.442081
0.681378
0.858961
0.973612
1.03034
1.03662
1.00037
0.929028
0.829232
0.706806
0.56684
0.413828
0.251812
0.0845172
0.120704
0.34958
0.545559
0.697049
0.800295
0.856737
0.8706
0.847276
0.792386
0.711326
0.609079
0.490185
0.358782
0.218682
0.073458
0.0961301
0.279926
0.440636
0.568641
0.659484
0.712704
0.730407
0.716104
0.673922
0.608135
0.522914
0.422218
0.309778
0.18911
0.063574
0.0774344
0.226304
0.358427
0.46604
0.544802
0.593339
0.612442
0.604293
0.571852
0.518443
0.447496
0.36241
0.266487
0.16292
0.0548093
0.0629053
0.184312
0.29324
0.383477
0.451112
0.494415
0.513404
0.509354
0.484346
0.440931
0.381899
0.310128
0.228505
0.139887
0.0470919
0.0514348
0.150985
0.241035
0.316611
0.374322
0.412376
0.430368
0.428971
0.409623
0.374266
0.325149
0.264688
0.195381
0.119755
0.040339
0.0422698
0.124256
0.198882
0.262153
0.311183
0.344269
0.360798
0.361056
0.346019
0.317158
0.276277
0.225392
0.166647
0.102254
0.0344629
0.034878
0.102638
0.164616
0.217585
0.259116
0.287663
0.302529
0.303763
0.292016
0.268398
0.234353
0.191556
0.141835
0.0871147
0.0293747
0.0288723
0.085037
0.136605
0.18096
0.216067
0.240557
0.253728
0.255487
0.246258
0.226879
0.198507
0.162529
0.120496
0.0740719
0.0249875
0.023964
0.070628
0.113604
0.150759
0.180393
0.201312
0.212852
0.214841
0.207549
0.191608
0.167944
0.137706
0.102207
0.0628768
0.021219
0.0199333
0.0587805
0.0946452
0.125782
0.15077
0.168582
0.178608
0.180642
0.174846
0.1617
0.141947
0.116537
0.0865796
0.053298
0.0179925
0.0166108
0.0490042
0.0789703
0.105074
0.12613
0.14126
0.149916
0.151881
0.147247
0.136381
0.119878
0.0985266
0.0732608
0.0451249
0.0152378
0.0138635
0.0409138
0.0659779
0.0878723
0.105607
0.118434
0.12587
0.127703
0.123978
0.114975
0.101177
0.0832347
0.0619355
0.038168
0.0128918
0.0115861
0.0342029
0.0551869
0.0735591
0.0884927
0.0993519
0.105716
0.107385
0.104375
0.0969009
0.0853538
0.0702744
0.0523244
0.032259
0.0108983
0.00969462
0.0286259
0.0462098
0.0616343
0.0742078
0.0833919
0.0888223
0.0903166
0.0878721
0.0816551
0.071984
0.0593076
0.0441827
0.0272495
0.00920765
0.00812116
0.0239846
0.0387325
0.0516895
0.0622768
0.070039
0.0746625
0.0759837
0.0739891
0.0688084
0.0607014
0.0500415
0.0372968
0.0230099
0.00777634
0.00681085
0.0201181
0.0324989
0.0433905
0.0523078
0.058866
0.0627962
0.0639536
0.0623191
0.0579941
0.0511918
0.0422231
0.0314821
0.0194278
0.00656666
0.00571892
0.0168951
0.0272997
0.0364627
0.0439772
0.0495181
0.0528556
0.0538627
0.0525176
0.0489005
0.0431866
0.0356358
0.0265795
0.0164062
0.00554598
0.00480876
0.0142078
0.0229627
0.0306798
0.0370174
0.0417006
0.0445334
0.0454053
0.0442939
0.0412631
0.0364574
0.0300941
0.0224526
0.0138616
0.00468627
0.0040503
0.0119681
0.0193464
0.0258551
0.0312065
0.0351682
0.0375731
0.0383255
0.0374035
0.0348583
0.0308098
0.0254402
0.018985
0.0117228
0.00396354
0.00341882
0.0101029
0.016334
0.0218342
0.0263608
0.0297171
0.0317605
0.0324084
0.0316403
0.0294975
0.0260798
0.0215403
0.016078
0.00992922
0.00335737
0.00289396
0.00855251
0.0138291
0.0184894
0.0223279
0.0251777
0.0269171
0.0274748
0.026832
0.0250221
0.0221289
0.0182812
0.0136478
0.00842946
0.00285043
0.00245895
0.00726734
0.0117524
0.0157153
0.0189818
0.0214095
0.0228944
0.023375
0.0228341
0.0212993
0.0188407
0.0155678
0.0116239
0.00718017
0.00242811
0.00209999
0.00620674
0.0100382
0.0134249
0.0162181
0.018296
0.0195693
0.0199846
0.0195266
0.018218
0.0161182
0.0133204
0.00994719
0.00614499
0.00207814
0.00180577
0.00533736
0.00863282
0.0115468
0.0139512
0.0157414
0.01684
0.0172007
0.0168097
0.0156861
0.0138804
0.0114727
0.00856835
0.00529361
0.00179029
0.00156706
0.00463198