/*--------------------------------*- C++ -*----------------------------------*\
| =========                 |                                                 |
| \\      /  F ield         | OpenFOAM: The Open Source CFD Toolbox           |
|  \\    /   O peration     | Version:  5.x                                   |
|   \\  /    A nd           | Web:      www.OpenFOAM.org                      |
|    \\/     M anipulation  |                                                 |
\*---------------------------------------------------------------------------*/
FoamFile
{
    version     2.0;
    format      ascii;
    class       volScalarField;
    location    "2.8";
    object      gradTx;
}
// * * * * * * * * * * * * * * * * * * * * * * * * * * * * * * * * * * * * * //

dimensions      [0 -1 0 1 0 0 0];

internalField   nonuniform List<scalar> 
3200
(
1.02334e-05
-6.36749e-07
-1.22887e-06
-1.24973e-06
-1.046e-06
-1.02172e-06
-7.32207e-07
-7.08557e-07
-5.14873e-07
-7.84709e-07
-3.59964e-07
-2.54451e-07
-2.43919e-07
-1.84247e-07
-1.78811e-07
-1.36986e-07
-1.33197e-07
-1.02792e-07
-1.00022e-07
-7.75021e-08
-7.54416e-08
-5.85703e-08
-5.70223e-08
-4.42929e-08
-4.31231e-08
-3.34786e-08
-3.25915e-08
-2.52685e-08
-2.45948e-08
-1.90301e-08
-1.85181e-08
-1.42905e-08
-1.39018e-08
-1.06932e-08
-1.03984e-08
-7.96705e-09
-7.74384e-09
-5.90541e-09
-5.73682e-09
-4.35037e-09
-4.2234e-09
-3.18116e-09
-3.08586e-09
-2.30545e-09
-2.23425e-09
-1.65277e-09
-1.60001e-09
-1.17008e-09
-1.13409e-09
-8.3822e-10
-1.26675e-09
-5.71775e-10
-3.76606e-10
-3.57265e-10
-2.40872e-10
-2.30461e-10
-1.51549e-10
-1.4467e-10
-9.24483e-11
-8.79621e-11
-5.46109e-11
-5.17843e-11
-3.12722e-11
-2.95551e-11
-1.73864e-11
-1.63785e-11
-9.38747e-12
-8.81322e-12
-4.90253e-12
-4.58313e-12
-2.43931e-12
-2.26062e-12
-1.01652e-12
-9.15786e-13
-2.426e-13
-1.9722e-13
-1.28443e-14
-2.3545e-15
-5.32931e-16
1.21951e-13
1.01897e-05
-6.63516e-07
-1.16907e-06
-1.21779e-06
-1.05488e-06
-9.99829e-07
-7.54516e-07
-7.01003e-07
-5.50703e-07
-7.24045e-07
-3.84631e-07
-2.68028e-07
-2.42199e-07
-1.89183e-07
-1.76501e-07
-1.40208e-07
-1.31426e-07
-1.05107e-07
-9.86924e-08
-7.92097e-08
-7.44389e-08
-5.98464e-08
-5.62627e-08
-4.52543e-08
-4.25461e-08
-3.42064e-08
-3.21529e-08
-2.58209e-08
-2.42613e-08
-1.94498e-08
-1.82648e-08
-1.46095e-08
-1.37097e-08
-1.09354e-08
-1.02529e-08
-8.15067e-09
-7.63398e-09
-6.04436e-09
-5.65409e-09
-4.45524e-09
-4.16131e-09
-3.26008e-09
-3.03948e-09
-2.36463e-09
-2.19981e-09
-1.69704e-09
-1.57498e-09
-1.20454e-09
-1.12274e-09
-8.93592e-10
-1.16791e-09
-6.1015e-10
-4.00368e-10
-3.53261e-10
-2.5043e-10
-2.26177e-10
-1.57748e-10
-1.41807e-10
-9.65706e-11
-8.6176e-11
-5.7268e-11
-5.07168e-11
-3.29216e-11
-2.89403e-11
-1.83732e-11
-1.60351e-11
-9.95845e-12
-8.62584e-12
-5.22365e-12
-4.48211e-12
-2.61431e-12
-2.19947e-12
-1.11875e-12
-8.8518e-13
-3.02045e-13
-1.9658e-13
-3.15768e-14
-6.71652e-15
-1.54324e-15
1.21619e-13
1.01539e-05
-6.77983e-07
-1.12753e-06
-1.1943e-06
-1.05945e-06
-9.85541e-07
-7.69148e-07
-6.97315e-07
-5.73584e-07
-6.83887e-07
-4.00382e-07
-2.77973e-07
-2.41564e-07
-1.92505e-07
-1.75133e-07
-1.42328e-07
-1.30356e-07
-1.06626e-07
-9.78853e-08
-8.03282e-08
-7.38285e-08
-6.06817e-08
-5.57996e-08
-4.58833e-08
-4.21942e-08
-3.46825e-08
-3.18852e-08
-2.61823e-08
-2.40578e-08
-1.97244e-08
-1.81102e-08
-1.48182e-08
-1.35924e-08
-1.10938e-08
-1.01642e-08
-8.27081e-09
-7.56697e-09
-6.13528e-09
-5.60366e-09
-4.52389e-09
-4.1235e-09
-3.31175e-09
-3.01125e-09
-2.40339e-09
-2.17887e-09
-1.72606e-09
-1.55987e-09
-1.22744e-09
-1.11726e-09
-9.28817e-10
-1.10235e-09
-6.34601e-10
-4.17619e-10
-3.51482e-10
-2.56842e-10
-2.23658e-10
-1.61847e-10
-1.40116e-10
-9.92984e-11
-8.51298e-11
-5.90304e-11
-5.00987e-11
-3.40182e-11
-2.85886e-11
-1.90307e-11
-1.58411e-11
-1.03396e-11
-8.52117e-12
-5.4383e-12
-4.42609e-12
-2.73117e-12
-2.16494e-12
-1.18707e-12
-8.68549e-13
-3.42378e-13
-1.98318e-13
-4.47022e-14
-1.02904e-14
-2.39675e-15
1.21338e-13
1.01287e-05
-6.85195e-07
-1.1013e-06
-1.17887e-06
-1.06156e-06
-9.76943e-07
-7.77988e-07
-6.95696e-07
-5.87096e-07
-6.59475e-07
-4.09684e-07
-2.84474e-07
-2.41432e-07
-1.94557e-07
-1.74382e-07
-1.43613e-07
-1.29755e-07
-1.07544e-07
-9.74297e-08
-8.10035e-08
-7.34832e-08
-6.11857e-08
-5.55373e-08
-4.62627e-08
-4.19946e-08
-3.49696e-08
-3.17334e-08
-2.64001e-08
-2.39423e-08
-1.98899e-08
-1.80225e-08
-1.4944e-08
-1.35259e-08
-1.11894e-08
-1.01138e-08
-8.34327e-09
-7.529e-09
-6.19012e-09
-5.57509e-09
-4.5653e-09
-4.10208e-09
-3.34293e-09
-2.99528e-09
-2.42679e-09
-2.16704e-09
-1.74359e-09
-1.5514e-09
-1.24144e-09
-1.11491e-09
-9.49552e-10
-1.06244e-09
-6.49013e-10
-4.28829e-10
-3.5084e-10
-2.60793e-10
-2.22282e-10
-1.64341e-10
-1.39186e-10
-1.00959e-10
-8.45598e-11
-6.01052e-11
-4.97658e-11
-3.46884e-11
-2.84018e-11
-1.94332e-11
-1.57393e-11
-1.05732e-11
-8.46697e-12
-5.57005e-12
-4.39733e-12
-2.80285e-12
-2.14684e-12
-1.22901e-12
-8.60212e-13
-3.6742e-13
-2.00435e-13
-5.30571e-14
-1.28024e-14
-3.0124e-15
1.21133e-13
1.01158e-05
-6.88117e-07
-1.0886e-06
-1.17123e-06
-1.06235e-06
-9.72905e-07
-7.8215e-07
-6.95118e-07
-5.93359e-07
-6.47943e-07
-4.13996e-07
-2.87682e-07
-2.41449e-07
-1.95537e-07
-1.74051e-07
-1.44219e-07
-1.29486e-07
-1.07976e-07
-9.72252e-08
-8.13213e-08
-7.33279e-08
-6.14228e-08
-5.54192e-08
-4.64412e-08
-4.19048e-08
-3.51046e-08
-3.1665e-08
-2.65026e-08
-2.38903e-08
-1.99678e-08
-1.7983e-08
-1.50031e-08
-1.34959e-08
-1.12343e-08
-1.00912e-08
-8.37734e-09
-7.5119e-09
-6.21592e-09
-5.56223e-09
-4.58479e-09
-4.09245e-09
-3.3576e-09
-2.98809e-09
-2.4378e-09
-2.16172e-09
-1.75184e-09
-1.54761e-09
-1.24809e-09
-1.11409e-09
-9.59143e-10
-1.04356e-09
-6.55685e-10
-4.34345e-10
-3.50673e-10
-2.62678e-10
-2.21679e-10
-1.65521e-10
-1.38777e-10
-1.01745e-10
-8.43108e-11
-6.06145e-11
-4.96218e-11
-3.50063e-11
-2.83217e-11
-1.96243e-11
-1.56963e-11
-1.06843e-11
-8.44426e-12
-5.63272e-12
-4.38536e-12
-2.83693e-12
-2.13918e-12
-1.24896e-12
-8.56818e-13
-3.7942e-13
-2.01761e-13
-5.71242e-14
-1.40945e-14
-3.33433e-15
1.21026e-13
1.01158e-05
-6.88122e-07
-1.0886e-06
-1.17123e-06
-1.06235e-06
-9.72905e-07
-7.8215e-07
-6.95118e-07
-5.93359e-07
-6.47943e-07
-4.13996e-07
-2.87682e-07
-2.41449e-07
-1.95537e-07
-1.74051e-07
-1.44219e-07
-1.29486e-07
-1.07976e-07
-9.72252e-08
-8.13213e-08
-7.33279e-08
-6.14228e-08
-5.54192e-08
-4.64412e-08
-4.19048e-08
-3.51046e-08
-3.1665e-08
-2.65026e-08
-2.38903e-08
-1.99678e-08
-1.7983e-08
-1.50031e-08
-1.34959e-08
-1.12343e-08
-1.00912e-08
-8.37735e-09
-7.5119e-09
-6.21592e-09
-5.56223e-09
-4.58479e-09
-4.09245e-09
-3.3576e-09
-2.98809e-09
-2.4378e-09
-2.16172e-09
-1.75184e-09
-1.54761e-09
-1.24809e-09
-1.11409e-09
-9.59143e-10
-1.04356e-09
-6.55685e-10
-4.34345e-10
-3.50673e-10
-2.62678e-10
-2.21679e-10
-1.65521e-10
-1.38777e-10
-1.01745e-10
-8.43108e-11
-6.06145e-11
-4.96218e-11
-3.50062e-11
-2.83217e-11
-1.96243e-11
-1.56963e-11
-1.06843e-11
-8.44426e-12
-5.63272e-12
-4.38536e-12
-2.83693e-12
-2.13918e-12
-1.24896e-12
-8.56817e-13
-3.79419e-13
-2.01761e-13
-5.7124e-14
-1.40944e-14
-3.33422e-15
1.21026e-13
1.01288e-05
-6.85207e-07
-1.10131e-06
-1.17888e-06
-1.06156e-06
-9.76943e-07
-7.77988e-07
-6.95696e-07
-5.87096e-07
-6.59475e-07
-4.09684e-07
-2.84473e-07
-2.41432e-07
-1.94557e-07
-1.74382e-07
-1.43613e-07
-1.29755e-07
-1.07544e-07
-9.74297e-08
-8.10035e-08
-7.34832e-08
-6.11857e-08
-5.55373e-08
-4.62628e-08
-4.19946e-08
-3.49696e-08
-3.17334e-08
-2.64001e-08
-2.39423e-08
-1.98899e-08
-1.80225e-08
-1.4944e-08
-1.35259e-08
-1.11894e-08
-1.01138e-08
-8.34327e-09
-7.529e-09
-6.19012e-09
-5.57509e-09
-4.5653e-09
-4.10208e-09
-3.34293e-09
-2.99528e-09
-2.42679e-09
-2.16704e-09
-1.74359e-09
-1.5514e-09
-1.24144e-09
-1.11491e-09
-9.49552e-10
-1.06244e-09
-6.49012e-10
-4.28829e-10
-3.50839e-10
-2.60793e-10
-2.22282e-10
-1.64341e-10
-1.39186e-10
-1.00959e-10
-8.45598e-11
-6.01052e-11
-4.97658e-11
-3.46883e-11
-2.84017e-11
-1.94332e-11
-1.57393e-11
-1.05732e-11
-8.46696e-12
-5.57004e-12
-4.39732e-12
-2.80284e-12
-2.14684e-12
-1.22901e-12
-8.6021e-13
-3.67419e-13
-2.00434e-13
-5.30565e-14
-1.28021e-14
-3.01209e-15
1.21133e-13
1.01539e-05
-6.78e-07
-1.12754e-06
-1.1943e-06
-1.05945e-06
-9.85542e-07
-7.69148e-07
-6.97316e-07
-5.73584e-07
-6.83887e-07
-4.00382e-07
-2.77973e-07
-2.41564e-07
-1.92505e-07
-1.75133e-07
-1.42328e-07
-1.30356e-07
-1.06626e-07
-9.78853e-08
-8.03283e-08
-7.38285e-08
-6.06817e-08
-5.57996e-08
-4.58834e-08
-4.21942e-08
-3.46825e-08
-3.18852e-08
-2.61823e-08
-2.40578e-08
-1.97244e-08
-1.81102e-08
-1.48182e-08
-1.35924e-08
-1.10938e-08
-1.01642e-08
-8.27081e-09
-7.56698e-09
-6.13528e-09
-5.60366e-09
-4.52389e-09
-4.1235e-09
-3.31175e-09
-3.01125e-09
-2.40339e-09
-2.17887e-09
-1.72606e-09
-1.55987e-09
-1.22745e-09
-1.11726e-09
-9.28817e-10
-1.10235e-09
-6.346e-10
-4.17618e-10
-3.51482e-10
-2.56842e-10
-2.23658e-10
-1.61847e-10
-1.40116e-10
-9.92984e-11
-8.51298e-11
-5.90303e-11
-5.00986e-11
-3.40182e-11
-2.85886e-11
-1.90307e-11
-1.5841e-11
-1.03396e-11
-8.52116e-12
-5.4383e-12
-4.42609e-12
-2.73117e-12
-2.16493e-12
-1.18707e-12
-8.68547e-13
-3.42377e-13
-1.98317e-13
-4.47015e-14
-1.029e-14
-2.39633e-15
1.21338e-13
1.01898e-05
-6.63531e-07
-1.16907e-06
-1.21779e-06
-1.05489e-06
-9.9983e-07
-7.54516e-07
-7.01003e-07
-5.50703e-07
-7.24045e-07
-3.84631e-07
-2.68028e-07
-2.42199e-07
-1.89183e-07
-1.76501e-07
-1.40208e-07
-1.31426e-07
-1.05107e-07
-9.86925e-08
-7.92097e-08
-7.44389e-08
-5.98464e-08
-5.62627e-08
-4.52543e-08
-4.25461e-08
-3.42064e-08
-3.21529e-08
-2.58209e-08
-2.42613e-08
-1.94498e-08
-1.82649e-08
-1.46095e-08
-1.37097e-08
-1.09354e-08
-1.02529e-08
-8.15068e-09
-7.63398e-09
-6.04436e-09
-5.65409e-09
-4.45525e-09
-4.16132e-09
-3.26008e-09
-3.03948e-09
-2.36463e-09
-2.19981e-09
-1.69704e-09
-1.57498e-09
-1.20454e-09
-1.12274e-09
-8.93592e-10
-1.16791e-09
-6.1015e-10
-4.00367e-10
-3.53261e-10
-2.50429e-10
-2.26177e-10
-1.57748e-10
-1.41807e-10
-9.65706e-11
-8.6176e-11
-5.7268e-11
-5.07168e-11
-3.29216e-11
-2.89402e-11
-1.83732e-11
-1.6035e-11
-9.95844e-12
-8.62583e-12
-5.22365e-12
-4.4821e-12
-2.61431e-12
-2.19947e-12
-1.11874e-12
-8.85179e-13
-3.02043e-13
-1.96579e-13
-3.15762e-14
-6.71618e-15
-1.54286e-15
1.21619e-13
1.02334e-05
-6.36755e-07
-1.22887e-06
-1.24973e-06
-1.046e-06
-1.02172e-06
-7.32207e-07
-7.08557e-07
-5.14873e-07
-7.84709e-07
-3.59964e-07
-2.54451e-07
-2.43919e-07
-1.84247e-07
-1.78811e-07
-1.36986e-07
-1.33197e-07
-1.02792e-07
-1.00022e-07
-7.75021e-08
-7.54416e-08
-5.85703e-08
-5.70223e-08
-4.42929e-08
-4.31231e-08
-3.34786e-08
-3.25915e-08
-2.52685e-08
-2.45948e-08
-1.90301e-08
-1.85182e-08
-1.42905e-08
-1.39018e-08
-1.06932e-08
-1.03984e-08
-7.96706e-09
-7.74385e-09
-5.90542e-09
-5.73682e-09
-4.35037e-09
-4.2234e-09
-3.18116e-09
-3.08586e-09
-2.30545e-09
-2.23425e-09
-1.65278e-09
-1.60001e-09
-1.17008e-09
-1.1341e-09
-8.38221e-10
-1.26675e-09
-5.71775e-10
-3.76606e-10
-3.57265e-10
-2.40872e-10
-2.30461e-10
-1.51549e-10
-1.4467e-10
-9.24483e-11
-8.79621e-11
-5.46109e-11
-5.17843e-11
-3.12722e-11
-2.95551e-11
-1.73864e-11
-1.63785e-11
-9.38747e-12
-8.81322e-12
-4.90252e-12
-4.58313e-12
-2.43931e-12
-2.26062e-12
-1.01652e-12
-9.15786e-13
-2.42599e-13
-1.9722e-13
-1.2844e-14
-2.35436e-15
-5.32765e-16
1.21951e-13
0.00074553
-0.000656901
-5.2418e-05
-2.26078e-05
-3.99523e-06
-2.20069e-06
-7.90717e-07
-6.50115e-07
-5.25723e-07
-8.73185e-07
-4.50348e-07
-3.78347e-07
-3.69947e-07
-3.17801e-07
-3.12486e-07
-2.64865e-07
-2.60182e-07
-2.1808e-07
-2.14001e-07
-1.77888e-07
-1.74422e-07
-1.4411e-07
-1.4122e-07
-1.16163e-07
-1.13786e-07
-9.32958e-08
-9.13579e-08
-7.47305e-08
-7.31615e-08
-5.97414e-08
-5.84771e-08
-4.7687e-08
-4.66716e-08
-3.80199e-08
-3.72064e-08
-3.0283e-08
-2.96324e-08
-2.41004e-08
-2.35808e-08
-1.91661e-08
-1.87517e-08
-1.52328e-08
-1.49026e-08
-1.21014e-08
-1.18389e-08
-9.61267e-09
-9.40551e-09
-7.64517e-09
-7.50711e-09
-6.28946e-09
-1.01882e-08
-5.01218e-09
-3.91406e-09
-3.7981e-09
-3.11008e-09
-3.04498e-09
-2.51386e-09
-2.46452e-09
-2.05275e-09
-2.01465e-09
-1.69733e-09
-1.66806e-09
-1.42522e-09
-1.40278e-09
-1.21688e-09
-1.19864e-09
-1.037e-09
-1.01927e-09
-8.42206e-10
-8.23176e-10
-6.34092e-10
-6.15983e-10
-4.59922e-10
-4.39053e-10
-1.93219e-10
-1.72334e-10
-1.05065e-11
-1.87281e-12
-4.21982e-13
-3.04862e-11
0.000729655
-0.000579679
-9.91811e-05
-3.22896e-05
-7.71687e-06
-2.99064e-06
-1.08814e-06
-7.16468e-07
-5.75862e-07
-8.07958e-07
-4.7703e-07
-3.89025e-07
-3.68121e-07
-3.21825e-07
-3.09445e-07
-2.68299e-07
-2.57466e-07
-2.21134e-07
-2.117e-07
-1.80526e-07
-1.7251e-07
-1.46336e-07
-1.39651e-07
-1.1801e-07
-1.12509e-07
-9.48103e-08
-9.03263e-08
-7.59618e-08
-7.23312e-08
-6.07365e-08
-5.78108e-08
-4.84879e-08
-4.61381e-08
-3.86625e-08
-3.67799e-08
-3.07974e-08
-2.92919e-08
-2.45116e-08
-2.33093e-08
-1.94944e-08
-1.85354e-08
-1.54946e-08
-1.47306e-08
-1.231e-08
-1.17024e-08
-9.77932e-09
-9.30074e-09
-7.79174e-09
-7.48565e-09
-6.67085e-09
-9.37732e-09
-5.31618e-09
-4.06163e-09
-3.77594e-09
-3.16556e-09
-3.01384e-09
-2.55391e-09
-2.43965e-09
-2.0837e-09
-1.99552e-09
-1.72123e-09
-1.65347e-09
-1.4435e-09
-1.39153e-09
-1.23043e-09
-1.18815e-09
-1.04788e-09
-1.00685e-09
-8.54081e-10
-8.10115e-10
-6.47645e-10
-6.05676e-10
-4.68914e-10
-4.20712e-10
-2.11677e-10
-1.63657e-10
-2.53915e-11
-5.33096e-12
-1.22164e-12
-3.07542e-11
0.000716664
-0.000524561
-0.000129399
-4.02783e-05
-1.06444e-05
-3.66752e-06
-1.32427e-06
-7.73556e-07
-6.11082e-07
-7.65246e-07
-4.93991e-07
-3.97015e-07
-3.67307e-07
-3.24489e-07
-3.07552e-07
-2.70519e-07
-2.55769e-07
-2.2311e-07
-2.10267e-07
-1.82237e-07
-1.71323e-07
-1.47782e-07
-1.3868e-07
-1.19211e-07
-1.1172e-07
-9.57956e-08
-8.96893e-08
-7.67633e-08
-7.18189e-08
-6.13844e-08
-5.74e-08
-4.90094e-08
-4.58094e-08
-3.9081e-08
-3.65172e-08
-3.11326e-08
-2.90822e-08
-2.47795e-08
-2.3142e-08
-1.97083e-08
-1.84022e-08
-1.56652e-08
-1.46247e-08
-1.24459e-08
-1.16185e-08
-9.88812e-09
-9.23712e-09
-7.89013e-09
-7.48449e-09
-6.91134e-09
-8.83715e-09
-5.50787e-09
-4.17041e-09
-3.76674e-09
-3.20267e-09
-2.995e-09
-2.58012e-09
-2.42444e-09
-2.10393e-09
-1.98382e-09
-1.73686e-09
-1.64456e-09
-1.45545e-09
-1.38463e-09
-1.23922e-09
-1.18158e-09
-1.05479e-09
-9.98889e-10
-8.61599e-10
-8.01788e-10
-6.56372e-10
-5.99156e-10
-4.7436e-10
-4.08803e-10
-2.23693e-10
-1.58588e-10
-3.55475e-11
-8.15065e-12
-1.89666e-12
-3.09819e-11
0.000707545
-0.000489124
-0.000147375
-4.58868e-05
-1.26654e-05
-4.15889e-06
-1.48863e-06
-8.1508e-07
-6.33621e-07
-7.39542e-07
-5.03975e-07
-4.0231e-07
-3.67013e-07
-3.26115e-07
-3.0646e-07
-2.71845e-07
-2.54785e-07
-2.24291e-07
-2.09439e-07
-1.83261e-07
-1.70639e-07
-1.48649e-07
-1.38121e-07
-1.19932e-07
-1.11268e-07
-9.6387e-08
-8.9324e-08
-7.72445e-08
-7.15255e-08
-6.17736e-08
-5.71648e-08
-4.93228e-08
-4.56212e-08
-3.93325e-08
-3.63669e-08
-3.1334e-08
-2.89622e-08
-2.49406e-08
-2.30464e-08
-1.98369e-08
-1.8326e-08
-1.57677e-08
-1.45641e-08
-1.25276e-08
-1.15705e-08
-9.95362e-09
-9.20124e-09
-7.95078e-09
-7.48993e-09
-7.05179e-09
-8.5071e-09
-5.61982e-09
-4.24179e-09
-3.76391e-09
-3.22549e-09
-2.98441e-09
-2.59593e-09
-2.41579e-09
-2.11612e-09
-1.97717e-09
-1.74628e-09
-1.6395e-09
-1.46266e-09
-1.38071e-09
-1.24448e-09
-1.17775e-09
-1.05885e-09
-9.94171e-10
-8.66007e-10
-7.96878e-10
-6.61564e-10
-5.95333e-10
-4.77432e-10
-4.01671e-10
-2.30905e-10
-1.55835e-10
-4.18765e-11
-1.0124e-11
-2.38317e-12
-3.11472e-11
0.000702858
-0.000471793
-0.00015574
-4.8764e-05
-1.36973e-05
-4.41659e-06
-1.57302e-06
-8.36879e-07
-6.44645e-07
-7.27485e-07
-5.08594e-07
-4.04943e-07
-3.66937e-07
-3.26885e-07
-3.05962e-07
-2.72464e-07
-2.54334e-07
-2.24843e-07
-2.0906e-07
-1.83741e-07
-1.70327e-07
-1.49055e-07
-1.37867e-07
-1.20269e-07
-1.11062e-07
-9.66643e-08
-8.91582e-08
-7.74702e-08
-7.13923e-08
-6.19562e-08
-5.70581e-08
-4.94698e-08
-4.55359e-08
-3.94505e-08
-3.62987e-08
-3.14285e-08
-2.89079e-08
-2.50161e-08
-2.30031e-08
-1.98972e-08
-1.82915e-08
-1.58158e-08
-1.45367e-08
-1.2566e-08
-1.15488e-08
-9.9844e-09
-9.18514e-09
-7.97972e-09
-7.49435e-09
-7.1164e-09
-8.35066e-09
-5.67132e-09
-4.27709e-09
-3.76344e-09
-3.23636e-09
-2.97967e-09
-2.60337e-09
-2.41189e-09
-2.12185e-09
-1.97417e-09
-1.7507e-09
-1.63722e-09
-1.46604e-09
-1.37894e-09
-1.24694e-09
-1.176e-09
-1.06073e-09
-9.9198e-10
-8.68041e-10
-7.94603e-10
-6.63984e-10
-5.93569e-10
-4.78811e-10
-3.98334e-10
-2.34285e-10
-1.54635e-10
-4.49157e-11
-1.1136e-11
-2.63745e-12
-3.12339e-11
0.000702858
-0.000471793
-0.00015574
-4.8764e-05
-1.36972e-05
-4.41657e-06
-1.57302e-06
-8.36875e-07
-6.44643e-07
-7.27485e-07
-5.08593e-07
-4.04943e-07
-3.66937e-07
-3.26885e-07
-3.05962e-07
-2.72464e-07
-2.54334e-07
-2.24843e-07
-2.0906e-07
-1.83741e-07
-1.70327e-07
-1.49055e-07
-1.37867e-07
-1.20269e-07
-1.11062e-07
-9.66643e-08
-8.91582e-08
-7.74702e-08
-7.13923e-08
-6.19562e-08
-5.70581e-08
-4.94698e-08
-4.55359e-08
-3.94505e-08
-3.62987e-08
-3.14285e-08
-2.89079e-08
-2.50161e-08
-2.30031e-08
-1.98972e-08
-1.82915e-08
-1.58158e-08
-1.45367e-08
-1.2566e-08
-1.15488e-08
-9.9844e-09
-9.18514e-09
-7.97972e-09
-7.49435e-09
-7.1164e-09
-8.35067e-09
-5.67132e-09
-4.27709e-09
-3.76344e-09
-3.23636e-09
-2.97967e-09
-2.60337e-09
-2.41189e-09
-2.12185e-09
-1.97417e-09
-1.7507e-09
-1.63722e-09
-1.46604e-09
-1.37894e-09
-1.24694e-09
-1.176e-09
-1.06073e-09
-9.9198e-10
-8.68041e-10
-7.94603e-10
-6.63984e-10
-5.93569e-10
-4.78811e-10
-3.98334e-10
-2.34285e-10
-1.54635e-10
-4.49156e-11
-1.1136e-11
-2.63744e-12
-3.12339e-11
0.000707545
-0.000489125
-0.000147375
-4.58868e-05
-1.26653e-05
-4.15884e-06
-1.48861e-06
-8.15071e-07
-6.33618e-07
-7.39541e-07
-5.03974e-07
-4.0231e-07
-3.67013e-07
-3.26115e-07
-3.0646e-07
-2.71845e-07
-2.54785e-07
-2.24291e-07
-2.09439e-07
-1.83261e-07
-1.70639e-07
-1.48649e-07
-1.38121e-07
-1.19932e-07
-1.11268e-07
-9.6387e-08
-8.93241e-08
-7.72445e-08
-7.15255e-08
-6.17736e-08
-5.71648e-08
-4.93228e-08
-4.56212e-08
-3.93325e-08
-3.63669e-08
-3.1334e-08
-2.89622e-08
-2.49406e-08
-2.30464e-08
-1.98369e-08
-1.83261e-08
-1.57677e-08
-1.45641e-08
-1.25276e-08
-1.15705e-08
-9.95363e-09
-9.20124e-09
-7.95078e-09
-7.48993e-09
-7.0518e-09
-8.5071e-09
-5.61982e-09
-4.24179e-09
-3.76391e-09
-3.22549e-09
-2.98441e-09
-2.59593e-09
-2.41579e-09
-2.11612e-09
-1.97717e-09
-1.74628e-09
-1.6395e-09
-1.46266e-09
-1.38071e-09
-1.24448e-09
-1.17775e-09
-1.05885e-09
-9.94172e-10
-8.66007e-10
-7.96878e-10
-6.61565e-10
-5.95333e-10
-4.77432e-10
-4.01671e-10
-2.30904e-10
-1.55835e-10
-4.18763e-11
-1.01238e-11
-2.38313e-12
-3.11471e-11
0.000716664
-0.000524562
-0.000129399
-4.02782e-05
-1.06443e-05
-3.66746e-06
-1.32424e-06
-7.73543e-07
-6.11078e-07
-7.65245e-07
-4.93991e-07
-3.97015e-07
-3.67307e-07
-3.24489e-07
-3.07553e-07
-2.70519e-07
-2.55769e-07
-2.2311e-07
-2.10267e-07
-1.82237e-07
-1.71323e-07
-1.47782e-07
-1.3868e-07
-1.19211e-07
-1.11721e-07
-9.57956e-08
-8.96893e-08
-7.67633e-08
-7.18189e-08
-6.13845e-08
-5.74e-08
-4.90094e-08
-4.58094e-08
-3.9081e-08
-3.65172e-08
-3.11326e-08
-2.90822e-08
-2.47795e-08
-2.31421e-08
-1.97083e-08
-1.84022e-08
-1.56652e-08
-1.46247e-08
-1.24459e-08
-1.16185e-08
-9.88812e-09
-9.23713e-09
-7.89014e-09
-7.48449e-09
-6.91135e-09
-8.83715e-09
-5.50787e-09
-4.17041e-09
-3.76674e-09
-3.20267e-09
-2.995e-09
-2.58012e-09
-2.42444e-09
-2.10393e-09
-1.98382e-09
-1.73686e-09
-1.64456e-09
-1.45545e-09
-1.38463e-09
-1.23922e-09
-1.18158e-09
-1.05479e-09
-9.98889e-10
-8.61599e-10
-8.01789e-10
-6.56373e-10
-5.99156e-10
-4.7436e-10
-4.08802e-10
-2.23692e-10
-1.58588e-10
-3.55472e-11
-8.15044e-12
-1.89662e-12
-3.09818e-11
0.000729655
-0.000579679
-9.91811e-05
-3.22895e-05
-7.71679e-06
-2.99059e-06
-1.08811e-06
-7.16457e-07
-5.75858e-07
-8.07957e-07
-4.7703e-07
-3.89025e-07
-3.68121e-07
-3.21825e-07
-3.09445e-07
-2.68299e-07
-2.57467e-07
-2.21134e-07
-2.117e-07
-1.80526e-07
-1.7251e-07
-1.46336e-07
-1.39651e-07
-1.18011e-07
-1.1251e-07
-9.48104e-08
-9.03263e-08
-7.59619e-08
-7.23312e-08
-6.07365e-08
-5.78108e-08
-4.84879e-08
-4.61382e-08
-3.86625e-08
-3.67799e-08
-3.07974e-08
-2.92919e-08
-2.45116e-08
-2.33093e-08
-1.94944e-08
-1.85354e-08
-1.54946e-08
-1.47306e-08
-1.231e-08
-1.17024e-08
-9.77932e-09
-9.30075e-09
-7.79175e-09
-7.48566e-09
-6.67086e-09
-9.37732e-09
-5.31618e-09
-4.06163e-09
-3.77594e-09
-3.16556e-09
-3.01384e-09
-2.55391e-09
-2.43965e-09
-2.0837e-09
-1.99552e-09
-1.72123e-09
-1.65347e-09
-1.4435e-09
-1.39153e-09
-1.23043e-09
-1.18815e-09
-1.04788e-09
-1.00685e-09
-8.54082e-10
-8.10115e-10
-6.47645e-10
-6.05676e-10
-4.68914e-10
-4.20712e-10
-2.11677e-10
-1.63657e-10
-2.53912e-11
-5.33078e-12
-1.22161e-12
-3.07541e-11
0.00074553
-0.000656901
-5.2418e-05
-2.26078e-05
-3.9952e-06
-2.20067e-06
-7.90707e-07
-6.50111e-07
-5.25721e-07
-8.73185e-07
-4.50348e-07
-3.78347e-07
-3.69948e-07
-3.17801e-07
-3.12486e-07
-2.64865e-07
-2.60182e-07
-2.1808e-07
-2.14001e-07
-1.77888e-07
-1.74422e-07
-1.4411e-07
-1.4122e-07
-1.16163e-07
-1.13786e-07
-9.32958e-08
-9.13579e-08
-7.47305e-08
-7.31615e-08
-5.97414e-08
-5.84771e-08
-4.7687e-08
-4.66717e-08
-3.80199e-08
-3.72064e-08
-3.0283e-08
-2.96324e-08
-2.41004e-08
-2.35808e-08
-1.91661e-08
-1.87517e-08
-1.52328e-08
-1.49026e-08
-1.21014e-08
-1.18389e-08
-9.61267e-09
-9.40552e-09
-7.64517e-09
-7.50712e-09
-6.28947e-09
-1.01882e-08
-5.01218e-09
-3.91406e-09
-3.7981e-09
-3.11008e-09
-3.04499e-09
-2.51386e-09
-2.46452e-09
-2.05275e-09
-2.01465e-09
-1.69734e-09
-1.66806e-09
-1.42522e-09
-1.40278e-09
-1.21688e-09
-1.19864e-09
-1.037e-09
-1.01928e-09
-8.42206e-10
-8.23176e-10
-6.34092e-10
-6.15984e-10
-4.59922e-10
-4.39053e-10
-1.93219e-10
-1.72334e-10
-1.05064e-11
-1.87273e-12
-4.2197e-13
-3.04862e-11
0.000745702
-0.000657153
-5.24438e-05
-2.26219e-05
-3.99085e-06
-2.195e-06
-7.83432e-07
-6.42684e-07
-5.18281e-07
-8.60295e-07
-4.43558e-07
-3.72527e-07
-3.64242e-07
-3.12825e-07
-3.07585e-07
-2.60651e-07
-2.56037e-07
-2.14558e-07
-2.10541e-07
-1.74974e-07
-1.71561e-07
-1.41717e-07
-1.38873e-07
-1.14211e-07
-1.11871e-07
-9.17101e-08
-8.98035e-08
-7.34474e-08
-7.19042e-08
-5.87064e-08
-5.74632e-08
-4.68545e-08
-4.58562e-08
-3.73517e-08
-3.65521e-08
-2.97479e-08
-2.91086e-08
-2.36727e-08
-2.31622e-08
-1.88249e-08
-1.84178e-08
-1.4961e-08
-1.46367e-08
-1.18853e-08
-1.16274e-08
-9.44094e-09
-9.23749e-09
-7.50867e-09
-7.37309e-09
-6.17733e-09
-1.00067e-08
-4.923e-09
-3.84459e-09
-3.73072e-09
-3.05509e-09
-2.99117e-09
-2.46962e-09
-2.42117e-09
-2.01687e-09
-1.97946e-09
-1.66796e-09
-1.63922e-09
-1.40092e-09
-1.37891e-09
-1.19663e-09
-1.17876e-09
-1.02045e-09
-1.00308e-09
-8.2941e-10
-8.10722e-10
-6.24812e-10
-6.0701e-10
-4.53633e-10
-4.33078e-10
-1.90619e-10
-1.70018e-10
-1.03652e-11
-1.8476e-12
-4.16302e-13
-3.00635e-11
0.000729821
-0.000579901
-9.92241e-05
-3.23063e-05
-7.71484e-06
-2.98539e-06
-1.08108e-06
-7.09031e-07
-5.68045e-07
-7.96123e-07
-4.69871e-07
-3.8306e-07
-3.62442e-07
-3.16793e-07
-3.04589e-07
-2.64037e-07
-2.53362e-07
-2.17567e-07
-2.08274e-07
-1.77573e-07
-1.69679e-07
-1.4391e-07
-1.37329e-07
-1.16029e-07
-1.10616e-07
-9.32004e-08
-8.87888e-08
-7.46588e-08
-7.10877e-08
-5.96851e-08
-5.68082e-08
-4.76419e-08
-4.53319e-08
-3.79834e-08
-3.6133e-08
-3.02535e-08
-2.8774e-08
-2.40768e-08
-2.28954e-08
-1.91474e-08
-1.82053e-08
-1.52182e-08
-1.44677e-08
-1.20901e-08
-1.14934e-08
-9.60462e-09
-9.1346e-09
-7.65262e-09
-7.35203e-09
-6.55192e-09
-9.21028e-09
-5.22158e-09
-3.98953e-09
-3.70896e-09
-3.10957e-09
-2.96058e-09
-2.50896e-09
-2.39676e-09
-2.04726e-09
-1.96068e-09
-1.69142e-09
-1.62491e-09
-1.41887e-09
-1.36788e-09
-1.20992e-09
-1.16849e-09
-1.03111e-09
-9.90887e-10
-8.41047e-10
-7.97871e-10
-6.38136e-10
-5.96878e-10
-4.62453e-10
-4.14978e-10
-2.0882e-10
-1.61456e-10
-2.50498e-11
-5.2592e-12
-1.2052e-12
-3.03279e-11
0.000716825
-0.000524763
-0.000129454
-4.02973e-05
-1.06441e-05
-3.66265e-06
-1.3174e-06
-7.66114e-07
-6.03036e-07
-7.54118e-07
-4.86603e-07
-3.90943e-07
-3.61641e-07
-3.19421e-07
-3.02724e-07
-2.66225e-07
-2.5169e-07
-2.19514e-07
-2.06863e-07
-1.79258e-07
-1.68511e-07
-1.45333e-07
-1.36373e-07
-1.17211e-07
-1.09839e-07
-9.417e-08
-8.81624e-08
-7.54472e-08
-7.0584e-08
-6.03224e-08
-5.64043e-08
-4.81547e-08
-4.50087e-08
-3.83948e-08
-3.58749e-08
-3.05829e-08
-2.85679e-08
-2.43401e-08
-2.27312e-08
-1.93576e-08
-1.80745e-08
-1.53858e-08
-1.43637e-08
-1.22236e-08
-1.1411e-08
-9.71148e-09
-9.07212e-09
-7.74925e-09
-7.35089e-09
-6.78812e-09
-8.67973e-09
-5.40986e-09
-4.09636e-09
-3.69993e-09
-3.14602e-09
-2.94208e-09
-2.53469e-09
-2.38182e-09
-2.06713e-09
-1.9492e-09
-1.70676e-09
-1.61616e-09
-1.4306e-09
-1.36113e-09
-1.21854e-09
-1.16205e-09
-1.03787e-09
-9.83073e-10
-8.48411e-10
-7.89677e-10
-6.46716e-10
-5.90468e-10
-4.67791e-10
-4.03222e-10
-2.20668e-10
-1.56454e-10
-3.5069e-11
-8.04093e-12
-1.87113e-12
-3.05525e-11
0.000707703
-0.000489313
-0.000147436
-4.59075e-05
-1.26662e-05
-4.15429e-06
-1.48187e-06
-8.07635e-07
-6.25445e-07
-7.28847e-07
-4.96454e-07
-3.96167e-07
-3.61352e-07
-3.21024e-07
-3.01648e-07
-2.67532e-07
-2.50721e-07
-2.20678e-07
-2.06048e-07
-1.80267e-07
-1.67837e-07
-1.46187e-07
-1.35823e-07
-1.1792e-07
-1.09394e-07
-9.4752e-08
-8.78032e-08
-7.59207e-08
-7.02955e-08
-6.07052e-08
-5.61732e-08
-4.84628e-08
-4.48238e-08
-3.86421e-08
-3.57272e-08
-3.07809e-08
-2.84501e-08
-2.44983e-08
-2.26372e-08
-1.9484e-08
-1.79997e-08
-1.54865e-08
-1.43043e-08
-1.23039e-08
-1.13639e-08
-9.77582e-09
-9.03688e-09
-7.80882e-09
-7.35625e-09
-6.92606e-09
-8.35556e-09
-5.51982e-09
-4.16647e-09
-3.69715e-09
-3.16842e-09
-2.93169e-09
-2.55022e-09
-2.37333e-09
-2.0791e-09
-1.94267e-09
-1.71601e-09
-1.6112e-09
-1.43767e-09
-1.35728e-09
-1.2237e-09
-1.15831e-09
-1.04184e-09
-9.78442e-10
-8.52729e-10
-7.84843e-10
-6.5182e-10
-5.8671e-10
-4.70799e-10
-3.96181e-10
-2.27779e-10
-1.53737e-10
-4.13127e-11
-9.98769e-12
-2.35109e-12
-3.07155e-11
0.000703014
-0.000471975
-0.000155803
-4.87855e-05
-1.36987e-05
-4.41214e-06
-1.56633e-06
-8.29432e-07
-6.3641e-07
-7.16997e-07
-5.01013e-07
-3.98764e-07
-3.61278e-07
-3.21784e-07
-3.01158e-07
-2.68142e-07
-2.50277e-07
-2.21222e-07
-2.05675e-07
-1.80739e-07
-1.67531e-07
-1.46586e-07
-1.35573e-07
-1.18253e-07
-1.09191e-07
-9.50248e-08
-8.76401e-08
-7.61427e-08
-7.01646e-08
-6.08847e-08
-5.60683e-08
-4.86074e-08
-4.474e-08
-3.87581e-08
-3.56602e-08
-3.08738e-08
-2.83967e-08
-2.45726e-08
-2.25947e-08
-1.95432e-08
-1.79658e-08
-1.55338e-08
-1.42773e-08
-1.23416e-08
-1.13426e-08
-9.80604e-09
-9.02107e-09
-7.83724e-09
-7.36059e-09
-6.98952e-09
-8.20191e-09
-5.5704e-09
-4.20114e-09
-3.69669e-09
-3.1791e-09
-2.92704e-09
-2.55752e-09
-2.3695e-09
-2.08472e-09
-1.93973e-09
-1.72036e-09
-1.60896e-09
-1.441e-09
-1.35555e-09
-1.22612e-09
-1.15659e-09
-1.04368e-09
-9.76291e-10
-8.54721e-10
-7.82604e-10
-6.54198e-10
-5.84975e-10
-4.72149e-10
-3.92887e-10
-2.31112e-10
-1.52552e-10
-4.4311e-11
-1.09861e-11
-2.60195e-12
-3.08011e-11
0.000703015
-0.000471975
-0.000155803
-4.87855e-05
-1.36987e-05
-4.41212e-06
-1.56632e-06
-8.29429e-07
-6.36408e-07
-7.16996e-07
-5.01013e-07
-3.98764e-07
-3.61278e-07
-3.21784e-07
-3.01158e-07
-2.68142e-07
-2.50277e-07
-2.21222e-07
-2.05676e-07
-1.80739e-07
-1.67531e-07
-1.46586e-07
-1.35573e-07
-1.18253e-07
-1.09191e-07
-9.50249e-08
-8.76401e-08
-7.61427e-08
-7.01646e-08
-6.08847e-08
-5.60683e-08
-4.86074e-08
-4.474e-08
-3.87581e-08
-3.56602e-08
-3.08738e-08
-2.83967e-08
-2.45726e-08
-2.25947e-08
-1.95432e-08
-1.79658e-08
-1.55338e-08
-1.42773e-08
-1.23416e-08
-1.13426e-08
-9.80605e-09
-9.02108e-09
-7.83724e-09
-7.36059e-09
-6.98952e-09
-8.20191e-09
-5.5704e-09
-4.20113e-09
-3.69669e-09
-3.1791e-09
-2.92704e-09
-2.55752e-09
-2.3695e-09
-2.08472e-09
-1.93973e-09
-1.72036e-09
-1.60897e-09
-1.441e-09
-1.35555e-09
-1.22612e-09
-1.15659e-09
-1.04368e-09
-9.76291e-10
-8.54721e-10
-7.82604e-10
-6.54198e-10
-5.84975e-10
-4.72149e-10
-3.92887e-10
-2.31112e-10
-1.52552e-10
-4.43109e-11
-1.09861e-11
-2.60193e-12
-3.08011e-11
0.000707703
-0.000489313
-0.000147436
-4.59075e-05
-1.26661e-05
-4.15425e-06
-1.48185e-06
-8.07626e-07
-6.25441e-07
-7.28846e-07
-4.96454e-07
-3.96166e-07
-3.61352e-07
-3.21024e-07
-3.01648e-07
-2.67532e-07
-2.50721e-07
-2.20678e-07
-2.06048e-07
-1.80267e-07
-1.67837e-07
-1.46187e-07
-1.35823e-07
-1.1792e-07
-1.09394e-07
-9.4752e-08
-8.78032e-08
-7.59207e-08
-7.02955e-08
-6.07052e-08
-5.61732e-08
-4.84629e-08
-4.48238e-08
-3.86421e-08
-3.57272e-08
-3.07809e-08
-2.84501e-08
-2.44983e-08
-2.26372e-08
-1.9484e-08
-1.79997e-08
-1.54865e-08
-1.43043e-08
-1.23039e-08
-1.13639e-08
-9.77582e-09
-9.03688e-09
-7.80882e-09
-7.35625e-09
-6.92606e-09
-8.35556e-09
-5.51982e-09
-4.16646e-09
-3.69715e-09
-3.16842e-09
-2.93169e-09
-2.55022e-09
-2.37333e-09
-2.0791e-09
-1.94267e-09
-1.71601e-09
-1.6112e-09
-1.43767e-09
-1.35728e-09
-1.2237e-09
-1.15831e-09
-1.04184e-09
-9.78443e-10
-8.52729e-10
-7.84843e-10
-6.5182e-10
-5.8671e-10
-4.70799e-10
-3.96181e-10
-2.27779e-10
-1.53736e-10
-4.13125e-11
-9.98753e-12
-2.35105e-12
-3.07154e-11
0.000716826
-0.000524764
-0.000129453
-4.02972e-05
-1.0644e-05
-3.66259e-06
-1.31737e-06
-7.66102e-07
-6.03032e-07
-7.54116e-07
-4.86603e-07
-3.90943e-07
-3.61641e-07
-3.19421e-07
-3.02724e-07
-2.66225e-07
-2.5169e-07
-2.19515e-07
-2.06863e-07
-1.79258e-07
-1.68511e-07
-1.45333e-07
-1.36373e-07
-1.17211e-07
-1.09839e-07
-9.417e-08
-8.81624e-08
-7.54472e-08
-7.05841e-08
-6.03224e-08
-5.64044e-08
-4.81547e-08
-4.50088e-08
-3.83949e-08
-3.58749e-08
-3.05829e-08
-2.8568e-08
-2.43401e-08
-2.27312e-08
-1.93576e-08
-1.80745e-08
-1.53858e-08
-1.43637e-08
-1.22236e-08
-1.1411e-08
-9.71148e-09
-9.07213e-09
-7.74926e-09
-7.3509e-09
-6.78812e-09
-8.67973e-09
-5.40986e-09
-4.09636e-09
-3.69993e-09
-3.14602e-09
-2.94208e-09
-2.53469e-09
-2.38182e-09
-2.06713e-09
-1.9492e-09
-1.70676e-09
-1.61617e-09
-1.4306e-09
-1.36113e-09
-1.21854e-09
-1.16205e-09
-1.03787e-09
-9.83073e-10
-8.48412e-10
-7.89677e-10
-6.46716e-10
-5.90468e-10
-4.67791e-10
-4.03222e-10
-2.20668e-10
-1.56454e-10
-3.50687e-11
-8.04072e-12
-1.87109e-12
-3.05524e-11
0.000729822
-0.000579902
-9.92241e-05
-3.23062e-05
-7.71476e-06
-2.98533e-06
-1.08106e-06
-7.09021e-07
-5.68041e-07
-7.96122e-07
-4.69871e-07
-3.8306e-07
-3.62442e-07
-3.16793e-07
-3.04589e-07
-2.64037e-07
-2.53362e-07
-2.17567e-07
-2.08275e-07
-1.77573e-07
-1.69679e-07
-1.4391e-07
-1.37329e-07