/*--------------------------------*- C++ -*----------------------------------*\
| =========                 |                                                 |
| \\      /  F ield         | OpenFOAM: The Open Source CFD Toolbox           |
|  \\    /   O peration     | Version:  5.x                                   |
|   \\  /    A nd           | Web:      www.OpenFOAM.org                      |
|    \\/     M anipulation  |                                                 |
\*---------------------------------------------------------------------------*/
FoamFile
{
    version     2.0;
    format      ascii;
    class       volScalarField;
    location    "2.8";
    object      gradTy;
}
// * * * * * * * * * * * * * * * * * * * * * * * * * * * * * * * * * * * * * //

dimensions      [0 -1 0 1 0 0 0];

internalField   nonuniform List<scalar> 
3200
(
-7.53114e-07
2.99253e-07
-1.12194e-06
1.01149e-06
-7.5761e-07
8.8677e-07
-4.85651e-07
6.10494e-07
-3.76113e-07
1.59478e-07
3.69441e-07
-1.51038e-07
2.14661e-07
-1.2401e-07
1.54446e-07
-9.36313e-08
1.1462e-07
-7.06036e-08
8.59357e-08
-5.33631e-08
6.47669e-08
-4.03749e-08
4.89405e-08
-3.05428e-08
3.70141e-08
-2.30791e-08
2.79842e-08
-1.74062e-08
2.11298e-08
-1.30938e-08
1.59214e-08
-9.81791e-09
1.19637e-08
-7.33268e-09
8.95896e-09
-5.45081e-09
6.68104e-09
-4.02919e-09
4.95758e-09
-2.95834e-09
3.65688e-09
-2.15452e-09
2.67823e-09
-1.55372e-09
1.94457e-09
-1.10727e-09
1.39619e-09
-7.81551e-10
9.72786e-10
-6.16006e-10
2.7418e-10
5.9705e-10
-2.09538e-10
3.24261e-10
-1.50089e-10
2.07481e-10
-9.35518e-11
1.31073e-10
-5.58606e-11
8.03018e-11
-3.22278e-11
4.76247e-11
-1.80161e-11
2.73706e-11
-9.77782e-12
1.52703e-11
-5.14737e-12
8.27694e-12
-2.60638e-12
4.34734e-12
-1.23128e-12
2.20422e-12
-4.06729e-13
9.53261e-13
1.38079e-14
2.33238e-13
4.80056e-14
1.11326e-14
2.65048e-15
7.51705e-16
-5.50076e-07
1.52681e-07
-7.56246e-07
6.5934e-07
-4.79116e-07
5.92119e-07
-2.98215e-07
4.07414e-07
-2.42007e-07
1.1386e-07
2.62105e-07
-8.82269e-08
1.44492e-07
-7.64509e-08
1.03201e-07
-5.80634e-08
7.64918e-08
-4.38602e-08
5.73207e-08
-3.31786e-08
4.31901e-08
-2.51134e-08
3.2633e-08
-1.89999e-08
2.46809e-08
-1.43555e-08
1.86614e-08
-1.0824e-08
1.40927e-08
-8.13901e-09
1.06211e-08
-6.09945e-09
7.98305e-09
-4.55243e-09
5.97997e-09
-3.38134e-09
4.46119e-09
-2.49699e-09
3.31188e-09
-1.83117e-09
2.44428e-09
-1.33166e-09
1.79131e-09
-9.58595e-10
1.30162e-09
-6.81686e-10
9.35216e-10
-4.81004e-10
6.48394e-10
-3.9685e-10
1.9541e-10
4.25129e-10
-1.18719e-10
2.20066e-10
-8.98052e-11
1.40214e-10
-5.57921e-11
8.87194e-11
-3.30216e-11
5.44689e-11
-1.88602e-11
3.23714e-11
-1.04319e-11
1.8641e-11
-5.59949e-12
1.04197e-11
-2.9125e-12
5.65916e-12
-1.45225e-12
2.98028e-12
-6.67045e-13
1.52095e-12
-1.88627e-13
6.68181e-13
4.75586e-14
1.69287e-13
4.20683e-14
9.99726e-15
2.38893e-15
6.78149e-16
-3.75321e-07
7.03712e-08
-4.83716e-07
4.09182e-07
-2.89158e-07
3.75803e-07
-1.74725e-07
2.58444e-07
-1.4819e-07
7.64824e-08
1.74658e-07
-4.87819e-08
9.24328e-08
-4.49474e-08
6.55656e-08
-3.43519e-08
4.85395e-08
-2.59958e-08
3.63576e-08
-1.9682e-08
2.73887e-08
-1.49038e-08
2.06922e-08
-1.1277e-08
1.56499e-08
-8.5195e-09
1.1834e-08
-6.42194e-09
8.93795e-09
-4.82695e-09
6.73741e-09
-3.6154e-09
5.06516e-09
-2.69659e-09
3.7953e-09
-2.00124e-09
2.83233e-09
-1.47636e-09
2.1035e-09
-1.08137e-09
1.5532e-09
-7.85218e-10
1.13894e-09
-5.64193e-10
8.28151e-10
-4.00332e-10
5.95388e-10
-2.82431e-10
4.10867e-10
-2.43292e-10
1.31064e-10
2.84092e-10
-6.32496e-11
1.41784e-10
-5.11438e-11
8.99669e-11
-3.16691e-11
5.70033e-11
-1.85613e-11
3.50616e-11
-1.04804e-11
2.08754e-11
-5.72562e-12
1.20418e-11
-3.03317e-12
6.74207e-12
-1.55461e-12
3.66812e-12
-7.60279e-13
1.93615e-12
-3.36399e-13
9.93473e-13
-7.32482e-14
4.42161e-13
5.15961e-14
1.15285e-13
3.23228e-14
7.88403e-15
1.89332e-15
5.38233e-16
-2.18552e-07
2.78781e-08
-2.69224e-07
2.22531e-07
-1.53857e-07
2.08001e-07
-9.06747e-08
1.4299e-07
-7.96888e-08
4.41117e-08
1.00033e-07
-2.396e-08
5.14858e-08
-2.33862e-08
3.63245e-08
-1.79724e-08
2.68672e-08
-1.36217e-08
2.01174e-08
-1.0321e-08
1.51521e-08
-7.81813e-09
1.14467e-08
-5.91617e-09
8.65737e-09
-4.46916e-09
6.5468e-09
-3.36805e-09
4.94517e-09
-2.53066e-09
3.72817e-09
-1.8946e-09
2.80331e-09
-1.4123e-09
2.10095e-09
-1.04738e-09
1.56829e-09
-7.72016e-10
1.16508e-09
-5.64877e-10
8.60592e-10
-4.09652e-10
6.31331e-10
-2.93875e-10
4.59294e-10
-2.08129e-10
3.30349e-10
-1.46826e-10
2.27137e-10
-1.30955e-10
7.55093e-11
1.63021e-10
-2.99127e-11
7.93908e-11
-2.58661e-11
5.02128e-11
-1.59716e-11
3.18464e-11
-9.27619e-12
1.9615e-11
-5.18095e-12
1.16944e-11
-2.79658e-12
6.75442e-12
-1.46216e-12
3.78635e-12
-7.38168e-13
2.06266e-12
-3.53628e-13
1.09055e-12
-1.49993e-13
5.6177e-13
-2.12085e-14
2.5235e-13
3.74487e-14
6.7144e-14
2.02348e-14
5.03358e-15
1.21397e-15
3.45679e-16
-7.17511e-08
7.01513e-09
-8.63875e-08
7.05149e-08
-4.81638e-08
6.65516e-08
-2.79752e-08
4.57413e-08
-2.50876e-08
1.44225e-08
3.25754e-08
-7.13904e-09
1.65318e-08
-7.22525e-09
1.16292e-08
-5.57101e-09
8.59721e-09
-4.22626e-09
6.43613e-09
-3.20358e-09
4.84714e-09
-2.42721e-09
3.66163e-09
-1.83684e-09
2.76938e-09
-1.3875e-09
2.09429e-09
-1.04552e-09
1.58202e-09
-7.85414e-10
1.19278e-09
-5.87849e-10
8.96964e-10
-4.38056e-10
6.72308e-10
-3.24737e-10
5.01921e-10
-2.39241e-10
3.72936e-10
-1.74944e-10
2.75525e-10
-1.26775e-10
2.02172e-10
-9.08609e-11
1.4712e-10
-6.42779e-11
1.05842e-10
-4.53462e-11
7.26265e-11
-4.12506e-11
2.46727e-11
5.31383e-11
-8.68856e-12
2.55624e-11
-7.85571e-12
1.61386e-11
-4.84253e-12
1.02409e-11
-2.79653e-12
6.31221e-12
-1.55113e-12
3.76604e-12
-8.30753e-13
2.17664e-12
-4.30586e-13
1.22096e-12
-2.15161e-13
6.65579e-13
-1.01599e-13
3.52209e-13
-4.17682e-14
1.81801e-13
-3.46282e-15
8.20592e-14
1.35087e-14
2.20633e-14
6.87776e-15
1.72843e-15
4.17711e-16
1.1933e-16
7.18514e-08
-6.99842e-09
8.64016e-08
-7.05085e-08
4.81668e-08
-6.65505e-08
2.79754e-08
-4.57418e-08
2.50867e-08
-1.44235e-08
-3.25762e-08
7.13882e-09
-1.65317e-08
7.22562e-09
-1.16288e-08
5.57145e-09
-8.5968e-09
4.22662e-09
-6.43581e-09
3.20386e-09
-4.8469e-09
2.42741e-09
-3.66146e-09
1.83698e-09
-2.76925e-09
1.3876e-09
-2.09421e-09
1.04558e-09
-1.58197e-09
7.85459e-10
-1.19274e-09
5.87878e-10
-8.96942e-10
4.38072e-10
-6.72296e-10
3.24745e-10
-5.01915e-10
2.39244e-10
-3.72934e-10
1.74944e-10
-2.75526e-10
1.26773e-10
-2.02175e-10
9.08576e-11
-1.47124e-10
6.42741e-11
-1.05845e-10
4.5342e-11
-7.26311e-11
4.12454e-11
-2.4678e-11
-5.31428e-11
8.68507e-12
-2.55649e-11
7.85379e-12
-1.61401e-11
4.84134e-12
-1.02419e-11
2.79575e-12
-6.31285e-12
1.55061e-12
-3.76645e-12
8.30428e-13
-2.1769e-12
4.30389e-13
-1.22111e-12
2.15044e-13
-6.65669e-13
1.01531e-13
-3.52261e-13
4.17294e-14
-1.8183e-13
3.44258e-15
-8.2073e-14
-1.35175e-14
-2.20685e-14
-6.88068e-15
-1.72995e-15
-4.18564e-16
-1.18716e-16
2.18626e-07
-2.78638e-08
2.69236e-07
-2.22524e-07
1.53861e-07
-2.07998e-07
9.06762e-08
-1.42989e-07
7.96891e-08
-4.41116e-08
-1.00032e-07
2.39604e-08
-5.14852e-08
2.33869e-08
-3.63239e-08
1.7973e-08
-2.68667e-08
1.36222e-08
-2.0117e-08
1.03214e-08
-1.51518e-08
7.8184e-09
-1.14464e-08
5.91637e-09
-8.6572e-09
4.4693e-09
-6.54668e-09
3.36815e-09
-4.94508e-09
2.53073e-09
-3.72811e-09
1.89465e-09
-2.80327e-09
1.41233e-09
-2.10093e-09
1.0474e-09
-1.56827e-09
7.7203e-10
-1.16506e-09
5.64885e-10
-8.60586e-10
4.09656e-10
-6.31328e-10
2.93877e-10
-4.59293e-10
2.08129e-10
-3.3035e-10
1.46825e-10
-2.27139e-10
1.30952e-10
-7.55121e-11
-1.63024e-10
2.99107e-11
-7.93922e-11
2.58651e-11
-5.02136e-11
1.5971e-11
-3.1847e-11
9.27574e-12
-1.96154e-11
5.18065e-12
-1.16947e-11
2.79638e-12
-6.75458e-12
1.46204e-12
-3.78644e-12
7.38094e-13
-2.06271e-12
3.53584e-13
-1.09059e-12
1.49968e-13
-5.61789e-13
2.11948e-14
-2.52359e-13
-3.74547e-14
-6.71476e-14
-2.02368e-14
-5.03467e-15
-1.21461e-15
-3.45245e-16
3.7534e-07
-7.03642e-08
4.83723e-07
-4.09177e-07
2.89162e-07
-3.758e-07
1.74728e-07
-2.58442e-07
1.48191e-07
-7.64811e-08
-1.74657e-07
4.87829e-08
-9.24319e-08
4.49482e-08
-6.55649e-08
3.43525e-08
-4.8539e-08
2.59962e-08
-3.63572e-08
1.96824e-08
-2.73884e-08
1.4904e-08
-2.06919e-08
1.12772e-08
-1.56497e-08
8.51964e-09
-1.18338e-08
6.42205e-09
-8.93786e-09
4.82703e-09
-6.73735e-09
3.61546e-09
-5.06511e-09
2.69663e-09
-3.79526e-09
2.00127e-09
-2.83231e-09
1.47638e-09
-2.10348e-09
1.08138e-09
-1.55319e-09
7.85227e-10
-1.13893e-09
5.642e-10
-8.28146e-10
4.00336e-10
-5.95384e-10
2.82433e-10
-4.10865e-10
2.43293e-10
-1.31064e-10
-2.84091e-10
6.32501e-11
-1.41783e-10
5.11441e-11
-8.99667e-11
3.16693e-11
-5.70031e-11
1.85613e-11
-3.50615e-11
1.04804e-11
-2.08754e-11
5.72563e-12
-1.20418e-11
3.03317e-12
-6.74207e-12
1.55461e-12
-3.66813e-12
7.60276e-13
-1.93615e-12
3.36397e-13
-9.93476e-13
7.32463e-14
-4.42162e-13
-5.15971e-14
-1.15286e-13
-3.23232e-14
-7.88429e-15
-1.89351e-15
-5.38142e-16
5.50018e-07
-1.52689e-07
7.5624e-07
-6.59342e-07
4.79116e-07
-5.92118e-07
2.98216e-07
-4.07413e-07
2.42009e-07
-1.13858e-07
-2.62104e-07
8.82275e-08
-1.44492e-07
7.64511e-08
-1.03201e-07
5.80635e-08
-7.64918e-08
4.38602e-08
-5.73207e-08
3.31786e-08
-4.31901e-08
2.51134e-08
-3.2633e-08
1.89999e-08
-2.46809e-08
1.43555e-08
-1.86614e-08
1.0824e-08
-1.40927e-08
8.13902e-09
-1.06211e-08
6.09946e-09
-7.98304e-09
4.55245e-09
-5.97996e-09
3.38135e-09
-4.46118e-09
2.497e-09
-3.31187e-09
1.83117e-09
-2.44427e-09
1.33167e-09
-1.79131e-09
9.58601e-10
-1.30162e-09
6.81691e-10
-9.35211e-10
4.81008e-10
-6.4839e-10
3.96855e-10
-1.95406e-10
-4.25126e-10
1.18721e-10
-2.20064e-10
8.98066e-11
-1.40213e-10
5.5793e-11
-8.87187e-11
3.30222e-11
-5.44684e-11
1.88606e-11
-3.23711e-11
1.04321e-11
-1.86408e-11
5.59963e-12
-1.04196e-11
2.91258e-12
-5.6591e-12
1.45229e-12
-2.98025e-12
6.67071e-13
-1.52093e-12
1.8864e-13
-6.68173e-13
-4.75532e-14
-1.69284e-13
-4.20665e-14
-9.99637e-15
-2.38845e-15
-6.78523e-16
7.52979e-07
-2.99284e-07
1.12192e-06
-1.01151e-06
7.57599e-07
-8.86777e-07
4.85646e-07
-6.10498e-07
3.7611e-07
-1.5948e-07
-3.69443e-07
1.51036e-07
-2.14663e-07
1.24008e-07
-1.54448e-07
9.36296e-08
-1.14621e-07
7.06022e-08
-8.59368e-08
5.33621e-08
-6.47678e-08
4.03741e-08
-4.89411e-08
3.05422e-08
-3.70145e-08
2.30787e-08
-2.79845e-08
1.74059e-08
-2.11301e-08
1.30936e-08
-1.59215e-08
9.81777e-09
-1.19638e-08
7.33257e-09
-8.95905e-09
5.45074e-09
-6.6811e-09
4.02914e-09
-4.95762e-09
2.95831e-09
-3.6569e-09
2.1545e-09
-2.67824e-09
1.55371e-09
-1.94457e-09
1.10726e-09
-1.39619e-09
7.81549e-10
-9.72786e-10
6.16008e-10
-2.74177e-10
-5.97047e-10
2.09541e-10
-3.24259e-10
1.5009e-10
-2.0748e-10
9.35526e-11
-1.31073e-10
5.58612e-11
-8.03013e-11
3.22282e-11
-4.76243e-11
1.80164e-11
-2.73704e-11
9.778e-12
-1.52701e-11
5.14749e-12
-8.27685e-12
2.60645e-12
-4.34728e-12
1.23133e-12
-2.20419e-12
4.06752e-13
-9.53245e-13
-1.37974e-14
-2.33232e-13
-4.8002e-14
-1.11306e-14
-2.64927e-15
-7.52471e-16
-0.000792157
0.000627051
0.000107325
4.44842e-05
8.26693e-06
3.90374e-06
2.90347e-07
6.75576e-07
-3.76459e-07
7.97975e-08
4.2986e-07
-2.57199e-07
3.10355e-07
-2.30186e-07
2.60749e-07
-1.91319e-07
2.17814e-07
-1.56679e-07
1.79669e-07
-1.2726e-07
1.46752e-07
-1.0277e-07
1.19002e-07
-8.26485e-08
9.59913e-08
-6.62658e-08
7.71342e-08
-5.3013e-08
6.18083e-08
-4.23404e-08
4.94253e-08
-3.37731e-08
3.94614e-08
-2.69114e-08
3.14677e-08
-2.1425e-08
2.50682e-08
-1.70439e-08
1.99531e-08
-1.35496e-08
1.58699e-08
-1.07658e-08
1.26141e-08
-8.551e-09
1.00208e-08
-6.79377e-09
7.95037e-09
-5.43553e-09
6.16011e-09
-5.00508e-09
1.32287e-09
4.91809e-09
-2.53272e-09
3.24587e-09
-2.19675e-09
2.56642e-09
-1.7921e-09
2.0695e-09
-1.471e-09
1.68519e-09
-1.22388e-09
1.38858e-09
-1.03529e-09
1.16166e-09
-8.90128e-10
9.92628e-10
-7.56574e-10
8.54969e-10
-6.0047e-10
7.04598e-10
-4.35857e-10
5.34869e-10
-3.05201e-10
4.17904e-10
-7.68097e-11
1.88331e-10
3.81452e-11
8.84105e-12
2.12638e-12
6.22928e-13
-0.000565636
0.000421307
9.60631e-05
3.64e-05
7.71091e-06
3.15402e-06
3.76753e-07
4.86231e-07
-2.40451e-07
5.94337e-08
2.99244e-07
-1.58783e-07
2.05901e-07
-1.4558e-07
1.72461e-07
-1.20913e-07
1.44189e-07
-9.8845e-08
1.19039e-07
-8.01718e-08
9.7292e-08
-6.4675e-08
7.89306e-08
-5.19714e-08
6.36899e-08
-4.16457e-08
5.11908e-08
-3.33027e-08
4.10271e-08
-2.65898e-08
3.28119e-08
-2.12043e-08
2.62e-08
-1.6893e-08
2.08945e-08
-1.34469e-08
1.66465e-08
-1.06958e-08
1.32507e-08
-8.50189e-09
1.05396e-08
-6.75445e-09
8.37766e-09
-5.36457e-09
6.65535e-09
-4.26264e-09
5.27812e-09
-3.42069e-09
4.05329e-09
-3.30754e-09
9.43903e-10
3.44749e-09
-1.53453e-09
2.1657e-09
-1.37771e-09
1.70273e-09
-1.12777e-09
1.37143e-09
-9.27372e-10
1.1155e-09
-7.73225e-10
9.17888e-10
-6.55711e-10
7.66714e-10
-5.65002e-10
6.5504e-10
-4.79674e-10
5.66064e-10
-3.77743e-10
4.69101e-10
-2.70805e-10
3.577e-10
-1.8667e-10
2.85507e-10
-3.54207e-11
1.3314e-10
3.33058e-11
7.93523e-12
1.9166e-12
5.61813e-13
-0.000378597
0.000268046
7.41748e-05
2.70751e-05
6.18867e-06
2.33263e-06
3.47421e-07
3.30155e-07
-1.45642e-07
4.13573e-08
1.9644e-07
-9.33655e-08
1.30013e-07
-8.78268e-08
1.08563e-07
-7.29039e-08
9.08362e-08
-5.94952e-08
7.50502e-08
-4.81884e-08
6.13746e-08
-3.88331e-08
4.98126e-08
-3.11813e-08
4.02065e-08
-2.4972e-08
3.23231e-08
-1.99609e-08
2.59097e-08
-1.59323e-08
2.07242e-08
-1.27024e-08
1.65497e-08
-1.01177e-08
1.31994e-08
-8.05248e-09
1.05165e-08
-6.40412e-09
8.37168e-09
-5.08993e-09
6.65916e-09
-4.04337e-09
5.29341e-09
-3.21115e-09
4.20518e-09
-2.55187e-09
3.33366e-09
-2.05435e-09
2.53846e-09
-2.07574e-09
6.33764e-10
2.27536e-09
-8.8445e-10
1.37455e-09
-8.24277e-10
1.07491e-09
-6.77136e-10
8.64823e-10
-5.5782e-10
7.02725e-10
-4.66081e-10
5.77508e-10
-3.96219e-10
4.81725e-10
-3.4213e-10
4.11486e-10
-2.90124e-10
3.5663e-10
-2.2673e-10
2.97004e-10
-1.60543e-10
2.27404e-10
-1.0883e-10
1.84816e-10
-1.3623e-11
8.86784e-11
2.54841e-11
6.2533e-12
1.51905e-12
4.45671e-13
-0.000217429
0.000148401
4.64131e-05
1.67001e-05
3.98449e-06
1.43603e-06
2.39156e-07
1.92274e-07
-7.74598e-08
2.44604e-08
1.11346e-07
-4.85508e-08
7.17065e-08
-4.67037e-08
5.97258e-08
-3.8753e-08
5.0002e-08
-3.15805e-08
4.13367e-08
-2.55492e-08
3.38193e-08
-2.05712e-08
2.7457e-08
-1.65072e-08
2.21672e-08
-1.32138e-08
1.78239e-08
-1.05585e-08
1.42891e-08
-8.42535e-09
1.14304e-08
-6.71594e-09
9.1286e-09
-5.34855e-09
7.28105e-09
-4.25622e-09
5.80143e-09
-3.38458e-09
4.61843e-09
-2.68976e-09
3.67382e-09
-2.13653e-09
2.92042e-09
-1.69669e-09
2.32004e-09
-1.34849e-09
1.83863e-09
-1.08859e-09
1.3907e-09
-1.13793e-09
3.65423e-10
1.29448e-09
-4.51827e-10
7.61085e-10
-4.35309e-10
5.92645e-10
-3.58696e-10
4.76414e-10
-2.95937e-10
3.86818e-10
-2.477e-10
3.17585e-10
-2.10999e-10
2.6463e-10
-1.8251e-10
2.2601e-10
-1.54618e-10
1.96311e-10
-1.20074e-10
1.641e-10
-8.41455e-11
1.26044e-10
-5.62083e-11
1.03792e-10
-3.86433e-12
5.0831e-11
1.5901e-11
3.9899e-12
9.74047e-13
2.85971e-13
-7.08968e-05
4.7466e-05
1.57588e-05
5.64447e-06
1.37318e-06
4.85139e-07
8.47595e-08
6.32151e-08
-2.42166e-08
8.10296e-09
3.60689e-08
-1.49908e-08
2.29029e-08
-1.46132e-08
1.90492e-08
-1.21231e-08
1.59528e-08
-9.87131e-09
1.31924e-08
-7.98079e-09
1.07958e-08
-6.42263e-09
8.76634e-09
-5.15189e-09
7.07832e-09
-4.12289e-09
5.69194e-09
-3.29374e-09
4.56345e-09
-2.6279e-09
3.65066e-09
-2.09449e-09
2.91562e-09
-1.66789e-09
2.3256e-09
-1.32716e-09
1.85305e-09
-1.0553e-09
1.47522e-09
-8.38606e-10
1.17352e-09
-6.66088e-10
9.32878e-10
-5.28948e-10
7.41095e-10
-4.20424e-10
5.87214e-10
-3.3995e-10
4.4251e-10
-3.62074e-10
1.1947e-10
4.20109e-10
-1.3802e-10
2.43603e-10
-1.35666e-10
1.89243e-10
-1.1199e-10
1.52058e-10
-9.24769e-11
1.23409e-10
-7.7482e-11
1.01267e-10
-6.60796e-11
8.43312e-11
-5.72148e-11
7.20167e-11
-4.84452e-11
6.26265e-11
-3.74868e-11
5.24554e-11
-2.61133e-11
4.036e-11
-1.72908e-11
3.34659e-11
-6.0544e-13
1.65653e-11
5.3953e-12
1.36972e-12
3.35306e-13
9.83809e-14
7.08992e-05
-4.74668e-05
-1.57596e-05
-5.64514e-06
-1.37356e-06
-4.85314e-07
-8.48279e-08
-6.32366e-08
2.42128e-08
-8.10106e-09
-3.60653e-08
1.49948e-08
-2.2899e-08
1.46169e-08
-1.90459e-08
1.21261e-08
-1.59501e-08
9.87366e-09
-1.31903e-08
7.98263e-09
-1.07942e-08
6.42407e-09
-8.76506e-09
5.15302e-09
-7.07731e-09
4.12378e-09
-5.69115e-09
3.29445e-09
-4.56282e-09
2.62846e-09
-3.65016e-09
2.09493e-09
-2.91523e-09
1.66824e-09
-2.32529e-09
1.32744e-09
-1.85281e-09
1.05552e-09
-1.47503e-09
8.38781e-10
-1.17336e-09
6.66228e-10
-9.32753e-10
5.2906e-10
-7.40996e-10
4.20512e-10
-5.87138e-10
3.40016e-10
-4.42458e-10
3.62113e-10
-1.19442e-10
-4.20083e-10
1.38046e-10
-2.43576e-10
1.35692e-10
-1.89219e-10
1.12011e-10
-1.52039e-10
9.24928e-11
-1.23395e-10
7.74929e-11
-1.01258e-10
6.60859e-11
-8.43271e-11
5.72168e-11
-7.20165e-11
4.84438e-11
-6.26293e-11
3.7483e-11
-5.246e-11
2.61084e-11
-4.0365e-11
1.7286e-11
-3.34701e-11
6.02197e-13
-1.65675e-11
-5.3966e-12
-1.37036e-12
-3.35527e-13
-9.87678e-14
0.00021743
-0.000148401
-4.64137e-05
-1.67006e-05
-3.98475e-06
-1.43615e-06
-2.39201e-07
-1.92287e-07
7.7459e-08
-2.44575e-08
-1.11342e-07
4.85549e-08
-7.17026e-08
4.67073e-08
-5.97225e-08
3.87559e-08
-4.99994e-08
3.15828e-08
-4.13347e-08
2.5551e-08
-3.38177e-08
2.05727e-08
-2.74557e-08
1.65083e-08
-2.21662e-08
1.32147e-08
-1.78231e-08
1.05592e-08
-1.42885e-08
8.4259e-09
-1.14299e-08
6.71638e-09
-9.12821e-09
5.3489e-09
-7.28074e-09
4.2565e-09
-5.80119e-09
3.3848e-09
-4.61823e-09
2.68994e-09
-3.67366e-09
2.13667e-09
-2.9203e-09
1.6968e-09
-2.31994e-09
1.34858e-09
-1.83855e-09
1.08866e-09
-1.39065e-09
1.13797e-09
-3.6539e-10
-1.29445e-09
4.51857e-10
-7.61057e-10
4.35336e-10
-5.9262e-10
3.58718e-10
-4.76395e-10
2.95954e-10
-3.86804e-10
2.47712e-10
-3.17575e-10
2.11007e-10
-2.64624e-10
1.82514e-10
-2.26008e-10
1.54619e-10
-1.96312e-10
1.20072e-10
-1.64102e-10
8.41426e-11
-1.26047e-10
5.62052e-11
-1.03795e-10
3.86215e-12
-5.08325e-11
-1.59018e-11
-3.99033e-12
-9.74184e-13
-2.86241e-13
0.000378597
-0.000268046
-7.41749e-05
-2.70751e-05
-6.18871e-06
-2.33264e-06
-3.47425e-07
-3.30154e-07
1.45645e-07
-4.13543e-08
-1.96437e-07
9.33682e-08
-1.30011e-07
8.78291e-08
-1.08561e-07
7.29058e-08
-9.08345e-08
5.94967e-08
-7.50489e-08
4.81896e-08
-6.13736e-08
3.88341e-08
-4.98117e-08
3.11821e-08
-4.02058e-08
2.49726e-08
-3.23226e-08
1.99614e-08
-2.59093e-08
1.59327e-08
-2.07239e-08
1.27027e-08
-1.65494e-08
1.0118e-08
-1.31992e-08
8.05267e-09
-1.05164e-08
6.40428e-09
-8.37154e-09
5.09005e-09
-6.65906e-09
4.04346e-09
-5.29332e-09
3.21123e-09
-4.20511e-09
2.55193e-09
-3.3336e-09
2.0544e-09
-2.53841e-09
2.07577e-09
-6.33734e-10
-2.27533e-09
8.84474e-10
-1.37452e-09
8.24296e-10
-1.07489e-09
6.77152e-10
-8.64809e-10
5.57832e-10
-7.02715e-10
4.6609e-10
-5.775e-10
3.96226e-10
-4.8172e-10
3.42134e-10
-4.11482e-10
2.90127e-10
-3.56628e-10
2.26731e-10
-2.97003e-10
1.60543e-10
-2.27404e-10
1.0883e-10
-1.84816e-10
1.36227e-11
-8.86786e-11
-2.54842e-11
-6.25335e-12
-1.51905e-12
-4.45724e-13
0.000565634
-0.000421307
-9.60626e-05
-3.63996e-05
-7.71068e-06
-3.15391e-06
-3.76709e-07
-4.86216e-07
2.40455e-07
-5.94334e-08
-2.99245e-07
1.58782e-07
-2.05902e-07
1.45579e-07
-1.72462e-07
1.20912e-07
-1.4419e-07
9.88442e-08
-1.1904e-07
8.01712e-08
-9.72925e-08
6.46745e-08
-7.8931e-08
5.1971e-08
-6.36902e-08
4.16454e-08
-5.1191e-08
3.33025e-08
-4.10273e-08
2.65896e-08
-3.28121e-08
2.12042e-08
-2.62002e-08
1.68929e-08
-2.08946e-08
1.34468e-08
-1.66466e-08
1.06957e-08
-1.32507e-08
8.50184e-09
-1.05396e-08
6.75441e-09
-8.37769e-09
5.36454e-09
-6.65538e-09
4.26262e-09
-5.27814e-09
3.42067e-09
-4.05331e-09
3.30753e-09
-9.43906e-10
-3.44749e-09
1.53452e-09
-2.16571e-09
1.3777e-09
-1.70274e-09
1.12776e-09
-1.37144e-09
9.27368e-10
-1.11551e-09
7.73223e-10
-9.17889e-10
6.5571e-10
-7.66714e-10
5.65003e-10
-6.55038e-10
4.79676e-10
-5.66061e-10
3.77746e-10
-4.69098e-10
2.70809e-10
-3.57696e-10
1.86673e-10
-2.85505e-10
3.54228e-11
-1.33139e-10
-3.3305e-11
-7.93482e-12
-1.91645e-12
-5.61578e-13
0.000792154
-0.00062705
-0.000107324
-4.44834e-05
-8.26649e-06
-3.90354e-06
-2.90274e-07
-6.75557e-07
3.76457e-07
-7.98057e-08
-4.2987e-07
2.57189e-07
-3.10364e-07
2.30178e-07
-2.60757e-07
1.91312e-07
-2.1782e-07
1.56674e-07
-1.79674e-07
1.27256e-07
-1.46756e-07
1.02767e-07
-1.19005e-07
8.26458e-08
-9.59936e-08
6.62637e-08
-7.7136e-08
5.30113e-08
-6.18098e-08
4.23391e-08
-4.94265e-08
3.3772e-08
-3.94624e-08
2.69105e-08
-3.14685e-08
2.14243e-08
-2.50688e-08
1.70434e-08
-1.99536e-08
1.35492e-08
-1.58702e-08
1.07654e-08
-1.26144e-08
8.55073e-09
-1.0021e-08
6.79356e-09
-7.95055e-09
5.43537e-09
-6.16025e-09
5.00497e-09
-1.32295e-09
-4.91817e-09
2.53265e-09
-3.24594e-09
2.19669e-09
-2.56648e-09
1.79205e-09
-2.06955e-09
1.47096e-09
-1.68522e-09
1.22385e-09
-1.3886e-09
1.03527e-09
-1.16167e-09
8.90116e-10
-9.92636e-10
7.56569e-10
-8.54971e-10
6.00471e-10
-7.04596e-10
4.35861e-10
-5.34865e-10
3.05206e-10
-4.179e-10
7.68134e-11
-1.88329e-10
-3.81437e-11
-8.84033e-12
-2.12617e-12
-6.22454e-13
-0.000792461
0.00062729
0.000107361
4.45083e-05
8.2777e-06
3.90084e-06
2.96811e-07
6.70049e-07
-3.69972e-07
7.91094e-08
4.23493e-07
-2.53174e-07
3.056e-07
-2.26553e-07
2.5668e-07
-1.88253e-07
2.1436e-07
-1.54131e-07
1.76777e-07
-1.25162e-07
1.44355e-07
-1.01053e-07
1.17031e-07
-8.12512e-08
9.43817e-08
-6.51334e-08
7.58259e-08
-5.20983e-08
6.07491e-08
-4.16037e-08
4.85704e-08
-3.31811e-08
3.87734e-08
-2.64369e-08
3.09154e-08
-2.10453e-08
2.46257e-08
-1.67408e-08
1.95993e-08
-1.3308e-08
1.55875e-08
-1.05735e-08
1.23891e-08
-8.39817e-09
9.84185e-09
-6.67237e-09
7.80834e-09
-5.33849e-09
6.05011e-09
-4.9159e-09
1.29911e-09
4.83052e-09
-2.48785e-09
3.18823e-09
-2.15797e-09
2.52101e-09
-1.76064e-09
2.03304e-09
-1.44536e-09
1.65568e-09
-1.20279e-09
1.36447e-09
-1.01777e-09
1.14175e-09
-8.75488e-10
9.75963e-10
-7.44733e-10
8.41196e-10
-5.91559e-10
6.93821e-10
-4.29612e-10
5.26952e-10
-3.01183e-10
4.12187e-10
-7.58004e-11
1.85797e-10
3.76318e-11
8.72205e-12
2.09776e-12
6.14547e-13
-0.000565853
0.000421468
9.60962e-05
3.6419e-05
7.71934e-06
3.15255e-06
3.811e-07
4.82719e-07
-2.36052e-07
5.89444e-08
2.94836e-07
-1.56282e-07
2.02753e-07
-1.43276e-07
1.69773e-07
-1.18971e-07
1.41905e-07
-9.72339e-08
1.17125e-07
-7.88467e-08
9.57046e-08
-6.35922e-08
7.76251e-08
-5.1091e-08
6.2623e-08
-4.09327e-08
5.03233e-08
-3.27271e-08
4.03245e-08
-2.61264e-08
3.22448e-08
-2.08322e-08
2.57435e-08
-1.65948e-08
2.05279e-08
-1.32084e-08
1.63527e-08
-1.05054e-08
1.30158e-08
-8.3502e-09
1.03521e-08
-6.63376e-09
8.22827e-09
-5.26867e-09
6.53652e-09
-4.18646e-09
5.18383e-09
-3.35963e-09
3.9809e-09
-3.24862e-09
9.26954e-10
3.38609e-09
-1.50736e-09
2.12724e-09
-1.3534e-09
1.67259e-09
-1.10798e-09
1.34726e-09
-9.11228e-10
1.09595e-09
-7.59923e-10
9.01931e-10
-6.44641e-10
7.53549e-10
-5.55746e-10
6.44006e-10
-4.72215e-10
5.56909e-10
-3.72181e-10
4.61903e-10
-2.66955e-10
3.52382e-10
-1.84247e-10
2.81594e-10
-3.49645e-11
1.31348e-10
3.28575e-11
7.82841e-12
1.89081e-12
5.54254e-13
-0.000378742
0.000268148
7.42009e-05
2.70888e-05
6.19474e-06
2.33198e-06
3.50201e-07
3.28028e-07
-1.42818e-07
4.10296e-08
1.9356e-07
-9.18846e-08
1.28029e-07
-8.64331e-08
1.06874e-07
-7.17302e-08
8.93995e-08
-5.85232e-08
7.38448e-08
-4.73901e-08
6.03743e-08
-3.81816e-08
4.89895e-08
-3.06521e-08
3.95336e-08
-2.45437e-08
3.17758e-08
-1.96153e-08
2.54664e-08
-1.56543e-08
2.03662e-08
-1.24792e-08
1.62615e-08
-9.93895e-09
1.29679e-08
-7.90953e-09
1.0331e-08
-6.29006e-09
8.22332e-09
-4.99906e-09
6.54074e-09
-3.97109e-09
5.19903e-09
-3.15373e-09
4.1301e-09
-2.50626e-09
3.27411e-09
-2.01768e-09
2.49312e-09
-2.03876e-09
6.22386e-10
2.23483e-09
-8.68801e-10
1.35013e-09
-8.09741e-10
1.05588e-09
-6.65263e-10
8.49573e-10
-5.48119e-10
6.90402e-10
-4.58075e-10
5.67457e-10
-3.89546e-10
4.73439e-10
-3.36546e-10
4.04534e-10
-2.85641e-10
3.50843e-10
-2.23418e-10
2.92433e-10
-1.58279e-10
2.24012e-10
-1.07438e-10
1.82278e-10
-1.34551e-11
8.74839e-11
2.5141e-11
6.16912e-12
1.4986e-12
4.39675e-13
-0.000217512
0.000148457
4.64296e-05
1.67085e-05
3.98815e-06
1.43579e-06
2.40705e-07
1.9114e-07
-7.58849e-08
2.42718e-08
1.0972e-07
-4.77761e-08
7.06137e-08
-4.59609e-08
5.87973e-08
-3.81279e-08
4.92119e-08
-3.10636e-08
4.06734e-08
-2.51252e-08
3.32685e-08
-2.02255e-08
2.70037e-08
-1.62266e-08
2.17965e-08
-1.29868e-08
1.75223e-08
-1.03755e-08
1.40447e-08
-8.27813e-09
1.12331e-08
-6.5978e-09
8.9697e-09
-5.25394e-09
7.15342e-09
-4.18061e-09
5.69913e-09
-3.32426e-09
4.53661e-09
-2.64172e-09
3.6085e-09
-2.09832e-09
2.86836e-09
-1.66634e-09
2.27862e-09
-1.32439e-09
1.80579e-09
-1.06916e-09
1.36586e-09
-1.11767e-09
3.58864e-10
1.27142e-09
-4.43838e-10
7.47563e-10
-4.27636e-10
5.82149e-10
-3.5241e-10
4.68011e-10
-2.90795e-10
3.80031e-10
-2.43451e-10
3.12053e-10
-2.07453e-10
2.60071e-10
-1.79541e-10
2.22183e-10
-1.52242e-10
1.93117e-10
-1.18331e-10
1.61569e-10
-8.2967e-11
1.24158e-10
-5.54987e-11
1.02365e-10
-3.82191e-12
5.0146e-11
1.56869e-11
3.93619e-12
9.60937e-13
2.82123e-13
-7.0924e-05
4.7484e-05
1.57644e-05
5.64727e-06
1.37441e-06
4.85083e-07
8.52568e-08
6.28598e-08
-2.37108e-08
8.04133e-09
3.55431e-08
-1.47507e-08
2.25542e-08
-1.43805e-08
1.87533e-08
-1.19273e-08
1.57008e-08
-9.70956e-09
1.29808e-08
-7.84821e-09
1.06201e-08
-6.31458e-09
8.62165e-09
-5.06421e-09
6.95998e-09
-4.052e-09
5.59566e-09
-3.2366e-09
4.48543e-09
-2.58195e-09
3.58765e-09
-2.05762e-09
2.86488e-09
-1.63837e-09
2.28484e-09
-1.30357e-09
1.82038e-09
-1.03648e-09
1.44909e-09
-8.23623e-10
1.15265e-09
-6.54175e-10
9.16249e-10
-5.19486e-10
7.27865e-10
-4.12908e-10
5.76725e-10
-3.33882e-10
4.34606e-10
-3.55626e-10
1.17326e-10
4.12624e-10
-1.3558e-10
2.39275e-10
-1.33275e-10
1.85891e-10
-1.10028e-10
1.49375e-10
-9.08706e-11
1.21243e-10
-7.61537e-11
9.95021e-11
-6.49701e-11
8.28775e-11
-5.62857e-11
7.07957e-11
-4.77028e-11
6.1606e-11
-3.69449e-11
5.16455e-11
-2.57491e-11
3.97553e-11
-1.70743e-11
3.30055e-11
-6.00539e-13
1.63421e-11
5.32265e-12
1.35128e-12
3.30793e-13
9.70571e-14
7.09264e-05
-4.74848e-05
-1.57652e-05
-5.64793e-06
-1.37478e-06
-4.85258e-07
-8.53254e-08
-6.28815e-08
2.37069e-08
-8.03952e-09
-3.55396e-08
1.47546e-08
-2.25503e-08
1.43841e-08
-1.875e-08
1.19303e-08
-1.56982e-08
9.71187e-09
-1.29787e-08
7.85002e-09
-1.06185e-08
6.31599e-09
-8.6204e-09
5.06532e-09
-6.959e-09
4.05288e-09
-5.59488e-09
3.23729e-09
-4.48482e-09
2.5825e-09
-3.58716e-09
2.05806e-09
-2.8645e-09
1.63872e-09
-2.28454e-09
1.30384e-09
-1.82014e-09
1.0367e-09
-1.4489e-09
8.23795e-10
-1.1525e-09
6.54312e-10
-9.16127e-10
5.19596e-10
-7.27767e-10
4.12995e-10
-5.7665e-10
3.33946e-10
-4.34555e-10
3.55664e-10
-1.17298e-10
-4.12599e-10
1.35606e-10
-2.39248e-10
1.33301e-10
-1.85867e-10
1.10049e-10
-1.49357e-10
9.08863e-11
-1.2123e-10
7.61645e-11
-9.94937e-11
6.49763e-11
-8.28735e-11
5.62878e-11
-7.07955e-11
4.77014e-11
-6.16087e-11
3.69412e-11
-5.165e-11
2.57442e-11
-3.97602e-11
1.70696e-11
-3.30096e-11
5.97339e-13
-1.63443e-11
-5.32394e-12
-1.35192e-12
-3.31011e-13
-9.7439e-14
0.000217514
-0.000148458
-4.64301e-05
-1.67089e-05
-3.9884e-06
-1.43591e-06
-2.4075e-07
-1.91153e-07
7.5884e-08
-2.4269e-08
-1.09716e-07
4.77801e-08
-7.06099e-08
4.59644e-08
-5.87942e-08
3.81308e-08
-4.92093e-08
3.10658e-08
-4.06714e-08
2.5127e-08
-3.32669e-08
2.02269e-08
-2.70024e-08
1.62277e-08
-2.17955e-08
1.29877e-08
-1.75215e-08
1.03762e-08
-1.40441e-08
8.27867e-09
-1.12326e-08
6.59823e-09
-8.96931e-09
5.25429e-09
-7.15311e-09
4.18088e-09
-5.69889e-09
3.32447e-09
-4.53641e-09
2.64189e-09
-3.60834e-09
2.09846e-09
-2.86824e-09
1.66645e-09
-2.27852e-09
1.32447e-09
-1.80571e-09
1.06923e-09
-1.36581e-09
1.11771e-09
-3.58831e-10
-1.27139e-09
4.43867e-10
-7.47535e-10
4.27663e-10
-5.82125e-10
3.52431e-10
-4.67992e-10
2.90811e-10
-3.80017e-10
2.43462e-10
-3.12044e-10
2.0746e-10
-2.60066e-10
1.79545e-10
-2.22181e-10
1.52243e-10
-1.93117e-10
1.1833e-10
-1.61571e-10
8.29641e-11
-1.24161e-10
5.54956e-11
-1.02368e-10
3.81976e-12
-5.01475e-11
-1.56877e-11
-3.93662e-12
-9.61073e-13
-2.82389e-13
0.000378743
-0.000268148
-7.4201e-05
-2.70889e-05
-6.19478e-06
-2.33199e-06
-3.50206e-07
-3.28027e-07
1.42821e-07
-4.10266e-08
-1.93557e-07
9.18873e-08
-1.28027e-07
8.64353e-08
-1.06872e-07
7.1732e-08
-8.93979e-08
5.85247e-08
-7.38435e-08
4.73913e-08
-6.03733e-08
3.81825e-08
-4.89887e-08
3.06528e-08
-3.95329e-08
2.45443e-08
-3.17753e-08
1.96158e-08
-2.5466e-08
1.56546e-08
-2.03659e-08
1.24795e-08
-1.62612e-08
9.93918e-09
-1.29677e-08
7.90972e-09
-1.03309e-08
6.29021e-09
-8.22319e-09
4.99918e-09
-6.54063e-09
3.97118e-09
-5.19895e-09
3.1538e-09
-4.13003e-09
2.50632e-09
-3.27405e-09
2.01773e-09
-2.49308e-09
2.0388e-09
-6.22357e-10
-2.2348e-09
8.68824e-10
-1.35011e-09
8.0976e-10
-1.05586e-09
6.65278e-10
-8.4956e-10
5.4813e-10
-6.90392e-10
4.58084e-10
-5.6745e-10
3.89552e-10
-4.73433e-10
3.36551e-10
-4.04531e-10
2.85644e-10
-3.50841e-10
2.23419e-10
-2.92433e-10
1.58279e-10
-2.24012e-10
1.07438e-10
-1.82279e-10
1.34548e-11
-8.74841e-11
-2.51412e-11
-6.16918e-12
-1.4986e-12
-4.39726e-13
0.000565851
-0.000421467
-9.60957e-05
-3.64186e-05
-7.71911e-06
-3.15244e-06
-3.81056e-07
-4.82704e-07
2.36056e-07
-5.8944e-08
-2.94837e-07
1.56281e-07
-2.02754e-07
1.43275e-07
-1.69775e-07
1.1897e-07
-1.41906e-07
9.72331e-08
-1.17126e-07
7.88461e-08
-9.57051e-08
6.35918e-08
-7.76255e-08
5.10906e-08
-6.26233e-08
4.09324e-08
-5.03236e-08
3.27269e-08
-4.03247e-08
2.61262e-08
-3.2245e-08
2.08321e-08
-2.57436e-08
1.65947e-08
-2.0528e-08
1.32083e-08
-1.63528e-08
1.05053e-08
-1.30158e-08
8.35015e-09
-1.03521e-08
6.63372e-09
-8.22831e-09
5.26863e-09
-6.53655e-09
4.18644e-09
-5.18385e-09
3.35961e-09
-3.98092e-09
3.24861e-09
-9.26957e-10
-3.38609e-09
1.50735e-09
-2.12724e-09
1.3534e-09
-1.6726e-09
1.10797e-09
-1.34726e-09
9.11224e-10
-1.09596e-09
7.59921e-10
-9.01933e-10
6.4464e-10
-7.53548e-10
5.55747e-10
-6.44005e-10
4.72218e-10
-5.56906e-10
3.72184e-10
-4.619e-10
2.66958e-10
-3.52379e-10
1.8425e-10
-2.81591e-10
3.49665e-11
-1.31346e-10
-3.28566e-11
-7.82801e-12
-1.89066e-12
-5.54022e-13
0.000792458
-0.000627289
-0.00010736
-4.45075e-05
-8.27726e-06
-3.90064e-06
-2.96737e-07
-6.7003e-07
3.6997e-07
-7.91174e-08
-4.23502e-07
2.53164e-07
-3.05609e-07
2.26545e-07
-2.56688e-07
1.88247e-07
-2.14366e-07
1.54126e-07
-1.76781e-07
1.25158e-07
-1.44359e-07
1.0105e-07
-1.17034e-07
8.12486e-08
-9.4384e-08
6.51314e-08
-7.58277e-08
5.20967e-08
-6.07505e-08
4.16024e-08
-4.85716e-08
3.31801e-08
-3.87744e-08