/*--------------------------------*- C++ -*----------------------------------*\
| =========                 |                                                 |
| \\      /  F ield         | OpenFOAM: The Open Source CFD Toolbox           |
|  \\    /   O peration     | Version:  5.x                                   |
|   \\  /    A nd           | Web:      www.OpenFOAM.org                      |
|    \\/     M anipulation  |                                                 |
\*---------------------------------------------------------------------------*/
FoamFile
{
    version     2.0;
    format      ascii;
    class       volScalarField;
    location    "18.4";
    object      gradTx;
}
// * * * * * * * * * * * * * * * * * * * * * * * * * * * * * * * * * * * * * //

dimensions      [0 -1 0 1 0 0 0];

internalField   nonuniform List<scalar> 
6300
(
-11.8301
-11.6012
-11.1463
-10.4709
-9.58429
-8.50014
-7.2372
-5.82036
-4.28128
-2.65861
-0.997479
0.652012
2.23737
3.70725
5.01556
-12.0592
-11.8277
-11.367
-10.6823
-9.78217
-8.67924
-7.39141
-5.94292
-4.36519
-2.69741
-0.986181
0.715802
2.35249
3.86846
5.21369
-12.5202
-12.2835
-11.812
-11.1096
-10.1832
-9.04352
-7.70661
-6.19503
-4.5395
-2.77998
-0.965981
0.844537
2.58799
4.20007
5.62214
-13.2182
-12.9745
-12.4881
-11.7611
-10.7977
-9.6054
-8.1968
-6.59141
-4.81812
-2.91739
-0.942644
1.03997
2.95448
4.7213
6.26654
-14.1601
-13.9086
-13.4051
-12.6493
-11.6413
-10.3839
-8.8841
-7.15599
-5.22452
-3.12916
-0.927517
1.30319
3.4683
5.46375
7.19007
-15.3538
-15.0949
-14.5749
-13.7898
-12.7347
-11.4052
-9.79997
-7.92428
-5.79512
-3.44757
-0.9418
1.63163
4.15143
6.47496
8.45992
-16.8067
-16.5425
-16.01
-15.2006
-14.1027
-12.7025
-10.9866
-8.94637
-6.58442
-3.92455
-1.02408
2.01335
5.03047
7.82436
10.1793
-18.5239
-18.2589
-17.7222
-16.9003
-15.7734
-14.3158
-12.4979
-10.2905
-7.67196
-4.64247
-1.24367
2.41501
6.13239
9.61234
12.5092
-20.5064
-20.2473
-19.7197
-18.9053
-17.775
-16.2896
-14.3992
-12.0458
-9.17082
-5.73002
-1.72346
2.75763
7.47138
11.983
15.7089
-22.7484
-22.5042
-22.0045
-21.2262
-20.1321
-18.6688
-16.7636
-14.3232
-11.2358
-7.38364
-2.67814
2.86725
9.0121
15.1391
20.2192
-25.2349
-25.0168
-24.5683
-23.8632
-22.8587
-21.49
-19.6635
-17.248
-14.0657
-9.89093
-4.47303
2.37703
10.5702
19.3416
26.8434
-27.9397
-27.76
-27.3887
-26.7999
-25.9498
-24.7693
-23.1528
-20.9397
-17.8883
-13.6417
-7.7004
0.543263
11.5498
24.8133
37.1915
-30.8243
-30.6951
-30.427
-29.9982
-29.3714
-28.4848
-27.2388
-25.47
-22.9065
-19.0874
-13.2305
-4.05377
10.2718
31.1696
54.9182
-33.8383
-33.7695
-33.626
-33.3949
-33.0529
-32.5599
-31.8477
-30.7953
-29.1804
-26.5711
-22.0807
-13.8001
2.42116
34.6744
89.7556
-36.9213
-36.9186
-36.9128
-36.9027
-36.8854
-36.8546
-36.7969
-36.6834
-36.4489
-35.9363
-34.7213
-31.4877
-21.4619
15.3503
173.054
6.04922
6.81961
7.42769
7.87191
8.15648
8.29028
8.28558
8.15677
7.91917
7.58807
7.17803
6.70242
6.17317
5.60068
4.99392
4.36048
3.70677
3.03816
2.35916
1.67355
0.984523
0.294765
-0.393435
-1.07813
-1.75769
-2.4307
-3.09605
-3.75283
-4.40036
-5.03822
-5.66616
-6.28418
-6.89239
-7.49103
-8.08041
-8.66081
-9.23244
-9.79541
-10.3497
-10.8951
-11.4313
-11.9581
-12.4751
-12.982
-13.4788
-13.9655
-14.4426
-14.9103
-15.3692
-15.82
-16.263
-16.6985
-17.1267
-17.5471
-17.9591
-18.3619
-18.7543
-19.1351
-19.503
-19.8568
-20.1955
-20.5181
-20.8239
-21.112
-21.3815
-21.6311
-21.8592
-22.0635
-22.2414
-22.3894
-22.5037
-22.5801
-22.6142
-22.6017
-22.5388
-22.422
-22.2488
-22.0175
-21.7274
-21.3789
-20.9733
-20.5131
-20.0018
-19.4437
-18.8443
-18.21
-17.5481
-16.8666
-16.1739
-15.4789
6.27116
7.05296
7.66326
8.10145
8.37326
8.48938
8.46397
8.31311
8.05351
7.70146
7.27219
6.77942
6.23517
5.64981
5.03212
4.38947
3.72803
3.05295
2.36851
1.67833
0.985435
0.292399
-0.398586
-1.08565
-1.76718
-2.44182
-3.10846
-3.76619
-4.41434
-5.05251
-5.68049
-6.2983
-6.90615
-7.50436
-8.09332
-8.6734
-9.24487
-9.80788
-10.3624
-10.9082
-11.4449
-11.9721
-12.4894
-12.9965
-13.4931
-13.9795
-14.4558
-14.9227
-15.3809
-15.8309
-16.2735
-16.7091
-17.1376
-17.5589
-17.9723
-18.3767
-18.7709
-19.1534
-19.523
-19.8783
-20.2184
-20.5422
-20.8492
-21.1386
-21.4099
-21.6619
-21.8931
-22.1014
-22.2841
-22.4377
-22.5581
-22.6408
-22.681
-22.6742
-22.616
-22.503
-22.3322
-22.1019
-21.8113
-21.4608
-21.0517
-20.5866
-20.0688
-19.5029
-18.8943
-18.2496
-17.5762
-16.8824
-16.1771
-15.4696
6.72854
7.53296
8.14634
8.57026
8.81388
8.89196
8.8227
8.62575
8.32067
7.92578
7.45754
6.93029
6.35616
5.74529
5.10605
4.44533
3.76877
3.08103
2.38599
1.68687
0.986421
0.286962
-0.409497
-1.10121
-1.78667
-2.46455
-3.13375
-3.79337
-4.44275
-5.08149
-5.70946
-6.32678
-6.93379
-7.531
-8.119
-8.69834
-9.26945
-9.83254
-10.3876
-10.9343
-11.4721
-12.0003
-12.5184
-13.0258
-13.5222
-14.0077
-14.4826
-14.9477
-15.404
-15.8525
-16.2941
-16.7295
-17.1589
-17.5821
-17.9982
-18.406
-18.8039
-19.1903
-19.5634
-19.9218
-20.2643
-20.5903
-20.8994
-21.1913
-21.4658
-21.7223
-21.9597
-22.176
-22.3686
-22.5336
-22.6666
-22.7623
-22.8153
-22.8202
-22.7722
-22.6669
-22.5011
-22.2729
-21.9813
-21.6268
-21.2107
-20.7356
-20.205
-19.6233
-18.9963
-18.3304
-17.6335
-16.9146
-16.1834
-15.4502
7.44996
8.28768
8.90188
9.29833
9.49251
9.50636
9.36495
9.09379
8.71685
8.25541
7.72762
7.1484
6.5298
5.88138
5.21071
4.52379
3.82541
3.11946
2.40916
1.69719
0.985839
0.27708
-0.427349
-1.12589
-1.81715
-2.49986
-3.1729
-3.83535
-4.48652
-5.12602
-5.75379
-6.37009
-6.97553
-7.57089
-8.15712
-8.7351
-9.30552
-9.86875
-10.4248
-10.9731
-11.5129
-12.0431
-12.5627
-13.0708
-13.5669
-14.0509
-14.5233
-14.9853
-15.4383
-15.8838
-16.3235
-16.7584
-17.189
-17.6151
-18.0358
-18.4493
-18.8535
-19.2461
-19.6247
-19.9877
-20.3339
-20.6627
-20.9741
-21.2689
-21.5474
-21.81
-22.0563
-22.2847
-22.4925
-22.6755
-22.8284
-22.945
-23.0186
-23.0424
-23.0105
-22.9175
-22.7598
-22.5348
-22.2418
-21.8811
-21.4544
-20.9643
-20.4144
-19.809
-19.1538
-18.4555
-17.7224
-16.9642
-16.1923
-15.4186
8.48359
9.3639
9.97062
10.3173
10.4305
10.344
10.0937
9.71383
9.23438
8.68033
8.07148
7.42297
6.74614
6.04929
5.33857
4.61855
3.89276
3.16399
2.43458
1.70647
0.98139
0.260842
-0.453781
-1.16117
-1.86004
-2.54916
-3.22736
-3.89362
-4.54714
-5.18748
-5.81463
-6.42908
-7.03175
-7.62393
-8.20711
-8.78271
-9.35189
-9.91531
-10.4729
-11.0241
-11.5674
-12.1011
-12.6236
-13.1331
-13.6288
-14.1106
-14.579
-15.0357
-15.4831
-15.9235
-16.3596
-16.7932
-17.2253
-17.6559
-18.0836
-18.5059
-18.9197
-19.3216
-19.7085
-20.0778
-20.4283
-20.7596
-21.0728
-21.3695
-21.6517
-21.921
-22.1783
-22.4228
-22.6517
-22.8604
-23.0423
-23.1895
-23.2932
-23.3448
-23.3363
-23.2613
-23.1149
-22.8946
-22.5994
-22.2303
-21.7892
-21.279
-20.7033
-20.0663
-19.3732
-18.6306
-17.847
-17.0336
-16.2036
-15.3721
9.90476
10.8337
11.4135
11.6722
11.6556
11.4171
11.0088
10.4769
9.85903
9.18387
8.47215
7.73809
6.99104
6.23696
5.47961
4.72144
3.9642
3.2093
2.45795
1.71127
0.970277
0.235952
-0.490746
-1.20879
-1.91704
-2.61425
-3.29908
-3.97027
-4.62677
-5.26795
-5.8938
-6.50502
-7.10306
-7.68992
-8.26796
-8.83952
-9.40654
-9.97014
-10.5304
-11.0862
-11.6355
-12.1753
-12.7028
-13.2152
-13.7109
-14.1892
-14.6513
-15.0996
-15.5376
-15.9694
-16.3991
-16.8299
-17.2638
-17.7007
-18.1389
-18.5745
-19.0028
-19.4186
-19.8172
-20.1949
-20.55
-20.8826
-21.195
-21.4908
-21.7742
-22.0492
-22.3187
-22.583
-22.8399
-23.0837
-23.306
-23.4963
-23.6426
-23.7333
-23.7578
-23.7074
-23.5764
-23.3619
-23.0634
-22.6829
-22.2231
-21.6877
-21.0803
-20.4043
-19.6638
-18.8643
-18.0144
-17.1265
-16.2171
-15.3058
11.8299
12.8061
13.3183
13.423
13.2002
12.7343
12.1016
11.3635
10.5658
9.73976
8.90472
8.07166
7.24584
6.42912
5.62162
4.82279
4.0321
3.24931
2.47444
1.70772
0.949442
0.199962
-0.540275
-1.2706
-1.99004
-2.69722
-3.39051
-4.06813
-4.72848
-5.37052
-5.99403
-6.59997
-7.19045
-7.7686
-8.33813
-8.90285
-9.46604
-10.0297
-10.5942
-11.1578
-11.7171
-12.2673
-12.8036
-13.3214
-13.8177
-14.2912
-14.7435
-15.1782
-15.6009
-16.0182
-16.4368
-16.8621
-17.2976
-17.7437
-18.1975
-18.6534
-19.1037
-19.5403
-19.9557
-20.3444
-20.7037
-21.0345
-21.3409
-21.6296
-21.9085
-22.1853
-22.4662
-22.7538
-23.0466
-23.3377
-23.6157
-23.866
-24.0719
-24.2171
-24.2867
-24.2694
-24.158
-23.9496
-23.6455
-23.2492
-22.7658
-22.2
-21.5557
-20.8349
-20.039
-19.1706
-18.2364
-17.2501
-16.2331
-15.2129
14.4419
15.4465
15.8095
15.6451
15.0945
14.2917
13.3456
12.3356
11.3133
10.3083
9.33417
8.39454
7.4873
6.6078
5.75093
4.91222
4.08848
3.27776
2.47907
1.69188
0.915822
0.150553
-0.604166
-1.3482
-2.08075
-2.80028
-3.50454
-4.19088
-4.85663
-5.49977
-6.11958
-6.71717
-7.29561
-7.85965
-8.41518
-8.96837
-9.52477
-10.0881
-10.6592
-11.2356
-11.8115
-12.3793
-12.9309
-13.4586
-13.957
-14.4237
-14.8608
-15.2738
-15.6717
-16.0651
-16.4646
-16.8796
-17.3161
-17.7754
-18.2531
-18.7401
-19.2242
-19.6923
-20.1325
-20.5359
-20.8983
-21.2214
-21.5122
-21.7824
-22.0455
-22.3153
-22.6036
-22.9171
-23.2555
-23.6102
-23.9652
-24.2993
-24.5886
-24.8094
-24.9407
-24.9668
-24.8788
-24.6752
-24.36
-23.9409
-23.4267
-22.8253
-22.1411
-21.3736
-20.5185
-19.5713
-18.5333
-17.4177
-16.2535
-15.0827
18.0389
19.0104
19.0597
18.423
17.3518
16.055
14.6816
13.3252
12.0357
10.832
9.71373
8.67057
7.68857
6.75371
5.85388
4.97992
4.12593
3.28876
2.467
1.65988
0.86656
0.0858527
-0.68354
-1.44239
-2.19028
-2.92537
-3.64445
-4.34331
-5.01735
-5.66264
-6.27715
-6.86195
-7.42147
-7.96296
-8.49555
-9.02923
-9.57345
-10.1352
-10.7167
-11.3139
-11.9174
-12.5148
-13.0925
-13.638
-14.1416
-14.599
-15.0125
-15.3912
-15.7491
-16.1029
-16.4699
-16.8658
-17.3016
-17.7804
-18.2952
-18.8308
-19.3675
-19.8844
-20.3622
-20.7862
-21.1494
-21.4543
-21.7133
-21.9451
-22.1725
-22.4187
-22.7045
-23.0443
-23.4407
-23.882
-24.3446
-24.7968
-25.2036
-25.5303
-25.7459
-25.828
-25.766
-25.5612
-25.2239
-24.7692
-24.2131
-23.5696
-22.846
-22.0383
-21.1305
-20.1026
-18.9417
-17.655
-16.2835
-14.8973
23.1345
23.9018
23.2974
21.8261
19.9336
17.9284
15.993
14.2182
12.6343
11.2325
9.98486
8.85828
7.82174
6.84897
5.91939
5.01871
4.13897
3.27741
2.43369
1.60789
0.799025
0.00476092
-0.778182
-1.55244
-2.31831
-3.07357
-3.81353
-4.53152
-5.2195
-5.86983
-6.47752
-7.04313
-7.57329
-8.07905
-8.57434
-9.07488
-9.59683
-10.1538
-10.7516
-11.383
-12.032
-12.6784
-13.3004
-13.8775
-14.3928
-14.8373
-15.2142
-15.5384
-15.8322
-16.1216
-16.4335
-16.7944
-17.2251
-17.7335
-18.3071
-18.9197
-19.5392
-20.1326
-20.6691
-21.124
-21.484
-21.7534
-21.9531
-22.114
-22.2722
-22.4647
-22.7276
-23.0896
-23.5609
-24.1232
-24.7386
-25.3593
-25.934
-26.4109
-26.7432
-26.8966
-26.8584
-26.6378
-26.2568
-25.7431
-25.1251
-24.4291
-23.6718
-22.847
-21.9153
-20.8252
-19.5309
-18.0144
-16.3344
-14.6239
30.6836
30.7682
28.7828
25.8353
22.6769
19.7008
17.0727
14.8359
12.9706
11.4109
10.0814
8.91611
7.86287
6.88179
5.94306
5.02713
4.12565
3.2402
2.37442
1.53137
0.710337
-0.0927445
-0.88543
-1.67464
-2.46167
-3.24387
-4.0143
-4.76296
-5.4759
-6.13845
-6.73847
-7.27535
-7.76023
-8.21018
-8.64553
-9.08965
-9.56971
-10.1137
-10.7379
-11.4265
-12.1506
-12.8768
-13.573
-14.2058
-14.7458
-15.1729
-15.4915
-15.7291
-15.9216
-16.1076
-16.3267
-16.6221
-17.0364
-17.5925
-18.2626
-18.9986
-19.7483
-20.4627
-21.0933
-21.598
-21.949
-22.1526
-22.2483
-22.2869
-22.3221
-22.4091
-22.6079
-22.9773
-23.5498
-24.2877
-25.1248
-25.9879
-26.8048
-27.4994
-27.998
-28.2408
-28.2132
-27.9451
-27.4807
-26.8668
-26.149
-25.3765
-24.5947
-23.8092
-22.928
-21.8414
-20.4401
-18.609
-16.4291
-14.193
42.6429
40.6146
35.6535
30.1476
25.1571
20.9714
17.5884
14.9183
12.8664
11.2577
9.94099
8.8124
7.79987
6.85341
5.93367
5.01453
4.08907
3.17446
2.28226
1.423
0.595656
-0.205343
-0.997789
-1.80006
-2.61209
-3.43118
-4.24648
-5.04587
-5.80489
-6.49715
-7.09034
-7.58246
-7.99743
-8.36231
-8.70407
-9.05262
-9.45046
-9.95806
-10.6312
-11.4191
-12.2657
-13.1186
-13.9366
-14.6676
-15.261
-15.6648
-15.8853
-15.9845
-16.0203
-16.0457
-16.1096
-16.2786
-16.6433
-17.2871
-18.1232
-19.0575
-20.0081
-20.913
-21.6985
-22.2933
-22.6259
-22.707
-22.6257
-22.4642
-22.2971
-22.1922
-22.2421
-22.5725
-23.3002
-24.3091
-25.4731
-26.6827
-27.8515
-28.8697
-29.6208
-29.974
-29.9143
-29.5344
-28.9196
-28.1399
-27.2515
-26.337
-25.5226
-24.9091
-24.2359
-23.3108
-21.968
-19.7054
-16.6046
-13.4387
63.5208
54.6833
43.3086
33.7181
26.4783
21.0858
17.0775
14.1103
12.1238
10.6836
9.52959
8.54133
7.64152
6.78635
5.92325
5.01084
4.03673
3.07633
2.14256
1.26858
0.442956
-0.330326
-1.09607
-1.91147
-2.75237
-3.62398
-4.50161
-5.38693
-6.23003
-6.99849
-7.58773
-8.00066
-8.30673
-8.54772
-8.75279
-8.94457
-9.1731
-9.56403
-10.359
-11.3272
-12.3716
-13.4106
-14.4254
-15.3275
-16.0492
-16.4203
-16.4538
-16.331
-16.1338
-15.9282
-15.7413
-15.653
-15.8482
-16.7048
-17.8422
-19.0925
-20.3337
-21.5353
-22.5779
-23.3657
-23.6651
-23.4948
-23.1182
-22.6495
-22.1825
-21.7524
-21.4721
-21.5954
-22.6456
-24.1069
-25.7556
-27.4361
-29.1148
-30.6244
-31.8164
-32.3014
-32.076
-31.462
-30.5957
-29.5693
-28.3913
-27.1533
-26.161
-26.0948
-25.9065
-25.3811
-24.8204
-22.0087
-16.8739
-11.9212
105.089
72.4047
48.3934
33.9029
25.1389
19.2066
15.0668
11.8898
10.5944
9.69707
8.8793
8.14268
7.41864
6.73048
5.98361
5.0958
3.96444
2.93965
1.91662
1.04436
0.214756
-0.466274
-1.12292
-1.98625
-2.8485
-3.80815
-4.74573
-5.78879
-6.76267
-7.75794
-8.33901
-8.57271
-8.70974
-8.78481
-8.82061
-8.78354
-8.66182
-8.58812
-9.83728
-11.1256
-12.4852
-13.7371
-15.0766
-16.247
-17.3422
-17.6617
-17.2472
-16.7846
-16.259
-15.7837
-15.231
-14.6188
-14.1004
-15.7179
-17.3985
-19.1404
-20.716
-22.3862
-23.8242
-25.1412
-25.3805
-24.5794
-23.7432
-22.8319
-22.0144
-21.0968
-20.1205
-19.2833
-21.3987
-23.6344
-25.9921
-28.1917
-30.6213
-32.8362
-35.0298
-35.6513
-34.7972
-33.7524
-32.5021
-31.2165
-29.617
-27.6157
-25.4652
-27.4562
-28.0623
-27.5021
-30.9138
-27.6569
-16.881
-8.40798
201.666
77.6361
39.7674
25.841
19.7215
14.7457
11.6696
6.95955
8.49162
8.59574
8.11195
7.72571
7.1439
6.75894
6.24673
5.53126
3.73855
2.80028
1.47342
0.758631
-0.227485
-0.63741
-0.852204
-2.06265
-2.80443
-4.02415
-4.83798
-6.29031
-7.2645
-9.11383
-9.59048
-9.28396
-9.20194
-9.07842
-8.9933
-8.74439
-8.08131
-5.70721
-9.25912
-10.8213
-12.7535
-13.9376
-15.9709
-17.2746
-19.752
-19.96
-18.1098
-17.3289
-16.3116
-15.7504
-14.8063
-13.4492
-9.27701
-14.6399
-16.8663
-19.4276
-20.9619
-23.5712
-25.2443
-28.4684
-28.5935
-25.7145
-24.4761
-22.8792
-21.9903
-20.5254
-18.5683
-12.7195
-19.9783
-22.986
-26.4562
-28.6158
-32.4366
-35.0784
-40.5068
-41.1256
-37.7926
-36.3384
-34.4588
-33.3158
-31.4207
-28.2928
-18.8054
-30.8115
-31.8972
-23.9034
-46.6096
-44.1322
-13.5716
0.437769
-14.7225
-13.9182
-13.1488
-12.4246
-11.754
-11.1426
-10.594
-10.1096
-9.68997
-9.33422
-9.04109
-8.80906
-8.63659
-8.52241
-8.46556
-14.7003
-13.8833
-13.1032
-12.371
-11.6947
-11.0798
-10.5295
-10.0449
-9.62595
-9.27149
-8.97991
-8.74939
-8.57823
-8.46498
-8.40862
-14.6541
-13.8112
-13.0098
-12.2613
-11.5738
-10.9523
-10.3991
-9.91445
-9.49733
-9.1458
-8.85756
-8.63029
-8.46186
-8.35058
-8.29525
-14.5808
-13.6975
-12.8633
-12.0905
-11.3869
-10.7564
-10.2
-9.71638
-9.30302
-8.95672
-8.67416
-8.45224
-8.28826
-8.18014
-8.12645
-14.4746
-13.5345
-12.6553
-11.8503
-11.1266
-10.4863
-9.92799
-9.44796
-9.04155
-8.70381
-8.43005
-8.21615
-8.05872
-7.9552
-7.90387
-14.3267
-13.3103
-12.373
-11.5287
-10.7828
-10.1342
-9.57757
-9.10581
-8.71131
-8.38683
-8.12599
-7.9235
-7.77519
-7.67798
-7.62988
-14.1235
-13.0071
-11.9974
-11.1086
-10.3417
-9.68994
-9.14216
-8.68632
-8.31097
-8.00611
-7.76349
-7.57659
-7.44047
-7.35159
-7.30771
-13.8434
-12.597
-11.501
-10.5663
-9.78551
-9.14155
-8.61472
-8.18625
-7.84004
-7.56306
-7.3452
-7.17883
-7.05842
-6.98013
-6.94157
-13.4504
-12.0363
-10.843
-9.87016
-9.09231
-8.47594
-7.98882
-7.60383
-7.2998
-7.06083
-6.87533
-6.73504
-6.63418
-6.56888
-6.5368
-12.8814
-11.2545
-9.9646
-8.9789
-8.23754
-7.68101
-7.26069
-6.94039
-6.69441
-6.50504
-6.3602
-6.25175
-6.17429
-6.12436
-6.09987
-12.0175
-10.1357
-8.78184
-7.84323
-7.19787
-6.7498
-6.43249
-6.20253
-6.03236
-5.90466
-5.8086
-5.7374
-5.68683
-5.65432
-5.63839
-10.6212
-8.48869
-7.18376
-6.41419
-5.96083
-5.68774
-5.51687
-5.40483
-5.32777
-5.27258
-5.23209
-5.20235
-5.18124
-5.16763
-5.16094
-8.19408
-6.01412
-5.05028
-4.66888
-4.54348
-4.52341
-4.54236
-4.5721
-4.60124
-4.62575
-4.64476
-4.65862
-4.66811
-4.67396
-4.67674
-3.66646
-2.32334
-2.33429
-2.66752
-3.02074
-3.32001
-3.55701
-3.73992
-3.87929
-3.98438
-4.06252
-4.11923
-4.15856
-4.18332
-4.19527
5.24188
2.72153
0.704015
-0.646138
-1.55193
-2.17885
-2.62572
-2.95124
-3.19158
-3.36993
-3.50166
-3.59718
-3.66354
-3.70543
-3.7257
-39.7499
-39.8083
-39.9299
-40.125
-40.4111
-40.8161
-41.385
-42.1918
-43.367
-45.1649
-48.1594
-53.9275
-67.9092
-113.181
-303.874
-42.281
-42.3916
-42.6218
-42.9912
-43.5337
-44.3039
-45.391
-46.9436
-49.2236
-52.7239
-58.4497
-68.6235
-88.4045
-129.041
-203.076
-44.7354
-44.8919
-45.2171
-45.7375
-46.4982
-47.5717
-49.0736
-51.1904
-54.233
-58.7373
-65.6514
-76.648
-94.417
-121.707
-153.691
-47.0812
-47.2751
-47.677
-48.3169
-49.2454
-50.5422
-52.3293
-54.7943
-58.2275
-63.0772
-70.0179
-79.9692
-93.8179
-111.112
-126.517
-49.2924
-49.514
-49.9716
-50.6958
-51.7371
-53.1722
-55.1142
-57.7259
-61.2383
-65.9652
-72.2937
-80.5837
-90.8259
-101.83
-110.04
-51.3498
-51.5891
-52.0812
-52.8547
-53.9553
-55.4504
-57.4339
-60.032
-63.4057
-67.741
-73.2075
-79.8423
-87.3046
-94.4886
-99.2638
-53.241
-53.4886
-53.9955
-54.7864
-55.8997
-57.3894
-59.3269
-61.7996
-64.9052
-68.7314
-73.3099
-78.5261
-83.9766
-88.8196
-91.8039
-54.9605
-55.208
-55.7128
-56.4943
-57.5826
-59.0176
-60.8481
-63.1277
-65.9044
-69.1994
-72.9695
-77.0473
-81.0703
-84.4413
-86.4162
-56.5081
-56.7489
-57.2378
-57.9893
-59.0248
-60.371
-62.0575
-64.1106
-66.5435
-69.3375
-72.4153
-75.6064
-78.6168
-81.0326
-82.3999
-57.8885
-58.1174
-58.5804
-59.2872
-60.2513
-61.4883
-63.0122
-64.8299
-66.9318
-69.2784
-71.7825
-74.291
-76.5762
-78.3519
-79.333
-59.11
-59.3235
-59.7538
-60.4064
-61.2884
-62.4063
-63.7629
-65.3517
-67.1502
-69.1101
-71.1466
-73.1306
-74.8892
-76.2231
-76.9473
-60.1831
-60.3792
-60.7728
-61.3663
-62.1616
-63.1587
-64.3523
-65.7279
-67.2566
-68.8884
-70.547
-72.1268
-73.4972
-74.5175
-75.0645
-61.1201
-61.2978
-61.6531
-62.186
-62.8947
-63.7746
-64.8152
-65.9979
-67.2913
-68.6482
-70.0022
-71.2684
-72.3482
-73.1407
-73.5615
-61.9338
-62.0929
-62.4102
-62.8836
-63.5091
-64.2788
-65.1796
-66.191
-67.282
-68.4098
-69.5183
-70.5396
-71.3986
-72.0221
-72.3507
-62.6371
-62.7781
-63.0588
-63.4758
-64.0232
-64.6919
-65.4673
-66.3287
-67.2472
-68.1849
-69.095
-69.9233
-70.6124
-71.1083
-71.3681
-63.2424
-63.3665
-63.6127
-63.9772
-64.4533
-65.0308
-65.6953
-66.4267
-67.199
-67.9792
-68.7285
-69.4037
-69.9605
-70.3583
-70.5658
-63.7616
-63.8699
-64.0846
-64.4013
-64.8129
-65.3094
-65.8767
-66.4964
-67.1452
-67.7949
-68.4135
-68.9664
-69.419
-69.7405
-69.9076
-64.2055
-64.2996
-64.4857
-64.7593
-65.1137
-65.5389
-66.0219
-66.5459
-67.0907
-67.6323
-68.1442
-68.5986
-68.9684
-69.23
-69.3655
-64.5841
-64.6654
-64.8259
-65.0614
-65.3652
-65.7282
-66.1384
-66.5811
-67.0384
-67.4903
-67.9148
-68.2895
-68.593
-68.8069
-68.9175
-64.9062
-64.9762
-65.1141
-65.3159
-65.5756
-65.8847
-66.2325
-66.606
-66.9899
-67.3673
-67.72
-68.0299
-68.2799
-68.4556
-68.5462
-65.1798
-65.2398
-65.3578
-65.5304
-65.7517
-66.0144
-66.3088
-66.6237
-66.9459
-67.2614
-67.5549
-67.8119
-68.0185
-68.1633
-68.2378
-65.4118
-65.463
-65.5638
-65.7109
-65.8991
-66.1219
-66.3709
-66.6362
-66.9068
-67.1706
-67.4153
-67.6288
-67.8
-67.9197
-67.9813
-65.6081
-65.6518
-65.7377
-65.8628
-66.0226
-66.2113
-66.4216
-66.6451
-66.8723
-67.0931
-67.2973
-67.475
-67.6172
-67.7165
-67.7675
-65.7742
-65.8114
-65.8844
-65.9906
-66.1261
-66.2857
-66.4632
-66.6514
-66.8422
-67.0272
-67.1978
-67.346
-67.4643
-67.5467
-67.5891
-65.9144
-65.946
-66.008
-66.098
-66.2127
-66.3477
-66.4974
-66.6558
-66.8161
-66.9712
-67.1139
-67.2376
-67.3362
-67.4049
-67.4401
-66.0328
-66.0595
-66.112
-66.1883
-66.2854
-66.3993
-66.5256
-66.659
-66.7937
-66.9237
-67.0432
-67.1466
-67.229
-67.2862
-67.3156
-66.1325
-66.1552
-66.1997
-66.2642
-66.3462
-66.4425
-66.549
-66.6612
-66.7744
-66.8836
-66.9837
-67.0703
-67.1391
-67.187
-67.2115
-66.2165
-66.2357
-66.2733
-66.3279
-66.3972
-66.4785
-66.5683
-66.6628
-66.758
-66.8497
-66.9337
-67.0062
-67.0639
-67.1039
-67.1244
-66.2872
-66.3034
-66.3352
-66.3814
-66.44
-66.5086
-66.5843
-66.6639
-66.7441
-66.8211
-66.8917
-66.9525
-67.0008
-67.0343
-67.0515
-66.3465
-66.3603
-66.3872
-66.4263
-66.4758
-66.5337
-66.5976
-66.6647
-66.7322
-66.7971
-66.8564
-66.9075
-66.948
-66.9762
-66.9906
-66.3964
-66.408
-66.4308
-66.4638
-66.5057
-66.5547
-66.6086
-66.6653
-66.7222
-66.7768
-66.8268
-66.8698
-66.9039
-66.9275
-66.9397
-66.4381
-66.448
-66.4673
-66.4953
-66.5307
-66.5722
-66.6178
-66.6657
-66.7138
-66.7599
-66.802
-66.8383
-66.867
-66.8869
-66.8971
-66.473
-66.4814
-66.4978
-66.5215
-66.5516
-66.5867
-66.6254
-66.666
-66.7067
-66.7457
-66.7813
-66.812
-66.8362
-66.8531
-66.8617
-66.5021
-66.5092
-66.5232
-66.5434
-66.569
-66.5988
-66.6317
-66.6662
-66.7007
-66.7338
-66.7641
-66.7901
-66.8106
-66.8249
-66.8322
-66.5262
-66.5323
-66.5442
-66.5615
-66.5833
-66.6089
-66.6369
-66.6663
-66.6958
-66.724
-66.7498
-66.7719
-66.7894
-66.8016
-66.8078
-66.5461
-66.5513
-66.5616
-66.5764
-66.5952
-66.6171
-66.6412
-66.6664
-66.6917
-66.7159
-66.738
-66.757
-66.772
-66.7824
-66.7877
-66.5624
-66.5669
-66.5758
-66.5886
-66.6049
-66.6238
-66.6447
-66.6665
-66.6884
-66.7093
-66.7284
-66.7448
-66.7577
-66.7667
-66.7713
-66.5755
-66.5794
-66.5872
-66.5984
-66.6126
-66.6292
-66.6475
-66.6665
-66.6856
-66.7039
-66.7206
-66.7349
-66.7463
-66.7541
-66.7581
-66.5858
-66.5893
-66.5962
-66.6062
-66.6188
-66.6335
-66.6497
-66.6666
-66.6835
-66.6997
-66.7145
-66.7272
-66.7372
-66.7442
-66.7477
-66.5937
-66.5969
-66.6031
-66.6121
-66.6235
-66.6368
-66.6513
-66.6666
-66.6819
-66.6965
-66.7098
-66.7212
-66.7303
-66.7366
-66.7398
-66.5994
-66.6023
-66.6081
-66.6164
-66.6269
-66.6391
-66.6525
-66.6666
-66.6807
-66.6942
-66.7064
-66.717
-66.7253
-66.7311
-66.734
-66.6031
-66.6058
-66.6113
-66.6191
-66.629
-66.6406
-66.6533
-66.6666
-66.6799
-66.6927
-66.7043
-66.7142
-66.7221
-66.7276
-66.7304
-66.6048
-66.6075
-66.6128
-66.6204
-66.6301
-66.6413
-66.6537
-66.6666
-66.6796
-66.692
-66.7033
-66.7129
-66.7206
-66.7259
-66.7286
-66.6046
-66.6073
-66.6126
-66.6203
-66.63
-66.6413
-66.6537
-66.6666
-66.6796
-66.692
-66.7033
-66.713
-66.7207
-66.726
-66.7288
-66.6026
-66.6054
-66.6109
-66.6188
-66.6288
-66.6404
-66.6532
-66.6666
-66.68
-66.6929
-66.7045
-66.7146
-66.7225
-66.728
-66.7308
-66.5987
-66.6016
-66.6074
-66.6158
-66.6264
-66.6388
-66.6524
-66.6666
-66.6809
-66.6945
-66.7069
-66.7175
-66.726
-66.7318
-66.7348
-66.5926
-66.5959
-66.6022
-66.6113
-66.6229
-66.6363
-66.6511
-66.6666
-66.6821
-66.6969
-66.7104
-66.722
-66.7312
-66.7376
-66.7408
-66.5844
-66.5879
-66.595
-66.6051
-66.6179
-66.6329
-66.6494
-66.6666
-66.6838
-66.7003
-66.7153
-66.7282
-66.7384
-66.7455
-66.7491
-66.5736
-66.5777
-66.5856
-66.5971
-66.6116
-66.6285
-66.6471
-66.6666
-66.686
-66.7047
-66.7217
-66.7363
-66.7479
-66.7559
-66.76
-66.56
-66.5647
-66.5738
-66.5869
-66.6035
-66.6229
-66.6442
-66.6665
-66.6888
-66.7102
-66.7297
-66.7465
-66.7597
-66.7689
-66.7736
-66.5432
-66.5486
-66.5591
-66.5743
-66.5935
-66.616
-66.6406
-66.6664
-66.6923
-66.7171
-66.7397
-66.7591
-66.7744
-66.7851
-66.7905
-66.5227
-66.529
-66.5412
-66.5589
-66.5813
-66.6075
-66.6362
-66.6664
-66.6965
-66.7255
-66.7518
-66.7745
-66.7924
-66.8049
-66.8112
-66.4979
-66.5052
-66.5195
-66.5403
-66.5665
-66.5972
-66.6309
-66.6662
-66.7016
-66.7356
-66.7666
-66.7932
-66.8143
-66.8289
-66.8363
-66.4679
-66.4765
-66.4934
-66.5178
-66.5487
-66.5847
-66.6244
-66.6661
-66.7078
-66.7478
-66.7843
-66.8157
-66.8406
-66.8578
-66.8666
-66.432
-66.4421
-66.462
-66.4908
-66.5272
-66.5698
-66.6166
-66.6658
-66.7151
-66.7624
-66.8056
-66.8427
-66.8722
-66.8926
-66.903
-66.389
-66.401
-66.4245
-66.4584
-66.5015
-66.5518
-66.6073
-66.6654
-66.7238
-66.7799
-66.8311
-66.8752
-66.9101
-66.9343
-66.9467
-66.3377
-66.3519
-66.3796
-66.4198
-66.4707
-66.5303
-66.596
-66.6649
-66.7342
-66.8007
-66.8615
-66.9139
-66.9554
-66.9842
-66.999
-66.2766
-66.2934
-66.3262
-66.3737
-66.434
-66.5046
-66.5824
-66.6642
-66.7465
-66.8255
-66.8978
-66.9601
-67.0096
-67.0439
-67.0615
-66.2039
-66.2237
-66.2625
-66.3187
-66.3901
-66.4737
-66.5661
-66.6632
-66.7609
-66.855
-66.9411
-67.0153
-67.0743
-67.1153
-67.1362
-66.1174
-66.1408
-66.1867
-66.2532
-66.3378
-66.4369
-66.5464
-66.6618
-66.778
-66.8899
-66.9925
-67.0811
-67.1515
-67.2004
-67.2255
-66.0146
-66.0423
-66.0965
-66.1752
-66.2753
-66.3928
-66.5227
-66.6598
-66.798
-66.9314
-67.0538
-67.1595
-67.2437
-67.3022
-67.3322
-65.8927
-65.9253
-65.9894
-66.0824
-66.2008
-66.3399
-66.4941
-66.657
-66.8215
-66.9804
-67.1265
-67.2529
-67.3537
-67.4237
-67.4597
-65.7481
-65.7866
-65.8621
-65.972
-66.1119
-66.2766
-66.4595
-66.653
-66.8488
-67.0384
-67.2129
-67.3642
-67.4849
-67.569
-67.6121
-65.5767
-65.622
-65.7111
-65.8406
-66.0059
-66.2007
-66.4175
-66.6473
-66.8805
-67.1067
-67.3155
-67.4968
-67.6416
-67.7426
-67.7945
-65.3739
-65.4272
-65.5319
-65.6844
-65.8793
-66.1096
-66.3664
-66.6394
-66.9171
-67.1872
-67.4371
-67.6546
-67.8288
-67.9504
-68.0129
-65.1342
-65.1966
-65.3195
-65.4987
-65.7283
-66.0001
-66.304
-66.6281
-66.9589
-67.2816
-67.5812
-67.8426
-68.0524
-68.1991
-68.2747
-64.8511
-64.9241
-65.0679
-65.2781
-65.5479
-65.8683
-66.2277
-66.6123
-67.0063
-67.3922
-67.7517
-68.0665
-68.3198
-68.4974
-68.5889
-64.5173
-64.6024
-64.7702
-65.0161
-65.3324
-65.7093
-66.1338
-66.5899
-67.0593
-67.5211
-67.9532
-68.3331
-68.6398
-68.8554
-68.9667
-64.1244
-64.2232
-64.4185
-64.705
-65.075
-65.5174
-66.0179
-66.5584
-67.1176
-67.6707
-68.1909
-68.6505
-69.0231
-69.2858
-69.4217
-63.6629
-63.7772
-64.0033
-64.336
-64.7672
-65.2851
-65.8741
-66.514
-67.18
-67.8431
-68.4706
-69.0283
-69.4827
-69.8043
-69.971
-63.122
-63.2535
-63.5141
-63.8987
-64.3992
-65.0035
-65.695
-66.4514
-67.2445
-68.0402
-68.7989
-69.4779
-70.0345
-70.4303
-70.6362
-62.4899
-62.6402
-62.9387
-63.3809
-63.9591
-64.6614
-65.4708
-66.3633
-67.3073
-68.263
-69.1825
-70.0125
-70.698
-71.1883
-71.4442
-61.7533
-61.924
-62.2636
-62.7687
-63.4328
-64.2451
-65.1888
-66.2393
-67.362
-68.5108
-69.6283
-70.6474
-71.4969
-72.109
-72.43
-60.8983
-61.0903
-61.4736
-62.0462
-62.8036
-63.7374
-64.8327
-66.0653
-67.3985
-68.7804
-70.1423
-71.4002
-72.4606
-73.2318
-73.6386
-59.91
-60.1239
-60.5523
-61.1953
-62.052
-63.1176
-64.3813
-65.8214
-67.4012
-69.0639
-70.7285
-72.2901
-73.6253
-74.6075
-75.1297
-58.7732
-59.0087
-59.4818
-60.1961
-61.1551
-62.3604
-63.8073
-65.4805
-67.3464
-69.346
-71.3863
-73.3371
-75.035
-76.3027
-76.9835
-57.4728
-57.7285
-58.2439
-59.0269
-60.0874
-61.4353
-63.0763
-65.0056
-67.1989
-69.5997
-72.1063
-74.5596
-76.7433
-78.4054
-79.31
-55.9949
-56.2679
-56.8203
-57.665
-58.8202
-60.3067
-62.1451
-64.3475
-66.9071
-69.7801
-72.8633
-75.9694
-78.8139
-81.0342
-82.2646
-54.3276
-54.6132
-55.1937
-56.0877
-57.3227
-58.9339
-60.961
-63.4414
-66.3976
-69.8145
-73.6043
-77.5607
-81.3179
-84.3503
-86.0736
-52.462
-52.7538
-53.3494
-54.2736
-55.5641
-57.2724
-59.4621
-62.2048
-65.5683
-69.59
-74.2295
-79.2904
-84.3251
-88.5753
-91.0792
-50.3939
-50.6834
-51.277
-52.2051
-53.5155
-55.2765
-57.5791
-60.5373
-64.2818
-68.9366
-74.5619
-81.0382
-87.8769
-94.0131
-97.8236
-48.1249
-48.4019
-48.9725
-49.8711
-51.1541
-52.9047
-55.2409
-58.3237
-62.3631
-67.6091
-74.3034
-82.5343
-91.9165
-101.066
-107.214
-45.6635
-45.9167
-46.4402
-47.2704
-48.468
-50.1262
-52.3841
-55.4459
-59.6064
-65.2759
-72.9777
-83.2309
-96.1178
-110.202
-120.874
-43.0264
-43.2438
-43.695
-44.4146
-45.4621
-46.9314
-48.9692
-51.8052
-55.8017
-61.5315
-69.88
-82.0986
-99.4873
-121.708
-141.945
-40.2383
-40.4089
-40.7634
-41.3313
-42.1633
-43.3417
-45.0001
-47.3587
-50.7934
-55.9686
-64.0949
-77.3759
-99.5012
-134.592
-177.069
-37.332
-37.4462
-37.6838
-38.0648
-38.624
-39.4189
-40.5447
-42.165
-44.5763
-48.3565
-54.7301
-66.5112
-90.5113
-142.345
-241.69
-34.3464
-34.398
-34.5048
-34.6746
-34.9212
-35.2663
-35.7461
-36.4222
-37.4087
-38.9437
-41.6102
-47.1612
-62.1924
-117.105
-375.3
-31.3252
-31.3116
-31.282
-31.2314
-31.1499
-31.0204
-30.8113
-30.4638
-29.8603
-28.7452
-26.4873
-21.2279
-6.17823
49.3047
308.541
-28.3137
-28.2364
-28.0741
-27.8096
-27.4123
-26.8298
-25.9728
-24.6834
-22.6675
-19.3406
-13.4491
-2.09341
21.7571
74.218
175.658
-25.356
-25.2205
-24.9374
-24.4804
-23.8033
-22.8299
-21.4347
-19.4076
-16.3853
-11.7173
-4.20589
8.36394
29.8235
65.1172
113.224
16.8532
6.88503
2.87737
0.799471
-0.461154
-1.2978
-1.88324
-2.30635
-2.61798
-2.84937
-3.0207
-3.14532
-3.23218
-3.28716
-3.31381
10.6571
6.53075
3.51303
1.5461
0.236037
-0.67129
-1.32098
-1.79749
-2.15221
-2.41784
-2.61587
-2.76073
-2.86216
-2.92656
-2.95784
7.32637
5.40655
3.41893
1.83657
0.653547
-0.223687
-0.878986
-1.37318
-1.74831
-2.03324
-2.24795
-2.40629
-2.51783
-2.58894
-2.62357
5.32883
4.32941
3.04337
1.84971
0.858699
0.0697945
-0.548857
-1.03156
-1.40702
-1.69739
-1.91915
-2.08433
-2.20154
-2.27665
-2.31332
4.02528
3.45128
2.60365
1.72211
0.92349
0.245044
-0.313135
-0.764393
-1.12482
-1.40917
-1.62962
-1.79568
-1.91448
-1.99103
-2.02853
3.12032
2.76314
2.18744
1.53691
0.90482
0.336773
-0.151661
-0.560298
-0.89545
-1.16531
-1.37784
-1.53984
-1.65674
-1.73251
-1.76976
2.46338
2.22674
1.82319
1.3389
0.841665
0.373213
-0.0456021
-0.407232
-0.711409
-0.96127
-1.16113
-1.31531
-1.42755
-1.50074
-1.53685
1.97076
1.80621
1.51499
1.14988
0.758515
0.37518
0.0207452
-0.294061
-0.565082
-0.791941
-0.976142
-1.1199
-1.22546
-1.29471
-1.32899
1.5924
1.47364
1.2581
0.979063
0.669785
0.357076
0.0595717
-0.211293
-0.44942
-0.65223
-0.81923
-0.951009
-1.04858
-1.11296
-1.14493
1.2965
1.20827
1.0453
0.829239
0.583434
0.328409
0.0798979
-0.151257
-0.35828
-0.537381
-0.686771
-0.805868
-0.894735
-0.953692
-0.983072
1.06185
0.994803
0.869368
0.700063
0.50348
0.295217
0.0881705
-0.107979
-0.286526
-0.443162
-0.575344
-0.681714
-0.761657