/*--------------------------------*- C++ -*----------------------------------*\
| =========                 |                                                 |
| \\      /  F ield         | OpenFOAM: The Open Source CFD Toolbox           |
|  \\    /   O peration     | Version:  5.x                                   |
|   \\  /    A nd           | Web:      www.OpenFOAM.org                      |
|    \\/     M anipulation  |                                                 |
\*---------------------------------------------------------------------------*/
FoamFile
{
    version     2.0;
    format      ascii;
    class       volScalarField;
    location    "18.4";
    object      T;
}
// * * * * * * * * * * * * * * * * * * * * * * * * * * * * * * * * * * * * * //

dimensions      [0 0 0 1 0 0 0];

internalField   nonuniform List<scalar> 
6300
(
9.94056
9.82284
9.70854
9.59991
9.49912
9.40822
9.32912
9.26348
9.21271
9.17786
9.15954
9.15791
9.17258
9.20265
9.24672
9.93941
9.8194
9.70286
9.59206
9.48921
9.39642
9.31563
9.24859
9.19677
9.16129
9.14282
9.14156
9.15714
9.18861
9.23451
9.9371
9.81249
9.69143
9.57625
9.46924
9.37259
9.28837
9.21846
9.16447
9.12767
9.10887
9.10835
9.12576
9.16011
9.20976
9.9336
9.80203
9.67411
9.55227
9.43889
9.33632
9.24678
9.17238
9.11496
9.07602
9.05661
9.05717
9.07741
9.11626
9.17183
9.92889
9.78791
9.65071
9.51981
9.39773
9.28698
9.19005
9.1093
9.04693
9.00481
8.98435
8.98626
9.01041
9.05563
9.11969
9.92291
9.77002
9.62101
9.47852
9.34521
9.22382
9.11711
9.02783
8.95863
8.91192
8.88967
8.89309
8.92231
8.97612
9.05181
9.91564
9.74823
9.58479
9.42803
9.28077
9.14597
9.02672
8.92624
8.8478
8.79455
8.76931
8.77407
8.80957
8.87468
8.96606
9.90705
9.72247
9.54187
9.36803
9.20387
9.05256
8.91755
8.8026
8.71174
8.64916
8.61889
8.62429
8.66719
8.74694
8.85944
9.89715
9.69272
9.4922
9.29833
9.1141
8.94283
8.7883
8.65485
8.54739
8.47143
8.43279
8.43696
8.48794
8.58639
8.7276
9.88596
9.65908
9.43587
9.21898
9.01135
8.81634
8.63797
8.48107
8.35151
8.25635
8.20383
8.20279
8.26118
8.38303
8.56396
9.87356
9.62175
9.37322
9.13038
8.89596
8.67321
8.46616
8.27994
8.1212
7.99862
7.92338
7.90916
7.97092
8.12057
8.35775
9.86008
9.58113
9.30488
9.03335
8.76888
8.51436
8.2735
8.0513
7.8547
7.69353
7.58187
7.53953
7.59273
7.77052
8.089
9.84572
9.53779
9.23182
8.92925
8.63185
8.34183
8.06216
7.79705
7.55276
7.33892
7.17101
7.07431
7.08993
7.27975
7.71333
9.83072
9.49251
9.15534
8.81999
8.48744
8.15893
7.83624
7.52198
7.22033
6.93837
6.68891
6.49676
6.41291
6.54518
7.10639
9.81539
9.44618
9.07702
8.70793
8.33896
7.97022
7.60187
7.23428
6.8682
6.5053
6.14948
5.81088
5.51973
5.38164
5.82673
9.29828
9.35223
9.41194
9.47603
9.54314
9.61197
9.68131
9.75006
9.81725
9.88205
9.94372
10.0017
10.0554
10.1046
10.1488
10.1878
10.2214
10.2496
10.2721
10.2889
10.3
10.3053
10.3049
10.2987
10.2869
10.2695
10.2464
10.2179
10.1839
10.1445
10.0999
10.0501
9.99515
9.9352
9.8703
9.80053
9.72596
9.64666
9.5627
9.47416
9.38112
9.28364
9.18181
9.07572
8.96545
8.85108
8.73269
8.61037
8.48418
8.35421
8.22052
8.08316
7.94221
7.79772
7.64976
7.4984
7.34373
7.18583
7.02481
6.86078
6.69386
6.52419
6.35189
6.17712
6.00003
5.82076
5.63951
5.45644
5.27178
5.08575
4.89863
4.71069
4.52229
4.33379
4.1456
3.95814
3.7719
3.58733
3.40494
3.22521
3.04862
2.87565
2.70674
2.54229
2.38268
2.22822
2.07918
1.93575
1.79807
1.66618
9.28802
9.34389
9.40557
9.47161
9.5406
9.61117
9.68208
9.75223
9.82064
9.88646
9.94899
10.0077
10.062
10.1116
10.1561
10.1954
10.2293
10.2576
10.2802
10.2971
10.3082
10.3135
10.313
10.3068
10.2949
10.2774
10.2542
10.2256
10.1915
10.152
10.1073
10.0573
10.0023
9.94223
9.87722
9.80734
9.73266
9.65326
9.5692
9.48055
9.3874
9.28981
9.18786
9.08165
8.97125
8.85676
8.73826
8.61583
8.48955
8.35948
8.2257
8.08826
7.94722
7.80263
7.65457
7.50309
7.34829
7.19025
7.02907
6.86486
6.69776
6.52789
6.35539
6.1804
6.00308
5.82357
5.64205
5.45869
5.27369
5.08729
4.89973
4.71132
4.52238
4.3333
4.14448
3.95637
3.76943
3.58416
3.40107
3.22064
3.04339
2.86978
2.70028
2.5353
2.37523
2.22039
2.07107
1.92746
1.78969
1.65784
9.26732
9.32714
9.39287
9.46291
9.53571
9.60981
9.68391
9.75685
9.82767
9.89553
9.95976
10.0198
10.0753
10.1258
10.171
10.2109
10.2451
10.2737
10.2965
10.3134
10.3246
10.3299
10.3294
10.3231
10.311
10.2933
10.2699
10.241
10.2067
10.167
10.122
10.0718
10.0166
9.95628
9.89105
9.82096
9.74608
9.66647
9.58221
9.49335
9.39997
9.30215
9.19996
9.09351
8.98287
8.86814
8.7494
8.62676
8.50028
8.37003
8.23607
8.09846
7.95724
7.81247
7.66421
7.51251
7.35744
7.19911
7.0376
6.87305
6.70557
6.53531
6.3624
6.18699
6.00921
5.82922
5.64717
5.46323
5.27757
5.09042
4.90201
4.71264
4.52264
4.33239
4.14231
3.95285
3.76452
3.57783
3.39331
3.21148
3.03286
2.85797
2.68727
2.52122
2.36021
2.20461
2.05471
1.91072
1.7728
1.641
9.23577
9.30181
9.3739
9.45018
9.52887
9.60839
9.68731
9.76447
9.83888
9.90975
9.97647
10.0385
10.0956
10.1474
10.1936
10.2342
10.269
10.298
10.321
10.3381
10.3493
10.3546
10.3539
10.3474
10.3352
10.3171
10.2935
10.2643
10.2296
10.1895
10.1441
10.0936
10.038
9.97734
9.91179
9.84139
9.7662
9.68629
9.60172
9.51255
9.41884
9.32067
9.21812
9.11129
9.00027
8.88517
8.76609
8.64312
8.51634
8.38581
8.2516
8.11375
7.9723
7.82727
7.67871
7.52667
7.37122
7.21245
7.05046
6.88537
6.71733
6.54647
6.37295
6.1969
6.01847
5.83778
5.65497
5.47018
5.28356
5.0953
4.90563
4.71483
4.52322
4.33118
4.13918
3.94768
3.75722
3.56835
3.38164
3.19765
3.01695
2.84008
2.66755
2.49984
2.3374
2.18061
2.0298
1.88524
1.74707
1.61536
9.19278
9.26772
9.34885
9.4339
9.5208
9.60774
9.6932
9.77597
9.8551
9.92988
9.99977
10.0644
10.1235
10.1768
10.2243
10.2658
10.3013
10.3307
10.354
10.3713
10.3825
10.3876
10.3868
10.3801
10.3675
10.3491
10.325
10.2953
10.2601
10.2195
10.1736
10.1226
10.0665
10.0054
9.9394
9.8686
9.79302
9.71273
9.62777
9.53818
9.44403
9.34539
9.24235
9.135
9.02346
8.90785
8.78829
8.66487
8.53769
8.40682
8.2723
8.13416
7.99241
7.84707
7.69815
7.54568
7.38972
7.23035
7.06769
6.90187
6.73306
6.5614
6.38706
6.21019
6.03091
5.84933
5.66556
5.47969
5.29184
5.10216
4.91084
4.71812
4.52434
4.3299
4.13527
3.94096
3.74758
3.55572
3.366
3.17906
2.9955
2.8159
2.64085
2.47085
2.30641
2.14796
1.9959
1.85051
1.71201
1.58045
9.13752
9.22468
9.31808
9.4149
9.51262
9.60916
9.7029
9.79264
9.87752
9.95696
10.0306
10.0982
10.1596
10.2147
10.2635
10.306
10.3422
10.3721
10.3957
10.413
10.4242
10.4292
10.4281
10.421
10.408
10.3891
10.3644
10.3341
10.2982
10.257
10.2104
10.1588
10.102
10.0404
9.97386
9.90257
9.82654
9.7458
9.66037
9.57029
9.4756
9.37637
9.27268
9.16465
9.05242
8.93614
8.81594
8.69195
8.56428
8.43299
8.29812
8.15967
8.01762
7.87194
7.72261
7.56963
7.41303
7.25291
7.08939
6.92263
6.75281
6.58013
6.40477
6.22688
6.04659
5.86397
5.6791
5.492
5.30271
5.11133
4.91799
4.7229
4.52638
4.32885
4.13083
3.93289
3.7357
3.53995
3.34634
3.15556
2.96829
2.78518
2.60683
2.43384
2.26676
2.10611
1.95235
1.80587
1.66691
1.53558
9.06892
9.17258
9.28235
9.39455
9.50607
9.61455
9.71831
9.81624
9.9077
9.99234
10.07
10.1408
10.2046
10.2615
10.3117
10.3552
10.3921
10.4224
10.4462
10.4637
10.4747
10.4795
10.478
10.4705
10.4569
10.4373
10.4119
10.3808
10.3441
10.302
10.2546
10.2021
10.1446
10.0822
10.0151
9.94328
9.86674
9.78551
9.69958
9.60894
9.51361
9.41366
9.30916
9.20026
9.08714
8.96997
8.84895
8.72424
8.59598
8.46423
8.32901
8.19028
8.04797
7.90199
7.75225
7.5987
7.44136
7.2803
7.11568
6.94771
6.77661
6.60264
6.42604
6.24696
6.06554
5.88182
5.69579
5.50739
5.31656
5.12328
4.9276
4.72968
4.52983
4.32848
4.12621
3.9237
3.72172
3.52107
3.32256
3.12698
2.93507
2.74755
2.56507
2.38829
2.21782
2.0543
1.89831
1.75036
1.61081
1.47981
8.98565
9.11161
9.24309
9.3751
9.50384
9.62668
9.74203
9.84911
9.94763
10.0377
10.1194
10.1932
10.2593
10.318
10.3695
10.4139
10.4513
10.482
10.506
10.5233
10.5342
10.5386
10.5367
10.5285
10.5142
10.4938
10.4675
10.4354
10.3977
10.3545
10.306
10.2525
10.1941
10.1309
10.0631
9.99065
9.91361
9.8319
9.74547
9.65425
9.55821
9.45739
9.35189
9.24188
9.12758
9.00926
8.88718
8.76158
8.63262
8.50038
8.36487
8.22598
8.08354
7.93737
7.78729
7.63315
7.47495
7.31275
7.14674
6.97721
6.80448
6.6289
6.45079
6.27037
6.08775
5.90294
5.71583
5.52622
5.33388
5.13862
4.94037
4.7392
4.53539
4.32939
4.1219
3.91372
3.70578
3.49907
3.29453
3.09307
2.89552
2.70262
2.51509
2.33361
2.15887
1.99163
1.83268
1.68274
1.54239
1.41185
8.88615
9.04266
9.20299
9.36032
9.51004
9.64952
9.77763
9.89421
9.99971
10.0948
10.1802
10.2567
10.3248
10.3848
10.4373
10.4824
10.5203
10.5512
10.5751
10.5923
10.6028
10.6067
10.6042
10.5953
10.5802
10.5588
10.5314
10.4981
10.459
10.4145
10.3647
10.3099
10.2503
10.1862
10.1176
10.0446
9.96709
9.88502
9.79817
9.7064
9.60961
9.50778
9.40103
9.28957
9.17373
9.05388
8.93041
8.80367
8.67389
8.54119
8.40551
8.26669
8.12442
7.97833
7.82807
7.67341
7.51423
7.35062
7.18282
7.01125
6.83638
6.65876
6.47881
6.29687
6.11306
5.92733
5.73942
5.54892
5.35534
5.15824
4.95731
4.7525
4.54403
4.33244
4.11853
3.90334
3.68806
3.4739
3.26204
3.05351
2.84922
2.64995
2.45639
2.26919
2.08909
1.91701
1.75404
1.60132
1.45979
1.32993
8.7688
8.96816
9.16716
9.35645
9.53093
9.68867
9.82974
9.95522
10.0667
10.1658
10.2539
10.3322
10.4016
10.4626
10.5157
10.5612
10.5993
10.6302
10.654
10.6708
10.6808
10.6841
10.6808
10.6711
10.655
10.6325
10.6037
10.5689
10.5282
10.4819
10.4304
10.374
10.313
10.2478
10.1784
10.1048
10.0271
9.9449
9.85788
9.76571
9.66816
9.56517
9.45686
9.3435
9.22556
9.10362
8.97828
8.85005
8.7193
8.58618
8.45061
8.31229
8.1707
8.0252
7.87515
7.72009
7.55982
7.39443
7.22427
7.04995
6.87221
6.69188
6.50965
6.326
6.14108
5.95479
5.76667
5.576
5.38185
5.18332
4.97979
4.77101
4.55714
4.33877
4.11695
3.89305
3.66868
3.44541
3.22471
3.0078
2.79566
2.58905
2.38851
2.19452
2.00773
1.82926
1.66064
1.50375
1.3604
1.23151
8.63246
8.89412
9.14526
9.37383
9.57585
9.75178
9.9042
10.0363
10.1515
10.2525
10.3416
10.4205
10.4902
10.5516
10.6049
10.6506
10.6887
10.7194
10.7427
10.759
10.7683
10.7708
10.7667
10.756
10.7388
10.715
10.6847
10.6481
10.6054
10.5568
10.503
10.4445
10.3818
10.3152
10.245
10.1711
10.0935
10.0116
9.9249
9.83265
9.73445
9.63014
9.51984
9.40392
9.28308
9.15816
9.03019
8.89997
8.76804
8.63461
8.49958
8.3625
8.22255
8.07856
7.92934
7.77418
7.6127
7.44504
7.27165
7.09348
6.91169
6.72767
6.54248
6.35686
6.17103
5.98483
5.79754
5.60803
5.41459
5.21553
5.00979
4.79679
4.57666
4.35004
4.11834
3.88341
3.64766
3.41319
3.18191
2.95518
2.73413
2.51936
2.31119
2.10945
1.91436
1.72731
1.55034
1.38664
1.24019
1.11283
8.47891
8.83516
9.15582
9.42939
9.65828
9.84867
10.0078
10.1418
10.2564
10.3563
10.4441
10.5219
10.5909
10.6519
10.7052
10.7508
10.7887
10.819
10.8416
10.857
10.8654
10.8669
10.8619
10.8503
10.8319
10.8068
10.7748
10.736
10.6907
10.6393
10.5824
10.5211
10.456
10.3878
10.3166
10.2427
10.1657
10.0852
9.99978
9.90803
9.80946
9.7036
9.59082
9.47133
9.34635
9.21698
9.08527
8.95222
8.81887
8.68522
8.55144
8.41672
8.28013
8.13933
7.99201
7.83728
7.67439
7.50381
7.32584
7.14217
6.95428
6.76507
6.57583
6.38798
6.20143
6.01636
5.83156
5.64566
5.45535
5.25732
5.0502
4.83277
4.60549
4.36858
4.12432
3.87489
3.62476
3.37632
3.13252
2.89433
2.66352
2.44014
2.22457
2.01476
1.80942
1.61083
1.4209
1.2447
1.09248
0.967952
8.32271
8.82741
9.2341
9.54922
9.79607
9.99052
10.1475
10.2751
10.3827
10.4772
10.5607
10.636
10.7031
10.7634
10.8162
10.8621
10.8997
10.9294
10.951
10.9651
10.9721
10.9725
10.9666
10.9542
10.9348
10.9083
10.8744
10.8333
10.7846
10.7295
10.6679
10.603
10.5346
10.4646
10.3921
10.3187
10.2431
10.1658
10.0837
9.99316
9.89487
9.78697
9.67136
9.54654
9.4159
9.27906
9.14223
9.00483
8.87004
8.73593
8.60457
8.47357
8.34369
8.20944
8.06528
7.91207
7.74707
7.57317
7.38815
7.19688
6.99872
6.80246
6.60714
6.41715
6.22965
6.04745
5.86711
5.68958
5.50719
5.31215
5.1054
4.88289
4.64814
4.39764
4.13773
3.86737
3.59937
3.33277
3.07501
2.82284
2.58219
2.34965
2.12963
1.91364
1.69472
1.48186
1.2717
1.06819
0.904886
0.786958
8.23747
8.9607
9.44421
9.76726
10.0093
10.1862
10.3294
10.4374
10.5275
10.6139
10.6892
10.7619
10.8249
10.8856
10.937
10.9853
11.022
11.0514
11.071
11.0833
11.0884
11.0869
11.0806
11.0682
11.0475
11.0207
10.984
10.9416
10.8875
10.8289
10.7582
10.6899
10.6154
10.5447
10.469
10.3977
10.3226
10.2534
10.1794
10.0894
9.994
9.88133
9.76505
9.63005
9.49426
9.34102
9.1999
9.05356
8.92016
8.78258
8.65709
8.52873
8.41345
8.29372
8.15148
8.00375
7.83248
7.65848
7.45937
7.26141
7.04035
6.8384
6.6307
6.44268
6.25016
6.07578
5.89855
5.74043
5.57716
5.38379
5.18326
4.95059
4.71339
4.44023
4.16612
3.8564
3.57194
3.27645
3.0094
2.73475
2.48912
2.24113
2.02886
1.81671
1.57126
1.34901
1.11289
0.833779
0.651941
0.55243
8.59139
9.43916
9.88532
10.1019
10.316
10.4306
10.5618
10.6251
10.6778
10.7667
10.821
10.9019
10.9498
11.0209
11.0624
11.125
11.1546
11.1873
11.2013
11.2119
11.2139
11.2081
11.2033
11.1939
11.1689
11.1472
11.1019
11.0665
10.997
10.9455
10.8451
10.7856
10.6904
10.6323
10.5391
10.4824
10.3933
10.3477
10.2982
10.1934
10.1179
9.9808
9.88558
9.71462
9.59767
9.38541
9.265
9.08358
8.97619
8.81172
8.71368
8.56495
8.48953
8.41034
8.24553
8.12923
7.92174
7.77987
7.52888
7.35913
7.05441
6.88257
6.62584
6.47463
6.24452
6.10813
5.90243
5.79866
5.69044
5.46569
5.30733
5.02475
4.8304
4.48414
4.24577
3.80903
3.56034
3.17915
2.9547
2.60484
2.39944
2.08116
1.92789
1.76773
1.41436
1.23611
1.01597
0.459289
0.280438
0.233095
1.52747
1.38434
1.24911
1.12137
1.00062
0.886287
0.777764
0.674408
0.575571
0.480608
0.388886
0.299786
0.212705
0.127054
0.0422569
1.51927
1.37643
1.2416
1.11436
0.994184
0.880471
0.772588
0.669881
0.57169
0.477362
0.38626
0.297764
0.211272
0.1262
0.0419728
1.50273
1.36049
1.2265
1.10029
0.981276
0.868814
0.76223
0.660833
0.563941
0.470886
0.381025
0.293735
0.208419
0.124498
0.0414073
1.47756
1.33628
1.20361
1.07901
0.961803
0.851272
0.746675
0.647273
0.552347
0.461212
0.373213
0.287729
0.204168
0.121964
0.0405653
1.44334
1.30343
1.17265
1.05032
0.935644
0.827788
0.725918
0.629228
0.536959
0.448397
0.362882
0.279796
0.198559
0.118622
0.0394554
1.39944
1.26143
1.13323
1.01397
0.902656
0.798309
0.699972
0.606758
0.517856
0.432532
0.350119
0.270012
0.191649
0.114508
0.0380896
1.34501
1.2096
1.08487
0.969647
0.862695
0.762812
0.668896
0.579969
0.49517
0.413749
0.335048
0.258479
0.183516
0.10967
0.036484
1.27892
1.14707
1.02698
0.917049
0.815657
0.721339
0.632826
0.549045
0.469101
0.392244
0.317839
0.24534
0.174263
0.104171
0.03466
1.19966
1.07276
0.958938
0.8559
0.761535
0.674054
0.592016
0.514278
0.439939
0.368282
0.298723
0.230775
0.164022
0.0980917
0.0326442
1.10519
0.985363
0.880098
0.786071
0.70052
0.62132
0.5469
0.476106
0.408092
0.342218
0.277991
0.215014
0.152956
0.0915284
0.030469
0.992724
0.883395
0.790011
0.707758
0.633146
0.563801
0.49815
0.435151
0.3741
0.314504
0.256006
0.198332
0.141259
0.0845956
0.0281723
0.858556
0.765474
0.688783
0.621798
0.560499
0.502582
0.446744
0.392244
0.338648
0.285689
0.233196
0.181047
0.129149
0.0774224
0.0257964
0.698124
0.631152
0.577841
0.530146
0.484464
0.439277
0.393996
0.34843
0.302554
0.256405
0.210039
0.16351
0.116866
0.0701477
0.0233871
0.507745
0.483162
0.461279
0.436477
0.407928
0.376062
0.341528
0.304922
0.26673
0.227336
0.187042
0.146086
0.104657
0.0629143
0.020991
0.293198
0.332469
0.347629
0.346549
0.334706
0.315511
0.291129
0.262996
0.232104
0.199165
0.164706
0.129131
0.0927621
0.0558606
0.0186534
9.80132
9.40368
9.00516
8.60508
8.20266
7.79686
7.38633
6.96916
6.5425
6.10182
5.6392
5.13863
4.56065
3.78045
2.29703
9.78873
9.36565
8.9409
8.51321
8.08107
7.64254
7.195
6.73472
6.25612
5.75025
5.20165
4.58125
3.82918
2.81316
1.24836
9.77652
9.32878
8.87868
8.42444
7.96393
7.49447
7.01249
6.513
5.98869
5.42834
4.81394
4.11531
3.28098
2.22697
0.846847
9.76483
9.29354
8.81933
8.34
7.85299
7.3551
6.84215
6.30851
5.74626
5.14396
4.48472
3.7436
2.88533
1.86725
0.66309
9.75381
9.26034
8.76353
8.26091
7.74961
7.22617
6.68617
6.12388
5.53165
4.89912
4.21235
3.45324
2.60067
1.63673
0.564071
9.74355
9.22946
8.71176
8.18783
7.65467
7.10873
6.54566
5.96005
5.34502
4.69194
3.9902
3.22779
2.39336
1.48169
0.503584
9.7341
9.20108
8.66433
8.12117
7.5686
7.00317
6.42081
5.81664
5.18482
4.51853
3.81019
3.05233
2.23967
1.3728
0.463276
9.7255
9.17529
8.62134
8.06103
7.49146
6.90938
6.31111
5.69242
5.04855
4.37433
3.66456
2.91494
2.12362
1.29353
0.43479
9.71776
9.15208
8.58278
8.00732
7.42299
6.82683
6.21557
5.58568
4.93336
4.25481
3.54661
2.8065
2.03448
1.23417
0.413831
9.71084
9.13139
8.54849
7.95978
7.36275
6.75475
6.13298
5.49451
4.83639
4.15587
3.45082
2.72022
1.965
1.1887
0.397959
9.70472
9.11308
8.51825
7.91801
7.31012
6.69224
6.06199
5.41698
4.75496
4.07398
3.37276
2.65105
1.91014
1.15326
0.385682
9.69933
9.09701
8.49174
7.88155
7.26442
6.63832
6.00125
5.35127
4.68669
4.00614
3.30892
2.5952
1.86638
1.12526
0.376031
9.69462
9.08298
8.46867
7.84991
7.22495
6.59202
5.94945
5.29571
4.6295
3.94989
3.25653
2.54984
1.83116
1.10288
0.36835
9.69053
9.07079
8.44867
7.82259
7.191
6.55241
5.90542
5.24882
4.58161
3.90318
3.21341
2.51281
1.80262
1.08484
0.362175
9.68699
9.06027
8.43143
7.79909
7.16191
6.51863
5.86808
5.20928
4.5415
3.86434
3.1778
2.48244
1.77934
1.07019
0.357173
9.68394
9.05121
8.41661
7.77895
7.13707
6.48989
5.83645
5.17598
4.50792
3.832
3.14834
2.45743
1.76026
1.05822
0.353094
9.68133
9.04344
8.40393
7.76175
7.1159
6.46549
5.80972
5.14795
4.47979
3.80505
3.12389
2.43678
1.74456
1.0484
0.349751
9.67909
9.0368
8.3931
7.74709
7.09791
6.44481
5.78714
5.12438
4.45622
3.78256
3.10357
2.41968
1.7316
1.04031
0.347
9.67718
9.03114
8.38387
7.73462
7.08265
6.42732
5.76808
5.10455
4.43646
3.76378
3.08666
2.40548
1.72087
1.03362
0.344728
9.67556
9.02632
8.37603
7.72404
7.06971
6.41253
5.75202
5.08787
4.4199
3.74808
3.07256
2.39368
1.71196
1.02808
0.342846
9.67418
9.02223
8.36938
7.71507
7.05877
6.40004
5.73849
5.07386
4.40601
3.73494
3.06079
2.38384
1.70455
1.02347
0.341284
9.67301
9.01876
8.36375
7.70748
7.04953
6.3895
5.72709
5.06208
4.39437
3.72395
3.05095
2.37564
1.69838
1.01964
0.339984
9.67201
9.01582
8.35898
7.70107
7.04172
6.38062
5.7175
5.05218
4.38459
3.71474
3.04273
2.36879
1.69323
1.01645
0.338902
9.67118
9.01334
8.35495
7.69565
7.03514
6.37313
5.70942
5.04387
4.3764
3.70702
3.03585
2.36307
1.68893
1.01378
0.337999
9.67047
9.01124
8.35155
7.69108
7.02959
6.36683
5.70263
5.03688
4.36952
3.70056
3.03009
2.35828
1.68534
1.01156
0.337245
9.66987
9.00947
8.34868
7.68723
7.02491
6.36153
5.69693
5.03101
4.36375
3.69514
3.02527
2.35428
1.68234
1.0097
0.336615
9.66937
9.00798
8.34626
7.68399
7.02098
6.35707
5.69213
5.02609
4.3589
3.6906
3.02123
2.35092
1.67983
1.00814
0.336088
9.66894
9.00673
8.34423
7.68126
7.01767
6.35332
5.6881
5.02195
4.35484
3.68679
3.01785
2.34812
1.67773
1.00684
0.335648
9.66858
9.00567
8.34252
7.67897
7.01489
6.35017
5.68472
5.01848
4.35144
3.6836
3.01502
2.34577
1.67597
1.00575
0.335279
9.66828
9.00478
8.34108
7.67704
7.01255
6.34752
5.68188
5.01557
4.34859
3.68093
3.01264
2.3438
1.67449
1.00484
0.334971
9.66803
9.00404
8.33987
7.67542
7.0106
6.34531
5.6795
5.01314
4.3462
3.67869
3.01066
2.34216
1.67326
1.00408
0.334714
9.66782
9.00342
8.33886
7.67407
7.00896
6.34346
5.67751
5.0111
4.3442
3.67682
3.009
2.34078
1.67224
1.00344
0.334499
9.66765
9.00289
8.33802
7.67294
7.00759
6.34191
5.67585
5.0094
4.34253
3.67527
3.00762
2.33964
1.67138
1.00291
0.334319
9.6675
9.00246
8.33731
7.672
7.00645
6.34062
5.67447
5.00798
4.34115
3.67397
3.00647
2.33869
1.67067
1.00247
0.33417
9.66738
9.0021
8.33673
7.67121
7.0055
6.33955
5.67332
5.00681
4.34
3.67289
3.00552
2.3379
1.67008
1.00211
0.334047
9.66728
9.0018
8.33625
7.67057
7.00472
6.33867
5.67238
5.00584
4.33905
3.67201
3.00473
2.33725
1.66959
1.00181
0.333945
9.66719
9.00156
8.33586
7.67004
7.00408
6.33795
5.67161
5.00505
4.33828
3.67129
3.00409
2.33672
1.6692
1.00156
0.333862
9.66713
9.00136
8.33554
7.66962
7.00357
6.33737
5.67099
5.00442
4.33766
3.6707
3.00358
2.33629
1.66888
1.00137
0.333796
9.66708
9.00121
8.33529
7.66928
7.00317
6.33691
5.6705
5.00391
4.33716
3.67024
3.00317
2.33596
1.66863
1.00121
0.333743
9.66704
9.00109
8.3351
7.66903
7.00286
6.33656
5.67012
5.00353
4.33679
3.66989
3.00286
2.3357
1.66843
1.00109
0.333703
9.66701
9.00101
8.33496
7.66884
7.00263
6.33631
5.66985
5.00326
4.33652
3.66964
3.00264
2.33551
1.6683
1.00101
0.333674
9.66699
9.00095
8.33487
7.66873
7.00249
6.33614
5.66968
5.00308
4.33634
3.66948
3.00249
2.33539
1.66821
1.00095
0.333655
9.66698
9.00092
8.33483
7.66867
7.00242
6.33607
5.6696
5.00299
4.33626
3.6694
3.00242
2.33534
1.66816
1.00093
0.333647
9.66698
9.00093
8.33483
7.66867
7.00243
6.33607
5.6696
5.003
4.33627
3.66941
3.00243
2.33534
1.66817
1.00093
0.333647
9.66699
9.00096
8.33488
7.66874
7.00251
6.33616
5.6697
5.0031
4.33637
3.6695
3.00251
2.33541
1.66822
1.00096
0.333658
9.66701
9.00102
8.33498
7.66887
7.00266
6.33634
5.66989
5.00329
4.33655
3.66967
3.00266
2.33554
1.66831
1.00102
0.333678
9.66704
9.00111
8.33512
7.66906
7.0029
6.33661
5.67017
5.00358
4.33684
3.66994
3.0029
2.33573
1.66846
1.00111
0.333708
9.66708
9.00123
8.33532
7.66933
7.00322
6.33697
5.67056
5.00398
4.33723
3.67031
3.00323
2.336
1.66866
1.00123
0.33375
9.66714
9.00139
8.33558
7.66968
7.00364
6.33745
5.67107
5.00451
4.33774
3.67079
3.00365
2.33635
1.66892
1.00139
0.333805
9.66721
9.00159
8.33591
7.67012
7.00417
6.33805
5.67172
5.00516
4.33839
3.67139
3.00418
2.33679
1.66925
1.0016
0.333874
9.66729
9.00184
8.33632
7.67066
7.00483
6.33879
5.67251
5.00598
4.33918
3.67213
3.00484
2.33734
1.66966
1.00185
0.33396
9.66739
9.00215
8.33681
7.67133
7.00564
6.3397
5.67349
5.00698
4.34016
3.67305
3.00565
2.33801
1.67016
1.00216
0.334064
9.66752
9.00252
8.33742
7.67213
7.00661
6.3408
5.67467
5.00818
4.34134
3.67415
3.00663
2.33882
1.67077
1.00254
0.334191
9.66767
9.00297
8.33814
7.6731
7.00779
6.34213
5.67609
5.00964
4.34277
3.67549
3.00781
2.3398
1.6715
1.00299
0.334344
9.66785
9.00351
8.33901
7.67427
7.00919
6.34372
5.6778
5.01139
4.34448
3.67709
3.00924
2.34098
1.67238
1.00353
0.334528
9.66807
9.00415
8.34005
7.67566
7.01088
6.34563
5.67984
5.01349
4.34654
3.67901
3.01094
2.34239
1.67344
1.00419
0.334749
9.66833
9.00492
8.34129
7.67732
7.0129
6.34791
5.68229
5.01599
4.34899
3.68131
3.01298
2.34407
1.6747
1.00497
0.335014
9.66864
9.00583
8.34277
7.67931
7.0153
6.35063
5.68521
5.01898
4.35192
3.68405
3.01541
2.34609
1.67621
1.0059
0.33533
9.66901
9.00692
8.34453
7.68167
7.01816
6.35386
5.68868
5.02254
4.35542
3.68732
3.01832
2.3485
1.67801
1.00702
0.335708
9.66944
9.00821
8.34663
7.68448
7.02156
6.35772
5.69282
5.02679
4.35959
3.69123
3.02179
2.35138
1.68017
1.00835
0.336159
9.66996
9.00975
8.34912
7.68782
7.02561
6.36231
5.69776
5.03185
4.36456
3.69589
3.02593
2.35482
1.68274
1.00994
0.336699
9.67058
9.01157
8.35207
7.69178
7.03042
6.36776
5.70362
5.03788
4.37049
3.70145
3.03088
2.35892
1.68582
1.01185
0.337344
9.67131
9.01373
8.35558
7.69649
7.03614
6.37425
5.71061
5.04506
4.37755
3.70808
3.03678
2.36383
1.68949
1.01413
0.338115
9.67217
9.01629
8.35973
7.70207
7.04292
6.38195
5.71891
5.0536
4.38596
3.71599
3.04383
2.36968
1.69389
1.01685
0.339038
9.6732
9.01932
8.36465
7.70869
7.05097
6.3911
5.72877
5.06377
4.39599
3.72543
3.05224
2.37669
1.69915
1.02011
0.340144
9.67441
9.02291
8.37048
7.71652
7.0605
6.40195
5.7405
5.07587
4.40794
3.7367
3.0623
2.38507
1.70545
1.02402
0.341469
9.67584
9.02714
8.37735
7.72578
7.07179
6.41483
5.75443
5.09027
4.42218
3.75015
3.07434
2.39511
1.71301
1.02872
0.343061
9.67752
9.03213
8.38547
7.73673
7.08515
6.43008
5.77097
5.1074
4.43917
3.76622
3.08874
2.40715
1.72208
1.03436
0.344975
9.6795
9.03801
8.39504
7.74964
7.10094
6.44814
5.79059
5.12778
4.45942
3.78543
3.10601
2.42161
1.733
1.04115
0.347281
9.68183
9.04491
8.40629
7.76485
7.11956
6.4695
5.81386
5.15202
4.48358
3.80842
3.12672
2.43901
1.74615
1.04935
0.350067
9.68455
9.053
8.41948
7.78272
7.14151
6.49474
5.84144
5.18084
4.51241
3.83595
3.15161
2.45997
1.76205
1.05928
0.353443
9.68774
9.06246
8.43494
7.80369
7.16732
6.52451
5.87409
5.21509
4.54682
3.86895
3.18156
2.4853
1.78131
1.07134
0.357548
9.69145
9.07349
8.45297
7.82821
7.19759
6.55956
5.91269
5.25578
4.58791
3.90854
3.21769
2.51598
1.80474
1.08604
0.362561
9.69575
9.08628
8.47394
7.85681
7.23302
6.60074
5.95827
5.30409
4.63696
3.95612
3.26136
2.55327
1.83335
1.10406
0.368716
9.70072
9.10108
8.49824
7.89004
7.27433
6.649
6.01198
5.36137
4.69555
4.01335
3.31427
2.59878
1.86847
1.12627
0.376323
9.70643
9.11811
8.52625
7.92847
7.32233
6.70537
6.07512
5.42922
4.76552
4.08229
3.3786
2.65457
1.91185
1.15387
0.385801
9.71295
9.13759
8.55839
7.97271
7.37785
6.77096
6.14914
5.50944
4.84903
4.16546
3.45703
2.72333
1.96584
1.18847
0.397733
9.72036
9.15974
8.59501
8.02333
7.44171
6.84693
6.23557
5.60403
4.94862
4.26589
3.55302
2.80862
2.03363
1.23234
0.412949
9.72872
9.18473
8.63645
8.08086
7.5147
6.9344
6.33602
5.71518
5.06719
4.38723
3.6709
2.91515
2.11969
1.28879
0.432682
9.73805
9.21271
8.68298
8.14572
7.5975
7.03444
6.45206
5.8452
5.20796
4.53383
3.81616
3.04924
2.23035
1.36274
0.458844
9.74839
9.24373
8.73472
8.21819
7.69062
7.14788
6.58509
5.9963
5.37434
4.71067
3.99561
3.21943
2.37485
1.46189
0.494584
9.75972
9.27779
8.79168
8.29834
7.79426
7.27525
6.73616
6.17044
5.56969
4.92318
4.21751
3.43711
2.56682
1.59878
0.545504
9.77199
9.31474
8.85366
8.38593
7.90825
7.41657
6.90573
6.36889
5.79681
5.17676
4.49129
3.71721
2.82667
1.79485
0.622629
9.78514
9.35434
8.92026
8.48044
8.03197
7.5712
7.09334
6.59181
6.05723
5.47578
4.8266
4.07818
3.18463
2.08843
0.750468
9.79902
9.39622
8.99084
8.58095
8.16421
7.73768
7.29738
6.83768
6.3502
5.82181
5.23083
4.53991
3.68331
2.54989
0.991482
9.81348
9.43988
9.06456
8.6862
8.30326
7.91372
7.51488
7.10283
6.67158
6.2113
5.70445
5.1167
4.37423
3.30647
1.52732
9.82833
9.48474
9.14037
8.79464
8.44688
8.09622
7.74155
7.3813
7.01311
6.63313
6.23424
5.80092
5.29101
4.55707
2.94892
9.84336
9.53014
9.21713
8.9045
8.5925
8.2815
7.97209
7.66527
7.36281
7.06807
6.78791
6.53832
6.36335
6.41475
7.34945
9.85834
9.57539
9.29361
9.01391
8.73742
8.46566
8.20082
7.9462
7.70715
7.49286
7.32034
7.22387
7.27847
7.65901
8.76283
9.87305
9.61983
9.36865
9.12108
8.87904
8.64501
8.42244
8.21632
8.03429
7.88861
7.79994
7.8045
7.96722
8.40097
9.26956
0.120632
0.216432
0.258333
0.273979
0.274322
0.264756
0.248366
0.227091
0.202239
0.174732
0.145251
0.114318
0.082345
0.0496743
0.0166018
0.064769
0.148372
0.195384
0.218633
0.226306
0.223354
0.21288
0.196934
0.17693
0.15389
0.128574
0.101572
0.0733589
0.044329
0.0148277
0.0408049
0.105723
0.148936
0.174101
0.185667
0.187172
0.181194
0.169592
0.15373
0.134626
0.113065
0.0896673
0.0649394
0.0393108
0.0131605
0.0284321
0.0781444
0.11502
0.139012
0.152015
0.156186
0.15341
0.145209
0.132779
0.117068
0.0988316
0.0786854
0.0571449
0.0346545
0.0116119
0.0210258
0.0594798
0.0900514
0.111553
0.124494
0.130023
0.129394
0.12376
0.114107
0.101263
0.0859233
0.0686711
0.0500096
0.0303815
0.010189
0.0161177
0.0462888
0.0713806
0.0900376
0.102119
0.108134
0.108854
0.105101
0.0976483
0.0871918
0.0743421
0.0596351
0.0435452
0.0265002
0.00889496
0.0126431
0.0366246
0.0571778
0.0730884
0.0839559
0.0899217
0.0914201
0.0890096
0.0832755
0.0747815
0.0640501
0.0515588
0.0377439
0.0230079
0.00772905
0.0100744
0.0293408
0.0461987
0.0596407
0.0691962
0.074811
0.0766999
0.0752259
0.0708186
0.0639243
0.0549798
0.0444014
0.0325818
0.0198922
0.00668759
0.00811857
0.0237295
0.0375915
0.0488916
0.0571727
0.0622873
0.0643142
0.0634787
0.0600884
0.0544903
0.0470438
0.0381057
0.0280236
0.0171341
0.0057645
0.00659754
0.0193324
0.030763
0.0402385
0.0473478
0.0519072
0.053916
0.0535051
0.0508909
0.0463395
0.0401432
0.0326041
0.0240259
0.0147094
0.00495201
0.00539603
0.0158409
0.0252921
0.0332283
0.0392933
0.0432979
0.0451977
0.0450613
0.0430381
0.0393308
0.0341748
0.0278239
0.0205406
0.0125908
0.00424132
0.00443557
0.0130395
0.020873
0.0275173
0.0326695
0.03615
0.037893
0.0379275
0.0363545
0.0333278
0.0290361
0.023691
0.0175179
0.0107496
0.00362308
0.00366064
0.0107729
0.0172795
0.0228423
0.0272062
0.0302083
0.0317747
0.0319095
0.0306803
0.0282029
0.0246285
0.020133
0.0149085
0.00915721
0.00308786
0.00303082
0.00892691
0.0143413
0.0189998
0.0226884
0.0252633
0.0266502
0.0268387
0.0258726
0.0238396
0.0208605
0.0170812
0.0126646
0.00778561
0.00262647
0.00251593
0.00741531
0.0119281
0.0158305
0.018944
0.0211432
0.0223577
0.0225693
0.0218057
0.020133
0.0176482
0.0144718
0.0107418
0.00660849
0.00223022
0.00209302
0.00617214
0.00993851
0.0132089
0.0158343
0.0177067
0.0187616
0.0189771
0.0183699
0.0169902
0.0149159
0.0122466
0.00909895
0.00560147
0.00189099
0.00174433
0.00514612
0.00829329
0.0110352
0.0132475
0.0148377
0.0157482
0.015956
0.0154704
0.0143298
0.0125967
0.0103537
0.00769896
0.00474231
0.00160141
0.00145596
0.00429688
0.0069294
0.00922929
0.0110926
0.0124407
0.0132227
0.0134162
0.0130258
0.0120807
0.0106314
0.00874653
0.0065086
0.00401106
0.00135481
0.00121688
0.00359234
0.00579645
0.00772643
0.00929543
0.0104367
0.0111058
0.0112818
0.0109662
0.0101815
0.00896868
0.00738449
0.00549847
0.00338998
0.00114528
0.00101828
0.00300676
0.00485383
0.0064742
0.00779524
0.00876039
0.00933131
0.00948876
0.00923238
0.00857959
0.00756374
0.00623199
0.0046428
0.00286348
0.000967584
0.000853051
0.00251938
0.00406859
0.00542977
0.00654214
0.00735783
0.00784386
0.00798299
0.00777376
0.00722972
0.00637813
0.00525821
0.00391913
0.00241791
0.000817153
0.000715438
0.0021133
0.00341389
0.00455811
0.005495
0.00618414
0.00659725
0.00671908
0.00654758
0.00609338
0.00537882
0.00443658
0.00330803
0.00204144
0.000690016
0.000600746
0.00177476
0.00286776
0.00383038
0.00461988
0.00520209
0.00555286
0.00565883
0.00551767
0.00513779
0.00453757
0.00374429
0.00279278
0.00172386
0.000582742
0.000505134
0.00149246
0.00241214
0.00322285
0.00388867
0.00438073
0.00467843
0.00477015
0.0046535
0.00433518
0.00383036
0.00316187
0.00235903
0.00145641
0.000492382
0.000425446
0.00125714
0.00203218
0.00271591
0.00327809
0.00369431
0.00394701
0.00402613
0.00392935
0.00366204
0.00323678
0.00267271
0.00199456
0.0012316
0.000416414
0.000359089
0.00106115
0.00171562
0.00229335
0.00276884
0.00312142
0.00333611
0.00340423
0.0033236
0.00309856
0.00273959
0.00226275
0.00168897
0.00104306
0.000352691