/*--------------------------------*- C++ -*----------------------------------*\
| =========                 |                                                 |
| \\      /  F ield         | OpenFOAM: The Open Source CFD Toolbox           |
|  \\    /   O peration     | Version:  5.x                                   |
|   \\  /    A nd           | Web:      www.OpenFOAM.org                      |
|    \\/     M anipulation  |                                                 |
\*---------------------------------------------------------------------------*/
FoamFile
{
    version     2.0;
    format      ascii;
    class       volScalarField;
    location    "0.5";
    object      T;
}
// * * * * * * * * * * * * * * * * * * * * * * * * * * * * * * * * * * * * * //

dimensions      [0 0 0 1 0 0 0];

internalField   nonuniform List<scalar> 
6300
(
13.3674
20.1152
26.9014
33.7506
40.6859
47.7279
54.8943
62.1984
69.6484
77.246
84.9856
92.8536
100.828
108.879
116.968
13.3544
20.0765
26.8379
33.6638
40.5782
47.6025
54.7553
62.0511
69.499
77.1019
84.855
92.7448
100.749
108.837
116.969
13.3282
19.9982
26.7093
33.488
40.3596
47.3474
54.472
61.75
69.193
76.8058
84.5853
92.5191
100.584
108.748
116.967
13.288
19.8786
26.5127
33.2186
40.0238
46.9544
54.0339
61.2825
68.7153
76.341
84.1593
92.1595
100.318
108.6
116.956
13.2333
19.7153
26.2436
32.8491
39.5619
46.4115
53.4255
60.6292
68.0431
75.6816
83.5493
91.6388
99.9273
108.375
116.925
13.1629
19.5052
25.897
32.3716
38.9624
45.7029
52.6263
59.7641
67.1448
74.7909
82.7154
90.9168
99.3746
108.045
116.858
13.076
19.2454
25.4672
31.7772
38.2122
44.8104
51.6113
58.6546
65.9793
73.62
81.6023
89.9362
98.607
107.568
116.734
12.9716
18.9329
24.9488
31.0571
37.298
43.7143
50.3525
57.2624
64.4962
72.1055
80.1356
88.6161
97.5472
106.883
116.518
12.8491
18.5656
24.3375
30.204
36.2074
42.3952
48.8208
55.5449
62.636
70.1683
78.2163
86.8434
96.0804
105.895
116.16
12.7083
18.1426
23.6313
29.2131
34.9318
40.8374
46.9893
53.4592
60.3332
67.7135
75.716
84.4586
94.0334
104.454
115.581
12.5495
17.6652
22.8313
28.085
33.4684
39.0322
44.8389
50.968
57.5224
64.6348
72.4737
81.2394
91.1383
102.304
114.639
12.3742
17.1369
21.9435
26.8265
31.824
36.9833
42.3649
48.0504
54.1521
60.8282
68.3025
76.8849
86.974
98.9821
113.054
12.1845
16.5646
20.9788
25.4529
30.0173
34.7111
39.5861
44.7154
50.2061
56.2218
63.0214
71.0217
80.8881
93.5941
110.153
11.9836
15.958
19.954
23.9883
28.0807
32.2569
36.5522
41.018
45.7337
50.8302
56.5378
63.2906
71.9605
84.3507
103.928
11.7756
15.3294
18.8907
22.4652
26.0597
29.683
33.347
37.0696
40.8794
44.8263
49.0073
53.6408
59.3107
67.9181
86.8992
124.381
131.087
137.735
144.299
150.752
157.073
163.241
169.24
175.055
180.675
186.091
191.297
196.288
201.06
205.614
209.947
214.061
217.956
221.636
225.101
228.355
231.402
234.244
236.884
239.328
241.577
243.636
245.508
247.196
248.703
250.03
251.181
252.157
252.959
253.589
254.047
254.334
254.451
254.396
254.17
253.772
253.201
252.455
251.534
250.436
249.158
247.698
246.055
244.226
242.208
239.999
237.597
235
232.207
229.215
226.025
222.637
219.051
215.269
211.294
207.128
202.777
198.244
193.538
188.663
183.629
178.444
173.119
167.665
162.095
156.425
150.669
144.844
138.969
133.064
127.148
121.242
115.367
109.543
103.791
98.1287
92.5752
87.147
81.859
76.7247
71.7551
66.9595
62.3446
57.9147
53.6717
124.423
131.168
137.854
144.453
150.939
157.288
163.481
169.501
175.332
180.964
186.39
191.602
196.596
201.371
205.925
210.258
214.37
218.263
221.938
225.4
228.649
231.691
234.527
237.163
239.601
241.846
243.9
245.768
247.451
248.954
250.279
251.427
252.4
253.201
253.829
254.287
254.573
254.69
254.635
254.41
254.013
253.444
252.7
251.781
250.685
249.41
247.953
246.313
244.487
242.472
240.266
237.867
235.272
232.48
229.489
226.299
222.909
219.32
215.534
211.554
207.382
203.023
198.482
193.764
188.878
183.83
178.631
173.289
167.816
162.226
156.533
150.752
144.902
138.999
133.065
127.12
121.184
115.28
109.428
103.648
97.9609
92.384
86.9345
81.628
76.4779
71.4959
66.6911
62.0705
57.6384
53.3968
124.507
131.331
138.094
144.766
151.318
157.725
163.967
170.027
175.89
181.547
186.99
192.214
197.217
201.995
206.55
210.881
214.989
218.876
222.544
225.997
229.237
232.269
235.095
237.72
240.147
242.382
244.426
246.285
247.961
249.456
250.775
251.917
252.886
253.683
254.309
254.765
255.051
255.167
255.113
254.89
254.495
253.928
253.189
252.274
251.183
249.914
248.463
246.829
245.01
243.001
240.801
238.407
235.816
233.027
230.037
226.846
223.453
219.859
216.066
212.075
207.89
203.516
198.957
194.219
189.31
184.236
179.006
173.631
168.122
162.49
156.752
150.922
145.018
139.06
133.068
127.063
121.068
115.105
109.195
103.361
97.6221
91.9976
86.5054
81.1613
75.9795
70.9721
66.1487
61.5167
57.0805
52.8419
124.631
131.579
138.463
145.247
151.9
158.396
164.712
170.831
176.741
182.433
187.901
193.142
198.154
202.937
207.492
211.819
215.92
219.798
223.455
226.895
230.121
233.137
235.947
238.555
240.966
243.185
245.215
247.06
248.723
250.208
251.517
252.652
253.614
254.406
255.028
255.481
255.765
255.882
255.829
255.608
255.217
254.655
253.921
253.013
251.93
250.669
249.228
247.604
245.794
243.795
241.605
239.219
236.635
233.851
230.863
227.671
224.274
220.673
216.868
212.862
208.658
204.261
199.675
194.907
189.963
184.85
179.576
174.152
168.587
162.894
157.087
151.182
145.198
139.155
133.074
126.979
120.893
114.839
108.842
102.924
97.1067
91.4099
85.8524
80.451
75.2207
70.1744
65.3225
60.673
56.2307
51.9973
124.792
131.917
138.971
145.913
152.706
159.321
165.735
171.932
177.901
183.636
189.134
194.393
199.416
204.203
208.756
213.077
217.168
221.033
224.675
228.096
231.301
234.295
237.083
239.668
242.057
244.254
246.264
248.091
249.737
251.207
252.503
253.627
254.581
255.366
255.983
256.433
256.715
256.832
256.781
256.563
256.177
255.621
254.895
253.996
252.924
251.674
250.246
248.636
246.84
244.855
242.678
240.305
237.732
234.955
231.971
228.779
225.377
221.766
217.945
213.919
209.69
205.262
200.641
195.833
190.843
185.68
180.349
174.859
169.221
163.446
157.547
151.542
145.449
139.29
133.087
126.868
120.656
114.479
108.363
102.33
96.4058
90.6105
84.964
79.4844
74.1876
69.0877
64.1966
59.5232
55.0729
50.8476
124.988
132.354
139.638
146.79
153.765
160.532
167.067
173.357
179.394
185.176
190.704
195.982
201.013
205.801
210.349
214.66
218.738
222.585
226.205
229.602
232.781
235.746
238.503
241.059
243.419
245.588
247.571
249.374
251
252.451
253.732
254.842
255.785
256.562
257.172
257.618
257.899
258.015
257.967
257.753
257.373
256.825
256.109
255.222
254.163
252.929
251.517
249.925
248.148
246.183
244.024
241.668
239.11
236.344
233.367
230.177
226.77
223.146
219.307
215.254
210.993
206.527
201.863
197.005
191.961
186.735
181.334
175.765
170.037
164.16
158.146
152.013
145.78
139.471
133.112
126.731
120.357
114.02
107.749
101.57
95.5077
89.586
83.8253
78.2447
72.8617
67.692
62.7493
58.0444
53.5842
49.3708
125.217
132.905
140.493
147.915
155.12
162.072
168.749
175.141
181.249
187.076
192.631
197.921
202.955
207.739
212.277
216.574
220.634
224.458
228.052
231.418
234.562
237.49
240.21
242.727
245.049
247.183
249.134
250.907
252.507
253.937
255.198
256.293
257.223
257.99
258.593
259.034
259.313
259.429
259.383
259.175
258.802
258.265
257.561
256.689
255.646
254.431
253.04
251.47
249.718
247.778
245.644
243.312
240.775
238.026
235.06
231.873
228.461
224.823
220.961
216.877
212.577
208.065
203.348
198.432
193.324
188.027
182.546
176.886
171.053
165.055
158.903
152.613
146.207
139.711
133.154
126.57
119.992
113.455
106.99
100.628
94.3967
88.3191
82.4173
76.7112
71.2197
65.961
60.9517
56.206
51.7334
47.5371
125.477
133.596
141.583
149.35
156.836
164.003
170.835
177.331
183.503
189.365
194.934
200.226
205.253
210.025
214.548
218.826
222.863
226.66
230.22
233.548
236.649
239.531
242.201
244.67
246.945
249.035
250.946
252.685
254.254
255.658
256.898
257.975
258.891
259.647
260.242
260.677
260.954
261.07
261.028
260.826
260.462
259.937
259.247
258.392
257.369
256.177
254.812
253.27
251.548
249.641
247.541
245.241
242.734
240.009
237.061
233.881
230.465
226.811
222.922
218.799
214.45
209.883
205.104
200.122
194.942
189.568
184.001
178.242
172.292
166.156
159.842
153.366
146.75
140.023
133.222
126.386
119.555
112.771
106.071
99.4885
93.0528
86.7885
80.7174
74.8592
69.234
63.8626
58.767
53.9672
49.4783
45.3061
125.77
134.473
142.985
151.187
159.007
166.412
173.399
179.985
186.198
192.07
197.631
202.906
207.912
212.663
217.166
221.421
225.432
229.196
232.717
235.998
239.046
241.869
244.479
246.886
249.103
251.139
253.003
254.7
256.234
257.609
258.826
259.884
260.785
261.528
262.114
262.544
262.817
262.935
262.896
262.701
262.349
261.837
261.164
260.329
259.329
258.163
256.828
255.32
253.637
251.771
249.714
247.459
244.993
242.304
239.382
236.215
232.798
229.127
225.203
221.032
216.624
211.989
207.138
202.081
196.825
191.37
185.715
179.854
173.783
167.496
160.998
154.303
147.435
140.428
133.326
126.178
119.037
111.952
104.969
98.1248
91.45
84.9688
78.7005
72.6622
66.8735
61.359
56.1485
51.2735
46.7609
42.6221
126.11
135.621
144.828
153.57
161.772
169.419
176.536
183.17
189.379
195.218
200.735
205.966
210.935
215.655
220.132
224.365
228.348
232.078
235.554
238.779
241.761
244.51
247.042
249.372
251.515
253.486
255.293
256.943
258.439
259.783
260.975
262.014
262.899
263.63
264.206
264.629
264.899
265.017
264.983
264.797
264.457
263.961
263.308
262.495
261.521
260.384
259.083
257.616
255.978
254.164
252.165
249.969
247.561
244.924
242.042
238.898
235.483
231.791
227.825
223.593
219.108
214.389
209.452
204.312
198.974
193.442
187.706
181.754
175.564
169.121
162.421
155.472
148.302
140.952
133.477
125.944
118.421
110.973
103.653
96.5031
89.5556
82.8306
76.3409
70.0954
64.1086
58.4091
53.0386
48.0509
43.4987
39.4066
126.533
137.204
147.336
156.728
165.332
173.184
180.363
186.963
193.086
198.825
204.246
209.399
214.309
218.991
223.445
227.661
231.624
235.321
238.747
241.905
244.804
247.459
249.889
252.119
254.172
256.063
257.804
259.401
260.857
262.171
263.34
264.361
265.23
265.948
266.513
266.928
267.194
267.312
267.284
267.108
266.783
266.306
265.674
264.886
263.938
262.833
261.569
260.147
258.564
256.814
254.888
252.772
250.447
247.887
245.065
241.958
238.552
234.837
230.816
226.501
221.914
217.086
212.043
206.807
201.388
195.787
189.992
183.975
177.691
171.099
164.182
156.941
149.41
141.636
133.697
125.679
117.683
109.793
102.076
94.5769
87.328
80.3413
73.6186
67.1458
60.9207
54.9767
49.37
44.1942
39.5676
35.544
127.156
139.558
150.905
161.014
169.971
177.915
185.019
191.437
197.342
202.883
208.14
213.174
218.006
222.652
227.095
231.318
235.275
238.948
242.32
245.4
248.193
250.725
253.02
255.118
257.055
258.85
260.517
262.057
263.474
264.761
265.913
266.92
267.776
268.479
269.031
269.435
269.695
269.813
269.79
269.627
269.321
268.866
268.26
267.497
266.577
265.501
264.276
262.902
261.381
259.707
257.875
255.867
253.662
251.217
248.485
245.439
242.051
238.312
234.215
229.786
225.051
220.077
214.896
209.55
204.045
198.396
192.579
186.562
180.245
173.528
166.39
158.812
150.849
142.542
134.013
125.365
116.78
108.349
100.173
92.2783
84.7116
77.4616
70.527
63.831
57.32
51.0514
45.0749
39.541
34.7632
30.8531
128.376
143.429
156.254
166.954
176.066
183.847
190.659
196.645
202.117
207.344
212.347
217.237
221.963
226.599
231.053
235.354
239.33
243.004
246.309
249.299
251.953
254.328
256.43
258.341
260.138
261.817
263.407
264.886
266.273
267.539
268.692
269.689
270.537
271.221
271.758
272.145
272.395
272.51
272.494
272.347
272.066
271.639
271.064
270.327
269.434
268.377
267.189
265.859
264.41
262.819
261.105
259.235
257.212
254.947
252.346
249.401
246.039
242.288
238.079
233.496
228.516
223.348
217.967
212.504
206.888
201.229
195.434
189.56
183.351
176.545
169.208
161.218
152.762
143.749
134.479
124.945
115.635
106.521
97.8483
89.4933
81.6254
74.1154
67.0801
60.2398
53.361
46.6976
40.1351
33.7927
28.7038
25.028
131.774
150.502
164.659
175.177
184.071
191.169
197.482
202.587
207.24
212.121
216.711
221.53
226.044
230.8
235.229
239.849
243.813
247.586
250.743
253.679
256.109
258.32
260.109
261.722
263.385
264.908
266.452
267.842
269.239
270.475
271.691
272.67
273.526
274.173
274.693
275.048
275.284
275.389
275.38
275.256
275.014
274.62
274.095
273.374
272.519
271.434
270.297
268.981
267.634
266.1
264.549
262.815
261.098
259.149
256.693
253.948
250.577
246.908
242.464
237.764
232.233
226.909
221.136
215.659
209.773
204.236
198.38
193.02
187.297
180.304
172.945
164.275
155.456
145.307
135.307
124.183
114.191
104.04
95.0518
85.9931
78.0109
70.074
63.3421
56.6945
49.0836
42.1913
34.8725
26.2342
20.6053
17.5311
144.65
164.156
178.297
185.734
194.655
199.619
206.036
209.175
212.029
217.313
220.738
226.255
229.769
235.468
239.125
245.284
248.565
253.049
255.491
258.782
260.574
262.914
264.034
265.025
266.831
267.961
269.715
270.784
272.433
273.436
275.025
275.823
276.812
277.301
277.862
278.118
278.355
278.429
278.424
278.332
278.173
277.784
277.404
276.607
275.931
274.557
273.656
272.139
271.117
269.396
268.249
266.362
265.305
264.072
261.442
259.387
255.529
252.631
247.2
243.215
235.633
231.098
223.861
219.382
212.133
207.681
200.591
196.98
193.047
184.57
178.544
167.525
160.042
146.628
137.733
121.77
112.956
99.8694
92.3406
80.9279
74.3183
64.2854
59.4722
54.5267
43.7631
38.2923
31.5038
14.3384
8.8248
7.38597
49.2092
44.6044
40.2535
36.1431
32.2569
28.5764
25.0818
21.7524
18.5675
15.5063
12.5485
9.67446
6.86479
4.10074
1.3639
48.9395
44.3449
40.0078
35.9143
32.047
28.3869
24.9133
21.6052
18.4413
15.4008
12.4633
9.60881
6.81829
4.073
1.35468
48.3956
43.822
39.5135
35.4544
31.6259
28.0071
24.5761
21.3109
18.1895
15.1904
12.2932
9.47802
6.72568
4.01777
1.33633
47.5686
43.0282
38.7647
34.7595
30.9909
27.4358
24.0701
20.8701
17.8128
14.8763
12.0397
9.28312
6.58777
3.93557
1.30902
46.4446
41.9521
37.7526
33.8233
30.1386
26.6715
23.3951
20.2838
17.3131
14.4604
11.7045
9.0258
6.40586
3.8272
1.27303
45.004
40.5775
36.4653
32.6382
29.0647
25.7129
22.5522
19.5542
16.6932
13.9457
11.2906
8.70857
6.18186
3.69385
1.22876
43.2202
38.8836
34.888
31.1953
27.7653
24.5598
21.5435
18.6852
15.9576
13.3369
10.8022
8.33489
5.91834
3.53712
1.17674
41.0581
36.8437
33.0036
29.4855
26.238
23.2143
20.3739
17.6829
15.113
12.6403
10.2448
7.9094
5.61873
3.35908
1.11769
38.4708
34.4248
30.7928
27.5014
24.4835
21.6824
19.0524
16.5574
14.1691
11.8648
9.62622
7.4381
5.28735
3.16236
1.05246
35.3954
31.5871
28.2372
25.2403
22.509
19.9765
17.5933
15.323
13.1393
11.022
8.95585
6.92846
4.92953
2.95012
0.982122
31.7475
28.2866
25.3246
22.71
20.3328
18.1188
16.0188
14.0002
12.0412
10.1267
8.24555
6.38943
4.55153
2.72608
0.907899
27.4149
24.4835
22.0614
19.9391
17.9908
16.1447
14.3607
12.6159
10.8972
9.19659
7.50914
5.83132
4.16048
2.49443
0.831168
22.2589
20.1675
18.4954
16.9915
15.544
14.1065
12.6615
11.2039
9.73349
8.25216
6.7621
5.26545
3.7641
2.25964
0.753404
16.1705
15.4292
14.7587
13.9853
13.0852
12.0739
10.9732
9.80302
8.57947
7.31536
6.02074
4.70359
3.37034
2.02632
0.676111
9.33678
10.6179
11.1229
11.1037
10.7358
10.129
9.35297
8.45422
7.46486
6.40808
5.3011
4.1572
2.9869
1.79891
0.600743
11.5827
14.7461
17.9035
21.0503
24.1803
27.2855
30.3545
33.3696
36.3032
39.1069
41.6885
43.8438
45.0209
43.344
30.9355
11.4086
14.2199
17.0134
19.7753
22.4886
25.1309
27.6708
30.0622
32.2325
34.0609
35.3304
35.616
34.0113
28.4555
14.4078
11.2384
13.706
16.1451
18.5339
20.846
23.047
25.09
26.9078
28.3987
29.4026
29.6548
28.7004
25.7448
19.4636
8.13538
11.0746
13.2117
15.3115
17.3456
19.2802
21.0724
22.6653
23.9799
24.9026
25.2658
24.8166
23.1739
19.7874
13.9761
5.29513
10.9193
12.7434
14.5233
16.2261
17.813
19.2361
20.4336
21.3237
21.7947
21.6927
20.8068
18.858
15.5136
10.4813
3.78067
10.7739
12.3056
13.7887
15.187
16.4594
17.556
18.4152
18.9583
19.0843
18.6637
17.5349
15.5111
12.4115
8.14474
2.86387
10.6395
11.9017
13.1127
14.2353
15.2276
16.0407
16.616
16.8824
16.7533
16.126
14.8842
12.911
10.1198
6.51232
2.25736
10.5168
11.5333
12.498
13.3739
14.1201
14.6903
15.0312
15.0807
14.7681
14.0149
12.7412
10.8787
8.3949
5.32939
1.83121
10.4058
11.2008
11.9449
12.6024
13.1346
13.4991
13.6485
13.5305
13.0886
12.2651
11.0069
9.2776
7.07383
4.44685
1.51908
10.3065
10.9035
11.4518
11.9178
12.2656
12.4571
12.4513
12.205
11.674
10.8168
9.59974
8.00587
6.04655
3.77312
1.28358
10.2183
10.6399
11.0159
11.3151
11.505
11.552
11.421
11.077
10.4859
9.61843
8.45407
6.9878
5.23733
3.24941
1.10196
10.1407
10.408
10.6333
10.7882
10.8436
10.7702
10.5386
10.1203
9.48965
8.62605
7.51794
6.16703
4.59293
2.83644
0.959542
10.0726
10.2052
10.2996
10.3303
10.2716
10.0983
9.78573
9.31113
8.65502
7.80339
6.75033
5.50116
4.07514
2.50704
0.84641
10.0135
10.0289
10.0101
9.93437
9.77923
9.523
9.14528
8.62787
7.9561
7.12051
6.11884
4.95805
3.65596
2.24189
0.75562
9.9622
9.87643
9.7602
9.59352
9.35694
9.032
8.60176
8.05173
7.37087
6.5529
5.59779
4.513
3.3145
2.02685
0.682161
9.91801
9.74506
9.54527
9.30117
8.99598
8.61405
8.14138
7.5664
6.88078
6.08048
5.16673
4.14688
3.03493
1.85138
0.622334
9.88006
9.6323
9.36108
9.05121
8.68828
8.25907
7.752
7.15783
6.47028
5.6868
4.8093
3.84468
2.80505
1.70751
0.573348
9.84756
9.53583
9.2037
8.83806
8.42658
7.9581
7.42308
6.81407
6.12634
5.35837
4.51235
3.59454
2.61535
1.58905
0.533062
9.81982
9.45352
9.06958
8.65672
8.20444
7.70332
7.14549
6.52495
5.8381
5.0841
4.26521
3.387
2.45836
1.49119
0.499812
9.79619
9.38345
8.95552
8.50274
8.01617
7.48791
6.91141
6.28185
5.59647
4.85486
4.05923
3.21447
2.32812
1.41012
0.472289
9.7761
9.32392
8.85871
8.37222
7.85685
7.30597
6.71415
6.07748
5.39385
4.66313
3.88736
3.0708
2.21985
1.3428
0.44945
9.75906
9.27344
8.77667
8.26172
7.72217
7.15243
6.54801
5.90571
5.22391
4.50265
3.74379
2.951
2.1297
1.28681
0.430461
9.74463
9.23069
8.70724
8.1683
7.60845
7.02297
6.40814
5.76137
5.08136
4.36827
3.62376
2.85099
2.05452
1.24016
0.414647
9.73242
9.19453
8.64855
8.08941
7.5125
6.91389
6.29045
5.64008
4.96176
4.25569
3.52335
2.76742
1.99176
1.20124
0.401459
9.7221
9.16399
8.599
8.02284
7.43161
6.82202
6.19146
5.53819
4.86141
4.16136
3.4393
2.69754
1.93933
1.16874
0.390449
9.71339
9.13821
8.5572
7.96672
7.36348
6.74471
6.10823
5.45261
4.77722
4.08229
3.36892
2.63908
1.89549
1.14158
0.381251
9.70605
9.11649
8.52198
7.91945
7.30613
6.67968
6.03828
5.38076
4.7066
4.01602
3.30999
2.59015
1.85883
1.11887
0.373562
9.69987
9.09819
8.49233
7.87967
7.25789
6.62501
5.97953
5.32044
4.64736
3.96048
3.26062
2.5492
1.82815
1.09988
0.367132
9.69466
9.0828
8.46739
7.84623
7.21735
6.5791
5.93021
5.26985
4.5977
3.91395
3.21929
2.51492
1.80248
1.08399
0.361754
9.69029
9.06986
8.44643
7.81814
7.18332
6.54058
5.88884
5.22744
4.5561
3.87498
3.18469
2.48624
1.78102
1.07071
0.357259
9.68662
9.05901
8.42886
7.79459
7.15479
6.50829
5.85419
5.19193
4.52127
3.84238
3.15576
2.46227
1.76307
1.05961
0.353502
9.68355
9.04992
8.41414
7.77486
7.13091
6.48127
5.82521
5.16223
4.49217
3.81514
3.13159
2.44225
1.7481
1.05035
0.350367
9.68098
9.04233
8.40184
7.75839
7.11096
6.45872
5.80102
5.13746
4.46789
3.79243
3.11145
2.42557
1.73562
1.04263
0.347755
9.67884
9.036
8.3916
7.74468
7.09437
6.43995
5.78089
5.11686
4.44771
3.77355
3.09471
2.41171
1.72525
1.03622
0.345586
9.67707
9.03076
8.38312
7.73332
7.08061
6.42441
5.76423
5.0998
4.431
3.75793
3.08086
2.40024
1.71668
1.03091
0.343792
9.67561
9.02645
8.37614
7.72396
7.0693
6.41161
5.75052
5.08576
4.41726
3.74508
3.06947
2.39081
1.70963
1.02656
0.342317
9.67442
9.02293
8.37044
7.71634
7.06007
6.40119
5.73935
5.07433
4.40607
3.73462
3.0602
2.38314
1.70389
1.02301
0.341117
9.67347
9.02011
8.36587
7.71022
7.05267
6.39282
5.73038
5.06515
4.39708
3.72622
3.05276
2.37698
1.69928
1.02016
0.340154
9.67272
9.01789
8.36228
7.70541
7.04685
6.38625
5.72334
5.05795
4.39003
3.71963
3.04692
2.37215
1.69567
1.01793
0.339398
9.67215
9.01621
8.35957
7.70178
7.04246
6.38128
5.71802
5.05251
4.38471
3.71466
3.04251
2.36849
1.69294
1.01624
0.338827
9.67175
9.01503
8.35765
7.69921
7.03935
6.37777
5.71425
5.04866
4.38094
3.71113
3.03938
2.36591
1.69101
1.01505
0.338424
9.6715
9.01429
8.35646
7.69762
7.03743
6.3756
5.71193
5.04628
4.37861
3.70896
3.03746
2.36432
1.68982
1.01431
0.338175
9.6714
9.01399
8.35598
7.69697
7.03665
6.37472
5.71098
5.04531
4.37766
3.70807
3.03667
2.36367
1.68934
1.01401
0.338073
9.67144
9.01412
8.35618
7.69724
7.03697
6.37509
5.71138
5.04572
4.37806
3.70844
3.037
2.36394
1.68954
1.01414
0.338115
9.67163
9.01467
8.35707
7.69844
7.03842
6.37672
5.71313
5.04751
4.37981
3.71008
3.03845
2.36514
1.69043
1.01469
0.338302
9.67197
9.01567
8.35869
7.7006
7.04103
6.37967
5.71629
5.05074
4.38297
3.71303
3.04107
2.3673
1.69205
1.01569
0.338641
9.67246
9.01714
8.36107
7.70378
7.04488
6.38402
5.72095
5.05551
4.38764
3.71739
3.04493
2.3705
1.69444
1.01717
0.339141
9.67314
9.01913
8.36429
7.70809
7.0501
6.38991
5.72726
5.06196
4.39396
3.7233
3.05016
2.37483
1.69768
1.01917
0.339817
9.674
9.0217
8.36844
7.71366
7.05683
6.39752
5.73541
5.0703
4.40211
3.73092
3.05691
2.38042
1.70185
1.02175
0.340691
9.6751
9.02492
8.37366
7.72064
7.06528
6.40706
5.74564
5.08076
4.41236
3.74049
3.0654
2.38744
1.7071
1.02499
0.341789
9.67644
9.02889
8.38009
7.72926
7.0757
6.41884
5.75826
5.09368
4.425
3.75231
3.07587
2.3961
1.71358
1.029
0.343144
9.67808
9.03374
8.38794
7.73976
7.08841
6.43321
5.77366
5.10943
4.44043
3.76673
3.08865
2.40668
1.72149
1.03389
0.344799
9.68006
9.03961
8.39743
7.75248
7.10379
6.4506
5.79229
5.12851
4.45911
3.7842
3.10414
2.4195
1.73108
1.03982
0.346804
9.68245
9.04666
8.40886
7.76778
7.12231
6.47153
5.81473
5.15148
4.48161
3.80524
3.12279
2.43495
1.74263
1.04696
0.34922
9.68531
9.05512
8.42255
7.78612
7.14451
6.49664
5.84166
5.17905
4.50861
3.8305
3.14519
2.4535
1.7565
1.05554
0.352124
9.68873
9.06523
8.43892
7.80805
7.17107
6.52667
5.87387
5.21205
4.54095
3.86076
3.17203
2.47572
1.77313
1.06582
0.355604
9.69281
9.0773
8.45846
7.83423
7.20277
6.56254
5.91236
5.25147
4.5796
3.89693
3.20413
2.50232
1.79303
1.07813
0.359769
9.69766
9.09167
8.48174
7.86543
7.24057
6.60531
5.95827
5.29853
4.62575
3.94014
3.24248
2.5341
1.81681
1.09285
0.364749
9.70345
9.10877
8.50944
7.90257
7.28557
6.65626
6.01298
5.35464
4.6808
3.99171
3.28827
2.57206
1.84523
1.11043
0.370702
9.71032
9.12909
8.54237
7.94674
7.33912
6.71692
6.07815
5.4215
4.74644
4.05323
3.34293
2.61739
1.87918
1.13145
0.377815
9.71847
9.15323
8.5815
7.99923
7.40278
6.78907
6.15572
5.50115
4.82469
4.12661
3.40816
2.67152
1.91973
1.15655
0.386316
9.72815
9.18187
8.62793
8.06155
7.47842
6.87486
6.24802
5.59599
4.91793
4.21412
3.48601
2.73616
1.96818
1.18656
0.396478
9.73962
9.21583
8.683
8.13551
7.56823
6.9768
6.3578
5.7089
5.02904
4.31851
3.57894
2.81338
2.0261
1.22245
0.408633
9.75321
9.25604
8.74826
8.2232
7.6748
7.09788
6.48832
5.84329
5.16145
4.44303
3.68993
2.90568
2.09537
1.26539
0.423182
9.76928
9.30362
8.82551
8.32708
7.80117
7.24161
6.64345
6.00324
5.31925
4.59163
3.82252
3.01608
2.17829
1.31683
0.440614
9.78826
9.35986
8.91685
8.45002
7.9509
7.41214
6.82777
6.19357
5.50732
4.76901
3.98104
3.14821
2.27765
1.37851
0.461523
9.81066
9.42623
9.02474
8.59537
8.12814
7.6143
7.04667
6.42004
5.73152
4.98086
4.17068
3.30654
2.39685
1.45256
0.48664
9.83704
9.50444
9.15197
8.76698
8.33773
7.8538
7.30652
6.68945
5.99883
5.23402
4.39777
3.49648
2.54006
1.54163
0.516865
9.86806
9.59643
9.30177
8.96932
8.58528
8.13726
7.6148
7.00991
6.31765
5.53674
4.67001
3.72469
2.71243
1.64896
0.553314
9.90445
9.70442
9.4778
9.20745
8.87721
8.47239
7.9803
7.39099
6.69799
5.89904
4.9968
3.99936
2.92035
1.77864
0.597383
9.94703
9.83086
9.68416
9.48714
9.22092
8.86807
8.41325
7.84404
7.15186
6.33301
5.38966
4.33063
3.17179
1.93575
0.650831
9.99671
9.97849
9.92545
9.81485
9.62474
9.33451
8.9256
8.38244
7.69365
6.8534
5.8628
4.73118
3.4768
2.12679
0.715902
10.0545
10.1503
10.2067
10.1977
10.098
9.88331
9.53111
9.0219
8.34056
7.47812
6.43382
5.21693
3.8482
2.36009
0.795487
10.1214
10.3494
10.5333
10.6436
10.6512
10.5275
10.2456
9.78082
9.11314
8.22908
7.12462
5.80807
4.30245
2.64649
0.893377
10.1985
10.5792
10.9109
11.1607
11.2953
11.2816
11.0869
10.6806
10.0359
9.133
7.96263
6.53045
4.86105
3.00032
1.01462
10.2869
10.8429
11.3454
11.7577
12.0425
12.1612
12.0751
11.7457
11.1379
10.2226
8.98237
7.41749
5.55245
3.44091
1.16608
10.3877
11.1439
11.8423
12.4432
12.9048
13.1831
13.232
13.0042
12.4532
11.5376
10.2275
8.51289
6.41497
3.99486
1.35734
10.5017
11.4849
12.407
13.2254
13.8943
14.3641
14.581
14.4869
14.0216
13.1266
11.7532
9.87441
7.50114
4.69974
1.60215
10.6297
11.8682
13.0437
14.1112
15.0218
15.7207
16.1458
16.2273
15.8881
15.0476
13.6299
11.5791
8.88451
5.61023
1.92105
10.772
12.2953
13.7552
15.106
16.2963
17.2672
17.949
18.2596
18.1026
17.3694
15.9458
13.7309
10.6703
6.80878
2.34611
10.9288
12.7664
14.5425
16.2119
17.723
19.0141
20.0098
20.6163
20.717
20.1702
18.8112
16.4697
13.0121
8.42469
2.93056
11.0995
13.2801
15.4037
17.4277
19.3023
20.9661
22.3406
23.3239
23.7809
23.5347
22.3586
19.9833
16.1383
10.6701
3.76981
11.2831
13.8333
16.3338
18.7471
21.0278
23.1185
24.9429
26.3965
27.3329
27.5445
26.7386
24.5172
20.3913
13.91
5.05296
11.4778
14.4208
17.3244
20.1583
22.8851
25.4557
27.8024
29.828
31.3879
32.2605
32.101
30.3733
26.2798
18.7993
7.2033
11.6813
15.0355
18.3633
21.6437
24.8505
27.9479
30.8844
33.5825
35.9196
37.6927
38.552
37.8717
34.52
26.5462
11.3053
11.8907
15.6685
19.4348
23.1801
26.8917
30.5515
34.1316
37.5873
40.8423
43.759
46.0714
47.2246
45.9693
39.3393
20.5251
12.1026
16.3094
20.5207
24.7395
28.9685
33.2099
37.4647
41.7308
45.9993
50.2443
54.3951
58.2491
61.1503
60.5929
45.1861
12.3134
16.947
21.6012
26.2915
31.0363
35.8586
40.7894
45.8721
51.1719
56.794
62.9238
69.9344
78.7318
92.1575
121.905
12.5195
17.5702
22.6565
27.8055
33.0498
38.4316
44.008
49.8618
56.1199
62.9901
70.8399
80.3775
93.098
112.385
145.756
12.7175
18.1684
23.6679
29.2528
34.9676
40.8688
47.0333
53.5699
60.6418
68.5049
77.5826
88.6089
102.902
122.832
152.377
3.84772
6.91775
8.26919
8.78041
8.79992
8.49994
7.97914
7.29982
6.50403
5.62162
4.67463
3.68002
2.65126
1.59955
0.534625
2.06935
4.74673
6.2576
7.00897
7.26107
7.17154
6.83953
6.33056
5.6901
4.95096
4.13775
3.26958
2.36182
1.42736
0.477468
1.30559
3.38532
4.77285
5.58359
5.95876
6.01087
5.82215
5.45204
4.94416
4.33128
3.63866
2.88632
2.0907
1.26574
0.423771
0.910746
2.5043
3.68817
4.46016
4.88022
5.01689
4.93019
4.66866
4.27067
3.76657
3.18068
2.53286
1.83977
1.11581
0.373903
0.67411
1.90753
2.88917
3.58071
3.99803
4.17754
4.15916
3.97961
3.67047
3.25831
2.7654
2.21059
1.6101
0.978252
0.328092
0.517131
1.48544
2.29136
2.89134
3.2806
3.47521
3.49968
3.38017
3.14146
2.80582
2.39286
1.91983
1.40204
0.853316
0.286434
0.405901
1.17597
1.83635
2.34803
2.69803
2.89072
2.93984
2.86319
2.67947
2.40675
2.0618
1.65997
1.21534
0.740908
0.248904
0.323611
0.94258
1.48441
1.91677
2.22447
2.40564
2.46706
2.42029
2.27904
2.05761
1.77003
1.42968
1.04922
0.64063
0.215382
0.260911
0.762664
1.20836
1.5719
1.83855
2.00349
2.06918
2.04277
1.93407
1.75422
1.51474
1.22711
0.902529
0.551861
0.185671
0.212121
0.621604
0.989251
1.29416
1.52309
1.67008
1.73506
1.72218
1.63834
1.49206
1.29274
1.05008
0.773869
0.473817
0.159518
0.17356
0.509538
0.813617
1.06905
1.26437
1.39346
1.45485
1.45071
1.38579
1.26661
1.1007
0.896246
0.661692
0.405621
0.136641
0.142719
0.419574
0.671684
0.885589
1.05153
1.16372
1.22001
1.2213
1.17081
1.07347
0.935337
0.763227
0.564395
0.34635
0.116737
0.117823
0.346753
0.556219
0.735346
0.875921
0.972688
1.02325
1.02772
0.988248
0.908547
0.793476
0.648693
0.480385
0.295079
0.0995041
0.0975796
0.287417
0.461767
0.611804
0.730645
0.813645
0.858401
0.864562
0.833526
0.7681
0.672173
0.550432
0.408132
0.25091
0.0846458
0.0810226
0.238807
0.384154
0.509865
0.610188
0.681081
0.720267
0.727149
0.702606
0.648761
0.568731
0.466395
0.346202
0.212995
0.0718821
0.0674166
0.19881
0.320139
0.425506
0.51011
0.570468
0.604498
0.611487
0.591965
0.547543
0.480722
0.394715
0.293275
0.18055
0.0609524
0.056193
0.165783
0.267176
0.355525
0.42682
0.478082
0.507449
0.514175
0.498559
0.461826
0.405992
0.333714
0.248157
0.15286
0.0516192
0.0469055
0.138431
0.223247
0.297353
0.357401
0.400854
0.426073
0.432329
0.419769
0.38933
0.34264
0.281901
0.209778
0.129283
0.0436682
0.0392008
0.115725
0.186733
0.248914
0.29947
0.33625
0.357823
0.363509
0.353354
0.328082
0.28901
0.237967
0.177194
0.109247
0.0369087
0.0327956
0.0968393
0.15633
0.208523
0.251078
0.282173
0.300571
0.305653
0.297404
0.276384
0.243666
0.200768
0.149574
0.0922519
0.0311726
0.0274619
0.0811057
0.13098
0.174804
0.210619
0.236885
0.252538
0.257024
0.250294
0.232783
0.205367
0.16931
0.126195
0.0778566
0.0263124
0.0230145
0.0679816
0.10982
0.14663
0.176771
0.198943
0.212237
0.21616
0.210646
0.196037
0.17305
0.142738
0.10643
0.0656802
0.0222003
0.0193021
0.0570234
0.092142
0.123072
0.14844
0.167149
0.178421
0.181828
0.177294
0.165089
0.145804
0.120315
0.0897404
0.0553931
0.0187254
0.0162009
0.047867
0.0773634
0.103365
0.12472
0.140502
0.150051
0.152993
0.149252
0.139043
0.122852
0.101411
0.075662
0.0467121
0.0157923
0.013609
0.0402127
0.0650043
0.0868747
0.104857
0.118171
0.126253
0.128784
0.125687
0.117137
0.103534
0.0854907
0.0637989
0.0393946
0.0133196
0.0114423
0.033813
0.0546674
0.0730761
0.0882265
0.0994601
0.1063
0.108469
0.105899
0.0987275
0.0872889
0.0720955
0.0538135
0.0332334
0.0112372
0.0096312
0.028463
0.0460237
0.061533
0.0743075
0.0837912
0.0895796
0.0914353
0.0892955
0.0832722
0.0736432
0.0608383
0.0454187
0.0280524
0.00948594
0.00811822
0.0239931
0.0388001
0.0518832
0.0626665
0.0706805
0.0755818
0.0771672
0.0753805
0.0703127
0.0621958
0.0513909
0.0383714
0.0237021
0.00801531
0.00685558
0.0202623
0.0327699
0.0438254
0.0529428
0.0597246
0.0638795
0.0652335
0.0637369
0.059464
0.0526092
0.0434766
0.0324662
0.0200562
0.00678266
0.00580369
0.017154
0.027745
0.0371094
0.0448358
0.0505873
0.0541161
0.0552733
0.054015
0.0504027
0.0445995
0.0368623
0.0275298
0.0170079
0.00575201
0.00492974
0.0145714
0.0235694
0.0315273
0.038096
0.0429888
0.0459944
0.0469853
0.0459228
0.042858
0.0379285
0.0313522
0.0234169
0.0144678
0.00489312
0.00420662
0.0124343
0.0201138
0.0269071
0.0325164
0.0366969
0.0392676
0.0401189
0.0392168
0.0366041
0.0323977