/*--------------------------------*- C++ -*----------------------------------*\
| =========                 |                                                 |
| \\      /  F ield         | OpenFOAM: The Open Source CFD Toolbox           |
|  \\    /   O peration     | Version:  5.x                                   |
|   \\  /    A nd           | Web:      www.OpenFOAM.org                      |
|    \\/     M anipulation  |                                                 |
\*---------------------------------------------------------------------------*/
FoamFile
{
    version     2.0;
    format      ascii;
    class       volScalarField;
    location    "2.1";
    object      gradTx;
}
// * * * * * * * * * * * * * * * * * * * * * * * * * * * * * * * * * * * * * //

dimensions      [0 -1 0 1 0 0 0];

internalField   nonuniform List<scalar> 
3200
(
0.0105495
-0.000555739
-0.00120672
-0.00123172
-0.00105471
-0.00103263
-0.000758101
-0.000735559
-0.000545903
-0.000839539
-0.000389236
-0.000279263
-0.000268205
-0.00020494
-0.000199139
-0.000154019
-0.000149908
-0.000116624
-0.000113577
-8.86153e-05
-8.63213e-05
-6.74165e-05
-6.56752e-05
-5.12761e-05
-4.99483e-05
-3.89486e-05
-3.79339e-05
-2.95219e-05
-2.8746e-05
-2.2314e-05
-2.17211e-05
-1.68084e-05
-1.63559e-05
-1.26103e-05
-1.22655e-05
-9.41619e-06
-9.15426e-06
-6.99258e-06
-6.79412e-06
-5.15932e-06
-5.00946e-06
-3.77762e-06
-3.6649e-06
-2.7407e-06
-2.65633e-06
-1.96658e-06
-1.90396e-06
-1.39328e-06
-1.35053e-06
-9.98742e-07
-1.50968e-06
-6.81612e-07
-4.49122e-07
-4.26079e-07
-2.8735e-07
-2.7494e-07
-1.80839e-07
-1.72635e-07
-1.10338e-07
-1.04986e-07
-6.51889e-08
-6.18158e-08
-3.73339e-08
-3.52844e-08
-2.07583e-08
-1.9555e-08
-1.12087e-08
-1.05231e-08
-5.85391e-09
-5.47256e-09
-2.91278e-09
-2.69942e-09
-1.21392e-09
-1.09364e-09
-2.89823e-10
-2.35632e-10
-1.53446e-11
-2.81271e-12
-6.36631e-13
1.45166e-10
0.0105081
-0.000590762
-0.00114301
-0.00120106
-0.00106141
-0.00101145
-0.000779154
-0.000728292
-0.000583011
-0.000774292
-0.000415379
-0.00029346
-0.000266329
-0.000210147
-0.000196616
-0.000157478
-0.000147952
-0.000119149
-0.000112092
-9.05014e-05
-8.51905e-05
-6.8842e-05
-6.48111e-05
-5.23606e-05
-4.92871e-05
-3.97767e-05
-3.7428e-05
-3.01551e-05
-2.83592e-05
-2.27983e-05
-2.14258e-05
-1.71785e-05
-1.61309e-05
-1.28926e-05
-1.20947e-05
-9.63113e-06
-9.0248e-06
-7.15579e-06
-6.69639e-06
-5.28287e-06
-4.93597e-06
-3.87083e-06
-3.6099e-06
-2.81074e-06
-2.61543e-06
-2.01905e-06
-1.8742e-06
-1.4342e-06
-1.33702e-06
-1.06467e-06
-1.39187e-06
-7.27331e-07
-4.77425e-07
-4.213e-07
-2.98739e-07
-2.69828e-07
-1.8823e-07
-1.69219e-07
-1.15255e-07
-1.02854e-07
-6.83592e-08
-6.05413e-08
-3.93023e-08
-3.45502e-08
-2.19362e-08
-1.91449e-08
-1.18903e-08
-1.02994e-08
-6.23729e-09
-5.35191e-09
-3.12173e-09
-2.6264e-09
-1.33597e-09
-1.05709e-09
-3.60799e-10
-2.34854e-10
-3.77231e-11
-8.02361e-12
-1.84353e-12
1.44769e-10
0.0104742
-0.000611199
-0.00109907
-0.00117831
-0.00106451
-0.000997557
-0.000792945
-0.000724797
-0.000606652
-0.00073105
-0.000432038
-0.000303863
-0.000265614
-0.000213646
-0.000195116
-0.000159751
-0.000146766
-0.000120803
-0.000111189
-9.17357e-05
-8.45006e-05
-6.97743e-05
-6.42834e-05
-5.30697e-05
-4.88831e-05
-4.03181e-05
-3.71187e-05
-3.05691e-05
-2.81227e-05
-2.3115e-05
-2.12453e-05
-1.74205e-05
-1.59936e-05
-1.30772e-05
-1.19903e-05
-9.77172e-06
-8.9458e-06
-7.26256e-06
-6.63678e-06
-5.36372e-06
-4.89118e-06
-3.93185e-06
-3.57641e-06
-2.85661e-06
-2.59055e-06
-2.05345e-06
-1.85623e-06
-1.4614e-06
-1.33052e-06
-1.10661e-06
-1.31372e-06
-7.56458e-07
-4.97973e-07
-4.19176e-07
-3.0638e-07
-2.66823e-07
-1.93117e-07
-1.672e-07
-1.18509e-07
-1.01605e-07
-7.04618e-08
-5.98032e-08
-4.0611e-08
-3.41303e-08
-2.27209e-08
-1.89133e-08
-1.23453e-08
-1.01743e-08
-6.49355e-09
-5.28501e-09
-3.26125e-09
-2.58516e-09
-1.41756e-09
-1.03723e-09
-4.08955e-10
-2.36922e-10
-5.34027e-11
-1.22929e-11
-2.86312e-12
1.44432e-10
0.0104503
-0.000622283
-0.00107146
-0.00116326
-0.00106572
-0.000989163
-0.000801269
-0.000723295
-0.000620585
-0.000704738
-0.000441859
-0.000310665
-0.000265444
-0.000215806
-0.000194287
-0.000161128
-0.000146098
-0.000121801
-0.000110677
-9.24803e-05
-8.41095e-05
-7.03365e-05
-6.39839e-05
-5.34972e-05
-4.86537e-05
-4.06444e-05
-3.69431e-05
-3.08186e-05
-2.79885e-05
-2.33058e-05
-2.11429e-05
-1.75663e-05
-1.59156e-05
-1.31885e-05
-1.19311e-05
-9.85648e-06
-8.90099e-06
-7.32695e-06
-6.603e-06
-5.41249e-06
-4.86581e-06
-3.96866e-06
-3.55745e-06
-2.88429e-06
-2.57649e-06
-2.07424e-06
-1.84615e-06
-1.47802e-06
-1.32772e-06
-1.13129e-06
-1.26614e-06
-7.73626e-07
-5.11326e-07
-4.18407e-07
-3.11087e-07
-2.6518e-07
-1.9609e-07
-1.66089e-07
-1.20489e-07
-1.00924e-07
-7.17442e-08
-5.94057e-08
-4.14107e-08
-3.39071e-08
-2.32013e-08
-1.87918e-08
-1.26242e-08
-1.01096e-08
-6.65084e-09
-5.25065e-09
-3.34683e-09
-2.56354e-09
-1.46762e-09
-1.02727e-09
-4.38853e-10
-2.39443e-10
-6.33832e-11
-1.52938e-11
-3.59856e-12
1.44188e-10
0.010438
-0.00062711
-0.00105814
-0.00115578
-0.00106609
-0.00098521
-0.000805186
-0.000722773
-0.000627034
-0.0006923
-0.000446406
-0.000314022
-0.000265447
-0.000216837
-0.000193921
-0.000161777
-0.000145798
-0.000122271
-0.000110447
-9.28305e-05
-8.39334e-05
-7.06008e-05
-6.38489e-05
-5.36981e-05
-4.85502e-05
-4.07978e-05
-3.68639e-05
-3.09359e-05
-2.79279e-05
-2.33955e-05
-2.10967e-05
-1.76349e-05
-1.58804e-05
-1.32409e-05
-1.19044e-05
-9.89634e-06
-8.88081e-06
-7.35723e-06
-6.58778e-06
-5.43543e-06
-4.85439e-06
-3.98598e-06
-3.54893e-06
-2.89731e-06
-2.57017e-06
-2.08402e-06
-1.84164e-06
-1.48591e-06
-1.32674e-06
-1.14271e-06
-1.24363e-06
-7.81573e-07
-5.17896e-07
-4.18207e-07
-3.13333e-07
-2.64461e-07
-1.97496e-07
-1.65601e-07
-1.21426e-07
-1.00627e-07
-7.23517e-08
-5.92337e-08
-4.179e-08
-3.38115e-08
-2.34294e-08
-1.87403e-08
-1.27568e-08
-1.00825e-08
-6.72566e-09
-5.23636e-09
-3.38752e-09
-2.55439e-09
-1.49144e-09
-1.02322e-09
-4.5318e-10
-2.41024e-10
-6.82416e-11
-1.68374e-11
-3.98314e-12
1.44059e-10
0.010438
-0.000627114
-0.00105814
-0.00115578
-0.00106609
-0.000985211
-0.000805186
-0.000722773
-0.000627035
-0.0006923
-0.000446406
-0.000314022
-0.000265447
-0.000216837
-0.000193921
-0.000161777
-0.000145798
-0.000122271
-0.000110447
-9.28306e-05
-8.39334e-05
-7.06008e-05
-6.38489e-05
-5.36982e-05
-4.85502e-05
-4.07978e-05
-3.68639e-05
-3.09359e-05
-2.79279e-05
-2.33955e-05
-2.10967e-05
-1.76349e-05
-1.58804e-05
-1.32409e-05
-1.19044e-05
-9.89634e-06
-8.88081e-06
-7.35723e-06
-6.58778e-06
-5.43543e-06
-4.85439e-06
-3.98598e-06
-3.54893e-06
-2.89731e-06
-2.57017e-06
-2.08402e-06
-1.84164e-06
-1.48591e-06
-1.32674e-06
-1.14271e-06
-1.24363e-06
-7.81573e-07
-5.17895e-07
-4.18207e-07
-3.13333e-07
-2.64461e-07
-1.97496e-07
-1.65601e-07
-1.21426e-07
-1.00627e-07
-7.23517e-08
-5.92337e-08
-4.179e-08
-3.38115e-08
-2.34294e-08
-1.87403e-08
-1.27568e-08
-1.00825e-08
-6.72566e-09
-5.23636e-09
-3.38752e-09
-2.55439e-09
-1.49144e-09
-1.02322e-09
-4.53179e-10
-2.41024e-10
-6.82414e-11
-1.68372e-11
-3.983e-12
1.44059e-10
0.0104503
-0.000622295
-0.00107146
-0.00116327
-0.00106573
-0.000989164
-0.000801269
-0.000723296
-0.000620585
-0.000704738
-0.000441859
-0.000310665
-0.000265444
-0.000215806
-0.000194287
-0.000161128
-0.000146098
-0.000121801
-0.000110677
-9.24803e-05
-8.41095e-05
-7.03365e-05
-6.39839e-05
-5.34972e-05
-4.86537e-05
-4.06444e-05
-3.69431e-05
-3.08186e-05
-2.79885e-05
-2.33058e-05
-2.11429e-05
-1.75663e-05
-1.59156e-05
-1.31885e-05
-1.19311e-05
-9.85648e-06
-8.901e-06
-7.32695e-06
-6.603e-06
-5.41249e-06
-4.86581e-06
-3.96866e-06
-3.55745e-06
-2.88429e-06
-2.57649e-06
-2.07424e-06
-1.84615e-06
-1.47802e-06
-1.32772e-06
-1.13129e-06
-1.26614e-06
-7.73625e-07
-5.11326e-07
-4.18407e-07
-3.11087e-07
-2.6518e-07
-1.9609e-07
-1.66089e-07
-1.20489e-07
-1.00924e-07
-7.17441e-08
-5.94057e-08
-4.14106e-08
-3.39071e-08
-2.32013e-08
-1.87918e-08
-1.26242e-08
-1.01096e-08
-6.65083e-09
-5.25065e-09
-3.34682e-09
-2.56354e-09
-1.46762e-09
-1.02727e-09
-4.38851e-10
-2.39442e-10
-6.33825e-11
-1.52934e-11
-3.59819e-12
1.44188e-10
0.0104742
-0.000611215
-0.00109907
-0.00117831
-0.00106451
-0.000997558
-0.000792946
-0.000724798
-0.000606652
-0.00073105
-0.000432038
-0.000303863
-0.000265614
-0.000213646
-0.000195116
-0.000159752
-0.000146766
-0.000120803
-0.000111189
-9.17358e-05
-8.45006e-05
-6.97743e-05
-6.42834e-05
-5.30698e-05
-4.88831e-05
-4.03181e-05
-3.71187e-05
-3.05691e-05
-2.81227e-05
-2.3115e-05
-2.12453e-05
-1.74205e-05
-1.59936e-05
-1.30772e-05
-1.19903e-05
-9.77172e-06
-8.9458e-06
-7.26256e-06
-6.63679e-06
-5.36372e-06
-4.89118e-06
-3.93185e-06
-3.57641e-06
-2.85661e-06
-2.59055e-06
-2.05345e-06
-1.85623e-06
-1.4614e-06
-1.33052e-06
-1.10661e-06
-1.31372e-06
-7.56458e-07
-4.97973e-07
-4.19176e-07
-3.0638e-07
-2.66823e-07
-1.93117e-07
-1.672e-07
-1.18508e-07
-1.01605e-07
-7.04618e-08
-5.98032e-08
-4.0611e-08
-3.41303e-08
-2.27209e-08
-1.89132e-08
-1.23453e-08
-1.01743e-08
-6.49355e-09
-5.285e-09
-3.26125e-09
-2.58515e-09
-1.41755e-09
-1.03723e-09
-4.08953e-10
-2.3692e-10
-5.34018e-11
-1.22925e-11
-2.86262e-12
1.44432e-10
0.0105081
-0.000590777
-0.00114302
-0.00120107
-0.00106141
-0.00101145
-0.000779155
-0.000728292
-0.000583011
-0.000774293
-0.000415379
-0.00029346
-0.000266329
-0.000210147
-0.000196616
-0.000157478
-0.000147952
-0.000119149
-0.000112092
-9.05015e-05
-8.51905e-05
-6.8842e-05
-6.48112e-05
-5.23607e-05
-4.92872e-05
-3.97767e-05
-3.7428e-05
-3.01552e-05
-2.83592e-05
-2.27983e-05
-2.14258e-05
-1.71785e-05
-1.6131e-05
-1.28926e-05
-1.20947e-05
-9.63114e-06
-9.02481e-06
-7.15579e-06
-6.69639e-06
-5.28287e-06
-4.93597e-06
-3.87083e-06
-3.60991e-06
-2.81074e-06
-2.61543e-06
-2.01906e-06
-1.8742e-06
-1.4342e-06
-1.33702e-06
-1.06467e-06
-1.39187e-06
-7.2733e-07
-4.77425e-07
-4.213e-07
-2.98739e-07
-2.69828e-07
-1.8823e-07
-1.69219e-07
-1.15255e-07
-1.02854e-07
-6.83591e-08
-6.05413e-08
-3.93023e-08
-3.45502e-08
-2.19361e-08
-1.91449e-08
-1.18903e-08
-1.02993e-08
-6.23729e-09
-5.3519e-09
-3.12173e-09
-2.62639e-09
-1.33597e-09
-1.05709e-09
-3.60797e-10
-2.34853e-10
-3.77224e-11
-8.02321e-12
-1.84307e-12
1.44769e-10
0.0105495
-0.000555745
-0.00120672
-0.00123173
-0.00105471
-0.00103263
-0.000758101
-0.000735559
-0.000545903
-0.000839539
-0.000389236
-0.000279263
-0.000268205
-0.00020494
-0.000199139
-0.000154019
-0.000149908
-0.000116624
-0.000113577
-8.86153e-05
-8.63213e-05
-6.74165e-05
-6.56752e-05
-5.12761e-05
-4.99483e-05
-3.89486e-05
-3.79339e-05
-2.95219e-05
-2.8746e-05
-2.2314e-05
-2.17211e-05
-1.68084e-05
-1.63559e-05
-1.26103e-05
-1.22655e-05
-9.4162e-06
-9.15426e-06
-6.99258e-06
-6.79412e-06
-5.15932e-06
-5.00946e-06
-3.77762e-06
-3.66491e-06
-2.7407e-06
-2.65633e-06
-1.96658e-06
-1.90396e-06
-1.39328e-06
-1.35053e-06
-9.98743e-07
-1.50968e-06
-6.81612e-07
-4.49122e-07
-4.26079e-07
-2.8735e-07
-2.7494e-07
-1.80839e-07
-1.72635e-07
-1.10338e-07
-1.04986e-07
-6.51889e-08
-6.18158e-08
-3.73339e-08
-3.52844e-08
-2.07583e-08
-1.9555e-08
-1.12087e-08
-1.05231e-08
-5.85391e-09
-5.47256e-09
-2.91278e-09
-2.69942e-09
-1.21392e-09
-1.09364e-09
-2.89822e-10
-2.35631e-10
-1.53443e-11
-2.81255e-12
-6.36432e-13
1.45166e-10
0.0364203
-0.0240852
-0.00236013
-0.00129148
-0.000651881
-0.000588841
-0.00053523
-0.000531057
-0.000515444
-0.000887237
-0.00046541
-0.000396999
-0.000388941
-0.000337913
-0.000332661
-0.000284989
-0.000280261
-0.000237317
-0.000233125
-0.000195656
-0.000192035
-0.000160085
-0.00015702
-0.000130223
-0.000127665
-0.000105458
-0.000103346
-8.51042e-05
-8.33746e-05
-6.8488e-05
-6.70795e-05
-5.49911e-05
-5.38492e-05
-4.40703e-05
-4.31478e-05
-3.52606e-05
-3.45173e-05
-2.81716e-05
-2.75741e-05
-2.24792e-05
-2.19999e-05
-1.79175e-05
-1.75338e-05
-1.42692e-05
-1.39627e-05
-1.13582e-05
-1.11155e-05
-9.04929e-06
-8.88737e-06
-7.45587e-06
-1.20846e-05
-5.949e-06
-4.65012e-06
-4.51288e-06
-3.69825e-06
-3.62114e-06
-2.99147e-06
-2.93295e-06
-2.44428e-06
-2.39904e-06
-2.02216e-06
-1.98738e-06
-1.69876e-06
-1.67208e-06
-1.45103e-06
-1.42934e-06
-1.23698e-06
-1.21588e-06
-1.00492e-06
-9.82237e-07
-7.56767e-07
-7.35169e-07
-5.48988e-07
-5.24083e-07
-2.30656e-07
-2.05726e-07
-1.25421e-08
-2.2356e-09
-5.03712e-10
-3.63954e-08
0.0358278
-0.0212921
-0.00403799
-0.00164113
-0.000782943
-0.000616509
-0.000546857
-0.000536773
-0.000543779
-0.000815284
-0.000490974
-0.000407106
-0.000387065
-0.00034181
-0.000329581
-0.000288403
-0.000277467
-0.000240413
-0.000230717
-0.000198378
-0.000190004
-0.00016242
-0.00015533
-0.00013219
-0.000126273
-0.000107093
-0.000102207
-8.645e-05
-8.24481e-05
-6.95881e-05
-6.6329e-05
-5.58856e-05
-5.32433e-05
-4.47946e-05
-4.26598e-05
-3.58453e-05
-3.41253e-05
-2.86423e-05
-2.72596e-05
-2.28574e-05
-2.17482e-05
-1.82207e-05
-1.73327e-05
-1.45119e-05
-1.38027e-05
-1.15529e-05
-1.09923e-05
-9.22136e-06
-8.86257e-06
-7.90744e-06
-1.11226e-05
-6.30944e-06
-4.82479e-06
-4.48661e-06
-3.76391e-06
-3.58418e-06
-3.03893e-06
-2.90342e-06
-2.481e-06
-2.37631e-06
-2.05053e-06
-1.97003e-06
-1.72048e-06
-1.6587e-06
-1.46714e-06
-1.41685e-06
-1.24992e-06
-1.20107e-06
-1.01906e-06
-9.66655e-07
-7.72922e-07
-7.22867e-07
-5.5971e-07
-5.02189e-07
-2.52686e-07
-1.95367e-07
-3.03108e-08
-6.36364e-09
-1.45825e-09
-3.67152e-08
0.0353428
-0.0192969
-0.00512154
-0.00192922
-0.000886324
-0.000640298
-0.000556097
-0.000541802
-0.000561531
-0.00076716
-0.000506918
-0.000414656
-0.000386194
-0.000344383
-0.000327658
-0.000290605
-0.000275715
-0.000242414
-0.000229214
-0.000200141
-0.000188739
-0.000163935
-0.00015428
-0.000133466
-0.00012541
-0.000108155
-0.000101502
-8.73251e-05
-8.18754e-05
-7.03038e-05
-6.58655e-05
-5.64677e-05
-5.28693e-05
-4.52661e-05
-4.23588e-05
-3.62259e-05
-3.38835e-05
-2.89488e-05
-2.70658e-05
-2.31037e-05
-2.15931e-05
-1.84182e-05
-1.72089e-05
-1.467e-05
-1.37042e-05
-1.16801e-05
-1.09175e-05
-9.33689e-06
-8.86156e-06
-8.19213e-06
-1.04817e-05
-6.5367e-06
-4.95356e-06
-4.47569e-06
-3.80783e-06
-3.56181e-06
-3.06998e-06
-2.88534e-06
-2.50499e-06
-2.3624e-06
-2.06908e-06
-1.95942e-06
-1.73468e-06
-1.65049e-06
-1.47758e-06
-1.40901e-06
-1.25814e-06
-1.19157e-06
-1.02801e-06
-9.56721e-07
-7.83325e-07
-7.15085e-07
-5.66203e-07
-4.87971e-07
-2.67026e-07
-1.89315e-07
-4.24344e-08
-9.72953e-09
-2.26401e-09
-3.69869e-08
0.0350024
-0.0180133
-0.00576573
-0.00213131
-0.000957814
-0.000657604
-0.000562534
-0.000545463
-0.000571841
-0.000737665
-0.000516137
-0.00041965
-0.000385854
-0.000345949
-0.000326544
-0.000291918
-0.000274697
-0.000243607
-0.000228343
-0.000201195
-0.000188009
-0.000164841
-0.000153676
-0.000134232
-0.000124913
-0.000108792
-0.000101097
-8.78502e-05
-8.15468e-05
-7.07333e-05
-6.55997e-05
-5.68172e-05
-5.2655e-05
-4.55492e-05
-4.21863e-05
-3.64546e-05
-3.3745e-05
-2.9133e-05
-2.69548e-05
-2.32517e-05
-2.15043e-05
-1.85369e-05
-1.7138e-05
-1.47651e-05
-1.36479e-05
-1.17566e-05
-1.08753e-05
-9.4081e-06
-8.86822e-06
-8.35838e-06
-1.00901e-05
-6.66941e-06
-5.03805e-06
-4.47232e-06
-3.83482e-06
-3.54924e-06
-3.08871e-06
-2.87506e-06
-2.51945e-06
-2.35449e-06
-2.08026e-06
-1.9534e-06
-1.74324e-06
-1.64582e-06
-1.48383e-06
-1.40446e-06
-1.26296e-06
-1.18595e-06
-1.03326e-06
-9.50861e-07
-7.89513e-07
-7.10521e-07
-5.69864e-07
-4.79456e-07
-2.75633e-07
-1.86027e-07
-4.99894e-08
-1.20851e-08
-2.84474e-09
-3.71841e-08
0.0348275
-0.0173854
-0.00606536
-0.00223494
-0.000994353
-0.000666691
-0.00056584
-0.000547378
-0.000576566
-0.000723658
-0.000520349
-0.00042213
-0.000385752
-0.000346691
-0.000326035
-0.00029253
-0.000274231
-0.000244165
-0.000227945
-0.000201688
-0.000187676
-0.000165266
-0.0001534
-0.00013459
-0.000124687
-0.00010909
-0.000100913
-8.80963e-05
-8.13974e-05
-7.09347e-05
-6.5479e-05
-5.6981e-05
-5.25577e-05
-4.5682e-05
-4.21081e-05
-3.65618e-05
-3.36822e-05
-2.92193e-05
-2.69045e-05
-2.33211e-05
-2.14641e-05
-1.85926e-05
-1.71059e-05
-1.48096e-05
-1.36224e-05
-1.17925e-05
-1.08563e-05
-9.44208e-06
-8.87356e-06
-8.43484e-06
-9.90447e-06
-6.73045e-06
-5.07984e-06
-4.47176e-06
-3.84769e-06
-3.54361e-06
-3.09752e-06
-2.87042e-06
-2.52624e-06
-2.35092e-06
-2.08552e-06
-1.95069e-06
-1.74726e-06
-1.64371e-06
-1.48675e-06
-1.40237e-06
-1.2652e-06
-1.18333e-06
-1.03568e-06
-9.48146e-07
-7.92396e-07
-7.08415e-07
-5.71508e-07
-4.75472e-07
-2.79667e-07
-1.84594e-07
-5.36174e-08
-1.32932e-08
-3.14827e-09
-3.72876e-08
0.0348275
-0.0173854
-0.00606536
-0.00223494
-0.000994352
-0.000666691
-0.00056584
-0.000547378
-0.000576566
-0.000723658
-0.000520349
-0.00042213
-0.000385752
-0.000346691
-0.000326035
-0.00029253
-0.000274231
-0.000244165
-0.000227945
-0.000201688
-0.000187676
-0.000165266
-0.0001534
-0.00013459
-0.000124687
-0.00010909
-0.000100913
-8.80963e-05
-8.13974e-05
-7.09347e-05
-6.5479e-05
-5.6981e-05
-5.25577e-05
-4.5682e-05
-4.21081e-05
-3.65618e-05
-3.36822e-05
-2.92193e-05
-2.69045e-05
-2.33211e-05
-2.14641e-05
-1.85926e-05
-1.71059e-05
-1.48096e-05
-1.36224e-05
-1.17925e-05
-1.08563e-05
-9.44208e-06
-8.87356e-06
-8.43485e-06
-9.90447e-06
-6.73045e-06
-5.07984e-06
-4.47176e-06
-3.84769e-06
-3.54361e-06
-3.09752e-06
-2.87042e-06
-2.52624e-06
-2.35092e-06
-2.08552e-06
-1.95069e-06
-1.74726e-06
-1.64371e-06
-1.48676e-06
-1.40237e-06
-1.2652e-06
-1.18333e-06
-1.03568e-06
-9.48146e-07
-7.92396e-07
-7.08415e-07
-5.71508e-07
-4.75472e-07
-2.79667e-07
-1.84594e-07
-5.36173e-08
-1.32931e-08
-3.14826e-09
-3.72876e-08
0.0350024
-0.0180133
-0.00576573
-0.00213131
-0.000957813
-0.000657603
-0.000562533
-0.000545463
-0.000571842
-0.000737666
-0.000516138
-0.00041965
-0.000385854
-0.000345949
-0.000326544
-0.000291918
-0.000274697
-0.000243608
-0.000228344
-0.000201196
-0.00018801
-0.000164841
-0.000153676
-0.000134232
-0.000124913
-0.000108792
-0.000101098
-8.78502e-05
-8.15468e-05
-7.07333e-05
-6.55998e-05
-5.68172e-05
-5.2655e-05
-4.55492e-05
-4.21864e-05
-3.64546e-05
-3.3745e-05
-2.9133e-05
-2.69548e-05
-2.32517e-05
-2.15043e-05
-1.85369e-05
-1.7138e-05
-1.47651e-05
-1.3648e-05
-1.17566e-05
-1.08753e-05
-9.4081e-06
-8.86823e-06
-8.35838e-06
-1.00901e-05
-6.66941e-06
-5.03805e-06
-4.47232e-06
-3.83482e-06
-3.54924e-06
-3.08871e-06
-2.87506e-06
-2.51945e-06
-2.35449e-06
-2.08026e-06
-1.95341e-06
-1.74324e-06
-1.64582e-06
-1.48383e-06
-1.40446e-06
-1.26297e-06
-1.18595e-06
-1.03326e-06
-9.50861e-07
-7.89513e-07
-7.10521e-07
-5.69864e-07
-4.79456e-07
-2.75633e-07
-1.86027e-07
-4.99891e-08
-1.20849e-08
-2.8447e-09
-3.7184e-08
0.0353429
-0.0192969
-0.00512154
-0.00192922
-0.000886322
-0.000640297
-0.000556097
-0.000541802
-0.000561532
-0.000767161
-0.000506918
-0.000414656
-0.000386195
-0.000344383
-0.000327658
-0.000290605
-0.000275715
-0.000242414
-0.000229214
-0.000200142
-0.00018874
-0.000163935
-0.00015428
-0.000133467
-0.00012541
-0.000108155
-0.000101502
-8.73252e-05
-8.18754e-05
-7.03038e-05
-6.58656e-05
-5.64677e-05
-5.28694e-05
-4.52661e-05
-4.23588e-05
-3.6226e-05
-3.38835e-05
-2.89488e-05
-2.70658e-05
-2.31037e-05
-2.15931e-05
-1.84182e-05
-1.72089e-05
-1.467e-05
-1.37042e-05
-1.16801e-05
-1.09175e-05
-9.3369e-06
-8.86157e-06
-8.19214e-06
-1.04817e-05
-6.5367e-06
-4.95356e-06
-4.47569e-06
-3.80783e-06
-3.56181e-06
-3.06998e-06
-2.88534e-06
-2.50499e-06
-2.3624e-06
-2.06908e-06
-1.95943e-06
-1.73468e-06
-1.6505e-06
-1.47758e-06
-1.40901e-06
-1.25814e-06
-1.19157e-06
-1.02801e-06
-9.56721e-07
-7.83325e-07
-7.15085e-07
-5.66203e-07
-4.8797e-07
-2.67026e-07
-1.89314e-07
-4.2434e-08
-9.72928e-09
-2.26396e-09
-3.69868e-08
0.0358278
-0.0212921
-0.00403799
-0.00164113
-0.000782941
-0.000616508
-0.000546857
-0.000536773
-0.00054378
-0.000815285
-0.000490975
-0.000407106
-0.000387065
-0.00034181
-0.000329582
-0.000288403
-0.000277467
-0.000240413
-0.000230717
-0.000198379
-0.000190004
-0.000162421
-0.00015533
-0.00013219
-0.000126273
-0.000107093
-0.000102207
-8.64501e-05
-8.24481e-05
-6.95882e-05
-6.63291e-05
-5.58856e-05
-5.32434e-05
-4.47947e-05
-4.26598e-05
-3.58453e-05
-3.41253e-05
-2.86423e-05
-2.72596e-05
-2.28574e-05
-2.17482e-05
-1.82207e-05
-1.73327e-05
-1.45119e-05
-1.38027e-05
-1.1553e-05
-1.09923e-05
-9.22137e-06
-8.86258e-06
-7.90744e-06
-1.11226e-05
-6.30945e-06
-4.82479e-06
-4.48661e-06
-3.76391e-06
-3.58418e-06
-3.03894e-06
-2.90342e-06
-2.481e-06
-2.37631e-06
-2.05053e-06
-1.97003e-06
-1.72048e-06
-1.6587e-06
-1.46714e-06
-1.41685e-06
-1.24992e-06
-1.20107e-06
-1.01906e-06
-9.66656e-07
-7.72922e-07
-7.22867e-07
-5.5971e-07
-5.02189e-07
-2.52686e-07
-1.95366e-07
-3.03105e-08
-6.36342e-09
-1.45821e-09
-3.67151e-08
0.0364203
-0.0240852
-0.00236013
-0.00129148
-0.000651881
-0.000588841
-0.00053523
-0.000531057
-0.000515444
-0.000887238
-0.00046541
-0.000396999
-0.000388941
-0.000337913
-0.000332661
-0.000284989
-0.000280261
-0.000237317
-0.000233125
-0.000195656
-0.000192035
-0.000160085
-0.00015702
-0.000130223
-0.000127665
-0.000105458
-0.000103346
-8.51042e-05
-8.33746e-05
-6.8488e-05
-6.70795e-05
-5.49911e-05
-5.38493e-05
-4.40703e-05
-4.31478e-05
-3.52607e-05
-3.45174e-05
-2.81716e-05
-2.75741e-05
-2.24792e-05
-2.19999e-05
-1.79175e-05
-1.75338e-05
-1.42692e-05
-1.39627e-05
-1.13582e-05
-1.11155e-05
-9.04929e-06
-8.88737e-06
-7.45588e-06
-1.20846e-05
-5.949e-06
-4.65013e-06
-4.51288e-06
-3.69825e-06
-3.62114e-06
-2.99148e-06
-2.93295e-06
-2.44428e-06
-2.39905e-06
-2.02216e-06
-1.98738e-06
-1.69876e-06
-1.67208e-06
-1.45103e-06
-1.42934e-06
-1.23698e-06
-1.21588e-06
-1.00492e-06
-9.82237e-07
-7.56767e-07
-7.35169e-07
-5.48988e-07
-5.24083e-07
-2.30656e-07
-2.05726e-07
-1.2542e-08
-2.23551e-09
-5.03697e-10
-3.63954e-08
0.0363344
-0.0240909
-0.00235726
-0.00128813
-0.000647451
-0.000584334
-0.000530541
-0.000526338
-0.000510681
-0.0008789
-0.000460963
-0.000393094
-0.000385102
-0.000334485
-0.000329277
-0.000282012
-0.000277326
-0.000234768
-0.000230614
-0.000193498
-0.000189912
-0.000158276
-0.000155241
-0.000128717
-0.000126186
-0.000104212
-0.000102124
-8.40801e-05
-8.23696e-05
-6.76499e-05
-6.62574e-05
-5.43082e-05
-5.31796e-05
-4.3516e-05
-4.26045e-05
-3.48124e-05
-3.40781e-05
-2.78103e-05
-2.72202e-05
-2.2189e-05
-2.17157e-05
-1.76849e-05
-1.73061e-05
-1.40833e-05
-1.37808e-05
-1.121e-05
-1.09704e-05
-8.93109e-06
-8.77129e-06
-7.35854e-06
-1.1927e-05
-5.87148e-06
-4.58969e-06
-4.45425e-06
-3.65039e-06
-3.5743e-06
-2.95299e-06
-2.89524e-06
-2.4131e-06
-2.36847e-06
-1.9967e-06
-1.9624e-06
-1.67781e-06
-1.65151e-06
-1.43373e-06
-1.41236e-06
-1.22306e-06
-1.20228e-06
-9.94383e-07
-9.72002e-07
-7.49255e-07
-7.27921e-07
-5.44068e-07
-5.19421e-07
-2.28639e-07
-2.03932e-07
-1.24325e-08
-2.21604e-09
-4.99304e-10
-3.60621e-08
0.0357418
-0.0212968
-0.00403578
-0.00163785
-0.000778632
-0.000612014
-0.000542178
-0.000532013
-0.000538765
-0.000807627
-0.000486287
-0.000403114
-0.00038324
-0.000338351
-0.000326224
-0.000285397
-0.000274557
-0.000237837
-0.00022823
-0.000196195
-0.000187901
-0.000160588
-0.000153568
-0.000130664
-0.000124808
-0.00010583
-0.000100997
-8.54114e-05
-8.14536e-05
-6.87378e-05
-6.55157e-05
-5.51925e-05
-5.25809e-05
-4.42319e-05
-4.21225e-05
-3.53901e-05
-3.36909e-05
-2.82753e-05
-2.69097e-05
-2.25624e-05
-2.14672e-05
-1.79843e-05
-1.71076e-05
-1.43229e-05
-1.36229e-05
-1.14022e-05
-1.08488e-05
-9.10093e-06
-8.74682e-06
-7.80422e-06
-1.09775e-05
-6.22722e-06
-4.76206e-06
-4.42833e-06
-3.71518e-06
-3.53782e-06
-2.99982e-06
-2.86611e-06
-2.44933e-06
-2.34605e-06
-2.02469e-06
-1.94529e-06
-1.69923e-06
-1.63833e-06
-1.4496e-06
-1.40007e-06
-1.2358e-06
-1.18768e-06
-1.00831e-06
-9.56598e-07
-7.65214e-07
-7.15771e-07
-5.54635e-07
-4.9771e-07
-2.50466e-07
-1.9366e-07
-3.00458e-08
-6.30797e-09
-1.44549e-09
-3.63791e-08
0.0352569
-0.0193009
-0.00511977
-0.00192602
-0.0008821
-0.000635815
-0.000551424
-0.000537007
-0.00055636
-0.000759957
-0.00050208
-0.000410599
-0.000382375
-0.000340903
-0.000324317
-0.000287581
-0.000272822
-0.00023982
-0.000226741
-0.000197942
-0.000186649
-0.000162088
-0.00015253
-0.000131928
-0.000123954
-0.000106881
-0.0001003
-8.62771e-05
-8.08875e-05
-6.94455e-05
-6.50576e-05
-5.57679e-05
-5.22114e-05
-4.46978e-05
-4.18251e-05
-3.57661e-05
-3.34521e-05
-2.85781e-05
-2.67183e-05
-2.28057e-05
-2.1314e-05
-1.81794e-05
-1.69854e-05
-1.4479e-05
-1.35257e-05
-1.15276e-05
-1.0775e-05
-9.21495e-06
-8.74583e-06
-8.0852e-06
-1.0345e-05
-6.45152e-06
-4.88914e-06
-4.41756e-06
-3.75852e-06
-3.51576e-06
-3.03046e-06
-2.84827e-06
-2.473e-06
-2.33233e-06
-2.04299e-06
-1.93484e-06
-1.71324e-06
-1.63026e-06
-1.45989e-06
-1.39237e-06
-1.24388e-06
-1.17832e-06
-1.01712e-06
-9.46774e-07
-7.7549e-07
-7.08084e-07
-5.61029e-07
-4.83608e-07
-2.64674e-07
-1.87659e-07
-4.20631e-08
-9.6444e-09
-2.2442e-09
-3.66485e-08
0.0349164
-0.0180169
-0.00576422
-0.00212816
-0.000953646
-0.000653131
-0.000557863
-0.000540644
-0.000566581
-0.000730742
-0.000511213
-0.00041555
-0.000382037
-0.000342457
-0.000323214
-0.000288883
-0.000271813
-0.000241003
-0.000225879
-0.000198986
-0.000185927
-0.000162986
-0.000151931
-0.000132685
-0.000123463
-0.000107512
-9.98997e-05
-8.67965e-05
-8.05626e-05
-6.98703e-05
-6.47949e-05
-5.61134e-05
-5.19997e-05
-4.49776e-05
-4.16548e-05
-3.5992e-05
-3.33154e-05
-2.87599e-05
-2.66087e-05
-2.29518e-05
-2.12264e-05
-1.82965e-05
-1.69154e-05
-1.45729e-05
-1.34701e-05
-1.16032e-05
-1.07333e-05
-9.28524e-06
-8.75241e-06
-8.24928e-06
-9.95849e-06
-6.5825e-06
-4.97253e-06
-4.41424e-06
-3.78516e-06
-3.50335e-06
-3.04894e-06
-2.83813e-06
-2.48727e-06
-2.32453e-06
-2.05402e-06
-1.92891e-06
-1.72168e-06
-1.62566e-06
-1.46605e-06
-1.38789e-06
-1.24862e-06
-1.17277e-06
-1.02228e-06
-9.40978e-07
-7.81602e-07
-7.03575e-07
-5.64633e-07
-4.75162e-07
-2.73201e-07
-1.84399e-07
-4.95519e-08
-1.19794e-08
-2.81985e-09
-3.68439e-08
0.0347415
-0.0173887
-0.00606397
-0.00223181
-0.000990212
-0.000662223
-0.000561171
-0.000542547
-0.000571265
-0.000716867
-0.000515385
-0.000418009
-0.000381936
-0.000343193
-0.000322709
-0.00028949
-0.000271351
-0.000241555
-0.000225485
-0.000199475
-0.000185597
-0.000163406
-0.000151659
-0.00013304
-0.00012324
-0.000107807
-9.97177e-05
-8.704e-05
-8.0415e-05
-7.00694e-05
-6.46757e-05
-5.62754e-05
-5.19035e-05
-4.51089e-05
-4.15775e-05
-3.6098e-05
-3.32533e-05
-2.88453e-05
-2.6559e-05
-2.30204e-05
-2.11867e-05
-1.83515e-05
-1.68837e-05
-1.46169e-05
-1.34449e-05
-1.16386e-05
-1.07146e-05
-9.31878e-06
-8.75768e-06
-8.32475e-06
-9.77528e-06
-6.64274e-06
-5.01377e-06
-4.41368e-06
-3.79785e-06
-3.4978e-06
-3.05763e-06
-2.83356e-06
-2.49397e-06
-2.32101e-06
-2.05921e-06
-1.92623e-06
-1.72564e-06
-1.62358e-06
-1.46894e-06
-1.38583e-06
-1.25082e-06
-1.17019e-06
-1.02466e-06
-9.38293e-07
-7.8445e-07
-7.01494e-07
-5.66249e-07
-4.7121e-07
-2.77197e-07
-1.82977e-07
-5.31481e-08
-1.31769e-08
-3.12073e-09
-3.69465e-08
0.0347415
-0.0173888
-0.00606397
-0.00223181
-0.000990212
-0.000662222
-0.000561171
-0.000542547
-0.000571265
-0.000716867
-0.000515385
-0.000418009
-0.000381936
-0.000343193
-0.000322709
-0.00028949
-0.000271351
-0.000241555
-0.000225485
-0.000199475
-0.000185597
-0.000163406
-0.000151659
-0.00013304
-0.00012324
-0.000107807
-9.97177e-05
-8.704e-05
-8.0415e-05
-7.00695e-05
-6.46757e-05
-5.62754e-05
-5.19036e-05
-4.51089e-05
-4.15775e-05
-3.6098e-05
-3.32533e-05
-2.88453e-05
-2.6559e-05
-2.30204e-05
-2.11867e-05
-1.83515e-05
-1.68837e-05
-1.46169e-05
-1.34449e-05
-1.16386e-05
-1.07146e-05
-9.31878e-06
-8.75768e-06
-8.32475e-06
-9.77528e-06
-6.64274e-06
-5.01377e-06
-4.41368e-06
-3.79785e-06
-3.4978e-06
-3.05763e-06
-2.83356e-06
-2.49397e-06
-2.32101e-06
-2.05921e-06
-1.92623e-06
-1.72565e-06
-1.62358e-06
-1.46894e-06
-1.38583e-06
-1.25082e-06
-1.17019e-06
-1.02466e-06
-9.38293e-07
-7.8445e-07
-7.01494e-07
-5.66249e-07
-4.7121e-07
-2.77197e-07
-1.82977e-07
-5.3148e-08
-1.31768e-08
-3.12071e-09
-3.69465e-08
0.0349164
-0.0180169
-0.00576422
-0.00212816
-0.000953644
-0.00065313
-0.000557863
-0.000540644
-0.000566581
-0.000730742
-0.000511213
-0.00041555
-0.000382037
-0.000342457
-0.000323214
-0.000288883
-0.000271813
-0.000241003
-0.000225879
-0.000198986
-0.000185927
-0.000162986
-0.000151932
-0.000132685
-0.000123463
-0.000107512
-9.98997e-05
-8.67965e-05
-8.05626e-05
-6.98703e-05
-6.4795e-05
-5.61134e-05
-5.19997e-05
-4.49777e-05
-4.16548e-05
-3.59921e-05
-3.33154e-05
-2.876e-05
-2.66087e-05
-2.29518e-05
-2.12264e-05
-1.82966e-05
-1.69155e-05
-1.45729e-05
-1.34701e-05
-1.16032e-05
-1.07333e-05
-9.28524e-06
-8.75242e-06
-8.24929e-06
-9.95849e-06
-6.5825e-06
-4.97253e-06
-4.41424e-06
-3.78516e-06
-3.50335e-06
-3.04894e-06
-2.83813e-06
-2.48727e-06
-2.32453e-06
-2.05402e-06
-1.92891e-06
-1.72168e-06
-1.62566e-06
-1.46605e-06
-1.38789e-06
-1.24863e-06
-1.17277e-06
-1.02228e-06
-9.40979e-07
-7.81602e-07
-7.03575e-07
-5.64632e-07
-4.75162e-07
-2.732e-07
-1.84398e-07
-4.95517e-08
-1.19792e-08
-2.81981e-09
-3.68438e-08
0.0352569
-0.0193009
-0.00511977
-0.00192601
-0.000882098
-0.000635814
-0.000551424
-0.000537007
-0.000556361
-0.000759958
-0.000502081
-0.0004106
-0.000382376
-0.000340904
-0.000324318
-0.000287581
-0.000272822
-0.00023982
-0.000226741
-0.000197942
-0.00018665
-0.000162088
-0.00015253
-0.000131928
-0.000123954
-0.000106881
-0.0001003
-8.62771e-05
-8.08875e-05
-6.94455e-05
-6.50577e-05
-5.57679e-05
-5.22115e-05
-4.46978e-05
-4.18251e-05
-3.57662e-05
-3.34521e-05
-2.85781e-05
-2.67183e-05
-2.28057e-05
-2.13141e-05
-1.81794e-05
-1.69854e-05
-1.4479e-05
-1.35257e-05
-1.15277e-05
-1.0775e-05
-9.21496e-06
-8.74584e-06
-8.08521e-06
-1.0345e-05
-6.45152e-06
-4.88914e-06
-4.41756e-06
-3.75852e-06
-3.51576e-06
-3.03046e-06
-2.84827e-06
-2.47301e-06
-2.33233e-06
-2.04299e-06
-1.93484e-06
-1.71324e-06
-1.63026e-06
-1.45989e-06
-1.39237e-06
-1.24388e-06
-1.17832e-06
-1.01712e-06
-9.46774e-07
-7.7549e-07
-7.08084e-07
-5.61029e-07
-4.83608e-07
-2.64673e-07
-1.87658e-07
-4.20627e-08
-9.64415e-09
-2.24415e-09
-3.66483e-08
0.0357419
-0.0212968
-0.00403578
-0.00163785
-0.00077863
-0.000612013
-0.000542178
-0.000532013
-0.000538765
-0.000807627
-0.000486287
-0.000403114
-0.00038324
-0.000338351
-0.000326224
-0.000285397
-0.000274557
-0.000237837
-0.00022823
-0.000196196
-0.000187901
-0.000160588
-0.000153568
-0.000130664
-0.000124808
-0.00010583
-0.000100997
-8.54115e-05
-8.14537e-05
-6.87378e-05
-6.55157e-05
-5.51925e-05
-5.2581e-05
-4.42319e-05
-4.21225e-05
-3.53901e-05
-3.36909e-05