/*--------------------------------*- C++ -*----------------------------------*\
| =========                 |                                                 |
| \\      /  F ield         | OpenFOAM: The Open Source CFD Toolbox           |
|  \\    /   O peration     | Version:  5.x                                   |
|   \\  /    A nd           | Web:      www.OpenFOAM.org                      |
|    \\/     M anipulation  |                                                 |
\*---------------------------------------------------------------------------*/
FoamFile
{
    version     2.0;
    format      ascii;
    class       volScalarField;
    location    "2.1";
    object      T;
}
// * * * * * * * * * * * * * * * * * * * * * * * * * * * * * * * * * * * * * //

dimensions      [0 0 0 1 0 0 0];

internalField   nonuniform List<scalar> 
3200
(
0.000551179
0.000503769
0.000495605
0.000383097
0.000372433
0.000277625
0.00026917
0.000201815
0.000195614
0.000147225
0.00011166
0.000108301
8.37336e-05
8.14806e-05
6.32396e-05
6.15667e-05
4.78377e-05
4.6576e-05
3.61753e-05
3.52183e-05
2.73138e-05
2.65862e-05
2.05721e-05
2.00186e-05
1.54445e-05
1.50238e-05
1.15496e-05
1.12304e-05
8.59746e-06
8.3558e-06
6.36606e-06
6.1837e-06
4.68521e-06
4.54811e-06
3.42419e-06
3.32156e-06
2.48257e-06
2.40613e-06
1.78331e-06
1.72672e-06
1.26738e-06
1.22577e-06
8.89616e-07
8.59284e-07
6.15546e-07
5.93652e-07
4.18888e-07
4.03256e-07
2.7956e-07
2.68203e-07
1.79686e-07
1.17235e-07
1.11525e-07
7.2323e-08
6.8917e-08
4.3588e-08
4.14231e-08
2.55042e-08
2.41596e-08
1.44704e-08
1.3661e-08
7.95147e-09
7.47941e-09
4.21808e-09
3.95097e-09
2.14225e-09
1.99547e-09
1.02138e-09
9.43154e-10
4.35986e-10
3.95898e-10
1.44708e-10
1.25956e-10
2.33163e-11
1.6592e-11
-5.66598e-12
-6.9712e-12
-7.20044e-12
-7.25247e-12
-7.2641e-12
0.000545569
0.00050524
0.000486493
0.000390939
0.000366387
0.000284798
0.000265242
0.000206882
0.000192413
0.000148581
0.000114983
0.000107043
8.56373e-05
8.04105e-05
6.46226e-05
6.07489e-05
4.88748e-05
4.59537e-05
3.69599e-05
3.47445e-05
2.79097e-05
2.62254e-05
2.10256e-05
1.97443e-05
1.57895e-05
1.48156e-05
1.18118e-05
1.10728e-05
8.7963e-06
8.23691e-06
6.51647e-06
6.09433e-06
4.79862e-06
4.48124e-06
3.50936e-06
3.27177e-06
2.54624e-06
2.36929e-06
1.83066e-06
1.69965e-06
1.30238e-06
1.20606e-06
9.15294e-07
8.45068e-07
6.3422e-07
5.83525e-07
4.32314e-07
3.96105e-07
2.88894e-07
2.62403e-07
1.82427e-07
1.23216e-07
1.09694e-07
7.54736e-08
6.75643e-08
4.55996e-08
4.05815e-08
2.67766e-08
2.36596e-08
1.52511e-08
1.33742e-08
8.41516e-09
7.32006e-09
4.48493e-09
3.86504e-09
2.29132e-09
1.95054e-09
1.10228e-09
9.20606e-10
4.78552e-10
3.85415e-10
1.66379e-10
1.22775e-10
3.27812e-11
1.70662e-11
-3.29866e-12
-6.41923e-12
-7.07097e-12
-7.22159e-12
-7.25533e-12
0.000541571
0.000505845
0.000480451
0.000395938
0.00036262
0.000289487
0.000262864
0.000210193
0.000190384
0.000149527
0.000117279
0.000106324
8.68931e-05
7.97623e-05
6.55285e-05
6.02507e-05
4.95534e-05
4.55741e-05
3.74731e-05
3.44553e-05
2.82995e-05
2.60052e-05
2.13221e-05
1.95769e-05
1.60151e-05
1.46886e-05
1.19833e-05
1.09767e-05
8.92639e-06
8.16441e-06
6.6149e-06
6.03987e-06
4.87285e-06
4.44052e-06
3.56513e-06
3.24149e-06
2.58796e-06
2.34691e-06
1.8617e-06
1.68323e-06
1.32533e-06
1.19411e-06
9.32143e-07
8.3647e-07
6.46483e-07
5.77415e-07
4.41137e-07
3.91792e-07
2.94998e-07
2.5874e-07
1.84337e-07
1.27368e-07
1.08691e-07
7.7571e-08
6.67733e-08
4.6933e-08
4.0091e-08
2.76213e-08
2.33711e-08
1.57704e-08
1.32106e-08
8.72423e-09
7.23026e-09
4.66313e-09
3.81723e-09
2.39104e-09
1.9259e-09
1.15651e-09
9.08466e-10
5.07155e-10
3.79965e-10
1.8103e-10
1.21449e-10
3.92742e-11
1.77261e-11
-1.62129e-12
-5.96607e-12
-6.96155e-12
-7.19536e-12
-7.24786e-12
0.000538997
0.000506032
0.000476768
0.000398885
0.000360442
0.000292313
0.000261526
0.000212186
0.000189196
0.000150128
0.000118723
0.000105942
8.76561e-05
7.93973e-05
6.60755e-05
5.99687e-05
4.99627e-05
4.53589e-05
3.77825e-05
3.42912e-05
2.85345e-05
2.58802e-05
2.15009e-05
1.94818e-05
1.61512e-05
1.46165e-05
1.20867e-05
1.09222e-05
9.00485e-06
8.12332e-06
6.67428e-06
6.00903e-06
4.91764e-06
4.41747e-06
3.59879e-06
3.22436e-06
2.61314e-06
2.33426e-06
1.88045e-06
1.67396e-06
1.3392e-06
1.18738e-06
9.4233e-07
8.31636e-07
6.53901e-07
5.73988e-07
4.46478e-07
3.89373e-07
2.98676e-07
2.56601e-07
1.85547e-07
1.29987e-07
1.08184e-07
7.88545e-08
6.63433e-08
4.77458e-08
3.98253e-08
2.81368e-08
2.32163e-08
1.60879e-08
1.31239e-08
8.91349e-09
7.18329e-09
4.77242e-09
3.79258e-09
2.45229e-09
1.9134e-09
1.18987e-09
9.02444e-10
5.24786e-10
3.77379e-10
1.90103e-10
1.21024e-10
4.3341e-11
1.82974e-11
-5.44263e-13
-5.64695e-12
-6.88258e-12
-7.17633e-12
-7.24244e-12
0.000537736
0.000506064
0.000475025
0.00040025
0.000359447
0.000293641
0.000260926
0.000213123
0.000188649
0.000150419
0.000119419
0.000105779
8.80166e-05
7.92338e-05
6.63329e-05
5.98417e-05
5.01552e-05
4.5262e-05
3.79281e-05
3.42172e-05
2.8645e-05
2.58239e-05
2.15849e-05
1.9439e-05
1.62151e-05
1.4584e-05
1.21353e-05
1.08976e-05
9.04175e-06
8.10481e-06
6.7022e-06
5.99514e-06
4.93871e-06
4.4071e-06
3.61463e-06
3.21666e-06
2.62499e-06
2.32858e-06
1.88927e-06
1.6698e-06
1.34573e-06
1.18436e-06
9.47129e-07
8.29472e-07
6.57397e-07
5.72456e-07
4.48995e-07
3.88291e-07
3.00405e-07
2.55617e-07
1.86134e-07
1.31254e-07
1.07976e-07
7.94641e-08
6.61557e-08
4.81308e-08
3.97096e-08
2.83812e-08
2.31495e-08
1.62386e-08
1.30868e-08
9.00339e-09
7.16345e-09
4.82439e-09
3.7823e-09
2.48145e-09
1.90826e-09
1.20576e-09
9.00017e-10
5.33197e-10
3.76381e-10
1.94445e-10
1.20941e-10
4.53009e-11
1.86198e-11
-1.71068e-14
-5.4826e-12
-6.84127e-12
-7.16634e-12
-7.23958e-12
0.000537737
0.000506064
0.000475026
0.00040025
0.000359447
0.000293641
0.000260926
0.000213123
0.000188649
0.000150419
0.000119419
0.000105779
8.80166e-05
7.92338e-05
6.63329e-05
5.98418e-05
5.01552e-05
4.5262e-05
3.79281e-05
3.42172e-05
2.8645e-05
2.58239e-05
2.15849e-05
1.9439e-05
1.62151e-05
1.4584e-05
1.21353e-05
1.08976e-05
9.04175e-06
8.10481e-06
6.7022e-06
5.99514e-06
4.93871e-06
4.4071e-06
3.61463e-06
3.21666e-06
2.62499e-06
2.32858e-06
1.88927e-06
1.6698e-06
1.34573e-06
1.18436e-06
9.47129e-07
8.29472e-07
6.57397e-07
5.72456e-07
4.48995e-07
3.88291e-07
3.00404e-07
2.55617e-07
1.86134e-07
1.31254e-07
1.07976e-07
7.94641e-08
6.61557e-08
4.81308e-08
3.97096e-08
2.83812e-08
2.31495e-08
1.62386e-08
1.30868e-08
9.00339e-09
7.16345e-09
4.82439e-09
3.78229e-09
2.48145e-09
1.90826e-09
1.20576e-09
9.00016e-10
5.33197e-10
3.76381e-10
1.94445e-10
1.20941e-10
4.53008e-11
1.86198e-11
-1.71405e-14
-5.48262e-12
-6.84128e-12
-7.16634e-12
-7.23958e-12
0.000538998
0.000506032
0.000476769
0.000398886
0.000360442
0.000292313
0.000261526
0.000212186
0.000189196
0.000150128
0.000118723
0.000105942
8.76561e-05
7.93973e-05
6.60755e-05
5.99687e-05
4.99627e-05
4.53589e-05
3.77826e-05
3.42912e-05
2.85345e-05
2.58802e-05
2.15009e-05
1.94818e-05
1.61512e-05
1.46165e-05
1.20867e-05
1.09222e-05
9.00486e-06
8.12332e-06
6.67428e-06
6.00903e-06
4.91764e-06
4.41747e-06
3.59879e-06
3.22436e-06
2.61314e-06
2.33426e-06
1.88045e-06
1.67396e-06
1.3392e-06
1.18738e-06
9.4233e-07
8.31636e-07
6.53901e-07
5.73988e-07
4.46478e-07
3.89372e-07
2.98676e-07
2.56601e-07
1.85546e-07
1.29987e-07
1.08184e-07
7.88545e-08
6.63432e-08
4.77458e-08
3.98252e-08
2.81368e-08
2.32163e-08
1.60879e-08
1.31239e-08
8.91348e-09
7.18329e-09
4.77242e-09
3.79258e-09
2.45229e-09
1.9134e-09
1.18987e-09
9.02443e-10
5.24785e-10
3.77378e-10
1.90103e-10
1.21024e-10
4.33408e-11
1.82972e-11
-5.44355e-13
-5.647e-12
-6.88261e-12
-7.17634e-12
-7.24243e-12
0.000541573
0.000505845
0.000480451
0.000395938
0.00036262
0.000289487
0.000262864
0.000210193
0.000190384
0.000149527
0.000117279
0.000106324
8.68932e-05
7.97623e-05
6.55285e-05
6.02507e-05
4.95534e-05
4.55741e-05
3.74731e-05
3.44553e-05
2.82995e-05
2.60052e-05
2.13221e-05
1.95769e-05
1.60151e-05
1.46886e-05
1.19833e-05
1.09767e-05
8.9264e-06
8.16441e-06
6.6149e-06
6.03987e-06
4.87285e-06
4.44052e-06
3.56513e-06
3.24149e-06
2.58796e-06
2.34691e-06
1.8617e-06
1.68323e-06
1.32533e-06
1.19411e-06
9.32143e-07
8.3647e-07
6.46483e-07
5.77415e-07
4.41137e-07
3.91792e-07
2.94997e-07
2.5874e-07
1.84337e-07
1.27368e-07
1.08691e-07
7.75709e-08
6.67733e-08
4.69329e-08
4.0091e-08
2.76212e-08
2.33711e-08
1.57704e-08
1.32106e-08
8.72422e-09
7.23025e-09
4.66313e-09
3.81722e-09
2.39104e-09
1.9259e-09
1.15651e-09
9.08464e-10
5.07154e-10
3.79964e-10
1.81029e-10
1.21448e-10
3.92739e-11
1.77259e-11
-1.62141e-12
-5.96613e-12
-6.96159e-12
-7.19538e-12
-7.24785e-12
0.000545571
0.00050524
0.000486493
0.000390939
0.000366387
0.000284798
0.000265242
0.000206882
0.000192413
0.000148581
0.000114983
0.000107043
8.56373e-05
8.04105e-05
6.46226e-05
6.07489e-05
4.88748e-05
4.59538e-05
3.69599e-05
3.47445e-05
2.79098e-05
2.62255e-05
2.10256e-05
1.97443e-05
1.57895e-05
1.48156e-05
1.18118e-05
1.10728e-05
8.7963e-06
8.23691e-06
6.51647e-06
6.09434e-06
4.79862e-06
4.48124e-06
3.50936e-06
3.27178e-06
2.54624e-06
2.36929e-06
1.83066e-06
1.69966e-06
1.30238e-06
1.20606e-06
9.15294e-07
8.45068e-07
6.3422e-07
5.83525e-07
4.32314e-07
3.96105e-07
2.88894e-07
2.62403e-07
1.82427e-07
1.23216e-07
1.09694e-07
7.54735e-08
6.75643e-08
4.55996e-08
4.05814e-08
2.67766e-08
2.36596e-08
1.52511e-08
1.33742e-08
8.41516e-09
7.32005e-09
4.48493e-09
3.86503e-09
2.29131e-09
1.95054e-09
1.10228e-09
9.20605e-10
4.78551e-10
3.85414e-10
1.66378e-10
1.22775e-10
3.27809e-11
1.7066e-11
-3.29877e-12
-6.41929e-12
-7.07101e-12
-7.22161e-12
-7.25532e-12
0.00055118
0.000503769
0.000495605
0.000383097
0.000372433
0.000277625
0.00026917
0.000201815
0.000195614
0.000147225
0.00011166
0.000108301
8.37336e-05
8.14807e-05
6.32397e-05
6.15668e-05
4.78378e-05
4.6576e-05
3.61753e-05
3.52183e-05
2.73138e-05
2.65862e-05
2.05721e-05
2.00186e-05
1.54445e-05
1.50238e-05
1.15497e-05
1.12304e-05
8.59746e-06
8.35581e-06
6.36606e-06
6.1837e-06
4.68522e-06
4.54811e-06
3.42419e-06
3.32156e-06
2.48257e-06
2.40613e-06
1.78331e-06
1.72672e-06
1.26738e-06
1.22578e-06
8.89617e-07
8.59285e-07
6.15546e-07
5.93652e-07
4.18888e-07
4.03256e-07
2.7956e-07
2.68203e-07
1.79686e-07
1.17235e-07
1.11525e-07
7.2323e-08
6.8917e-08
4.3588e-08
4.14231e-08
2.55042e-08
2.41596e-08
1.44704e-08
1.3661e-08
7.95146e-09
7.4794e-09
4.21808e-09
3.95097e-09
2.14225e-09
1.99547e-09
1.02138e-09
9.43154e-10
4.35986e-10
3.95898e-10
1.44708e-10
1.25956e-10
2.33162e-11
1.65919e-11
-5.66602e-12
-6.97123e-12
-7.20045e-12
-7.25248e-12
-7.2641e-12
0.00296593
0.000676104
0.000557406
0.000440091
0.000428258
0.000374903
0.000369374
0.00032138
0.000316268
0.000269836
0.000227544
0.000223295
0.000187844
0.000184401
0.000154053
0.000151134
0.000125554
0.000123108
0.000101822
9.97959e-05
8.22568e-05
8.05924e-05
6.62483e-05
6.48904e-05
5.3226e-05
5.21238e-05
4.26802e-05
4.17892e-05
3.41698e-05
3.34517e-05
2.7321e-05
2.67438e-05
2.18219e-05
2.13589e-05
1.74149e-05
1.70441e-05
1.38888e-05
1.35924e-05
1.10717e-05
1.0835e-05
8.82375e-06
8.63496e-06
7.032e-06
6.88158e-06
5.60507e-06
5.48531e-06
4.46925e-06
4.37376e-06
3.56433e-06
3.48502e-06
2.81874e-06
2.27656e-06
2.22384e-06
1.81155e-06
1.77255e-06
1.44172e-06
1.41044e-06
1.14257e-06
1.11714e-06
8.98146e-07
8.77237e-07
6.9593e-07
6.78499e-07
5.26054e-07
5.11291e-07
3.80951e-07
3.68357e-07
2.57253e-07
2.46769e-07
1.56761e-07
1.48546e-07
8.10841e-08
7.50289e-08
2.61854e-08
2.26206e-08
3.11975e-09
2.04793e-09
1.86554e-09
1.82437e-09
1.81517e-09
0.00272134
0.000861436
0.00059213
0.000457637
0.000428017
0.000379343
0.000366367
0.000324657
0.000312689
0.00027028
0.000231161
0.000221182
0.00019045
0.000182476
0.000156269
0.000149517
0.000127429
0.000121771
0.000103388
9.86991e-05
8.35499e-05
7.96987e-05
6.73078e-05
6.41657e-05
5.40889e-05
5.15385e-05
4.33796e-05
4.13177e-05
3.47346e-05
3.30729e-05
2.77758e-05
2.644e-05
2.21873e-05
2.11157e-05
1.77078e-05
1.68497e-05
1.41233e-05
1.34372e-05
1.1259e-05
1.07112e-05
8.97329e-06
8.53641e-06
7.15122e-06
6.80313e-06
5.70003e-06
5.42286e-06
4.54473e-06
4.32363e-06
3.6226e-06
3.43737e-06
2.83185e-06
2.32511e-06
2.20091e-06
1.84263e-06
1.75225e-06
1.46624e-06
1.39383e-06
1.16234e-06
1.10349e-06
9.14245e-07
8.65857e-07
7.09191e-07
6.68854e-07
5.37143e-07
5.02985e-07
3.90429e-07
3.613e-07
2.65437e-07
2.41193e-07
1.63531e-07
1.44528e-07
8.62389e-08
7.2241e-08
3.02679e-08
2.20221e-08
4.99932e-09
2.48547e-09
1.96824e-09
1.84911e-09
1.82241e-09
0.00255114
0.000983139
0.000621458
0.000470985
0.000428536
0.000382353
0.000364507
0.000326743
0.000310326
0.00027059
0.00023361
0.000219898
0.000192145
0.000181279
0.000157706
0.000148513
0.000128646
0.000120941
0.000104405
9.802e-05
8.43904e-05
7.91461e-05
6.7997e-05
6.37181e-05
5.46503e-05
5.11771e-05
4.38348e-05
4.10269e-05
3.51023e-05
3.28393e-05
2.8072e-05
2.62528e-05
2.24252e-05
2.09658e-05
1.78986e-05
1.673e-05
1.4276e-05
1.33416e-05
1.13811e-05
1.0635e-05
9.07073e-06
8.47573e-06
7.22891e-06
6.75484e-06
5.7619e-06
5.38442e-06
4.5939e-06
4.29267e-06
3.66021e-06
3.40651e-06
2.841e-06
2.35834e-06
2.18733e-06
1.86298e-06
1.73976e-06
1.4822e-06
1.38358e-06
1.1752e-06
1.09504e-06
9.24702e-07
8.58803e-07
7.17794e-07
6.6286e-07
5.44326e-07
4.97811e-07
3.96568e-07
3.56909e-07
2.70755e-07
2.37752e-07
1.67954e-07
1.4208e-07
8.96213e-08
7.05716e-08
3.3001e-08
2.17746e-08
6.29841e-09
2.84307e-09
2.05498e-09
1.87012e-09
1.82857e-09
0.00244366
0.00105658
0.000642331
0.000480006
0.0004292
0.000384225
0.00036344
0.000327972
0.000308893
0.000270787
0.000235127
0.000219174
0.000193162
0.000180588
0.000158567
0.000147934
0.000129375
0.000120464
0.000105014
9.76298e-05
8.48947e-05
7.88289e-05
6.84105e-05
6.34613e-05
5.49874e-05
5.097e-05
4.41082e-05
4.08602e-05
3.53232e-05
3.27056e-05
2.82499e-05
2.61456e-05
2.25681e-05
2.08801e-05
1.80132e-05
1.66614e-05
1.43678e-05
1.32869e-05
1.14545e-05
1.05915e-05
9.1293e-06
8.44103e-06
7.2756e-06
6.72723e-06
5.7991e-06
5.36243e-06
4.62344e-06
4.27491e-06
3.68263e-06
3.38809e-06
2.8468e-06
2.37908e-06
2.17985e-06
1.87527e-06
1.73262e-06
1.49179e-06
1.3777e-06
1.18292e-06
1.09019e-06
9.30973e-07
8.54744e-07
7.22946e-07
6.59403e-07
5.48623e-07
4.94821e-07
4.0024e-07
3.54375e-07
2.73943e-07
2.3578e-07
1.70618e-07
1.40694e-07
9.16662e-08
6.96422e-08
3.46798e-08
2.16966e-08
7.11646e-09
3.09387e-09
2.11752e-09
1.88536e-09
1.83305e-09
0.00239165
0.0010911
0.000653118
0.000484559
0.000429624
0.000385124
0.000362955
0.00032854
0.000308217
0.000270883
0.000235851
0.000218849
0.000193638
0.000180273
0.000158969
0.00014767
0.000129716
0.000120247
0.0001053
9.74523e-05
8.5131e-05
7.86847e-05
6.86044e-05
6.33447e-05
5.51454e-05
5.08759e-05
4.42364e-05
4.07846e-05
3.54268e-05
3.26449e-05
2.83333e-05
2.6097e-05
2.26352e-05
2.08412e-05
1.8067e-05
1.66304e-05
1.44108e-05
1.32622e-05
1.14889e-05
1.05717e-05
9.15678e-06
8.42531e-06
7.29752e-06
6.71472e-06
5.81655e-06
5.35247e-06
4.6373e-06
4.26684e-06
3.6931e-06
3.37949e-06
2.84961e-06
2.38904e-06
2.17657e-06
1.88105e-06
1.72939e-06
1.49629e-06
1.37503e-06
1.18653e-06
1.08799e-06
9.3391e-07
8.52896e-07
7.25358e-07
6.57827e-07
5.50632e-07
4.93455e-07
4.01956e-07
3.53219e-07
2.75437e-07
2.34885e-07
1.71869e-07
1.40071e-07
9.26295e-08
6.92293e-08
3.54787e-08
2.16821e-08
7.51196e-09
3.22269e-09
2.15022e-09
1.89337e-09
1.8354e-09
0.00239165
0.0010911
0.000653118
0.000484559
0.000429624
0.000385124
0.000362955
0.00032854
0.000308217
0.000270884
0.000235851
0.000218849
0.000193638
0.000180273
0.000158969
0.00014767
0.000129716
0.000120247
0.0001053
9.74523e-05
8.5131e-05
7.86847e-05
6.86044e-05
6.33447e-05
5.51454e-05
5.08759e-05
4.42364e-05
4.07846e-05
3.54268e-05
3.26449e-05
2.83333e-05
2.6097e-05
2.26352e-05
2.08412e-05
1.8067e-05
1.66304e-05
1.44108e-05
1.32622e-05
1.14889e-05
1.05717e-05
9.15678e-06
8.42531e-06
7.29752e-06
6.71472e-06
5.81655e-06
5.35247e-06
4.6373e-06
4.26684e-06
3.6931e-06
3.37949e-06
2.84961e-06
2.38904e-06
2.17657e-06
1.88105e-06
1.72939e-06
1.49629e-06
1.37503e-06
1.18653e-06
1.08799e-06
9.3391e-07
8.52896e-07
7.25358e-07
6.57827e-07
5.50632e-07
4.93455e-07
4.01956e-07
3.53219e-07
2.75437e-07
2.34885e-07
1.71869e-07
1.40071e-07
9.26294e-08
6.92293e-08
3.54787e-08
2.16821e-08
7.51195e-09
3.22268e-09
2.15022e-09
1.89337e-09
1.83539e-09
0.00244367
0.00105658
0.000642331
0.000480006
0.0004292
0.000384225
0.00036344
0.000327972
0.000308893
0.000270788
0.000235127
0.000219174
0.000193162
0.000180588
0.000158567
0.000147934
0.000129375
0.000120464
0.000105014
9.76298e-05
8.48947e-05
7.88289e-05
6.84106e-05
6.34613e-05
5.49874e-05
5.097e-05
4.41082e-05
4.08602e-05
3.53232e-05
3.27056e-05
2.82499e-05
2.61456e-05
2.25681e-05
2.08801e-05
1.80132e-05
1.66615e-05
1.43678e-05
1.32869e-05
1.14545e-05
1.05915e-05
9.1293e-06
8.44103e-06
7.27561e-06
6.72723e-06
5.7991e-06
5.36244e-06
4.62344e-06
4.27491e-06
3.68263e-06
3.38809e-06
2.8468e-06
2.37908e-06
2.17986e-06
1.87527e-06
1.73262e-06
1.49179e-06
1.3777e-06
1.18292e-06
1.09019e-06
9.30973e-07
8.54744e-07
7.22946e-07
6.59403e-07
5.48623e-07
4.94821e-07
4.0024e-07
3.54375e-07
2.73943e-07
2.3578e-07
1.70617e-07
1.40694e-07
9.16661e-08
6.96421e-08
3.46797e-08
2.16966e-08
7.11642e-09
3.09385e-09
2.11751e-09
1.88536e-09
1.83304e-09
0.00255115
0.000983139
0.000621458
0.000470985
0.000428536
0.000382353
0.000364507
0.000326743
0.000310327
0.00027059
0.00023361
0.000219898
0.000192145
0.000181279
0.000157707
0.000148513
0.000128646
0.000120942
0.000104405
9.80201e-05
8.43905e-05
7.91461e-05
6.7997e-05
6.37181e-05
5.46504e-05
5.11771e-05
4.38349e-05
4.10269e-05
3.51023e-05
3.28393e-05
2.8072e-05
2.62528e-05
2.24252e-05
2.09659e-05
1.78986e-05
1.673e-05
1.4276e-05
1.33416e-05
1.13811e-05
1.0635e-05
9.07073e-06
8.47573e-06
7.22891e-06
6.75484e-06
5.76191e-06
5.38442e-06
4.5939e-06
4.29267e-06
3.66021e-06
3.40651e-06
2.841e-06
2.35834e-06
2.18733e-06
1.86298e-06
1.73976e-06
1.4822e-06
1.38358e-06
1.1752e-06
1.09504e-06
9.24703e-07
8.58803e-07
7.17794e-07
6.62861e-07
5.44326e-07
4.97811e-07
3.96568e-07
3.56909e-07
2.70755e-07
2.37752e-07
1.67954e-07
1.4208e-07
8.96212e-08
7.05715e-08
3.30009e-08
2.17745e-08
6.29836e-09
2.84304e-09
2.05496e-09
1.87011e-09
1.82857e-09
0.00272134
0.000861436
0.00059213
0.000457637
0.000428018
0.000379343
0.000366367
0.000324658
0.000312689
0.00027028
0.000231161
0.000221182
0.00019045
0.000182476
0.000156269
0.000149518
0.000127429
0.000121771
0.000103388
9.86991e-05
8.35499e-05
7.96987e-05
6.73079e-05
6.41658e-05
5.40889e-05
5.15385e-05
4.33797e-05
4.13178e-05
3.47346e-05
3.3073e-05
2.77758e-05
2.644e-05
2.21873e-05
2.11157e-05
1.77078e-05
1.68497e-05
1.41233e-05
1.34372e-05
1.1259e-05
1.07112e-05
8.97329e-06
8.53641e-06
7.15122e-06
6.80314e-06
5.70003e-06
5.42286e-06
4.54474e-06
4.32363e-06
3.6226e-06
3.43737e-06
2.83185e-06
2.32511e-06
2.20091e-06
1.84263e-06
1.75225e-06
1.46624e-06
1.39383e-06
1.16234e-06
1.10349e-06
9.14245e-07
8.65858e-07
7.09192e-07
6.68855e-07
5.37143e-07
5.02985e-07
3.90429e-07
3.613e-07
2.65437e-07
2.41193e-07
1.63531e-07
1.44528e-07
8.62388e-08
7.22409e-08
3.02678e-08
2.20221e-08
4.99928e-09
2.48544e-09
1.96823e-09
1.8491e-09
1.82241e-09
0.00296593
0.000676104
0.000557406
0.000440091
0.000428258
0.000374903
0.000369374
0.00032138
0.000316268
0.000269836
0.000227544
0.000223295
0.000187844
0.000184401
0.000154053
0.000151135
0.000125554
0.000123108
0.000101822
9.97959e-05
8.22569e-05
8.05924e-05
6.62483e-05
6.48904e-05
5.3226e-05
5.21239e-05
4.26803e-05
4.17892e-05
3.41698e-05
3.34518e-05
2.7321e-05
2.67438e-05
2.18219e-05
2.13589e-05
1.74149e-05
1.70441e-05
1.38888e-05
1.35924e-05
1.10717e-05
1.0835e-05
8.82375e-06
8.63497e-06
7.032e-06
6.88159e-06
5.60508e-06
5.48531e-06
4.46926e-06
4.37376e-06
3.56433e-06
3.48502e-06
2.81874e-06
2.27656e-06
2.22384e-06
1.81155e-06
1.77255e-06
1.44172e-06
1.41044e-06
1.14257e-06
1.11714e-06
8.98146e-07
8.77237e-07
6.9593e-07
6.78499e-07
5.26054e-07
5.11291e-07
3.80951e-07
3.68357e-07
2.57253e-07
2.46769e-07
1.56761e-07
1.48546e-07
8.10841e-08
7.50289e-08
2.61853e-08
2.26205e-08
3.11973e-09
2.04792e-09
1.86554e-09
1.82437e-09
1.81517e-09
0.00296191
0.000671534
0.000552824
0.000435808
0.00042401
0.000371063
0.000365577
0.000318009
0.000312943
0.000266941
0.000225053
0.000220845
0.000185744
0.000182334
0.000152295
0.000149407
0.000124094
0.000121674
0.000100617
9.86128e-05
8.12674e-05
7.96216e-05
6.54399e-05
6.40975e-05
5.25682e-05
5.14789e-05
4.2147e-05
4.12665e-05
3.3739e-05
3.30296e-05
2.6974e-05
2.64038e-05
2.15431e-05
2.10859e-05
1.71915e-05
1.68254e-05
1.37103e-05
1.34176e-05
1.09293e-05
1.06956e-05
8.71037e-06
8.52403e-06
6.94188e-06
6.79342e-06
5.53354e-06
5.41534e-06
4.41255e-06
4.3183e-06
3.51944e-06
3.44117e-06
2.78359e-06
2.24847e-06
2.19644e-06
1.7895e-06
1.75101e-06
1.42446e-06
1.39358e-06
1.12917e-06
1.10406e-06
8.87856e-07
8.67212e-07
6.88186e-07
6.70973e-07
5.20405e-07
5.05821e-07
3.77033e-07
3.64585e-07
2.54726e-07
2.44357e-07
1.55288e-07
1.47157e-07
8.03624e-08
7.43646e-08
2.59556e-08
2.24224e-08
3.09172e-09
2.02927e-09
1.84848e-09
1.80767e-09
1.79855e-09
0.00271727
0.000856918
0.000587586
0.000453339
0.000423801
0.000375476
0.0003626
0.000321258
0.000309398
0.000267382
0.000228636
0.000218753
0.000188324
0.000180429
0.000154489
0.000147807
0.00012595
0.000120351
0.000102166
9.75282e-05
8.25463e-05
7.87381e-05
6.64875e-05
6.33813e-05
5.34211e-05
5.09005e-05
4.28381e-05
4.08008e-05
3.4297e-05
3.26554e-05
2.74232e-05
2.61039e-05
2.1904e-05
2.08458e-05
1.74808e-05
1.66335e-05
1.39418e-05
1.32644e-05
1.11142e-05
1.05735e-05
8.85799e-06
8.42676e-06
7.05955e-06
6.716e-06
5.62726e-06
5.35371e-06
4.48704e-06
4.26882e-06
3.57695e-06
3.39414e-06
2.79653e-06
2.29639e-06
2.17381e-06
1.82018e-06
1.73097e-06
1.44866e-06
1.37719e-06
1.14868e-06
1.09058e-06
9.03749e-07
8.55974e-07
7.0128e-07
6.61445e-07
5.31356e-07
4.97612e-07
3.86397e-07
3.57605e-07
2.62817e-07
2.38837e-07
1.61986e-07
1.43177e-07
8.54649e-08
7.16e-08
3.00014e-08
2.1829e-08
4.95485e-09
2.46298e-09
1.95028e-09
1.83218e-09
1.80573e-09
0.00254703
0.000978656
0.000616942
0.000466679
0.00042434
0.000378469
0.000360759
0.000323326
0.000307058
0.00026769
0.000231062
0.000217482
0.000190002
0.000179245
0.000155912
0.000146813
0.000127154
0.000119531
0.000103172
9.68568e-05
8.33777e-05
7.81919e-05
6.71689e-05
6.29389e-05
5.39761e-05
5.05435e-05
4.3288e-05
4.05135e-05
3.46603e-05
3.24247e-05
2.77157e-05
2.5919e-05
2.21389e-05
2.06978e-05
1.76692e-05
1.65153e-05
1.40925e-05
1.31701e-05
1.12347e-05
1.04983e-05
8.95417e-06
8.36687e-06
7.13624e-06
6.66833e-06
5.68833e-06
5.31577e-06
4.53557e-06
4.23827e-06
3.61407e-06
3.36368e-06
2.80555e-06
2.32919e-06
2.1604e-06
1.84027e-06
1.71864e-06
1.46442e-06
1.36707e-06
1.16137e-06
1.08224e-06
9.14073e-07
8.49008e-07
7.09774e-07
6.55524e-07
5.3845e-07
4.92499e-07
3.92461e-07
3.53262e-07
2.68073e-07
2.3543e-07
1.66362e-07
1.40753e-07
8.88128e-08
6.99442e-08
3.27099e-08
2.15833e-08
6.24256e-09
2.81745e-09
2.03625e-09
1.85301e-09
1.81183e-09
0.00243952
0.00105212
0.000637832
0.000475696
0.000425016
0.000380331
0.000359703
0.000324545
0.000305639
0.000267887
0.000232564
0.000216765
0.000191009
0.000178562
0.000156764
0.00014624
0.000127875
0.000119059
0.000103775
9.6471e-05
8.38764e-05
7.78783e-05
6.75779e-05
6.26852e-05
5.43093e-05
5.03389e-05
4.35582e-05
4.03489e-05
3.48785e-05
3.22926e-05
2.78915e-05
2.58131e-05
2.22801e-05
2.06132e-05
1.77824e-05
1.64477e-05
1.41832e-05
1.31161e-05
1.13072e-05
1.04553e-05
9.01198e-06
8.33263e-06
7.18233e-06
6.64108e-06
5.72504e-06
5.29407e-06
4.56473e-06
4.22074e-06
3.6362e-06
3.3455e-06
2.81127e-06
2.34965e-06
2.15303e-06
1.8524e-06
1.7116e-06
1.47388e-06
1.36127e-06
1.16899e-06
1.07745e-06
9.20262e-07
8.45e-07
7.1486e-07
6.52109e-07
5.42693e-07
4.89543e-07
3.96087e-07
3.50754e-07
2.71225e-07
2.33478e-07
1.68997e-07
1.3938e-07
9.08368e-08
6.90222e-08
3.43735e-08
2.15059e-08
7.05345e-09
3.06606e-09
2.09825e-09
1.86812e-09
1.81627e-09
0.0023875
0.00108664
0.000648627
0.000480247
0.000425446
0.000381226
0.000359224
0.000325109
0.000304969
0.000267982
0.000233282
0.000216444
0.000191481
0.00017825
0.000157162
0.000145979
0.000128213
0.000118844
0.000104058
9.62955e-05
8.41102e-05
7.77358e-05
6.77696e-05
6.25699e-05
5.44656e-05
5.02459e-05
4.36848e-05
4.02742e-05
3.49809e-05
3.22327e-05
2.79739e-05
2.57651e-05
2.23464e-05
2.05748e-05
1.78355e-05
1.6417e-05
1.42257e-05
1.30917e-05
1.13411e-05
1.04358e-05
9.03911e-06
8.31711e-06
7.20396e-06
6.62873e-06
5.74227e-06
5.28424e-06
4.57841e-06
4.21278e-06
3.64653e-06
3.33701e-06
2.81405e-06
2.35949e-06
2.14978e-06
1.85811e-06
1.70841e-06
1.47832e-06
1.35863e-06
1.17256e-06
1.07528e-06
9.23162e-07
8.43175e-07
7.17241e-07
6.50551e-07
5.44677e-07
4.88194e-07
3.97783e-07
3.4961e-07
2.72701e-07
2.32591e-07
1.70235e-07
1.38762e-07
9.17901e-08
6.86125e-08
3.51652e-08
2.14915e-08
7.44548e-09
3.19375e-09
2.13067e-09
1.87606e-09
1.8186e-09
0.0023875
0.00108664
0.000648627
0.000480247
0.000425446
0.000381226
0.000359224
0.000325109
0.000304969
0.000267982
0.000233282
0.000216444
0.000191482
0.00017825
0.000157162
0.000145979
0.000128213
0.000118844
0.000104058
9.62955e-05
8.41102e-05
7.77358e-05
6.77696e-05
6.25699e-05
5.44656e-05
5.0246e-05
4.36849e-05
4.02742e-05
3.49809e-05
3.22327e-05
2.79739e-05
2.57651e-05
2.23464e-05
2.05748e-05
1.78355e-05
1.6417e-05
1.42257e-05
1.30917e-05
1.13411e-05
1.04358e-05
9.03911e-06
8.31711e-06
7.20396e-06
6.62874e-06
5.74227e-06
5.28424e-06
4.57841e-06
4.21278e-06
3.64653e-06
3.33701e-06
2.81405e-06
2.35949e-06
2.14978e-06
1.85811e-06
1.70841e-06
1.47832e-06
1.35863e-06
1.17256e-06
1.07528e-06
9.23162e-07
8.43175e-07
7.17241e-07
6.50551e-07
5.44677e-07
4.88194e-07
3.97783e-07
3.4961e-07
2.72701e-07
2.32591e-07
1.70235e-07
1.38762e-07
9.17901e-08
6.86125e-08
3.51652e-08
2.14915e-08
7.44546e-09
3.19374e-09
2.13066e-09
1.87606e-09
1.81859e-09
0.00243953
0.00105212
0.000637832
0.000475696
0.000425016
0.000380331
0.000359703
0.000324545
0.000305639
0.000267887
0.000232564
0.000216765
0.000191009
0.000178562
0.000156764
0.00014624
0.000127875
0.000119059
0.000103775
9.6471e-05
8.38765e-05
7.78783e-05
6.75779e-05
6.26852e-05
5.43093e-05
5.03389e-05
4.35582e-05
4.03489e-05
3.48785e-05
3.22926e-05
2.78915e-05
2.58131e-05
2.22801e-05
2.06132e-05
1.77824e-05
1.64477e-05
1.41832e-05
1.31161e-05
1.13072e-05
1.04553e-05
9.01199e-06
8.33263e-06
7.18233e-06
6.64108e-06
5.72505e-06
5.29407e-06
4.56473e-06
4.22074e-06
3.6362e-06
3.3455e-06
2.81128e-06
2.34965e-06
2.15303e-06
1.8524e-06
1.7116e-06
1.47388e-06
1.36127e-06
1.16899e-06
1.07745e-06
9.20263e-07
8.45e-07
7.1486e-07
6.52109e-07
5.42693e-07
4.89543e-07
3.96087e-07
3.50754e-07
2.71225e-07
2.33477e-07
1.68997e-07
1.3938e-07
9.08367e-08
6.90221e-08
3.43735e-08
2.15059e-08
7.05341e-09
3.06604e-09
2.09824e-09
1.86812e-09
1.81626e-09
0.00254703
0.000978655
0.000616942
0.000466679
0.00042434
0.000378469
0.000360759
0.000323327
0.000307058
0.000267691
0.000231062
0.000217483
0.000190002
0.000179245
0.000155912
0.000146813
0.000127154
0.000119531
0.000103172
9.68569e-05
8.33777e-05
7.81919e-05
6.71689e-05
6.29389e-05
5.39762e-05
5.05435e-05
4.3288e-05
4.05135e-05
3.46603e-05
3.24248e-05
2.77157e-05
2.5919e-05
2.2139e-05
2.06978e-05
1.76692e-05
1.65153e-05
1.40926e-05
1.31701e-05
1.12347e-05
1.04983e-05
8.95418e-06
8.36688e-06
7.13624e-06
6.66834e-06
5.68834e-06
5.31577e-06
4.53557e-06
4.23827e-06
3.61407e-06
3.36369e-06
2.80555e-06
2.32919e-06
2.1604e-06
1.84027e-06
1.71864e-06
1.46442e-06
1.36707e-06
1.16137e-06
1.08224e-06
9.14073e-07
8.49008e-07
7.09774e-07
6.55524e-07
5.3845e-07
4.92499e-07
3.92461e-07
3.53262e-07
2.68073e-07
2.3543e-07
1.66362e-07
1.40752e-07
8.88127e-08
6.99441e-08
3.27098e-08
2.15833e-08
6.24251e-09
2.81742e-09
2.03624e-09
1.85301e-09
1.81182e-09
0.00271727
0.000856918
0.000587587
0.000453339
0.000423801
0.000375476
0.0003626
0.000321259
0.000309399
0.000267382
0.000228636
0.000218753
0.000188324
0.000180429
0.000154489
0.000147807
0.00012595
0.000120351
0.000102166
9.75283e-05
8.25464e-05
7.87382e-05
6.64875e-05
6.33813e-05
5.34212e-05
5.09005e-05
4.28381e-05
4.08008e-05
3.4297e-05
3.26555e-05
2.74232e-05
2.61039e-05
2.1904e-05
2.08458e-05
1.74808e-05
1.66335e-05
1.39418e-05
1.32645e-05
1.11142e-05
1.05735e-05
8.85799e-06
8.42676e-06
7.05956e-06
6.716e-06
5.62726e-06
5.35371e-06
4.48705e-06
4.26883e-06
3.57695e-06
3.39414e-06
2.79653e-06
2.29639e-06
2.17381e-06
1.82018e-06
1.73097e-06
1.44866e-06
1.37719e-06
1.14868e-06
1.09058e-06
9.03749e-07
8.55975e-07
7.0128e-07
6.61446e-07
5.31357e-07
4.97612e-07
3.86397e-07
3.57605e-07
2.62817e-07
2.38837e-07
1.61986e-07
1.43177e-07
8.54648e-08
7.15999e-08
3.00014e-08
2.18289e-08
4.95481e-09
2.46296e-09
1.95026e-09
1.83218e-09
1.80572e-09
0.00296191
0.000671534
0.000552824
0.000435808
0.00042401
0.000371063
0.000365577
0.000318009
0.000312943
0.000266941
0.000225053
0.000220845
0.000185744
0.000182335
0.000152295
0.000149407
0.000124094
0.000121674
0.000100617
9.86128e-05
8.12675e-05
7.96216e-05
6.54399e-05
6.40975e-05
5.25682e-05
5.14789e-05
4.2147e-05
4.12666e-05
3.3739e-05
3.30296e-05
2.6974e-05
2.64039e-05
2.15432e-05
2.10859e-05
1.71915e-05
1.68254e-05
1.37103e-05
1.34176e-05
1.09293e-05
1.06956e-05
8.71038e-06
8.52404e-06
6.94188e-06
6.79343e-06
5.53355e-06
5.41534e-06
4.41255e-06
4.3183e-06
3.51944e-06
3.44117e-06
2.78359e-06
2.24847e-06
2.19644e-06
1.7895e-06
1.75101e-06
1.42447e-06
1.39358e-06
1.12917e-06
1.10406e-06
8.87857e-07
8.67212e-07
6.88187e-07
6.70973e-07
5.20405e-07
5.05821e-07
3.77033e-07
3.64585e-07
2.54726e-07
2.44357e-07
1.55288e-07
1.47157e-07
8.03623e-08
7.43646e-08
2.59556e-08
2.24224e-08
3.09171e-09
2.02926e-09
1.84847e-09
1.80767e-09
1.79854e-09
0.000547844
0.000500621
0.000492498
0.000380591
0.000369986
0.000275724
0.000267318
0.000200377
0.000194215
0.000146142
0.000110819
0.000107483
8.30893e-05
8.08525e-05
6.27445e-05
6.10839e-05
4.74574e-05
4.62052e-05
3.58838e-05
3.49341e-05
2.70909e-05
2.6369e-05
2.04023e-05
1.98532e-05
1.53157e-05
1.48983e-05
1.14523e-05
1.11357e-05
8.52428e-06
8.28462e-06
6.31136e-06
6.13052e-06
4.6446e-06
4.50865e-06
3.39424e-06
3.29249e-06
2.46068e-06
2.3849e-06
1.76746e-06
1.71136e-06
1.25603e-06
1.21479e-06
8.81588e-07
8.51524e-07
6.09951e-07
5.88252e-07
4.15054e-07
3.99562e-07
2.76983e-07