/*--------------------------------*- C++ -*----------------------------------*\
| =========                 |                                                 |
| \\      /  F ield         | OpenFOAM: The Open Source CFD Toolbox           |
|  \\    /   O peration     | Version:  5.x                                   |
|   \\  /    A nd           | Web:      www.OpenFOAM.org                      |
|    \\/     M anipulation  |                                                 |
\*---------------------------------------------------------------------------*/
FoamFile
{
    version     2.0;
    format      ascii;
    class       volScalarField;
    location    "7.3";
    object      gradTx;
}
// * * * * * * * * * * * * * * * * * * * * * * * * * * * * * * * * * * * * * //

dimensions      [0 -1 0 1 0 0 0];

internalField   nonuniform List<scalar> 
6300
(
89.068
89.629
90.7394
92.3752
94.4985
97.0549
99.9716
103.155
106.489
109.836
113.041
115.936
118.352
120.132
121.141
88.5047
89.0773
90.2116
91.8855
94.0629
96.6922
99.7025
103.002
106.473
109.976
113.348
116.413
118.987
120.898
122.003
87.3665
87.9613
89.142
90.8896
93.173
95.9458
99.1423
102.673
106.422
110.243
113.961
117.376
120.28
122.469
123.771
85.6312
86.2571
87.5031
89.3556
91.7914
94.7733
98.2451
102.125
106.298
110.612
114.873
118.849
122.286
124.926
126.546
83.2675
83.9307
85.2552
87.2358
89.8612
93.1085
96.9374
101.28
106.03
111.03
116.066
120.86
125.086
128.4
130.493
80.2384
80.9407
82.3489
84.4691
87.3065
90.8599
95.1137
100.025
105.508
111.411
117.499
123.436
128.794
133.091
135.874
76.5048
77.2424
78.7284
80.983
84.0333
87.9085
92.6299
98.1969
104.563
111.605
119.079
126.587
133.56
139.295
143.085
72.0314
72.7937
74.337
76.6988
79.9332
84.1083
89.2981
95.5667
102.941
111.363
120.622
130.272
139.562
147.441
152.748
66.7936
67.5617
69.1252
71.5397
74.8901
79.2913
84.885
91.8288
100.268
110.281
121.771
134.316
146.97
158.156
165.864
60.7857
61.5322
63.0603
65.4425
68.7941
73.2796
79.1197
86.5927
96.0205
107.718
121.863
138.246
155.843
172.345
184.129
54.0293
54.7193
56.1393
58.374
61.5621
65.9112
71.7193
79.3994
89.501
102.703
119.716
140.96
165.809
191.248
210.624
46.5811
47.1744
48.4017
50.3502
53.167
57.0819
62.4448
69.7823
79.8787
93.8755
113.334
140.065
175.179
216.211
251.502
38.5378
38.9939
39.9412
41.4564
43.6719
46.8028
51.1939
57.4041
66.3538
79.5839
99.6756
130.783
178.628
246.91
320.684
30.0367
30.3204
30.9112
31.8606
33.2599
35.2616
38.1223
42.2845
48.5464
58.4284
74.9988
104.761
161.636
272.112
455.195
21.2505
21.3384
21.5211
21.8136
22.2438
22.86
23.7474
25.0633
27.1172
30.5821
37.1272
51.6254
91.0377
224.703
774.582
121.344
120.833
119.685
117.919
115.571
112.692
109.343
105.589
101.492
97.1139
92.5093
87.7265
82.8074
77.7874
72.6966
67.5608
62.4021
57.24
52.0919
46.9737
41.8997
36.8829
31.9351
27.0665
22.2861
17.6013
13.0182
8.54121
4.17345
-0.0833051
-4.22855
-8.26286
-12.1877
-16.0051
-19.7177
-23.328
-26.8386
-30.2518
-33.5696
-36.7935
-39.9249
-42.965
-45.9153
-48.7778
-51.5548
-54.2497
-56.8662
-59.4087
-61.8818
-64.29
-66.6369
-68.9255
-71.1575
-73.3329
-75.4507
-77.5083
-79.5027
-81.4299
-83.2861
-85.0679
-86.7719
-88.3953
-89.9357
-91.3901
-92.7548
-94.0248
-95.1931
-96.2501
-97.1839
-97.9802
-98.6222
-99.0923
-99.3718
-99.4429
-99.2891
-98.8961
-98.2528
-97.3518
-96.1895
-94.7664
-93.0876
-91.162
-89.0033
-86.6295
-84.063
-81.331
-78.4648
-75.4995
-72.4729
-69.4246
122.253
121.748
120.574
118.754
116.332
113.367
109.926
106.079
101.895
97.4381
92.7638
87.9211
82.951
77.8878
72.7602
67.5926
62.4059
57.2188
52.0481
46.9093
41.8166
36.7831
31.8205
26.9392
22.1482
17.4549
12.8654
8.38398
4.01379
-0.243631
-4.38799
-8.42013
-12.3418
-16.1556
-19.8643
-23.4709
-26.9782
-30.3886
-33.704
-36.926
-40.0554
-43.0934
-46.0409
-48.8998
-51.6722
-54.3615
-56.9717
-59.5076
-61.9743
-64.3769
-66.7197
-69.006
-71.2376
-73.4148
-75.5359
-77.5983
-79.598
-81.5308
-83.3922
-85.1784
-86.8864
-88.5137
-90.0581
-91.5178
-92.8898
-94.1699
-95.3517
-96.426
-97.3807
-98.2006
-98.8685
-99.365
-99.6704
-99.7654
-99.6319
-99.255
-98.6225
-97.7266
-96.5634
-95.1334
-93.4414
-91.4963
-89.3117
-86.9055
-84.3001
-81.523
-78.6063
-75.5865
-72.5032
-69.3981
124.119
123.622
122.389
120.453
117.873
114.724
111.09
107.052
102.69
98.0728
93.259
88.2973
83.227
78.0794
72.8801
67.6505
62.4091
57.1729
51.9574
46.7777
41.6478
36.5807
31.5885
26.6817
21.8693
17.159
12.5567
8.06677
3.69194
-0.56649
-4.70866
-8.73599
-12.651
-16.4569
-20.1573
-23.7561
-27.2565
-30.6613
-33.9723
-37.1906
-40.3168
-43.3509
-46.2934
-49.1451
-51.9082
-54.586
-57.183
-59.7049
-62.1581
-64.5488
-66.8827
-69.164
-71.395
-73.5759
-75.7046
-77.7772
-79.7885
-81.7329
-83.605
-85.4004
-87.1158
-88.7497
-90.3012
-91.7702
-93.1556
-94.4552
-95.6637
-96.7727
-97.7697
-98.6386
-99.3598
-99.9114
-100.271
-100.415
-100.324
-99.9801
-99.37
-98.4847
-97.32
-95.8762
-94.1579
-92.1742
-89.9379
-87.4668
-84.7831
-81.9147
-78.8952
-75.7636
-72.5636
-69.3417
127.047
126.555
125.214
123.077
120.231
116.779
112.831
108.49
103.851
98.9882
93.9652
88.8283
83.6125
78.3439
73.0423
67.7241
62.4039
57.096
51.8145
46.5737
41.3878
36.2701
31.2331
26.2877
21.4433
16.7076
12.0863
7.58386
3.20264
-1.0565
-5.19435
-9.21322
-13.1167
-16.9094
-20.5962
-24.1823
-27.6718
-31.0682
-34.3732
-37.5873
-40.7098
-43.7396
-46.6755
-49.5172
-52.2662
-54.9258
-57.5013
-60.0002
-62.4306
-64.8014
-67.1202
-69.3931
-71.6233
-73.8109
-75.9528
-78.043
-80.0741
-82.0379
-83.9271
-85.736
-87.4614
-89.1028
-90.6619
-92.1413
-93.5437
-94.87
-96.1175
-97.279
-98.3418
-99.2878
-100.094
-100.733
-101.179
-101.402
-101.378
-101.087
-100.512
-99.6437
-98.477
-97.0126
-95.2554
-93.2141
-90.9011
-88.3328
-85.5308
-82.5228
-79.3441
-76.038
-72.6545
-69.2484
131.213
130.709
129.181
126.72
123.458
119.546
115.135
110.358
105.329
100.133
94.8334
89.471
84.0726
78.6544
73.2271
67.7993
62.3801
56.9801
51.612
46.2901
41.0289
35.8429
30.7454
25.7481
20.8608
16.0911
11.445
6.92647
2.53773
-1.72089
-5.85102
-9.85616
-13.7415
-17.5137
-21.1797
-24.7467
-28.2207
-31.6059
-34.9041
-38.1149
-41.2356
-44.2626
-47.1921
-50.0219
-52.7519
-55.3854
-57.9291
-60.3928
-62.7881
-65.1275
-67.4227
-69.6825
-71.9118
-74.1106
-76.2739
-78.3927
-80.4552
-82.4491
-84.3634
-86.1903
-87.9266
-89.5733
-91.1357
-92.6219
-94.0401
-95.3967
-96.6936
-97.9259
-99.0807
-100.137
-101.066
-101.834
-102.405
-102.743
-102.817
-102.601
-102.076
-101.231
-100.061
-98.5692
-96.7605
-94.6439
-92.2304
-89.5341
-86.5737
-83.3753
-79.9754
-76.4226
-72.7769
-69.1066
136.892
136.334
134.49
131.515
127.62
123.031
117.961
112.587
107.044
101.426
95.7897
90.1639
84.5596
78.9766
73.4113
67.861
62.3274
56.8173
51.3425
45.9182
40.561
35.2877
30.1131
25.05
20.1086
15.2966
10.6199
6.0823
1.68568
-2.57003
-6.68731
-10.6711
-14.529
-18.2702
-21.9052
-25.4445
-28.8967
-32.268
-35.5602
-38.7713
-41.8955
-44.9249
-47.8515
-50.6691
-53.3755
-55.9734
-58.4713
-60.8826
-63.2248
-65.5164
-67.7751
-70.0147
-72.2431
-74.4602
-76.6581
-78.8222
-80.9339
-82.9735
-84.9241
-86.7741
-88.5193
-90.1636
-91.7181
-93.1989
-94.6237
-96.0081
-97.3613
-98.6829
-99.9603
-101.168
-102.268
-103.216
-103.964
-104.463
-104.672
-104.558
-104.099
-103.283
-102.108
-100.581
-98.7077
-96.4997
-93.9655
-91.1143
-87.9579
-84.5168
-80.8257
-76.9397
-72.9338
-68.8982
144.509
143.81
141.425
137.631
132.776
127.207
121.223
115.057
108.867
102.744
96.7285
90.8243
85.0141
79.2719
73.5725
67.8976
62.2397
56.6027
50.9994
45.4488
39.9721
34.5899
29.3199
24.1764
19.1698
14.3075
9.59473
5.03523
0.630959
-3.61822
-7.71536
-11.6671
-15.4838
-19.179
-22.7681
-26.2668
-29.6887
-33.043
-36.3324
-39.5521
-42.691
-45.7344
-48.6668
-51.4757
-54.1543
-56.7044
-59.1368
-61.4712
-63.7332
-65.9515
-68.1537
-70.362
-72.5893
-74.8361
-77.0896
-79.3261
-81.515
-83.6249
-85.6284
-87.5074
-89.256
-90.8819
-92.4053
-93.8552
-95.2643
-96.6629
-98.073
-99.5023
-100.939
-102.351
-103.688
-104.887
-105.879
-106.6
-106.991
-107.011
-106.633
-105.849
-104.663
-103.087
-101.136
-98.8237
-96.1558
-93.1326
-89.7512
-86.0167
-81.9558
-77.6282
-73.1323
-68.5957
154.732
153.709
150.386
145.274
138.959
131.976
124.747
117.561
110.59
103.905
97.5053
91.3476
85.3691
79.5044
73.697
67.9083
62.1211
56.3386
50.5798
44.8725
39.2467
33.7299
28.3443
23.1055
18.0231
13.1029
8.349
3.76482
-0.646818
-4.88496
-8.95235
-12.8571
-16.6132
-20.24
-23.7605
-27.199
-30.5774
-33.9109
-37.2041
-40.4482
-43.6232
-46.7028
-49.6592
-52.4687
-55.1172
-57.6037
-59.9426
-62.1628
-64.3034
-66.4088
-68.5224
-70.6808
-72.9064
-75.2012
-77.5446
-79.8971
-82.2087
-84.4281
-86.5108
-88.4273
-90.1679
-91.7463
-93.1969
-94.5689
-95.9184
-97.2996
-98.7559
-100.309
-101.952
-103.641
-105.305
-106.852
-108.185
-109.209
-109.844
-110.035
-109.752
-108.994
-107.778
-106.132
-104.085
-101.658
-98.8565
-95.6652
-92.0514
-87.9857
-83.4685
-78.558
-73.3884
-68.1552
168.648
166.916
161.919
154.645
146.101
137.098
128.203
119.754
111.901
104.654
97.9316
91.611
85.5589
79.6527
73.7934
67.9159
61.9944
56.0393
50.0853
44.1782
38.3637
32.6808
27.1573
21.8092
16.6428
11.659
6.85907
2.24622
-2.17407
-6.39715
-10.4231
-14.2605
-17.928
-21.4532
-24.8703
-28.217
-31.5297
-34.8362
-38.1456
-41.4427
-44.6921
-47.8477
-50.8618
-53.6927
-56.3124
-58.7145
-60.9183
-62.9678
-64.9233
-66.853
-68.8256
-70.9017
-73.1224
-75.4952
-77.9852
-80.5258
-83.0341
-85.4266
-87.6314
-89.5988
-91.3122
-92.7935
-94.1003
-95.3136
-96.5254
-97.8269
-99.2972
-100.987
-102.896
-104.966
-107.088
-109.125
-110.933
-112.375
-113.336
-113.738
-113.553
-112.796
-111.51
-109.752
-107.578
-105.029
-102.118
-98.8046
-95.0011
-90.6036
-85.5461
-79.8597
-73.735
-67.5014
188.12
184.821
176.726
165.845
153.899
142.061
131.014
121.084
112.337
104.645
97.7777
91.4861
85.5371
79.7319
73.9146
67.9856
61.9151
55.7377
49.5225
43.3497
37.2909
31.4018
25.7173
20.2513
14.9994
9.95073
5.09994
0.450709
-3.98485
-8.19273
-12.1647
-15.9079
-19.4471
-22.8215
-26.0807
-29.283
-32.4901
-35.7562
-39.1041
-42.5048
-45.8949
-49.1954
-52.3274
-55.2195
-57.8199
-60.1094
-62.1151
-63.907
-65.579
-67.2342
-68.9784
-70.9131
-73.1185
-75.6189
-78.3518
-81.1996
-84.0247
-86.6943
-89.0922
-91.1349
-92.7892
-94.0904
-95.1367
-96.0592
-97.0017
-98.1096
-99.5215
-101.345
-103.608
-106.216
-108.992
-111.727
-114.208
-116.232
-117.629
-118.286
-118.177
-117.357
-115.92
-113.97
-111.609
-108.922
-105.955
-102.649
-98.8046
-94.1704
-88.528
-81.7912
-74.237
-66.4899
216.6
209.627
195.54
178.575
161.539
145.882
132.214
120.706
111.253
103.444
96.7935
90.8659
85.3067
79.827
74.1954
68.2577
61.9888
55.4894
48.898
42.3565
35.9732
29.828
23.9623
18.3852
13.0635
7.95769
3.0509
-1.65205
-6.12299
-10.3275
-14.2349
-17.8482
-21.2029
-24.3548
-27.3724
-30.3409
-33.3649
-36.5576
-39.9854
-43.5815
-47.2254
-50.7848
-54.1372
-57.1651
-59.7741
-61.912
-63.6185
-65.0179
-66.2575
-67.4862
-68.8557
-70.5335
-72.6884
-75.4066
-78.5519
-81.9046
-85.2381
-88.3517
-91.0631
-93.2291
-94.7732
-95.7531
-96.3498
-96.7745
-97.2383
-97.9531
-99.1519
-101.069
-103.822
-107.22
-110.953
-114.693
-118.138
-120.991
-122.987
-123.936
-123.823
-122.804
-121.065
-118.78
-116.108
-113.219
-110.276
-107.267
-103.744
-99.1873
-93.0843
-84.8987
-75.0155
-64.8085
261.102
244.673
218.496
191.401
167.195
146.835
130.303
117.367
107.799
100.575
94.766
89.7136
84.9603
80.1395
74.9158
69.0057
62.3936
55.3728
48.2011
41.1352
34.3125
27.8515
21.7918
16.1512
10.817
5.67837
0.708765
-4.08842
-8.64424
-12.8893
-16.7282
-20.1601
-23.2499
-26.0808
-28.7341
-31.3183
-33.9958
-37.0195
-40.6234
-44.5884
-48.6767
-52.6713
-56.4129
-59.7131
-62.4056
-64.3347
-65.563
-66.3578
-66.9507
-67.5345
-68.288
-69.4657
-71.4461
-74.5782
-78.4519
-82.6361
-86.767
-90.5871
-93.8181
-96.2175
-97.5681
-97.9663
-97.8093
-97.4323
-97.1121
-97.0982
-97.7471
-99.5861
-103.105
-107.741
-112.902
-118.084
-122.919
-126.98
-129.853
-131.11
-130.774
-129.286
-126.996
-124.147
-120.915
-117.591
-114.69
-112.626
-110.169
-106.43
-100.638
-90.4497
-76.2591
-61.6956
337.638
293.751
242.771
200.061
167.308
142.275
123.208
109.173
100.97
95.6643
91.6476
88.1287
84.7097
81.0306
76.6233
70.7635
63.3858
55.4726
47.3512
39.563
32.1305
25.2969
19.0176
13.4764
8.289
3.15607
-1.88113
-6.87172
-11.6122
-16.0353
-19.8068
-22.9639
-25.6687
-28.0614
-30.1945
-32.1602
-34.1274
-36.6447
-40.7406
-45.4166
-50.262
-54.9209
-59.3233
-63.1348
-66.1353
-67.7651
-68.1304
-67.9873
-67.6557
-67.3372
-67.1081
-67.2408
-68.5442
-72.6808
-77.9036
-83.4431
-88.7419
-93.6697
-97.769
-100.715
-101.733
-100.978
-99.5838
-98.0069
-96.5433
-95.2871
-94.6273
-95.6827
-100.779
-107.506
-114.817
-121.972
-128.814
-134.678
-139.044
-140.575
-139.384
-136.918
-133.731
-130.062
-125.856
-121.35
-117.899
-118.549
-118.44
-116.625
-114.522
-101.762
-78.0385
-55.1098
487.488
353.04
255.132
194.379
156.3
129.121
108.866
92.5788
89.9681
88.8952
87.8105
86.3982
84.8321
82.9689
80.4209
74.7062
65.148
55.8716
46.021
37.4783
29.0861
21.9441
15.1807
10.2923
5.68293
0.496459
-4.53755
-10.0144
-15.0366
-20.1186
-23.7692
-26.4181
-28.5359
-30.4151
-31.8951
-32.9989
-33.4658
-33.9961
-40.0213
-45.9999
-52.1145
-57.5387
-63.0835
-67.723
-71.8376
-73.0151
-71.429
-69.8869
-68.3409
-67.0102
-65.4061
-63.3292
-61.5614
-69.218
-76.8981
-84.5954
-91.2496
-97.944
-103.38
-107.985
-108.451
-104.907
-101.62
-98.4169
-95.6747
-92.616
-89.0359
-85.9594
-96.1016
-106.431
-116.955
-126.308
-136.114
-144.533
-152.316
-153.959
-149.828
-145.586
-141.158
-136.748
-131.226
-123.586
-115.203
-125.561
-129.165
-127.235
-143.748
-128.862
-78.6717
-39.3091
828.771
359.702
213.986
156.041
129.595
105.994
88.8059
56.2891
76.7495
82.1414
84.4433
84.8876
85.3809
85.8915
88.7771
84.1823
66.5034
57.0966
42.8069
35.1766
24.2415
18.0462
8.64374
6.70701
3.90828
-2.38205
-6.55552
-13.8109
-18.3737
-26.262
-29.1729
-30.636
-31.7455
-33.3426
-34.1365
-34.7536
-32.712
-23.434
-39.3678
-46.3865
-54.9602
-59.9817
-68.1459
-73.0656
-81.7681
-82.2432
-74.6629
-71.7909
-68.7149
-67.0759
-64.3836
-58.9715
-41.0065
-65.7204
-75.8665
-87.2487
-93.698
-104.029
-110.185
-121.215
-120.941
-108.466
-103.536
-98.1611
-95.2603
-90.6944
-82.7181
-57.2
-91.154
-105.072
-120.777
-129.99
-145.41
-155.301
-174.425
-175.658
-160.428
-154.518
-148.56
-145.031
-139.644
-126.893
-85.5167
-142.298
-147.859
-111.283
-218.189
-206.797
-63.7119
1.27386
-66.0949
-62.5429
-59.1346
-55.9192
-52.9351
-50.2096
-47.7601
-45.5953
-43.7175
-42.1245
-40.811
-39.7708
-38.9973
-38.4851
-38.23
-66.0089
-62.3983
-58.9408
-55.6871
-52.6756
-49.9328
-47.4746
-45.3076
-43.4322
-41.8443
-40.5372
-39.5034
-38.7355
-38.2273
-37.9743
-65.8303
-62.0997
-58.5423
-55.2117
-52.1465
-49.3709
-46.897
-44.7275
-42.8586
-41.2825
-39.9895
-38.9695
-38.2134
-37.7137
-37.4652
-65.5447
-61.6269
-57.9161
-54.4702
-51.327
-48.5064
-46.0143
-43.8462
-41.9917
-40.4371
-39.1681
-38.1711
-37.4342
-36.9483
-36.7069
-65.128
-60.9463
-57.0242
-53.4251
-50.184
-47.3129
-44.8067
-42.6506
-40.824
-39.3055
-38.0742
-37.112
-36.4036
-35.9378
-35.7068
-64.5423
-60.0049
-55.8085
-52.0211
-48.6704
-45.7535
-43.2486
-41.1246
-39.3478
-37.886
-36.7108
-35.7983
-35.13
-34.6919
-34.4751
-63.7278
-58.7218
-54.1828
-50.1798
-46.7223
-43.7814
-41.3088
-39.2508
-37.556
-36.1794
-35.0839
-34.24
-33.6254
-33.2242
-33.0261
-62.5885
-56.971
-52.0201
-47.7921
-44.257
-41.3404
-38.9539
-37.0132
-35.4453
-34.1912
-33.2049
-32.452
-31.9071
-31.5529
-31.3784
-60.9627
-54.5528
-49.1338
-44.7108
-41.1726
-38.3685
-36.1528
-34.4022
-33.0202
-31.9345
-31.0921
-30.4553
-29.9975
-29.7013
-29.5558
-58.5627
-51.1428
-45.2505
-40.744
-37.3533
-34.8079
-32.8859
-31.422
-30.2985
-29.4341
-28.7734
-28.279
-27.9261
-27.6986
-27.5871
-54.8426
-46.2044
-39.9806
-35.6608
-32.6881
-30.6231
-29.1605
-28.1009
-27.3171
-26.7295
-26.2879
-25.9608
-25.7287
-25.5796
-25.5066
-48.7039
-38.8512
-32.8063
-29.2299
-27.1148
-25.8355
-25.0319
-24.5034
-24.1393
-23.8785
-23.6874
-23.5472
-23.448
-23.384
-23.3526
-37.8337
-27.6892
-23.1631
-21.337
-20.7054
-20.5717
-20.6277
-20.7411
-20.8577
-20.9575
-21.0355
-21.0925
-21.1315
-21.1555
-21.1669
-17.2718
-10.9084
-10.8196
-12.2493
-13.7978
-15.1178
-16.1657
-16.9754
-17.5926
-18.0581
-18.4042
-18.6555
-18.8297
-18.9393
-18.9923
23.5108
12.147
3.04261
-3.04242
-7.11856
-9.93587
-11.9418
-13.4018
-14.4789
-15.2778
-15.8676
-16.2952
-16.5922
-16.7796
-16.8703
13.1146
13.0169
12.8114
12.4764
11.974
11.2419
10.1766
8.5994
6.17887
2.23141
-4.88044
-19.9225
-60.078
-200.289
-816.651
5.78532
5.52577
4.98267
4.1035
2.79662
0.910538
-1.80596
-5.78301
-11.7966
-21.3453
-37.5625
-67.5263
-127.973
-255.984
-494.327
-1.36452
-1.76921
-2.61346
-3.97313
-5.97925
-8.84479
-12.9138
-18.7519
-27.3178
-40.2919
-60.6988
-93.9603
-148.949
-235.059
-337.513
-8.23404
-8.75965
-9.85234
-11.6015
-14.1589
-17.765
-22.7936
-29.8271
-39.7782
-54.0774
-74.9086
-105.306
-148.31
-202.781
-251.846
-14.7392
-15.3569
-16.6359
-18.6691
-21.6108
-25.6977
-31.2817
-38.8766
-49.2194
-63.3264
-82.4748
-107.898
-139.707
-174.256
-200.25
-20.816
-21.4955
-22.8964
-25.1063
-28.2678
-32.5913
-38.3737
-46.0184
-56.0468
-69.0744
-85.6823
-106.056
-129.2
-151.671
-166.703
-26.4214
-27.1337
-28.5954
-30.8832
-34.1182
-38.472
-44.1728
-51.5051
-60.7921
-72.336
-86.2739
-102.291
-119.16
-134.251
-143.595
-31.5326
-32.2519
-33.7212
-36.0027
-39.1919
-43.4175
-48.839
-55.6345
-63.9702
-73.9352
-85.4212
-97.9327
-110.355
-120.82
-126.974
-36.1447
-36.8497
-38.2833
-40.4923
-43.5461
-47.5327
-52.5512
-58.6945
-66.0171
-74.4783
-83.8563
-93.6358
-102.91
-110.383
-114.625
-40.2676
-40.9418
-42.3071
-44.3956
-47.2528
-50.9314
-55.4822
-60.9356
-67.2732
-74.3848
-82.0122
-89.6897
-96.7134
-102.19
-105.223
-43.9225
-44.5545
-45.829
-47.7654
-50.3891
-53.7247
-57.7866
-62.5626
-67.9917
-73.9331
-80.1332
-86.1975
-91.5913
-95.6937
-97.9251
-47.1388
-47.7212
-48.8914
-50.6583
-53.0312
-56.0138
-59.595
-63.7362
-68.3543
-73.3018
-78.3483
-83.1707
-87.3658
-90.4964
-92.1769
-49.9508
-50.48
-51.5396
-53.1305
-55.2501
-57.8873
-61.0146
-64.5787
-68.4881
-72.6016
-76.7188
-80.5794
-83.8792
-86.3058
-87.5955
-52.3956
-52.8706
-53.8189
-55.2356
-57.1098
-59.4206
-62.1311
-65.1813
-68.4801
-71.8988
-75.2673
-78.3775
-80.9988
-82.9044
-83.9096
-54.5106
-54.9328
-55.7732
-57.0231
-58.6663
-60.6763
-63.0117
-65.6112
-68.3889
-71.231
-73.9949
-76.5151
-78.6152
-80.1281
-80.9215
-56.3327
-56.7046
-57.4433
-58.5375
-59.9683
-61.7062
-63.7089
-65.9173
-68.253
-70.6172
-72.8917
-74.9444
-76.6392
-77.8514
-78.4841
-57.8965
-58.2219
-58.8666
-59.8184
-61.0569
-62.5524
-64.2633
-66.1349
-68.0974
-70.0658
-71.9425
-73.6219
-74.9984
-75.9771
-76.486
-59.2345
-59.5174
-60.0769
-60.9002
-61.9672
-63.2488
-64.7062
-66.2896
-67.9375
-69.578
-71.1303
-72.5098
-73.6336
-74.4289
-74.8412
-60.3762
-60.6208
-61.1039
-61.813
-62.7285
-63.8233
-65.0617
-66.3993
-67.7828
-69.1513
-70.4382
-71.5752
-72.4968
-73.1465
-73.4826
-61.3481
-61.5587
-61.9741
-62.5824
-63.3654
-64.2981
-65.3484
-66.4772
-67.6385
-68.7812
-69.8501
-70.79
-71.5488
-72.082
-72.3572
-62.1738
-62.3544
-62.7104
-63.2305
-63.8983
-64.6911
-65.5805
-66.5324
-67.5073
-68.4622
-69.3516
-70.1306
-70.7573
-71.1966
-71.4229
-62.874
-63.0285
-63.3326
-63.7762
-64.3445
-65.0172
-65.7694
-66.5715
-67.39
-68.1887
-68.9299
-69.5768
-70.0959
-70.459
-70.6458
-63.467
-63.5988
-63.8579
-64.2355
-64.7181
-65.288
-65.9236
-66.5992
-67.2865
-67.955
-68.5735
-69.1119
-69.5428
-69.8437
-69.9984
-63.9685
-64.0807
-64.3011
-64.6218
-65.031
-65.5133
-66.0499
-66.6189
-67.1961
-67.756
-68.2728
-68.7215
-69.08
-69.33
-69.4583
-64.3922
-64.4875
-64.6746
-64.9466
-65.2932
-65.701
-66.1538
-66.6328
-67.1177
-67.587
-68.0192
-68.3938
-68.6926
-68.9006
-69.0074
-64.7497
-64.8305
-64.9892
-65.2196
-65.5129
-65.8575
-66.2394
-66.6427
-67.0502
-67.4438
-67.8056
-68.1187
-68.3681
-68.5416
-68.6306
-65.051
-65.1196
-65.254
-65.449
-65.697
-65.988
-66.3101
-66.6497
-66.9922
-67.3226
-67.6258
-67.8879
-68.0964
-68.2413
-68.3155
-65.3048
-65.3629
-65.4766
-65.6417
-65.8513
-66.097
-66.3686
-66.6546
-66.9427
-67.2202
-67.4746
-67.6942
-67.8687
-67.9899
-68.0521
-65.5183
-65.5675
-65.6638
-65.8033
-65.9805
-66.188
-66.4171
-66.6581
-66.9006
-67.1339
-67.3475
-67.5318
-67.6781
-67.7797
-67.8317
-65.6977
-65.7393
-65.8208
-65.9389
-66.0887
-66.264
-66.4574
-66.6606
-66.8649
-67.0613
-67.2409
-67.3957
-67.5185
-67.6038
-67.6474
-65.8482
-65.8835
-65.9525
-66.0525
-66.1792
-66.3274
-66.4908
-66.6624
-66.8347
-67.0002
-67.1515
-67.2818
-67.3851
-67.4568
-67.4935
-65.9743
-66.0042
-66.0627
-66.1474
-66.2548
-66.3803
-66.5185
-66.6636
-66.8092
-66.949
-67.0767
-67.1865
-67.2737
-67.3341
-67.365
-66.0796
-66.105
-66.1547
-66.2267
-66.3178
-66.4243
-66.5415
-66.6645
-66.7879
-66.9062
-67.0142
-67.1071
-67.1808
-67.2318
-67.2579
-66.1673
-66.1889
-66.2313
-66.2926
-66.3702
-66.4608
-66.5606
-66.6651
-66.77
-66.8705
-66.9622
-67.0411
-67.1036
-67.1469
-67.169
-66.24
-66.2585
-66.2947
-66.3472
-66.4135
-66.491
-66.5763
-66.6656
-66.7551
-66.8409
-66.9191
-66.9864
-67.0397
-67.0766
-67.0955
-66.2998
-66.3157
-66.3469
-66.392
-66.4492
-66.5158
-66.5891
-66.6659
-66.7428
-66.8165
-66.8837
-66.9414
-66.9872
-67.0188
-67.035
-66.3486
-66.3624
-66.3895
-66.4286
-66.4782
-66.536
-66.5996
-66.6661
-66.7328
-66.7966
-66.8548
-66.9048
-66.9444
-66.9718
-66.9858
-66.3877
-66.3998
-66.4236
-66.458
-66.5014
-66.5522
-66.6079
-66.6663
-66.7247
-66.7806
-66.8316
-66.8754
-66.9101
-66.9341
-66.9464
-66.4184
-66.4292
-66.4504
-66.481
-66.5197
-66.5648
-66.6145
-66.6664
-66.7184
-66.7681
-66.8135
-66.8524
-66.8832
-66.9045
-66.9155
-66.4416
-66.4515
-66.4706
-66.4984
-66.5335
-66.5744
-66.6194
-66.6665
-66.7136
-66.7586
-66.7997
-66.835
-66.8629
-66.8822
-66.8921
-66.4581
-66.4672
-66.485
-66.5107
-66.5432
-66.5812
-66.6229
-66.6665
-66.7102
-66.7519
-66.79
-66.8227
-66.8485
-66.8664
-66.8756
-66.4682
-66.4768
-66.4938
-66.5182
-66.5492
-66.5853
-66.625
-66.6665
-66.7081
-66.7478
-66.784
-66.8151
-66.8397
-66.8567
-66.8654
-66.4722
-66.4807
-66.4973
-66.5213
-66.5517
-66.587
-66.6259
-66.6666
-66.7072
-66.7462
-66.7816
-66.8121
-66.8361
-66.8528
-66.8613
-66.4704
-66.479
-66.4957
-66.52
-66.5506
-66.5863
-66.6255
-66.6666
-66.7076
-66.7469
-66.7827
-66.8134
-66.8377
-66.8545
-66.8631
-66.4627
-66.4716
-66.489
-66.5142
-66.546
-66.5831
-66.6239
-66.6665
-66.7092
-66.7501
-66.7873
-66.8192
-66.8445
-66.862
-66.8709
-66.4488
-66.4583
-66.4769
-66.5037
-66.5377
-66.5774
-66.6209
-66.6665
-66.7121
-66.7557
-66.7955
-66.8296
-66.8566
-66.8753
-66.8849
-66.4282
-66.4386
-66.459
-66.4884
-66.5256
-66.5689
-66.6166
-66.6665
-66.7164
-66.7641
-66.8076
-66.845
-66.8746
-66.895
-66.9055
-66.4005
-66.4121
-66.4348
-66.4676
-66.5091
-66.5575
-66.6107
-66.6664
-66.7221
-66.7755
-66.8241
-66.8658
-66.8988
-66.9217
-66.9334
-66.3647
-66.3778
-66.4036
-66.4408
-66.4879
-66.5428
-66.6031
-66.6663
-66.7295
-66.7901
-66.8452
-66.8926
-66.9301
-66.9561
-66.9694
-66.3198
-66.3349
-66.3644
-66.4071
-66.4612
-66.5242
-66.5935
-66.6661
-66.7388
-66.8084
-66.8718
-66.9263
-66.9695
-66.9993
-67.0146
-66.2644
-66.2819
-66.3161
-66.3656
-66.4282
-66.5013
-66.5817
-66.6659
-66.7502
-66.831
-66.9046
-66.9679
-67.018
-67.0527
-67.0704
-66.1968
-66.2172
-66.2572
-66.3149
-66.3881
-66.4734
-66.5673
-66.6656
-66.7641
-66.8585
-66.9446
-67.0186
-67.0772
-67.1178
-67.1386
-66.1151
-66.1391
-66.1859
-66.2536
-66.3394
-66.4395
-66.5497
-66.6652
-66.7809
-66.8918
-66.993
-67.08
-67.1489
-67.1967
-67.2211
-66.0168
-66.045
-66.1001
-66.1798
-66.2807
-66.3987
-66.5285
-66.6646
-66.801
-66.9319
-67.0513
-67.154
-67.2354
-67.2918
-67.3206
-65.899
-65.9322
-65.9972
-66.0912
-66.2103
-66.3496
-66.5029
-66.6637
-66.825
-66.9798
-67.1212
-67.2428
-67.3391
-67.406
-67.4401
-65.7581
-65.7973
-65.8741
-65.9852
-66.126
-66.2907
-66.4721
-66.6625
-66.8536
-67.0371
-67.2047
-67.349
-67.4635
-67.5428
-67.5834
-65.5901
-65.6364
-65.7271
-65.8585
-66.0252
-66.2201
-66.435
-66.6608
-66.8875
-67.1053
-67.3045
-67.476
-67.6121
-67.7065
-67.7548
-65.3898
-65.4446
-65.5519
-65.7074
-65.9047
-66.1356
-66.3905
-66.6583
-66.9276
-67.1865
-67.4234
-67.6276
-67.7897
-67.9022
-67.9598
-65.1516
-65.2164
-65.3433
-65.5273
-65.7609
-66.0346
-66.3368
-66.6549
-66.975
-67.283
-67.5651
-67.8085
-68.0018
-68.136
-68.2048
-64.8684
-64.9449
-65.095
-65.3127
-65.5894
-65.9137
-66.2723
-66.65
-67.0307
-67.3974
-67.7337
-68.0241
-68.2549
-68.4153
-68.4975
-64.5321
-64.6225
-64.7998
-65.0573
-65.3847
-65.769
-66.1944
-66.6432
-67.0961
-67.533
-67.9341
-68.2809
-68.5569
-68.7488
-68.8472
-64.133
-64.2397
-64.4491
-64.7533
-65.1405
-65.5957
-66.1003
-66.6335
-67.1725
-67.6933
-68.1723
-68.587
-68.9174
-69.1473
-69.2652
-63.6598
-63.7856
-64.0325
-64.3915
-64.8492
-65.388
-65.9864
-66.6199
-67.2615
-67.8827
-68.4552
-68.9515
-69.3476
-69.6234
-69.765
-63.0993
-63.2473
-63.5381
-63.9614
-64.5017
-65.1389
-65.8482
-66.6007
-67.3646
-68.1061
-68.7908
-69.3857
-69.8612
-70.1928
-70.3632
-62.4362
-62.61
-62.9517
-63.4499
-64.087
-64.8398
-65.6798
-66.5735
-67.4833
-68.3688
-69.1887
-69.9028
-70.4747
-70.8742
-71.0796
-61.6523
-61.856
-62.2569
-62.842
-63.5918
-64.4802
-65.4743
-66.5352
-67.6189
-68.6771
-69.66
-70.5186
-71.2079
-71.6903
-71.9386
-60.7272
-60.9651
-61.434
-62.1197
-63.0005
-64.0471
-65.2223
-66.4812
-67.772
-69.0376
-70.2176
-71.252
-72.0848
-72.6689
-72.9699
-59.6368
-59.9139
-60.4608
-61.262
-62.2942
-63.5248
-64.9122
-66.4049
-67.9428
-69.4576
-70.8764
-72.1252
-73.1343
-73.8439
-74.2103
-58.354
-58.6756
-59.3109
-60.244
-61.45
-62.8937
-64.5289
-66.2974
-68.1294
-69.9442
-71.6532
-73.1649
-74.3916
-75.2572
-75.705
-56.8481
-57.2194
-57.9543
-59.0367
-60.4408
-62.1296
-64.0529
-66.1459
-68.3281
-70.5042
-72.5668
-74.4024
-75.8998
-76.9604
-77.5106
-55.0843
-55.5108
-56.3565
-57.606
-59.234
-61.2027
-63.4592
-65.9324
-68.531
-71.1429
-73.638
-75.8749
-77.711
-79.0181
-79.6982
-53.0246
-53.5113
-54.4784
-55.9126
-57.7906
-60.076
-62.7151
-65.632
-68.7246
-71.8626
-74.8886
-77.6254
-79.8894
-81.5109
-82.358
-50.6271
-51.1782
-52.2761
-53.9111
-56.0643
-58.7038
-61.7781
-65.2094
-68.8866
-72.6599
-76.34
-79.7042
-82.5138
-84.5414
-85.6058
-47.847
-48.4655
-49.7012
-51.5498
-54.0006
-57.0298
-60.5932
-64.6162
-68.9819
-73.522
-78.0105
-82.1679
-85.6812
-88.2407
-89.5925
-44.6377
-45.3244
-46.7007
-48.7707
-51.5352
-54.9848
-59.0894
-63.7848
-68.9561
-74.4199
-79.9107
-85.0789
-89.5107
-92.7782
-94.5178
-40.9519
-41.7046
-43.2186
-45.5094
-48.5943
-52.485
-57.1753
-62.6231
-68.7272
-75.299
-82.0347
-88.5009
-94.1485
-98.3765
-100.651
-36.7436
-37.5563
-39.1975
-41.6969
-45.0941
-49.4302
-54.7352
-61.0056
-68.1735
-76.064
-84.3458
-92.4912
-99.7718
-105.331
-108.363
-31.9714
-32.8331
-34.5807
-37.2613
-40.942
-45.7029
-51.6247
-58.7648
-67.1181
-76.5571
-86.7514
-97.0819
-106.59
-114.041
-118.18
-26.6011
-27.4951
-29.3164
-32.1316
-36.0399
-41.1696
-47.6684
-55.6816
-65.3087
-76.5254
-89.0623
-102.243
-114.837
-125.049
-130.871
-20.6104
-21.5135
-23.3622
-26.2432
-30.2901
-35.6858
-42.6606
-51.4778
-62.3953
-75.5769
-90.9256
-107.812
-124.736
-139.106
-147.605
-13.9931
-14.8758
-16.6917
-19.5455
-23.6039
-29.1058
-36.3734
-45.8157
-57.9097
-73.1235
-91.7205
-113.355
-136.408
-157.239
-170.239
-6.76341
-7.59071
-9.30102
-12.0119
-15.9157
-21.3001
-28.5764
-38.3124
-51.2575
-68.3204
-90.4054
-117.914
-149.62
-180.811
-201.899
1.04011
0.306932
-1.2161
-3.65043
-7.19987
-12.1811
-19.0715
-28.5808
-41.746
-60.0298
-85.3237
-119.558
-163.189
-211.398
-248.202
9.35201
8.75234
7.50093
5.48475
2.50962
-1.7367
-7.74846
-16.3107
-28.6802
-46.8713
-74.0337
-114.674
-173.579
-249.903
-320.062
18.0795
17.6495
16.7482
15.2851
13.1012
9.93299
5.3451
-1.39709
-11.5723
-27.4832
-53.384
-97.1056
-171.872
-292.687
-440.64
27.1046
26.873
26.3849
25.5852
24.3754
22.5878
19.9339
15.8997
9.518
-1.15815
-20.3592
-57.978
-138.185
-316.622
-663.96
36.2896
36.2736
36.2369
36.169
36.05
35.8433
35.4804
34.8257
33.5895
31.0859
25.4553
10.7249
-36.2829
-223.261
-1128.48
45.4846
45.6873
46.1095
46.7873
47.7844
49.2061
51.2283
54.1541
58.5396
65.5003
77.588
101.842
162.821
368.879
1293.7
54.5375
54.9476
55.8034
57.1828
59.2227
62.1508
66.3472
72.4672
81.6997
96.3527
121.271
167.453
261.173
461.874
842.828
63.3042
63.8971
65.1323
67.1183
70.0429
74.2133
80.1287
88.6169
101.094
120.075
150.184
200.051
285.226
429.687
656.539
76.6581
31.2099
12.9818
3.55576
-2.14973
-5.92933
-8.57025
-10.4767
-11.8796
-12.9206
-13.6909
-14.251
-14.6413
-14.8883
-15.008
48.4421
29.6366
15.9048
6.97034
1.02999
-3.07772
-6.01513
-8.16715
-9.76774
-10.9655
-11.8579
-12.5104
-12.9672
-13.2571
-13.3979
33.2848
24.5398
15.496
8.30562
2.93704
-1.0388
-4.00537
-6.24043
-7.93557
-9.22228
-10.1913
-10.9057
-11.4087
-11.7294
-11.8855
24.2
19.6501
13.8001
8.37565
3.87687
0.299271
-2.50356
-4.6886
-6.38696
-7.69958
-8.70154
-9.44761
-9.97683
-10.3159
-10.4814
18.2748
15.6629
11.8084
7.80279
4.17695
1.0993
-1.43076
-3.47468
-5.10615
-6.39252
-7.38936
-8.14002
-8.67686
-9.02272
-9.19213
14.1631
12.5386
9.92158
6.96611
4.0963
1.51905
-0.69553
-2.54715
-4.06494
-5.28647
-6.24806
-6.98081
-7.50943
-7.85201
-8.02039
11.1793
10.1035
8.26965
6.06986
3.81245
1.68691
-0.21235
-1.85142
-3.22942
-4.36088
-5.26559
-5.96331
-6.4711
-6.80218
-6.96549
8.94253
8.19477
6.87173
5.21356
3.43697
1.69762
0.0901421
-1.33697
-2.56508
-3.5927
-4.42682
-5.07763
-5.55541
-5.8688
-6.02392
7.22491
6.68542
5.70646
4.43943
3.03561
1.61673
0.267376
-0.960693
-2.03995
-2.95885
-3.71529
-4.31206
-4.75382
-5.04526
-5.19001
5.88187
5.4812
4.74117
3.76026
2.64465
1.48756
0.360377
-0.687747
-1.62616
-2.43779
-3.11462
-3.65409
-4.05656
-4.32354
-4.45657
4.817
4.51257
3.9431
3.1746
2.28247
1.33759
0.398474
-0.490979
-1.3004
-2.01033
-2.60929
-3.09121
-3.45334
-3.69479
-3.81546
3.96349
3.72796
3.28321
2.67474
1.95691
1.1836
0.402077
-0.349783
-1.04372
-1.6599
-2.18522
-2.61148
-2.9339
-3.14988
-3.25812
3.27349
3.0886
2.73698
2.2508
1.66985
1.03531
0.385076
-0.248812
-0.841011
-1.37255
-1.8299
-2.20384
-2.48835
-2.67974
-2.7759
2.71185
2.56499
2.28417
1.89264
1.41999
0.897905
0.356718
-0.176789
-0.680422
-1.13671
-1.5325
-1.85828
-2.10745
-2.2757
-2.36043
2.25217
2.13439
1.90821
1.59079
1.20445
0.773754
0.323023
-0.125511
-0.552703