/*--------------------------------*- C++ -*----------------------------------*\
| =========                 |                                                 |
| \\      /  F ield         | OpenFOAM: The Open Source CFD Toolbox           |
|  \\    /   O peration     | Version:  5.x                                   |
|   \\  /    A nd           | Web:      www.OpenFOAM.org                      |
|    \\/     M anipulation  |                                                 |
\*---------------------------------------------------------------------------*/
FoamFile
{
    version     2.0;
    format      ascii;
    class       volScalarField;
    location    "8.2";
    object      gradTy;
}
// * * * * * * * * * * * * * * * * * * * * * * * * * * * * * * * * * * * * * //

dimensions      [0 -1 0 1 0 0 0];

internalField   nonuniform List<scalar> 
6300
(
1035.11
1105.58
1176.8
1249.28
1323.47
1399.8
1478.65
1560.31
1645
1732.83
1823.77
1917.65
2014.14
2112.76
2212.9
-0.381874
-1.13856
-1.87345
-2.57009
-3.20935
-3.76873
-4.22221
-4.54087
-4.69453
-4.65468
-4.39858
-3.91435
-3.20594
-2.29659
-1.22919
-0.644321
-1.92184
-3.16496
-4.34733
-5.43778
-6.39897
-7.18685
-7.75137
-8.03903
-7.99769
-7.58392
-6.77241
-5.5659
-4.00278
-2.15888
-0.917893
-2.73953
-4.51718
-6.21643
-7.79538
-9.20241
-10.3747
-11.2386
-11.7124
-11.713
-11.1668
-10.0253
-8.28232
-5.98959
-3.26261
-1.20559
-3.60116
-5.94779
-8.20576
-10.3249
-12.2405
-13.8709
-15.1158
-15.8589
-15.9749
-15.345
-13.8796
-11.5484
-8.41062
-4.63114
-1.50887
-4.51168
-7.46695
-10.3339
-13.0576
-15.5637
-17.7524
-19.4947
-20.6321
-20.9825
-20.3584
-18.5992
-15.6209
-11.4731
-6.38183
-1.82709
-5.4697
-9.07442
-12.605
-16.0079
-19.2041
-22.08
-24.4783
-26.1919
-26.9645
-26.5067
-24.5379
-20.8626
-15.4788
-8.68074
-2.15683
-6.46555
-10.7559
-15.0036
-19.1647
-23.1647
-26.8848
-30.1463
-32.6924
-34.1765
-34.1657
-32.1825
-27.8126
-20.8985
-11.7821
-2.49149
-7.47964
-12.4799
-17.4887
-22.4824
-27.4046
-32.1481
-36.5291
-40.2544
-42.8829
-43.7968
-42.2135
-37.3063
-28.5205
-16.1151
-2.82096
-8.48149
-14.1953
-19.9887
-25.8712
-31.823
-37.7734
-43.5673
-48.9126
-53.3035
-55.9244
-55.5679
-50.6785
-39.7619
-22.4928
-3.13179
-9.42996
-15.8309
-22.3992
-29.1905
-36.2424
-43.5546
-51.0535
-58.5245
-65.4935
-71.0286
-73.4548
-70.0777
-57.3555
-32.7004
-3.40798
-10.2755
-17.2991
-24.5863
-32.2489
-40.4008
-49.1487
-58.5669
-68.6378
-79.1167
-89.241
-97.1442
-98.8213
-86.8818
-51.447
-3.63254
-10.965
-18.5034
-26.3976
-34.8176
-43.9629
-54.0717
-65.4268
-78.3422
-93.0936
-109.673
-127.059
-141.18
-139.902
-93.9803
-3.78968
-11.4485
-19.3516
-27.6827
-36.6606
-46.5608
-57.7479
-70.7253
-86.2098
-105.241
-129.299
-160.235
-198.938
-237.564
-220.11
-3.86732
-11.6875
-19.7715
-28.3208
-37.5809
-47.871
-59.6332
-73.5158
-90.5297
-112.36
-142.046
-185.64
-256.771
-391.303
-702.679
2305.44
2389.62
2473.38
2556.28
2637.85
2717.71
2795.49
2870.87
2943.58
3013.4
3080.15
3143.69
3203.9
3260.7
3314.02
3363.82
3410.06
3452.74
3491.84
3527.37
3559.35
3587.81
3612.77
3634.28
3652.39
3667.14
3678.61
3686.84
3691.9
3693.87
3692.81
3688.78
3681.86
3672.12
3659.62
3644.43
3626.61
3606.24
3583.37
3558.07
3530.41
3500.45
3468.26
3433.9
3397.44
3358.94
3318.46
3276.06
3231.8
3185.73
3137.89
3088.35
3037.14
2984.3
2929.89
2873.95
2816.53
2757.69
2697.47
2635.95
2573.17
2509.2
2444.11
2377.95
2310.8
2242.73
2173.8
2104.1
2033.71
1962.72
1891.24
1819.39
1747.28
1675.08
1602.94
1531.02
1459.51
1388.58
1318.44
1249.25
1181.23
1114.53
1049.35
985.843
924.153
864.414
806.732
751.192
697.852
646.739
-0.159667
0.839178
1.82649
2.76844
3.63827
4.41772
5.09721
5.67483
6.15475
6.54524
6.85681
7.10064
7.28735
7.42631
7.52523
7.59014
7.62562
7.63503
7.62094
7.58542
7.5303
7.45736
7.3684
7.26533
7.15009
7.02466
6.891
6.75103
6.60657
6.45932
6.31079
6.16224
6.01466
5.86868
5.72456
5.58221
5.44125
5.30111
5.16117
5.02097
4.88033
4.73946
4.59903
4.4601
4.32401
4.19219
4.0659
3.94602
3.83282
3.7259
3.62411
3.52569
3.42847
3.33013
3.22852
3.12197
3.00945
2.89069
2.7661
2.63654
2.50309
2.36659
2.22733
2.08473
1.93718
1.78198
1.61554
1.43366
1.23202
1.00666
0.754482
0.473716
0.164141
-0.172793
-0.534052
-0.915247
-1.31096
-1.71509
-2.12117
-2.5226
-2.91274
-3.28491
-3.6323
-3.94795
-4.22478
-4.45574
-4.63433
-4.75511
-4.81444
-4.81102
-0.308865
1.41642
3.11578
4.7284
6.20727
7.52174
8.65732
9.61348
10.4002
11.0343
11.5358
11.9252
12.2214
12.4406
12.5958
12.6967
12.7503
12.7619
12.7351
12.6729
12.5782
12.4537
12.3025
12.1276
11.9323
11.7201
11.4943
11.2581
11.0146
10.7668
10.5172
10.2681
10.0211
9.77739
9.53734
9.30071
9.06668
8.83406
8.60158
8.36821
8.13346
7.89762
7.66188
7.42821
7.19915
6.97745
6.76559
6.56533
6.37735
6.20096
6.03413
5.87357
5.71523
5.55474
5.38809
5.21214
5.02507
4.82652
4.61748
4.39991
4.17616
3.94822
3.71707
3.48202
3.24041
2.9875
2.71678
2.42056
2.09081
1.72012
1.30268
0.835099
0.316847
-0.249528
-0.858606
-1.50256
-2.17179
-2.85564
-3.54298
-4.22264
-4.88355
-5.51467
-6.10478
-6.64219
-7.11475
-7.51006
-7.81632
-8.02341
-8.12436
-8.11648
-0.520212
2.03148
4.53056
6.88156
9.01365
10.8841
12.4766
13.7969
14.8663
15.7151
16.377
16.8847
17.2672
17.5482
17.7455
17.8721
17.9367
17.945
17.9012
17.8084
17.6701
17.4898
17.2716
17.0201
16.7401
16.4363
16.1137
15.7768
15.4301
15.078
14.7241
14.372
14.024
13.682
13.3463
13.0166
12.6912
12.368
12.0444
11.7186
11.3893
11.0568
10.7229
10.3908
10.0648
9.74963
9.44964
9.16804
8.90623
8.66333
8.43612
8.21929
8.00608
7.78923
7.56202
7.31928
7.05816
6.77837
6.48204
6.17307
5.85611
5.53535
5.21326
4.88958
4.56069
4.21942
3.85549
3.45649
3.00926
2.50158
1.92378
1.2701
0.53949
-0.26415
-1.13234
-2.05288
-3.011
-3.99061
-4.97533
-5.94918
-6.89677
-7.80305
-8.65268
-9.4294
-10.1155
-10.6923
-11.1407
-11.4442
-11.5907
-11.575
-0.816026
2.72225
6.15849
9.34987
12.1968
14.6465
16.6878
18.3418
19.6503
20.6653
21.4404
22.0248
22.4596
22.7763
22.9973
23.1371
23.2043
23.2036
23.1379
23.0098
22.8226
22.5806
22.2891
21.9542
21.5823
21.1801
20.7539
20.3098
19.8539
19.3919
18.9291
18.4701
18.0189
17.5777
17.1473
16.7266
16.3131
15.9027
15.491
15.0743
14.6501
14.2184
13.7817
13.345
12.9153
12.5004
12.1076
11.7427
11.4083
11.1035
10.8236
10.5602
10.3026
10.039
9.75866
9.45328
9.11851
8.75441
8.36518
7.9581
7.54191
7.12474
6.71207
6.305
5.89915
5.4843
5.04504
4.56219
4.01509
3.38433
2.65447
1.8162
0.867615
-0.185499
-1.33037
-2.54876
-3.81895
-5.1179
-6.42302
-7.71322
-8.96918
-10.1727
-11.3053
-12.3468
-13.2736
-14.0588
-14.6737
-15.0909
-15.29
-15.2618
-1.21228
3.56028
8.13936
12.3145
15.9524
18.9974
21.4573
23.3848
24.8575
25.9615
26.7792
27.3812
27.8226
28.1429
28.3668
28.5076
28.5706
28.5566
28.4653
28.2972
28.055
27.7437
27.3701
26.9424
26.4694
25.9595
25.4208
24.8611
24.2877
23.7081
23.1295
22.5584
22.0004
21.4589
20.9353
20.4276
19.9315
19.4403
18.9461
18.4419
17.9229
17.3883
16.8415
16.2902
15.7456
15.2202
14.7266
14.2744
13.8687
13.509
13.1882
12.8938
12.6086
12.314
11.9923
11.6305
11.222
10.7676
10.2749
9.75714
9.22998
8.7085
8.20366
7.71951
7.25135
6.78512
6.29812
5.76116
5.14212
4.4105
3.54197
2.52183
1.34694
0.0259533
-1.42189
-2.96939
-4.58483
-6.23567
-7.89155
-9.52597
-11.1165
-12.6438
-14.0886
-15.4287
-16.635
-17.6703
-18.4906
-19.0512
-19.3164
-19.2688
-1.71357
4.67687
10.7018
16.0524
20.5617
24.1902
26.993
29.0822
30.5951
31.6699
32.4286
32.9685
33.3601
33.6482
33.8559
33.9901
34.0476
34.0208
33.9032
33.6914
33.3871
32.9964
32.5289
31.996
31.4096
30.7804
30.1182
29.432
28.7306
28.0231
27.3192
26.6282
25.9582
25.3149
24.7004
24.1122
23.5433
22.9824
22.4159
21.8309
21.2185
20.576
19.9081
19.2263
18.5483
17.8947
17.2863
16.7393
16.2633
15.8586
15.5152
15.2142
14.9286
14.6281
14.284
13.8754
13.3919
12.8359
12.221
11.5699
10.9101
10.2685
9.66568
9.11123
8.60101
8.11609
7.62338
7.07856
6.43149
5.63404
4.64801
3.45055
2.03689
0.420345
-1.36964
-3.29191
-5.2994
-7.34585
-9.39062
-11.4015
-13.3547
-15.2332
-17.0222
-18.7027
-20.2424
-21.591
-22.6809
-23.4366
-23.7929
-23.7164
-2.29651
6.3195
14.2348
21.0014
26.4383
30.5711
33.555
35.6078
36.9623
37.8321
38.3914
38.7681
39.0454
39.268
39.4495
39.5819
39.6444
39.6147
39.4752
39.2174
38.8422
38.3584
37.7805
37.1255
36.41
35.6476
34.849
34.0237
33.181
32.3319
31.4891
30.6665
29.8765
29.1284
28.4265
27.7681
27.1426
26.5316
25.9113
25.2584
24.5565
23.7995
22.9935
22.156
21.3148
20.5034
19.7563
19.1011
18.5545
18.1187
17.7805
17.5114
17.2692
17.0039
16.6678
16.2269
15.6655
14.9882
14.2184
13.3944
12.5632
11.7719
11.0572
10.4385
9.91349
9.45754
9.02295
8.54252
7.93673
7.12847
6.05789
4.69001
3.01842
1.06398
-1.12738
-3.4921
-5.95824
-8.45873
-10.9387
-13.3601
-15.7005
-17.9514
-20.1123
-22.1791
-24.1249
-25.8841
-27.3521
-28.3967
-28.8924
-28.7727
-2.86936
8.97055
19.4208
27.8643
34.1917
38.605
41.456
43.1368
44.0247
44.439
44.6146
44.7083
44.8066
44.9441
45.1113
45.2716
45.3715
45.3638
45.2147
44.9099
44.451
43.8532
43.1403
42.3395
41.4753
40.564
39.6157
38.6377
37.6378
36.6288
35.6276
34.6553
33.7317
32.8729
32.0873
31.3741
30.7185
30.0917
29.4512
28.754
27.9714
27.0912
26.1219
25.0888
24.036
23.0174
22.0916
21.3043
20.684
20.2359
19.9442
19.7676
19.641
19.4793
19.2005
18.75
18.1036
17.2718
16.2916
15.2272
14.1568
13.1632
12.3086
11.6288
11.1247
10.7664
10.4868
10.1853
9.73187
8.99902
7.89432
6.36533
4.40583
2.0474
-0.636727
-3.54744
-6.5687
-9.60209
-12.5721
-15.4363
-18.1756
-20.7998
-23.3382
-25.83
-28.2764
-30.5966
-32.6328
-34.1472
-34.8778
-34.6882
-3.15241
13.6219
27.4954
37.7729
44.7006
48.8879
51.0415
51.8064
51.768
51.388
50.9544
50.6403
50.5099
50.5757
50.7817
51.0466
51.2518
51.3151
51.1767
50.8229
50.258
49.5125
48.625
47.6433
46.6068
45.5322
44.4241
43.2815
42.1067
40.9131
39.7231
38.5729
37.4924
36.5109
35.6427
34.8958
34.252
33.6706
33.0714
32.3716
31.5257
30.5102
29.341
28.049
26.7068
25.3965
24.2266
23.266
22.5645
22.1266
21.9414
21.9505
22.0623
22.1224
21.9795
21.554
20.8078
19.7682
18.4849
17.068
15.6387
14.3533
13.3073
12.5653
12.125
11.9612
11.9812
12.0459
11.9286
11.4043
10.341
8.65989
6.36709
3.49931
0.179735
-3.44402
-7.16202
-10.837
-14.3581
-17.6927
-20.8162
-23.7721
-26.6309
-29.5463
-32.6094
-35.7176
-38.6646
-41.026
-42.188
-41.864
-2.27253
22.4498
40.7477
52.504
59.1549
62.0995
62.6274
61.6338
60.0046
58.4158
57.1233
56.3096
55.932
56.0072
56.3688
56.9094
57.3385
57.5585
57.4511
57.042
56.3271
55.3786
54.2476
53.0286
51.7954
50.5512
49.2844
47.9744
46.6054
45.1946
43.764
42.3927
41.1131
39.9883
39.0261
38.2719
37.698
37.2777
36.839
36.2023
35.3268
34.1532
32.7394
31.0841
29.3342
27.576
26.0627
24.8571
24.0681
23.6559
23.6612
23.9879
24.5606
25.0599
25.1678
24.822
23.9368
22.6179
20.8726
18.929
16.9155
15.2009
13.8704
13.0694
12.7294
12.8931
13.4131
14.1706
14.7133
14.5874
13.6792
11.837
9.1581
5.60359
1.43602
-3.20308
-7.81557
-12.2916
-16.4107
-20.2516
-23.6965
-26.8826
-29.8405
-33.0486
-36.8759
-41.0691
-45.5384
-49.6306
-51.6368
-50.9867
2.83988
40.529
63.4202
74.5862
78.9445
78.7887
76.402
72.3744
68.1809
65.0149
62.6009
61.3488
60.6999
61.0245
61.6962
62.9308
63.7241
64.2713
64.1579
63.6993
62.7306
61.5055
59.9948
58.4324
56.9981
55.6007
54.2053
52.7503
51.1623
49.5031
47.7177
46.0788
44.5093
43.2299
42.1083
41.3869
40.9214
40.9099
40.8903
40.3754
39.5558
38.1407
36.484
34.2541
31.9721
29.4015
27.4544
25.8469
25.0277
24.5824
24.9169
25.6697
27.1633
28.5595
29.0081
28.8653
27.6891
26.0801
23.5446
20.8894
17.7606
15.4942
13.6696
12.9087
12.6072
13.311
14.5018
16.6033
18.4597
18.8959
18.3614
16.218
13.209
8.5898
3.37049
-3.00112
-8.66621
-14.2607
-18.8643
-23.381
-26.9494
-30.3218
-32.6898
-35.6588
-40.6155
-46.0225
-52.9546
-61.2385
-64.9102
-63.2994
24.746
79.9163
102.976
106.471
105.234
98.6895
92.5377
83.3524
74.876
70.5294
66.4039
65.5178
64.0643
65.5404
66.2116
69.586
70.4627
71.9335
71.3604
71.0895
69.5016
68.0424
65.8148
63.6501
62.1464
60.646
59.2108
57.7162
55.8206
53.9923
51.4593
49.6638
47.4865
46.2434
44.6132
44.1325
43.4899
44.5527
45.6539
44.9862
44.6411
42.4754
41.053
37.4982
35.0246
30.3282
28.356
25.7009
25.4478
24.3852
25.5694
26.2838
29.9052
33.4227
33.6992
34.3956
32.0635
30.8757
26.388
23.5306
17.3629
15.1505
11.9364
12.0854
11.0363
13.0271
14.278
19.3883
24.2503
24.6013
25.3596
21.8446
19.5781
12.4395
6.96371
-3.81695
-9.61884
-17.6568
-21.4434
-27.876
-30.4846
-35.207
-34.6736
-35.4066
-43.7061
-48.7792
-58.4238
-79.4871
-85.7895
-81.1061
122.629
165.54
170.702
145.168
139.162
118.024
113.041
93.3088
75.6235
75.7253
65.5416
70.5037
63.2096
71.2151
66.834
79.8375
76.3454
82.5388
78.1275
80.376
76.0873
75.686
71.5442
67.9162
67.29
65.5978
64.3022
63.2601
60.3824
59.4968
54.1394
53.7991
49.1193
49.8148
45.4636
47.1119
43.6035
48.1407
52.9654
49.1329
52.349
45.7403
48.6931
39.1864
41.2786
27.3327
30.2417
22.0967
27.0341
20.9532
26.8991
22.7126
32.7971
42.9536
37.7859
44.2874
34.7907
40.4235
26.8844
30.9394
11.27
16.2498
5.36087
12.9881
5.08871
13.8089
8.49719
22.5313
36.5371
29.7204
38.5115
25.6737
32.9633
13.8952
18.1965
-11.8014
-7.35072
-27.1742
-20.2111
-37.8763
-30.9751
-47.6594
-34.8326
-24.2579
-51.4415
-44.9518
-47.4486
-118.99
-122.486
-108.649
607.396
305.518
282.627
155.741
194.879
114.092
154.778
100.315
50.755
95.7298
42.8665
93.1361
40.3211
94.7237
42.4202
113.84
68.2784
108.412
75.3018
99.0733
77.0726
88.7129
76.5313
67.8571
73.9662
69.976
69.026
71.4451
62.0731
71.4384
49.593
64.1811
43.0098
60.6515
37.6727
57.5151
32.1293
51.3129
72.7415
43.1276
74.2028
35.2347
74.2732
24.1701
70.6257
0.0644309
48.0433
-0.347643
44.4851
0.201052
42.8178
-1.41059
35.5835
74.5496
25.0669
77.2147
15.7294
77.577
2.04355
72.5097
-30.3194
40.1984
-27.8794
36.2478
-24.7925
34.7952
-25.143
25.7134
78.8067
12.3625
82.8075
0.517669
84.3024
-18.3022
78.8188
-69.3926
29.8715
-75.2644
16.4854
-83.2525
2.49746
-102.608
-31.7484
41.2625
-107.666
-28.1833
62.9508
-256.475
-184.142
-154.623
592.963
537.457
485.002
435.445
388.592
344.224
302.103
261.98
223.604
186.726
151.1
116.487
82.6538
49.3727
16.4211
-4.73972
-4.57978
-4.34901
-4.06158
-3.73252
-3.3761
-3.00464
-2.62792
-2.25301
-1.88443
-1.52453
-1.17388
-0.83168
-0.496163
-0.164901
-7.99067
-7.71152
-7.31123
-6.81553
-6.25129
-5.64359
-5.01364
-4.37792
-3.74802
-3.13111
-2.53064
-1.94709
-1.37872
-0.822213
-0.273216
-11.3833
-10.9642
-10.3687
-9.63786
-8.8134
-7.9332
-7.02832
-6.12201
-5.22996
-4.3613
-3.51978
-2.70508
-1.91387
-1.14074
-0.378961
-14.9857
-14.393
-13.5614
-12.5536
-11.4311
-10.2474
-9.04432
-7.85173
-6.68845
-5.56427
-4.48206
-3.43955
-2.4309
-1.44791
-0.480838
-18.8794
-18.0602
-16.9301
-15.5838
-14.1098
-12.5807
-11.0497
-9.55202
-8.1077
-6.72519
-5.40455
-4.14008
-2.92225
-1.73913
-0.577314
-23.1671
-22.038
-20.5146
-18.7413
-16.8434
-14.9156
-13.0216
-11.1988
-9.46502
-7.82412
-6.27079
-4.79391
-3.37886
-2.009
-0.666597
-27.9844
-26.4095
-24.3486
-22.023
-19.6065
-17.2164
-14.9219
-12.7564
-10.7293
-8.83535
-7.06047
-5.38582
-3.79021
-2.25137
-0.746664
-33.5165
-31.2669
-28.4469
-25.3955
-22.3429
-19.4214
-16.693
-14.1752
-11.8602
-9.72737
-7.74979
-5.89861
-4.14473
-2.45959
-0.815339
-40.0194
-36.6942
-32.7764
-28.7686
-24.9477
-21.4331
-18.2533
-15.3909
-12.8089
-10.4639
-8.31257
-6.314
-4.43043
-2.62686
-0.870432
-47.8341
-42.7131
-37.1953
-31.9545
-27.2458
-23.1096
-19.4958
-16.326
-13.5204
-11.0067
-8.72243
-6.61428
-4.63605
-2.74696
-0.909946
-57.3301
-49.1279
-41.3365
-34.6075
-28.971
-24.2633
-20.2938
-16.8967
-13.9397
-11.3197
-8.95605
-6.78453
-4.75244
-2.81494
-0.932319
-68.5155
-55.1314
-44.4147
-36.1674
-29.767
-24.6784
-20.5191
-17.0271
-14.0218
-11.3762
-8.99739
-6.81525
-4.77415
-2.828
-0.936691
-79.3484
-58.4664
-45.0225
-35.88
-29.2506
-24.1637
-20.0768
-16.6703
-13.744
-11.1655
-8.84196
-6.70482
-4.70081
-2.78619
-0.923115
-79.0975
-54.3623
-41.3282
-33.0789
-27.1911
-22.6484
-18.954
-15.833
-13.1183
-10.6998
-8.49995
-6.46116
-4.53798
-2.69279
-0.892678
-3.86669
-11.6851
-19.7657
-28.3093
-37.5604
-47.8381
-59.5855
-73.4553
-90.4722
-112.362
-142.286
-186.668
-260.223
-401.274
-721.8
-3.80102
-11.482
-19.406
-27.7569
-36.7551
-46.6817
-57.9143
-70.9845
-86.6731
-106.165
-131.276
-164.63
-208.703
-257.377
-244.524
-3.6805
-11.11
-18.7497
-26.7546
-35.3048
-44.618
-54.9663
-66.6947
-80.2324
-96.0639
-114.541
-135.146
-153.987
-156.203
-97.9386
-3.51233
-10.5921
-17.8394
-25.3736
-33.3244
-41.835
-51.0595
-61.1478
-72.1979
-84.1247
-96.3272
-106.887
-110.816
-97.0282
-46.9159
-3.30588
-9.95771
-16.7299
-23.7029
-30.9549
-38.5559
-46.5524
-54.9326
-63.554
-71.9935
-79.253
-83.2301
-79.9456
-63.0784
-26.2534
-3.07157
-9.23962
-15.4809
-21.8382
-28.3427
-35.0019
-41.7783
-48.5492
-55.0358
-60.6812
-64.458
-64.6155
-58.5069
-42.988
-16.4806
-2.81993
-8.47062
-14.151
-19.8711
-25.6227
-31.3662
-37.0077
-42.3628
-47.1012
-50.666
-52.1758
-50.3522
-43.6022
-30.5282
-11.1894
-2.56076
-7.68091
-12.7936
-17.8818
-22.9082
-27.8012
-32.4356
-36.6042
-39.981
-42.0772
-42.208
-39.5095
-33.0887
-22.4186
-8.00931
-2.3025
-6.8963
-11.453
-15.9354
-20.2862
-24.4156
-28.1866
-31.3953
-33.7497
-34.8528
-34.2046
-31.2514
-25.5258
-16.9055
-5.94667
-2.05199
-6.13741
-10.1638
-14.0803
-17.8176
-21.2788
-24.328
-26.7793
-28.387
-28.8444
-27.8013
-24.9183
-19.9727
-13.0164
-4.53292
-1.81434
-5.41944
-8.95084
-12.3495
-15.5407
-18.4278
-20.8843
-22.7489
-23.8231
-23.8777
-22.6755
-20.0173
-15.8159
-10.1875
-3.52356
-1.59305
-4.75259
-7.83001
-10.7625
-13.475
-15.8756
-17.8515
-19.2673
-19.9669
-19.7835
-18.5607
-16.1879
-12.6498
-8.07781
-2.78024
-1.3902
-4.14272
-6.80976
-9.32814
-11.6256
-13.6181
-15.2076
-16.2829
-16.7238
-16.4111
-15.2442
-13.1676
-10.2017
-6.47186
-2.21948
-1.20669
-3.59218
-5.89268
-8.04709
-9.98804
-11.6403
-12.9205
-13.7389
-14.0039
-13.6316
-12.5595
-10.7647
-8.28391
-5.22875
-1.78828
-1.04252
-3.10062
-5.07699
-6.91419
-8.55079
-9.9208
-10.9541
-11.5789
-11.7264
-11.338
-10.3765
-8.83807
-6.76494
-4.25315
-1.45155
-0.897054
-2.6658
-4.3579
-5.92051
-7.29861
-8.43498
-9.27128
-9.75044
-9.82083
-9.44231
-8.59398
-7.28269
-5.55055
-3.47877
-1.1853
-0.76919
-2.28417
-3.72869
-5.05492
-6.21421
-7.15745
-7.83635
-8.20571
-8.22694
-7.87279
-7.13289
-6.0195
-4.57195
-2.85829
-0.972617
-0.657567
-1.95146
-3.18157
-4.30521
-5.27978
-6.06342
-6.6163
-6.90264
-6.89366
-6.57106
-5.9311
-4.98831
-3.77811
-2.35725
-0.80128
-0.560685
-1.66303
-2.70836
-3.65898
-4.47789
-5.12959
-5.58126
-5.80461
-5.77809
-5.48965
-4.93955
-4.14277
-3.13051
-1.95002
-0.662289
-0.477012
-1.41417
-2.30089
-3.10417
-3.79208
-4.3346
-4.70474
-4.88003
-4.84434
-4.5899
-4.11925
-3.44682
-2.59972
-1.61723
-0.548883
-0.405046
-1.20032
-1.95136
-2.62945
-3.2072
-3.65928
-3.96348
-4.10192
-4.06246
-3.84025
-3.43903
-2.87215
-2.16293
-1.34404
-0.455905
-0.343366
-1.01717
-1.65246
-2.22439
-2.70955
-3.08662
-3.3373
-3.44729
-3.40746
-3.21488
-2.87381
-2.3963
-1.80227
-1.11892
-0.379366
-0.290658
-0.86077
-1.39753
-1.87958
-2.28694
-2.60171
-2.80877
-2.89669
-2.8585
-2.69259
-2.40332
-2.00134
-1.50362
-0.932809
-0.316146
-0.245728
-0.727522
-1.18058
-1.5866
-1.92861
-2.19156
-2.36297
-2.43362
-2.39821
-2.25596
-2.01106
-1.67285
-1.25572
-0.778536
-0.263776
-0.207506
-0.614222
-0.996285
-1.33807
-1.62517
-1.84496
-1.98711
-2.04418
-2.01208
-1.89059
-1.68358
-1.39916
-1.0495
-0.65035
-0.220287
-0.175045
-0.518036
-0.839953
-1.12749
-1.36846
-1.55225
-1.67033
-1.71663
-1.68802
-1.58458
-1.40983
-1.17077
-0.877647
-0.543623
-0.184096
-0.14751
-0.436478
-0.70749
-0.94924
-1.15143
-1.30517
-1.40337
-1.4411
-1.4159
-1.32807
-1.18074
-0.979895
-0.734188
-0.454601
-0.153921
-0.124178
-0.367387
-0.595338
-0.798453
-0.968043
-1.09665
-1.17839
-1.20924
-1.18727
-1.11288
-0.988806
-0.820168
-0.61425
-0.380224
-0.128718
-0.104417
-0.308889
-0.500429
-0.67094
-0.813102
-0.920671
-0.988751
-1.01404
-0.99504
-0.932163
-0.82781
-0.686321
-0.513824
-0.317981
-0.107633
-0.0876856
-0.259367
-0.420118
-0.563107
-0.682177
-0.772102
-0.828812
-0.849598
-0.833267
-0.780242
-0.692596
-0.574002
-0.429606
-0.265807
-0.0899636
-0.0735152
-0.217434
-0.352138
-0.471878
-0.571486
-0.646591
-0.693812
-0.710921
-0.696968
-0.652357
-0.578865
-0.479595
-0.358858
-0.221996
-0.0751286
-0.0615048
-0.181898
-0.294547
-0.394625
-0.477804
-0.540438
-0.579717
-0.593808
-0.581952
-0.544521
-0.483031
-0.40009
-0.299306
-0.185129
-0.0626474
-0.0513102
-0.15174
-0.245682
-0.329102
-0.398387
-0.450497
-0.483107
-0.494708
-0.48469
-0.453389
-0.402087
-0.332973
-0.249053
-0.154027
-0.0521194
-0.0426369
-0.126084
-0.204123
-0.273393
-0.330891
-0.374095
-0.401083
-0.410615
-0.402203
-0.376142
-0.333511
-0.276133
-0.206509
-0.127703
-0.0432096
-0.0352318
-0.104181
-0.168651
-0.225858
-0.273317
-0.308951
-0.331176
-0.33898
-0.331969
-0.310399
-0.275171
-0.227795
-0.170339
-0.105327
-0.035637
-0.0288778
-0.0853896
-0.138221
-0.185088
-0.223954
-0.253116
-0.271282
-0.277628
-0.271842
-0.254139
-0.225263
-0.186457
-0.139413
-0.0861986
-0.029164
-0.0233873
-0.0691525
-0.111932
-0.149873
-0.181327
-0.204914
-0.219593
-0.2247
-0.219987
-0.205635
-0.182249
-0.150838
-0.112772
-0.0697225
-0.0235889
-0.0185973
-0.0549883
-0.0890016
-0.119163
-0.14416
-0.162897
-0.174549
-0.178589
-0.174825
-0.163402
-0.144806
-0.119838
-0.0895898
-0.0553875
-0.0187386
-0.0143654
-0.0424747
-0.0687453
-0.0920376
-0.111338
-0.1258
-0.134788
-0.137897
-0.134979
-0.12615
-0.111785
-0.0925055
-0.0691527
-0.0427512
-0.0144632
-0.010565
-0.0312374
-0.0505567
-0.067684
-0.0818737
-0.0925045
-0.0991078
-0.101388
-0.0992372
-0.0927409
-0.0821762
-0.0680004
-0.0508322
-0.0314244
-0.0106311
-0.00708214
-0.0209396
-0.0338896
-0.0453699
-0.0548803
-0.0620047
-0.066429
-0.0679555
-0.066512
-0.0621563
-0.0550743
-0.0455728
-0.0340663
-0.0210595
-0.00712455
-0.00381229
-0.0112718
-0.018243
-0.0244232
-0.0295434
-0.0333794
-0.035762
-0.0365848
-0.0358086
-0.0334644
-0.0296522
-0.024537
-0.018342
-0.011339
-0.00383607
-0.000657053
-0.00194295
-0.00314539
-0.00421251
-0.00509798
-0.00576301
-0.00617802
-0.00632404
-0.00619368
-0.00579162
-0.00513459
-0.00425079
-0.00317873
-0.00196558
-0.000665054
0.0024786
0.00732792
0.0118582
0.0158721
0.0191944
0.0216798
0.0232192
0.0237448
0.0232325
0.0217041
0.0192255
0.0159047
0.0118866
0.00734718
0.00248542
0.00568915
0.0168203
0.0272203
0.0364368
0.0440676
0.0497792
0.0533203
0.054534
0.0533642
0.0498594
0.0441703
0.0365441
0.0273138
0.0168837
0.0057116
0.00907131
0.0268201
0.0434041
0.0581021
0.0702733
0.0793853
0.0850372
0.0869777
0.0851169
0.079531
0.0704598
0.0582971
0.0435739
0.0269353
0.00911208
0.0127269
0.0376285
0.0608972
0.0815216
0.0986028
0.111393
0.11933
0.12206
0.119456
0.111622
0.0988954
0.0818276
0.0611637
0.0378094
0.0127909
0.0167657
0.0495705
0.080226
0.107401
0.129911
0.146771
0.157239
0.160846
0.157424
0.14711
0.130345
0.107855
0.0806212
0.0498387
0.0168606
0.021309
0.0630045
0.101971
0.136518
0.165141
0.186586
0.199909
0.204512
0.200177
0.187077
0.165768
0.137174
0.102543
0.0633923
0.0214462
0.0264927
0.0783328
0.126785
0.169748
0.205353
0.232041
0.248632
0.254383
0.249016
0.232741
0.206249
0.170685
0.127601
0.0788867
0.0266886
0.0324715
0.0960131
0.155409
0.208087
0.251756
0.284504
0.304882
0.311971
0.305426
0.285498
0.253028
0.209417
0.156568
0.0967996
0.0327497
0.0394231
0.116571
0.188696
0.252679
0.30574
0.345554
0.370357
0.379025
0.371128
0.346962
0.307542
0.254563
0.190337
0.117685
0.039817
0.0475533
0.140617
0.227636
0.304854
0.368919
0.417025
0.447034
0.457577
0.448124
0.419016
0.371467
0.307518
0.229955
0.142192
0.0481102
0.0571017
0.16886
0.273379
0.36616
0.443178
0.50106
0.537225
0.550012
0.538764
0.503871
0.446777
0.369923
0.276656
0.171084
0.0578885
0.0683479
0.202127
0.327272
0.438407
0.530723
0.60017
0.643644
0.659132
0.645817
0.60414
0.535804
0.443722
0.331899
0.205268
0.0694589
0.0816188
0.241388
0.390889
0.523721
0.634142
0.71731
0.769492
0.788248
0.77256
0.722916
0.641317
0.531224
0.397423
0.245823
0.0831875
0.0972972
0.287779
0.466078
0.624591
0.756481
0.855961
0.918545
0.941274
0.922877
0.863876
0.766611
0.635184
0.475303
0.29404
0.0995121
0.115831
0.342626
0.555002
0.743943
0.901321
1.02022
1.09527
1.12285
1.10138
1.0314
0.915622
0.758899
0.568026
0.351466
0.118958
0.137743
0.407483
0.660195
0.885208
1.07287
1.21494
1.30493
1.33848
1.31356
1.23071
1.09306
0.90632
0.678581
0.419964
0.142157
0.163643
0.484162
0.784616
1.0524
1.27607
1.44579
1.55378
1.5947
1.56597
1.46806
1.30457
1.08221
0.810574
0.501782
0.169876
0.19424
0.574771
0.931716
1.25022
1.51672
1.71951
1.8492
1.89926
1.8664
1.75094
1.55695
1.29229
0.968363
0.599647
0.20304
0.230355
0.681753
1.1055
1.48413
1.80161
2.04397
2.1999
2.26138
2.22418
2.08833
1.8584
1.54353
1.15724
0.716875
0.242779
0.272933
0.807928
1.31062
1.76049
2.13864
2.42842
2.61618
2.69201
2.65045
2.49104
2.21881
1.84435
1.38366
0.857517
0.290476
0.323058
0.956529
1.55239
2.08665
2.53703
2.88369
3.11015
3.20414
3.15851
2.97208
2.65019
2.20504
1.65552
1.02655
0.347831
0.38196
1.13124
1.83692
2.47104
3.0074
3.42241
3.69608
3.81318
3.76433
3.54715
3.16713
2.63818
1.98254
1.23012
0.416946
0.451026
1.33622
2.17113
2.9233
3.56202
4.05923
4.39072
4.53743
4.48701
4.23527
3.78747
3.15926
2.37676
1.47587
0.500443
0.531797
1.57609
2.56277
3.45433
4.21488
4.81111
5.21361
5.39853
5.34946
5.05948
4.53306
3.78744
2.85317
1.77337
0.601612
0.625962
1.85597
3.02043
4.07629
4.9818
5.69747
6.18756
6.42207
6.37915
6.04784
5.43083
4.5466
3.43061
2.13472
0.724625
0.735338
2.18136
3.55347
4.80262
5.8805
6.74041
7.33893
7.63821
7.60903
7.23455
6.5141
5.46666
4.13296
2.57534
0.874825
0.861827
2.55806
4.17186
5.64785
6.9305
7.96481
8.69805
9.08235
9.07863
8.66143
7.82438
6.58547
4.99075
3.11516
1.05914
1.00735
2.99197
4.88589
6.6273
8.15288
9.39821
10.2994
10.7959
10.8353
10.3798
9.41365
7.95129
6.04355
3.78025
1.28668
1.17376
3.48884
5.70579
7.75657
9.56978
11.0705
12.1816
12.8267
12.9355
12.4526
11.3474
9.62632
7.34322
4.6052
1.56962
1.36268
4.05383
6.64103
9.05072
11.2036
13.0133
14.3874
15.2297
15.4466
14.9575
13.7088
11.6915
8.95872
5.63674
1.92453
1.57534
4.69096
7.69946
10.5232
13.0755
15.2586
16.9624
18.0668
18.4478
17.9897
16.6037
14.2536
10.9833
6.93922
2.37447
1.81234
5.40243
8.88613
12.1839
15.2037
17.8365
19.9534
21.406
22.0317
21.6661
20.168
17.4544
13.5451
8.60323
2.9523
2.07335
6.18772
10.2018
14.0377
17.6006
20.7724
23.4054
25.3194
26.3036
26.1289
24.5762
21.4855
16.8239
10.7595
3.70628
2.35679
7.0426
11.6412
16.0808
20.2689
24.0822
27.3566
29.8783
31.38
31.5483
30.0523
26.6073
21.0766
13.6025
4.70972
2.65948
7.958
13.1907
18.2984
23.1974
27.7661
31.8301
35.1452
37.3823
38.123
36.8817
33.1771
26.6787
17.4306
6.07883
2.97636
8.91902
14.827
20.6609
26.3549
31.8001
36.8235
41.1605
44.4232
46.0738
45.4215
41.6867
34.1902
22.7194
8.00753
3.30017
9.90408
16.5144
23.1204
29.6849
36.1268
42.2933
47.9213
52.5834
55.6233
56.1016
52.8082
44.4612
30.2587
10.8411
3.62149
10.8846
18.2048
25.6084
33.0999
40.6444
48.1366
55.3525
61.8695
66.9513
69.4003
67.4385
58.7982
41.4192
15.2474
3.9288
11.8253
19.837
28.035
36.478
45.1977
54.1715
63.2685
72.1519
80.107
85.7613
86.706
79.2032
58.6854
22.6555
4.20909
12.6859
21.3397
30.2913
39.6634
49.5744
60.1204
71.3321
83.0783
94.8595
105.392
111.839
108.646
86.7232
36.5086
4.44861
13.4235
22.6353
32.2553
42.4743
53.5096
65.6063
79.024
93.9796
110.478
127.859
143.665
151.093
134.408
66.1964
4.63416
13.9964
23.6473
33.803
44.7179
56.7071
70.1744
85.6472
103.808
125.483
151.419
181.307
210.284
217.873
140.454
4.75443
14.3688
24.3087
34.8231
46.2152
58.8778
73.3492
90.4025
111.196
137.528
172.231
219.581
284.327
360.368
356.022
4.80139
14.5149
24.5708
35.2335
46.8296
59.7918
74.7303
92.5593
114.737
143.758
184.259
245.773
350.522
558.685
1063.04
4.77143
14.4231
24.4113
34.9954
46.4951
59.333
74.1034
91.6952
113.524
142.015
181.692
241.939
344.898
551.305
1056.98
4.66584
14.0976
23.8378
34.1211
45.2309
57.5315
71.5165
87.8875
107.684
132.503
164.839
208.44
267.432
336.091
330.333
4.49072
13.5577
22.8869
32.6725
43.1394
54.5597
67.2721
81.6999
98.3551
117.768
140.163
164.253
183.248
172.553
58.4772
-50.1597
-40.8529
-33.885
-28.4955
-24.154
-20.5356
-17.4359
-14.7197
-12.2929
-10.087
-8.04977
-6.13971
-4.3226
-2.56895
-0.852267
-18.8109
-26.0564
-25.722
-23.4647
-20.814
-18.2052
-15.7554
-13.482
-11.371
-9.39925
-7.54203
-5.77558
-4.07774
-2.4278
-0.806149
-8.55676
-16.5233
-18.8939
-18.7069
-17.4447
-15.7644
-13.9521
-12.1313
-10.3522
-8.63183
-6.97115
-5.36374
-3.79958
-2.26698
-0.753526
-4.65453
-10.8761
-13.8418
-14.6954
-14.3655
-13.4149
-12.1547
-10.7514
-9.29262
-7.82284
-6.3632
-4.9218
-3.49945
-2.09285
-0.696445
-2.89631
-7.48981
-10.2564
-11.5054
-11.7173
-11.2803
-10.4565
-9.41004
-8.24052
-7.00671
-5.7425
-4.46657
-3.18834
-1.91161
-0.636917
-1.97076
-5.37211
-7.72471
-9.0356
-9.51964
-9.41426
-8.91264
-8.15401
-7.23296
-6.2116
-5.12987
-4.01289
-2.87614
-1.72893
-0.576787
-1.42032
-3.98264
-5.91634
-7.13985
-7.73115
-7.82324
-7.54718
-7.01069
-6.29496
-5.45836
-4.54165
-3.57288
-2.57118
-1.54966
-0.517643
-1.06313
-3.02968
-4.60107
-5.68305
-6.28922
-6.4878
-6.36249
-5.99175
-5.44084
-4.76067
-3.98954
-3.15571
-2.27994
-1.37765
-0.460767
-0.816821
-2.3511
-3.62561
-4.55662
-5.13028
-5.3772
-5.34817
-5.09786
-4.67641
-4.12609
-3.48092
-2.76763
-2.00709
-1.21576
-0.407114
-0.63951
-1.85288
-2.88867
-3.67829
-4.19816
-4.45818
-4.48744
-4.32276
-4.00142
-3.55732
-3.01956
-2.41234
-1.7556
-1.06588
-0.357334
-0.50778
-1.47796
-2.32263
-2.98724
-3.44646
-3.69936
-3.76133
-3.6564
-3.41164
-3.05356
-2.60639
-2.0914
-1.52698
-0.929067
-0.311799
-0.407558
-1.19019
-1.8816
-2.43878
-2.83799
-3.07309
-3.15106
-3.08711
-2.9005
-2.61163
-2.24029
-1.80477
-1.3216
-0.805684
-0.270655
-0.329887
-0.965762
-1.53377
-1.99999
-2.34346
-2.5559
-2.63933
-2.60296
-2.46033
-2.22694
-1.91874
-1.55121
-1.13895
-0.695563
-0.233868
-0.26881
-0.788448
-1.25661
-1.64641
-1.9399
-2.12827
-2.21074
-2.19258
-2.08316
-1.89416
-1.63836
-1.3287
-0.977885
-0.59815
-0.201275
-0.220216
-0.646872
-1.03384
-1.35971
-1.6093
-1.77416
-1.852
-1.84556
-1.76122
-1.60777
-1.39535
-1.13475
-0.836897
-0.512632
-0.172621
-0.181188
-0.532849
-0.853496
-1.12596
-1.33752
-1.48045
-1.55177
-1.55261
-1.48726
-1.3623
-1.18579
-0.966659
-0.71424
-0.438044
-0.147596
-0.149598