/*--------------------------------*- C++ -*----------------------------------*\
| =========                 |                                                 |
| \\      /  F ield         | OpenFOAM: The Open Source CFD Toolbox           |
|  \\    /   O peration     | Version:  5.x                                   |
|   \\  /    A nd           | Web:      www.OpenFOAM.org                      |
|    \\/     M anipulation  |                                                 |
\*---------------------------------------------------------------------------*/
FoamFile
{
    version     2.0;
    format      ascii;
    class       volScalarField;
    location    "0.5";
    object      gradTy;
}
// * * * * * * * * * * * * * * * * * * * * * * * * * * * * * * * * * * * * * //

dimensions      [0 -1 0 1 0 0 0];

internalField   nonuniform List<scalar> 
3200
(
7.85705
-5.95921
-0.000656664
-1.45599
-0.140946
-0.242049
-0.0763245
-0.0107909
-0.101466
-0.0557075
0.0998814
-0.168795
0.135026
-0.242078
0.195232
-0.330333
0.272816
-0.435485
0.36798
-0.555602
0.479772
-0.686766
0.605442
-0.823174
0.740089
-0.958277
0.877362
-1.08627
1.01093
-1.20283
1.13535
-1.30617
1.24716
-1.39756
1.34581
-1.48109
1.43379
-1.56271
1.51612
-1.64887
1.59932
-1.74431
1.68837
-1.85475
1.7883
-1.98791
1.90262
-2.16215
1.94368
-2.76076
-0.20521
2.80105
-2.4704
2.54101
-2.61302
2.61859
-2.56274
2.62913
-2.38787
2.52422
-2.11109
2.3025
-1.77877
1.9969
-1.44458
1.65932
-1.1489
1.33816
-0.911267
1.06419
-0.734246
0.849296
-0.610932
0.693782
-0.529315
0.736842
0.148402
0.035072
0.00910371
0.0031795
5.62136
-3.96188
-0.222657
-1.04826
-0.155439
-0.181603
-0.0629311
-0.0139562
-0.0740791
-0.0398711
0.0637006
-0.112675
0.083156
-0.161917
0.120885
-0.220383
0.170006
-0.289756
0.230641
-0.368688
0.302295
-0.454506
0.383319
-0.543324
0.470616
-0.630839
0.560056
-0.713324
0.647453
-0.78808
0.729114
-0.854119
0.802599
-0.912479
0.867332
-0.966009
0.924776
-1.01871
0.978111
-1.07479
1.03162
-1.13729
1.08851
-1.20993
1.15195
-1.298
1.22334
-1.41821
1.22436
-1.90013
-0.144468
1.90077
-1.58504
1.64982
-1.69566
1.70116
-1.65717
1.71582
-1.53558
1.65553
-1.34888
1.51707
-1.12907
1.32065
-0.911649
1.10023
-0.722174
0.88837
-0.572004
0.706309
-0.461612
0.562672
-0.385657
0.458666
-0.329995
0.511868
0.129287
0.031477
0.00820966
0.00286285
3.76899
-2.49745
-0.262073
-0.709291
-0.133183
-0.12696
-0.0467623
-0.0127733
-0.0504851
-0.0268349
0.0386855
-0.0714834
0.0488743
-0.102928
0.0714341
-0.139777
0.101112
-0.183335
0.137973
-0.232717
0.181782
-0.286194
0.231596
-0.341292
0.285549
-0.395321
0.341079
-0.446
0.395553
-0.491721
0.446598
-0.531973
0.492588
-0.567521
0.533046
-0.60024
0.568784
-0.632682
0.601723
-0.667469
0.634542
-0.706441
0.669222
-0.751939
0.707645
-0.807374
0.750134
-0.886096
0.735239
-1.2352
-0.0958213
1.22121
-0.969046
1.02128
-1.04856
1.05336
-1.02142
1.06692
-0.941543
1.03413
-0.821991
0.951615
-0.683669
0.831233
-0.548903
0.694129
-0.433114
0.561101
-0.342579
0.446017
-0.276899
0.354747
-0.232268
0.288712
-0.196032
0.335754
0.0986755
0.024804
0.00651102
0.0022637
2.16727
-1.37311
-0.194195
-0.411258
-0.0881392
-0.0752865
-0.0287564
-0.00873659
-0.0293636
-0.0154965
0.0206692
-0.039548
0.0254364
-0.0570367
0.0373467
-0.0773244
0.0531528
-0.101236
0.0728827
-0.12827
0.0964397
-0.157455
0.123345
-0.18742
0.152606
-0.216692
0.18283
-0.244045
0.21257
-0.268632
0.2405
-0.290219
0.265687
-0.309273
0.287823
-0.326861
0.307306
-0.344398
0.325162
-0.363317
0.342854
-0.3846
0.361458
-0.40953
0.381963
-0.440026
0.404288
-0.484684
0.389377
-0.695086
-0.0547261
0.681477
-0.520749
0.554672
-0.568813
0.572143
-0.552677
0.581411
-0.507345
0.565534
-0.440739
0.522096
-0.364678
0.457245
-0.291434
0.382516
-0.22921
0.309477
-0.181091
0.245965
-0.146565
0.195396
-0.12335
0.158856
-0.102844
0.190294
0.0614467
0.0158263
0.00417674
0.00144357
0.707165
-0.437545
-0.0704827
-0.134838
-0.0306904
-0.024966
-0.00969786
-0.00308374
-0.00963449
-0.00506595
0.00648828
-0.0126449
0.00786765
-0.0182538
0.0115811
-0.0247245
0.016534
-0.0323392
0.0227337
-0.0409348
0.0301546
-0.0501992
0.038651
-0.059693
0.047912
-0.0689483
0.0574967
-0.0775785
0.0669429
-0.0853203
0.0758249
-0.0921076
0.0838389
-0.0980966
0.0908778
-0.103633
0.0970615
-0.109172
0.102711
-0.115166
0.108292
-0.121925
0.114145
-0.129856
0.120576
-0.13958
0.127515
-0.154061
0.121579
-0.224255
-0.0177605
0.218978
-0.16387
0.175701
-0.179966
0.181232
-0.174617
0.184496
-0.159923
0.179803
-0.138543
0.166283
-0.114298
0.145835
-0.0911002
0.122119
-0.0715163
0.0988464
-0.0564665
0.0785532
-0.0457373
0.0623611
-0.0385676
0.0506723
-0.0319224
0.061649
0.0208309
0.0054366
0.00143831
0.000484683
-0.707158
0.437547
0.0704841
0.13484
0.0306931
0.0249701
0.00970366
0.00309157
0.00964458
0.00507843
-0.00647341
0.0126623
-0.00784771
0.0182766
-0.0115552
0.0247538
-0.0165012
0.0323756
-0.0226935
0.0409788
-0.030107
0.0502504
-0.0385964
0.0597509
-0.0478512
0.0690119
-0.0574308
0.0776465
-0.0668731
0.0853917
-0.0757522
0.0921814
-0.083764
0.0981724
-0.090801
0.103711
-0.0969825
0.109252
-0.102629
0.11525
-0.108206
0.122014
-0.114053
0.129951
-0.120478
0.139681
-0.127409
0.154172
-0.121464
0.224374
0.0178828
-0.218854
0.163993
-0.17558
0.180085
-0.181118
0.174725
-0.184394
0.160018
-0.179716
0.138621
-0.166213
0.114359
-0.145781
0.0911463
-0.122079
0.0715495
-0.0988187
0.0564891
-0.0785352
0.0457512
-0.062351
0.0385747
-0.0506671
0.0319274
-0.0616424
-0.0208221
-0.00542775
-0.00143806
-0.000518121
-2.16727
1.37311
0.194196
0.411259
0.0881411
0.0752895
0.0287606
0.00874215
0.0293708
0.0155053
-0.0206586
0.0395604
-0.0254222
0.057053
-0.0373281
0.0773454
-0.0531293
0.101263
-0.0728537
0.128301
-0.0964053
0.157492
-0.123305
0.187462
-0.152562
0.216738
-0.182782
0.244095
-0.212519
0.268684
-0.240447
0.290273
-0.265632
0.309329
-0.287766
0.326918
-0.307248
0.344458
-0.325101
0.363379
-0.342791
0.384665
-0.36139
0.409599
-0.38189
0.440101
-0.40421
0.484766
-0.389292
0.695174
0.0548159
-0.681386
0.520839
-0.554582
0.5689
-0.572058
0.552758
-0.581334
0.507416
-0.565469
0.440799
-0.522042
0.364726
-0.457203
0.291471
-0.382484
0.229237
-0.309454
0.18111
-0.245949
0.146577
-0.195387
0.123357
-0.158851
0.102849
-0.190288
-0.0614394
-0.0158191
-0.00417542
-0.00146636
-3.76899
2.49745
0.262074
0.709291
0.133183
0.126961
0.0467632
0.0127746
0.0504866
0.0268368
-0.0386832
0.0714862
-0.0488711
0.102932
-0.0714298
0.139782
-0.101107
0.183342
-0.137966
0.232725
-0.181774
0.286203
-0.231587
0.341302
-0.285538
0.395333
-0.341067
0.446013
-0.395539
0.491735
-0.446583
0.531988
-0.492573
0.567536
-0.53303
0.600256
-0.568768
0.632698
-0.601706
0.667486
-0.634524
0.706459
-0.669204
0.751958
-0.707625
0.807395
-0.750113
0.886117
-0.735216
1.23522
0.0958455
-1.22118
0.969071
-1.02126
1.04858
-1.05334
1.02144
-1.0669
0.941565
-1.03411
0.82201
-0.951597
0.683685
-0.831218
0.548916
-0.694117
0.433125
-0.561092
0.342588
-0.446009
0.276906
-0.354742
0.232272
-0.288709
0.196035
-0.33575
-0.0986723
-0.024801
-0.00650898
-0.00226721
-5.62137
3.96187
0.222656
1.04826
0.155438
0.1816
0.0629277
0.0139517
0.0740733
0.0398638
-0.0637092
0.112665
-0.0831675
0.161904
-0.1209
0.220366
-0.170025
0.289735
-0.230664
0.368662
-0.302322
0.454477
-0.38335
0.543291
-0.470651
0.630803
-0.560093
0.713286
-0.647492
0.78804
-0.729155
0.854078
-0.802641
0.912436
-0.867375
0.965966
-0.92482
1.01867
-0.978157
1.07475
-1.03167
1.13724
-1.08856
1.20988
-1.152
1.29794
-1.2234
1.41815
-1.22442
1.90006
0.144399
-1.90084
1.58497
-1.64988
1.6956
-1.70122
1.65711
-1.71587
1.53553
-1.65558
1.34883
-1.5171
1.12904
-1.32067
0.911625
-1.10025
0.722158
-0.888384
0.571993
-0.706317
0.461606
-0.562676
0.385654
-0.458667
0.329994
-0.511871
-0.129291
-0.0314813
-0.00820901
-0.00284242
-7.85706
5.9592
0.000654575
1.45598
0.140942
0.242043
0.076317
0.0107808
0.101454
0.0556914
-0.0999006
0.168773
-0.135052
0.242048
-0.195266
0.330294
-0.272859
0.435437
-0.368033
0.555544
-0.479835
0.686698
-0.605514
0.823096
-0.740171
0.958191
-0.877451
1.08618
-1.01103
1.20274
-1.13545
1.30607
-1.24727
1.39746
-1.34591
1.48098
-1.4339
1.5626
-1.51623
1.64875
-1.59944
1.74419
-1.6885
1.85462
-1.78843
1.98777
-1.90276
2.162
-1.94384
2.7606
0.205042
-2.80122
2.47023
-2.54118
2.61286
-2.61875
2.56258
-2.62928
2.38774
-2.52435
2.11098
-2.30261
1.77868
-1.99698
1.4445
-1.65938
1.14885
-1.3382
0.911228
-1.06422
0.734219
-0.849317
0.610916
-0.693795
0.529304
-0.736855
-0.148417
-0.0350868
-0.00910798
-0.00314019
2.48934
-1.98076
-0.380616
-0.105917
-0.0555501
0.013262
-0.0514054
0.0307166
-0.0946802
-0.0456812
0.099048
-0.157162
0.128126
-0.222135
0.1814
-0.298434
0.249274
-0.387318
0.330979
-0.486059
0.424655
-0.590194
0.526733
-0.694144
0.632169
-0.79205
0.735109
-0.878765
0.82983
-0.950691
0.9117
-1.00628
0.977895
-1.04607
1.0277
-1.0724
1.06239
-1.08889
1.08484
-1.09995
1.09903
-1.11031
1.10959
-1.12442
1.12111
-1.14634
1.13514
-1.18891
1.10804
-1.45676
-0.0576328
1.47241
-1.26541
1.304
-1.37833
1.34955
-1.45598
1.41421
-1.55369
1.49334
-1.69503
1.59967
-1.91744
1.75949
-2.27949
2.03339
-2.80007
2.48497
-3.35626
3.05182
-3.76007
3.49853
-4.16585
4.4728
-2.28474
3.54929
0.713724
0.166046
0.0407388
0.0125539
1.77709
-1.33253
-0.331892
-0.0926641
-0.0434587
0.00575166
-0.0353435
0.017053
-0.0675208
-0.0324567
0.0638156
-0.104614
0.0792537
-0.148359
0.112686
-0.198838
0.155788
-0.25736
0.208032
-0.322071
0.268322
-0.389968
0.334434
-0.457351
0.40314
-0.5204
0.470621
-0.575818
0.533077
-0.621379
0.587371
-0.656217
0.631522
-0.680835
0.664927
-0.696872
0.688305
-0.706778
0.703444
-0.71348
0.712896
-0.720061
0.719662
-0.729401
0.726733
-0.744221
0.734557
-0.775507
0.703499
-0.998245
-0.0400609
1.002
-0.810369
0.845843
-0.896512
0.871698
-0.948439
0.912162
-1.0135
0.960919
-1.10836
1.02507
-1.25848
1.12029
-1.5027
1.28727
-1.85031
1.57444
-2.2138
1.94718
-2.46938
2.24106
-2.70871
2.97871
-1.36841
2.47561
0.622034
0.149002
0.0367234
0.0113164
1.18923
-0.848717
-0.252719
-0.0718182
-0.0313767
0.00184238
-0.0230351
0.00885099
-0.0451685
-0.0217075
0.0391383
-0.0661987
0.0467929
-0.0941852
0.0668103
-0.125962
0.0929278
-0.16264
0.124797
-0.203025
0.161802
-0.245197
0.202622
-0.286824
0.245285
-0.325532
0.287418
-0.35931
0.326621
-0.386841
0.360879
-0.407673
0.388879
-0.422201
0.410171
-0.431514
0.425135
-0.437182
0.434833
-0.441051
0.440823
-0.445039
0.444962
-0.450921
0.449105
-0.460436
0.453176
-0.482031
0.425813
-0.646516
-0.0262482
0.645344
-0.494507
0.52318
-0.555575
0.536911
-0.588615
0.561069
-0.629817
0.589735
-0.690317
0.626614
-0.786534
0.680633
-0.942952
0.777713
-1.16356
0.951916
-1.3898
1.18517
-1.5442
1.36962
-1.67741
1.8857
-0.779968
1.62963
0.474958
0.117387
0.0291096
0.00896778
0.68288
-0.470268
-0.156948
-0.0453608
-0.0190139
0.000246956
-0.0130097
0.00406967
-0.0259349
-0.0124777
0.0210789
-0.0365517
0.0244488
-0.0521394
0.0350283
-0.0696189
0.0489711
-0.0897249
0.0660764
-0.111791
0.0860369
-0.134748
0.108159
-0.157312
0.131383
-0.178191
0.154416
-0.196305
0.175936
-0.210965
0.194815
-0.221962
0.210307
-0.229546
0.222131
-0.23434
0.230467
-0.23722
0.235875
-0.2392
0.239188
-0.241329
0.241416
-0.244564
0.243567
-0.249878
0.245439
-0.262593
0.227007
-0.36283
-0.0148389
0.360786
-0.265323
0.283987
-0.301885
0.290435
-0.320219
0.303172
-0.34299
0.318091
-0.376605
0.33691
-0.430263
0.364141
-0.517439
0.414179
-0.639536
0.507237
-0.762893
0.634931
-0.845126
0.736269
-0.9108
1.0416
-0.39474
0.926059
0.295859
0.0748812
0.0186668
0.00574303
0.222653
-0.150481
-0.0531113
-0.0154985
-0.0063733
-5.46338e-05
-0.0042063
0.00116104
-0.00845305
-0.00406843
0.00664673
-0.0116741
0.00757964
-0.0166773
0.0108802
-0.0222495
0.0152551
-0.0286471
0.0206384
-0.0356558
0.0269373
-0.0429328
0.0339363
-0.0500688
0.0413018
-0.0566538
0.0486236
-0.0623481
0.0554793
-0.0669385
0.0615067
-0.0703646
0.0664629
-0.0727122
0.0702534
-0.0741837
0.0729305
-0.0750602
0.074668
-0.0756657
0.0757287
-0.0763322
0.0764319
-0.0773628
0.0770974
-0.0790695
0.0776316
-0.0832713
0.07116
-0.116881
-0.00476809
0.116056
-0.0834043
0.0899448
-0.0955871
0.0918063
-0.101461
0.0957734
-0.108741
0.100384
-0.11952
0.106131
-0.136759
0.114384
-0.164758
0.129755
-0.203826
0.158946
-0.242981
0.19955
-0.268748
0.231845
-0.288357
0.332896
-0.119926
0.300423
0.100304
0.0257084
0.00642612
0.00196079
-0.222649
0.150484
0.0531137
0.0155015
0.00637725
5.97238e-05
0.00421279
-0.00115283
0.00846322
0.00408069
-0.00663235
0.0116906
-0.00756079
0.0166986
-0.0108561
0.0222765
-0.015225
0.0286803
-0.0206021
0.0356952
-0.0268949
0.0429782
-0.0338882
0.0501195
-0.0412489
0.0567087
-0.0485669
0.0624063
-0.0554198
0.066999
-0.0614454
0.0704266
-0.0664004
0.0727752
-0.07019
0.0742476
-0.0728659
0.0751255
-0.0746018
0.075733
-0.0756601
0.0764024
-0.0763599
0.0774368
-0.0770209
0.0791487
-0.0775493
0.0833571
-0.0710703
0.116975
0.00486545
-0.115955
0.0835069
-0.0898402
0.0956934
-0.0916983
0.101571
-0.0956628
0.108853
-0.100272
0.119632
-0.10602
0.136869
-0.114276
0.164863
-0.129656
0.203919
-0.158863
0.243052
-0.199493
0.268789
-0.231821
0.288365
-0.332899
0.119919
-0.300428
-0.100303
-0.0257033
-0.00642934
-0.00200792
-0.682877
0.47027
0.156949
0.045363
0.0190167
-0.000243332
0.0130143
-0.00406384
0.0259421
0.0124864
-0.0210686
0.0365635
-0.0244353
0.0521547
-0.035011
0.0696383
-0.0489495
0.0897487
-0.0660502
0.111819
-0.0860062
0.13478
-0.108124
0.157349
-0.131344
0.178231
-0.154375
0.196347
-0.175892
0.211009
-0.19477
0.222007
-0.210261
0.229592
-0.222084
0.234387
-0.23042
0.237268
-0.235826
0.23925
-0.239137
0.241381
-0.241363
0.244619
-0.243511
0.249936
-0.245378
0.262656
-0.226941
0.362899
0.0149103
-0.360712
0.265398
-0.28391
0.301963
-0.290355
0.320299
-0.303091
0.343072
-0.318008
0.376688
-0.336827
0.430344
-0.364061
0.517516
-0.414104
0.639605
-0.507174
0.762947
-0.634887
0.845159
-0.736248
0.91081
-1.0416
0.394738
-0.92606
-0.295857
-0.074876
-0.0186674
-0.00577513
-1.18923
0.848717
0.252719
0.0718187
0.0313773
-0.00184157
0.0230362
-0.0088497
0.0451701
0.0217094
-0.039136
0.0662014
-0.0467898
0.0941887
-0.0668063
0.125967
-0.0929227
0.162646
-0.124791
0.203032
-0.161794
0.245205
-0.202613
0.286833
-0.245275
0.325543
-0.287407
0.359321
-0.326609
0.386853
-0.360866
0.407685
-0.388867
0.422214
-0.410158
0.431527
-0.425121
0.437196
-0.434819
0.441065
-0.440809
0.445054
-0.444947
0.450936
-0.44909
0.460452
-0.453159
0.482048
-0.425795
0.646535
0.0262674
-0.645325
0.494528
-0.523159
0.555596
-0.536889
0.588638
-0.561047
0.62984
-0.589712
0.690341
-0.626591
0.786557
-0.68061
0.942974
-0.777691
1.16358
-0.951896
1.38982
-1.18515
1.54422
-1.36961
1.67742
-1.88569
0.779973
-1.62963
-0.474954
-0.117383
-0.0291071
-0.0089727
-1.77709
1.33253
0.331891
0.0926624
0.0434564
-0.0057546
0.0353397
-0.0170578
0.0675149
0.0324496
-0.0638239
0.104605
-0.0792646
0.148347
-0.1127
0.198822
-0.155805
0.257341
-0.208053
0.322049
-0.268346
0.389942
-0.334461
0.457322
-0.40317
0.520369
-0.470653
0.575785
-0.53311
0.621345
-0.587405
0.656183
-0.631556
0.6808
-0.664962
0.696837
-0.688341
0.706742
-0.703481
0.713442
-0.712934
0.720022
-0.719702
0.72936
-0.726776
0.744177
-0.734603
0.77546
-0.703549
0.998192
0.0400064
-1.00205
0.810311
-0.845902
0.896453
-0.871759
0.948378
-0.912223
1.01344
-0.960981
1.1083
-1.02513
1.25842
-1.12035
1.50264
-1.28732
1.85026
-1.57449
2.21376
-1.94721
2.46936
-2.24108
2.70871
-2.9787
1.36842
-2.4756
-0.622033
-0.149004
-0.0367203
-0.0112876
-2.48934
1.98075
0.380613
0.105913
0.055545
-0.0132686
0.051397
-0.0307271
0.0946671
0.0456653
-0.0990667
0.15714
-0.128151
0.222107
-0.181431
0.298398
-0.249314
0.387274
-0.331027
0.486006
-0.424712
0.590134
-0.526797
0.694076
-0.63224
0.791976
-0.735186
0.878686
-0.829911
0.950609
-0.911784
1.00619
-0.977982
1.04599
-1.02779
1.07231
-1.06248
1.0888
-1.08493
1.09986
-1.09912
1.11021
-1.10969
1.12432
-1.12121
1.14623
-1.13525
1.1888
-1.10816
1.45663
0.0574993
-1.47255
1.26527
-1.30415
1.37819
-1.3497
1.45583
-1.41436
1.55353
-1.49349
1.69488
-1.59982
1.91729
-1.75964
2.27935
-2.03353
2.79994
-2.48509
3.35615
-3.05191
3.76
-3.49857
4.16583
-4.47281
2.28474
-3.54929
-0.713733
-0.166058
-0.0407406
-0.0124986
2.49366
-1.98379
-0.379598
-0.107309
-0.0541275
0.0118735
-0.0498678
0.0292985
-0.0928509
-0.0457071
0.0972244
-0.155816
0.126637
-0.220866
0.180035
-0.297348
0.24807
-0.386455
0.329979
-0.485439
0.423889
-0.589819
0.526214
-0.693996
0.631889
-0.792103
0.735046
-0.878989
0.829956
-0.951066
0.911989
-1.00679
0.97833
-1.04672
1.02827
-1.07318
1.0631
-1.0898
1.08567
-1.101
1.1
-1.11149
1.11069
-1.12575
1.12235
-1.14783
1.13653
-1.19058
1.10952
-1.4589
-0.0577653
1.47459
-1.26721
1.30593
-1.38009
1.35143
-1.45746
1.41592
-1.5547
1.4947
-1.69534
1.60046
-1.91688
1.75947
-2.2781
2.03233
-2.7987
2.48356
-3.35541
3.05083
-3.75922
3.49714
-4.1671
4.47383
-2.28425
3.54903
0.713675
0.166034
0.0407356
0.0125526
1.7802
-1.3345
-0.3313
-0.0935807
-0.0425345
0.00485707
-0.0343369
0.0161529
-0.0662703
-0.0324748
0.0625656
-0.103763
0.0782757
-0.147546
0.111789
-0.198146
0.154993
-0.256815
0.207367
-0.321686
0.267808
-0.389741
0.334081
-0.457271
0.402945
-0.520448
0.470568
-0.575975
0.533148
-0.621632
0.587549
-0.65656
0.631795
-0.681264
0.66529
-0.697387
0.688755
-0.707377
0.70398
-0.714166
0.713517
-0.720837
0.72037
-0.730274
0.727534
-0.745197
0.735453
-0.776601
0.704432
-0.999716
-0.0401529
1.00348
-0.811516
0.847107
-0.89764
0.872936
-0.94938
0.913303
-1.01412
0.961851
-1.10851
1.02564
-1.25805
1.12034
-1.50174
1.2866
-1.84941
1.57351
-2.21327
1.94652
-2.46886
2.24007
-2.70961
2.97941
-1.36804
2.47544
0.621992
0.148992
0.0367205
0.0113152
1.19132
-0.849935
-0.252391
-0.0723933
-0.0308047
0.00129278
-0.0224073
0.0083064
-0.0443601
-0.0217194
0.0383285
-0.0656859
0.0461812
-0.0936885
0.0662492
-0.125542
0.0924281
-0.162312
0.124377
-0.202796
0.161475
-0.245066
0.202394
-0.286784
0.245156
-0.32557
0.287378
-0.359414
0.326659
-0.387004
0.360983
-0.40789
0.389044
-0.422471
0.410391
-0.431836
0.425408
-0.437557
0.43516
-0.44148
0.441202
-0.445524
0.445395
-0.451466
0.449595
-0.461045
0.453724
-0.482715
0.426372
-0.647472
-0.0263085
0.646302
-0.495204
0.523968
-0.556265
0.537686
-0.589184
0.561793
-0.630179
0.590338
-0.690381
0.627005
-0.786233
0.680699
-0.942327
0.777316
-1.163
0.951328
-1.38948
1.18476
-1.5439
1.36895
-1.67801
1.88615
-0.779712
1.62953
0.474926
0.117379
0.0291072
0.00896687
0.684083
-0.470927
-0.156785
-0.0456765
-0.0187034
-4.96868e-05
-0.0126668
0.0037795
-0.0254817
-0.0124845
0.0206242
-0.0362793
0.024114
-0.0518725
0.0347211
-0.069394
0.0486965
-0.0895506
0.0658445
-0.111671
0.0858554
-0.134681
0.108031
-0.157294
0.131309
-0.178214
0.154392
-0.196364
0.175954
-0.211055
0.19487
-0.222081
0.210394
-0.229694
0.222248
-0.234517
0.230614
-0.237425
0.23605
-0.239435
0.239392
-0.241594
0.241648
-0.244862
0.243831
-0.25021
0.245734
-0.262968
0.227303
-0.363367
-0.014873
0.361321
-0.265695
0.284418
-0.302256
0.29086
-0.320522
0.303572
-0.343177
0.31843
-0.376627
0.337137
-0.430084
0.364193
-0.517087
0.413969
-0.63923
0.506915
-0.762727
0.634706
-0.844967
0.735883
-0.911146
1.04186
-0.394589
0.926005
0.29584
0.074876
0.0186653
0.00574245
0.223046
-0.15069
-0.0530626
-0.0155991
-0.006275
-0.000148239
-0.00409733
0.00107015
-0.00830711
-0.00407062
0.00650023
-0.0115889
0.00747316
-0.0165932
0.0107825
-0.0221789
0.0151676
-0.0285926
0.0205643
-0.0356185
0.0268792
-0.0429124
0.0338954
-0.0500637
0.041278
-0.0566618
0.0486154
-0.0623672
0.0554846
-0.0669675
0.0615237
-0.0704028
0.0664901
-0.0727595
0.0702903
-0.0742399
0.0729766
-0.0751255
0.0747232
-0.0757402
0.0757929
-0.0764164
0.0765052
-0.0774573
0.0771804
-0.0791751
0.0777244
-0.0833904
0.0712524
-0.117055
-0.00477906
0.116228
-0.0835211
0.0900817
-0.0957041
0.0919417
-0.101556
0.0959014
-0.108799
0.100493
-0.119524
0.106205
-0.1367
0.114403
-0.164644
0.12969
-0.203729
0.158843
-0.242929
0.199478
-0.268699
0.231719
-0.28847
0.332977
-0.119876
0.300406
0.100297
0.0257065
0.0064256
0.0019606
-0.223042
0.150692
0.053065
0.0156021
0.00627897
0.000153357
0.00410385
-0.00106192
0.00831732
0.00408293
-0.0064858
0.0116055
-0.00745425
0.0166147
-0.0107583
0.022206
-0.0151375
0.0286258
-0.0205279
0.035658
-0.0268367
0.0429578
-0.0338472
0.0501144
-0.041225
0.0567168
-0.0485586
0.0624256
-0.055425
0.0670281
-0.0614622
0.0704649
-0.0664275
0.0728226
-0.0702267
0.0743041
-0.0729119
0.075191
-0.0746569
0.0758076
-0.0757242
0.0764867
-0.0764331
0.0775315
-0.0771038
0.0792544
-0.077642
0.0834763
-0.0711626
0.117149
0.00487659
-0.116127
0.0836239
-0.0899769
0.0958106
-0.0918336
0.101666
-0.0957907
0.10891
-0.100381
0.119636
-0.106094
0.13681
-0.114295
0.164749
-0.129591
0.203822
-0.15876
0.243001
-0.199421
0.26874
-0.231695
0.288478
-0.33298
0.119869
-0.300411
-0.100296
-0.0257015
-0.00642883
-0.00200771
-0.68408
0.470929
0.156787
0.0456787
0.0187062
5.33308e-05
0.0126714
-0.00377364
0.025489
0.0124932
-0.020614
0.0362912
-0.0241004
0.0518878
-0.0347038
0.0694135
-0.0486749
0.0895746
-0.0658183
0.111699
-0.0858247
0.134714
-0.107997
0.157331
-0.131271
0.178255
-0.15435
0.196406
-0.17591
0.2111
-0.194825
0.222127
-0.210348
0.229741
-0.222202
0.234564
-0.230566
0.237473
-0.236001
0.239485
-0.239341
0.241646
-0.241595
0.244917
-0.243774
0.250269
-0.245673
0.263031
-0.227237
0.363436
0.0149446
-0.361248
0.265771
-0.284341
0.302335
-0.29078
0.320602
-0.303491
0.343259
-0.318347
0.37671
-0.337054
0.430166
-0.364113
0.517165
-0.413895
0.6393
-0.506852
0.762781
-0.634662
0.845
-0.735862
0.911155
-1.04185
0.394587
-0.926006
-0.295837
-0.0748708
-0.0186659
-0.00577454
-1.19132
0.849935
0.252391
0.0723938
0.0308053
-0.00129197
0.0224084
-0.00830511
0.0443617
0.0217214
-0.0383262
0.0656886
-0.0461781
0.0936921
-0.0662451
0.125547
-0.092423
0.162318
-0.12437
0.202803
-0.161467
0.245074
-0.202386
0.286793
-0.245146
0.32558
-0.287368
0.359425
-0.326648
0.387015
-0.360971
0.407902
-0.389031
0.422483
-0.410378
0.43185
-0.425395
0.437571
-0.435146
0.441494
-0.441188
0.445539
-0.44538
0.451481
-0.449579
0.461061
-0.453707
0.482732
-0.426355
0.64749
0.0263277
-0.646282
0.495225
-0.523947
0.556287
-0.537664
0.589207
-0.56177
0.630202
-0.590315
0.690404
-0.626982
0.786256
-0.680676
0.94235
-0.777294
1.16302
-0.951308
1.3895
-1.18474
1.54391
-1.36894
1.67802
-1.88615
0.779716
-1.62953
-0.474922
-0.117375
-0.0291048
-0.00897179
-1.7802
1.3345
0.331299
0.0935789
0.0425322
-0.00486003
0.0343332
-0.0161577
0.0662644
0.0324677
-0.062574
0.103754
-0.0782866
0.147534
-0.111803
0.198131
-0.15501
0.256796
-0.207388
0.321664
-0.267833
0.389715
-0.334109
0.457242
-0.402975
0.520416
-0.4706
0.575943
-0.533182
0.621598
-0.587583
0.656525
-0.63183
0.681229
-0.665326
0.697351
-0.688791
0.707341
-0.704016
0.714128
-0.713555
0.720798
-0.72041
0.730233
-0.727576
0.745152
-0.735499
0.776553
-0.704482
0.999663
0.0400983
-1.00354
0.811459
-0.847166
0.897581
-0.872996
0.949319
-0.913364
1.01406
-0.961913
1.10845
-1.0257
1.25799
-1.1204
1.50168
-1.28666
1.84936
-1.57355
2.21323
-1.94655
2.46883
-2.24008
2.70961
-2.97941
1.36805
-2.47544
-0.621991
-0.148993
-0.0367174
-0.0112864
-2.49367
1.98378
0.379594
0.107305
0.0541223
-0.0118801
0.0498594
-0.0293092
0.0928378
0.0456912
-0.0972431
0.155794
-0.126662
0.220838
-0.180067
0.297313
-0.24811
0.386411
-0.330027
0.485387
-0.423946
0.589759
-0.526278
0.693928
-0.63196
0.792029
-0.735123
0.87891
-0.830037
0.950983
-0.912074
1.00671
-0.978417
1.04663
-1.02836
1.07309
-1.06319
1.08971
-1.08577
1.1009
-1.10009
1.1114
-1.11079
1.12565
-1.12246
1.14772
-1.13665
1.19046
-1.10964
1.45877
0.0576316
-1.47473
1.26707
-1.30608
1.37994
-1.35158
1.45731
-1.41607
1.55454
-1.49486
1.69519
-1.60062
1.91673
-1.75962
2.27795
-2.03247
2.79857
-2.48368
3.3553
-3.05092
3.75916
-3.49719
4.16708
-4.47384
2.28425
-3.54903
-0.713684
-0.166046
-0.0407374
-0.0124973
7.85437
-5.95779
-0.00318618
-1.45368
-0.143249
-0.239754
-0.0786493
-0.0086106
-0.104286
-0.0557826
0.102718
-0.171142
0.137488
-0.24451
0.19769
-0.332693
0.275238
-0.43769
0.370297
-0.557571
0.481903
-0.688419
0.607304
-0.82444
0.741599
-0.959131
0.87847
-1.08673
1.01163
-1.20292
1.13566
-1.30595
1.24712
-1.39711
1.34549
-1.48048
1.43326
-1.56201
1.51546
-1.64814
1.59861
-1.74356
1.68763
-1.85399
1.78757
-1.987
1.90185
-2.1608
1.94266
-2.75866
-0.204805
2.79886
-2.46841
2.53891
-2.61117
2.61657
-2.56128
2.62742
-2.38684
2.52295
-2.11031
2.30158
-1.77802
1.99611
-1.44375
1.65851
-1.14802
1.33729
-0.91036
1.06325
-0.733488
0.848477
-0.610224
0.693026
-0.528672
0.735969
0.148226
0.0350303
0.00909278
0.0031756
5.61942
-3.96104
-0.224341
-1.04678
-0.156934
-0.180116
-0.0644458
-0.0125709
-0.07601
-0.0399241
0.0656337
-0.114174
0.0847589
-0.163492
0.122484
-0.221908
0.171586
-0.291175
0.232158
-0.369948
0.303697
-0.455556
0.384552
-0.544118
0.471624
-0.631363
0.560804
-0.71359
0.647933
-0.788111
0.729336
-0.853955
0.802592
-0.912168
0.867137
-0.965603
0.924444
-1.01825
0.977686
-1.07432
1.03116
-1.1368
1.08803
-1.20944
1.15148
-1.2974
1.22287
-1.41731
1.22374
-1.89866
-0.144182
1.8993
-1.58376
1.64844
-1.69447
1.69982
-1.65625
1.71468
-1.53494
1.65469
-1.34839
1.51645
-1.12859
1.32014
-0.911113
1.09971
-0.721597
0.887807
-0.571417
0.705692
-0.461129
0.562135
-0.385203
0.458169
-0.32959
0.511262
0.129133
0.0314395
0.0081998
0.00285934
3.76767
-2.49698
-0.26314
-0.708379
-0.134108
-0.126042
-0.047703
-0.0119343
-0.0517352
-0.0268701
0.0399319
-0.072396
0.0498688
-0.103901
0.0724248
-0.140717
0.102094
-0.184207
0.138919
-0.233487
0.182661
-0.28683
0.232374
-0.341767
0.286189
-0.395629
0.341558
-0.446148
0.395865
-0.491725
0.446748
-0.531859
0.492594
-0.567319
0.532933
-0.599982
0.568583
-0.632392
0.601462
-0.667175
0.634258
-0.706138
0.668923
-0.751633
0.707362
-0.806995
0.749853
-0.885519
0.734888
-1.23423
-0.0956317
1.22027
-0.968265
1.02043
-1.04783
1.05252
-1.02087
1.0662
-0.941164
1.03359
-0.8217
0.95123
-0.683377
0.830918
-0.548571
0.693808
-0.432756
0.560754
-0.342217
0.445631
-0.276605
0.354412
-0.23199
0.288402
-0.195789
0.335356
0.0985585
0.0247745
0.0065032
0.00226092
2.16651
-1.37288
-0.194784
-0.410766
-0.0886413
-0.0747889
-0.0292686
-0.00828913
-0.0300651
-0.0155167
0.0213664
-0.0400368
0.0259774
-0.0575635
0.0378851
-0.077833
0.0536877
-0.101707
0.0733996
-0.128683
0.0969213
-0.157794
0.123773
-0.187671
0.15296
-0.216852
0.183097
-0.244118
0.212746
-0.268627
0.240587
-0.290152
0.265695
-0.30916
0.287765
-0.326718
0.307199
-0.34424
0.325021
-0.363157
0.3427
-0.384436
0.361295
-0.409363
0.38181
-0.439818
0.404141
-0.484364
0.389198
-0.694538
-0.0546177
0.680953
-0.520329
0.554205
-0.568423
0.57168
-0.552385
0.581012
-0.507146
0.565236
-0.440586
0.521884
-0.364521
0.457073
-0.291254
0.382342
-0.229015
0.309289
-0.180894
0.245754
-0.146408
0.195212
-0.123201
0.158686
-0.102716
0.190069
0.0613739
0.0158075
0.00417172
0.0014418
0.706914
-0.437475
-0.0706712
-0.134683
-0.0308494
-0.0248087
-0.00986028
-0.0029435
-0.00986048
-0.00507252
0.0067126
-0.0127985
0.00803916
-0.0184205
0.0117517
-0.0248852
0.0167037
-0.0324875
0.0228978
-0.041065
0.0303079
-0.0503057
0.0387875
-0.0597714
0.0480252
-0.0689977
0.0575824
-0.0776005
0.0669998
-0.0853179
0.0758536
-0.0920853
0.0838421
-0.09806
0.0908599
-0.103588
0.097028
-0.109121
0.102666
-0.115116
0.108243
-0.121873
0.114093
-0.129803
0.120528
-0.139513
0.127469
-0.153959
0.121525
-0.224077
-0.0177252
0.21881
-0.163738
0.175553
-0.179844
0.181085
-0.174526
0.184369
-0.159862
0.179707
-0.138495
0.166216
-0.114249
0.14578
-0.0910432
0.122064
-0.0714545
0.0987869
-0.0564044
0.0784863
-0.0456878
0.0623027
-0.0385207
0.0506182
-0.0318825
0.0615761
0.0208063
0.00543013
0.00143658
0.000484091
-0.706907
0.437478
0.0706726
0.134685
0.0308521
0.0248127
0.00986608
0.00295133
0.00987059
0.00508501
-0.00669772
0.0128158
-0.00801922
0.0184433
-0.0117258
0.0249145
-0.0166709
0.0325239
-0.0228577
0.0411089
-0.0302603
0.0503569
-0.038733
0.0598292
-0.0479645
0.0690611
-0.0575165
0.0776684
-0.0669301
0.0853891
-0.075781
0.092159
-0.0837674
0.0981357
-0.0907832
0.103665
-0.0969491
0.109202
-0.102584
0.115199
-0.108157
0.121962
-0.114002
0.129898
-0.120431
0.139615
-0.127364
0.154069
-0.12141
0.224196
0.0178474
-0.218686
0.163861
-0.175432
0.179962
-0.180971
0.174634
-0.184267
0.159956
-0.179621
0.138573
-0.166146
0.11431
-0.145727
0.0910892
-0.122024
0.0714877
-0.0987592
0.056427
-0.0784682
0.0457016
-0.0622926
0.0385278
-0.0506131
0.0318874
-0.0615696
-0.0207974
-0.0054213
-0.00143633
-0.000517484
-2.1665
1.37288
0.194786
0.410767
0.0886432
0.0747918
0.0292727
0.00829469
0.0300723
0.0155255
-0.0213559
0.0400491
-0.0259632
0.0575799
-0.0378665
0.077854
-0.0536642
0.101733
-0.0733707
0.128715
-0.0968869
0.157831
-0.123733
0.187713
-0.152916
0.216898
-0.183049
0.244168
-0.212695
0.26868
-0.240534
0.290206
-0.26564
0.309216
-0.287708
0.326775
-0.307141
0.344299
-0.32496
0.363219
-0.342637
0.384501
-0.361228
0.409433
-0.381738
0.439892
-0.404063
0.484445
-0.389114
0.694625
0.0547074
-0.680862
0.52042
-0.554116
0.568511
-0.571596
0.552466
-0.580936
0.507217
-0.565171
0.440646
-0.521831
0.364569
-0.457032
0.291291
-0.382311
0.229042
-0.309266
0.180913
-0.245738
0.14642
-0.195203
0.123208
-0.158681
0.102721
-0.190063
-0.0613666
-0.0158002
-0.0041704
-0.00146456
-3.76767
2.49699
0.263141
0.708379
0.134108
0.126043
0.0477039
0.0119355
0.0517367
0.026872
-0.0399296
0.0723988
-0.0498656
0.103904
-0.0724205
0.140722
-0.102089
0.184213
-0.138912
0.233494
-0.182652
0.286839
-0.232364
0.341778
-0.286177
0.395641
-0.341546
0.446161
-0.395852
0.491738
-0.446734
0.531873
-0.492579
0.567334
-0.532917
0.599998
-0.568567
0.632409
-0.601445
0.667192
-0.63424
0.706156
-0.668904
0.751652
-0.707342
0.807016
-0.749832
0.885541
-0.734865
1.23425
0.0956559
-1.22024
0.96829
-1.0204
1.04786
-1.0525
1.02089
-1.06618
0.941186
-1.03357
0.821719
-0.951212
0.683393
-0.830903
0.548584
-0.693796
0.432767
-0.560744
0.342225
-0.445624
0.276611
-0.354406
0.231995
-0.288398
0.195793
-0.335353
-0.0985553
-0.0247715
-0.00650116
-0.00226443
-5.61942
3.96104
0.22434
1.04678
0.156933
0.180113
0.0644425
0.0125663
0.0760042
0.0399168
-0.0656423
0.114164
-0.0847704
0.163479
-0.122499
0.221892
-0.171605
0.291154
-0.232181