/*--------------------------------*- C++ -*----------------------------------*\
| =========                 |                                                 |
| \\      /  F ield         | OpenFOAM: The Open Source CFD Toolbox           |
|  \\    /   O peration     | Version:  5.x                                   |
|   \\  /    A nd           | Web:      www.OpenFOAM.org                      |
|    \\/     M anipulation  |                                                 |
\*---------------------------------------------------------------------------*/
FoamFile
{
    version     2.0;
    format      ascii;
    class       volScalarField;
    location    "0.5";
    object      gradTx;
}
// * * * * * * * * * * * * * * * * * * * * * * * * * * * * * * * * * * * * * //

dimensions      [0 -1 0 1 0 0 0];

internalField   nonuniform List<scalar> 
3200
(
110.079
6.52474
1.56823
1.28187
0.248175
0.179838
-0.0101825
-0.0252002
-0.0849901
-0.203077
-0.139645
-0.195399
-0.202009
-0.278302
-0.287268
-0.383214
-0.394247
-0.509973
-0.522972
-0.656733
-0.671404
-0.819331
-0.835158
-0.991177
-1.00747
-1.1643
-1.18032
-1.33107
-1.34618
-1.48533
-1.49908
-1.62369
-1.63595
-1.74643
-1.75742
-1.85746
-1.8677
-1.96349
-1.97366
-2.07242
-2.0832
-2.19079
-2.20283
-2.32564
-2.3397
-2.48557
-2.50283
-2.67469
-2.71066
-3.00949
-5.62756
-3.21489
-3.25564
-3.25105
-3.32878
-3.3306
-3.30237
-3.29246
-3.13169
-3.10863
-2.82537
-2.79188
-2.4297
-2.39103
-2.00826
-1.97
-1.61653
-1.58278
-1.28778
-1.26055
-1.03321
-1.0128
-0.849427
-0.835325
-0.74594
-0.707423
-0.0414074
-0.00725057
-0.00163766
-2.39227
110.262
5.84539
1.92514
1.28279
0.350261
0.188734
0.00944309
-0.0268192
-0.088316
-0.186573
-0.14857
-0.192868
-0.207944
-0.273629
-0.294355
-0.377154
-0.402669
-0.502512
-0.53257
-0.647936
-0.681856
-0.809407
-0.845995
-0.980508
-1.01817
-1.15339
-1.19043
-1.32043
-1.35535
-1.4754
-1.5072
-1.61476
-1.64313
-1.73855
-1.76399
-1.85046
-1.87415
-1.95697
-1.9805
-2.06586
-2.09081
-2.1838
-2.21166
-2.31782
-2.35038
-2.47671
-2.51716
-2.6733
-2.76527
-3.178
-5.17199
-3.39235
-3.28255
-3.26366
-3.32254
-3.32617
-3.30095
-3.27799
-3.13943
-3.08615
-2.84255
-2.76522
-2.45379
-2.36449
-2.03512
-1.94673
-1.64225
-1.56424
-1.30982
-1.24685
-1.05056
-1.00333
-0.861992
-0.828668
-0.740615
-0.652201
-0.0989467
-0.020609
-0.00474085
-2.39347
110.411
5.35594
2.15095
1.29532
0.421507
0.19834
0.0233468
-0.0274298
-0.090173
-0.175521
-0.154206
-0.191508
-0.211857
-0.270756
-0.298961
-0.37339
-0.408121
-0.497847
-0.538759
-0.642402
-0.688567
-0.803126
-0.852921
-0.973718
-1.02497
-1.14641
-1.19682
-1.31359
-1.36113
-1.469
-1.51229
-1.60899
-1.64763
-1.73348
-1.76813
-1.84597
-1.87824
-1.95282
-1.98487
-2.06172
-2.0957
-2.17941
-2.21736
-2.31295
-2.35731
-2.47129
-2.52687
-2.67449
-2.80705
-3.28326
-4.86738
-3.50301
-3.30583
-3.27317
-3.31851
-3.3229
-3.29944
-3.26814
-3.14375
-3.07129
-2.85306
-2.74792
-2.46898
-2.34755
-2.05234
-1.9321
-1.6589
-1.55274
-1.32419
-1.23848
-1.06194
-0.997608
-0.870228
-0.824192
-0.735299
-0.615567
-0.137486
-0.031466
-0.00736048
-2.39448
110.516
5.03918
2.28278
1.30857
0.466727
0.206018
0.0322805
-0.0275637
-0.0911283
-0.168739
-0.1575
-0.19083
-0.214233
-0.269117
-0.301725
-0.371219
-0.41138
-0.49514
-0.542446
-0.639174
-0.692551
-0.799444
-0.857015
-0.969718
-1.02897
-1.14229
-1.20056
-1.30953
-1.3645
-1.46519
-1.51525
-1.60556
-1.65024
-1.73046
-1.77054
-1.84331
-1.88064
-1.95038
-1.98746
-2.0593
-2.0986
-2.17686
-2.22076
-2.31014
-2.36146
-2.46821
-2.5329
-2.67628
-2.83509
-3.34421
-4.68071
-3.56699
-3.32254
-3.27956
-3.31612
-3.32074
-3.29824
-3.26202
-3.14598
-3.06224
-2.85905
-2.73756
-2.47786
-2.33754
-2.06254
-1.92357
-1.66885
-1.54613
-1.33284
-1.23372
-1.06881
-0.9944
-0.875199
-0.82142
-0.731207
-0.593259
-0.161137
-0.0390419
-0.00924891
-2.39522
110.57
4.88365
2.34332
1.31653
0.488701
0.210217
0.0366568
-0.0275513
-0.091525
-0.165515
-0.159016
-0.190554
-0.215355
-0.268374
-0.303019
-0.370228
-0.412904
-0.493901
-0.544165
-0.63769
-0.694405
-0.797745
-0.858914
-0.967866
-1.03083
-1.14037
-1.20229
-1.30765
-1.36605
-1.46341
-1.5166
-1.60395
-1.65144
-1.72905
-1.77164
-1.84208
-1.88174
-1.94925
-1.98866
-2.05818
-2.09996
-2.17569
-2.22234
-2.30885
-2.36341
-2.46682
-2.5358
-2.67747
-2.84913
-3.37208
-4.59207
-3.59621
-3.33119
-3.28278
-3.31501
-3.31967
-3.29758
-3.25908
-3.14692
-3.05797
-2.86175
-2.73271
-2.48195
-2.3329
-2.06729
-1.91966
-1.67351
-1.54312
-1.3369
-1.23157
-1.07205
-0.992965
-0.877536
-0.820091
-0.729012
-0.582709
-0.172379
-0.04292
-0.010237
-2.39561
110.57
4.88365
2.34332
1.31653
0.488701
0.210217
0.036657
-0.027551
-0.0915248
-0.165515
-0.159016
-0.190554
-0.215354
-0.268374
-0.303019
-0.370228
-0.412903
-0.4939
-0.544165
-0.63769
-0.694404
-0.797744
-0.858914
-0.967865
-1.03082
-1.14037
-1.20229
-1.30765
-1.36604
-1.46341
-1.5166
-1.60395
-1.65144
-1.72905
-1.77164
-1.84208
-1.88174
-1.94925
-1.98866
-2.05818
-2.09996
-2.17569
-2.22234
-2.30885
-2.36341
-2.46682
-2.5358
-2.67747
-2.84913
-3.37208
-4.59207
-3.59621
-3.33119
-3.28278
-3.31502
-3.31967
-3.29758
-3.25908
-3.14692
-3.05797
-2.86175
-2.73271
-2.48195
-2.3329
-2.06729
-1.91966
-1.67351
-1.54312
-1.3369
-1.23157
-1.07205
-0.992966
-0.877536
-0.820091
-0.729012
-0.582708
-0.172379
-0.0429205
-0.0102393
-2.39561
110.516
5.03918
2.28278
1.30857
0.466727
0.206019
0.0322811
-0.0275631
-0.0911276
-0.168738
-0.157499
-0.190829
-0.214232
-0.269116
-0.301724
-0.371218
-0.411379
-0.495139
-0.542445
-0.639173
-0.69255
-0.799443
-0.857014
-0.969717
-1.02897
-1.14228
-1.20056
-1.30953
-1.3645
-1.46519
-1.51525
-1.60556
-1.65024
-1.73046
-1.77054
-1.84331
-1.88064
-1.95038
-1.98746
-2.0593
-2.0986
-2.17686
-2.22076
-2.31013
-2.36146
-2.46821
-2.5329
-2.67628
-2.83509
-3.34421
-4.68071
-3.56699
-3.32254
-3.27957
-3.31612
-3.32075
-3.29824
-3.26202
-3.14599
-3.06224
-2.85905
-2.73756
-2.47787
-2.33754
-2.06255
-1.92358
-1.66885
-1.54613
-1.33284
-1.23372
-1.06881
-0.994401
-0.875199
-0.821421
-0.731207
-0.593258
-0.161136
-0.0390432
-0.0092551
-2.39522
110.411
5.35594
2.15095
1.29532
0.421507
0.198341
0.0233475
-0.027429
-0.0901721
-0.17552
-0.154205
-0.191507
-0.211856
-0.270755
-0.29896
-0.373388
-0.40812
-0.497845
-0.538757
-0.6424
-0.688566
-0.803125
-0.85292
-0.973717
-1.02497
-1.14641
-1.19682
-1.31359
-1.36113
-1.469
-1.51229
-1.60899
-1.64763
-1.73348
-1.76812
-1.84597
-1.87824
-1.95282
-1.98487
-2.06172
-2.0957
-2.17941
-2.21736
-2.31295
-2.35731
-2.47129
-2.52687
-2.67449
-2.80704
-3.28326
-4.86738
-3.50301
-3.30583
-3.27317
-3.31851
-3.3229
-3.29944
-3.26815
-3.14375
-3.07129
-2.85307
-2.74793
-2.46899
-2.34755
-2.05234
-1.9321
-1.6589
-1.55275
-1.3242
-1.23848
-1.06194
-0.99761
-0.870229
-0.824193
-0.735299
-0.615566
-0.137485
-0.0314677
-0.00736876
-2.39448
110.262
5.84539
1.92514
1.28279
0.350261
0.188735
0.00944375
-0.0268184
-0.0883152
-0.186572
-0.148569
-0.192867
-0.207943
-0.273628
-0.294354
-0.377153
-0.402667
-0.502511
-0.532568
-0.647935
-0.681855
-0.809405
-0.845994
-0.980507
-1.01817
-1.15339
-1.19043
-1.32043
-1.35535
-1.47539
-1.5072
-1.61475
-1.64313
-1.73855
-1.76399
-1.85046
-1.87415
-1.95697
-1.9805
-2.06586
-2.09081
-2.1838
-2.21166
-2.31782
-2.35038
-2.47671
-2.51716
-2.6733
-2.76526
-3.178
-5.17199
-3.39234
-3.28255
-3.26366
-3.32254
-3.32618
-3.30095
-3.27799
-3.13943
-3.08616
-2.84255
-2.76523
-2.45379
-2.3645
-2.03512
-1.94673
-1.64225
-1.56424
-1.30982
-1.24685
-1.05056
-1.00333
-0.861993
-0.828668
-0.740615
-0.6522
-0.0989464
-0.0206105
-0.00474835
-2.39346
110.079
6.52474
1.56823
1.28187
0.248175
0.179839
-0.0101822
-0.0251999
-0.0849897
-0.203077
-0.139644
-0.195399
-0.202008
-0.278302
-0.287268
-0.383213
-0.394246
-0.509973
-0.522972
-0.656732
-0.671403
-0.81933
-0.835157
-0.991177
-1.00747
-1.1643
-1.18032
-1.33107
-1.34618
-1.48533
-1.49908
-1.62369
-1.63595
-1.74643
-1.75742
-1.85746
-1.8677
-1.96349
-1.97365
-2.07242
-2.0832
-2.19079
-2.20283
-2.32564
-2.3397
-2.48557
-2.50283
-2.67469
-2.71066
-3.00949
-5.62756
-3.21489
-3.25564
-3.25105
-3.32878
-3.3306
-3.30237
-3.29246
-3.13169
-3.10863
-2.82537
-2.79189
-2.4297
-2.39103
-2.00826
-1.97
-1.61653
-1.58278
-1.28778
-1.26056
-1.03321
-1.0128
-0.849427
-0.835325
-0.74594
-0.707423
-0.0414073
-0.00725125
-0.00164097
-2.39227
117.764
2.06372
0.122913
0.027396
-0.0256701
-0.0320426
-0.0538125
-0.0573233
-0.0900047
-0.202006
-0.134827
-0.183732
-0.189481
-0.256701
-0.264528
-0.347799
-0.357264
-0.455666
-0.466563
-0.577377
-0.589323
-0.707952
-0.720395
-0.840792
-0.853072
-0.96859
-0.980043
-1.08451
-1.09457
-1.18331
-1.19161
-1.2621
-1.2685
-1.32062
-1.32522
-1.361
-1.36408
-1.38721
-1.38923
-1.4045
-1.40598
-1.41873
-1.42021
-1.43565
-1.43766
-1.46019
-1.46352
-1.4977
-1.51085
-1.61451
-2.97241
-1.67513
-1.6778
-1.67577
-1.74387
-1.75138
-1.8337
-1.84349
-1.94839
-1.96168
-2.10973
-2.12954
-2.35823
-2.3897
-2.76163
-2.80962
-3.36015
-3.4211
-4.04834
-4.10699
-4.60809
-4.66027
-5.21922
-5.165
-3.60997
-3.37137
-0.199242
-0.0350207
-0.00788208
-3.86675
117.813
1.8175
0.273491
0.0590534
-0.0146861
-0.0313203
-0.0524324
-0.0610675
-0.0960583
-0.186217
-0.143654
-0.181688
-0.19475
-0.252562
-0.27065
-0.342488
-0.364375
-0.449246
-0.474439
-0.569988
-0.597604
-0.699869
-0.728631
-0.832411
-0.860799
-0.960378
-0.986855
-1.07693
-1.10019
-1.17673
-1.19592
-1.25676
-1.27156
-1.31659
-1.32722
-1.35818
-1.36533
-1.38539
-1.39007
-1.40336
-1.40679
-1.4179
-1.42134
-1.43476
-1.43944
-1.45917
-1.46716
-1.50083
-1.53583
-1.70599
-2.7326
-1.76991
-1.69473
-1.68566
-1.74053
-1.75765
-1.82868
-1.85136
-1.94231
-1.97312
-2.10166
-2.1476
-2.3462
-2.4191
-2.74072
-2.85163
-3.32478
-3.46539
-4.00303
-4.13852
-4.5724
-4.69071
-5.13405
-5.0069
-3.67599
-3.13019
-0.477406
-0.0995765
-0.0228163
-3.87194
117.853
1.64193
0.370886
0.0850826
-0.0059869
-0.0304196
-0.0515523
-0.0637587
-0.0999066
-0.175739
-0.149259
-0.180645
-0.19823
-0.250015
-0.274624
-0.339179
-0.368969
-0.445217
-0.479505
-0.565319
-0.602903
-0.69473
-0.733871
-0.82705
-0.865682
-0.955093
-0.991127
-1.07202
-1.10368
-1.17245
-1.19857
-1.25327
-1.27342
-1.31394
-1.32842
-1.35632
-1.36606
-1.38418
-1.39057
-1.40261
-1.4073
-1.41737
-1.42208
-1.43423
-1.44062
-1.45863
-1.46978
-1.50391
-1.5554
-1.76322
-2.57237
-1.82919
-1.70903
-1.693
-1.7387
-1.76177
-1.82561
-1.85651
-1.93864
-1.98065
-2.0969
-2.15956
-2.33919
-2.43855
-2.72824
-2.87914
-3.30272
-3.4938
-3.9738
-4.1581
-4.54931
-4.70814
-5.07169
-4.89694
-3.71059
-2.97328
-0.664563
-0.152083
-0.0354192
-3.87636
117.881
1.52912
0.428871
0.103322
4.59975e-05
-0.029652
-0.0510307
-0.0654942
-0.10217
-0.169356
-0.152552
-0.180157
-0.200347
-0.248559
-0.277005
-0.337265
-0.37171
-0.442873
-0.482516
-0.562587
-0.606038
-0.691705
-0.736957
-0.823878
-0.86854
-0.951951
-0.993611
-1.06909
-1.1057
-1.16988
-1.20009
-1.25116
-1.27447
-1.31233
-1.32909
-1.35519
-1.36646
-1.38345
-1.39084
-1.40216
-1.40759
-1.41707
-1.42252
-1.43393
-1.44134
-1.45836
-1.47148
-1.5063
-1.56872
-1.7964
-2.47423
-1.86356
-1.71917
-1.69788
-1.73778
-1.76426
-1.82385
-1.8596
-1.93658
-1.98522
-2.09429
-2.16685
-2.33539
-2.45038
-2.7213
-2.89575
-3.28994
-3.51064
-3.95638
-4.1694
-4.53551
-4.71735
-5.03084
-4.82742
-3.7272
-2.87921
-0.779855
-0.188746
-0.0445002
-3.87956
117.895
1.47396
0.455868
0.112669
0.00313465
-0.0292188
-0.0507877
-0.0663438
-0.103216
-0.166336
-0.154074
-0.179971
-0.201348
-0.247899
-0.27812
-0.33639
-0.37299
-0.441796
-0.483918
-0.561327
-0.607494
-0.690305
-0.738384
-0.822405
-0.869858
-0.950487
-0.99475
-1.06771
-1.10662
-1.16867
-1.20077
-1.25017
-1.27494
-1.31158
-1.32938
-1.35465
-1.36664
-1.3831
-1.39097
-1.40195
-1.40772
-1.41693
-1.42273
-1.4338
-1.44168
-1.45825
-1.47232
-1.5076
-1.57545
-1.81159
-2.42764
-1.87929
-1.72439
-1.70031
-1.73741
-1.76543
-1.82306
-1.86106
-1.93566
-1.98737
-2.09314
-2.17029
-2.33374
-2.45598
-2.71823
-2.90356
-3.2841
-3.51847
-3.94826
-4.17455
-4.52905
-4.72127
-5.01063
-4.79373
-3.7337
-2.83516
-0.834798
-0.207521
-0.0492469
-3.88124
117.895
1.47396
0.455868
0.11267
0.00313476
-0.0292186
-0.0507876
-0.0663436
-0.103216
-0.166336
-0.154073
-0.179971
-0.201347
-0.247898
-0.278119
-0.33639
-0.37299
-0.441796
-0.483918
-0.561327
-0.607494
-0.690305
-0.738384
-0.822405
-0.869857
-0.950487
-0.994749
-1.06771
-1.10662
-1.16867
-1.20077
-1.25017
-1.27494
-1.31158
-1.32938
-1.35465
-1.36664
-1.3831
-1.39097
-1.40195
-1.40772
-1.41693
-1.42273
-1.4338
-1.44168
-1.45825
-1.47232
-1.5076
-1.57545
-1.81159
-2.42764
-1.87929
-1.72439
-1.70031
-1.73741
-1.76543
-1.82306
-1.86106
-1.93566
-1.98737
-2.09314
-2.17029
-2.33374
-2.45598
-2.71823
-2.90356
-3.28411
-3.51847
-3.94826
-4.17455
-4.52905
-4.72128
-5.01063
-4.79373
-3.7337
-2.83516
-0.834798
-0.207522
-0.0492497
-3.88124
117.881
1.52911
0.428871
0.103322
4.62992e-05
-0.0296517
-0.0510302
-0.0654937
-0.102169
-0.169355
-0.152552
-0.180156
-0.200346
-0.248558
-0.277004
-0.337264
-0.371709
-0.442872
-0.482515
-0.562586
-0.606037
-0.691704
-0.736956
-0.823878
-0.86854
-0.95195
-0.99361
-1.06908
-1.1057
-1.16988
-1.20009
-1.25116
-1.27447
-1.31233
-1.32909
-1.35519
-1.36646
-1.38345
-1.39084
-1.40216
-1.40759
-1.41707
-1.42252
-1.43393
-1.44134
-1.45836
-1.47148
-1.5063
-1.56872
-1.7964
-2.47423
-1.86356
-1.71917
-1.69788
-1.73778
-1.76426
-1.82385
-1.8596
-1.93658
-1.98522
-2.09429
-2.16685
-2.33539
-2.45039
-2.7213
-2.89575
-3.28995
-3.51064
-3.95638
-4.1694
-4.53551
-4.71736
-5.03084
-4.82742
-3.72721
-2.87921
-0.779853
-0.188747
-0.0445078
-3.87955
117.853
1.64193
0.370886
0.085083
-0.0059865
-0.0304191
-0.0515517
-0.063758
-0.0999058
-0.175738
-0.149258
-0.180644
-0.198229
-0.250014
-0.274623
-0.339177
-0.368968
-0.445216
-0.479504
-0.565318
-0.602901
-0.694728
-0.73387
-0.827049
-0.865681
-0.955093
-0.991126
-1.07202
-1.10368
-1.17245
-1.19857
-1.25327
-1.27342
-1.31394
-1.32842
-1.35632
-1.36606
-1.38418
-1.39057
-1.40261
-1.4073
-1.41737
-1.42208
-1.43423
-1.44062
-1.45863
-1.46978
-1.50391
-1.5554
-1.76322
-2.57236
-1.82919
-1.70903
-1.693
-1.7387
-1.76177
-1.82561
-1.8565
-1.93864
-1.98065
-2.0969
-2.15956
-2.33919
-2.43855
-2.72824
-2.87914
-3.30272
-3.4938
-3.9738
-4.15811
-4.54932
-4.70815
-5.0717
-4.89695
-3.71059
-2.97328
-0.664561
-0.152084
-0.0354295
-3.87635
117.813
1.8175
0.273491
0.0590537
-0.0146858
-0.0313199
-0.0524319
-0.0610669
-0.0960576
-0.186216
-0.143653
-0.181687
-0.194749
-0.252561
-0.270648
-0.342487
-0.364373
-0.449245
-0.474438
-0.569986
-0.597603
-0.699868
-0.72863
-0.83241
-0.860798
-0.960377
-0.986854
-1.07693
-1.10019
-1.17673
-1.19592
-1.25676
-1.27156
-1.31659
-1.32722
-1.35818
-1.36533
-1.38539
-1.39007
-1.40336
-1.40679
-1.4179
-1.42134
-1.43476
-1.43944
-1.45917
-1.46716
-1.50083
-1.53582
-1.70599
-2.7326
-1.76991
-1.69473
-1.68566
-1.74053
-1.75765
-1.82868
-1.85136
-1.94231
-1.97312
-2.10166
-2.1476
-2.3462
-2.4191
-2.74072
-2.85163
-3.32479
-3.46539
-4.00304
-4.13852
-4.5724
-4.69072
-5.13406
-5.00691
-3.67599
-3.13019
-0.477405
-0.0995773
-0.0228257
-3.87194
117.764
2.06372
0.122913
0.0273961
-0.0256699
-0.0320424
-0.0538123
-0.057323
-0.0900043
-0.202006
-0.134827
-0.183732
-0.189481
-0.256701
-0.264528
-0.347799
-0.357264
-0.455666
-0.466562
-0.577377
-0.589323
-0.707951
-0.720394
-0.840791
-0.853072
-0.968589
-0.980043
-1.08451
-1.09457
-1.18331
-1.19161
-1.2621
-1.2685
-1.32062
-1.32521
-1.361
-1.36408
-1.38721
-1.38923
-1.4045
-1.40598
-1.41873
-1.42021
-1.43565
-1.43766
-1.46019
-1.46352
-1.4977
-1.51085
-1.61451
-2.97241
-1.67513
-1.6778
-1.67577
-1.74387
-1.75138
-1.8337
-1.84349
-1.94839
-1.96168
-2.10973
-2.12954
-2.35823
-2.38971
-2.76163
-2.80962
-3.36015
-3.4211
-4.04835
-4.10699
-4.60809
-4.66028
-5.21922
-5.165
-3.60997
-3.37137
-0.199241
-0.0350211
-0.00788625
-3.86675
117.765
2.06732
0.124723
0.0291291
-0.023862
-0.0302274
-0.0518995
-0.0553924
-0.087963
-0.198333
-0.132813
-0.181876
-0.187648
-0.255015
-0.26286
-0.346331
-0.35582
-0.454466
-0.46539
-0.576478
-0.588453
-0.707364
-0.719835
-0.840501
-0.852808
-0.968566
-0.980043
-1.08472
-1.0948
-1.18372
-1.19204
-1.2627
-1.26911
-1.32139
-1.326
-1.36194
-1.36504
-1.38832
-1.39036
-1.40578
-1.40728
-1.42018
-1.42169
-1.43729
-1.43932
-1.46203
-1.46538
-1.49974
-1.51293
-1.61684
-2.97676
-1.6776
-1.68022
-1.67818
-1.74618
-1.75367
-1.83573
-1.84548
-1.9499
-1.96312
-2.11045
-2.13017
-2.35791
-2.38928
-2.76021
-2.80814
-3.35847
-3.41943
-4.04711
-4.10578
-4.6069
-4.65919
-5.22018
-5.166
-3.60973
-3.37108
-0.199227
-0.0350183
-0.00788154
-3.86486
117.814
1.82081
0.275431
0.060824
-0.0128763
-0.0294954
-0.0505207
-0.0591094
-0.0939078
-0.182844
-0.141532
-0.179801
-0.192922
-0.250866
-0.268997
-0.341008
-0.362948
-0.448031
-0.473286
-0.56907
-0.596753
-0.699261
-0.72809
-0.832101
-0.86055
-0.960337
-0.986869
-1.07712
-1.10043
-1.17713
-1.19636
-1.25735
-1.27219
-1.31735
-1.32802
-1.35911
-1.3663
-1.38649
-1.39121
-1.40463
-1.4081
-1.41934
-1.42283
-1.43639
-1.44111
-1.461
-1.46904
-1.50287
-1.53794
-1.70845
-2.73659
-1.77251
-1.69718
-1.68807
-1.74284
-1.75992
-1.83072
-1.85331
-1.94385
-1.97451
-2.10242
-2.14816
-2.34594
-2.41861
-2.73939
-2.85015
-3.32313
-3.46376
-4.00176
-4.13731
-4.57124
-4.6898
-5.13481
-5.00776
-3.67585
-3.12995
-0.477372
-0.0995697
-0.0228148
-3.87006
117.854
1.64502
0.372907
0.0868822
-0.00417441
-0.0285879
-0.0496403
-0.0617791
-0.0976886
-0.172566
-0.14707
-0.178734
-0.196405
-0.248312
-0.27298
-0.33769
-0.367553
-0.443992
-0.478364
-0.56439
-0.602064
-0.694109
-0.733341
-0.826728
-0.865443
-0.955042
-0.991149
-1.0722
-1.10393
-1.17284
-1.19902
-1.25385
-1.27405
-1.31469
-1.32923
-1.35725
-1.36704
-1.38528
-1.39171
-1.40388
-1.40861
-1.41881
-1.42357
-1.43586
-1.4423
-1.46045
-1.47166
-1.50595
-1.55755
-1.76576
-2.57612
-1.83187
-1.71149
-1.6954
-1.74101
-1.76402
-1.82765
-1.85843
-1.94019
-1.982
-2.09769
-2.16007
-2.33897
-2.43802
-2.72696
-2.87768
-3.30109
-3.4922
-3.97251
-4.1569
-4.54819
-4.70734
-5.07231
-4.89769
-3.71052
-2.97308
-0.664517
-0.152073
-0.0354168
-3.87447
117.883
1.53207
0.430939
0.105141
0.00186091
-0.027816
-0.049118
-0.0634999
-0.099913
-0.166306
-0.150325
-0.178231
-0.198522
-0.246852
-0.275367
-0.335772
-0.370302
-0.441641
-0.481383
-0.561651
-0.605207
-0.691077
-0.736433
-0.823549
-0.868308
-0.951892
-0.993638
-1.06926
-1.10595
-1.17026
-1.20054
-1.25173
-1.2751
-1.31308
-1.3299
-1.35611
-1.36744
-1.38454
-1.39199
-1.40342
-1.40891
-1.4185
-1.42402
-1.43555
-1.44303
-1.46018
-1.47337
-1.50834
-1.57089
-1.79899
-2.47784
-1.86629
-1.72165
-1.70028
-1.7401
-1.7665
-1.8259
-1.86151
-1.93814
-1.98655
-2.09509
-2.16733
-2.3352
-2.44983
-2.72007
-2.89429
-3.28833
-3.50906
-3.95508
-4.16819
-4.53441
-4.71662
-5.03137
-4.8281
-3.72718
-2.87903
-0.779803
-0.188733
-0.0444971
-3.87767
117.897
1.47685
0.457957
0.114499
0.00495096
-0.0273806
-0.0488745
-0.0643421
-0.100941
-0.163345
-0.151829
-0.178036
-0.199523
-0.246191
-0.276485
-0.334895
-0.371585
-0.440562
-0.482788
-0.560388
-0.606666
-0.689674
-0.737864
-0.822072
-0.869627
-0.950425
-0.994779
-1.06789
-1.10687
-1.16906
-1.20123
-1.25074
-1.27557
-1.31232
-1.33019
-1.35557
-1.36762
-1.38419
-1.39212
-1.40321
-1.40904
-1.41836
-1.42423
-1.43542
-1.44337
-1.46007
-1.47421
-1.50963
-1.57763
-1.81419
-2.43118
-1.88203
-1.72687
-1.70271
-1.73972
-1.76767
-1.82511
-1.86296
-1.93722
-1.98869
-2.09395
-2.17077
-2.33356
-2.45542
-2.71701
-2.90211
-3.2825
-3.5169
-3.94695
-4.17334
-4.52796
-4.72057
-5.01112
-4.79438
-3.73369
-2.83499
-0.834743
-0.207507
-0.0492435
-3.87935
117.897
1.47685
0.457957
0.114499
0.00495107
-0.0273804
-0.0488743
-0.0643419
-0.100941
-0.163345
-0.151829
-0.178036
-0.199523
-0.246191
-0.276484
-0.334895
-0.371584
-0.440562
-0.482788
-0.560388
-0.606666
-0.689674
-0.737863
-0.822072
-0.869627
-0.950425
-0.994779
-1.06789
-1.10687
-1.16906
-1.20123
-1.25074
-1.27557
-1.31232
-1.33019
-1.35557
-1.36762
-1.38419
-1.39212
-1.40321
-1.40904
-1.41836
-1.42423
-1.43542
-1.44337
-1.46007
-1.47421
-1.50963
-1.57763
-1.81419
-2.43118
-1.88203
-1.72687
-1.70271
-1.73972
-1.76767
-1.82511
-1.86296
-1.93722
-1.98869
-2.09395
-2.17077
-2.33356
-2.45542
-2.71701
-2.90211
-3.2825
-3.5169
-3.94695
-4.17335
-4.52796
-4.72057
-5.01112
-4.79438
-3.73369
-2.83499
-0.834742
-0.207508
-0.0492463
-3.87935
117.883
1.53207
0.430939
0.105141
0.00186121
-0.0278156
-0.0491175
-0.0634994
-0.0999124
-0.166306
-0.150325
-0.17823
-0.198522
-0.246852
-0.275366
-0.335771
-0.370301
-0.44164
-0.481382
-0.56165
-0.605206
-0.691076
-0.736432
-0.823548
-0.868307
-0.951892
-0.993637
-1.06926
-1.10595
-1.17026
-1.20054
-1.25173
-1.2751
-1.31308
-1.3299
-1.35611
-1.36744
-1.38454
-1.39199
-1.40342
-1.40891
-1.4185
-1.42402
-1.43555
-1.44303
-1.46017
-1.47337
-1.50834
-1.57089
-1.79898
-2.47784
-1.86628
-1.72164
-1.70028
-1.74009
-1.7665
-1.8259
-1.86151
-1.93814
-1.98655
-2.09509
-2.16733
-2.3352
-2.44983
-2.72007
-2.89429
-3.28833
-3.50906
-3.95508
-4.1682
-4.53441
-4.71662
-5.03138
-4.8281
-3.72718
-2.87902
-0.779801
-0.188734
-0.0445048
-3.87766
117.854
1.64502
0.372907
0.0868825
-0.00417401
-0.0285874
-0.0496397
-0.0617784
-0.0976878
-0.172565
-0.147069
-0.178733
-0.196404
-0.248311
-0.272979
-0.337689
-0.367552
-0.44399
-0.478363
-0.564389
-0.602063
-0.694108
-0.73334
-0.826727
-0.865442
-0.955041
-0.991148
-1.0722
-1.10393
-1.17284
-1.19902
-1.25385
-1.27405
-1.31469
-1.32923
-1.35725
-1.36704
-1.38528
-1.39171
-1.40388
-1.40861
-1.41881
-1.42357
-1.43585
-1.4423
-1.46045
-1.47166
-1.50594
-1.55755
-1.76576
-2.57612
-1.83187
-1.71149
-1.6954
-1.74101
-1.76402
-1.82765
-1.85843
-1.94019
-1.982
-2.09769
-2.16007
-2.33897
-2.43802
-2.72696
-2.87768
-3.30109
-3.4922
-3.97251
-4.1569
-4.5482
-4.70734
-5.07232
-4.89769
-3.71052
-2.97308
-0.664515
-0.152073
-0.0354271
-3.87446
117.814
1.82081
0.275431
0.0608242
-0.012876
-0.029495
-0.0505201
-0.0591087
-0.0939071
-0.182843
-0.141531
-0.1798
-0.192921
-0.250865
-0.268996
-0.341007
-0.362947
-0.448029
-0.473285
-0.569069
-0.596752
-0.69926
-0.728089
-0.8321
-0.860549
-0.960336
-0.986868
-1.07712
-1.10043
-1.17713
-1.19636
-1.25735
-1.27219
-1.31735
-1.32802
-1.35911
-1.3663
-1.38649
-1.39121
-1.40463
-1.4081
-1.41934
-1.42283
-1.43639
-1.44111
-1.461
-1.46904
-1.50286
-1.53794
-1.70845
-2.73659
-1.77251
-1.69718
-1.68806
-1.74284
-1.75992
-1.83072
-1.85331
-1.94385
-1.97451
-2.10242
-2.14816
-2.34594
-2.41861
-2.73939
-2.85016
-3.32313
-3.46376
-4.00177
-4.13732
-4.57125
-4.6898
-5.13482
-5.00776
-3.67585
-3.12995
-0.477371
-0.0995705
-0.0228241
-3.87005
117.765
2.06732
0.124723
0.0291292
-0.0238618
-0.0302272
-0.0518992
-0.0553921
-0.0879627
-0.198333
-0.132812
-0.181876
-0.187648
-0.255014
-0.26286
-0.346331
-0.355819
-0.454466
-0.465389
-0.576478
-0.588453
-0.707363
-0.719835
-0.8405
-0.852807
-0.968566
-0.980043
-1.08472
-1.0948
-1.18372
-1.19204
-1.2627
-1.26911
-1.32139
-1.326
-1.36194
-1.36504
-1.38832
-1.39036
-1.40578
-1.40728
-1.42018
-1.42169
-1.43729
-1.43932
-1.46203
-1.46538
-1.49974
-1.51292
-1.61684
-2.97676
-1.6776
-1.68022
-1.67818
-1.74618
-1.75367
-1.83573
-1.84548
-1.9499
-1.96312
-2.11045
-2.13017
-2.35791
-2.38928
-2.76022
-2.80814
-3.35847
-3.41943
-4.04711
-4.10578
-4.6069
-4.65919
-5.22018
-5.16601
-3.60973
-3.37108
-0.199227
-0.0350187
-0.00788572
-3.86486
110.092
6.52249
1.56529
1.2789
0.245232
0.176895
-0.0131263
-0.0281643
-0.0881231
-0.208807
-0.142851
-0.198537
-0.205132
-0.281423
-0.290385
-0.386263
-0.397285
-0.512859
-0.525838
-0.659353
-0.673994
-0.821584
-0.837371
-0.992968
-1.00921
-1.16558
-1.18155
-1.33184
-1.3469
-1.48561
-1.49932
-1.62355
-1.63578
-1.74596
-1.75693
-1.85676
-1.86698
-1.96264
-1.97279
-2.07151
-2.08228
-2.18984
-2.20187
-2.32467
-2.33872
-2.48446
-2.50169
-2.67315
-2.70906
-3.00734
-5.62329
-3.21234
-3.25303
-3.24844
-3.32632
-3.32817
-3.30034
-3.29047
-3.13017
-3.10715
-2.82423
-2.79076
-2.42869
-2.39003
-2.00721
-1.96895
-1.61541
-1.58166
-1.28662
-1.2594
-1.03219
-1.01179
-0.848488
-0.834393
-0.745056
-0.706582
-0.0413583
-0.00724198
-0.00163572
-2.38922
110.274
5.84316
1.92228
1.27984
0.347318
0.185789
0.00648825
-0.0298297
-0.091626
-0.19184
-0.151954
-0.196043
-0.211076
-0.27675
-0.297466
-0.380206
-0.405694
-0.505406
-0.535416
-0.650571
-0.684421
-0.811681
-0.848178
-0.982327
-1.01988
-1.1547
-1.19162
-1.32123
-1.35604
-1.47571
-1.50741
-1.61465
-1.64294
-1.73811
-1.76349
-1.84978
-1.87342
-1.95613
-1.97963
-2.06495
-2.08989
-2.18285
-2.2107
-2.31685
-2.34939
-2.4756
-2.51599
-2.67178
-2.7636
-3.17573
-5.16808
-3.38967
-3.27993
-3.26107
-3.32008
-3.32378
-3.29889
-3.27604
-3.13787
-3.0847
-2.84138
-2.76411
-2.45277
-2.36348
-2.03408
-1.94568
-1.64114
-1.56312
-1.30867
-1.24571
-1.04953
-1.00232
-0.861047
-0.827741
-0.739743
-0.651426
-0.0988294
-0.0205846
-0.00473523
-2.39042
110.424
5.35374
2.14814
1.29238
0.418565
0.195393
0.0203827
-0.0304771
-0.0935937
-0.180479
-0.157701
-0.194712
-0.214996
-0.273878
-0.302068
-0.376443
-0.411138
-0.500745
-0.541592
-0.645045
-0.691116
-0.805413
-0.855083
-0.975554
-1.02666
-1.14774
-1.198
-1.31441
-1.3618
-1.46933
-1.51249
-1.6089
-1.64743
-1.73305
-1.76761
-1.8453
-1.87751
-1.95199
-1.98401
-2.06081
-2.09478
-2.17846
-2.2164
-2.31198
-2.35631
-2.47018
-2.52567
-2.67297
-2.80533
-3.28092
-4.8637
-3.50026
-3.3032
-3.27059
-3.31605
-3.32053
-3.29737
-3.26621
-3.14217
-3.06984
-2.85187
-2.74681
-2.46795
-2.34653
-2.0513
-1.93104
-1.65779
-1.55162
-1.32305
-1.23734
-1.0609
-0.996604
-0.869281
-0.82327
-0.734437
-0.614837
-0.137323
-0.0314287
-0.00735176
-2.39143
110.528
5.037
2.28
1.30564
0.463785
0.20307
0.0293098
-0.0306361
-0.0946132
-0.173507
-0.16106
-0.194055
-0.217376
-0.272239
-0.304829
-0.374272
-0.414392
-0.498041
-0.545272
-0.641823
-0.695089
-0.801738
-0.859165
-0.971564
-1.03065
-1.14363
-1.20173
-1.31037
-1.36516
-1.46553
-1.51544
-1.60548
-1.65003
-1.73004
-1.77002
-1.84264
-1.8799
-1.94955
-1.98659
-2.05839
-2.09768
-2.17591
-2.2198
-2.30916
-2.36046
-2.46711
-2.53169
-2.67477
-2.83334
-3.34184
-4.67718
-3.5642
-3.31989
-3.27698
-3.31366
-3.31839
-3.29616
-3.2601
-3.1444
-3.0608
-2.85785
-2.73644
-2.47683
-2.33652
-2.0615
-1.92251
-1.66775
-1.54501
-1.3317
-1.23259
-1.06777
-0.993396
-0.874249
-0.820501
-0.730352
-0.592557
-0.160946
-0.0389957
-0.00923795
-2.39217
110.582
4.88148
2.34056
1.31361
0.48576
0.207268
0.0336827
-0.0306364
-0.0950392
-0.170192
-0.162605
-0.19379
-0.218501
-0.271497
-0.306122
-0.373282
-0.415913
-0.496803
-0.546988
-0.640341
-0.696938
-0.800042
-0.861059
-0.969716
-1.0325
-1.14172
-1.20345
-1.30848
-1.3667
-1.46376
-1.51679
-1.60388
-1.65123
-1.72863
-1.77112
-1.84141
-1.88101
-1.94842
-1.98779
-2.05728
-2.09903
-2.17474
-2.22139
-2.30788
-2.3624
-2.46572
-2.53458
-2.67596
-2.84736
-3.36969
-4.5886
-3.5934
-3.32855
-3.28021
-3.31255
-3.31732
-3.2955
-3.25716
-3.14533
-3.05653
-2.86055
-2.73159
-2.48092
-2.33188
-2.06624
-1.91859
-1.6724
-1.542
-1.33575
-1.23045
-1.07101
-0.991962
-0.876586
-0.819173
-0.728161
-0.582019
-0.172175
-0.0428691
-0.0102249
-2.39256
110.582
4.88148
2.34056
1.31361
0.48576
0.207268
0.0336829
-0.0306362
-0.095039
-0.170192
-0.162605
-0.19379
-0.218501
-0.271496
-0.306122
-0.373282
-0.415912
-0.496802
-0.546987
-0.640341
-0.696938
-0.800042
-0.861058
-0.969716
-1.0325
-1.14172
-1.20345
-1.30848
-1.3667
-1.46376
-1.51679
-1.60388
-1.65123
-1.72863
-1.77112
-1.84141
-1.88101
-1.94842
-1.98779
-2.05728
-2.09903
-2.17474
-2.22139
-2.30788
-2.3624
-2.46572
-2.53458
-2.67596
-2.84736
-3.36969
-4.5886
-3.5934
-3.32855
-3.28021
-3.31255
-3.31732
-3.2955
-3.25716
-3.14533
-3.05653
-2.86055
-2.73159
-2.48092
-2.33188
-2.06624
-1.9186
-1.6724
-1.542
-1.33576
-1.23045
-1.07101
-0.991963
-0.876586
-0.819173
-0.728161
-0.582019
-0.172175
-0.0428696
-0.0102272
-2.39255
110.528
5.037
2.28
1.30564
0.463786
0.20307
0.0293104
-0.0306355
-0.0946125
-0.173506
-0.161059
-0.194054
-0.217376
-0.272238
-0.304828
-0.374271
-0.414391
-0.49804
-0.545271
-0.641822
-0.695088
-0.801737
-0.859164
-0.971563
-1.03065
-1.14363
-1.20173
-1.31037
-1.36516
-1.46553
-1.51544
-1.60548
-1.65003
-1.73004
-1.77002
-1.84264
-1.8799
-1.94955
-1.98659
-2.05839
-2.09768
-2.17591
-2.2198
-2.30916
-2.36046
-2.4671
-2.53169
-2.67477
-2.83334
-3.34184
-4.67718
-3.56419
-3.31989
-3.27699
-3.31366
-3.31839
-3.29616
-3.2601
-3.1444
-3.06081
-2.85785
-2.73645
-2.47683
-2.33652
-2.0615
-1.92252
-1.66775
-1.54501
-1.3317
-1.23259
-1.06777
-0.993397
-0.87425
-0.820501
-0.730352
-0.592556
-0.160945
-0.0389969
-0.00924413
-2.39216
110.424
5.35374
2.14814
1.29238
0.418565
0.195394
0.0203834
-0.0304763
-0.0935928
-0.180478
-0.1577
-0.194711
-0.214995
-0.273877
-0.302067
-0.376442
-0.411137
-0.500744
-0.541591
-0.645044
-0.691114
-0.805411
-0.855082
-0.975553
-1.02666
-1.14774
-1.198
-1.31441
-1.3618
-1.46933
-1.51249
-1.6089
-1.64743
-1.73305
-1.76761
-1.8453
-1.8775
-1.95199
-1.98401
-2.06081
-2.09478
-2.17846
-2.2164
-2.31198
-2.35631
-2.47018
-2.52567
-2.67297
-2.80533
-3.28092
-4.8637
-3.50026
-3.3032
-3.27059
-3.31605
-3.32053
-3.29737
-3.26621
-3.14218
-3.06984
-2.85188
-2.74681
-2.46796
-2.34654
-2.0513
-1.93105
-1.65779
-1.55162
-1.32305
-1.23735
-1.0609
-0.996605
-0.869282
-0.823271
-0.734437
-0.614837
-0.137322
-0.0314304
-0.00736002
-2.39143
110.274
5.84316
1.92228
1.27984
0.347319
0.18579
0.00648891
-0.0298289
-0.0916252
-0.191839
-0.151953
-0.196042
-0.211075
-0.276749
-0.297464
-0.380205
-0.405693
-0.505405
-0.535414
-0.65057
-0.684419
-0.811679
-0.848177
-0.982325
-1.01988
-1.1547
-1.19162
-1.32123
-1.35604
-1.47571
-1.50741
-1.61465
-1.64294
-1.73811
-1.76349
-1.84977
-1.87342
-1.95613
-1.97963
-2.06495
-2.08989
-2.18285
-2.2107
-2.31685
-2.34939
-2.4756
-2.51599
-2.67177
-2.7636
-3.17573
-5.16807
-3.38967
-3.27993
-3.26107
-3.32008
-3.32378
-3.29889
-3.27604
-3.13788
-3.0847
-2.84138
-2.76411
-2.45277
-2.36349
-2.03408
-1.94568
-1.64114
-1.56312
-1.30867
-1.24571
-1.04953
-1.00232
-0.861048
-0.827742
-0.739743
-0.651426
-0.0988291
-0.0205861
-0.00474272
-2.39041
110.092
6.52249
1.56529
1.2789
0.245232
0.176896
-0.013126
-0.0281639
-0.0881227
-0.208807
-0.142851
-0.198537
-0.205132
-0.281423
-0.290384
-0.386263
-0.397284
-0.512859
-0.525837
-0.659353
-0.673993
-0.821583
-0.83737
-0.992968
-1.00921
-1.16558
-1.18155
-1.33184
-1.3469
-1.48561
-1.49932
-1.62355
-1.63578
-1.74596