/*--------------------------------*- C++ -*----------------------------------*\
| =========                 |                                                 |
| \\      /  F ield         | OpenFOAM: The Open Source CFD Toolbox           |
|  \\    /   O peration     | Version:  5.x                                   |
|   \\  /    A nd           | Web:      www.OpenFOAM.org                      |
|    \\/     M anipulation  |                                                 |
\*---------------------------------------------------------------------------*/
FoamFile
{
    version     2.0;
    format      ascii;
    class       volScalarField;
    location    "12.7";
    object      T;
}
// * * * * * * * * * * * * * * * * * * * * * * * * * * * * * * * * * * * * * //

dimensions      [0 0 0 1 0 0 0];

internalField   nonuniform List<scalar> 
6300
(
10.0783
10.2365
10.3994
10.5703
10.752
10.9473
11.1586
11.3881
11.6374
11.9073
12.1983
12.5098
12.8404
13.188
13.5495
10.0767
10.2317
10.3915
10.5594
10.7383
10.9311
11.1404
11.3683
11.6166
11.8863
12.1778
12.4906
12.8234
13.1739
13.539
10.0734
10.222
10.3756
10.5375
10.7108
10.8985
11.1035
11.3281
11.5743
11.8433
12.1358
12.4513
12.7886
13.1451
13.5176
10.0685
10.2073
10.3514
10.504
10.6687
10.8487
11.0469
11.2663
11.509
11.7768
12.0706
12.3902
12.7344
13.1004
13.4844
10.0619
10.1874
10.3185
10.4586
10.6114
10.7805
10.9692
11.181
11.4186
11.6843
11.9795
12.3045
12.6582
13.0376
13.4381
10.0534
10.1621
10.2764
10.4004
10.5377
10.6925
10.8685
11.0698
11.3
11.5621
11.8585
12.1901
12.5562
12.9535
13.3765
10.043
10.131
10.2249
10.3287
10.4467
10.5831
10.7426
10.9298
11.1493
11.4055
11.7021
12.0413
12.4228
12.8437
13.2968
10.0307
10.094
10.1633
10.2429
10.3371
10.4507
10.5889
10.7573
10.9619
11.2086
11.5032
11.8498
12.2502
12.7014
13.1949
10.0163
10.0509
10.0915
10.1424
10.208
10.2936
10.405
10.5486
10.7322
10.9638
11.252
11.6046
12.0265
12.5166
13.0647
10
10.0019
10.0095
10.027
10.059
10.1108
10.1886
10.3001
10.4543
10.6622
10.9364
11.2901
11.7345
12.2735
12.8968
9.98179
9.94708
9.91762
9.89721
9.89024
9.90191
9.93867
10.0087
10.1227
10.2943
10.5413
10.8849
11.3477
11.9462
12.6754
9.96186
9.88703
9.81662
9.75392
9.70276
9.66787
9.65535
9.67338
9.73328
9.85105
10.0494
10.3603
10.825
11.4882
12.3703
9.94049
9.82255
9.70791
9.59907
9.49899
9.41144
9.34145
9.29614
9.28598
9.32709
9.44511
9.68168
10.1039
10.8112
11.9115
9.91804
9.75474
9.59339
9.43543
9.28267
9.1374
9.00284
8.88369
8.78736
8.72617
8.72216
8.81742
9.09744
9.74106
11.0967
9.89496
9.685
9.47544
9.26659
9.05883
8.85264
8.64878
8.4484
8.25354
8.06803
7.89989
7.76833
7.72734
7.9588
9.18844
13.8903
14.2048
14.5216
14.8381
15.1521
15.4613
15.7638
16.0577
16.3416
16.6142
16.8744
17.1212
17.3542
17.5727
17.7763
17.9647
18.1378
18.2954
18.4375
18.564
18.6751
18.7707
18.8511
18.9165
18.9669
19.0026
19.0238
19.0309
19.0239
19.0033
18.9693
18.9221
18.862
18.7893
18.7043
18.6072
18.4983
18.3779
18.2461
18.1033
17.9498
17.7857
17.6114
17.4272
17.2332
17.0299
16.8173
16.5959
16.3657
16.1271
15.8803
15.6254
15.3626
15.0921
14.8142
14.5289
14.2366
13.9374
13.6316
13.3195
13.0012
12.6772
12.3476
12.0128
11.6731
11.3288
10.9803
10.6279
10.2721
9.91337
9.55215
9.18906
8.82477
8.46001
8.09555
7.73227
7.37105
7.01283
6.65857
6.30923
5.96575
5.62906
5.30004
4.97948
4.66814
4.36666
4.07557
3.79527
3.52605
3.26804
13.8835
14.2015
14.5217
14.8416
15.1588
15.4709
15.7759
16.072
16.3578
16.6319
16.8933
17.1411
17.3748
17.5939
17.7979
17.9866
18.1598
18.3175
18.4596
18.5861
18.697
18.7925
18.8726
18.9377
18.9878
19.0232
19.0441
19.0507
19.0434
19.0224
18.988
18.9404
18.8799
18.8069
18.7215
18.624
18.5147
18.3939
18.2618
18.1186
17.9647
17.8002
17.6256
17.4409
17.2466
17.0428
16.83
16.6082
16.3777
16.1388
15.8917
15.6365
15.3734
15.1027
14.8245
14.5389
14.2463
13.9468
13.6406
13.3281
13.0094
12.685
12.355
12.0197
11.6795
11.3348
10.9857
10.6328
10.2763
9.91677
9.55471
9.19068
8.82535
8.45945
8.09377
7.72919
7.36663
7.00704
6.6514
6.3007
5.95591
5.61796
5.28776
4.96615
4.65389
4.35164
4.05996
3.77928
3.50987
3.25188
13.8697
14.1948
14.5222
14.849
15.1726
15.4905
15.8006
16.1011
16.3905
16.6676
16.9314
17.1812
17.4164
17.6365
17.8413
18.0305
18.2041
18.3619
18.504
18.6303
18.7409
18.836
18.9157
18.9802
19.0297
19.0644
19.0845
19.0904
19.0824
19.0606
19.0253
18.9769
18.9157
18.8419
18.7557
18.6575
18.5475
18.4259
18.2931
18.1492
17.9945
17.8292
17.6538
17.4684
17.2733
17.0688
16.8552
16.6327
16.4016
16.1621
15.9144
15.6587
15.3952
15.1239
14.8451
14.559
14.2657
13.9655
13.6586
13.3453
13.0258
12.7005
12.3697
12.0336
11.6925
11.3467
10.9966
10.6425
10.2847
9.9237
9.55996
9.19406
8.82664
8.45844
8.0903
7.72312
7.35784
6.99547
6.63704
6.28358
5.93611
5.59562
5.26305
4.9393
4.62516
4.32135
4.02848
3.74699
3.4772
3.21926
13.8484
14.1848
14.5233
14.8609
15.1943
15.5211
15.839
16.146
16.4408
16.7223
16.9896
17.2421
17.4793
17.701
17.9069
18.0968
18.2708
18.4288
18.5707
18.6968
18.807
18.9014
18.9804
19.044
19.0926
19.1262
19.1453
19.1501
19.1408
19.1178
19.0814
19.0318
18.9694
18.8944
18.8071
18.7078
18.5967
18.474
18.34
18.195
18.0391
17.8728
17.6961
17.5095
17.3132
17.1076
16.8929
16.6694
16.4374
16.1971
15.9486
15.6921
15.4278
15.1557
14.8761
14.5891
14.2949
13.9937
13.6857
13.3712
13.0505
12.724
12.3918
12.0544
11.712
11.3648
11.0132
10.6573
10.2976
9.93445
9.56822
9.19949
8.82892
8.45726
8.08536
7.71419
7.34476
6.97814
6.61544
6.25776
5.9062
5.5618
5.22559
4.89853
4.58149
4.27527
3.98054
3.69781
3.42744
3.16958
13.819
14.1714
14.5259
14.8784
15.2256
15.5645
15.8927
16.2084
16.5102
16.7973
17.0689
17.3247
17.5645
17.788
17.9952
18.186
18.3604
18.5185
18.6603
18.7859
18.8954
18.989
19.0669
19.1294
19.1766
19.2089
19.2264
19.2296
19.2188
19.1942
19.1561
19.1049
19.0409
18.9644
18.8756
18.7748
18.6623
18.5381
18.4027
18.2562
18.0988
17.9308
17.7526
17.5643
17.3665
17.1593
16.9431
16.7183
16.485
16.2435
15.994
15.7365
15.4713
15.1983
14.9176
14.6295
14.334
14.0314
13.7219
13.4058
13.0835
12.7553
12.4214
12.0823
11.7381
11.3892
11.0356
10.6776
10.3155
9.94945
9.57995
9.20748
8.83266
8.45629
8.07928
7.70265
7.32753
6.95509
6.58653
6.22306
5.86588
5.51612
5.17489
4.84326
4.52219
4.2126
3.91525
3.63078
3.3596
3.10191
13.7807
14.155
14.5309
14.9035
15.2687
15.6231
15.9642
16.2904
16.6006
16.8942
17.1708
17.4303
17.6728
17.8983
18.1068
18.2984
18.4733
18.6314
18.7729
18.8978
19.0065
19.099
19.1755
19.2364
19.282
19.3124
19.328
19.3292
19.3163
19.2896
19.2495
19.1962
19.1303
19.0518
18.9611
18.8585
18.7442
18.6183
18.4811
18.3327
18.1734
18.0035
17.8231
17.6328
17.4329
17.2237
17.0056
16.779
16.5442
16.3013
16.0506
15.792
15.5257
15.2516
14.9698
14.6802
14.3832
14.0788
13.7674
13.4493
13.1248
12.7945
12.4585
12.1173
11.7711
11.42
11.0642
10.7038
10.3387
9.96934
9.59585
9.21871
8.83854
8.45615
8.07254
7.68885
7.30635
6.92635
6.5502
6.17924
5.81478
5.45808
5.11033
4.7727
4.44632
4.13223
3.83138
3.54456
3.27231
3.01488
13.7325
14.1363
14.5406
14.9392
15.3271
15.7005
16.0571
16.3954
16.7149
17.0154
17.2971
17.5603
17.8054
18.0328
18.2425
18.4349
18.61
18.768
18.909
19.0331
19.1406
19.2316
19.3065
19.3654
19.4088
19.437
19.4502
19.4489
19.4334
19.4042
19.3615
19.3057
19.2373
19.1565
19.0637
18.9589
18.8426
18.7146
18.5753
18.4248
18.2632
18.0908
17.9079
17.7149
17.5124
17.3006
17.0802
16.8514
16.6147
16.3703
16.1182
15.8585
15.5911
15.3159
15.0328
14.7417
14.4428
14.1362
13.8224
13.5017
13.1745
12.8415
12.503
12.1594
11.8109
11.4576
11.0994
10.7363
10.3682
9.99501
9.61689
9.23419
8.84749
8.45766
8.06581
7.67326
7.28147
6.89198
6.50632
6.126
5.75246
5.38706
5.03112
4.68591
4.35269
4.03275
3.72727
3.43731
3.16364
2.90662
13.6732
14.1165
14.5583
14.9902
15.4061
15.8021
16.1761
16.5274
16.8562
17.1634
17.4497
17.7162
17.9635
18.1924
18.4031
18.596
18.7712
18.9289
19.0692
19.1922
19.2981
19.3873
19.46
19.5166
19.5574
19.5828
19.5931
19.5888
19.5702
19.5378
19.492
19.4332
19.3619
19.2784
19.183
19.0759
18.9573
18.8271
18.6855
18.5325
18.3683
18.193
18.007
17.8107
17.6048
17.3899
17.1664
16.9351
16.6962
16.4501
16.1967
15.9359
15.6676
15.3914
15.107
14.8142
14.5132
14.204
13.8871
13.5631
13.2326
12.8963
12.5548
12.2084
11.8575
11.5019
11.1416
10.776
10.4048
10.0277
9.64443
9.25531
8.86085
8.46198
8.06
7.65649
7.25321
6.852
6.45466
6.06292
5.67833
5.30237
4.9364
4.58177
4.23992
3.91237
3.60075
3.30656
3.03098
2.77457
13.6016
14.0987
14.59
15.0641
15.5137
15.9352
16.3276
16.6915
17.0287
17.3411
17.6308
17.8993
18.148
18.3778
18.5891
18.7823
18.9575
19.1147
19.254
19.3755
19.4796
19.5665
19.6365
19.6902
19.7279
19.75
19.7568
19.7489
19.7266
19.6904
19.6409
19.5785
19.5038
19.4172
19.3189
19.2093
19.0883
18.9558
18.8119
18.6563
18.489
18.3103
18.1205
17.9202
17.7101
17.4911
17.2639
17.0294
16.788
16.5401
16.2855
16.0241
15.7553
15.4784
15.193
14.8986
14.5951
14.2827
13.9619
13.6337
13.2988
12.9584
12.6132
12.2639
11.9106
11.5531
11.1911
10.8236
10.4499
10.0689
9.68034
9.28401
8.88043
8.47067
8.05629
7.63928
7.22187
6.80635
6.39489
5.98944
5.59172
5.20323
4.82528
4.45919
4.10647
3.76903
3.44908
3.14897
2.87067
2.6152
13.517
14.0891
14.6462
15.173
15.6617
16.1102
16.5198
16.894
17.2365
17.5514
17.842
18.1108
18.3596
18.5895
18.8011
18.9944
19.1694
19.326
19.464
19.5838
19.6855
19.7696
19.8364
19.8866
19.9206
19.9388
19.9416
19.9294
19.9027
19.8621
19.8081
19.7414
19.6626
19.5724
19.471
19.3587
19.2354
19.1009
18.9548
18.7966
18.6261
18.4434
18.249
18.0435
17.828
17.6037
17.3718
17.1333
16.8891
16.6393
16.384
16.1226
15.8543
15.5777
15.2918
14.9959
14.6895
14.3732
14.0474
13.7135
13.373
13.0272
12.6776
12.3249
11.9694
11.6108
11.2482
10.8802
10.5051
10.1211
9.72725
9.32301
8.90882
8.4859
8.05627
7.62254
7.18772
6.75477
6.32637
5.90475
5.49177
5.08883
4.69701
4.31727
3.95099
3.60046
3.26881
2.9599
2.67748
2.42344
13.4205
14.1008
14.746
15.3366
15.8673
16.3408
16.7631
17.1417
17.484
17.7966
18.0844
18.3509
18.5981
18.8274
19.039
19.2326
19.4076
19.5636
19.7003
19.8178
19.9166
19.9971
20.0601
20.1061
20.1358
20.1496
20.1477
20.1306
20.0987
20.0527
19.9932
19.9213
19.8378
19.7434
19.6386
19.5237
19.3985
19.2625
19.1148
18.9542
18.7804
18.5932
18.3931
18.181
17.9584
17.727
17.4888
17.2454
16.9978
16.7464
16.4911
16.2311
15.9648
15.6901
15.4049
15.1078
14.7984
14.4769
14.1445
13.8029
13.4543
13.1015
12.7462
12.3898
12.0326
11.6741
11.3129
10.947
10.5729
10.1875
9.78896
9.3762
8.94967
8.51069
8.06205
7.60725
7.15081
6.69656
6.24799
5.80754
5.37728
4.95833
4.5513
4.15594
3.77277
3.40464
3.05576
2.73265
2.44338
2.19177
13.3195
14.163
14.9244
15.5862
16.1554
16.6448
17.0692
17.4414
17.774
18.0773
18.3573
18.6184
18.8624
19.0906
19.3025
19.4974
19.6731
19.8288
19.9638
20.0786
20.1736
20.2498
20.3079
20.349
20.3738
20.3826
20.3755
20.3529
20.3149
20.2623
20.196
20.1177
20.0283
19.9291
19.8205
19.7032
19.5769
19.4409
19.2929
19.1308
18.9538
18.7613
18.5543
18.3335
18.1013
17.8599
17.6133
17.3632
17.1118
16.8589
16.6049
16.3483
16.0873
15.8176
15.5348
15.2375
14.9243
14.5964
14.2545
13.902
13.5418
13.1791
12.8163
12.4558
12.0973
11.741
11.3846
11.0252
10.6568
10.2728
9.87099
9.44911
9.00834
8.54932
8.07658
7.59424
7.11064
6.6301
6.15786
5.69557
5.24647
4.8106
4.38876
3.97698
3.57284
3.18106
2.80556
2.45664
2.15504
1.90831
13.2465
14.3431
15.246
15.969
16.5582
17.042
17.4504
17.798
18.1059
18.3913
18.6571
18.9103
19.149
19.3771
19.5903
19.7896
19.9671
20.1235
20.2562
20.3676
20.4575
20.5281
20.58
20.615
20.6344
20.638
20.6255
20.597
20.5517
20.4914
20.4159
20.3297
20.2327
20.128
20.0147
19.8956
19.7689
19.636
19.4913
19.3286
19.1492
18.9501
18.7352
18.502
18.2571
18
17.7423
17.4829
17.2276
16.9727
16.7222
16.4714
16.2221
15.9637
15.6856
15.3897
15.0711
14.7357
14.3795
14.0122
13.6325
13.2567
12.8829
12.5188
12.1588
11.8081
11.4601
11.1166
10.7628
10.3838
9.98174
9.54908
9.09318
8.60757
8.10485
7.58295
7.06598
6.55158
6.05331
5.56455
5.09651
4.64263
4.21164
3.78698
3.35509
2.93397
2.51704
2.11246
1.78767
1.55315
13.3417
14.802
15.8266
16.5442
17.1124
17.5479
17.9188
18.2115
18.4702
18.7331
18.9748
19.223
19.4505
19.685
19.8976
20.1132
20.2911
20.4522
20.5789
20.6875
20.7689
20.8331
20.8761
20.9032
20.9175
20.9165
20.8984
20.8648
20.8101
20.7419
20.6511
20.5571
20.4478
20.3392
20.2171
20.0987
19.9694
19.8481
19.7153
19.55
19.3728
19.1614
18.9423
18.687
18.4304
18.1407
17.8738
17.5964
17.3428
17.0801
16.8396
16.5924
16.3699
16.1381
15.8617
15.5746
15.2419
14.9049
14.5204
14.1401
13.7172
13.3315
12.9352
12.5757
12.2068
11.8713
11.5289
11.2225
10.905
10.5278
10.1365
9.68241
9.2207
8.69036
8.16062
7.56448
7.01754
6.44977
5.93499
5.40361
4.92612
4.44164
4.02535
3.60736
3.12177
2.68084
2.21069
1.65336
1.29027
1.09148
14.2727
15.8883
16.8489
17.3344
17.8576
18.1464
18.4997
18.6739
18.8283
19.1051
19.2831
19.5651
19.7419
20.0241
20.2004
20.4908
20.6389
20.83
20.9275
21.0462
21.1048
21.1685
21.1949
21.2093
21.2226
21.2193
21.1933
21.1628
21.0876
21.0248
20.8906
20.8063
20.6615
20.5695
20.414
20.3169
20.1584
20.0766
19.9857
19.7883
19.6456
19.3833
19.2015
18.8736
18.651
18.2483
18.02
17.6755
17.4707
17.1553
16.9663
16.6774
16.531
16.3764
16.0528
15.8252
15.4185
15.1423
14.6552
14.329
13.7484
13.4213
12.9343
12.6462
12.2064
11.9441
11.5458
11.3444
11.133
10.6919
10.3815
9.8266
9.44695
8.77218
8.3119
7.47507
6.99898
6.2716
5.84049
5.16499
4.76571
4.14241
3.84147
3.52503
2.82411
2.46974
2.02986
0.914527
0.556283
0.460934
2.99654
2.71624
2.45128
2.2009
1.96413
1.73989
1.52698
1.32416
1.13017
0.943748
0.763669
0.588718
0.417718
0.249518
0.0829876
2.98062
2.70086
2.43668
2.18725
1.95159
1.72854
1.51687
1.31531
1.12258
0.937399
0.75853
0.584761
0.414914
0.247845
0.0824314
2.94852
2.66987
2.40728
2.15982
1.92641
1.70578
1.49663
1.29762
1.10742
0.924727
0.748283
0.576873
0.409327
0.244512
0.0813239
2.89967
2.62279
2.3627
2.11834
1.88841
1.67152
1.46623
1.27111
1.08474
0.905796
0.732992
0.565114
0.401003
0.239549
0.079675
2.8332
2.55888
2.30239
2.06238
1.83734
1.62564
1.42565
1.23581
1.05463
0.880713
0.712766
0.54958
0.390018
0.233004
0.077501
2.74788
2.47712
2.22555
1.99144
1.77291
1.56802
1.37491
1.19185
1.01724
0.849649
0.687771
0.530415
0.376481
0.224944
0.0748249
2.64203
2.37615
2.1312
1.9049
1.69481
1.4986
1.31411
1.13941
0.972819
0.812863
0.658246
0.507819
0.360544
0.215463
0.0716784
2.51337
2.25423
2.01819
1.80211
1.60282
1.41745
1.24349
1.07885
0.921751
0.770726
0.624523
0.482067
0.342406
0.204685
0.0681028
2.35888
2.10917
1.88521
1.6825
1.49689
1.32486
1.16355
1.01073
0.8646
0.723757
0.587047
0.453511
0.322327
0.192763
0.06415
2.17446
1.93832
1.73095
1.54578
1.37737
1.22152
1.07512
0.935893
0.802155
0.672645
0.546388
0.422598
0.300622
0.179889
0.0598833
1.95454
1.73869
1.55445
1.39228
1.24527
1.10872
0.979507
0.855556
0.73547
0.618274
0.503254
0.389867
0.27767
0.166286
0.0553766
1.69164
1.50744
1.35585
1.2236
1.10271
0.988575
0.878615
0.771343
0.665888
0.561716
0.458482
0.35594
0.253901
0.152206
0.0507132
1.37655
1.24356
1.1379
1.04356
0.953356
0.864243
0.775024
0.685303
0.595012
0.504216
0.413013
0.321506
0.229784
0.137923
0.0459827
1.00178
0.952335
0.90861
0.859371
0.802903
0.740004
0.671927
0.599823
0.524636
0.447114
0.367842
0.287282
0.205805
0.123716
0.0412767
0.578589
0.655377
0.684822
0.682399
0.65887
0.620936
0.572847
0.517417
0.456589
0.391757
0.323954
0.253972
0.182435
0.109858
0.0366844
9.87368
9.62069
9.36667
9.11082
8.85217
8.58947
8.321
8.0443
7.75561
7.44876
7.11256
6.72358
6.22161
5.40998
3.48198
9.85456
9.56294
9.26905
8.97114
8.6671
8.3542
8.02871
7.68524
7.31553
6.90613
6.43345
5.85224
5.06779
3.8681
1.79145
9.83596
9.50678
9.17421
8.83571
8.48817
8.12767
7.74891
7.34438
6.90298
6.40744
5.82966
5.12201
4.20232
2.93519
1.1469
9.81812
9.45295
9.0835
8.70653
8.31823
7.91381
7.48698
7.02911
6.52801
5.96585
5.31605
4.539
3.57812
2.36419
0.853407
9.80124
9.40211
8.998
8.58522
8.15948
7.71551
7.24658
6.74386
6.19544
5.5851
4.89078
4.08364
3.12961
1.99934
0.696038
9.78549
9.35471
8.9185
8.47291
8.01339
7.53452
7.02963
6.49032
5.90586
5.26264
4.54387
3.73027
2.80349
1.75465
0.600315
9.77097
9.31107
8.84553
8.37027
7.88072
7.3716
6.83659
6.26813
5.65707
4.99264
4.26278
3.4555
2.56211
1.5832
0.536743
9.75774
9.27135
8.7793
8.27754
7.76165
7.22664
6.66678
6.0755
5.44533
4.76807
4.03546
3.24052
2.38012
1.45866
0.491937
9.7458
9.23556
8.7198
8.19462
7.65585
7.09892
6.51878
5.90988
5.26628
4.58194
3.85141
3.07099
2.24052
1.36556
0.459039
9.73512
9.20362
8.66684
8.12114
7.56267
6.98732
6.39074
5.76835
5.11551
4.42788
3.70199
2.93621
2.13182
1.29436
0.434169
9.72565
9.17533
8.62007
8.05652
7.48119
6.89046
6.28063
5.64796
4.98889
4.30037
3.58029
2.82822
2.0461
1.23893
0.414959
9.71732
9.15046
8.57907
8.00008
7.4104
6.80687
6.18637
5.5459
4.88274
4.19477
3.48081
2.7411
1.97777
1.19518
0.399875
9.71004
9.12874
8.54333
7.95107
7.34922
6.73506
6.10598
5.45958
4.79381
4.10721
3.3992
2.67038
1.92282
1.16024
0.38788
9.7037
9.10987
8.51235
7.90872
7.29658
6.6736
6.03762
5.38671
4.71934
4.03452
3.33203
2.61266
1.87831
1.1321
0.378246
9.69822
9.09355
8.48562
7.87229
7.25146
6.62117
5.97962
5.32528
4.65698
3.97408
3.2766
2.56534
1.84202
1.10926
0.370445
9.69349
9.07951
8.46265
7.84105
7.2129
6.57655
5.9305
5.27353
4.60476
3.92378
3.23073
2.52641
1.8123
1.09061
0.364088
9.68943
9.06746
8.44297
7.81435
7.18005
6.53867
5.88897
5.22997
4.56102
3.88186
3.19269
2.49425
1.78786
1.07531
0.35888
9.68596
9.05716
8.42617
7.79159
7.15212
6.50655
5.85389
5.19333
4.52437
3.84688
3.16107
2.46763
1.76768
1.06271
0.354596
9.683
9.04837
8.41185
7.77224
7.12841
6.47938
5.82428
5.16251
4.49366
3.81766
3.13476
2.44554
1.75097
1.0523
0.351058
9.68048
9.04089
8.39967
7.75581
7.10833
6.4564
5.79933
5.13659
4.46791
3.79324
3.11282
2.42718
1.73711
1.04367
0.348129
9.67833
9.03453
8.38934
7.74188
7.09133
6.437
5.7783
5.11481
4.44632
3.77282
3.09452
2.41188
1.72558
1.03651
0.345699
9.67652
9.02915
8.38059
7.73009
7.07697
6.42063
5.76058
5.0965
4.42822
3.75572
3.07923
2.39912
1.71598
1.03054
0.343677
9.67498
9.02459
8.37319
7.72013
7.06484
6.40682
5.74568
5.08112
4.41303
3.74141
3.06644
2.38847
1.70798
1.02558
0.341993
9.67367
9.02073
8.36693
7.71172
7.05461
6.39519
5.73313
5.06819
4.40028
3.72941
3.05575
2.37957
1.70129
1.02143
0.340589
9.67257
9.01748
8.36164
7.70462
7.04599
6.3854
5.72258
5.05734
4.38959
3.71936
3.04679
2.37213
1.69571
1.01797
0.339416
9.67165
9.01473
8.35719
7.69864
7.03873
6.37716
5.71371
5.04822
4.38062
3.71094
3.0393
2.3659
1.69104
1.01508
0.338437
9.67086
9.01241
8.35343
7.6936
7.03261
6.37023
5.70625
5.04056
4.37309
3.70388
3.03302
2.36069
1.68713
1.01266
0.337618
9.6702
9.01046
8.35027
7.68936
7.02747
6.3644
5.69999
5.03413
4.36678
3.69796
3.02776
2.35632
1.68386
1.01064
0.336933
9.66965
9.00882
8.34761
7.68579
7.02315
6.35951
5.69474
5.02874
4.36149
3.693
3.02335
2.35267
1.68113
1.00894
0.33636
9.66918
9.00744
8.34538
7.6828
7.01952
6.3554
5.69033
5.02422
4.35705
3.68885
3.01967
2.34962
1.67884
1.00753
0.335881
9.66879
9.00628
8.34351
7.68029
7.01648
6.35196
5.68663
5.02044
4.35334
3.68537
3.01658
2.34706
1.67693
1.00635
0.335481
9.66846
9.00531
8.34194
7.67819
7.01394
6.34908
5.68354
5.01727
4.35024
3.68247
3.01401
2.34493
1.67533
1.00536
0.335146
9.66819
9.00451
8.34062
7.67643
7.01181
6.34668
5.68097
5.01463
4.34765
3.68005
3.01186
2.34315
1.674
1.00454
0.334868
9.66796
9.00383
8.33953
7.67497
7.01004
6.34468
5.67882
5.01243
4.3455
3.67804
3.01008
2.34167
1.6729
1.00385
0.334637
9.66777
9.00327
8.33863
7.67375
7.00857
6.34302
5.67704
5.01061
4.34372
3.67637
3.0086
2.34045
1.67198
1.00329
0.334445
9.66762
9.00281
8.33788
7.67276
7.00736
6.34165
5.67558
5.00911
4.34225
3.675
3.00738
2.33944
1.67123
1.00282
0.334288
9.66749
9.00244
8.33727
7.67194
7.00638
6.34054
5.67438
5.00789
4.34106
3.67388
3.00639
2.33862
1.67062
1.00244
0.33416
9.66739
9.00213
8.33678
7.67129
7.00559
6.33964
5.67342
5.00691
4.3401
3.67298
3.0056
2.33796
1.67013
1.00214
0.334057
9.66731
9.00189
8.3364
7.67077
7.00496
6.33894
5.67267
5.00614
4.33934
3.67228
3.00497
2.33744
1.66974
1.0019
0.333976
9.66725
9.00171
8.33611
7.67038
7.00449
6.3384
5.6721
5.00555
4.33877
3.67174
3.00449
2.33705
1.66945
1.00172
0.333914
9.6672
9.00159
8.3359
7.6701
7.00415
6.33802
5.67169
5.00514
4.33836
3.67136
3.00416
2.33677
1.66924
1.00159
0.333871
9.66718
9.00151
8.33577
7.66993
7.00394
6.33778
5.67143
5.00487
4.3381
3.67112
3.00394
2.3366
1.66911
1.00151
0.333843
9.66716
9.00147
8.33571
7.66985
7.00385
6.33768
5.67132
5.00476
4.33799
3.67102
3.00385
2.33652
1.66905
1.00147
0.333831
9.66717
9.00148
8.33573
7.66987
7.00387
6.33771
5.67135
5.00479
4.33802
3.67104
3.00388
2.33654
1.66906
1.00148
0.333834
9.66719
9.00153
8.33582
7.66999
7.00402
6.33787
5.67152
5.00497
4.33819
3.67121
3.00402
2.33666
1.66915
1.00154
0.333853
9.66722
9.00163
8.33598
7.67021
7.00428
6.33817
5.67184
5.00529
4.33851
3.6715
3.00429
2.33688
1.66932
1.00164
0.333887
9.66727
9.00179
8.33622
7.67053
7.00468
6.33861
5.67232
5.00578
4.33899
3.67195
3.00468
2.3372
1.66956
1.00179
0.333938
9.66734
9.00199
8.33655
7.67098
7.00521
6.33922
5.67297
5.00644
4.33964
3.67256
3.00522
2.33765
1.66989
1.00199
0.334008
9.66743
9.00225
8.33698
7.67155
7.0059
6.34
5.67381
5.0073
4.34048
3.67334
3.00591
2.33822
1.67032
1.00226
0.334098
9.66754
9.00259
8.33752
7.67227
7.00678
6.34099
5.67486
5.00838
4.34154
3.67433
3.00679
2.33895
1.67086
1.00259
0.334211
9.66768
9.003
8.33818
7.67316
7.00785
6.3422
5.67617
5.00972
4.34284
3.67555
3.00787
2.33985
1.67153
1.00301
0.334351
9.66785
9.0035
8.339
7.67425
7.00917
6.34369
5.67776
5.01135
4.34444
3.67704
3.00919
2.34094
1.67235
1.00351
0.334522
9.66806
9.00411
8.33998
7.67556
7.01076
6.34549
5.67969
5.01332
4.34637
3.67885
3.01079
2.34226
1.67334
1.00413
0.33473
9.6683
9.00484
8.34116
7.67715
7.01268
6.34766
5.68201
5.0157
4.3487
3.68103
3.01273
2.34386
1.67454
1.00487
0.33498
9.6686
9.00571
8.34258
7.67905
7.01498
6.35026
5.6848
5.01855
4.3515
3.68364
3.01504
2.34578
1.67597
1.00575
0.33528
9.66895
9.00676
8.34428
7.68132
7.01773
6.35337
5.68814
5.02197
4.35484
3.68678
3.01782
2.34808
1.6777
1.00682
0.33564
9.66938
9.00801
8.3463
7.68403
7.02101
6.35708
5.69212
5.02605
4.35885
3.69052
3.02115
2.35084
1.67976
1.00809
0.336072
9.66988
9.0095
8.34871
7.68726
7.02493
6.36151
5.69688
5.03093
4.36363
3.695
3.02512
2.35413
1.68222
1.00962
0.336587
9.67048
9.01127
8.35158
7.69111
7.02959
6.36679
5.70255
5.03674
4.36933
3.70034
3.02986
2.35806
1.68516
1.01144
0.337204
9.67119
9.01338
8.355
7.69569
7.03514
6.37308
5.7093
5.04367
4.37613
3.70671
3.03552
2.36275
1.68868
1.01361
0.33794
9.67204
9.01588
8.35905
7.70113
7.04174
6.38056
5.71734
5.05192
4.38423
3.71431
3.04228
2.36836
1.69287
1.01621
0.33882
9.67304
9.01885
8.36387
7.70759
7.04958
6.38945
5.7269
5.06175
4.39389
3.72337
3.05034
2.37505
1.69789
1.01932
0.339872
9.67423
9.02237
8.36958
7.71526
7.05889
6.40002
5.73828
5.07345
4.4054
3.73419
3.05996
2.38305
1.70389
1.02303
0.34113
9.67564
9.02655
8.37635
7.72436
7.06995
6.41257
5.75181
5.08737
4.41912
3.74708
3.07145
2.3926
1.71106
1.02748
0.342636
9.67731
9.03148
8.38437
7.73514
7.08305
6.42748
5.76789
5.10395
4.43547
3.76247
3.08518
2.40403
1.71964
1.0328
0.344439
9.67928
9.03732
8.39385
7.74789
7.09859
6.44516
5.787
5.12367
4.45495
3.78084
3.10159
2.4177
1.72992
1.03918
0.346602
9.6816
9.04421
8.40505
7.76298
7.11698
6.46613
5.8097
5.14714
4.47818
3.80278
3.12122
2.43408
1.74225
1.04684
0.349199
9.68435
9.05234
8.41827
7.7808
7.13874
6.49098
5.83664
5.17507
4.50587
3.82899
3.14472
2.45373
1.75706
1.05605
0.352323
9.68757
9.0619
8.43383
7.80182
7.16444
6.5204
5.86862
5.20828
4.53889
3.86032
3.17288
2.47733
1.77487
1.06714
0.356089
9.69136
9.07313
8.45214
7.82657
7.19476
6.55519
5.90653
5.24779
4.57829
3.89782
3.20668
2.50572
1.79635
1.08053
0.36064
9.69579
9.08629
8.47361
7.85566
7.23048
6.59628
5.95146
5.29475
4.62529
3.94273
3.2473
2.53995
1.82231
1.09675
0.366155
9.70096
9.10167
8.49873
7.88976
7.27247
6.64474
6.00463
5.35057
4.6814
3.99656
3.2962
2.58131
1.85379
1.11645
0.372864
9.70699
9.11958
8.52804
7.92963
7.32172
6.70178
6.0675
5.41688
4.7484
4.06118
3.35519
2.63143
1.89208
1.14049
0.381062
9.71397
9.14037
8.56211
7.97611
7.37932
6.76878
6.14171
5.49559
4.8284
4.13882
3.42651
2.69239
1.93887
1.16997
0.391134
9.72203
9.16438
8.60155
8.03007
7.44646
6.84727
6.22913
5.58892
4.92395
4.23225
3.51297
2.7668
1.99634
1.20634
0.403591
9.73129
9.19199
8.64699
8.09245
7.52442
6.93891
6.33188
5.69945
5.03805
4.34482
3.61811
2.85809
2.06738
1.25156
0.419127
9.74186
9.22355
8.69907
8.16419
7.61453
7.04547
6.45227
5.83009
5.17424
4.48064
3.74638
2.97068
2.15587
1.30831
0.438705
9.75385
9.25939
8.75836
8.2462
7.71809
7.16881
6.59279
5.9841
5.33666
4.64468
3.90342
3.11043
2.26709
1.38036
0.463707
9.76734
9.29978
8.82537
8.3393
7.83633
7.31071
6.75598
6.165
5.52999
4.84293
4.09639
3.28512
2.40844
1.47319
0.496181
9.7824
9.34492
8.90048
8.44412
7.97031
7.47281
6.94435
6.37648
5.75947
5.08247
4.3343
3.50525
2.59046
1.59501
0.539316
9.79904
9.39489
8.98388
8.56104
8.12074
7.65639
7.16007
6.62208
6.0306
5.37143
4.62836
3.7849
2.82849
1.75867
0.598379
9.81724
9.44961
9.07548
8.69007
8.28786
7.86217
7.40471
6.90481
6.34872
5.71863
4.99213
4.14297
3.14527
1.98514
0.682767
9.83692
9.50884
9.17492
8.83077
8.47126
8.09002
7.67879
7.22656
6.71822
6.13276
5.44108
4.60418
3.57483
2.31038
0.811016
9.85791
9.57213
9.28144
8.98213
8.66976
8.33867
7.98134
7.58726
7.14126
6.62065
5.99085
5.19902
4.16765
2.79874
1.02445
9.88001
9.63882
9.39395
9.14256
8.88123
8.60553
8.30938
7.98401
7.61609
7.18434
6.65312
5.96018
4.99484
3.56861
1.42857
9.90294
9.70808
9.51097
9.30987
9.10267
8.88658
8.6577
8.41028
8.13521
7.81708
7.42766
6.91049
6.14207
4.83416
2.33068
9.92637
9.77889
9.63075
9.48142
9.33027
9.17648
9.01888
8.85573
8.68421
8.49929
8.29088
8.03523
7.66391
6.92993
4.73131
9.94995
9.85017
9.75134
9.65421
9.55969
9.46901
9.38389
9.30697
9.24248
9.19777
9.18687
9.24026
9.43756
10.0428
12.1764
9.97332
9.92077
9.87074
9.82517
9.78643
9.75764
9.74318
9.74955
9.78698
9.87274
10.0382
10.3453
10.9279
12.0941
14.5384
9.99612
9.98962
9.98704
9.99137
10.0062
10.0363
10.088
10.1705
10.2979
10.4923
10.791
11.259
12.0128
13.258
15.3135
0.237923
0.426556
0.508888
0.539514
0.540037
0.521092
0.488748
0.446821
0.397878
0.343732
0.285719
0.224859
0.161964
0.0977017
0.0326528
0.127678
0.292353
0.384851
0.430519
0.445523
0.439624
0.418943
0.387511
0.348114
0.302755
0.252933
0.199805
0.144301
0.0871956
0.0291659
0.080405
0.208271
0.29333
0.342816
0.365519
0.368419
0.356601
0.33373
0.302486
0.264875
0.222441
0.1764
0.127749
0.0773305
0.0258886
0.0560086
0.153915
0.226509
0.27371
0.299264
0.307432
0.301932
0.285759
0.261276
0.230344
0.19445
0.154806
0.112423
0.0681756
0.0228438
0.0414106
0.117136
0.177322
0.219632
0.24508
0.255934
0.254671
0.243558
0.224543
0.199256
0.169062
0.135111
0.0983916
0.059773
0.0200459
0.0317395
0.0911484
0.140546
0.177263
0.201028
0.212849
0.214247
0.206843
0.192163
0.171575
0.146282
0.117339
0.0856778
0.0521398
0.0175009
0.0248945
0.072112
0.112574
0.143888
0.165269
0.176999
0.179935
0.175178
0.163883
0.147159
0.126036
0.101452
0.0742667
0.0452706
0.0152077
0.0198352
0.0577667
0.0909527
0.117409
0.136212
0.147255
0.150963
0.148053
0.139372
0.125798
0.108191
0.0873721
0.0641122
0.0391419
0.0131591
0.0159834
0.0467163
0.074004
0.0962454
0.112541
0.122603
0.126586
0.124935
0.118257
0.107235
0.0925773
0.074986
0.0551449
0.0337161
0.0113431
0.0129882
0.0380581
0.060559
0.0792093
0.0932
0.10217
0.106119
0.105306
0.100157
0.0911964
0.0789997
0.0641615
0.0472795
0.0289457
0.00974469
0.0106224
0.0311836
0.0497875
0.0654082
0.0773442
0.0852236
0.0889596
0.088688
0.0847031
0.0774044
0.0672556
0.0547559
0.040422
0.0247773
0.0083464
0.00873141
0.025668
0.0410874
0.0541652
0.0643049
0.0711536
0.0745821
0.0746476
0.0715497
0.065591
0.0571434
0.0466234
0.0344744
0.0211545
0.00712993
0.00720575
0.0212057
0.034013
0.044962
0.0535505
0.059458
0.0625395
0.0628033
0.0603824
0.0555054
0.0484698
0.0396219
0.0293395
0.018021
0.00607675
0.00596582
0.0175715
0.0282288
0.0373977
0.0446574
0.0497244
0.052453
0.0528228
0.0509203
0.0469182
0.0410545
0.0336161
0.0249239
0.0153219
0.00516883
0.00495218
0.0145957
0.0234781
0.0311588
0.0372865
0.0416144
0.044004
0.0444197
0.0429159
0.0396232
0.0347324
0.0284807
0.0211398
0.0130054
0.00438903
0.00411963
0.0121484
0.0195615
0.0259983
0.0311652
0.0348499
0.0369255
0.037349
0.0361535
0.0334377
0.0293549
0.0241015
0.0179067
0.0110236
0.00372142
0.0034332
0.0101286
0.0163227
0.0217192
0.0260731
0.0292025
0.030994
0.0314024
0.0304465
0.0282013
0.0247902
0.0203758
0.0151513
0.00933264
0.00315149
0.0028655
0.00845674
0.0136377
0.018164
0.021831
0.0244839
0.0260226
0.0264031
0.0256344
0.0237742
0.020922
0.0172125
0.0128083
0.00789335
0.00266613
0.00239482
0.0070697
0.0114073
0.0152054
0.018293
0.0205387
0.0218553
0.0222015
0.0215802
0.0200358
0.0176489
0.0145314
0.01082
0.00667084
0.00225369
0.00200381
0.00591681
0.00955148
0.01274
0.0153395
0.0172386
0.0183618
0.0186715
0.0181669
0.0168822
0.0148832
0.0122626
0.00913554
0.00563439
0.00190388
0.00167848
0.00495715
0.00800537
0.0106836
0.0128722
0.014477
0.0154332
0.0157068
0.015295
0.0142245
0.0125489
0.0103454
0.00771078
0.00475715
0.00160772
0.00140748
0.0041575
0.00671613
0.0089671
0.0108102
0.0121658
0.0129784
0.013218
0.0128805
0.0119869
0.0105812
0.00872756
0.00650748
0.00401585
0.00135738
0.00118159
0.00349071
0.00564047
0.00753378
0.00908656
0.0102316
0.0109214
0.0111298
0.0108521
0.0101049
0.00892433
0.0073641
0.00549268
0.00339039
0.0011461
0.00099322
0.00293456
0.00474286
0.00633688
0.00764599
0.00861345
0.00919874
0.00937901
0.0091496
0.00852367
0.00753107
0.00621668
0.00463818
0.0028635
0.000968085
0.000836166
0.00247076
0.00399401
0.00533776
0.00644263
0.00726061
0.00775721
0.00791265
0.0077224
0.007197
0.00636121
0.00525262
0.00391986
0.00242043
0.000818363
0.000705312
0.00208427
0.00336976
0.00450451
0.00543842
0.00613089
0.00655253
0.00668627
0.00652787
0.00608583
0.00538074
0.00444419
0.00331724
0.00204862
0.000692701
0.000596442
0.00176266
0.00285018
0.00381067
0.00460182
0.00518919
0.00554773
0.00566271
0.00553026
0.00515727
0.00456097
0.00376795
0.00281297
0.00173741
0.000587509
0.00050608
0.0014957
0.00241878
0.00323441