/*--------------------------------*- C++ -*----------------------------------*\
| =========                 |                                                 |
| \\      /  F ield         | OpenFOAM: The Open Source CFD Toolbox           |
|  \\    /   O peration     | Version:  5.x                                   |
|   \\  /    A nd           | Web:      www.OpenFOAM.org                      |
|    \\/     M anipulation  |                                                 |
\*---------------------------------------------------------------------------*/
FoamFile
{
    version     2.0;
    format      ascii;
    class       volScalarField;
    location    "0.5001";
    object      gradTy;
}
// * * * * * * * * * * * * * * * * * * * * * * * * * * * * * * * * * * * * * //

dimensions      [0 -1 0 1 0 0 0];

internalField   nonuniform List<scalar> 
2048
(
-28.1644
-28.1363
-28.081
-28.0006
-27.8975
-27.7749
-27.6361
-27.4846
-27.3235
-27.156
-26.9847
-26.8119
-26.6397
-26.4698
-26.3035
-26.142
-25.9863
-25.8369
-25.6943
-25.5589
-25.4307
-25.3098
-25.196
-25.0892
-24.9892
-24.8959
-24.8089
-24.7282
-24.6535
-24.5846
-24.5215
-24.464
-24.412
-24.3656
-24.3247
-24.2893
-24.2594
-24.2353
-24.2169
-24.2044
-24.1979
-24.1977
-24.2038
-24.2165
-24.236
-24.2625
-24.2961
-24.3371
-24.3854
-24.4409
-24.5032
-24.572
-24.6463
-24.7251
-24.8068
-24.8898
-24.9718
-25.0507
-25.1241
-25.1895
-25.2449
-25.2882
-25.3181
-25.3332
-28.1866
-28.1577
-28.1009
-28.0183
-27.9127
-27.7874
-27.6458
-27.4916
-27.3281
-27.1584
-26.9851
-26.8107
-26.6371
-26.466
-26.2987
-26.1365
-25.9802
-25.8304
-25.6875
-25.552
-25.4237
-25.3028
-25.1891
-25.0825
-24.9826
-24.8894
-24.8026
-24.7219
-24.6473
-24.5785
-24.5155
-24.458
-24.406
-24.3596
-24.3186
-24.2831
-24.2532
-24.229
-24.2104
-24.1978
-24.1912
-24.1907
-24.1966
-24.2091
-24.2285
-24.2548
-24.2884
-24.3293
-24.3777
-24.4334
-24.4962
-24.5656
-24.6408
-24.7208
-24.8039
-24.8885
-24.9724
-25.0532
-25.1285
-25.1957
-25.2526
-25.2972
-25.3279
-25.3435
-28.2292
-28.1987
-28.1389
-28.0522
-27.9417
-27.811
-27.6641
-27.5048
-27.3366
-27.1627
-26.9857
-26.8082
-26.6319
-26.4586
-26.2896
-26.1259
-25.9685
-25.8179
-25.6746
-25.5388
-25.4105
-25.2897
-25.1762
-25.0697
-24.9701
-24.8772
-24.7906
-24.7101
-24.6357
-24.5671
-24.5041
-24.4467
-24.3947
-24.3482
-24.3071
-24.2715
-24.2414
-24.217
-24.1982
-24.1853
-24.1784
-24.1776
-24.1832
-24.1953
-24.2143
-24.2403
-24.2736
-24.3145
-24.3629
-24.4191
-24.4826
-24.5532
-24.6302
-24.7123
-24.7983
-24.886
-24.9735
-25.058
-25.1369
-25.2076
-25.2675
-25.3145
-25.3468
-25.3633
-28.2905
-28.2577
-28.1934
-28.1005
-27.9828
-27.8444
-27.6897
-27.523
-27.3481
-27.1682
-26.9862
-26.8042
-26.6243
-26.4479
-26.2764
-26.1107
-25.9518
-25.8001
-25.6562
-25.5201
-25.3917
-25.2711
-25.1578
-25.0517
-24.9525
-24.8599
-24.7737
-24.6936
-24.6194
-24.551
-24.4881
-24.4308
-24.3788
-24.3322
-24.291
-24.2552
-24.2249
-24.2001
-24.1811
-24.1678
-24.1604
-24.1591
-24.1642
-24.1758
-24.1942
-24.2198
-24.2527
-24.2934
-24.342
-24.3986
-24.4632
-24.5354
-24.6147
-24.7
-24.7899
-24.8823
-24.9748
-25.0647
-25.149
-25.2247
-25.289
-25.3395
-25.3742
-25.3919
-28.3696
-28.3335
-28.2632
-28.1621
-28.0347
-27.8861
-27.7213
-27.5452
-27.3617
-27.1744
-26.986
-26.7986
-26.6141
-26.434
-26.2593
-26.0912
-25.9304
-25.7775
-25.6328
-25.4964
-25.3681
-25.2477
-25.1348
-25.0292
-24.9305
-24.8384
-24.7526
-24.6729
-24.5991
-24.5309
-24.4682
-24.411
-24.359
-24.3123
-24.2709
-24.2349
-24.2042
-24.1791
-24.1596
-24.1459
-24.138
-24.1361
-24.1405
-24.1514
-24.1691
-24.194
-24.2265
-24.2668
-24.3154
-24.3725
-24.4382
-24.5124
-24.5946
-24.6839
-24.7787
-24.877
-24.9762
-25.0731
-25.1644
-25.2467
-25.3167
-25.3717
-25.4096
-25.4289
-28.4656
-28.4254
-28.3474
-28.2358
-28.0963
-27.9349
-27.7577
-27.5701
-27.3765
-27.1805
-26.9847
-26.7911
-26.6014
-26.4168
-26.2386
-26.0677
-25.9048
-25.7505
-25.6049
-25.4682
-25.3401
-25.2201
-25.1078
-25.0029
-24.9048
-24.8132
-24.728
-24.6487
-24.5753
-24.5075
-24.4451
-24.3879
-24.3359
-24.2891
-24.2475
-24.2111
-24.1801
-24.1546
-24.1346
-24.1203
-24.1117
-24.1092
-24.1128
-24.1228
-24.1397
-24.1637
-24.1954
-24.2352
-24.2836
-24.3411
-24.408
-24.4844
-24.57
-24.6639
-24.7647
-24.8702
-24.9775
-25.0831
-25.183
-25.2734
-25.3505
-25.411
-25.4528
-25.474
-28.5783
-28.533
-28.4453
-28.3208
-28.1664
-27.9896
-27.7977
-27.5968
-27.3916
-27.1858
-26.9818
-26.7814
-26.5859
-26.3966
-26.2144
-26.0403
-25.8751
-25.7193
-25.573
-25.4361
-25.3083
-25.1889
-25.0774
-24.9732
-24.8758
-24.785
-24.7004
-24.6217
-24.5487
-24.4813
-24.4191
-24.3621
-24.3101
-24.2631
-24.2212
-24.1845
-24.1531
-24.1271
-24.1066
-24.0916
-24.0824
-24.079
-24.0817
-24.0907
-24.1065
-24.1295
-24.1602
-24.1992
-24.2473
-24.305
-24.373
-24.4515
-24.5407
-24.6398
-24.7475
-24.8614
-24.9783
-25.0942
-25.2046
-25.3047
-25.3902
-25.4573
-25.5036
-25.527
-28.7077
-28.656
-28.5565
-28.4161
-28.2439
-28.049
-27.84
-27.6239
-27.406
-27.1895
-26.9768
-26.7692
-26.5677
-26.3733
-26.1868
-26.0093
-25.8416
-25.6842
-25.5372
-25.4004
-25.2731
-25.1546
-25.044
-24.9408
-24.8443
-24.7542
-24.6702
-24.5922
-24.5198
-24.4528
-24.391
-24.3341
-24.282
-24.2348
-24.1926
-24.1555
-24.1237
-24.0971
-24.076
-24.0604
-24.0504
-24.0461
-24.0478
-24.0557
-24.0702
-24.0919
-24.1213
-24.1593
-24.2066
-24.2643
-24.3331
-24.4138
-24.5067
-24.6115
-24.7268
-24.8503
-24.9784
-25.1064
-25.229
-25.3405
-25.4357
-25.5105
-25.5619
-25.5879
-28.8541
-28.7945
-28.6805
-28.5211
-28.3277
-28.1117
-27.8833
-27.6505
-27.4187
-27.1911
-26.9695
-26.7545
-26.5468
-26.347
-26.156
-25.9749
-25.8046
-25.6456
-25.498
-25.3614
-25.235
-25.1176
-25.0082
-24.9061
-24.8106
-24.7213
-24.6381
-24.5608
-24.489
-24.4225
-24.361
-24.3043
-24.2522
-24.2047
-24.1621
-24.1246
-24.0922
-24.0651
-24.0434
-24.0271
-24.0163
-24.011
-24.0116
-24.0182
-24.0313
-24.0514
-24.0794
-24.1159
-24.1622
-24.2194
-24.2887
-24.3713
-24.468
-24.5787
-24.7024
-24.8366
-24.9774
-25.1194
-25.2561
-25.3808
-25.4873
-25.5706
-25.6277
-25.6565
-29.0178
-28.9487
-28.8172
-28.6351
-28.4167
-28.1764
-27.9262
-27.6752
-27.4288
-27.19
-26.9594
-26.7372
-26.5232
-26.3179
-26.1221
-25.9372
-25.764
-25.6035
-25.4555
-25.3195
-25.1942
-25.0784
-24.9705
-24.8696
-24.7752
-24.6867
-24.6043
-24.5277
-24.4567
-24.3908
-24.3297
-24.2731
-24.2209
-24.1732
-24.1301
-24.0921
-24.0591
-24.0315
-24.0092
-23.9922
-23.9805
-23.9743
-23.9736
-23.9788
-23.9903
-24.0087
-24.0348
-24.0696
-24.1143
-24.1705
-24.2398
-24.324
-24.4242
-24.5411
-24.6738
-24.8199
-24.975
-25.1329
-25.2859
-25.4257
-25.5449
-25.6378
-25.701
-25.7328
-29.1997
-29.119
-28.9664
-28.7572
-28.5098
-28.2417
-27.9674
-27.6968
-27.4355
-27.1855
-26.9464
-26.7172
-26.497
-26.2861
-26.0854
-25.8962
-25.7202
-25.5581
-25.41
-25.2749
-25.1513
-25.0374
-24.9313
-24.8318
-24.7384
-24.6509
-24.5692
-24.4934
-24.4232
-24.3581
-24.2975
-24.241
-24.1887
-24.1406
-24.097
-24.0583
-24.0247
-23.9965
-23.9736
-23.956
-23.9435
-23.9362
-23.9342
-23.9379
-23.9476
-23.9641
-23.9881
-24.0207
-24.0634
-24.118
-24.1868
-24.2719
-24.3754
-24.4983
-24.6405
-24.7996
-24.9708
-25.1467
-25.3182
-25.4753
-25.6088
-25.712
-25.7818
-25.8166
-29.4006
-29.306
-29.1281
-28.8868
-28.6055
-28.3061
-28.0053
-27.7142
-27.4379
-27.1773
-26.9304
-26.6946
-26.4686
-26.252
-26.0459
-25.8523
-25.6732
-25.5096
-25.3616
-25.228
-25.1066
-24.995
-24.8909
-24.7931
-24.7008
-24.614
-24.5331
-24.4581
-24.3888
-24.3246
-24.2645
-24.2083
-24.1558
-24.1071
-24.0629
-24.0235
-23.9894
-23.9606
-23.9371
-23.9188
-23.9055
-23.8972
-23.8938
-23.8959
-23.9037
-23.918
-23.9396
-23.9697
-24.0098
-24.0622
-24.1296
-24.215
-24.3212
-24.4502
-24.6022
-24.7754
-24.9643
-25.1605
-25.3532
-25.5299
-25.6791
-25.7935
-25.8699
-25.9077
-29.6219
-29.5102
-29.3021
-29.0229
-28.7025
-28.3679
-28.0385
-27.726
-27.4352
-27.165
-26.9113
-26.6698
-26.4382
-26.2158
-26.004
-25.8055
-25.623
-25.458
-25.3105
-25.1788
-25.0603
-24.9516
-24.85
-24.7538
-24.6626
-24.5765
-24.4961
-24.4221
-24.3539
-24.2906
-24.2313
-24.1752
-24.1224
-24.0732
-24.0281
-23.988
-23.9532
-23.9239
-23.8999
-23.8811
-23.867
-23.8576
-23.8529
-23.8532
-23.8591
-23.871
-23.8899
-23.917
-23.954
-24.0035
-24.0687
-24.1534
-24.2616
-24.3962
-24.5583
-24.7465
-24.955
-25.1741
-25.3908
-25.5897
-25.7564
-25.8824
-25.9652
-26.0057
-29.8648
-29.7327
-29.4884
-29.1646
-28.7992
-28.4254
-28.0653
-27.731
-27.4265
-27.1483
-26.8893
-26.6431
-26.4062
-26.1779
-25.9599
-25.7559
-25.5698
-25.4034
-25.2567
-25.1278
-25.0129
-24.9078
-24.8089
-24.7145
-24.6242
-24.5384
-24.4585
-24.3854
-24.3186
-24.2566
-24.198
-24.1422
-24.089
-24.0389
-23.9929
-23.9519
-23.9164
-23.8866
-23.8623
-23.843
-23.8282
-23.8177
-23.8116
-23.8102
-23.8139
-23.8234
-23.8394
-23.8631
-23.8965
-23.9421
-24.0041
-24.0872
-24.1964
-24.336
-24.5083
-24.7124
-24.9423
-25.187
-25.4311
-25.6552
-25.8411
-25.9788
-26.0675
-26.1103
-30.1311
-29.9742
-29.6869
-29.3107
-28.8938
-28.4768
-28.0841
-27.728
-27.4113
-27.1272
-26.8648
-26.6149
-26.3731
-26.1388
-25.9138
-25.7034
-25.5135
-25.3458
-25.2004
-25.0749
-24.9646
-24.8638
-24.768
-24.6753
-24.5858
-24.5001
-24.4204
-24.3483
-24.283
-24.2226
-24.1649
-24.1093
-24.0557
-24.0046
-23.9573
-23.9154
-23.8792
-23.849
-23.8244
-23.8047
-23.7893
-23.7778
-23.7703
-23.767
-23.7686
-23.7755
-23.7884
-23.8085
-23.8375
-23.8786
-23.9362
-24.0164
-24.1256
-24.2694
-24.4516
-24.6726
-24.9258
-25.1988
-25.4741
-25.7271
-25.9338
-26.0831
-26.1765
-26.2206
-30.4226
-30.2358
-29.8977
-29.46
-28.9841
-28.5201
-28.0933
-27.7156
-27.3888
-27.1016
-26.8383
-26.5857
-26.3394
-26.0989
-25.8659
-25.6482
-25.454
-25.2852
-25.1414
-25.0205
-24.9159
-24.8202
-24.7277
-24.6368
-24.5477
-24.4616
-24.3817
-24.3107
-24.2475
-24.189
-24.1324
-24.0769
-24.0227
-23.9703
-23.9216
-23.8785
-23.8417
-23.8111
-23.7864
-23.7666
-23.7507
-23.7382
-23.7291
-23.7241
-23.7235
-23.7277
-23.7373
-23.7534
-23.7778
-23.8133
-23.8654
-23.9413
-24.0491
-24.1959
-24.3876
-24.6262
-24.9047
-25.209
-25.5198
-25.806
-26.0353
-26.1953
-26.2918
-26.336
-30.7416
-30.5186
-30.1206
-29.611
-29.0679
-28.5534
-28.0914
-27.6927
-27.3587
-27.0719
-26.8104
-26.5563
-26.3057
-26.059
-25.8166
-25.5902
-25.3914
-25.2215
-25.0798
-24.9646
-24.867
-24.7775
-24.6885
-24.5992
-24.5104
-24.4231
-24.3424
-24.2727
-24.212
-24.156
-24.1006
-24.0453
-23.9904
-23.9362
-23.8857
-23.8415
-23.804
-23.7732
-23.7485
-23.7288
-23.7125
-23.699
-23.6884
-23.6815
-23.6787
-23.6802
-23.6865
-23.6985
-23.7176
-23.7466
-23.7919
-23.862
-23.967
-24.1154
-24.3157
-24.5727
-24.8784
-25.2167
-25.5682
-25.8932
-26.1468
-26.3158
-26.4127
-26.4554
-31.0906
-30.8234
-30.3558
-29.7619
-29.1423
-28.5748
-28.0769
-27.658
-27.3204
-27.0383
-26.7821
-26.5273
-26.2726
-26.0197
-25.766
-25.5289
-25.3257
-25.1547
-25.0155
-24.9073
-24.8184
-24.7362
-24.6508
-24.5627
-24.474
-24.3846
-24.3023
-24.2342
-24.1768
-24.1239
-24.0698
-24.0145
-23.9589
-23.9025
-23.8496
-23.8043
-23.7662
-23.7351
-23.7109
-23.6914
-23.675
-23.6604
-23.6482
-23.6394
-23.6345
-23.6334
-23.6362
-23.644
-23.6576
-23.6792
-23.7162
-23.7788
-23.8794
-24.0277
-24.2352
-24.5114
-24.8462
-25.221
-25.6192
-25.9901
-26.2695
-26.4447
-26.5386
-26.5776
-31.4724
-31.151
-30.6035
-29.9108
-29.2041
-28.5827
-28.0488
-27.6101
-27.2737
-27.0014
-26.7546
-26.4993
-26.2404
-25.982
-25.7145
-25.464
-25.2567
-25.0849
-24.9481
-24.8488
-24.7704
-24.697
-24.6149
-24.5277
-24.439
-24.3461
-24.2611
-24.1951
-24.142
-24.0931
-24.0401
-23.9847
-23.9285
-23.8693
-23.8134
-23.767
-23.7284
-23.6971
-23.6735
-23.6547
-23.6383
-23.6226
-23.6087
-23.598
-23.591
-23.5874
-23.5868
-23.5904
-23.5982
-23.6115
-23.6386
-23.6918
-23.7864
-23.9327
-24.1453
-24.4418
-24.8078
-25.2204
-25.6724
-26.0988
-26.4051
-26.5821
-26.6683
-26.701
-31.8904
-31.5015
-30.8642
-30.0555
-29.2491
-28.5758
-28.0061
-27.5472
-27.2183
-26.9617
-26.7295
-26.473
-26.2094
-25.9472
-25.6622
-25.3947
-25.1847
-25.0121
-24.8772
-24.7891
-24.7235
-24.6607
-24.5811
-24.4942
-24.4059
-24.3077
-24.2183
-24.1553
-24.1077
-24.064
-24.0118
-23.9561
-23.8996
-23.8366
-23.7769
-23.7297
-23.6906
-23.6591
-23.6367
-23.6189
-23.6027
-23.5858
-23.57
-23.5574
-23.5485
-23.5425
-23.5383
-23.5379
-23.5401
-23.5439
-23.5597
-23.6014
-23.6886
-23.8303
-24.0451
-24.3633
-24.7629
-25.213
-25.727
-26.222
-26.5556
-26.7282
-26.8007
-26.8241
-32.3488
-31.8742
-31.1394
-30.1935
-29.2722
-28.5534
-27.9485
-27.4675
-27.1543
-26.9199
-26.7091
-26.4488
-26.1794
-25.9173
-25.6094
-25.3195
-25.1101
-24.9365
-24.8022
-24.7284
-24.6779
-24.6283
-24.5496
-24.4621
-24.3755
-24.2695
-24.1732
-24.1146
-24.074
-24.0372
-23.985
-23.9285
-23.8726
-23.8046
-23.7397
-23.6925
-23.653
-23.621
-23.6003
-23.5839
-23.5684
-23.55
-23.5321
-23.5177
-23.5071
-23.4989
-23.4911
-23.487
-23.4838
-23.4771
-23.48
-23.5077
-23.5863
-23.7211
-23.9334
-24.2756
-24.7119
-25.1959
-25.7818
-26.3637
-26.7234
-26.8826
-26.9343
-26.9451
-32.8525
-32.2666
-31.4316
-30.3222
-29.2664
-28.5162
-27.8762
-27.3682
-27.0821
-26.8766
-26.6962
-26.4269
-26.1496
-25.8948
-25.5563
-25.2364
-25.0336
-24.8587
-24.722
-24.667
-24.634
-24.6011
-24.5206
-24.4311
-24.3489
-24.2313
-24.1246
-24.073
-24.041
-24.0134
-23.9597
-23.9018
-23.8482
-23.7732
-23.7014
-23.6555
-23.6156
-23.5828
-23.5647
-23.5501
-23.5357
-23.5154
-23.4951
-23.4789
-23.4667
-23.4568
-23.4451
-23.4378
-23.4302
-23.4116
-23.3999
-23.4106
-23.4805
-23.6055
-23.8083
-24.1784
-24.6561
-25.1652
-25.8344
-26.5293
-26.9112
-27.0448
-27.0675
-27.062
-33.408
-32.6733
-31.7455
-30.4385
-29.2225
-28.4666
-27.7904
-27.2451
-27.0028
-26.832
-26.6949
-26.4068
-26.1183
-25.8836
-25.503
-25.1421
-24.9567
-24.7792
-24.6349
-24.6053
-24.5919
-24.5809
-24.4938
-24.4004
-24.3277
-24.1932
-24.071
-24.0305
-24.0087
-23.9936
-23.9359
-23.8755
-23.8273
-23.7426
-23.6612
-23.6192
-23.5788
-23.5441
-23.5299
-23.5175
-23.5049
-23.4821
-23.4589
-23.4409
-23.4276
-23.4165
-23.4002
-23.3906
-23.3799
-23.3477
-23.3202
-23.3101
-23.372
-23.4849
-23.6673
-24.0715
-24.5985
-25.1156
-25.8813
-26.7267
-27.1217
-27.2136
-27.1981
-27.173
-34.0238
-33.0849
-32.0892
-30.5393
-29.1277
-28.4098
-27.6931
-27.0927
-26.9185
-26.7855
-26.7109
-26.3876
-26.0821
-25.8895
-25.4497
-25.0318
-24.8821
-24.6993
-24.5383
-24.5442
-24.5513
-24.5702
-24.4688
-24.3685
-24.3144
-24.1552
-24.0103
-23.9876
-23.977
-23.9795
-23.9133
-23.8489
-23.8113
-23.7128
-23.6182
-23.5841
-23.5427
-23.5046
-23.4962
-23.4861
-23.4765
-23.45
-23.4235
-23.4039
-23.3897
-23.3784
-23.3563
-23.3453
-23.3342
-23.2859
-23.2418
-23.2055
-23.2621
-23.3612
-23.5068
-23.955
-24.5442
-25.0394
-25.917
-26.9669
-27.3577
-27.3874
-27.324
-27.276
-34.7115
-33.4849
-32.476
-30.6211
-28.9643
-28.3551
-27.5877
-26.9021
-26.8335
-26.7349
-26.7522
-26.3674
-26.0357
-25.921
-25.3964
-24.898
-24.814
-24.6204
-24.4284
-24.4856
-24.5111
-24.5724
-24.4446
-24.3332
-24.3126
-24.1173
-23.9393
-23.9452
-23.9451
-23.9731
-23.8914
-23.8204
-23.8024
-23.6837
-23.5706
-23.5511
-23.5078
-23.4635
-23.4641
-23.456
-23.4509
-23.4193
-23.3888
-23.3679
-23.3531
-23.343
-23.3131
-23.3019
-23.2941
-23.2262
-23.1658
-23.0956
-23.1524
-23.2379
-23.3213
-23.8285
-24.5018
-24.9264
-25.9329
-27.2656
-27.6214
-27.5633
-27.4426
-27.3694
-35.4872
-33.8471
-32.9271
-30.6804
-28.7076
-28.3177
-27.4789
-26.6606
-26.7549
-26.6754
-26.8302
-26.3431
-25.9707
-25.9903
-25.3429
-24.7304
-24.7593
-24.5448
-24.2993
-24.4325
-24.4693
-24.5927
-24.42
-24.2907
-24.3275
-24.0793
-23.8537
-23.9051
-23.9119
-23.9774
-23.8693
-23.7882
-23.8034
-23.6553
-23.516
-23.5218
-23.4744
-23.4199
-23.4341
-23.4268
-23.429
-23.3897
-23.3546
-23.3327
-23.3175
-23.3109
-23.2698
-23.26
-23.2616
-23.1684
-23.094
-22.9782
-23.0446
-23.1199
-23.1033
-23.6916
-24.4848
-24.7624
-25.917
-27.645
-27.9133
-27.7377
-27.5514
-27.4515
-36.3731
-34.1311
-33.4746
-30.7131
-28.3233
-28.3208
-27.3729
-26.3497
-26.6948
-26.5981
-26.961
-26.3098
-25.8742
-26.115
-25.2887
-24.5139
-24.7282
-24.4752
-24.1426
-24.39
-24.4217
-24.638
-24.3927
-24.2355
-24.3668
-24.041
-23.7475
-23.8706
-23.8751
-23.9967
-23.846
-23.7489
-23.8186
-23.6275
-23.4511
-23.4984
-23.443
-23.3722
-23.4073
-23.3981
-23.4116
-23.361
-23.3207
-23.2985
-23.2828
-23.2832
-23.2257
-23.219
-23.2387
-23.1114
-23.0288
-22.85
-22.9407
-23.0151
-22.8416
-23.5426
-24.5135
-24.5286
-25.8516
-28.1357
-28.2318
-27.9056
-27.6478
-27.5212
-37.4005
-34.2763
-34.1669
-30.7145
-27.7644
-28.3993
-27.2775
-25.9426
-26.6724
-26.4876
-27.1674
-26.2608
-25.7278
-26.3197
-25.2328
-24.2275
-24.7357
-24.4148
-23.9463
-24.3666
-24.3615
-24.7184
-24.3595
-24.1597
-24.4409
-24.0018
-23.6126
-23.847
-23.8306
-24.0371
-23.8193
-23.6981
-23.854
-23.5996
-23.371
-23.4841
-23.4143
-23.318
-23.3852
-23.3687
-23.4002
-23.3328
-23.2869
-23.2653
-23.2483
-23.2613
-23.1795
-23.1777
-23.2286
-23.0534
-22.9742
-22.7058
-22.8425
-22.9344
-22.5211
-23.3783
-24.6173
-24.2002
-25.7121
-28.7805
-28.5706
-28.0607
-27.7294
-27.5775
-38.6124
-34.1951
-35.0738
-30.6789
-26.967
-28.6026
-27.2017
-25.4018
-26.7176
-26.3187
-27.481
-26.1866
-25.5055
-26.6384
-25.1732
-23.8426
-24.8035
-24.3679
-23.6933
-24.3752
-24.2774
-24.8476
-24.3161
-24.0518
-24.5646
-23.9605
-23.4376
-23.8426
-23.7716
-24.1066
-23.7866
-23.629
-23.9179
-23.5709
-23.2693
-23.4837
-23.3886
-23.254
-23.3699
-23.3371
-23.3963
-23.3041
-23.2526
-23.233
-23.2129
-23.2472
-23.1292
-23.1341
-23.2353
-22.9907
-22.9356
-22.5379
-22.7518
-22.8941
-22.1213
-23.1931
-24.8376
-23.7444
-25.4646
-29.6374
-28.9169
-28.1959
-27.794
-27.6198
-40.068
-33.7631
-36.2943
-30.5989
-25.8456
-29.0001
-27.1558
-24.6757
-26.8753
-26.0528
-27.9454
-26.0744
-25.1712
-27.1172
-25.1071
-23.3206
-24.9615
-24.3388
-23.3602
-24.4351
-24.1522
-25.0447
-24.2564
-23.8964
-24.7573
-23.9152
-23.2078
-23.8698
-23.6877
-24.2167
-23.7442
-23.5327
-24.0212
-23.5401
-23.137
-23.5037
-23.3662
-23.1757
-23.3649
-23.3002
-23.4024
-23.2734
-23.2172
-23.2016
-23.175
-23.2434
-23.0725
-23.0855
-23.2644
-22.9176
-22.9211
-22.336
-22.6694
-22.9161
-21.6147
-22.9771
-25.2311
-23.1192
-25.063
-30.7845
-29.2483
-28.3033
-27.8399
-27.6478
-41.847
-32.8091
-37.9654
-30.4643
-24.2879
-29.6861
-27.1506
-23.694
-27.2105
-25.6322
-28.62
-25.9075
-24.6766
-27.8173
-25.0297
-22.6107
-25.2507
-24.3322
-22.9151
-24.575
-23.9599
-25.3357
-24.1725
-23.6722
-25.0454
-23.863
-22.9032
-23.9467
-23.5632
-24.3826
-23.6868
-23.3968
-24.1787
-23.505
-22.9624
-23.5527
-23.3472
-23.0764
-23.3747
-23.2538
-23.4213
-23.2387
-23.1798
-23.1713
-23.1319
-23.2533
-23.0058
-23.0278
-23.3234
-22.8253
-22.9421
-22.0854
-22.5948
-23.0308
-20.9656
-22.7148
-25.8737
-22.2712
-24.4464
-32.3255
-29.5284
-28.3752
-27.8658
-27.6616
-44.0556
-31.1018
-40.2732
-30.2613
-22.1488
-30.7868
-27.1974
-22.3642
-27.8163
-24.9745
-29.5848
-25.6649
-23.9586
-28.8195
-24.9352
-21.6481
-25.7268
-24.354
-22.3169
-24.8361
-23.6647
-25.7565
-24.0551
-23.3529
-25.4644
-23.8008
-22.4997
-24.1003
-23.377
-24.6264
-23.6093
-23.207
-24.4111
-23.4642
-22.732
-23.6443
-23.3328
-22.9499
-23.4077
-23.1935
-23.4593
-23.1988
-23.1414
-23.1443
-23.0819
-23.2838
-22.9272
-22.9576
-23.4246
-22.7029
-23.017
-21.7694
-22.5279
-23.2809
-20.131
-22.3853
-26.8675
-21.1362
-23.537
-34.3985
-29.7052
-28.408
-27.8736
-27.6638
)
;

boundaryField
{
    left
    {
        type            calculated;
        value           nonuniform List<scalar> 
32
(
-28.1644
-28.1866
-28.2292
-28.2905
-28.3696
-28.4656
-28.5783
-28.7077
-28.8541
-29.0178
-29.1997
-29.4006
-29.6219
-29.8648
-30.1311
-30.4226
-30.7416
-31.0906
-31.4724
-31.8904
-32.3488
-32.8525
-33.408
-34.0238
-34.7115
-35.4872
-36.3731
-37.4005
-38.6124
-40.068
-41.847
-44.0556
)
;
    }
    right
    {
        type            calculated;
        value           nonuniform List<scalar> 
32
(
-25.3332
-25.3435
-25.3633
-25.3919
-25.4289
-25.474
-25.527
-25.5879
-25.6565
-25.7328
-25.8166
-25.9077
-26.0057
-26.1103
-26.2206
-26.336
-26.4554
-26.5776
-26.701
-26.8241
-26.9451
-27.062
-27.173
-27.276
-27.3694
-27.4515
-27.5212
-27.5775
-27.6198
-27.6478
-27.6616
-27.6638
)
;
    }
    interface
    {
        type            calculated;
        value           nonuniform List<scalar> 
64
(
-45.2825
-30.0268
-41.6129
-30.1407
-20.9135
-31.4588
-27.2353
-21.5991
-28.2005
-24.5744
-30.1513
-25.5218
-23.5349
-29.4076
-24.8828
-21.0946
-26.0197
-24.3729
-21.9739
-25.0032
-23.4863
-26.0047
-23.987
-23.166
-25.7119
-23.7669
-22.2699
-24.2003
-23.2656
-24.7711
-23.565
-23.0968
-24.5492
-23.4425
-22.6012
-23.703
-23.3272
-22.879
-23.4315
-23.1594
-23.4842
-23.1776
-23.1224
-23.1322
-23.0551
-23.3053
-22.8849
-22.9191
-23.4877
-22.6327
-23.0708
-21.5929
-22.4965
-23.4461
-19.6616
-22.2009
-27.4669
-20.4882
-22.9984
-35.5877
-29.7603
-28.4146
-27.8735
-27.6626
)
;
    }
    bottom
    {
        type            calculated;
        value           nonuniform List<scalar> 
64
(
-28.1586
-28.1307
-28.0759
-27.996
-27.8935
-27.7716
-27.6336
-27.4827
-27.3223
-27.1554
-26.9846
-26.8122
-26.6404
-26.4708
-26.3047
-26.1435
-25.9879
-25.8386
-25.6961
-25.5607
-25.4325
-25.3116
-25.1978
-25.091
-24.991
-24.8976
-24.8106
-24.7298
-24.6551
-24.5862
-24.5231
-24.4655
-24.4136
-24.3672
-24.3262
-24.2909
-24.2611
-24.237
-24.2186
-24.2061
-24.1997
-24.1995
-24.2056
-24.2184
-24.2379
-24.2645
-24.2982
-24.3391
-24.3874
-24.4428
-24.5051
-24.5737
-24.6478
-24.7262
-24.8076
-24.8901
-24.9717
-25.0501
-25.1229
-25.1879
-25.2429
-25.2859
-25.3155
-25.3306
)
;
    }
    defaultFaces
    {
        type            empty;
    }
}


// ************************************************************************* //
