/*--------------------------------*- C++ -*----------------------------------*\
| =========                 |                                                 |
| \\      /  F ield         | OpenFOAM: The Open Source CFD Toolbox           |
|  \\    /   O peration     | Version:  5.x                                   |
|   \\  /    A nd           | Web:      www.OpenFOAM.org                      |
|    \\/     M anipulation  |                                                 |
\*---------------------------------------------------------------------------*/
FoamFile
{
    version     2.0;
    format      ascii;
    class       volScalarField;
    location    "0.5001";
    object      gradTx;
}
// * * * * * * * * * * * * * * * * * * * * * * * * * * * * * * * * * * * * * //

dimensions      [0 -1 0 1 0 0 0];

internalField   nonuniform List<scalar> 
2048
(
0.00641381
0.0190249
0.0309825
0.0419195
0.0515724
0.0597629
0.0664182
0.0715551
0.0752574
0.0776524
0.0788892
0.0791224
0.0785013
0.0771649
0.0752413
0.0728478
0.0700926
0.0670745
0.0638826
0.0605942
0.0572733
0.0539697
0.0507193
0.0475451
0.0444597
0.0414676
0.0385674
0.035754
0.0330188
0.030351
0.0277379
0.025165
0.0226175
0.0200805
0.0175395
0.0149813
0.0123939
0.00976588
0.00708655
0.00434539
0.00153216
-0.00136262
-0.0043467
-0.00742454
-0.0105951
-0.0138494
-0.0171671
-0.0205132
-0.0238348
-0.027058
-0.0300868
-0.0328032
-0.0350712
-0.0367433
-0.037671
-0.0377181
-0.0367751
-0.0347731
-0.0316948
-0.027581
-0.02253
-0.0166928
-0.0102625
-0.00346278
0.0191468
0.0567788
0.0924325
0.124999
0.153681
0.177954
0.197617
0.212735
0.223576
0.230534
0.234063
0.23463
0.232679
0.228623
0.22284
0.215675
0.207448
0.198452
0.188952
0.179178
0.169319
0.159523
0.149895
0.1405
0.131375
0.12253
0.113961
0.10565
0.0975728
0.0896964
0.0819826
0.0743887
0.0668696
0.0593807
0.0518794
0.0443264
0.036686
0.0289253
0.0210126
0.0129169
0.00460757
-0.00394433
-0.012763
-0.0218633
-0.0312445
-0.0408824
-0.0507198
-0.0606561
-0.0705371
-0.0801459
-0.0891978
-0.0973413
-0.104168
-0.109235
-0.11209
-0.112321
-0.10959
-0.103686
-0.0945531
-0.0823105
-0.0672545
-0.0498388
-0.0306429
-0.0103396
0.0318374
0.094374
0.153527
0.207412
0.254681
0.29449
0.326544
0.351008
0.368381
0.379361
0.384733
0.385284
0.381752
0.374811
0.365076
0.353107
0.339427
0.324515
0.308809
0.292688
0.276465
0.260381
0.244603
0.229234
0.214323
0.199885
0.185906
0.172357
0.159195
0.146366
0.133806
0.121444
0.109203
0.0970103
0.0847939
0.0724902
0.0600416
0.047395
0.0344999
0.0213055
0.00776066
-0.00618419
-0.0205725
-0.0354339
-0.0507741
-0.0665612
-0.0827108
-0.0990673
-0.115386
-0.131318
-0.146397
-0.16004
-0.171564
-0.180217
-0.185232
-0.185892
-0.181614
-0.172022
-0.157009
-0.136771
-0.111806
-0.0828811
-0.0509646
-0.0171949
0.0447811
0.132667
0.215596
0.290833
0.356459
0.411332
0.455127
0.488189
0.511328
0.525617
0.532211
0.532239
0.52673
0.516609
0.502707
0.485786
0.466558
0.445688
0.423784
0.401377
0.378903
0.356689
0.334959
0.313839
0.293387
0.273607
0.254475
0.235946
0.217958
0.200435
0.183289
0.166417
0.149712
0.133068
0.116385
0.0995766
0.0825644
0.0652787
0.0476518
0.0296148
0.0110955
-0.00797876
-0.0276749
-0.048044
-0.0691066
-0.090835
-0.11313
-0.135797
-0.158517
-0.18082
-0.202066
-0.221443
-0.237981
-0.250597
-0.258172
-0.259648
-0.254152
-0.24111
-0.220341
-0.192114
-0.157145
-0.116541
-0.0716731
-0.0241787
0.0582448
0.172428
0.279821
0.376731
0.460631
0.530118
0.58493
0.625708
0.653691
0.670416
0.677472
0.67635
0.66837
0.654685
0.636319
0.614213
0.589261
0.562309
0.534141
0.505448
0.476787
0.448571
0.421066
0.394411
0.368654
0.343782
0.31975
0.296494
0.273937
0.251982
0.230513
0.209395
0.188486
0.167645
0.146745
0.125675
0.10434
0.0826583
0.0605476
0.0379223
0.0146892
-0.00925061
-0.0339931
-0.0596188
-0.0861742
-0.113649
-0.141948
-0.170854
-0.199994
-0.228796
-0.256457
-0.281933
-0.303953
-0.321069
-0.331761
-0.334573
-0.328278
-0.312052
-0.285612
-0.249296
-0.204063
-0.151403
-0.0931277
-0.0314129
0.0724836
0.214385
0.347308
0.46645
0.568635
0.652254
0.717238
0.764686
0.796419
0.814559
0.821201
0.818221
0.807215
0.789533
0.766355
0.738776
0.70786
0.674638
0.640084
0.605054
0.570238
0.536127
0.503018
0.471042
0.440219
0.410501
0.381817
0.354086
0.327214
0.301086
0.275559
0.250461
0.225611
0.200829
0.175956
0.150862
0.12544
0.0995976
0.0732455
0.0462834
0.0185963
-0.00994394
-0.039469
-0.0700978
-0.101915
-0.134944
-0.169112
-0.204205
-0.239818
-0.2753
-0.309702
-0.34175
-0.36985
-0.392152
-0.40667
-0.41147
-0.40489
-0.385787
-0.353732
-0.309131
-0.253227
-0.187952
-0.11562
-0.0389952
0.0877547
0.259269
0.419142
0.561273
0.681789
0.778967
0.853107
0.905978
0.940183
0.958575
0.963833
0.958236
0.943628
0.921502
0.893145
0.859774
0.822608
0.782878
0.741762
0.700307
0.659344
0.619438
0.580899
0.543825
0.508178
0.473864
0.440773
0.408809
0.37787
0.347826
0.318506
0.289698
0.26117
0.2327
0.204095
0.175207
0.145921
0.116145
0.0857859
0.0547339
0.0228518
-0.0100219
-0.0440611
-0.079433
-0.116273
-0.154656
-0.194552
-0.235778
-0.277931
-0.320307
-0.361832
-0.401009
-0.435905
-0.464218
-0.483422
-0.491002
-0.484758
-0.463133
-0.425498
-0.372329
-0.305203
-0.22659
-0.139385
-0.0470022
0.104327
0.307834
0.496426
0.662466
0.801342
0.911348
0.993396
1.0502
1.0854
1.10274
1.10558
1.0966
1.07783
1.05083
1.01694
0.977439
0.933704
0.887178
0.839282
0.791281
0.744164
0.698567
0.654786
0.612851
0.572639
0.533978
0.49672
0.460755
0.425986
0.392279
0.359433
0.327185
0.295246
0.26334
0.231236
0.19877
0.16583
0.132334
0.0981928
0.0632921
0.0274726
-0.00946473
-0.0477437
-0.0875895
-0.129202
-0.172721
-0.218188
-0.265479
-0.314227
-0.363718
-0.412784
-0.459716
-0.502227
-0.537513
-0.562416
-0.573722
-0.568554
-0.544824
-0.501629
-0.439514
-0.360473
-0.267638
-0.1646
-0.0554894
0.122491
0.360888
0.580317
0.771314
0.928498
1.05037
1.13879
1.19777
1.23226
1.24713
1.24648
1.23336
1.20992
1.17768
1.13793
1.09196
1.04131
0.987653
0.932712
0.878014
0.824729
0.773557
0.724749
0.678219
0.633714
0.590962
0.549764
0.510015
0.471643
0.434519
0.398413
0.363003
0.327922
0.292828
0.257448
0.221607
0.185206
0.148186
0.110476
0.0719609
0.0324602
-0.0082681
-0.0505059
-0.0945458
-0.140662
-0.189081
-0.239933
-0.29319
-0.348565
-0.40538
-0.462417
-0.517778
-0.568815
-0.612167
-0.643946
-0.660088
-0.656877
-0.631534
-0.582788
-0.511251
-0.419444
-0.311343
-0.191382
-0.0644903
0.142567
0.419313
0.672051
0.889146
1.06444
1.19693
1.28982
1.34888
1.38074
1.39159
1.38636
1.36843
1.33991
1.30216
1.25626
1.2035
1.14555
1.08439
1.02209
0.960514
0.901044
0.84444
0.790857
0.740034
0.691533
0.644945
0.600022
0.556682
0.514912
0.474612
0.435519
0.39723
0.359281
0.321244
0.2828
0.243767
0.204078
0.163712
0.122632
0.0807292
0.037802
-0.00644165
-0.0523508
-0.100294
-0.150632
-0.203686
-0.259703
-0.318786
-0.380776
-0.445092
-0.510521
-0.575017
-0.635569
-0.688211
-0.728209
-0.750483
-0.750267
-0.723901
-0.669606
-0.588054
-0.482451
-0.357866
-0.219784
-0.0740129
0.164912
0.484084
0.77297
1.01735
1.21033
1.35178
1.44685
1.50353
1.53059
1.53579
1.52494
1.50163
1.46777
1.42433
1.37209
1.31222
1.24655
1.17745
1.10742
1.03876
0.973093
0.911233
0.85318
0.798412
0.746239
0.696075
0.647615
0.600846
0.555862
0.512619
0.470817
0.429943
0.389408
0.348673
0.307361
0.265298
0.222467
0.178912
0.134644
0.0895732
0.0434731
-0.00400719
-0.0532949
-0.104843
-0.159101
-0.2165
-0.277424
-0.34214
-0.410675
-0.482616
-0.556831
-0.631179
-0.702301
-0.765579
-0.815318
-0.84522
-0.849224
-0.822541
-0.762697
-0.670399
-0.549753
-0.407274
-0.24978
-0.0840348
0.18993
0.556288
0.884542
1.15741
1.36733
1.51563
1.61007
1.66154
1.68137
1.67922
1.66179
1.6327
1.5934
1.54426
1.48558
1.41829
1.34444
1.26688
1.1887
1.1127
1.04083
0.973946
0.911791
0.853483
0.797995
0.744512
0.692673
0.642591
0.594547
0.54859
0.504368
0.461221
0.418391
0.375202
0.331202
0.286243
0.24039
0.193777
0.146486
0.0984582
0.0494385
-0.000996516
-0.0533658
-0.108212
-0.166078
-0.227507
-0.293037
-0.363134
-0.438072
-0.517691
-0.601035
-0.685944
-0.768738
-0.844117
-0.905301
-0.944552
-0.954212
-0.928065
-0.862681
-0.758739
-0.621531
-0.459527
-0.281248
-0.0944978
0.218076
0.637143
1.00838
1.31089
1.5366
1.68904
1.77953
1.82252
1.83247
1.82122
1.79638
1.76132
1.7167
1.66204
1.59689
1.52188
1.43932
1.35272
1.26589
1.18225
1.1042
1.03258
0.966773
0.905396
0.846988
0.790442
0.735335
0.681996
0.631007
0.582563
0.536229
0.49114
0.446324
0.400922
0.354397
0.306644
0.257855
0.208288
0.158122
0.10734
0.055655
0.00255098
-0.0526011
-0.110438
-0.17159
-0.236711
-0.306504
-0.381668
-0.462781
-0.550042
-0.642789
-0.738937
-0.834534
-0.923584
-0.99811
-1.04867
-1.06566
-1.04109
-0.970205
-0.853512
-0.69788
-0.514452
-0.313961
-0.105301
0.249874
0.728016
1.14625
1.47945
1.71924
1.87247
1.95509
1.9859
1.98305
1.96096
1.92808
1.88715
1.83757
1.77776
1.70625
1.6232
1.53132
1.43501
1.33892
1.2473
1.1631
1.08712
1.01822
0.954319
0.89343
0.834072
0.775745
0.719125
0.665264
0.614563
0.566452
0.519778
0.473303
0.425937
0.377021
0.32654
0.274867
0.222418
0.169503
0.116165
0.0620736
0.00659123
-0.0510455
-0.111569
-0.17568
-0.244138
-0.317815
-0.397664
-0.484632
-0.57939
-0.681722
-0.789738
-0.899278
-1.00366
-1.09362
-1.1577
-1.18398
-1.16225
-1.08597
-0.955163
-0.778797
-0.571724
-0.347558
-0.116296
0.285918
0.830435
1.30011
1.66486
1.91635
2.06621
2.13645
2.15092
2.13212
2.09749
2.05621
2.00982
1.95593
1.89156
1.81396
1.7225
1.62058
1.51377
1.40772
1.30772
1.21742
1.13757
1.06624
1.00044
0.937559
0.87564
0.814057
0.754027
0.697313
0.644598
0.595087
0.547215
0.499434
0.450358
0.399156
0.345965
0.291422
0.236135
0.180575
0.124872
0.0686418
0.0110786
-0.0487483
-0.111663
-0.178413
-0.249839
-0.326987
-0.411077
-0.503473
-0.605461
-0.717451
-0.837896
-0.962499
-1.08394
-1.19161
-1.27173
-1.30951
-1.2922
-1.21076
-1.06416
-0.864167
-0.630834
-0.381531
-0.127277
0.326898
0.946104
1.47207
1.86902
2.12894
2.27037
2.32316
2.31669
2.27852
2.22972
2.18006
2.12902
2.07172
2.00365
1.92035
1.82006
1.70722
1.58904
1.47221
1.36332
1.26701
1.18392
1.11097
1.04397
0.979641
0.915421
0.850434
0.786724
0.727118
0.672666
0.622183
0.573531
0.524827
0.474308
0.420886
0.36495
0.307513
0.249396
0.191271
0.133396
0.0753058
0.0159696
-0.0457605
-0.110787
-0.179865
-0.253888
-0.33407
-0.421898
-0.519183
-0.627993
-0.749588
-0.882936
-1.02368
-1.16393
-1.29182
-1.39076
-1.44256
-1.43162
-1.34549
-1.18103
-0.953741
-0.69106
-0.415205
-0.13798
0.373616
1.07691
1.66443
2.09395
2.35793
2.48484
2.5146
2.48215
2.42091
2.35646
2.29889
2.24448
2.18488
2.11424
2.02588
1.91619
1.79135
1.66083
1.53228
1.41387
1.31169
1.22615
1.15256
1.08512
1.01997
0.953732
0.885047
0.817204
0.754604
0.698745
0.647795
0.598803
0.549598
0.497931
0.4423
0.383514
0.323129
0.262155
0.201519
0.141661
0.0820131
0.0212264
-0.0421315
-0.109019
-0.180133
-0.25638
-0.339146
-0.430161
-0.531679
-0.646743
-0.77775
-0.924382
-1.08227
-1.24309
-1.39389
-1.51475
-1.58334
-1.58118
-1.49125
-1.30638
-1.04711
-0.751426
-0.447724
-0.148079
0.42703
1.22492
1.87963
2.34185
2.60407
2.70922
2.71005
2.64615
2.5578
2.47639
2.412
2.35602
2.2954
2.22362
2.13114
2.01123
1.87305
1.72922
1.58782
1.45912
1.35123
1.26427
1.19122
1.12412
1.05885
0.990954
0.918079
0.845411
0.779651
0.722809
0.671993
0.623104
0.573863
0.521395
0.463488
0.401666
0.338257
0.274364
0.211233
0.14959
0.0887145
0.0268212
-0.0379068
-0.106438
-0.179324
-0.257428
-0.342327
-0.435948
-0.540915
-0.66149
-0.801563
-0.961766
-1.13769
-1.32074
-1.4974
-1.64365
-1.73194
-1.74154
-1.6494
-1.44097
-1.14365
-0.810663
-0.478045
-0.157193
0.488316
1.39238
2.12026
2.61515
2.86792
2.94271
2.90872
2.80749
2.68753
2.58809
2.51875
2.46363
2.4032
2.33208
2.23688
2.10553
1.9523
1.79428
1.63876
1.49873
1.38536
1.29831
1.22722
1.16118
1.0966
1.02754
0.949723
0.871228
0.802081
0.744819
0.694874
0.646496
0.597739
0.544903
0.48454
0.41939
0.352885
0.285972
0.22032
0.157095
0.0953661
0.0327405
-0.0331249
-0.103132
-0.177559
-0.257156
-0.343751
-0.439394
-0.546893
-0.672039
-0.820669
-0.994649
-1.18938
-1.39613
-1.60186
-1.77737
-1.88825
-1.91327
-1.82164
-1.58576
-1.24249
-0.86717
-0.504943
-0.164889
0.558971
1.58168
2.38892
2.9166
3.14972
3.18405
3.10991
2.96495
2.80827
2.69002
2.61857
2.56752
2.50817
2.43988
2.34408
2.19944
2.029
1.85619
1.685
1.5323
1.41375
1.32832
1.2609
1.19647
1.13353
1.06408
0.980186
0.894457
0.82165
0.764743
0.716581
0.669012
0.62133
0.568711
0.505544
0.436639
0.367014
0.29693
0.228671
0.164083
0.101931
0.0389906
-0.0278158
-0.0991898
-0.17497
-0.255696
-0.343578
-0.440693
-0.549662
-0.678216
-0.834724
-1.02264
-1.2368
-1.46837
-1.70673
-1.91591
-2.0519
-2.09677
-2.01019
-1.74199
-1.34236
-0.918971
-0.527033
-0.170702
0.640985
1.79531
2.68812
3.24948
3.44932
3.43129
3.31307
3.11738
2.91801
2.7805
2.71103
2.66821
2.61
2.54724
2.45408
2.29325
2.1028
1.91525
1.72652
1.55932
1.43597
1.35439
1.29275
1.23009
1.16992
1.10128
1.00968
0.914799
0.838041
0.782554
0.737329
0.690643
0.644716
0.593152
0.526574
0.453315
0.380661
0.307197
0.236161
0.170453
0.108382
0.0456029
-0.0219992
-0.0947073
-0.171702
-0.253177
-0.341981
-0.440111
-0.549319
-0.67987
-0.843394
-1.04542
-1.2795
-1.53642
-1.81141
-2.05944
-2.22217
-2.29209
-2.21794
-1.91126
-1.44153
-0.963682
-0.542811
-0.174162
0.737108
2.0358
3.02008
3.61785
3.766
3.68165
3.51813
3.26372
3.01446
2.85769
2.79586
2.76672
2.70811
2.6542
2.56873
2.38717
2.17307
1.97199
1.76334
1.57919
1.45153
1.37664
1.32342
1.26197
1.20598
1.14012
1.03842
0.931822
0.850849
0.798244
0.757448
0.711299
0.667935
0.618677
0.547682
0.469246
0.393889
0.316739
0.24264
0.176094
0.114698
0.0526412
-0.0156845
-0.0897838
-0.167916
-0.249717
-0.339129
-0.437993
-0.546013
-0.676871
-0.846339
-1.06276
-1.31715
-1.59897
-1.91523
-2.20848
-2.3978
-2.49879
-2.44873
-2.09569
-1.53754
-0.998494
-0.550718
-0.174816
0.851267
2.30555
3.38643
4.02703
4.09828
3.93112
3.72578
3.40307
3.09508
2.91958
2.87292
2.86474
2.80142
2.76058
2.69062
2.48118
2.23871
2.0273
1.79554
1.59113
1.45981
1.39526
1.35388
1.29185
1.24178
1.18188
1.06659
0.944934
0.859581
0.811825
0.777437
0.730773
0.690957
0.645907
0.568878
0.484156
0.406826
0.325534
0.247933
0.180884
0.120869
0.0602096
-0.00887191
-0.0845237
-0.16379
-0.245408
-0.335174
-0.43478
-0.539939
-0.669099
-0.843201
-1.07452
-1.34967
-1.65442
-2.01741
-2.36413
-2.57691
-2.71552
-2.70773
-2.29799
-1.62701
-1.02018
-0.549232
-0.172275
0.98918
2.60671
3.78767
4.48422
4.44366
4.17416
3.93799
3.5347
3.15692
2.96393
2.94223
2.96492
2.88814
2.86576
2.82341
2.57501
2.29798
2.08262
1.82325
1.59417
1.46008
1.41046
1.38546
1.31912
1.27723
1.22828
1.09434
0.95334
0.863649
0.823333
0.798038
0.748672
0.713647
0.675713
0.590102
0.497621
0.419712
0.333572
0.25182
0.184696
0.126888
0.0684632
-0.00155629
-0.0790365
-0.159535
-0.240311
-0.330225
-0.431039
-0.531333
-0.656452
-0.833567
-1.08069
-1.37734
-1.7007
-2.11698
-2.52844
-2.75676
-2.93969
-3.00186
-2.52166
-1.70522
-1.02514
-0.536979
-0.16625
1.15925
2.94088
4.22261
4.99941
4.7982
4.40309
4.15864
3.65793
3.19658
2.98829
3.0039
3.07132
2.9654
2.96854
2.97227
2.66784
2.34822
2.14026
1.84662
1.5871
1.45147
1.42246
1.42011
1.34268
1.31194
1.28171
1.12169
0.956014
0.862379
0.832811
0.820346
0.764336
0.735715
0.709323
0.611188
0.509012
0.432957
0.340842
0.254034
0.187397
0.132748
0.0776214
0.00626685
-0.0734333
-0.155401
-0.234438
-0.324312
-0.427492
-0.520456
-0.638843
-0.816937
-1.08133
-1.40096
-1.73512
-2.2127
-2.70492
-2.93352
-3.16681
-3.34045
-2.7711
-1.76566
-1.00954
-0.512876
-0.15659
1.37384
3.3088
4.68737
5.58669
5.15603
4.6075
4.39447
3.77202
3.21008
2.99001
3.05793
3.1899
3.02882
3.06685
3.14449
2.75817
2.38554
2.20374
1.86574
1.56843
1.433
1.43142
1.46056
1.36076
1.34515
1.34543
1.14845
0.95166
0.855023
0.840278
0.845947
0.776726
0.756663
0.748462
0.631802
0.51743
0.447225
0.347328
0.254239
0.188858
0.138436
0.0879847
0.0145907
-0.067822
-0.151698
-0.227743
-0.317346
-0.425066
-0.507578
-0.616217
-0.792676
-1.0766
-1.42213
-1.75415
-2.3028
-2.89917
-3.10209
-3.38975
-3.73605
-3.05179
-1.79941
-0.969482
-0.476273
-0.143315
1.65093
3.70984
5.17419
6.26593
5.50868
4.77336
4.65625
3.87583
3.19282
2.96623
3.10399
3.32927
3.07193
3.15744
3.35029
2.84342
2.40443
2.27832
1.88049
1.53631
1.40355
1.43733
1.51069
1.37067
1.37556
1.42385
1.17409
0.938688
0.840797
0.845664
0.877104
0.784284
0.7757
0.795537
0.651369
0.521622
0.46354
0.352969
0.252018
0.188964
0.143911
0.099957
0.0233811
-0.0622956
-0.148816
-0.220112
-0.30906
-0.424954
-0.492934
-0.58857
-0.759964
-1.06661
-1.44355
-1.75319
-2.38474
-3.11969
-3.25579
-3.59774
-4.20545
-3.37045
-1.79441
-0.901345
-0.427108
-0.126642
2.01644
4.14144
5.66986
7.06501
5.84419
4.88202
4.96024
3.96727
3.13946
2.91409
3.14101
3.50162
3.08551
3.23546
3.60374
2.91953
2.39726
2.37167
1.89032
1.48854
1.36197
1.43983
1.57595
1.36848
1.40118
1.52301
1.19749
0.915208
0.818927
0.848714
0.916993
0.784752
0.791658
0.853868
0.668965
0.519879
0.483425
0.357625
0.24686
0.187639
0.149089
0.114074
0.0325535
-0.0569141
-0.147262
-0.211362
-0.298938
-0.428702
-0.476678
-0.555996
-0.717738
-1.05137
-1.46948
-1.72624
-2.45473
-3.37898
-3.38611
-3.77514
-4.77095
-3.73508
-1.73447
-0.802268
-0.366029
-0.106981
2.50705
4.59828
6.15371
8.0226
6.14595
4.90905
5.33019
4.04255
3.04393
2.83083
3.16658
3.72393
3.0567
3.29398
3.924
2.98042
2.35374
2.49468
1.89389
1.42256
1.30713
1.43797
1.6638
1.34868
1.41914
1.65096
1.21673
0.879038
0.788729
0.848828
0.97001
0.774958
0.802876
0.927972
0.683194
0.509923
0.509085
0.361002
0.238143
0.184868
0.153808
0.131042
0.0419406
-0.0516768
-0.147686
-0.201232
-0.286121
-0.438316
-0.458801
-0.518742
-0.664641
-1.03054
-1.50618
-1.66559
-2.50717
-3.69473
-3.48249
-3.89991
-5.46191
-4.15509
-1.59822
-0.670795
-0.294486
-0.0849244
3.17384
5.0714
6.59522
9.19159
6.3913
4.82285
5.79952
4.09505
2.8995
2.71414
3.17611
4.01935
2.96806
3.32346
4.33671
3.01728
2.26027
2.66253
1.88861
1.33545
1.23808
1.42981
1.78443
1.30373
1.42545
1.81839
1.22865
0.827757
0.749715
0.844848
1.04213
0.750562
0.807077
1.0239
0.692015
0.488779
0.543613
0.36256
0.225125
0.180738
0.157785
0.151781
0.051249
-0.046482
-0.150934
-0.189402
-0.269298
-0.456397
-0.439024
-0.477298
-0.598985
-1.0032
-1.56266
-1.56146
-2.53393
-4.0913
-3.53208
-3.94183
-6.31658
-4.64123
-1.35783
-0.507748
-0.214747
-0.0612096
4.08664
5.54697
6.95113
10.6431
6.54982
4.5831
6.41413
4.11383
2.69896
2.56256
3.16169
4.41904
2.79639
3.31104
4.87567
3.01784
2.09928
2.8958
1.86996
1.22399
1.1542
1.41197
1.95147
1.22354
1.41477
2.03932
1.22842
0.75879
0.70173
0.834764
1.14137
0.705756
0.801229
1.1496
0.692544
0.45264
0.591252
0.361388
0.206944
0.175483
0.160567
0.177485
0.0600026
-0.0410741
-0.158089
-0.175503
-0.246567
-0.486313
-0.416657
-0.432502
-0.518728
-0.967443
-1.65132
-1.40169
-2.52334
-4.60137
-3.51959
-3.86042
-7.38425
-5.20553
-0.977564
-0.317325
-0.129814
-0.0366605
5.33907
6.00497
7.16216
12.4714
6.58123
4.13918
7.23547
4.08178
2.43496
2.37607
3.11074
4.96413
2.51145
3.23988
5.58463
2.96534
1.84843
3.22196
1.8307
1.08488
1.05551
1.37904
2.18292
1.09494
1.38011
2.3318
1.20896
0.669546
0.645125
0.815349
1.27827
0.632927
0.781387
1.31541
0.680825
0.396721
0.657682
0.356038
0.182629
0.169542
0.161453
0.209696
0.0674722
-0.0349746
-0.170527
-0.159152
-0.215276
-0.532393
-0.390421
-0.385678
-0.421481
-0.919951
-1.78886
-1.17137
-2.45915
-5.26776
-3.42721
-3.60262
-8.72758
-5.86098
-0.412272
-0.10844
-0.0432192
-0.012123
)
;

boundaryField
{
    left
    {
        type            calculated;
        value           uniform 0;
    }
    right
    {
        type            calculated;
        value           uniform 0;
    }
    interface
    {
        type            calculated;
        value           nonuniform List<scalar> 
64
(
5.33907
6.00497
7.16216
12.4714
6.58123
4.13918
7.23547
4.08178
2.43496
2.37607
3.11074
4.96413
2.51145
3.23988
5.58463
2.96534
1.84843
3.22196
1.8307
1.08488
1.05551
1.37904
2.18292
1.09494
1.38011
2.3318
1.20896
0.669546
0.645125
0.815349
1.27827
0.632927
0.781387
1.31541
0.680825
0.396721
0.657682
0.356038
0.182629
0.169542
0.161453
0.209696
0.0674722
-0.0349746
-0.170527
-0.159152
-0.215276
-0.532393
-0.390421
-0.385678
-0.421481
-0.919951
-1.78886
-1.17137
-2.45915
-5.26776
-3.42721
-3.60262
-8.72758
-5.86098
-0.412272
-0.10844
-0.0432192
-0.012123
)
;
    }
    bottom
    {
        type            calculated;
        value           nonuniform List<scalar> 
64
(
0.00641381
0.0190249
0.0309825
0.0419195
0.0515724
0.0597629
0.0664182
0.0715551
0.0752574
0.0776524
0.0788892
0.0791224
0.0785013
0.0771649
0.0752413
0.0728478
0.0700926
0.0670745
0.0638826
0.0605942
0.0572733
0.0539697
0.0507193
0.0475451
0.0444597
0.0414676
0.0385674
0.035754
0.0330188
0.030351
0.0277379
0.025165
0.0226175
0.0200805
0.0175395
0.0149813
0.0123939
0.00976588
0.00708655
0.00434539
0.00153216
-0.00136262
-0.0043467
-0.00742454
-0.0105951
-0.0138494
-0.0171671
-0.0205132
-0.0238348
-0.027058
-0.0300868
-0.0328032
-0.0350712
-0.0367433
-0.037671
-0.0377181
-0.0367751
-0.0347731
-0.0316948
-0.027581
-0.02253
-0.0166928
-0.0102625
-0.00346278
)
;
    }
    defaultFaces
    {
        type            empty;
    }
}


// ************************************************************************* //
