/*--------------------------------*- C++ -*----------------------------------*\
| =========                 |                                                 |
| \\      /  F ield         | OpenFOAM: The Open Source CFD Toolbox           |
|  \\    /   O peration     | Version:  5.x                                   |
|   \\  /    A nd           | Web:      www.OpenFOAM.org                      |
|    \\/     M anipulation  |                                                 |
\*---------------------------------------------------------------------------*/
FoamFile
{
    version     2.0;
    format      ascii;
    class       volScalarField;
    location    "0.5001";
    object      T;
}
// * * * * * * * * * * * * * * * * * * * * * * * * * * * * * * * * * * * * * //

dimensions      [0 0 0 1 0 0 0];

internalField   nonuniform List<scalar> 
2048
(
9.7977
9.7979
9.7983
9.79887
9.79961
9.80048
9.80147
9.80256
9.80371
9.80491
9.80614
9.80737
9.80861
9.80983
9.81102
9.81218
9.8133
9.81437
9.81539
9.81636
9.81729
9.81815
9.81897
9.81974
9.82046
9.82113
9.82175
9.82233
9.82287
9.82337
9.82382
9.82423
9.82461
9.82494
9.82523
9.82549
9.8257
9.82588
9.82601
9.8261
9.82614
9.82614
9.8261
9.82601
9.82587
9.82568
9.82544
9.82514
9.82479
9.8244
9.82395
9.82346
9.82292
9.82236
9.82178
9.82118
9.8206
9.82003
9.81951
9.81904
9.81865
9.81834
9.81813
9.81802
9.40179
9.40239
9.40356
9.40528
9.40747
9.41008
9.41303
9.41625
9.41968
9.42324
9.42688
9.43055
9.43421
9.43783
9.44136
9.44479
9.4481
9.45127
9.4543
9.45718
9.4599
9.46247
9.46488
9.46715
9.46928
9.47126
9.4731
9.47482
9.47641
9.47787
9.47921
9.48043
9.48153
9.48252
9.48339
9.48414
9.48477
9.48529
9.48568
9.48594
9.48608
9.48609
9.48596
9.48569
9.48528
9.48471
9.484
9.48313
9.4821
9.48092
9.4796
9.47814
9.47656
9.47488
9.47314
9.47138
9.46963
9.46795
9.46639
9.465
9.46382
9.4629
9.46226
9.46194
9.02275
9.02374
9.0257
9.02854
9.03218
9.0365
9.04138
9.0467
9.05235
9.05822
9.06421
9.07024
9.07625
9.08217
9.08796
9.09358
9.09899
9.10418
9.10913
9.11384
9.11828
9.12247
9.12642
9.13012
9.13358
9.13682
9.13983
9.14263
9.14521
9.1476
9.14979
9.15178
9.15358
9.15519
9.15662
9.15784
9.15888
9.15972
9.16036
9.1608
9.16103
9.16104
9.16083
9.1604
9.15973
9.15881
9.15765
9.15623
9.15455
9.15262
9.15045
9.14805
9.14545
9.14268
9.13981
9.1369
9.134
9.13122
9.12863
9.12631
9.12436
9.12282
9.12177
9.12123
8.65961
8.66101
8.66376
8.66775
8.67285
8.67889
8.6857
8.69311
8.70096
8.70909
8.71738
8.72572
8.73402
8.74218
8.75016
8.75789
8.76534
8.77247
8.77927
8.78572
8.79181
8.79756
8.80296
8.80802
8.81277
8.81719
8.82132
8.82515
8.82869
8.83196
8.83495
8.83768
8.84015
8.84236
8.84431
8.846
8.84742
8.84858
8.84946
8.85007
8.85039
8.85042
8.85014
8.84955
8.84864
8.84739
8.8458
8.84386
8.84156
8.8389
8.83591
8.83259
8.82899
8.82515
8.82115
8.81708
8.81304
8.80914
8.80551
8.80225
8.7995
8.79734
8.79586
8.7951
8.31149
8.31331
8.31688
8.32206
8.32866
8.33645
8.34522
8.35473
8.36478
8.37516
8.38573
8.39633
8.40686
8.41722
8.42732
8.4371
8.44652
8.45552
8.46409
8.47221
8.47988
8.48711
8.4939
8.50027
8.50623
8.51179
8.51697
8.52178
8.52623
8.53034
8.53411
8.53754
8.54065
8.54343
8.54589
8.54802
8.54982
8.55128
8.5524
8.55317
8.55359
8.55363
8.5533
8.55257
8.55143
8.54988
8.54788
8.54544
8.54254
8.53919
8.53539
8.53118
8.52658
8.52168
8.51655
8.51131
8.50609
8.50105
8.49634
8.49213
8.48855
8.48575
8.48382
8.48284
7.97757
7.97984
7.98427
7.99069
7.99885
8.00846
8.01923
8.03087
8.04313
8.05576
8.06858
8.08142
8.09415
8.10665
8.11882
8.1306
8.14191
8.15272
8.16299
8.17272
8.1819
8.19054
8.19865
8.20626
8.21337
8.22002
8.2262
8.23195
8.23727
8.24217
8.24668
8.25078
8.2545
8.25783
8.26078
8.26333
8.26549
8.26725
8.26861
8.26954
8.27005
8.27012
8.26974
8.26889
8.26755
8.26571
8.26333
8.26042
8.25695
8.25293
8.24835
8.24325
8.23767
8.23169
8.22542
8.21898
8.21256
8.20633
8.2005
8.19527
8.19084
8.18736
8.18497
8.18375
7.65708
7.65982
7.66518
7.67292
7.68272
7.69422
7.70706
7.72088
7.73537
7.75026
7.76533
7.78038
7.79527
7.80987
7.82407
7.83778
7.85094
7.86349
7.8754
7.88667
7.89729
7.90727
7.91664
7.92543
7.93364
7.94131
7.94845
7.95508
7.96122
7.96689
7.97209
7.97684
7.98115
7.985
7.98842
7.99138
7.99389
7.99594
7.99752
7.99862
7.99923
7.99934
7.99892
7.99796
7.99644
7.99433
7.9916
7.98825
7.98424
7.97956
7.97423
7.96825
7.96169
7.95463
7.94719
7.93952
7.93184
7.92438
7.91737
7.91108
7.90574
7.90154
7.89865
7.89719
7.3493
7.35256
7.35892
7.36807
7.37962
7.39311
7.4081
7.42416
7.44092
7.45808
7.47538
7.49262
7.50965
7.52631
7.54249
7.55809
7.57303
7.58726
7.60075
7.61349
7.62548
7.63675
7.64731
7.65721
7.66646
7.6751
7.68315
7.69063
7.69755
7.70394
7.70981
7.71517
7.72003
7.7244
7.72826
7.73162
7.73447
7.73681
7.73861
7.73987
7.74059
7.74073
7.74029
7.73924
7.73755
7.7352
7.73216
7.72838
7.72386
7.71857
7.71249
7.70567
7.69813
7.68997
7.68133
7.6724
7.6634
7.65463
7.64638
7.63895
7.63264
7.62769
7.62428
7.62254
7.05356
7.05739
7.06484
7.07553
7.08894
7.10454
7.12177
7.14013
7.1592
7.17864
7.19817
7.21759
7.23671
7.2554
7.27352
7.29096
7.30764
7.3235
7.3385
7.35265
7.36594
7.37842
7.39012
7.40107
7.41131
7.42087
7.42978
7.43805
7.44572
7.45279
7.45929
7.46524
7.47064
7.47549
7.47979
7.48353
7.48671
7.48932
7.49135
7.49277
7.49359
7.49379
7.49334
7.49221
7.49038
7.48781
7.48447
7.48032
7.47531
7.46942
7.46264
7.45497
7.44646
7.4372
7.42733
7.41707
7.4067
7.39655
7.38697
7.37834
7.37099
7.36523
7.36126
7.35925
6.76924
6.7737
6.78234
6.7947
6.81013
6.82796
6.84753
6.86827
6.88969
6.91142
6.93317
6.95474
6.97594
6.99661
7.01663
7.03587
7.05424
7.07167
7.08813
7.10361
7.11814
7.13177
7.14453
7.15648
7.16766
7.17809
7.18781
7.19684
7.20521
7.21293
7.22004
7.22654
7.23245
7.23777
7.24249
7.24661
7.25011
7.25299
7.25523
7.25682
7.25775
7.258
7.25755
7.25636
7.25441
7.25166
7.24805
7.24354
7.23809
7.23164
7.22418
7.21569
7.20621
7.19583
7.1847
7.17307
7.16125
7.14962
7.13863
7.1287
7.12025
7.11362
7.10907
7.10675
6.49573
6.50088
6.51086
6.52504
6.54265
6.56286
6.58489
6.60808
6.63188
6.65591
6.67987
6.70356
6.7268
6.74943
6.77131
6.79231
6.81232
6.83126
6.84911
6.86587
6.88157
6.89628
6.91005
6.92294
6.935
6.94626
6.95675
6.9665
6.97553
6.98387
6.99155
6.99858
7.00498
7.01075
7.01588
7.02036
7.02417
7.02731
7.02976
7.03152
7.03256
7.03287
7.03243
7.03121
7.02916
7.02624
7.02239
7.01757
7.0117
7.00473
6.99662
6.98733
6.97689
6.96539
6.95297
6.93991
6.92656
6.91337
6.90085
6.88953
6.8799
6.87235
6.86718
6.86455
6.23246
6.2384
6.24985
6.26604
6.28602
6.30877
6.33338
6.35909
6.3853
6.41163
6.43778
6.46356
6.4888
6.51335
6.53706
6.55978
6.58138
6.60179
6.62097
6.63894
6.65574
6.67146
6.68618
6.69996
6.71285
6.72489
6.73612
6.74654
6.7562
6.76512
6.77334
6.78088
6.78775
6.79396
6.79948
6.80431
6.80842
6.81182
6.81448
6.8164
6.81756
6.81794
6.81753
6.81627
6.81414
6.81108
6.80703
6.80193
6.79569
6.78824
6.77951
6.76945
6.75807
6.74543
6.73169
6.71714
6.70218
6.68732
6.67317
6.66036
6.64946
6.64094
6.6351
6.63215
5.9789
5.98572
5.99881
6.01723
6.03978
6.06525
6.09256
6.12086
6.14951
6.17812
6.20643
6.23426
6.26147
6.2879
6.31341
6.33781
6.36096
6.38279
6.40324
6.42235
6.44018
6.45685
6.47245
6.48706
6.50074
6.51353
6.52545
6.53651
6.54676
6.55623
6.56496
6.57299
6.58031
6.58693
6.59284
6.59801
6.60242
6.60607
6.60893
6.61101
6.61229
6.61275
6.61237
6.6111
6.60891
6.60574
6.60152
6.59616
6.58959
6.5817
6.5724
6.56161
6.54931
6.53554
6.52045
6.50434
6.48768
6.47104
6.45514
6.44072
6.42847
6.41891
6.41239
6.4091
5.73452
5.74233
5.75727
5.77815
5.80351
5.83188
5.86202
5.89297
5.92408
5.95494
5.98536
6.0152
6.04433
6.07262
6.09989
6.12594
6.15061
6.1738
6.19546
6.21564
6.23444
6.25198
6.26841
6.2838
6.29823
6.31172
6.32429
6.33596
6.34677
6.35675
6.36597
6.37446
6.38222
6.38925
6.39553
6.40103
6.40573
6.40962
6.41268
6.41491
6.41631
6.41685
6.41652
6.41526
6.41303
6.40977
6.4054
6.39984
6.39297
6.38469
6.37487
6.36339
6.35019
6.33529
6.31882
6.30111
6.28265
6.26411
6.24633
6.23018
6.21648
6.20584
6.19861
6.19498
5.49883
5.50777
5.52479
5.5484
5.57681
5.60828
5.64138
5.67505
5.7086
5.74168
5.77414
5.80593
5.83695
5.86706
5.89606
5.92374
5.94989
5.97439
5.9972
6.01838
6.03806
6.05642
6.07361
6.08974
6.10488
6.11904
6.13224
6.14448
6.1558
6.16627
6.17595
6.18487
6.19305
6.20047
6.20712
6.21295
6.21793
6.22205
6.22531
6.2277
6.22921
6.22984
6.22956
6.22832
6.22607
6.22274
6.21826
6.21253
6.20542
6.19679
6.1865
6.17437
6.16031
6.14429
6.12644
6.10706
6.0867
6.06613
6.04632
6.0283
6.01306
6.00129
5.99335
5.98937
5.27136
5.28158
5.30093
5.32758
5.35933
5.39411
5.43028
5.46671
5.50268
5.53791
5.57236
5.60604
5.63889
5.67078
5.7015
5.73079
5.75838
5.78414
5.80804
5.83015
5.85064
5.86974
5.88764
5.90446
5.92026
5.93507
5.94887
5.96165
5.97346
5.98437
5.99448
6.00382
6.0124
6.02022
6.02722
6.03337
6.03863
6.04298
6.04642
6.04896
6.05059
6.05131
6.05109
6.04988
6.04763
6.04426
6.03969
6.03382
6.02651
6.01759
6.00688
5.99417
5.97929
5.96218
5.94292
5.92181
5.89946
5.87673
5.85472
5.83468
5.81781
5.80488
5.79622
5.7919
5.05165
5.06332
5.0853
5.11534
5.15074
5.18902
5.22839
5.2676
5.30596
5.34326
5.3796
5.4151
5.44974
5.48338
5.51581
5.54668
5.57569
5.60266
5.62759
5.65055
5.67177
5.69154
5.71009
5.72756
5.744
5.75943
5.7738
5.78709
5.79934
5.81067
5.82118
5.83091
5.83989
5.84809
5.85545
5.86191
5.86743
5.87201
5.87563
5.8783
5.88005
5.88087
5.88072
5.87955
5.87731
5.87392
5.8693
5.86332
5.85585
5.84671
5.83564
5.8224
5.80676
5.78858
5.76791
5.74502
5.72057
5.69554
5.67116
5.64894
5.63034
5.61622
5.60686
5.60223
4.83925
4.8526
4.87753
4.91134
4.95072
4.99271
5.03538
5.0774
5.11807
5.15733
5.19546
5.23271
5.26908
5.30444
5.33857
5.37104
5.40142
5.42957
5.45546
5.47919
5.50106
5.52142
5.54057
5.55864
5.57569
5.59173
5.60666
5.62042
5.63308
5.64479
5.65567
5.66579
5.67514
5.68372
5.69143
5.6982
5.70399
5.70877
5.71256
5.71537
5.71724
5.71815
5.71807
5.71696
5.71475
5.71136
5.7067
5.70066
5.69308
5.68376
5.67241
5.65871
5.64235
5.62315
5.60108
5.57636
5.54972
5.52224
5.49529
5.47069
5.45026
5.43496
5.42493
5.42002
4.63375
4.64901
4.67726
4.71527
4.75899
4.80489
4.85095
4.89579
4.93868
4.97977
5.01956
5.05849
5.09655
5.13359
5.16942
5.20349
5.23522
5.2645
5.29129
5.31571
5.33813
5.359
5.3787
5.39735
5.41499
5.43162
5.4471
5.4613
5.47432
5.48636
5.4976
5.50808
5.5178
5.52676
5.53483
5.5419
5.54794
5.55293
5.55687
5.55981
5.56178
5.56279
5.56281
5.56176
5.55958
5.55621
5.55155
5.54547
5.53782
5.52838
5.51681
5.50273
5.48573
5.46556
5.4421
5.4155
5.38656
5.3565
5.32677
5.29957
5.27722
5.26074
5.25012
5.24496
4.43473
4.4522
4.48416
4.52685
4.5753
4.62528
4.6748
4.72246
4.76746
4.81022
4.85152
4.89205
4.93175
4.97043
5.008
5.04369
5.07673
5.10709
5.13474
5.15975
5.18262
5.20393
5.22413
5.24333
5.26152
5.27875
5.29478
5.30938
5.32273
5.33506
5.34663
5.35745
5.36753
5.37687
5.3853
5.39267
5.39895
5.40414
5.40823
5.41128
5.41336
5.41447
5.41457
5.4136
5.41148
5.40813
5.40348
5.3974
5.38971
5.38022
5.36852
5.35413
5.33656
5.31548
5.29067
5.26215
5.2308
5.19803
5.16528
5.13521
5.11084
5.09326
5.08212
5.07679
4.24178
4.26182
4.29789
4.34582
4.39943
4.45361
4.50666
4.55714
4.60408
4.64833
4.69097
4.73305
4.77435
4.81461
4.85395
4.8913
4.92562
4.95702
4.98547
5.01097
5.0342
5.05584
5.07652
5.09624
5.11496
5.1328
5.14938
5.16435
5.17797
5.19054
5.20242
5.21358
5.224
5.23373
5.24254
5.25019
5.25671
5.26208
5.26631
5.26946
5.27163
5.27285
5.27306
5.27216
5.2701
5.2668
5.26219
5.25611
5.24843
5.23894
5.22719
5.21259
5.19452
5.1726
5.1465
5.116
5.08215
5.04655
5.01052
4.97724
4.95079
4.9322
4.92068
4.91523
4.05452
4.07756
4.11814
4.17193
4.2312
4.28962
4.34625
4.39956
4.44824
4.49377
4.53754
4.58114
4.624
4.66576
4.70695
4.74604
4.78155
4.81395
4.84317
4.86905
4.89252
4.91441
4.93554
4.95577
4.97498
4.99345
5.01061
5.0259
5.03973
5.05249
5.06467
5.07616
5.0869
5.09704
5.10623
5.11415
5.1209
5.12646
5.1308
5.13404
5.1363
5.13763
5.13794
5.13714
5.13514
5.13189
5.12733
5.12129
5.11365
5.10423
5.09249
5.07778
5.05928
5.03662
5.00932
4.97677
4.9403
4.90184
4.86221
4.82531
4.79672
4.77727
4.76552
4.76006
3.87255
3.89915
3.9446
4.00498
4.07044
4.13305
4.19329
4.24948
4.29964
4.3462
4.39087
4.43598
4.4804
4.52352
4.56666
4.60761
4.6442
4.67757
4.70755
4.73368
4.75728
4.77929
4.80088
4.8216
4.84125
4.86041
4.87818
4.89374
4.90771
4.9206
4.93308
4.9449
4.95592
4.96649
4.9761
4.98427
4.99123
4.99698
5.00141
5.00473
5.00706
5.0085
5.00894
5.00823
5.0063
5.00311
4.99863
4.99264
4.98504
4.97576
4.96413
4.94941
4.93055
4.90723
4.87885
4.84419
4.80497
4.76366
4.72011
4.67905
4.6483
4.6282
4.61642
4.61104
3.69547
3.72638
3.77693
3.84475
3.91706
3.98361
4.0475
4.10667
4.15796
4.20533
4.25059
4.29727
4.34324
4.38753
4.43279
4.47576
4.51326
4.54757
4.57835
4.60455
4.62816
4.65017
4.67224
4.69347
4.71346
4.73338
4.75185
4.76758
4.78164
4.79457
4.80737
4.81951
4.83076
4.84181
4.85188
4.86025
4.86743
4.87337
4.87785
4.88124
4.88363
4.8852
4.88577
4.88515
4.8833
4.88017
4.87579
4.86985
4.86232
4.85324
4.8418
4.82719
4.80803
4.78415
4.75488
4.718
4.67587
4.63185
4.584
4.53804
4.5052
4.48475
4.47317
4.46797
3.52288
3.5591
3.61478
3.69106
3.77101
3.841
3.90861
3.97096
4.02292
4.07085
4.1163
4.16473
4.21228
4.2574
4.30505
4.35028
4.38842
4.42366
4.4553
4.48137
4.5049
4.52673
4.54935
4.5711
4.59131
4.6121
4.63136
4.64716
4.66124
4.6741
4.68726
4.69974
4.71115
4.72273
4.73332
4.74183
4.74922
4.75536
4.75987
4.7633
4.76573
4.76745
4.76816
4.76764
4.76586
4.76279
4.75853
4.75265
4.74517
4.73639
4.72521
4.71086
4.69142
4.66708
4.6372
4.59793
4.55267
4.50626
4.45371
4.40187
4.36711
4.34669
4.33556
4.33067
3.35434
3.39727
3.45774
3.54375
3.63232
3.70488
3.77631
3.84221
3.89418
3.94252
3.98762
4.03808
4.08731
4.13273
4.18314
4.231
4.26934
4.30554
4.3382
4.36385
4.38722
4.40863
4.43195
4.45427
4.47447
4.49631
4.51652
4.5322
4.54626
4.55892
4.57252
4.58535
4.59679
4.609
4.62018
4.62874
4.63635
4.64272
4.6472
4.65066
4.6531
4.65499
4.65585
4.65545
4.65373
4.6507
4.64662
4.64079
4.63333
4.62493
4.61408
4.60015
4.58043
4.55571
4.52562
4.48375
4.43502
4.38681
4.32909
4.27006
4.23372
4.21383
4.20342
4.19894
3.18938
3.24098
3.30532
3.40267
3.50113
3.57482
3.65029
3.72032
3.77141
3.8201
3.86411
3.9171
3.96815
4.0131
4.06682
4.11779
4.15568
4.19293
4.22687
4.2517
4.27488
4.29556
4.3198
4.34277
4.36263
4.38575
4.40713
4.42244
4.43646
4.44872
4.46289
4.47613
4.4874
4.50037
4.51226
4.52072
4.52856
4.53521
4.53959
4.54308
4.54549
4.54758
4.54862
4.54831
4.54667
4.54366
4.53979
4.534
4.52651
4.5186
4.50812
4.49485
4.47479
4.44974
4.42
4.37522
4.32251
4.27347
4.21008
4.14205
4.10476
4.08598
4.07659
4.07263
3.02748
3.09049
3.1569
3.26768
3.37768
3.45031
3.53025
3.60532
3.65422
3.70342
3.74529
3.80158
3.85471
3.898
3.95582
4.01062
4.04706
4.08553
4.12117
4.14461
4.16769
4.18717
4.21268
4.23642
4.25545
4.2802
4.30304
4.31762
4.33164
4.34322
4.35816
4.37187
4.38269
4.39661
4.40937
4.41752
4.42562
4.43262
4.43679
4.44034
4.44266
4.445
4.44622
4.44601
4.44444
4.44141
4.43784
4.43207
4.42444
4.41717
4.40707
4.39474
4.37421
4.34882
4.32027
4.27211
4.21467
4.1663
4.0967
4.01721
3.97998
3.963
3.95491
3.95156
2.868
2.94635
3.0117
3.13865
3.26241
3.33071
3.41582
3.49728
3.54215
3.59241
3.63061
3.69136
3.74698
3.78688
3.84992
3.90951
3.94306
3.98306
4.02102
4.04225
4.06547
4.08309
4.11041
4.13509
4.15255
4.17944
4.20415
4.21746
4.23162
4.24211
4.25814
4.27242
4.28236
4.29751
4.31136
4.31886
4.32729
4.33477
4.33857
4.34221
4.34435
4.34702
4.34845
4.34833
4.34683
4.34371
4.34054
4.33477
4.32685
4.32043
4.31064
4.29966
4.27843
4.25259
4.22638
4.17425
4.11092
4.06542
3.98905
3.89473
3.8592
3.84479
3.83824
3.83559
2.71021
2.8094
2.86869
3.0155
3.15593
3.21522
3.30665
3.39646
3.43462
3.48707
3.51943
3.58632
3.64504
3.67907
3.7489
3.8146
3.84319
3.88523
3.92639
3.94425
3.96812
3.98294
4.0128
4.0387
4.05355
4.08325
4.11037
4.12164
4.13624
4.14507
4.16264
4.17764
4.18609
4.20286
4.21809
4.22448
4.23337
4.24147
4.2447
4.24851
4.25034
4.25344
4.25509
4.25504
4.25363
4.25032
4.24772
4.24191
4.23345
4.22819
4.21854
4.20947
4.18719
4.16064
4.13839
4.08145
4.01054
3.97107
3.88736
3.77368
3.74232
3.73125
3.72645
3.72454
2.5532
2.6809
2.72654
2.89813
3.05914
3.10281
3.20236
3.30325
3.33092
3.38759
3.411
3.48639
3.54909
3.57378
3.65256
3.72615
3.74687
3.79175
3.83736
3.85019
3.87561
3.88625
3.91974
3.94724
3.95797
3.99145
4.0217
4.02984
4.04541
4.05177
4.0715
4.08743
4.09355
4.11247
4.12948
4.13411
4.14362
4.15259
4.15492
4.15906
4.1604
4.16408
4.16595
4.16595
4.16466
4.16101
4.15918
4.15331
4.14398
4.14028
4.13047
4.12407
4.10023
4.07247
4.05643
3.99362
3.91264
3.88363
3.792
3.65287
3.62933
3.62232
3.61941
3.61827
2.39583
2.56268
2.58349
2.78649
2.97322
2.99216
3.10257
3.21827
3.23012
3.29436
3.30438
3.39157
3.4595
3.47005
3.56075
3.64457
3.65342
3.70234
3.7541
3.75954
3.78801
3.79253
3.8311
3.86075
3.86532
3.90387
3.93819
3.94165
3.95911
3.96181
3.98459
4.00176
4.00437
4.02618
4.04548
4.04745
4.05787
4.06801
4.069
4.07371
4.0743
4.07876
4.08085
4.08087
4.07976
4.07554
4.07478
4.06881
4.05815
4.05661
4.04609
4.04344
4.01735
3.98754
3.98074
3.91069
3.81612
3.80359
3.70354
3.53085
3.52039
3.51797
3.517
3.51662
)
;

boundaryField
{
    left
    {
        type            zeroGradient;
    }
    right
    {
        type            zeroGradient;
    }
    interface
    {
        type            fixedValue;
        value           nonuniform List<scalar> 
64
(
2.31461
2.50887
2.50887
2.7325
2.93582
2.93582
3.05384
3.17968
3.17968
3.25045
3.25045
3.34599
3.41751
3.41751
3.51638
3.60704
3.60704
3.65894
3.71504
3.71504
3.74625
3.74625
3.78847
3.8196
3.8196
3.86168
3.89871
3.89871
3.91786
3.91786
3.94282
3.96085
3.96085
3.98467
4.00551
4.00551
4.01662
4.02757
4.02757
4.03279
4.03279
4.03782
4.04002
4.04002
4.03906
4.0344
4.0344
4.02838
4.0167
4.0167
4.0054
4.0054
3.97769
3.94617
3.94617
3.87157
3.76754
3.76754
3.66299
3.4677
3.4677
3.4677
3.4677
3.4677
)
;
    }
    bottom
    {
        type            fixedValue;
        value           uniform 10;
    }
    defaultFaces
    {
        type            empty;
    }
}


// ************************************************************************* //
