/*--------------------------------*- C++ -*----------------------------------*\
| =========                 |                                                 |
| \\      /  F ield         | OpenFOAM: The Open Source CFD Toolbox           |
|  \\    /   O peration     | Version:  5.x                                   |
|   \\  /    A nd           | Web:      www.OpenFOAM.org                      |
|    \\/     M anipulation  |                                                 |
\*---------------------------------------------------------------------------*/
FoamFile
{
    version     2.0;
    format      ascii;
    class       volScalarField;
    location    "7";
    object      gradTx;
}
// * * * * * * * * * * * * * * * * * * * * * * * * * * * * * * * * * * * * * //

dimensions      [0 -1 0 1 0 0 0];

internalField   nonuniform List<scalar> 
6300
(
96.4725
97.0574
98.2148
99.9194
102.131
104.792
107.826
111.134
114.593
118.058
121.366
124.34
126.801
128.584
129.55
95.8851
96.4822
97.665
99.4098
101.679
104.417
107.55
110.979
114.583
118.213
121.697
124.849
127.477
129.399
130.463
94.6981
95.3187
96.5505
98.3734
100.754
103.644
106.974
110.648
114.545
118.51
122.358
125.88
128.854
131.068
132.339
92.8879
93.5416
94.8424
96.7763
99.3184
102.429
106.049
110.092
114.436
118.921
123.341
127.454
130.99
133.678
135.283
90.4215
91.1146
92.4988
94.5684
97.3111
100.703
104.7
109.231
114.184
119.393
124.63
129.603
133.969
137.366
139.469
87.2595
87.9942
89.4672
91.6848
94.6521
98.3676
102.814
107.947
113.673
119.833
126.179
132.357
137.915
142.346
145.172
83.3605
84.1328
85.6886
88.049
91.2423
95.2987
100.24
106.065
112.724
120.086
127.894
135.727
142.985
148.928
152.811
78.6867
79.4855
81.1029
83.5778
86.9671
91.342
96.7797
103.347
111.071
119.889
129.579
139.67
149.367
157.566
163.043
73.2118
74.0174
75.6573
78.1897
81.7039
86.3201
92.1871
99.4697
108.32
118.818
130.861
144.002
157.243
168.922
176.922
66.9291
67.7128
69.3169
71.8176
75.3361
80.0451
86.1764
94.0219
103.919
116.198
131.044
148.231
166.678
183.952
196.236
59.8607
60.5856
62.0776
64.4256
67.7755
72.3456
78.449
86.5197
97.1349
111.007
128.881
151.195
177.284
203.967
224.235
52.0653
52.6893
53.9802
56.0297
58.9926
63.1107
68.7521
76.4705
87.0907
101.812
122.276
150.382
187.291
230.393
267.402
43.6438
44.1243
45.1223
46.7184
49.0524
52.3505
56.976
63.5171
72.9425
86.8732
108.024
140.763
191.099
262.906
340.413
34.7402
35.04
35.6643
36.6677
38.1461
40.2609
43.2825
47.6774
54.2866
64.7111
82.1813
113.541
173.434
289.714
482.297
25.5351
25.6296
25.8258
26.1401
26.6019
27.263
28.2139
29.6214
31.8134
35.5011
42.446
57.7843
99.3781
240.213
819.09
129.667
129.037
127.732
125.771
123.194
120.055
116.419
112.352
107.923
103.196
98.2294
93.0744
87.7757
82.371
76.8928
71.3687
65.8226
60.2759
54.7477
49.2551
43.8141
38.439
33.1427
27.9367
22.8307
17.833
12.9503
8.18746
3.54792
-0.966495
-5.35534
-9.6194
-13.7605
-17.7812
-21.6846
-25.4739
-29.1522
-32.7224
-36.1871
-39.5483
-42.8079
-45.9677
-49.0296
-51.996
-54.8699
-57.6551
-60.356
-62.9776
-65.525
-68.0033
-70.4168
-72.769
-75.0617
-77.2956
-79.4696
-81.5816
-83.6282
-85.6059
-87.5106
-89.3388
-91.0873
-92.7532
-94.3339
-95.8263
-97.2266
-98.5296
-99.7278
-100.811
-101.768
-102.582
-103.236
-103.712
-103.99
-104.052
-103.88
-103.46
-102.779
-101.831
-100.61
-99.1176
-97.3589
-95.3432
-93.0844
-90.6011
-87.917
-85.06
-82.0629
-78.9623
-75.7976
-72.6101
130.631
130.006
128.673
126.655
124
120.77
117.035
112.871
108.35
103.539
98.4984
93.2796
87.9263
82.4753
76.9574
71.3988
65.8223
60.2483
54.6952
49.1801
43.7186
38.325
33.0124
27.7922
22.6745
17.6674
12.7776
8.01007
3.36797
-1.14699
-5.5346
-9.79597
-13.9333
-17.9495
-21.8482
-25.6328
-29.3069
-32.8735
-36.3351
-39.6936
-42.9506
-46.1075
-49.1659
-52.1279
-54.9964
-57.7752
-60.4689
-63.083
-65.6232
-68.0952
-70.5039
-72.8531
-75.145
-77.3803
-79.5576
-81.6741
-83.7262
-85.7093
-87.6193
-89.4521
-91.2047
-92.8745
-94.4594
-95.9573
-97.3653
-98.6789
-99.8913
-100.993
-101.971
-102.81
-103.491
-103.995
-104.3
-104.387
-104.237
-103.833
-103.164
-102.221
-100.999
-99.4999
-97.7276
-95.6917
-93.4061
-90.8892
-88.1645
-85.2605
-82.2108
-79.0532
-75.8293
-72.5826
132.609
131.992
130.596
128.455
125.632
122.207
118.268
113.901
109.191
104.211
99.0218
93.6763
88.2159
82.6743
77.0791
71.4533
65.8172
60.1894
54.5872
49.027
43.5244
38.0938
32.7484
27.5
22.3587
17.3329
12.4291
7.65216
3.00518
-1.51051
-5.89519
-10.1506
-14.2798
-18.2865
-22.1751
-25.9502
-29.6156
-33.1749
-36.6305
-39.984
-43.2363
-46.388
-49.4399
-52.3933
-55.2509
-58.0164
-60.6952
-63.2934
-65.8183
-68.2768
-70.6751
-73.0181
-75.3086
-77.5469
-79.7314
-81.858
-83.9217
-85.9166
-87.8374
-89.6794
-91.4396
-93.1162
-94.7085
-96.2161
-97.6382
-98.9722
-100.213
-101.351
-102.373
-103.263
-104
-104.562
-104.924
-105.062
-104.956
-104.587
-103.942
-103.01
-101.787
-100.274
-98.4744
-96.3985
-94.0593
-91.4749
-88.6688
-85.6697
-82.5126
-79.2385
-75.8927
-72.5239
135.712
135.099
133.587
131.233
128.129
124.383
120.112
115.425
110.42
105.18
99.7685
94.2364
88.6205
82.9489
77.2432
71.5211
65.799
60.0926
54.4177
48.7903
43.2258
37.7393
32.3444
27.0534
21.8765
16.8225
11.8978
7.10728
2.4536
-2.06233
-6.44149
-10.6866
-14.8019
-18.7928
-22.665
-26.4244
-30.0763
-33.6246
-37.0719
-40.419
-43.6657
-46.8111
-49.8544
-52.7956
-55.6367
-58.3814
-61.0359
-63.6083
-66.1077
-68.5436
-70.9246
-73.2573
-75.5456
-77.7898
-79.9869
-82.1311
-84.2146
-86.2292
-88.1673
-90.0231
-91.7934
-93.4778
-95.0779
-96.5965
-98.0365
-99.3986
-100.68
-101.873
-102.965
-103.935
-104.761
-105.415
-105.866
-106.088
-106.052
-105.739
-105.13
-104.216
-102.992
-101.457
-99.6182
-97.4828
-95.064
-92.3788
-89.4495
-86.305
-82.982
-79.5256
-75.9881
-72.4268
140.126
139.499
137.788
135.091
131.546
127.313
122.551
117.403
111.986
106.392
100.687
94.9149
89.1036
83.2711
77.4292
71.5877
65.757
59.9493
54.1791
48.4619
42.8143
37.2523
31.7905
26.4419
21.2174
16.1257
11.1736
6.36546
1.70391
-2.81072
-7.18033
-11.409
-15.5028
-19.4691
-23.3164
-27.0528
-30.6853
-34.2189
-37.6564
-40.9975
-44.24
-47.3801
-50.4145
-53.341
-56.1598
-58.875
-61.4938
-64.0268
-66.4871
-68.888
-71.2421
-73.5592
-75.8448
-78.0991
-80.3172
-82.49
-84.6053
-86.6504
-88.6141
-90.4883
-92.2695
-93.9592
-95.5628
-97.0887
-98.5454
-99.9395
-101.273
-102.54
-103.728
-104.814
-105.769
-106.556
-107.139
-107.481
-107.548
-107.313
-106.757
-105.868
-104.641
-103.079
-101.187
-98.9738
-96.4509
-93.6328
-90.5388
-87.1959
-83.6421
-79.9282
-76.1168
-72.2793
146.141
145.454
143.407
140.165
135.95
131.003
125.545
119.765
113.805
107.763
101.701
95.6475
89.6156
83.6052
77.6131
71.6373
65.6805
59.7512
53.8629
48.0327
42.2791
36.6203
31.0731
25.6514
20.3668
15.2281
10.2419
5.41276
0.742951
-3.76759
-8.12169
-12.3251
-16.3864
-20.3163
-24.1269
-27.8299
-31.4356
-34.9509
-38.3787
-41.7171
-44.9603
-48.1004
-51.129
-54.04
-56.8312
-59.506
-62.0737
-64.549
-66.9505
-69.2984
-71.6116
-73.9051
-76.1874
-78.4589
-80.7115
-82.9302
-85.0956
-87.1874
-89.1881
-91.0857
-92.8759
-94.5629
-96.1583
-97.6788
-99.1428
-100.566
-101.959
-103.32
-104.637
-105.881
-107.015
-107.991
-108.759
-109.268
-109.476
-109.348
-108.861
-108.003
-106.773
-105.174
-103.216
-100.909
-98.2616
-95.2829
-91.9851
-88.3893
-84.5318
-80.4698
-76.282
-72.0626
154.205
153.365
150.745
146.637
141.408
135.424
129.001
122.384
115.739
109.163
102.698
96.3478
90.0946
83.9114
77.7719
71.6581
65.5634
59.4931
53.4624
47.4924
41.6066
35.8274
30.1745
24.6635
19.306
14.1109
9.08429
4.2308
-0.447059
-4.94933
-9.27953
-13.4453
-17.4586
-21.3347
-25.0914
-28.7463
-32.315
-35.808
-39.2288
-42.5727
-45.8283
-48.98
-52.0117
-54.9102
-57.669
-60.29
-62.7854
-65.1761
-67.4899
-69.7574
-72.0081
-74.2658
-76.5443
-78.8444
-81.1531
-83.4456
-85.6903
-87.8542
-89.9092
-91.8363
-93.6295
-95.2971
-96.8601
-98.3487
-99.7969
-101.236
-102.689
-104.163
-105.647
-107.105
-108.486
-109.724
-110.748
-111.488
-111.887
-111.899
-111.498
-110.674
-109.433
-107.785
-105.748
-103.333
-100.548
-97.391
-93.8594
-89.9582
-85.7147
-81.1916
-76.4916
-71.7483
165.021
163.835
160.221
154.721
147.95
140.474
132.735
125.041
117.572
110.401
103.528
96.9066
90.4713
84.1528
77.8923
71.6502
65.4099
59.177
52.9735
46.8302
40.7798
34.8523
29.0714
23.4541
18.0115
12.7509
7.67757
2.79619
-1.88955
-6.37841
-10.6736
-14.7846
-18.7275
-22.5245
-26.2016
-29.7861
-33.3026
-36.7683
-40.1885
-43.5543
-46.8446
-50.0313
-53.0849
-55.9806
-58.7038
-61.2537
-63.6464
-65.9126
-68.0946
-70.2394
-72.3933
-74.595
-76.8686
-79.2163
-81.6167
-84.0286
-86.3997
-88.6765
-90.8129
-92.7781
-94.5625
-96.1802
-97.6674
-99.0753
-100.462
-101.884
-103.387
-104.992
-106.691
-108.44
-110.163
-111.764
-113.142
-114.199
-114.852
-115.043
-114.741
-113.946
-112.675
-110.957
-108.821
-106.29
-103.367
-100.037
-96.2647
-92.0186
-87.299
-82.1669
-76.7625
-71.2906
179.735
177.796
172.413
164.63
155.506
145.897
136.401
127.373
118.973
111.207
103.992
97.196
90.6782
84.3091
77.9848
71.6382
65.2444
58.8176
52.3971
46.0333
39.7758
33.6656
27.7323
21.993
16.4551
11.1214
5.99466
1.08019
-3.61512
-8.08583
-12.3323
-16.3651
-20.2058
-23.886
-27.4443
-30.9229
-34.3622
-37.793
-41.2256
-44.6435
-48.0091
-51.2729
-54.384
-57.2983
-59.9866
-62.4427
-64.6879
-66.7693
-68.7513
-70.7067
-72.7081
-74.8196
-77.0846
-79.5109
-82.0623
-84.6686
-87.2434
-89.6994
-91.9616
-93.9788
-95.7338
-97.2499
-98.5873
-99.8305
-101.075
-102.416
-103.935
-105.684
-107.663
-109.811
-112.012
-114.125
-115.998
-117.49
-118.482
-118.893
-118.694
-117.901
-116.559
-114.727
-112.463
-109.808
-106.773
-103.319
-99.3506
-94.7595
-89.4761
-83.533
-77.1296
-70.6109
200.311
196.711
188.056
176.466
163.754
151.155
139.389
128.799
119.456
111.22
103.851
97.0827
90.6692
84.3991
78.108
71.6925
65.1254
58.448
51.738
45.0828
38.5588
32.224
26.1136
20.2417
14.6047
9.19389
4.00646
-0.950971
-5.66357
-10.1155
-14.2982
-18.2213
-21.9143
-25.422
-28.8007
-32.1151
-35.4332
-38.814
-42.2824
-45.807
-49.3188
-52.7331
-55.9653
-58.9399
-61.6026
-63.9339
-65.9637
-67.7674
-69.4451
-71.1063
-72.8628
-74.8215
-77.0667
-79.6239
-82.4271
-85.3526
-88.2566
-90.9998
-93.4616
-95.5555
-97.2474
-98.5751
-99.6411
-100.582
-101.548
-102.689
-104.15
-106.041
-108.392
-111.102
-113.987
-116.827
-119.402
-121.5
-122.945
-123.621
-123.501
-122.644
-121.148
-119.12
-116.664
-113.87
-110.782
-107.339
-103.332
-98.4955
-92.602
-85.5607
-77.6615
-69.5586
230.382
222.899
207.922
189.915
171.837
155.211
140.681
128.427
118.34
109.983
102.842
96.4569
90.4517
84.5176
78.4086
71.964
65.1639
58.1242
50.9992
43.9426
37.0688
30.4588
24.1513
18.1521
12.4289
6.94493
1.68746
-3.33418
-8.08682
-12.532
-16.6372
-20.4082
-23.8885
-27.1429
-30.2489
-33.3007
-36.4127
-39.7077
-43.2572
-46.9876
-50.7676
-54.4542
-57.9162
-61.0293
-63.6943
-65.8577
-67.5637
-68.9457
-70.161
-71.3673
-72.7248
-74.4094
-76.5982
-79.3811
-82.6142
-86.0663
-89.4994
-92.7038
-95.4898
-97.7093
-99.284
-100.275
-100.873
-101.297
-101.766
-102.501
-103.743
-105.736
-108.601
-112.139
-116.023
-119.912
-123.49
-126.448
-128.515
-129.492
-129.369
-128.306
-126.499
-124.127
-121.353
-118.354
-115.298
-112.172
-108.504
-103.753
-97.3792
-88.8224
-78.4855
-67.8073
277.337
259.872
232.148
203.464
177.828
156.245
138.693
124.932
114.729
106.993
100.742
95.2826
90.1299
84.8864
79.1912
72.7463
65.5462
57.9227
50.1612
42.5388
35.1986
28.258
21.7449
15.6651
9.90893
4.37013
-0.970645
-6.10414
-10.9522
-15.4373
-19.4564
-23.0129
-26.1873
-29.0766
-31.7741
-34.3988
-37.1277
-40.2339
-43.9703
-48.0957
-52.3497
-56.4974
-60.3681
-63.7627
-66.5068
-68.4389
-69.6286
-70.3629
-70.8883
-71.4095
-72.1144
-73.2699
-75.2728
-78.4887
-82.4845
-86.8057
-91.0702
-95.0089
-98.3323
-100.79
-102.159
-102.542
-102.354
-101.944
-101.601
-101.581
-102.254
-104.171
-107.842
-112.676
-118.051
-123.443
-128.467
-132.679
-135.652
-136.945
-136.587
-135.037
-132.663
-129.711
-126.363
-122.918
-119.915
-117.783
-115.237
-111.344
-105.299
-94.6464
-79.8
-64.5602
358.033
311.613
257.749
212.615
177.979
151.472
131.241
116.311
107.564
101.863
97.4988
93.665
89.9372
85.9037
81.0517
74.6145
66.537
57.9187
49.122
40.7278
32.7528
25.4411
18.7145
12.7123
7.07619
1.51063
-3.92665
-9.28448
-14.3392
-19.013
-22.9407
-26.1668
-28.8953
-31.2855
-33.4031
-35.3455
-37.298
-39.8514
-44.1218
-49.0171
-54.0834
-58.938
-63.5041
-67.4311
-70.4869
-72.0874
-72.348
-72.0791
-71.62
-71.1856
-70.8534
-70.9088
-72.1991
-76.4717
-81.8847
-87.6252
-93.1086
-98.1982
-102.42
-105.437
-106.452
-105.628
-104.151
-102.496
-100.967
-99.6592
-98.9738
-100.08
-105.406
-112.431
-120.054
-127.502
-134.612
-140.692
-145.205
-146.774
-145.52
-142.955
-139.656
-135.862
-131.512
-126.844
-123.275
-123.99
-123.905
-122.032
-119.852
-106.508
-81.6796
-57.6807
515.919
374.067
270.775
206.647
166.419
137.66
116.151
98.7818
96.0137
94.8032
93.4908
91.8927
90.1829
88.0981
85.1932
78.8435
68.3057
58.1705
47.5029
38.3128
29.3516
21.7816
14.641
9.23259
4.14227
-1.53304
-6.99637
-12.9005
-18.2738
-23.662
-27.4344
-30.0361
-32.0894
-33.8856
-35.2833
-36.2766
-36.6021
-36.995
-43.3725
-49.6912
-56.1206
-61.7925
-67.559
-72.3524
-76.5612
-77.664
-75.8283
-74.0675
-72.315
-70.8134
-69.0327
-66.768
-64.8298
-72.8111
-80.812
-88.8133
-95.7125
-102.636
-108.24
-112.965
-113.392
-109.652
-106.204
-102.865
-100.014
-96.8399
-93.1128
-89.908
-100.525
-111.322
-122.306
-132.047
-142.237
-150.96
-158.997
-160.665
-156.338
-151.929
-147.359
-142.812
-137.116
-129.185
-120.467
-131.345
-135.148
-133.161
-150.479
-134.907
-82.363
-41.1571
875.254
380.987
227.401
166.26
138.339
113.405
95.0995
60.2245
82.2177
87.8886
89.892
90.2792
90.9668
91.4716
94.2932
89.1021
69.4932
59.188
43.7558
35.5676
23.9468
17.5039
8.07339
5.29513
2.05125
-4.88128
-9.4305
-17.2799
-22.1856
-30.6365
-33.6125
-34.6939
-35.6523
-37.0585
-37.7444
-38.1683
-35.8079
-25.5198
-42.7063
-50.2045
-59.247
-64.5089
-73.0137
-78.1139
-87.1061
-87.4703
-79.1991
-76.0424
-72.647
-70.8416
-67.9078
-62.1558
-43.175
-69.1209
-79.7375
-91.5866
-98.2801
-108.971
-115.324
-126.68
-126.331
-113.254
-108.1
-102.527
-99.5246
-94.8156
-86.4982
-59.8325
-95.3812
-109.941
-126.347
-135.945
-151.971
-162.215
-181.96
-183.183
-167.274
-161.132
-155.027
-151.416
-145.935
-132.659
-89.4375
-148.886
-154.727
-116.489
-228.463
-216.545
-66.7181
1.30973
-69.1284
-65.4142
-61.8501
-58.4876
-55.3668
-52.5165
-49.9547
-47.6907
-45.7269
-44.0607
-42.687
-41.599
-40.79
-40.2542
-39.9874
-69.0387
-65.2632
-61.6476
-58.245
-55.0956
-52.2272
-49.6562
-47.3899
-45.4284
-43.7677
-42.4006
-41.3193
-40.5161
-39.9846
-39.72
-68.8522
-64.9512
-61.2312
-57.7481
-54.5425
-51.6397
-49.0523
-46.7833
-44.8287
-43.1802
-41.8278
-40.761
-39.9701
-39.4475
-39.1875
-68.5541
-64.4573
-60.5768
-56.9731
-53.6858
-50.7359
-48.1294
-45.8618
-43.9221
-42.2961
-40.9689
-39.926
-39.1553
-38.647
-38.3945
-68.1192
-63.7463
-59.6447
-55.8807
-52.491
-49.488
-46.8668
-44.6115
-42.7011
-41.1127
-39.8249
-38.8183
-38.0774
-37.5902
-37.3485
-67.5079
-62.763
-58.3742
-54.4131
-50.9086
-47.8576
-45.2375
-43.0158
-41.1573
-39.6283
-38.3989
-37.4445
-36.7453
-36.2871
-36.0603
-66.6579
-61.4226
-56.6752
-52.4883
-48.8718
-45.7956
-43.2092
-41.0564
-39.2835
-37.8435
-36.6975
-35.8148
-35.1718
-34.7521
-34.5448
-65.4688
-59.5935
-54.4149
-49.9922
-46.2942
-43.2431
-40.7466
-38.7163
-37.0761
-35.7641
-34.7324
-33.9447
-33.3746
-33.0041
-32.8216
-63.7718
-57.0668
-51.3979
-46.7708
-43.0691
-40.1355
-37.8173
-35.9857
-34.5399
-33.404
-32.5227
-31.8564
-31.3775
-31.0676
-30.9153
-61.2659
-53.5032
-47.3382
-42.6231
-39.0752
-36.4118
-34.4007
-32.8689
-31.6933
-30.7888
-30.0975
-29.5802
-29.2109
-28.9729
-28.8562
-57.3799
-48.3409
-41.828
-37.3073
-34.1963
-32.0351
-30.5044
-29.3954
-28.5751
-27.9601
-27.4978
-27.1555
-26.9126
-26.7565
-26.6801
-50.964
-40.6522
-34.3252
-30.5814
-28.3671
-27.0276
-26.1861
-25.6326
-25.2512
-24.9781
-24.7779
-24.6311
-24.5271
-24.4601
-24.4272
-39.5974
-28.9777
-24.2385
-22.3254
-21.6628
-21.5216
-21.5793
-21.6973
-21.8187
-21.9228
-22.0041
-22.0635
-22.1042
-22.1292
-22.1411
-18.0875
-11.4225
-11.3254
-12.8185
-14.4368
-15.8165
-16.9119
-17.7582
-18.4034
-18.89
-19.2518
-19.5144
-19.6965
-19.8111
-19.8664
24.586
12.7007
3.17816
-3.18612
-7.44914
-10.3955
-12.4933
-14.02
-15.1463
-15.9817
-16.5984
-17.0455
-17.3561
-17.552
-17.6468
17.0091
16.9087
16.6976
16.3531
15.8359
15.0811
13.9811
12.3496
9.84019
5.73778
-1.6737
-17.3959
-59.4806
-206.706
-854.538
9.32695
9.05664
8.49093
7.57489
6.21263
4.24554
1.41047
-2.74346
-9.03018
-19.0227
-36.0117
-67.4343
-130.884
-265.351
-515.841
1.83164
1.40884
0.526723
-0.894229
-2.99135
-5.988
-10.245
-16.3562
-25.3279
-38.9254
-60.3266
-95.231
-152.968
-243.425
-351.088
-5.37085
-5.92075
-7.06405
-8.89449
-11.5713
-15.3469
-20.6136
-27.983
-38.4139
-53.4093
-75.2649
-107.172
-152.329
-209.547
-261.1
-12.1922
-12.839
-14.1783
-16.3076
-19.3889
-23.6707
-29.5226
-37.4843
-48.3302
-63.1288
-83.2229
-109.911
-143.313
-179.601
-206.909
-18.565
-19.2769
-20.7445
-23.0601
-26.3731
-30.9047
-36.9668
-44.9832
-55.5022
-69.1707
-86.6007
-107.989
-132.291
-155.891
-171.681
-24.444
-25.1905
-26.7225
-29.1204
-32.5115
-37.0762
-43.0542
-50.7446
-60.4873
-72.6005
-87.229
-104.043
-121.756
-137.603
-147.417
-29.8051
-30.5592
-32.0995
-34.4914
-37.8353
-42.2665
-47.9526
-55.081
-63.8266
-74.2836
-86.339
-99.473
-112.516
-123.505
-129.967
-34.6431
-35.3823
-36.8854
-39.2018
-42.4043
-46.5854
-51.8495
-58.2944
-65.9776
-74.8569
-84.6997
-94.9656
-104.702
-112.549
-117.003
-38.9681
-39.6752
-41.1069
-43.2973
-46.2939
-50.1525
-54.9264
-60.6479
-67.2979
-74.7611
-82.7665
-90.8256
-98.1991
-103.949
-107.133
-42.8024
-43.4652
-44.8019
-46.833
-49.5851
-53.0842
-57.3455
-62.3566
-68.0534
-74.2886
-80.7959
-87.1614
-92.8235
-97.1303
-99.473
-46.1767
-46.7876
-48.015
-49.8684
-52.3577
-55.4866
-59.2439
-63.5891
-68.435
-73.6271
-78.9236
-83.9854
-88.3889
-91.6753
-93.4396
-49.127
-49.6821
-50.7936
-52.4625
-54.6862
-57.4529
-60.7341
-64.4738
-68.5762
-72.8931
-77.2142
-81.2663
-84.7299
-87.2771
-88.631
-51.6921
-52.1904
-53.1852
-54.6714
-56.6377
-59.0621
-61.9061
-65.1067
-68.5684
-72.1561
-75.6913
-78.9558
-81.7071
-83.7073
-84.7624
-53.9112
-54.3541
-55.2358
-56.5471
-58.2711
-60.3801
-62.8305
-65.5582
-68.4731
-71.4556
-74.3563
-77.0014
-79.2056
-80.7936
-81.6263
-55.823
-56.2132
-56.9882
-58.1363
-59.6374
-61.4609
-63.5623
-65.8796
-68.3307
-70.8118
-73.1988
-75.3531
-77.132
-78.4043
-79.0683
-57.4639
-57.8052
-58.4817
-59.4803
-60.7798
-62.3489
-64.1443
-66.1082
-68.1676
-70.2333
-72.2029
-73.9654
-75.41
-76.4372
-76.9713
-58.8678
-59.1646
-59.7516
-60.6155
-61.7351
-63.0799
-64.6092
-66.2706
-67.9999
-69.7215
-71.3506
-72.7983
-73.9777
-74.8124
-75.2452
-60.0658
-60.3224
-60.8293
-61.5733
-62.534
-63.6828
-64.9823
-66.3859
-67.8377
-69.2738
-70.6243
-71.8176
-72.7848
-73.4667
-73.8194
-61.0856
-61.3066
-61.7424
-62.3807
-63.2023
-64.181
-65.2831
-66.4676
-67.6864
-68.8855
-70.0073
-70.9936
-71.7899
-72.3496
-72.6384
-61.952
-62.1416
-62.515
-63.0609
-63.7616
-64.5935
-65.5268
-66.5256
-67.5487
-68.5508
-69.4842
-70.3017
-70.9594
-71.4204
-71.658
-62.6868
-62.8489
-63.168
-63.6335
-64.2298
-64.9357
-65.725
-66.5667
-67.4257
-68.2638
-69.0416
-69.7206
-70.2653
-70.6463
-70.8424
-63.309
-63.4473
-63.7192
-64.1154
-64.6218
-65.2199
-65.8868
-66.5958
-67.3171
-68.0186
-68.6677
-69.2327
-69.6849
-70.0007
-70.163
-63.8353
-63.953
-64.1843
-64.5208
-64.9502
-65.4564
-66.0194
-66.6165
-67.2222
-67.8098
-68.3521
-68.823
-69.1992
-69.4616
-69.5963
-64.2799
-64.3799
-64.5762
-64.8616
-65.2254
-65.6533
-66.1284
-66.6311
-67.14
-67.6325
-68.086
-68.4791
-68.7927
-69.011
-69.1231
-64.655
-64.7398
-64.9063
-65.1481
-65.4559
-65.8175
-66.2182
-66.6415
-67.0691
-67.4821
-67.8618
-68.1904
-68.4522
-68.6342
-68.7276
-64.9712
-65.0431
-65.1842
-65.3889
-65.6491
-65.9545
-66.2924
-66.6488
-67.0083
-67.355
-67.6732
-67.9482
-68.167
-68.3191
-68.397
-65.2376
-65.2985
-65.4179
-65.591
-65.811
-66.0689
-66.3539
-66.654
-66.9564
-67.2476
-67.5145
-67.7449
-67.9281
-68.0553
-68.1205
-65.4616
-65.5132
-65.6142
-65.7607
-65.9466
-66.1644
-66.4048
-66.6577
-66.9122
-67.157
-67.3812
-67.5745
-67.7281
-67.8347
-67.8893
-65.6498
-65.6935
-65.779
-65.9029
-66.0601
-66.2441
-66.447
-66.6603
-66.8747
-67.0808
-67.2693
-67.4317
-67.5606
-67.6501
-67.6959
-65.8078
-65.8448
-65.9172
-66.0221
-66.1551
-66.3106
-66.4821
-66.6622
-66.843
-67.0167
-67.1754
-67.3122
-67.4206
-67.4958
-67.5343
-65.9401
-65.9714
-66.0328
-66.1218
-66.2344
-66.3661
-66.5112
-66.6635
-66.8163
-66.9629
-67.0969
-67.2122
-67.3037
-67.367
-67.3995
-66.0506
-66.0772
-66.1294
-66.2049
-66.3006
-66.4123
-66.5354
-66.6644
-66.7939
-66.918
-67.0314
-67.1289
-67.2062
-67.2598
-67.2872
-66.1426
-66.1653
-66.2098
-66.2741
-66.3555
-66.4506
-66.5553
-66.6651
-66.7751
-66.8806
-66.9768
-67.0596
-67.1252
-67.1706
-67.1939
-66.2189
-66.2383
-66.2763
-66.3313
-66.401
-66.4823
-66.5718
-66.6655
-66.7595
-66.8495
-66.9316
-67.0022
-67.0581
-67.0969
-67.1167
-66.2816
-66.2984
-66.3311
-66.3784
-66.4384
-66.5083
-66.5853
-66.6659
-66.7466
-66.8239
-66.8944
-66.9551
-67.003
-67.0363
-67.0533
-66.3328
-66.3473
-66.3757
-66.4168
-66.4688
-66.5295
-66.5962
-66.6661
-66.7361
-66.8031
-66.8642
-66.9166
-66.9582
-66.987
-67.0017
-66.3739
-66.3866
-66.4115
-66.4476
-66.4932
-66.5465
-66.605
-66.6663
-66.7276
-66.7863
-66.8398
-66.8858
-66.9222
-66.9474
-66.9603
-66.4061
-66.4174
-66.4397
-66.4718
-66.5124
-66.5598
-66.6119
-66.6664
-66.7209
-66.7732
-66.8208
-66.8616
-66.894
-66.9164
-66.9278
-66.4304
-66.4407
-66.4609
-66.49
-66.5269
-66.5698
-66.617
-66.6664
-66.7159
-66.7632
-66.8063
-66.8434
-66.8727
-66.893
-66.9033
-66.4476
-66.4572
-66.4759
-66.5029
-66.5371
-66.5769
-66.6207
-66.6665
-66.7123
-66.7562
-66.7962
-66.8305
-66.8576
-66.8764
-66.886
-66.4582
-66.4673
-66.4851
-66.5108
-66.5433
-66.5813
-66.6229
-66.6665
-66.7101
-66.7519
-66.7899
-66.8225
-66.8484
-66.8662
-66.8754
-66.4625
-66.4714
-66.4888
-66.514
-66.5459
-66.583
-66.6238
-66.6665
-66.7093
-66.7501
-66.7874
-66.8193
-66.8446
-66.8621
-66.8711
-66.4605
-66.4695
-66.4871
-66.5126
-66.5447
-66.5822
-66.6234
-66.6665
-66.7097
-66.7509
-66.7885
-66.8208
-66.8463
-66.864
-66.873
-66.4524
-66.4617
-66.48
-66.5065
-66.5399
-66.5789
-66.6217
-66.6665
-66.7114
-66.7543
-66.7933
-66.8269
-66.8534
-66.8718
-66.8812
-66.4377
-66.4477
-66.4672
-66.4955
-66.5312
-66.5729
-66.6186
-66.6665
-66.7144
-66.7603
-66.802
-66.8379
-66.8663
-66.8859
-66.8959
-66.4161
-66.4271
-66.4484
-66.4793
-66.5184
-66.564
-66.6141
-66.6665
-66.7189
-66.7691
-66.8148
-66.8541
-66.8851
-66.9066
-66.9176
-66.387
-66.3992
-66.423
-66.4575
-66.5011
-66.552
-66.6079
-66.6664
-66.7249
-66.781
-66.8321
-66.8759
-66.9106
-66.9346
-66.9469
-66.3493
-66.3632
-66.3902
-66.4293
-66.4788
-66.5365
-66.5999
-66.6663
-66.7327
-66.7963
-66.8543
-66.9041
-66.9435
-66.9708
-66.9848
-66.3021
-66.318
-66.349
-66.3939
-66.4507
-66.517
-66.5898
-66.6661
-66.7425
-66.8156
-66.8823
-66.9395
-66.9849
-67.0163
-67.0323
-66.2439
-66.2623
-66.2982
-66.3503
-66.4161
-66.4929
-66.5774
-66.6659
-66.7545
-66.8394
-66.9168
-66.9832
-67.0359
-67.0723
-67.091
-66.1729
-66.1943
-66.2363
-66.297
-66.3739
-66.4635
-66.5622
-66.6656
-66.7691
-66.8683
-66.9588
-67.0366
-67.0981
-67.1408
-67.1626
-66.087
-66.1122
-66.1614
-66.2326
-66.3227
-66.4279
-66.5437
-66.6651
-66.7867
-66.9033
-67.0097
-67.1011
-67.1735
-67.2237
-67.2494
-65.9837
-66.0133
-66.0712
-66.155
-66.2611
-66.385
-66.5214
-66.6645
-66.8079
-66.9454
-67.0709
-67.1788
-67.2644
-67.3236
-67.354
-65.8598
-65.8947
-65.963
-66.0618
-66.1871
-66.3334
-66.4945
-66.6635
-66.8331
-66.9958
-67.1443
-67.2721
-67.3734
-67.4437
-67.4796
-65.7118
-65.753
-65.8336
-65.9504
-66.0984
-66.2715
-66.4621
-66.6623
-66.8631
-67.056
-67.2322
-67.3838
-67.5041
-67.5875
-67.6302
-65.5351
-65.5838
-65.6792
-65.8173
-65.9925
-66.1973
-66.4232
-66.6605
-66.8988
-67.1277
-67.337
-67.5173
-67.6604
-67.7596
-67.8104
-65.3247
-65.3823
-65.4951
-65.6585
-65.8659
-66.1085
-66.3764
-66.6579
-66.9409
-67.213
-67.4621
-67.6767
-67.847
-67.9653
-68.0258
-65.0743
-65.1424
-65.2758
-65.4692
-65.7147
-66.0023
-66.32
-66.6543
-66.9907
-67.3144
-67.611
-67.8667
-68.0699
-68.211
-68.2833
-64.7767
-64.8571
-65.0149
-65.2437
-65.5344
-65.8752
-66.2521
-66.6492
-67.0492
-67.4347
-67.7881
-68.0933
-68.336
-68.5045
-68.5909
-64.4232
-64.5182
-64.7046
-64.9752
-65.3193
-65.7231
-66.1703
-66.642
-67.1179
-67.5772
-67.9988
-68.3633
-68.6534
-68.8551
-68.9585
-64.0037
-64.1159
-64.3359
-64.6556
-65.0626
-65.541
-66.0714
-66.6318
-67.1983
-67.7457
-68.2491
-68.685
-69.0322
-69.2739
-69.3978
-63.5064
-63.6386
-63.8981
-64.2755
-64.7565
-65.3227
-65.9517
-66.6175
-67.2918
-67.9448
-68.5464
-69.0681
-69.4844
-69.7744
-69.9232
-62.9174
-63.0729
-63.3785
-63.8233
-64.3912
-65.0609
-65.8063
-66.5972
-67.4002
-68.1795
-68.8991
-69.5244
-70.0242
-70.3728
-70.5519
-62.2204
-62.4031
-62.7623
-63.2858
-63.9553
-64.7465
-65.6294
-66.5687
-67.5249
-68.4556
-69.3173
-70.0679
-70.6691
-71.089
-71.3048
-61.3966
-61.6107
-62.0319
-62.6469
-63.4349
-64.3685
-65.4133
-66.5284
-67.6673
-68.7796
-69.8127
-70.7152
-71.4397
-71.9467
-72.2077
-60.4243
-60.6744
-61.1672
-61.8878
-62.8134
-63.9133
-65.1484
-66.4715
-67.8283
-69.1585
-70.3987
-71.4859
-72.3613
-72.9753
-73.2917
-59.2784
-59.5697
-60.1443
-60.9863
-62.071
-63.3643
-64.8224
-66.3913
-68.0076
-69.5998
-71.0911
-72.4037
-73.4644
-74.2103
-74.5955
-57.9303
-58.2682
-58.9358
-59.9164
-61.1837
-62.7009
-64.4194
-66.2782
-68.2037
-70.1111
-71.9074
-73.4965
-74.786
-75.6958
-76.1666
-56.3477
-56.7379
-57.5101
-58.6475
-60.123
-61.8978
-63.9191
-66.1188
-68.4123
-70.6995
-72.8676
-74.7971
-76.3711
-77.4861
-78.0645
-54.4942
-54.9423
-55.8309
-57.1439
-58.8546
-60.9235
-63.2949
-65.8942
-68.6253
-71.3706
-73.9934
-76.3446
-78.2748
-79.6489
-80.3639
-52.3297
-52.841
-53.8572
-55.3641
-57.3375
-59.7391
-62.5126
-65.5781
-68.8285
-72.1268
-75.3076
-78.1845
-80.5645
-82.2692
-83.1597
-49.8102
-50.3892
-51.5428
-53.2607
-55.5232
-58.2967
-61.5274
-65.1335
-68.9983
-72.9644
-76.8327
-80.3693
-83.3231
-85.4547
-86.5737
-46.8889
-47.5386
-48.8368
-50.7791
-53.354
-56.5369
-60.2816
-64.5094
-69.0978
-73.8699
-78.5881
-82.9587
-86.6523
-89.3432
-90.7646
-43.5167
-44.2379
-45.6837
-47.8584
-50.7628
-54.3872
-58.7003
-63.6347
-69.0698
-74.8128
-80.5847
-86.018
-90.6775
-94.1131
-95.9423
-39.6438
-40.4344
-42.0247
-44.4311
-47.6718
-51.7595
-56.6876
-62.4125
-68.8278
-75.7354
-82.8163
-89.6145
-95.5525
-99.9983
-102.39
-35.2223
-36.0758
-37.7994
-40.4245
-43.9929
-48.5481
-54.1218
-60.7108
-68.244
-76.5377
-85.244
-93.808
-101.463
-107.31
-110.498
-30.2084
-31.1132
-32.9483
-35.7633
-39.6289
-44.6298
-50.851
-58.3534
-67.132
-77.0533
-87.7703
-98.632
-108.63
-116.466
-120.82
-24.5667
-25.5051
-27.4172
-30.3729
-34.4769
-39.8643
-46.6908
-55.1098
-65.2264
-77.0161
-90.1959
-104.055
-117.299
-128.04
-134.164
-18.2737
-19.2214
-21.1617
-24.1856
-28.434
-34.0996
-41.4248
-50.6873
-62.1591
-76.0134
-92.1492
-109.906
-127.704
-142.82
-151.76
-11.3231
-12.2491
-14.1541
-17.1484
-21.4074
-27.1828
-34.8136
-44.7309
-57.4372
-73.4262
-92.9767
-115.727
-139.973
-161.887
-175.564
-3.73016
-4.59747
-6.39069
-9.2335
-13.3283
-18.9779
-26.6151
-36.8379
-50.4357
-68.3658
-91.5818
-120.509
-153.859
-186.674
-208.864
4.46434
3.6964
2.10091
-0.449802
-4.17012
-9.39312
-16.6213
-26.6015
-40.4258
-59.6346
-86.2207
-122.219
-168.115
-218.84
-257.571
13.1913
12.5641
11.2551
9.14539
6.03095
1.58349
-4.71683
-13.696
-26.677
-45.7805
-74.3236
-117.054
-179.018
-259.331
-333.174
22.3529
21.9045
20.9644
19.4375
17.157
13.8461
9.04724
1.98793
-8.67709
-25.3714
-52.5743
-98.5326
-177.176
-304.313
-460.053
31.8248
31.5853
31.0802
30.252
28.9976
27.1412
24.3802
20.175
13.509
2.33456
-17.8007
-57.3129
-141.656
-329.43
-695.081
41.462
41.4493
41.4194
41.3615
41.2553
41.0634
40.7151
40.0697
38.8249
36.2622
30.4284
15.0394
-34.3075
-231.019
-1184.02
51.1067
51.3242
51.7769
52.5034
53.5714
55.0931
57.2551
60.3792
65.0543
72.4602
85.2919
110.973
175.377
392.599
1366.63
60.5991
61.0345
61.9428
63.4068
65.5711
68.6768
73.1255
79.6098
89.3855
104.889
131.231
180.013
278.934
490.647
892.333
69.7877
70.4148
71.7216
73.8225
76.9158
81.3261
87.5806
96.5527
109.737
129.788
161.585
214.232
304.157
456.763
697.014
80.1979
32.6477
13.5779
3.71741
-2.25065
-6.20397
-8.96615
-10.9601
-12.4273
-13.5159
-14.3215
-14.9073
-15.3155
-15.5737
-15.6989
50.6778
31.0029
16.6368
7.29022
1.07616
-3.22063
-6.29311
-8.544
-10.2181
-11.4708
-12.4041
-13.0866
-13.5643
-13.8675
-14.0148
34.8204
25.6712
16.2098
8.68758
3.07151
-1.08745
-4.19056
-6.52841
-8.30147
-9.64728
-10.6608
-11.408
-11.9341
-12.2695
-12.4328
25.3162
20.556
14.4359
8.76116
4.05494
0.312494
-2.6194
-4.90498
-6.68145
-8.05441
-9.10242
-9.88277
-10.4363
-10.7909
-10.964
19.1174
16.385
12.3525
8.16208
4.36904
1.14956
-1.49703
-3.63505
-5.34159
-6.68713
-7.72979
-8.51496
-9.07647
-9.43822
-9.61541
14.816
13.1166
10.3788
7.28694
4.2848
1.58876
-0.727836
-2.66472
-4.25236
-5.5301
-6.53591
-7.30237
-7.85528
-8.21361
-8.38973
11.6946
10.5692
8.6507
6.34944
3.98794
1.76444
-0.222321
-1.93688
-3.37832
-4.56184
-5.50818
-6.23799
-6.76914
-7.11545
-7.28626
9.35469
8.57243
7.18835
5.45371
3.59522
1.7757
0.0941605
-1.39868
-2.68334
-3.75826
-4.63076
-5.31152
-5.81128
-6.13908
-6.30134
7.55787
6.9935
5.96938
4.64393
3.17539
1.69113
0.279598
-1.00504
-2.134
-3.0952
-3.88646
-4.51069
-4.97277
-5.27762
-5.42903
6.15291
5.73376
4.95961
3.93348
2.76644
1.55602
0.376911
-0.719492
-1.70112
-2.55013
-3.2581
-3.8224
-4.2434
-4.52266
-4.66182
5.03895
4.72049
4.12476
3.32083
2.38759
1.39916
0.416782
-0.513642
-1.36034
-2.10296
-2.72949
-3.2336
-3.6124
-3.86496
-3.99119
4.1461
3.89972
3.43447
2.79795
2.04704
1.2381
0.420565
-0.365929
-1.09182
-1.73638
-2.28588
-2.73177
-3.06903
-3.29495
-3.40817
3.4243
3.23089
2.86307
2.35448
1.74676
1.08298
0.402789
-0.260297
-0.87977
-1.43579
-1.9142
-2.30535
-2.60296
-2.80316
-2.90374
2.83678
2.68316
2.38939
1.97982
1.48539
0.93925
0.373132
-0.18495
-0.711777
-1.18908
-1.60309
-1.94387
-2.20452
-2.38051
-2.46913
2.35592
2.23271
1.99611
1.66406
1.25992
0.809384
0.337889