/*--------------------------------*- C++ -*----------------------------------*\
| =========                 |                                                 |
| \\      /  F ield         | OpenFOAM: The Open Source CFD Toolbox           |
|  \\    /   O peration     | Version:  5.x                                   |
|   \\  /    A nd           | Web:      www.OpenFOAM.org                      |
|    \\/     M anipulation  |                                                 |
\*---------------------------------------------------------------------------*/
FoamFile
{
    version     2.0;
    format      ascii;
    class       volScalarField;
    location    "7";
    object      T;
}
// * * * * * * * * * * * * * * * * * * * * * * * * * * * * * * * * * * * * * //

dimensions      [0 0 0 1 0 0 0];

internalField   nonuniform List<scalar> 
6300
(
10.4816
11.4478
12.4228
13.4121
14.4212
15.4547
16.517
17.6113
18.7397
19.9031
21.1008
22.3304
23.5876
24.8665
26.1593
10.4787
11.439
12.4083
13.3923
14.3965
15.4259
16.4849
17.5769
18.7044
19.8686
21.0687
22.3025
23.5657
24.852
26.1537
10.4727
11.4213
12.3791
13.3523
14.3466
15.3673
16.4194
17.5068
18.6324
19.7977
21.0026
22.2449
23.5202
24.822
26.1416
10.4636
11.3941
12.3345
13.291
14.27
15.2774
16.3186
17.3983
18.5204
19.6871
20.8988
22.1539
23.4479
24.7737
26.1215
10.4512
11.3572
12.2735
13.2072
14.1649
15.1534
16.179
17.2474
18.3636
19.5311
20.7514
22.0237
23.3435
24.7031
26.0908
10.4354
11.3098
12.1953
13.0992
14.029
14.9922
15.9963
17.0485
18.1552
19.3219
20.5519
21.8455
23.199
24.6038
26.046
10.4158
11.2514
12.0985
12.9651
13.8595
14.79
15.7654
16.7948
17.8868
19.0493
20.2885
21.6071
23.003
24.4668
25.9816
10.3924
11.1813
11.9822
12.8034
13.6537
14.5427
15.4805
16.4783
17.5475
18.6997
19.9453
21.2913
22.7387
24.2786
25.89
10.3651
11.0992
11.8454
12.6123
13.4092
14.2464
15.1356
16.0901
17.125
18.2565
19.5014
20.8738
22.3814
24.0186
25.7598
10.3337
11.0049
11.6879
12.3912
13.1243
13.898
14.7252
15.6215
16.6056
17.6999
18.9296
20.3208
21.8942
23.6543
25.5732
10.2984
10.8988
11.5101
12.1404
12.7986
13.4959
14.2455
15.0648
15.9759
17.0075
18.1961
19.5852
21.22
23.1308
25.2993
10.2596
10.7817
11.3133
11.8613
12.4339
13.0412
13.6962
14.4162
15.2256
16.1581
17.2618
18.6036
20.2695
22.3494
24.8773
10.2176
10.6552
11.1001
11.5577
12.0345
12.5387
13.0815
13.6783
14.3518
15.1371
16.0893
17.2976
18.9046
21.1196
24.1627
10.1733
10.5215
10.8741
11.2348
11.6075
11.9977
12.4127
12.8633
13.3663
13.9491
14.6605
15.5927
16.9313
19.0614
22.7256
10.1276
10.3831
10.6402
10.8997
11.163
11.4317
11.7082
11.996
12.3006
12.6322
13.0107
13.4812
14.1663
15.4687
18.9706
27.3493
28.4286
29.4999
30.5575
31.5961
32.6107
33.597
34.551
35.4695
36.3497
37.1894
37.9869
38.7407
39.4498
40.1135
40.7314
41.303
41.8284
42.3076
42.7409
43.1285
43.4711
43.7692
44.0235
44.2348
44.404
44.532
44.6198
44.6685
44.679
44.6524
44.5897
44.492
44.3604
44.1957
43.999
43.7711
43.5131
43.2257
42.91
42.5666
42.1965
41.8005
41.3793
40.9339
40.4648
39.973
39.4589
38.9233
38.3668
37.7899
37.1932
36.5771
35.9422
35.2889
34.6177
33.9292
33.2239
32.5024
31.7654
31.0134
30.2473
29.4675
28.675
27.8704
27.0546
26.2283
25.3924
24.5481
23.6963
22.8384
21.9757
21.1099
20.2426
19.3757
18.5112
17.6513
16.7982
15.9541
15.1214
14.3022
13.4987
12.7131
11.9473
11.2031
10.4821
9.78545
9.11434
8.46941
7.85104
27.3523
28.4398
29.5191
30.5843
31.63
32.651
33.6428
34.6016
35.524
36.4074
37.2497
38.0491
38.8043
39.5145
40.1789
40.7971
41.3689
41.8942
42.373
42.8058
43.1927
43.5344
43.8315
44.0846
44.2947
44.4625
44.5891
44.6755
44.7226
44.7316
44.7035
44.6394
44.5402
44.4071
44.2411
44.043
43.8139
43.5546
43.266
42.949
42.6044
42.2331
41.836
41.4137
40.9672
40.4971
40.0042
39.4893
38.9529
38.3956
37.8179
37.2205
36.6037
35.9681
35.314
34.6421
33.9528
33.2467
32.5243
31.7864
31.0335
30.2663
29.4855
28.692
27.8863
27.0692
26.2416
25.4043
24.5584
23.7048
22.8449
21.98
21.1116
20.2416
19.3719
18.5044
17.6413
16.785
15.9376
15.1016
14.2793
13.4728
12.6844
11.9161
11.1696
10.4467
9.7486
9.07649
8.43105
7.81266
27.3581
28.4623
29.558
30.6389
31.6989
32.7328
33.7357
34.7039
35.6341
36.5237
37.3709
38.1741
38.9322
39.6444
40.3101
40.929
41.501
42.026
42.5041
42.9358
43.3213
43.6612
43.9562
44.207
44.4145
44.5796
44.7034
44.7868
44.8309
44.8369
44.8057
44.7386
44.6366
44.5006
44.3318
44.131
43.8993
43.6374
43.3464
43.0269
42.68
42.3063
41.9068
41.4823
41.0336
40.5615
40.0667
39.5499
39.0118
38.4529
37.8738
37.275
36.6569
36.0199
35.3644
34.691
34.0001
33.2923
32.5682
31.8283
31.0735
30.3044
29.5216
28.7259
27.918
27.0986
26.2684
25.4284
24.5793
23.7221
22.8582
21.9888
21.1155
20.2401
19.3645
18.4908
17.6213
16.7584
15.9045
15.062
14.2333
13.4208
12.6267
11.8531
11.1021
10.3753
9.67424
9.00008
8.3536
7.7352
27.3662
28.4965
29.6178
30.7229
31.8051
32.8584
33.8781
34.8603
35.8019
36.7006
37.5549
38.3634
39.1255
39.8404
40.5079
41.1278
41.7
42.2245
42.7015
43.1314
43.5147
43.8519
44.1437
44.3909
44.5946
44.7555
44.8749
44.9538
44.9934
44.9947
44.959
44.8874
44.7809
44.6407
44.4677
44.2629
44.0273
43.7617
43.4669
43.1438
42.7932
42.416
42.013
41.5851
41.1331
40.6578
40.1601
39.6406
39.1
38.5388
37.9576
37.3567
36.7366
36.0976
35.4401
34.7645
34.0713
33.3609
32.6341
31.8915
31.1337
30.3616
29.5758
28.7769
27.9658
27.143
26.3092
25.465
24.6113
23.7489
22.879
22.0029
21.1221
20.2385
19.354
18.4709
17.5917
16.7188
15.8548
15.0022
14.1638
13.3419
12.5391
11.7575
10.9994
10.2667
9.56102
8.88367
8.23559
7.6172
27.3756
28.5431
29.7006
30.8395
31.9521
33.032
34.074
35.0745
36.0307
36.9409
37.8039
38.619
39.3858
40.1041
40.7737
41.3946
41.9668
42.4905
42.966
43.3935
43.7737
44.1071
44.3946
44.6369
44.8352
44.9906
45.104
45.1768
45.2101
45.2052
45.1633
45.0855
44.9731
44.8271
44.6486
44.4385
44.1977
43.9271
43.6274
43.2995
42.9441
42.5622
42.1545
41.7219
41.2654
40.7859
40.2842
39.761
39.2171
38.6529
38.069
37.4655
36.843
36.2015
35.5413
34.8628
34.1665
33.4528
32.7223
31.9759
31.2142
30.438
29.6482
28.8453
28.03
27.2029
26.3644
25.515
24.6554
23.7862
22.9085
22.0234
21.1325
20.2377
19.3412
18.4453
17.5526
16.666
15.7882
14.922
14.0702
13.2355
12.4206
11.628
10.8601
10.119
9.40682
8.72501
8.07469
7.45639
27.3855
28.6034
29.8097
30.9935
32.1458
33.2594
34.3292
35.3518
36.3253
37.2486
38.1213
38.9436
39.7155
40.4372
41.1089
41.7307
42.3028
42.8254
43.2987
43.7231
44.0992
44.4278
44.7096
44.9456
45.1371
45.2851
45.3909
45.4558
45.4811
45.4682
45.4183
45.3328
45.2129
45.0597
44.8743
44.6576
44.4105
44.1337
43.8279
43.494
43.1327
42.7447
42.331
41.8925
41.4303
40.9453
40.4385
39.9108
39.3627
38.7949
38.2078
37.6014
36.976
36.3316
35.6684
34.9864
34.2862
33.5682
32.8331
32.0817
31.315
30.5338
29.7389
28.9311
28.1109
27.2787
26.4348
25.5794
24.7128
23.8355
22.9481
22.0519
21.1483
20.2393
19.3272
18.4147
17.5047
16.6003
15.7046
14.8208
13.9517
13.1005
12.2699
11.4628
10.6819
9.92972
9.20871
8.52085
7.86755
7.24949
27.3946
28.6801
29.9507
31.1925
32.3946
33.5493
34.6517
35.6993
36.6915
37.6283
38.5108
39.34
40.1166
40.8415
41.5152
42.1377
42.7095
43.2305
43.701
44.1215
44.4925
44.8149
45.0897
45.3179
45.5007
45.6396
45.7359
45.791
45.8064
45.7836
45.7239
45.6289
45.4998
45.3379
45.1443
44.9197
44.6652
44.3812
44.0684
43.7274
43.3588
42.9635
42.5425
42.0967
41.6273
41.1355
40.6225
40.0891
39.5362
38.9643
38.3736
37.7641
37.1358
36.4884
35.8217
35.1359
34.431
33.7077
32.9668
32.2092
31.4361
30.6487
29.8479
29.0344
28.2087
27.3711
26.5214
25.6596
24.7854
23.8988
23.0003
22.0907
21.1716
20.2449
19.3134
18.3801
17.4484
16.5218
15.6039
14.698
13.8075
12.9355
12.0852
11.2597
10.4621
9.69539
8.96275
8.26681
7.60956
6.99195
27.402
28.7778
30.1326
31.4481
32.7113
33.914
35.0525
36.1262
37.1365
38.0858
38.9766
39.8112
40.5917
41.3191
41.9942
42.6173
43.1884
43.7075
44.1747
44.5903
44.9552
45.27
45.536
45.7545
45.9269
46.0547
46.1395
46.1827
46.1861
46.1512
46.0797
45.9733
45.8333
45.6612
45.4579
45.2245
44.9615
44.6694
44.3487
43.9996
43.6228
43.2189
42.7889
42.3341
41.8559
41.3557
40.835
40.295
39.7365
39.1601
38.5658
37.9535
37.3226
36.6724
36.0023
35.3121
34.6018
33.8721
33.1239
32.3585
31.5776
30.7825
29.9746
29.1547
28.3233
27.4803
26.6252
25.7572
24.8754
23.979
23.068
22.143
21.2053
20.2573
19.302
18.3431
17.3846
16.4307
15.4855
14.5528
13.6362
12.7391
11.8647
11.0163
10.1974
9.41193
8.66381
7.95694
7.29436
6.67757
27.4073
28.9052
30.3706
31.7787
33.1144
34.3705
35.546
36.6438
37.6689
38.6267
39.5224
40.3599
41.1423
41.8712
42.5474
43.171
43.7414
44.2584
44.7217
45.1317
45.4889
45.7946
46.05
46.2568
46.4166
46.5311
46.6019
46.631
46.6199
46.5707
46.4852
46.3652
46.2124
46.0284
45.8143
45.571
45.2989
44.9983
44.6691
44.3112
43.925
43.5111
43.0704
42.6047
42.1155
41.6049
41.0748
40.5267
39.9619
39.3809
38.7835
38.1691
37.5365
36.8843
36.2113
35.5166
34.8002
34.0626
33.3052
32.5299
31.7389
30.9343
30.118
29.2912
28.4542
27.6066
26.7473
25.8744
24.9859
24.08
23.1557
22.2131
21.2536
20.2798
19.2955
18.3051
17.3139
16.3269
15.3489
14.3842
13.4368
12.5099
11.6066
10.7303
9.88465
9.07446
8.30533
7.58319
6.91311
6.2977
27.4119
29.0789
30.6904
32.2132
33.6315
34.9424
36.1508
37.2656
38.2974
39.2565
40.1511
40.9873
41.7691
42.4985
43.1758
43.8003
44.3707
44.8857
45.3448
45.748
46.0962
46.3907
46.6332
46.8259
46.9706
47.0693
47.1238
47.1361
47.108
47.0417
46.9394
46.8034
46.6357
46.4381
46.212
45.9581
45.6767
45.3676
45.0298
44.6629
44.2664
43.8409
43.3875
42.9081
42.4052
41.8814
41.3396
40.782
40.2102
39.6246
39.0251
38.4102
37.778
37.1258
36.451
35.752
35.0284
34.2811
33.5118
32.7234
31.9192
31.1026
30.2762
29.4419
28.5999
27.7494
26.8884
26.0136
25.121
24.2071
23.2693
22.3073
21.3222
20.3173
19.2972
18.2682
17.2369
16.2098
15.1928
14.1907
13.2075
12.2463
11.3096
10.3999
9.52065
8.67772
7.87906
7.13436
6.45305
5.84
27.4225
29.3321
31.1375
32.7974
34.3028
35.6614
36.8896
38.0061
39.0301
39.9784
40.8631
41.6924
42.4707
43.1999
43.8793
44.5068
45.0787
45.5928
46.0475
46.4428
46.7799
47.0606
47.2875
47.4631
47.59
47.6703
47.7058
47.6984
47.6502
47.5636
47.4413
47.2863
47.1012
46.8882
46.6488
46.3841
46.0938
45.7772
45.432
45.0562
44.6489
44.2101
43.7413
43.2448
42.7242
42.1833
41.6265
41.0572
40.4774
39.8878
39.288
38.6758
38.0478
37.3991
36.7248
36.0222
35.2904
34.5306
33.7453
32.9391
32.1168
31.2843
30.4456
29.6031
28.7573
27.907
27.0489
26.178
25.2867
24.3679
23.4177
22.4342
21.4192
20.3761
19.3117
18.2342
17.1535
16.078
15.0151
13.9697
12.9463
11.9471
10.9737
10.0255
9.10418
8.2171
7.37497
6.59412
5.8946
5.28603
27.4624
29.7346
31.7936
33.6037
35.1847
36.5675
37.7888
38.8791
39.871
40.7912
41.6542
42.4703
43.2422
43.9724
44.657
45.2923
45.8694
46.3847
46.8348
47.2207
47.5438
47.8074
48.0148
48.1698
48.2758
48.335
48.3487
48.3188
48.2469
48.1362
47.9897
47.812
47.6061
47.3755
47.1215
46.8459
46.5482
46.2271
45.8776
45.4943
45.076
44.6218
44.1344
43.6157
43.0717
42.5072
41.931
41.3468
40.7583
40.1653
39.5682
38.9634
38.347
37.7088
37.0389
36.3341
35.5921
34.8163
34.0086
33.1774
32.3288
31.4747
30.6198
29.7688
28.9207
28.0755
27.2277
26.3713
25.4915
24.5739
23.6136
22.6064
21.5562
20.4652
19.3449
18.2044
17.0624
15.9279
14.8118
13.7169
12.65
11.6108
10.6013
9.61225
8.63828
7.69165
6.78255
5.93666
5.20511
4.60666
27.6141
30.4437
32.8076
34.7395
36.3512
37.7058
38.8757
39.8931
40.8142
41.6859
42.512
43.3108
44.073
44.8098
45.5048
46.1607
46.7483
47.2696
47.7137
48.0883
48.3925
48.6342
48.8165
48.9461
49.0283
49.064
49.0535
48.9986
48.8988
48.7596
48.5819
48.3773
48.1458
47.8957
47.6244
47.339
47.0353
46.7173
46.3711
45.982
45.5541
45.0806
44.5718
44.0222
43.448
42.8474
42.2465
41.6416
41.0452
40.4479
39.8588
39.267
38.677
38.0637
37.4024
36.699
35.942
35.1472
34.3054
33.4402
32.5481
31.666
30.7876
29.9301
29.0794
28.2473
27.4184
26.5978
25.7504
24.841
23.8765
22.8401
21.7515
20.5966
19.4066
18.1765
16.9604
15.7511
14.5778
13.4235
12.3134
11.2317
10.1994
9.17709
8.13288
7.112
6.09901
5.11447
4.32388
3.75314
28.2088
31.8227
34.4433
36.3356
37.8874
39.1093
40.1817
41.0451
41.8281
42.6453
43.4081
44.2035
44.9397
45.7066
46.408
47.1265
47.7221
48.2649
48.6916
49.0566
49.3301
49.5458
49.6931
49.7898
49.847
49.8589
49.8215
49.7422
49.6065
49.4377
49.2121
48.9804
48.7115
48.4456
48.1467
47.8576
47.5421
47.2475
46.9255
46.5247
46.0973
45.5893
45.0675
44.4633
43.8616
43.1873
42.5672
41.9235
41.3327
40.7183
40.1525
39.5677
39.0397
38.4872
37.8262
37.1403
36.346
35.5451
34.6354
33.7411
32.7526
31.8513
30.9251
30.0812
29.2107
28.4143
27.5967
26.8624
26.0982
25.187
24.2429
23.1486
22.0421
20.778
19.5261
18.128
16.8483
15.5224
14.3162
13.0664
11.936
10.7811
9.78288
8.77334
7.59379
6.52087
5.37444
4.0129
3.12599
2.64018
30.7772
34.6315
37.127
38.4215
39.898
40.7272
41.7881
42.3122
42.7918
43.6825
44.2566
45.1807
45.7613
46.6968
47.2858
48.2683
48.7708
49.4265
49.7573
50.1558
50.3501
50.5549
50.6418
50.6895
50.7301
50.7237
50.6487
50.5665
50.3607
50.1967
49.8501
49.6365
49.2719
49.0423
48.6542
48.4132
48.0181
47.8164
47.5928
47.1047
46.756
46.1172
45.6809
44.9003
44.379
43.4486
42.9211
42.1286
41.6538
40.9178
40.4731
39.786
39.4371
39.0664
38.2851
37.7375
36.7587
36.0995
34.9425
34.1774
32.8312
32.0719
30.9436
30.2702
29.2348
28.6115
27.6545
27.1698
26.6573
25.5801
24.825
23.4744
22.5592
20.9415
19.8557
17.9088
16.8026
15.1209
14.1171
12.5372
11.5935
10.1049
9.38248
8.61429
6.90104
6.0355
4.95956
2.22778
1.35048
1.11582
7.20006
6.52765
5.89178
5.29065
4.72203
4.18331
3.6717
3.18422
2.71788
2.26968
1.83667
1.41594
1.00469
0.600144
0.199604
7.16221
6.49102
5.85694
5.25807
4.69204
4.15616
3.6475
3.16303
2.6997
2.25447
1.82435
1.40645
0.997962
0.596131
0.19827
7.08583
6.41719
5.78681
5.19257
4.63185
4.10172
3.59905
3.12067
2.66339
2.2241
1.79978
1.38754
0.984563
0.588137
0.195614
6.9696
6.305
5.68046
5.09346
4.54099
4.01974
3.52628
3.05716
2.60904
2.17872
1.76312
1.35934
0.964598
0.576233
0.191658
6.8114
6.15264
5.53647
4.95975
4.41886
3.90993
3.4291
2.9726
2.53687
2.11857
1.71461
1.32208
0.938245
0.560529
0.186442
6.60821
5.95763
5.35295
4.79014
4.26469
3.77197
3.30753
2.86722
2.44722
2.04407
1.65465
1.27609
0.905762
0.541187
0.18002
6.35593
5.71661
5.12748
4.58311
4.07771
3.60567
3.1618
2.74149
2.34067
1.95582
1.5838
1.22187
0.867509
0.51843
0.172467
6.04904
5.42533
4.85717
4.33703
3.85733
3.41114
2.99247
2.59621
2.21814
1.85469
1.50286
1.16004
0.823963
0.49255
0.163881
5.68012
5.0784
4.53879
4.05045
3.60337
3.18906
2.80066
2.43272
2.08095
1.74192
1.41287
1.09147
0.775739
0.463918
0.154388
5.23911
4.66931
4.16905
3.72254
3.31659
2.94104
2.58835
2.25302
1.93098
1.61916
1.3152
1.01721
0.723595
0.432988
0.144137
4.71232
4.19058
3.7455
3.35402
2.99936
2.6701
2.35866
2.06001
1.77075
1.48851
1.21155
0.938549
0.668437
0.400296
0.133306
4.08135
3.63514
3.26831
2.94864
2.65668
2.38129
2.11613
1.85757
1.60348
1.35255
1.10392
0.85699
0.611297
0.366449
0.122095
3.32347
3.00025
2.74391
2.51548
2.29741
2.08223
1.86698
1.65064
1.43303
1.21427
0.994574
0.774184
0.553303
0.332101
0.11072
2.42002
2.29844
2.19157
2.07194
1.9352
1.7832
1.61887
1.44496
1.26371
1.07689
0.885911
0.691859
0.495622
0.297929
0.0994001
1.39795
1.58189
1.65197
1.64545
1.58825
1.49647
1.38034
1.2466
1.09994
0.943676
0.780302
0.611707
0.439392
0.264586
0.0883508
10.0852
10.255
10.4233
10.589
10.7504
10.9057
11.052
11.1853
11.299
11.3821
11.4138
11.3486
11.0659
10.159
6.93174
10.047
10.1396
10.2281
10.3094
10.3796
10.4336
10.4645
10.4619
10.4096
10.2813
10.0292
9.56102
8.6805
6.94334
3.37347
10.0097
10.027
10.0379
10.0375
10.02
9.97766
9.90021
9.77276
9.57308
9.26621
8.79458
8.05967
6.88996
5.00031
2.02146
9.97382
9.91876
9.8554
9.77748
9.67752
9.54606
9.37058
9.13378
8.81092
8.36551
7.74273
6.86021
5.5993
3.81363
1.40836
9.93983
9.81632
9.68305
9.53276
9.3569
9.14498
8.88349
8.55453
8.1338
7.58792
6.87123
5.92346
4.673
3.05721
1.08097
9.90805
9.72065
9.52251
9.30576
9.06131
8.7783
8.44322
8.03896
7.54355
6.92892
6.16014
5.1969
4.00036
2.55108
0.882536
9.8787
9.63242
9.37489
9.09797
8.79248
8.44774
8.05096
7.58665
7.03607
6.37691
5.58406
4.63233
3.50319
2.19721
0.751127
9.85191
9.55199
9.24072
8.91
8.55089
8.1533
7.70556
7.19424
6.60395
5.91771
5.11827
4.19093
3.12881
1.94061
0.65872
9.8277
9.47944
9.12006
8.74173
8.33602
7.89364
7.40431
6.85665
6.23842
5.5371
4.74128
3.84311
2.84197
1.74907
0.590994
9.80604
9.4146
9.01253
8.59246
8.14659
7.66658
7.14354
6.56806
5.93058
5.2221
4.43536
3.56677
2.61885
1.60279
0.53987
9.78681
9.35714
8.91751
8.4611
7.98085
7.4694
6.91916
6.32249
5.67203
4.96142
4.18626
3.3455
2.44303
1.48903
0.500427
9.76988
9.30659
8.83413
8.34629
7.83676
7.29913
6.72703
6.11426
5.45524
4.74556
3.9827
3.16708
2.30299
1.3993
0.469486
9.75506
9.2624
8.76142
8.24653
7.71217
7.15281
6.56311
5.93812
5.27363
4.5666
3.81577
3.02232
2.19044
1.32772
0.444902
9.74216
9.224
8.69836
8.16029
7.60493
7.02754
6.42368
5.78942
5.12155
4.41805
3.67843
2.90422
2.09931
1.27008
0.425168
9.731
9.19078
8.64392
8.08606
7.51298
6.92064
6.30537
5.66403
4.99421
4.29457
3.5651
2.80744
2.02507
1.22333
0.409198
9.72137
9.16217
8.59711
8.0224
7.43439
6.82965
6.20517
5.55841
4.88757
4.19179
3.47134
2.72782
1.96428
1.18518
0.39619
9.71311
9.13761
8.55701
7.96798
7.3674
6.75238
6.12042
5.4695
4.79826
4.10615
3.39359
2.66209
1.91428
1.15389
0.385538
9.70603
9.11661
8.52274
7.92158
7.31043
6.68688
6.04883
5.39469
4.72342
4.03469
3.32899
2.60768
1.87303
1.12813
0.376777
9.69999
9.09869
8.49355
7.8821
7.26208
6.63142
5.98842
5.33178
4.66071
3.97503
3.27523
2.56254
1.83888
1.10684
0.369545
9.69485
9.08344
8.46872
7.84859
7.2211
6.58454
5.93748
5.27888
4.60813
3.92515
3.23042
2.52501
1.81055
1.08921
0.363559
9.69048
9.07048
8.44765
7.82018
7.18643
6.54495
5.89456
5.23441
4.56405
3.88344
3.19303
2.49375
1.787
1.07457
0.358591
9.68677
9.05949
8.42979
7.79613
7.15712
6.51154
5.85841
5.19704
4.52707
3.84853
3.1618
2.46769
1.76739
1.06239
0.354461
9.68363
9.05019
8.41468
7.77581
7.13237
6.48337
5.82798
5.16563
4.49606
3.81929
3.13569
2.44594
1.75103
1.05224
0.351021
9.68097
9.04232
8.40191
7.75864
7.1115
6.45963
5.80237
5.13924
4.47004
3.7948
3.11384
2.42776
1.73738
1.04377
0.348152
9.67873
9.03568
8.39113
7.74415
7.0939
6.43964
5.78083
5.11708
4.44821
3.77428
3.09556
2.41256
1.72598
1.0367
0.345757
9.67683
9.03007
8.38204
7.73194
7.07907
6.42282
5.76272
5.09846
4.42989
3.75708
3.08025
2.39984
1.71644
1.0308
0.343756
9.67523
9.02534
8.37437
7.72166
7.06659
6.40867
5.7475
5.08283
4.41453
3.74266
3.06743
2.3892
1.70846
1.02586
0.342084
9.67389
9.02136
8.36792
7.713
7.0561
6.39678
5.73472
5.0697
4.40164
3.73058
3.05669
2.38029
1.70179
1.02173
0.340685
9.67276
9.01801
8.36249
7.70573
7.04728
6.38679
5.72399
5.0587
4.39084
3.72045
3.0477
2.37283
1.69621
1.01827
0.339515
9.67181
9.0152
8.35794
7.69962
7.03988
6.37841
5.715
5.04947
4.38179
3.71198
3.04017
2.36659
1.69154
1.01538
0.338537
9.67101
9.01284
8.35411
7.69449
7.03367
6.37139
5.70746
5.04175
4.37421
3.70489
3.03388
2.36138
1.68764
1.01297
0.33772
9.67034
9.01086
8.35091
7.6902
7.02848
6.36551
5.70115
5.03529
4.36788
3.69896
3.02862
2.35702
1.68438
1.01095
0.337038
9.66978
9.00921
8.34824
7.68662
7.02414
6.36061
5.69589
5.0299
4.3626
3.69402
3.02424
2.3534
1.68167
1.00927
0.33647
9.66932
9.00783
8.34601
7.68364
7.02053
6.35653
5.69152
5.02542
4.35821
3.68992
3.0206
2.35038
1.67941
1.00788
0.335999
9.66893
9.00669
8.34416
7.68117
7.01754
6.35315
5.68789
5.02171
4.35458
3.68652
3.01759
2.34789
1.67755
1.00673
0.335609
9.66861
9.00575
8.34265
7.67913
7.01508
6.35036
5.68491
5.01866
4.35159
3.68373
3.01511
2.34584
1.67601
1.00578
0.335288
9.66835
9.00499
8.34141
7.67748
7.01307
6.3481
5.68248
5.01617
4.34916
3.68145
3.0131
2.34417
1.67477
1.00501
0.335027
9.66815
9.00438
8.34041
7.67615
7.01146
6.34628
5.68053
5.01418
4.34721
3.67963
3.01148
2.34283
1.67377
1.00439
0.334818
9.66798
9.00389
8.33964
7.6751
7.0102
6.34485
5.679
5.01262
4.34568
3.6782
3.01021
2.34178
1.67298
1.0039
0.334654
9.66786
9.00353
8.33905
7.67431
7.00925
6.34378
5.67785
5.01143
4.34452
3.67712
3.00926
2.34099
1.67239
1.00354
0.33453
9.66777
9.00327
8.33863
7.67376
7.00857
6.34301
5.67703
5.0106
4.3437
3.67635
3.00858
2.34043
1.67197
1.00328
0.334442
9.66772
9.00312
8.33837
7.67341
7.00816
6.34255
5.67653
5.01009
4.3432
3.67588
3.00816
2.34009
1.67171
1.00312
0.334388
9.6677
9.00305
8.33827
7.67328
7.00799
6.34236
5.67633
5.00988
4.343
3.6757
3.008
2.33995
1.67161
1.00306
0.334367
9.66771
9.00308
8.33832
7.67334
7.00807
6.34244
5.67642
5.00997
4.34309
3.67578
3.00807
2.34001
1.67166
1.00308
0.334377
9.66775
9.0032
8.33852
7.6736
7.00839
6.3428
5.67681
5.01037
4.34348
3.67614
3.00839
2.34028
1.67185
1.00321
0.334418
9.66782
9.00342
8.33887
7.67408
7.00896
6.34345
5.6775
5.01108
4.34417
3.67679
3.00897
2.34075
1.67221
1.00343
0.334492
9.66793
9.00374
8.33939
7.67478
7.00981
6.34441
5.67853
5.01213
4.3452
3.67775
3.00982
2.34145
1.67273
1.00375
0.334602
9.66808
9.00418
8.3401
7.67572
7.01095
6.3457
5.67991
5.01354
4.34658
3.67904
3.01096
2.3424
1.67344
1.00419
0.33475
9.66827
9.00474
8.34101
7.67694
7.01242
6.34736
5.68169
5.01537
4.34837
3.68071
3.01244
2.34362
1.67436
1.00475
0.334942
9.66851
9.00545
8.34215
7.67847
7.01427
6.34945
5.68393
5.01766
4.35061
3.68281
3.0143
2.34516
1.67551
1.00546
0.335182
9.6688
9.00632
8.34356
7.68035
7.01655
6.35203
5.6867
5.02048
4.35338
3.68539
3.01659
2.34706
1.67693
1.00634
0.335479
9.66916
9.00738
8.34528
7.68265
7.01934
6.35518
5.69006
5.02393
4.35675
3.68855
3.01939
2.34937
1.67866
1.00741
0.335841
9.6696
9.00866
8.34735
7.68544
7.0227
6.35898
5.69414
5.02811
4.36084
3.69237
3.02278
2.35218
1.68075
1.00871
0.336279
9.67012
9.01021
8.34985
7.68878
7.02675
6.36356
5.69905
5.03313
4.36577
3.69698
3.02686
2.35556
1.68328
1.01027
0.336808
9.67074
9.01206
8.35285
7.6928
7.03161
6.36906
5.70495
5.03917
4.37168
3.7025
3.03176
2.35962
1.68632
1.01215
0.337443
9.67149
9.01427
8.35643
7.6976
7.03743
6.37563
5.712
5.04639
4.37875
3.70912
3.03763
2.36448
1.68995
1.0144
0.338205
9.67239
9.01691
8.36071
7.70333
7.04436
6.38348
5.72042
5.05501
4.38721
3.71704
3.04465
2.3703
1.69431
1.01709
0.339116
9.67345
9.02006
8.3658
7.71016
7.05263
6.39284
5.73046
5.06531
4.39731
3.72649
3.05304
2.37725
1.69951
1.02031
0.340206
9.67471
9.0238
8.37187
7.71828
7.06248
6.40399
5.74244
5.07759
4.40935
3.73778
3.06306
2.38556
1.70573
1.02416
0.341508
9.67622
9.02825
8.37908
7.72795
7.0742
6.41726
5.7567
5.09222
4.42371
3.75124
3.07502
2.39547
1.71315
1.02875
0.343064
9.678
9.03353
8.38764
7.73944
7.08814
6.43305
5.77367
5.10965
4.44083
3.76729
3.08929
2.40731
1.72202
1.03425
0.344923
9.68012
9.0398
8.39781
7.75308
7.10469
6.45183
5.79387
5.1304
4.46124
3.78644
3.10632
2.42145
1.73262
1.04081
0.347146
9.68263
9.04724
8.40986
7.76927
7.12435
6.47414
5.8179
5.15511
4.48555
3.80927
3.12665
2.43835
1.74529
1.04866
0.349804
9.68561
9.05604
8.42415
7.78847
7.14768
6.50065
5.84647
5.18452
4.51452
3.83652
3.15093
2.45854
1.76044
1.05805
0.352986
9.68913
9.06646
8.44107
7.81122
7.17535
6.53211
5.88042
5.21952
4.54905
3.86903
3.17994
2.48268
1.77858
1.0693
0.356798
9.69329
9.07878
8.46107
7.83814
7.20814
6.56944
5.92077
5.26118
4.5902
3.90783
3.21461
2.51158
1.8003
1.08278
0.36137
9.69819
9.09332
8.48471
7.86998
7.24695
6.61371
5.96868
5.31074
4.63925
3.95418
3.25608
2.5462
1.82637
1.09897
0.36686
9.70397
9.11046
8.51258
7.90757
7.29286
6.66615
6.02557
5.3697
4.69774
4.00955
3.30575
2.58773
1.85767
1.11844
0.373467
9.71077
9.13062
8.54541
7.9519
7.34708
6.72823
6.09306
5.43984
4.7675
4.07577
3.36528
2.63762
1.89535
1.1419
0.381432
9.71875
9.15429
8.58399
8.00409
7.41104
6.80163
6.17309
5.52325
4.85071
4.155
3.43672
2.69765
1.94078
1.17023
0.391059
9.72809
9.18202
8.62925
8.06541
7.48637
6.88831
6.2679
5.62242
4.95001
4.24991
3.5226
2.77004
1.99571
1.20455
0.402732
9.73899
9.21441
8.68217
8.13727
7.57489
6.99052
6.38011
5.74027
5.06855
4.3637
3.62601
2.85755
2.06232
1.24626
0.416937
9.75167
9.25212
8.74389
8.22126
7.67868
7.1108
6.51274
5.88025
5.21007
4.50029
3.75078
2.96363
2.1434
1.29717
0.434303
9.76637
9.29585
8.8156
8.31912
7.80001
7.25204
6.66927
6.04641
5.37909
4.66445
3.90169
3.09269
2.24252
1.35964
0.45565
9.78332
9.34635
8.89856
8.43268
7.94139
7.41742
6.85365
6.24341
5.58095
4.86202
4.0847
3.25032
2.36434
1.43677
0.482073
9.80277
9.40436
8.99408
8.56386
8.10546
7.61043
7.07027
6.47667
5.82202
5.10012
4.30731
3.44379
2.51502
1.53274
0.515055
9.82495
9.4706
9.10343
8.71462
8.29494
7.83476
7.32398
6.75232
6.10977
5.38744
4.57901
3.68256
2.70285
1.65329
0.556662
9.85008
9.54575
9.22782
8.88678
8.51255
8.09421
7.61995
7.07718
6.45289
5.73454
4.91182
3.97914
2.93918
1.80653
0.609859
9.87833
9.63034
9.36823
9.08199
8.76077
8.39246
7.96348
7.45864
6.86129
6.15411
5.32096
4.35019
3.23986
2.00422
0.679058
9.9098
9.72472
9.52537
9.30149
9.04166
8.73281
8.35967
7.90431
7.34592
6.66113
5.82565
4.81815
3.62754
2.26406
0.77114
9.94453
9.82901
9.69954
9.54593
9.35658
9.11778
8.81292
8.42151
7.9183
7.27276
6.44978
5.41323
4.13524
2.61378
0.897495
9.98242
9.94298
9.89047
9.81517
9.7058
9.5486
9.32624
9.0163
8.58948
8.00759
7.22217
6.17595
4.81199
3.09877
1.0785
10.0233
10.066
10.0972
10.108
10.0882
10.0246
9.90033
9.69221
9.3683
8.8837
8.17561
7.15928
5.73124
3.79698
1.35445
10.0667
10.1971
10.318
10.4222
10.5009
10.5428
10.5326
10.4485
10.2587
9.91495
9.34306
8.42847
7.00197
4.84812
1.81536
10.1123
10.3347
10.5504
10.754
10.9392
11.0972
11.2161
11.2781
11.2558
11.1046
10.7484
10.0531
8.77775
6.50958
2.69149
10.1594
10.4771
10.7911
11.0987
11.3962
11.6786
11.939
12.1662
12.3425
12.4364
12.3892
12.0804
11.2429
9.24729
4.65432
10.2073
10.6219
11.0363
11.4503
11.8635
12.2754
12.6848
13.0897
13.4862
13.8662
14.2114
14.4748
14.5122
13.7886
9.89186
10.2553
10.7669
11.2818
11.8024
12.3318
12.8738
13.4337
14.0189
14.6413
15.32
16.0905
17.0259
18.3099
20.5334
26.1619
10.3025
10.9095
11.5232
12.1484
12.7913
13.4598
14.1648
14.9223
15.757
16.71
17.8548
19.3346
21.4551
24.9133
31.268
10.3482
11.0476
11.7565
12.482
13.2329
14.0203
14.8594
15.7719
16.7905
17.9667
19.3863
21.1984
23.6709
27.2815
32.8062
0.574566
1.02939
1.22752
1.30095
1.30187
1.25594
1.17779
1.07661
0.958587
0.828069
0.688269
0.541638
0.390123
0.235329
0.0786485
0.308183
0.705373
0.928242
1.03811
1.07405
1.05963
1.00963
0.933771
0.838754
0.729409
0.609338
0.481326
0.347606
0.21004
0.0702553
0.194003
0.502405
0.707427
0.8266
0.881179
0.88803
0.859429
0.804219
0.728861
0.638189
0.535916
0.424973
0.307756
0.18629
0.0623653
0.135102
0.371222
0.546222
0.659939
0.721446
0.741038
0.727695
0.68865
0.629596
0.555021
0.468508
0.372972
0.270852
0.164247
0.055034
0.0998707
0.282478
0.427571
0.529529
0.590812
0.61691
0.613803
0.586969
0.541102
0.480137
0.40736
0.325541
0.237061
0.144012
0.0482963
0.0765366
0.219784
0.338869
0.427359
0.484607
0.513055
0.516383
0.498499
0.463088
0.413451
0.352486
0.282733
0.206439
0.125628
0.0421669
0.0600248
0.173868
0.271409
0.346882
0.398398
0.426641
0.433687
0.422195
0.394949
0.354628
0.303712
0.244465
0.178952
0.109082
0.0366434
0.0478225
0.139271
0.219271
0.283038
0.328345
0.354943
0.363859
0.356826
0.335886
0.303159
0.260721
0.210544
0.15449
0.0943183
0.0317085
0.0385335
0.112624
0.178403
0.232012
0.271282
0.295519
0.305105
0.301111
0.285004
0.258431
0.2231
0.180702
0.132886
0.0812469
0.0273338
0.0313112
0.091747
0.145986
0.190939
0.224656
0.246268
0.255776
0.253806
0.241387
0.219784
0.190384
0.154622
0.113936
0.0697536
0.0234827
0.025607
0.075172
0.120017
0.157667
0.186433
0.205419
0.214417
0.213755
0.204144
0.186548
0.162085
0.131958
0.0974128
0.0597101
0.0201137
0.0210478
0.0618742
0.0990421
0.130564
0.155001
0.171504
0.179763
0.179916
0.172444
0.158079
0.137717
0.112362
0.0830814
0.0509808
0.0171825
0.0173696
0.0511164
0.0819874
0.108378
0.129077
0.143313
0.150737
0.151369
0.145531
0.133773
0.116815
0.0954894
0.0707078
0.0434301
0.0146447
0.0143804
0.0423553
0.0680435
0.0901431
0.10764
0.119851
0.126425
0.127313
0.122726
0.113078
0.0989443
0.0810162
0.060067
0.0369259
0.0124568
0.0119368
0.0351815
0.056591
0.0751037
0.0898723
0.100302
0.10606
0.10706
0.103434
0.0954965
0.0837079
0.0686401
0.0509477
0.0313434
0.0105776
0.00992977
0.0292819
0.0471496
0.0626637
0.0751168
0.0839967
0.0889982
0.0900176
0.0871349
0.0805885
0.0707477
0.0580859
0.0431557
0.0265671
0.00896869
0.00827501
0.0244128
0.0393422
0.0523488
0.062842
0.0703837
0.0747007
0.0756842
0.0733793
0.0679673
0.0597458
0.0491064
0.0365149
0.0224917
0.0075951
0.00690646
0.0203825
0.0328697
0.0437786
0.0526162
0.0590094
0.0627173
0.0636336
0.0617805
0.0572966
0.0504223
0.041482
0.0308678
0.0190228
0.00642528
0.00577179
0.0170388
0.0274928
0.0366463
0.0440874
0.0494993
0.0526719
0.0535056
0.0520079
0.0482854
0.0425329
0.0350196
0.0260752
0.0160761
0.00543117
0.00482913
0.0142594
0.0230188
0.0307029
0.0369672
0.0415436
0.0442503
0.0449961
0.0437796
0.0406835
0.0358659
0.0295506
0.0220148
0.0135777
0.00458797
0.00404478
0.0119457
0.0192912
0.025745
0.0310189
0.0348859
0.0371898
0.0378489
0.0368563
0.0342765
0.0302387
0.0249288
0.0185802
0.011463
0.003874
0.00339138
0.0100176
0.0161827
0.0216063
0.0260471
0.0293134
0.0312711
0.0318482
0.0310349
0.0288816
0.0254944
0.0210282
0.0156791
0.00967574
0.00327044
0.00284664
0.00840969
0.0135888
0.01815
0.0218908
0.0246492
0.026311
0.0268127
0.0261436
0.0243433
0.0214992
0.0177405
0.0132321
0.00816756
0.00276099
0.00239232
0.00706831
0.0114238
0.0152632
0.0184163
0.0207465
0.0221561
0.0225901
0.0220375
0.0205298
0.0181389
0.0149731
0.0111712
0.00689681
0.00233165
0.00201342
0.0059494
0.00961723
0.0128528
0.0155132
0.0174827
0.0186784
0.0190526
0.0185944
0.0173292
0.0153167
0.0126473
0.00943827
0.00582792
0.00197045
0.00169762
0.00501663
0.00811067
0.0108418
0.0130896
0.0147562
0.015771
0.0160928
0.0157115
0.0146475
0.0129504
0.0106963
0.0079839
0.00493058
0.00166718
0.00143472
0.00424004
0.00685601
0.00916641
0.0110694
0.0124823
0.0133446
0.0136212
0.0133025
0.0124052
0.0109708
0.00906329
0.00676621
0.00417909
0.00141316
0.00121636
0.0035949
0.00581347
0.00777379
0.00938958
0.0105905
0.011325
0.0115627
0.0112951
0.0105359
0.00931973
0.00770074
0.00574986
0.00355172
0.00120108
0.00103559
0.0030608
0.00495022
0.00662035
0.00799775
0.0090224
0.00965025
0.009855
0.00962908
0.00898373
0.00794826
0.00656859
0.00490516