/*--------------------------------*- C++ -*----------------------------------*\
| =========                 |                                                 |
| \\      /  F ield         | OpenFOAM: The Open Source CFD Toolbox           |
|  \\    /   O peration     | Version:  5.x                                   |
|   \\  /    A nd           | Web:      www.OpenFOAM.org                      |
|    \\/     M anipulation  |                                                 |
\*---------------------------------------------------------------------------*/
FoamFile
{
    version     2.0;
    format      ascii;
    class       volScalarField;
    location    "3.3";
    object      gradTy;
}
// * * * * * * * * * * * * * * * * * * * * * * * * * * * * * * * * * * * * * //

dimensions      [0 -1 0 1 0 0 0];

internalField   nonuniform List<scalar> 
2048
(
-27.5091
-27.4752
-27.4086
-27.3111
-27.1855
-27.0352
-26.8637
-26.6746
-26.4714
-26.2573
-26.0353
-25.8079
-25.5775
-25.3459
-25.1148
-24.8857
-24.6596
-24.4375
-24.22
-24.0076
-23.8005
-23.5988
-23.4027
-23.2119
-23.0265
-22.8463
-22.6712
-22.5011
-22.3361
-22.1761
-22.021
-21.871
-21.7262
-21.5867
-21.4528
-21.3245
-21.2023
-21.0862
-20.9765
-20.8735
-20.7774
-20.6884
-20.6068
-20.533
-20.4673
-20.4101
-20.3617
-20.3223
-20.2922
-20.2715
-20.2601
-20.2576
-20.2635
-20.277
-20.2971
-20.3224
-20.3514
-20.3823
-20.4133
-20.4425
-20.4682
-20.489
-20.5035
-20.511
-27.5365
-27.5018
-27.4335
-27.3338
-27.2056
-27.0524
-26.8779
-26.686
-26.4801
-26.2637
-26.0396
-25.8104
-25.5784
-25.3454
-25.1133
-24.8832
-24.6564
-24.4338
-24.2159
-24.0033
-23.7961
-23.5944
-23.3983
-23.2076
-23.0222
-22.8421
-22.6671
-22.4971
-22.3321
-22.172
-22.0169
-21.8668
-21.7219
-21.5822
-21.4481
-21.3197
-21.1973
-21.081
-20.9711
-20.8679
-20.7716
-20.6823
-20.6005
-20.5264
-20.4604
-20.4029
-20.3543
-20.3148
-20.2846
-20.264
-20.2528
-20.2507
-20.2573
-20.2717
-20.2929
-20.3195
-20.3498
-20.3822
-20.4147
-20.4453
-20.4722
-20.494
-20.5092
-20.517
-27.5889
-27.5526
-27.4811
-27.377
-27.2437
-27.0849
-26.9048
-26.7074
-26.4966
-26.2756
-26.0476
-25.8149
-25.5799
-25.3445
-25.1102
-24.8784
-24.6502
-24.4266
-24.208
-23.995
-23.7876
-23.586
-23.39
-23.1994
-23.0142
-22.8342
-22.6594
-22.4894
-22.3245
-22.1644
-22.0091
-21.8589
-21.7137
-21.5738
-21.4393
-21.3106
-21.1878
-21.0712
-20.961
-20.8574
-20.7606
-20.6709
-20.5886
-20.514
-20.4474
-20.3894
-20.3403
-20.3004
-20.2702
-20.2496
-20.2388
-20.2376
-20.2454
-20.2614
-20.2847
-20.3137
-20.3468
-20.382
-20.4173
-20.4506
-20.4799
-20.5036
-20.5201
-20.5286
-27.6643
-27.6254
-27.5492
-27.4387
-27.2977
-27.1307
-26.9424
-26.7373
-26.5193
-26.292
-26.0584
-25.8209
-25.5818
-25.3427
-25.1055
-24.8712
-24.6412
-24.4162
-24.1967
-23.9832
-23.7757
-23.574
-23.3782
-23.1879
-23.003
-22.8232
-22.6485
-22.4787
-22.3138
-22.1537
-21.9983
-21.8478
-21.7022
-21.5619
-21.4269
-21.2977
-21.1744
-21.0573
-20.9466
-20.8425
-20.7452
-20.6549
-20.5718
-20.4964
-20.4291
-20.3703
-20.3204
-20.2801
-20.2496
-20.2291
-20.2189
-20.2187
-20.2282
-20.2466
-20.2728
-20.3053
-20.3423
-20.3817
-20.4212
-20.4584
-20.4912
-20.5176
-20.5361
-20.5456
-27.7608
-27.7186
-27.6361
-27.5169
-27.3657
-27.188
-26.9891
-26.7739
-26.5469
-26.3117
-26.0711
-25.8277
-25.5834
-25.34
-25.099
-24.8618
-24.6294
-24.4027
-24.1822
-23.9681
-23.7604
-23.559
-23.3634
-23.1735
-22.9889
-22.8094
-22.635
-22.4654
-22.3006
-22.1404
-21.9848
-21.834
-21.688
-21.547
-21.4115
-21.2816
-21.1577
-21.04
-20.9287
-20.824
-20.726
-20.6349
-20.551
-20.4746
-20.4061
-20.3462
-20.2954
-20.2543
-20.2234
-20.2031
-20.1935
-20.1946
-20.2062
-20.2275
-20.2574
-20.2944
-20.3365
-20.3813
-20.4263
-20.4687
-20.506
-20.536
-20.557
-20.5678
-27.8776
-27.831
-27.7404
-27.6101
-27.4462
-27.2551
-27.0431
-26.8159
-26.5781
-26.3336
-26.085
-25.8347
-25.5845
-25.336
-25.0907
-24.8499
-24.6148
-24.3862
-24.1645
-23.9499
-23.7423
-23.5411
-23.346
-23.1566
-22.9724
-22.7934
-22.6193
-22.4499
-22.2852
-22.125
-21.9693
-21.818
-21.6714
-21.5297
-21.3934
-21.2627
-21.138
-21.0197
-20.9078
-20.8024
-20.7037
-20.6117
-20.5266
-20.449
-20.3792
-20.3179
-20.2659
-20.2238
-20.1923
-20.1719
-20.1629
-20.1655
-20.1794
-20.2041
-20.2385
-20.281
-20.3293
-20.3809
-20.4326
-20.4814
-20.5243
-20.5587
-20.5828
-20.5952
-28.0138
-27.9618
-27.861
-27.7171
-27.5376
-27.3303
-27.1028
-26.8616
-26.6116
-26.3566
-26.0992
-25.8414
-25.5847
-25.3305
-25.0803
-24.8356
-24.5974
-24.3667
-24.1439
-23.9289
-23.7215
-23.5208
-23.3264
-23.1376
-22.954
-22.7754
-22.6017
-22.4326
-22.2681
-22.1079
-21.952
-21.8003
-21.6529
-21.5104
-21.373
-21.2414
-21.1159
-20.9969
-20.8843
-20.7783
-20.6787
-20.5857
-20.4995
-20.4203
-20.3489
-20.286
-20.2324
-20.189
-20.1566
-20.136
-20.1275
-20.1316
-20.1481
-20.1767
-20.2162
-20.265
-20.3207
-20.3803
-20.4401
-20.4966
-20.5462
-20.5859
-20.6136
-20.6278
-28.1692
-28.1105
-27.9972
-27.8367
-27.6384
-27.412
-27.1667
-26.9095
-26.6461
-26.3798
-26.1131
-25.8473
-25.5836
-25.3233
-25.0678
-24.8187
-24.5772
-24.3443
-24.1204
-23.9053
-23.6983
-23.4985
-23.3049
-23.1169
-22.934
-22.7559
-22.5826
-22.4139
-22.2496
-22.0895
-21.9334
-21.7811
-21.633
-21.4893
-21.3508
-21.2181
-21.0917
-20.9719
-20.8587
-20.752
-20.6517
-20.5576
-20.47
-20.3892
-20.3158
-20.2509
-20.1954
-20.1504
-20.1169
-20.0957
-20.0876
-20.0931
-20.1124
-20.1451
-20.1904
-20.2464
-20.3106
-20.3795
-20.4489
-20.5144
-20.5718
-20.6177
-20.6496
-20.6659
-28.3437
-28.2767
-28.1482
-27.9677
-27.7471
-27.4986
-27.2329
-26.9582
-26.6803
-26.4023
-26.1259
-25.8519
-25.581
-25.3143
-25.0531
-24.7992
-24.5541
-24.3189
-24.094
-23.879
-23.6729
-23.4743
-23.2819
-23.0949
-22.9127
-22.7351
-22.5623
-22.394
-22.2301
-22.0702
-21.9139
-21.761
-21.6119
-21.4669
-21.327
-21.193
-21.0656
-20.945
-20.8313
-20.7241
-20.6231
-20.5279
-20.4388
-20.356
-20.2805
-20.2132
-20.1554
-20.1084
-20.0734
-20.0514
-20.0434
-20.0502
-20.0722
-20.1093
-20.1608
-20.225
-20.2989
-20.3785
-20.459
-20.535
-20.6014
-20.6543
-20.6908
-20.7095
-28.5375
-28.4606
-28.3137
-28.1092
-27.8625
-27.5884
-27.2999
-27.0062
-26.713
-26.4232
-26.1372
-25.8551
-25.5769
-25.3034
-25.0361
-24.7769
-24.528
-24.2905
-24.0648
-23.8503
-23.6455
-23.4486
-23.2578
-23.0719
-22.8905
-22.7134
-22.5409
-22.3732
-22.2098
-22.0503
-21.8939
-21.7403
-21.5899
-21.4434
-21.3019
-21.1664
-21.0379
-20.9166
-20.8024
-20.6949
-20.5932
-20.4971
-20.4063
-20.3214
-20.2433
-20.1732
-20.1127
-20.0633
-20.0264
-20.0033
-19.9952
-20.0031
-20.0277
-20.0693
-20.1275
-20.2005
-20.2853
-20.3772
-20.4704
-20.5584
-20.6351
-20.6958
-20.7375
-20.7586
-28.7513
-28.6622
-28.4931
-28.2602
-27.9828
-27.6797
-27.3659
-27.0518
-26.7432
-26.4417
-26.1466
-25.8568
-25.5713
-25.2907
-25.0168
-24.7519
-24.4987
-24.2589
-24.0327
-23.8193
-23.6165
-23.4218
-23.2329
-23.0483
-22.8675
-22.6909
-22.5188
-22.3517
-22.1891
-22.03
-21.8736
-21.7193
-21.5675
-21.4191
-21.2755
-21.1384
-21.0086
-20.8867
-20.7724
-20.6647
-20.5627
-20.4656
-20.3731
-20.2858
-20.2047
-20.1314
-20.0678
-20.0156
-19.9764
-19.9518
-19.9432
-19.9517
-19.9787
-20.0249
-20.0901
-20.1728
-20.2697
-20.3755
-20.4832
-20.585
-20.6732
-20.7425
-20.7896
-20.8134
-28.9859
-28.882
-28.6863
-28.4196
-28.1067
-27.7706
-27.4291
-27.0937
-26.7696
-26.4572
-26.1539
-25.8568
-25.5642
-25.2764
-24.9952
-24.7241
-24.4663
-24.2241
-23.9977
-23.786
-23.586
-23.3942
-23.2076
-23.0244
-22.8443
-22.6678
-22.496
-22.3296
-22.168
-22.0098
-21.8535
-21.6984
-21.5449
-21.3942
-21.2482
-21.109
-20.978
-20.8556
-20.7413
-20.6339
-20.5318
-20.4338
-20.3396
-20.2496
-20.1651
-20.0882
-20.021
-19.9655
-19.9237
-19.8971
-19.8875
-19.8964
-19.9255
-19.976
-20.0483
-20.1414
-20.2517
-20.3732
-20.4975
-20.6149
-20.716
-20.7945
-20.8474
-20.8737
-29.2422
-29.1205
-28.8929
-28.5864
-28.2323
-27.8592
-27.4878
-27.1302
-26.7912
-26.4692
-26.159
-25.8555
-25.556
-25.2606
-24.9715
-24.6933
-24.4305
-24.1859
-23.9598
-23.7506
-23.5543
-23.3662
-23.1823
-23.0006
-22.8208
-22.6442
-22.4725
-22.3069
-22.1467
-21.9898
-21.8338
-21.678
-21.5225
-21.3689
-21.22
-21.0785
-20.9461
-20.8233
-20.7095
-20.6029
-20.501
-20.4023
-20.3062
-20.2132
-20.1249
-20.0438
-19.9725
-19.9134
-19.8685
-19.8396
-19.8286
-19.8373
-19.8679
-19.9224
-20.002
-20.1061
-20.2311
-20.3701
-20.5132
-20.6484
-20.7639
-20.8522
-20.9107
-20.9395
-29.5216
-29.3784
-29.1128
-28.7593
-28.3579
-27.9436
-27.54
-27.1599
-26.8072
-26.4774
-26.1619
-25.853
-25.547
-25.2437
-24.9458
-24.6595
-24.3912
-24.1441
-23.9187
-23.713
-23.5217
-23.3382
-23.1575
-22.9772
-22.7976
-22.6203
-22.4483
-22.2837
-22.1255
-21.9703
-21.815
-21.6583
-21.5004
-21.3434
-21.1909
-21.0467
-20.9128
-20.7899
-20.6771
-20.5717
-20.4707
-20.3715
-20.2734
-20.1771
-20.0845
-19.9986
-19.9227
-19.8595
-19.8111
-19.7795
-19.7666
-19.7746
-19.806
-19.8641
-19.9508
-20.0664
-20.2073
-20.3659
-20.5305
-20.686
-20.8173
-20.9158
-20.9796
-21.0106
-29.8258
-29.6566
-29.3459
-28.9371
-28.4813
-28.0216
-27.5839
-27.1814
-26.8166
-26.4815
-26.163
-25.8499
-25.5377
-25.2261
-24.9182
-24.6226
-24.3481
-24.0985
-23.8744
-23.6734
-23.4884
-23.3107
-23.1336
-22.9547
-22.7748
-22.596
-22.4232
-22.26
-22.1044
-21.9518
-21.7974
-21.6397
-21.4791
-21.3178
-21.1609
-21.0136
-20.8782
-20.7554
-20.6442
-20.5409
-20.4411
-20.3416
-20.2415
-20.1416
-20.044
-19.9528
-19.8719
-19.8042
-19.7519
-19.7173
-19.702
-19.7085
-19.74
-19.8008
-19.8944
-20.022
-20.18
-20.3603
-20.5494
-20.7281
-20.8768
-20.9854
-21.054
-21.0865
-30.1565
-29.956
-29.5918
-29.1183
-28.6002
-28.091
-27.6176
-27.1929
-26.8187
-26.4815
-26.1627
-25.8468
-25.5287
-25.2083
-24.8888
-24.5823
-24.301
-24.0489
-23.8266
-23.6318
-23.4549
-23.2843
-23.1111
-22.9335
-22.7526
-22.5713
-22.397
-22.2354
-22.0836
-21.9345
-21.7814
-21.6226
-21.4589
-21.2923
-21.13
-20.9791
-20.842
-20.7196
-20.6108
-20.5105
-20.4128
-20.3132
-20.2109
-20.1071
-20.0039
-19.9064
-19.8201
-19.7476
-19.6912
-19.6531
-19.635
-19.6393
-19.67
-19.7326
-19.8324
-19.9722
-20.1487
-20.3528
-20.5699
-20.7755
-20.943
-21.0615
-21.1335
-21.1669
-30.5161
-30.2776
-29.8506
-29.3012
-28.7122
-28.1498
-27.6393
-27.1932
-26.8126
-26.4775
-26.1618
-25.8442
-25.5205
-25.1912
-24.858
-24.5383
-24.2497
-23.9949
-23.775
-23.5881
-23.4214
-23.2595
-23.0906
-22.9139
-22.7316
-22.5462
-22.3693
-22.2098
-22.063
-21.9187
-21.7673
-21.6074
-21.4401
-21.2669
-21.0979
-20.9431
-20.8043
-20.6825
-20.577
-20.4809
-20.3862
-20.2866
-20.182
-20.0739
-19.9642
-19.8597
-19.7675
-19.6899
-19.6291
-19.5874
-19.566
-19.5674
-19.5961
-19.6593
-19.7645
-19.9167
-20.1127
-20.3428
-20.592
-20.8289
-21.017
-21.1441
-21.2179
-21.2509
-30.9069
-30.6223
-30.1223
-29.4839
-28.814
-28.1957
-27.6475
-27.1805
-26.7979
-26.4698
-26.1613
-25.843
-25.5137
-25.1755
-24.8258
-24.4901
-24.194
-23.9365
-23.7191
-23.5423
-23.3885
-23.2373
-23.0725
-22.8962
-22.712
-22.5206
-22.3393
-22.1827
-22.0429
-21.9051
-21.7554
-21.5942
-21.4233
-21.2419
-21.0645
-20.9056
-20.7649
-20.6438
-20.5427
-20.4523
-20.3616
-20.2621
-20.155
-20.0425
-19.9252
-19.8127
-19.7144
-19.6315
-19.566
-19.5205
-19.4955
-19.4933
-19.5187
-19.5808
-19.6903
-19.855
-20.0715
-20.3294
-20.6156
-20.8895
-21.0997
-21.2337
-21.3067
-21.3377
-31.332
-30.9908
-30.4071
-29.6644
-28.9022
-28.227
-27.6407
-27.1532
-26.774
-26.4589
-26.1625
-25.8438
-25.5089
-25.1625
-24.7926
-24.4369
-24.1338
-23.8734
-23.6583
-23.4945
-23.3564
-23.2184
-23.0574
-22.8807
-22.6945
-22.4943
-22.3062
-22.1539
-22.0233
-21.8941
-21.7461
-21.5834
-21.4091
-21.2172
-21.0292
-20.8663
-20.7237
-20.6031
-20.5081
-20.425
-20.3397
-20.2401
-20.1301
-20.0133
-19.8871
-19.7651
-19.6607
-19.5725
-19.5019
-19.4528
-19.424
-19.4173
-19.438
-19.4972
-19.6093
-19.7867
-20.0247
-20.3116
-20.6403
-20.959
-21.1924
-21.3304
-21.3992
-21.4263
-31.7947
-31.3833
-30.7057
-29.8403
-28.9723
-28.2423
-27.6178
-27.1092
-26.7405
-26.4454
-26.1674
-25.8472
-25.5062
-25.154
-24.7584
-24.3774
-24.0692
-23.8056
-23.5917
-23.4444
-23.3258
-23.2041
-23.0454
-22.8674
-22.6801
-22.4671
-22.2687
-22.1227
-22.0043
-21.8868
-21.7396
-21.575
-21.3984
-21.193
-20.9912
-20.8255
-20.6807
-20.56
-20.473
-20.3992
-20.3212
-20.2207
-20.1074
-19.9869
-19.8499
-19.7166
-19.6068
-19.5131
-19.4372
-19.3847
-19.352
-19.3401
-19.3545
-19.4085
-19.521
-19.7113
-19.9718
-20.2876
-20.6656
-21.0393
-21.2968
-21.4341
-21.4946
-21.5155
-32.2991
-31.7988
-31.0195
-30.009
-29.0186
-28.241
-27.5785
-27.0462
-26.6974
-26.4299
-26.1783
-25.8535
-25.5053
-25.1523
-24.7235
-24.3095
-24.0006
-23.7332
-23.5181
-23.3922
-23.297
-23.1959
-23.0369
-22.8561
-22.6702
-22.4389
-22.2249
-22.0887
-21.986
-21.8842
-21.7361
-21.5688
-21.3924
-21.1693
-20.9496
-20.7832
-20.6359
-20.5138
-20.4375
-20.3751
-20.3068
-20.2041
-20.0868
-19.9641
-19.8138
-19.6667
-19.5527
-19.4536
-19.3716
-19.3166
-19.2799
-19.2623
-19.2685
-19.3149
-19.4249
-19.6286
-19.9129
-20.2554
-20.6904
-21.1337
-21.4147
-21.545
-21.5917
-21.604
-32.8504
-32.2348
-31.3514
-30.1676
-29.0338
-28.2239
-27.523
-26.9606
-26.6449
-26.4128
-26.1988
-25.8628
-25.5051
-25.161
-24.6881
-24.2302
-23.9292
-23.6568
-23.4353
-23.338
-23.2703
-23.1961
-23.0317
-22.846
-22.6669
-22.4096
-22.1724
-22.0515
-21.9684
-21.888
-21.7354
-21.564
-21.3932
-21.1462
-20.9024
-20.7402
-20.5896
-20.4632
-20.4016
-20.3529
-20.2977
-20.1902
-20.0679
-19.9461
-19.7789
-19.6145
-19.4989
-19.3943
-19.3053
-19.249
-19.2083
-19.1846
-19.1808
-19.2166
-19.32
-19.5384
-19.8485
-20.2118
-20.7131
-21.2461
-21.5482
-21.6625
-21.6893
-21.6903
-33.4552
-32.6857
-31.7066
-30.313
-29.0076
-28.1936
-27.4523
-26.8478
-26.5842
-26.3943
-26.2336
-25.8745
-25.5033
-25.1855
-24.6524
-24.1346
-23.8573
-23.5773
-23.3406
-23.2824
-23.2455
-23.2075
-23.0295
-22.8356
-22.6735
-22.379
-22.1076
-22.0112
-21.9512
-21.9007
-21.737
-21.5595
-21.4034
-21.1236
-20.8471
-20.6975
-20.5422
-20.4067
-20.3656
-20.3326
-20.2956
-20.1788
-20.0497
-19.9345
-19.7451
-19.5584
-19.4461
-19.3357
-19.2377
-19.1823
-19.1377
-19.1078
-19.0919
-19.114
-19.2052
-19.4405
-19.7801
-20.1528
-20.7308
-21.3826
-21.6995
-21.7859
-21.786
-21.7731
-34.1221
-33.1413
-32.0939
-30.442
-28.9262
-28.1561
-27.3688
-26.7008
-26.5176
-26.3732
-26.2896
-25.8872
-25.4955
-25.2335
-24.6164
-24.0157
-23.7888
-23.4962
-23.2296
-23.2268
-23.222
-23.2345
-23.0293
-22.8221
-22.695
-22.3471
-22.0256
-21.9685
-21.9338
-21.9259
-21.7402
-21.5528
-21.4273
-21.1017
-20.7796
-20.6573
-20.4945
-20.3419
-20.3303
-20.3135
-20.3027
-20.1693
-20.0308
-19.932
-19.7124
-19.4962
-19.3953
-19.2781
-19.1681
-19.1172
-19.0685
-19.0326
-19.0024
-19.0079
-19.0789
-19.3349
-19.7108
-20.0729
-20.7393
-21.5515
-21.8707
-21.9138
-21.8799
-21.8507
-34.8631
-33.5846
-32.5277
-30.5511
-28.7702
-28.1218
-27.2764
-26.5093
-26.4496
-26.3467
-26.3766
-25.8982
-25.4746
-25.3167
-24.5803
-23.8628
-23.7299
-23.4159
-23.0957
-23.1738
-23.1977
-23.2832
-23.0293
-22.8008
-22.7387
-22.3138
-21.9194
-21.9252
-21.9143
-21.9685
-21.7435
-21.5399
-21.4711
-21.0803
-20.6942
-20.623
-20.4479
-20.2651
-20.297
-20.2947
-20.3223
-20.1608
-20.0086
-19.9422
-19.6808
-19.4247
-19.3484
-19.2223
-19.0954
-19.0547
-19.0009
-18.9602
-18.9131
-18.8994
-18.9386
-19.2212
-19.6458
-19.9645
-20.7321
-21.7647
-22.0636
-22.0443
-21.9693
-21.9219
-35.6947
-33.9878
-33.0306
-30.6366
-28.5124
-28.1076
-27.1802
-26.2582
-26.3885
-26.3087
-26.5084
-25.9035
-25.4292
-25.4515
-24.5439
-23.6606
-23.6909
-23.3395
-22.9294
-23.1281
-23.1687
-23.3622
-23.0269
-22.7646
-22.8152
-22.279
-21.7795
-21.8853
-21.8894
-22.0361
-21.7447
-21.5148
-21.5439
-21.0595
-20.5823
-20.6001
-20.4039
-20.171
-20.2683
-20.274
-20.3592
-20.1518
-19.9792
-19.9706
-19.6501
-19.3391
-19.3083
-19.169
-19.0175
-18.9961
-18.935
-18.8914
-18.8244
-18.7906
-18.781
-19.0987
-19.5936
-19.8177
-20.7
-22.039
-22.2787
-22.1746
-22.0521
-21.9854
-36.6399
-34.3083
-33.6374
-30.6946
-28.1151
-28.1394
-27.0877
-25.9259
-26.3483
-26.2481
-26.705
-25.8973
-25.3425
-25.662
-24.507
-23.3872
-23.6869
-23.2716
-22.7171
-23.0982
-23.1277
-23.4841
-23.0183
-22.7026
-22.9398
-22.2426
-21.5926
-21.8559
-21.8532
-22.1391
-21.7404
-21.4681
-21.6585
-21.0389
-20.4319
-20.5969
-20.3651
-20.0521
-20.2489
-20.2472
-20.4202
-20.1401
-19.9367
-20.0251
-19.6198
-19.2326
-19.2793
-19.1191
-18.9317
-18.9436
-18.8705
-18.8277
-18.7366
-18.6842
-18.6015
-18.9661
-19.5672
-19.6196
-20.6293
-22.3977
-22.5147
-22.3009
-22.1264
-22.0402
-37.7312
-34.4825
-34.3997
-30.7209
-27.5265
-28.2556
-27.0078
-25.4811
-26.3513
-26.1456
-26.9943
-25.8711
-25.1896
-25.9814
-24.4689
-23.0119
-23.7401
-23.2178
-22.4391
-23.0976
-23.0624
-23.6665
-22.9981
-22.5991
-23.1337
-22.2039
-21.3406
-21.8489
-21.7956
-22.2924
-21.7263
-21.3865
-21.8329
-21.0182
-20.2262
-20.6255
-20.3344
-19.8976
-20.2461
-20.2076
-20.5148
-20.1229
-19.8728
-20.1168
-19.5895
-19.096
-19.2682
-19.0735
-18.8336
-18.9001
-18.8063
-18.7707
-18.6496
-18.5849
-18.394
-18.8202
-19.5858
-19.3533
-20.5009
-22.8731
-22.7673
-22.4185
-22.1903
-22.0857
-39.0133
-34.4179
-35.3921
-30.7104
-26.6757
-28.5112
-26.9517
-24.8799
-26.4327
-25.9707
-27.4155
-25.8138
-24.9356
-26.4556
-24.4283
-22.4928
-23.8825
-23.185
-22.0678
-23.1476
-22.9533
-23.9343
-22.9591
-22.4318
-23.4265
-22.162
-20.9991
-21.8831
-21.7004
-22.5169
-21.6962
-21.251
-22.0922
-20.9967
-19.9422
-20.7034
-20.3158
-19.6922
-20.2717
-20.1446
-20.6565
-20.096
-19.7755
-20.261
-19.5579
-18.9166
-19.2843
-19.0333
-18.7173
-18.8702
-18.7407
-18.7223
-18.5622
-18.499
-18.1501
-18.6558
-19.6764
-18.9974
-20.2884
-23.5095
-23.027
-22.5222
-22.2423
-22.1214
-40.548
-33.9837
-36.7201
-30.6568
-25.4685
-28.9828
-26.9324
-24.062
-26.6451
-25.676
-28.0225
-25.7105
-24.5321
-27.147
-24.3834
-21.7735
-24.1584
-23.1818
-21.5655
-23.2806
-22.7704
-24.3215
-22.8918
-22.17
-23.8579
-22.1151
-20.5352
-21.9871
-21.5425
-22.8414
-21.6422
-21.0352
-22.4699
-20.9734
-19.5489
-20.8548
-20.3137
-19.4152
-20.3433
-20.0417
-20.8638
-20.0543
-19.6285
-20.4786
-19.5237
-18.6774
-19.3412
-18.9991
-18.5746
-18.8605
-18.6706
-18.6856
-18.4721
-18.4359
-17.8595
-18.464
-19.8769
-18.5247
-19.9558
-24.3664
-23.2773
-22.6064
-22.2814
-22.1475
-42.4185
-32.9991
-38.5294
-30.5518
-23.7801
-29.7745
-26.9641
-22.9453
-27.0655
-25.1914
-28.8885
-25.5423
-23.9138
-28.138
-24.3311
-20.7793
-24.6281
-23.2179
-20.8809
-23.5439
-22.4695
-24.8745
-22.7841
-21.7719
-24.4809
-22.0603
-19.9056
-22.2025
-21.285
-23.3048
-21.5544
-20.7038
-23.0109
-20.9468
-19.0053
-21.1126
-20.3337
-19.0383
-20.4871
-19.8745
-21.1622
-19.9908
-19.4097
-20.7974
-19.4842
-18.356
-19.4571
-18.9716
-18.3947
-18.8804
-18.591
-18.6645
-18.3752
-18.4085
-17.509
-18.2311
-20.2379
-17.9017
-19.4551
-25.5233
-23.4916
-22.6656
-22.3069
-22.1641
-44.7359
-31.2202
-41.0168
-30.3836
-21.4491
-31.0249
-27.0623
-21.4209
-27.8028
-24.4162
-30.1116
-25.285
-22.9943
-29.536
-24.2666
-19.4132
-25.3718
-23.3044
-19.9457
-24.0046
-21.9869
-25.6553
-22.6204
-21.1824
-25.3641
-21.9928
-19.0534
-22.5881
-20.874
-23.9591
-21.4195
-20.2094
-23.773
-20.9139
-18.2577
-21.5204
-20.3811
-18.5232
-20.7391
-19.6075
-21.5846
-19.8961
-19.089
-21.2526
-19.435
-17.9221
-19.6556
-18.9489
-18.1613
-18.9411
-18.4928
-18.6628
-18.2625
-18.4324
-17.0806
-17.934
-20.8237
-17.0847
-18.7201
-27.0807
-23.6262
-22.6925
-22.3158
-22.1686
)
;

boundaryField
{
    left
    {
        type            calculated;
        value           nonuniform List<scalar> 
32
(
-27.5091
-27.5365
-27.5889
-27.6643
-27.7608
-27.8776
-28.0138
-28.1692
-28.3437
-28.5375
-28.7513
-28.9859
-29.2422
-29.5216
-29.8258
-30.1565
-30.5161
-30.9069
-31.332
-31.7947
-32.2991
-32.8504
-33.4552
-34.1221
-34.8631
-35.6947
-36.6399
-37.7312
-39.0133
-40.548
-42.4185
-44.7359
)
;
    }
    right
    {
        type            calculated;
        value           nonuniform List<scalar> 
32
(
-20.511
-20.517
-20.5286
-20.5456
-20.5678
-20.5952
-20.6278
-20.6659
-20.7095
-20.7586
-20.8134
-20.8737
-20.9395
-21.0106
-21.0865
-21.1669
-21.2509
-21.3377
-21.4263
-21.5155
-21.604
-21.6903
-21.7731
-21.8507
-21.9219
-21.9854
-22.0402
-22.0857
-22.1214
-22.1475
-22.1641
-22.1686
)
;
    }
    interface
    {
        type            calculated;
        value           nonuniform List<scalar> 
64
(
-46.0222
-30.0971
-42.4582
-30.282
-20.1003
-31.7845
-27.1299
-20.5413
-28.2667
-23.9411
-30.8264
-25.1307
-22.447
-30.352
-24.2307
-18.6236
-25.8236
-23.3617
-19.4056
-24.2941
-21.6909
-26.1114
-22.5224
-20.8319
-25.8805
-21.955
-18.5636
-22.8319
-20.6222
-24.3413
-21.3384
-19.9147
-24.2175
-20.8954
-17.8252
-21.7678
-20.4123
-18.2255
-20.8974
-19.4437
-21.8314
-19.8395
-18.8989
-21.5193
-19.4071
-17.6727
-19.7786
-18.9383
-18.0288
-18.9831
-18.4375
-18.6673
-18.2007
-18.4592
-16.8443
-17.7657
-21.1816
-16.6213
-18.2842
-27.9735
-23.6668
-22.6968
-22.3154
-22.1671
)
;
    }
    bottom
    {
        type            calculated;
        value           nonuniform List<scalar> 
64
(
-27.502
-27.4684
-27.4021
-27.3052
-27.1803
-27.0307
-26.86
-26.6716
-26.469
-26.2556
-26.0341
-25.8072
-25.5772
-25.346
-25.1152
-24.8863
-24.6605
-24.4385
-24.2211
-24.0087
-23.8016
-23.6
-23.4038
-23.213
-23.0276
-22.8473
-22.6722
-22.5022
-22.3372
-22.1771
-22.0221
-21.8721
-21.7273
-21.5879
-21.454
-21.3258
-21.2036
-21.0876
-20.9779
-20.875
-20.7789
-20.6899
-20.6084
-20.5347
-20.4691
-20.412
-20.3636
-20.3243
-20.2942
-20.2735
-20.2619
-20.2593
-20.2651
-20.2784
-20.2982
-20.3232
-20.3518
-20.3823
-20.4129
-20.4418
-20.4672
-20.4877
-20.5021
-20.5095
)
;
    }
    defaultFaces
    {
        type            empty;
    }
}


// ************************************************************************* //
