/*--------------------------------*- C++ -*----------------------------------*\
| =========                 |                                                 |
| \\      /  F ield         | OpenFOAM: The Open Source CFD Toolbox           |
|  \\    /   O peration     | Version:  5.x                                   |
|   \\  /    A nd           | Web:      www.OpenFOAM.org                      |
|    \\/     M anipulation  |                                                 |
\*---------------------------------------------------------------------------*/
FoamFile
{
    version     2.0;
    format      ascii;
    class       volScalarField;
    location    "3.3";
    object      gradTx;
}
// * * * * * * * * * * * * * * * * * * * * * * * * * * * * * * * * * * * * * //

dimensions      [0 -1 0 1 0 0 0];

internalField   nonuniform List<scalar> 
2048
(
0.00773427
0.0229666
0.0375126
0.0509854
0.0630919
0.0736463
0.0825691
0.0898726
0.0956377
0.0999894
0.103074
0.105043
0.106042
0.106209
0.105671
0.104549
0.102959
0.10101
0.0988036
0.0964293
0.093962
0.0914595
0.0889623
0.0864951
0.0840697
0.0816882
0.0793461
0.0770335
0.0747371
0.0724397
0.0701217
0.0677624
0.0653416
0.0628422
0.0602516
0.0575621
0.0547703
0.0518748
0.048874
0.0457639
0.0425366
0.0391808
0.0356837
0.0320338
0.0282253
0.0242613
0.0201581
0.0159474
0.0116782
0.00741762
0.00325063
-0.00072179
-0.0043858
-0.00762009
-0.0103034
-0.0123243
-0.0135914
-0.0140451
-0.0136653
-0.012478
-0.0105553
-0.00801279
-0.00500165
-0.00169991
0.0230601
0.0684632
0.111785
0.151857
0.1878
0.219067
0.245436
0.26696
0.2839
0.296643
0.305638
0.311338
0.314179
0.314565
0.312873
0.309462
0.304671
0.298826
0.292229
0.285148
0.277806
0.270374
0.262972
0.255668
0.248496
0.24146
0.234544
0.227719
0.220944
0.214168
0.207333
0.200375
0.193232
0.185854
0.178202
0.170254
0.162002
0.153443
0.144576
0.135388
0.125856
0.115947
0.105618
0.0948325
0.0835706
0.0718387
0.0596824
0.0471938
0.0345174
0.0218519
0.00944963
-0.00238804
-0.0133202
-0.0229819
-0.0310069
-0.0370563
-0.0408521
-0.0422096
-0.0410658
-0.0374959
-0.0317167
-0.0240752
-0.0150264
-0.00510642
0.0382582
0.113545
0.185267
0.251439
0.310591
0.361834
0.404844
0.43977
0.467102
0.487533
0.501834
0.510773
0.515069
0.51538
0.512316
0.506456
0.498358
0.488559
0.477561
0.46581
0.453678
0.441443
0.429296
0.417344
0.40563
0.394154
0.382886
0.371776
0.360758
0.349745
0.338638
0.327328
0.31571
0.303694
0.291219
0.278249
0.264776
0.250805
0.236335
0.221354
0.20582
0.189674
0.172839
0.155247
0.136853
0.117658
0.0977314
0.077218
0.0563517
0.035458
0.0149527
-0.00466414
-0.0228225
-0.0389077
-0.052297
-0.0624094
-0.0687628
-0.0710327
-0.0691014
-0.0630894
-0.05336
-0.0404988
-0.0252726
-0.00858699
0.0536424
0.159121
0.259373
0.351523
0.433483
0.504052
0.562872
0.610274
0.647066
0.674314
0.693159
0.704699
0.70993
0.709747
0.704971
0.696384
0.684752
0.670824
0.655309
0.638837
0.621929
0.604971
0.588213
0.571785
0.555728
0.540027
0.524632
0.509472
0.494454
0.479458
0.464341
0.448943
0.433107
0.416701
0.399636
0.381871
0.363404
0.344255
0.324439
0.303943
0.282713
0.260655
0.237648
0.213578
0.188361
0.161984
0.134525
0.106176
0.0772535
0.0482038
0.0196039
-0.00784599
-0.0333399
-0.0559982
-0.0749193
-0.0892506
-0.0982745
-0.101498
-0.098731
-0.0901328
-0.0762213
-0.0578387
-0.0360857
-0.012259
0.0694969
0.20601
0.335363
0.453675
0.558205
0.647482
0.721211
0.780033
0.825197
0.858241
0.880738
0.894134
0.899694
0.898519
0.89161
0.879931
0.864447
0.846124
0.825889
0.804573
0.782855
0.761222
0.739972
0.719237
0.699038
0.679328
0.660032
0.641058
0.62229
0.603578
0.584727
0.565518
0.545732
0.525185
0.503757
0.481407
0.458151
0.434042
0.409122
0.383389
0.356771
0.329134
0.3003
0.270085
0.238355
0.205059
0.170277
0.134235
0.0973258
0.060112
0.0233288
-0.0121214
-0.0451863
-0.0747007
-0.099451
-0.118271
-0.13016
-0.134417
-0.13075
-0.119351
-0.100909
-0.0765503
-0.0477465
-0.0162174
0.0860935
0.254989
0.414416
0.55933
0.686296
0.793631
0.881248
0.950267
1.00255
1.04023
1.06538
1.07982
1.08505
1.08235
1.07285
1.05765
1.03793
1.01486
0.989634
0.963295
0.936694
0.91042
0.884796
0.859933
0.835799
0.812299
0.789325
0.766771
0.744506
0.72235
0.700057
0.677332
0.653874
0.629435
0.603862
0.577115
0.549252
0.520376
0.490576
0.459874
0.428183
0.395316
0.361013
0.325003
0.287071
0.247115
0.205198
0.161574
0.116702
0.0712554
0.026125
-0.0175841
-0.0585628
-0.0953354
-0.126335
-0.150025
-0.165061
-0.170475
-0.165836
-0.151363
-0.127935
-0.0970128
-0.0604855
-0.0205392
0.103706
0.306834
0.497687
0.669858
0.819166
0.943818
1.04412
1.12191
1.17986
1.22088
1.24761
1.26225
1.26651
1.26175
1.24917
1.23
1.20558
1.17737
1.14681
1.11521
1.08363
1.05275
1.02289
0.994092
0.966244
0.939177
0.912745
0.886834
0.861321
0.836003
0.810575
0.784646
0.757809
0.729729
0.700212
0.669233
0.636907
0.603425
0.56895
0.533541
0.497099
0.459367
0.419978
0.378541
0.334732
0.288375
0.239501
0.188382
0.135539
0.0817504
0.0280531
-0.0242461
-0.073573
-0.118115
-0.155903
-0.184962
-0.20352
-0.210268
-0.204585
-0.186707
-0.157741
-0.119543
-0.0744902
-0.025286
0.12262
0.36235
0.586352
0.786609
0.958151
1.09921
1.21076
1.29564
1.35762
1.40053
1.42772
1.44172
1.44439
1.43707
1.42096
1.39735
1.36775
1.3339
1.2976
1.26049
1.22381
1.18836
1.15442
1.12193
1.09061
1.0602
1.03052
1.00146
0.972934
0.944742
0.916504
0.887707
0.857802
0.826335
0.793059
0.757975
0.721293
0.683325
0.644351
0.60449
0.56363
0.521422
0.47736
0.430891
0.381547
0.329052
0.273395
0.214857
0.154017
0.0917484
0.0292271
-0.0320478
-0.0902343
-0.143159
-0.188395
-0.223443
-0.246004
-0.254326
-0.247534
-0.225864
-0.190704
-0.1444
-0.0899072
-0.0305047
0.143144
0.422393
0.681642
0.910953
1.10454
1.26087
1.38191
1.4719
1.53603
1.57929
1.60578
1.61836
1.61891
1.60862
1.58857
1.56002
1.5247
1.48468
1.44217
1.39921
1.35732
1.31737
1.27957
1.24365
1.20914
1.17562
1.14286
1.11083
1.07952
1.04875
1.01805
0.986755
0.954115
0.91952
0.882649
0.843547
0.80256
0.760181
0.716851
0.672783
0.627851
0.581589
0.533301
0.482228
0.427713
0.369355
0.307086
0.241198
0.172325
0.101428
0.0298052
-0.0408673
-0.108487
-0.1705
-0.223965
-0.265756
-0.292922
-0.303137
-0.295179
-0.269269
-0.227152
-0.171789
-0.10684
-0.0362255
0.165617
0.487901
0.784871
1.04431
1.25959
1.42972
1.55813
1.65092
1.71508
1.75702
1.78167
1.79215
1.79017
1.77662
1.75228
1.71833
1.67669
1.62986
1.5806
1.53143
1.4842
1.43988
1.39849
1.35948
1.32208
1.28567
1.25
1.21514
1.18124
1.14817
1.1154
1.08202
1.04701
1.00955
0.969227
0.926142
0.880841
0.834064
0.786483
0.738444
0.689806
0.639949
0.587929
0.532716
0.473421
0.409483
0.340775
0.267602
0.190658
0.110984
0.0299811
-0.0505284
-0.128202
-0.200096
-0.262692
-0.312127
-0.344635
-0.357158
-0.347994
-0.317327
-0.267358
-0.201855
-0.125344
-0.0424603
0.190418
0.559905
0.897467
1.18816
1.42456
1.60662
1.73982
1.83269
1.89451
1.93338
1.95511
1.96295
1.95822
1.94127
1.91238
1.87256
1.82395
1.7696
1.71295
1.65714
1.60447
1.55594
1.51133
1.46965
1.42972
1.39065
1.35216
1.31453
1.27819
1.24315
1.20872
1.17371
1.13675
1.09671
1.05304
1.00595
0.956248
0.905017
0.853243
0.801459
0.749508
0.696562
0.641354
0.582512
0.518854
0.449627
0.374647
0.294253
0.209205
0.12062
0.0299742
-0.0608083
-0.149185
-0.231828
-0.304586
-0.362723
-0.401472
-0.41683
-0.406447
-0.370417
-0.311547
-0.234675
-0.145416
-0.0491988
0.217972
0.639559
1.02099
1.34409
1.6007
1.7923
1.9272
2.01702
2.07385
2.10782
2.12566
2.13053
2.12306
2.10276
2.06917
2.02301
1.9667
1.90401
1.83922
1.77631
1.71808
1.6656
1.61824
1.57441
1.53236
1.49084
1.44955
1.40914
1.37047
1.33376
1.29817
1.26206
1.22362
1.18129
1.13435
1.08315
1.02888
0.973056
0.917093
0.861778
0.806941
0.751469
0.693677
0.631766
0.564188
0.489968
0.408876
0.321319
0.228145
0.13054
0.0300211
-0.0714446
-0.171182
-0.265507
-0.349585
-0.417656
-0.463726
-0.482591
-0.47101
-0.428905
-0.359886
-0.270246
-0.166987
-0.0564038
0.248761
0.728148
1.15715
1.51375
1.78923
1.9874
2.12033
2.2035
2.25241
2.27961
2.29276
2.2946
2.28467
2.26129
2.223
2.17003
2.10519
2.0332
1.9594
1.88881
1.82494
1.76887
1.71939
1.67405
1.63035
1.58658
1.54242
1.49907
1.45812
1.42007
1.38385
1.34728
1.30789
1.2636
1.21343
1.15793
1.09881
1.03817
0.977953
0.919317
0.862063
0.804697
0.744991
0.680623
0.6096
0.530676
0.443613
0.348945
0.247634
0.140934
0.0303663
-0.0821426
-0.193882
-0.300875
-0.397559
-0.476982
-0.531663
-0.554885
-0.542183
-0.493153
-0.412484
-0.30847
-0.189903
-0.0640065
0.283334
0.827113
1.30782
1.69894
1.99138
2.19242
2.31908
2.39151
2.42931
2.44787
2.45575
2.45482
2.443
2.4171
2.37425
2.31397
2.23964
2.15724
2.07341
1.99449
1.92492
1.86577
1.81495
1.76886
1.72408
1.67825
1.631
1.5844
1.54111
1.50209
1.4659
1.42956
1.38986
1.34398
1.29055
1.23048
1.16613
1.10031
1.03571
0.973953
0.914812
0.856265
0.795384
0.729232
0.655267
0.571913
0.478988
0.377248
0.267802
0.151975
0.0312527
-0.0925825
-0.216924
-0.337602
-0.448308
-0.540702
-0.605517
-0.634169
-0.620511
-0.563532
-0.46938
-0.349134
-0.213913
-0.0719009
0.322313
0.938062
1.47507
1.90156
2.20833
2.40771
2.52316
2.58026
2.60344
2.61154
2.61389
2.61084
2.59806
2.57049
2.5234
2.45524
2.37031
2.27623
2.18117
2.09314
2.01783
1.95629
1.90512
1.85918
1.81399
1.76627
1.71554
1.66514
1.61937
1.5798
1.54439
1.50912
1.46985
1.42279
1.36603
1.30095
1.23088
1.15943
1.09021
1.02553
0.965105
0.906186
0.844943
0.777741
0.70137
0.613827
0.515103
0.406313
0.288745
0.163806
0.0329128
-0.102427
-0.239898
-0.375295
-0.501565
-0.60876
-0.685486
-0.72092
-0.70661
-0.640441
-0.53053
-0.39189
-0.238655
-0.0799386
0.366417
1.06278
1.66114
2.12362
2.44118
2.63343
2.73211
2.76877
2.77353
2.76941
2.7664
2.76235
2.74983
2.72178
2.67101
2.59431
2.49742
2.39025
2.28255
2.18446
2.10343
2.04039
1.9901
1.94538
1.90056
1.85116
1.7963
1.74126
1.69274
1.65313
1.61943
1.58615
1.54819
1.50046
1.44017
1.36954
1.29312
1.21544
1.14126
1.07384
1.01285
0.954479
0.893748
0.826303
0.748105
0.656558
0.552025
0.436189
0.310522
0.176535
0.0355592
-0.111329
-0.26235
-0.413489
-0.556996
-0.681038
-0.771714
-0.815632
-0.8012
-0.724325
-0.595795
-0.436224
-0.263635
-0.0879256
0.41648
1.20323
1.86847
2.3673
2.69096
2.86951
2.94533
2.95594
2.9381
2.92013
2.91245
2.90906
2.89833
2.87136
2.81777
2.73166
2.6212
2.49941
2.37741
2.2681
2.1814
2.11805
2.07017
2.02783
1.98433
1.93352
1.87358
1.81264
1.76097
1.72198
1.69109
1.66083
1.62521
1.57745
1.51331
1.43637
1.35292
1.26825
1.18862
1.11866
1.05794
1.00118
0.941876
0.875072
0.795688
0.700235
0.589782
0.46689
0.333153
0.190226
0.0393756
-0.118942
-0.283788
-0.451654
-0.614203
-0.757362
-0.864274
-0.918813
-0.90515
-0.815705
-0.664914
-0.481431
-0.288223
-0.0956202
0.473492
1.36157
2.09963
2.63497
2.9585
3.11557
3.16213
3.14055
3.0955
3.06223
3.05128
3.05081
3.04354
3.01967
2.96455
2.86782
2.7418
2.60383
2.46562
2.34362
2.25134
2.18926
2.14563
2.1069
2.06589
2.01409
1.94767
1.87907
1.82371
1.78622
1.75949
1.7333
1.70127
1.65431
1.58579
1.50158
1.41035
1.31775
1.232
1.1597
1.10027
1.04634
0.989389
0.924201
0.844374
0.744974
0.628354
0.4984
0.356618
0.204891
0.0445087
-0.124922
-0.303682
-0.489194
-0.672734
-0.837508
-0.963135
-1.03096
-1.01953
-0.915214
-0.737469
-0.526581
-0.311641
-0.102735
0.538662
1.54011
2.35733
2.92923
3.24444
3.37086
3.38176
3.32133
3.24388
3.19407
3.18213
3.1876
3.1854
3.16715
3.11243
3.00333
2.8593
2.70372
2.54705
2.41045
2.31276
2.25402
2.21692
2.18293
2.14584
2.09377
2.01893
1.94021
1.88048
1.84571
1.82481
1.80367
1.77671
1.73171
1.65794
1.5652
1.46553
1.36385
1.27105
1.19663
1.13977
1.09007
1.03632
0.973835
0.894475
0.790877
0.667657
0.530677
0.380861
0.220486
0.0510604
-0.128947
-0.321478
-0.525441
-0.732091
-0.921219
-1.06812
-1.15253
-1.1457
-1.02364
-0.81284
-0.570486
-0.332968
-0.108944
0.613528
1.74131
2.64433
3.25307
3.5491
3.63409
3.60359
3.49701
3.3812
3.31389
3.30439
3.31966
3.32372
3.31421
3.26284
3.13868
2.97356
2.79943
2.62159
2.46793
2.36505
2.31238
2.28457
2.25615
2.22477
2.17374
2.0877
1.99553
1.93065
1.9003
1.88731
1.87192
1.85184
1.81049
1.73007
1.6272
1.51862
1.40648
1.30535
1.22903
1.17636
1.13257
1.08264
1.02409
0.946398
0.838022
0.707521
0.563671
0.405796
0.236902
0.0590819
-0.130719
-0.336599
-0.559651
-0.791741
-1.00824
-1.17883
-1.28386
-1.2854
-1.142
-0.890127
-0.611668
-0.351156
-0.113892
0.700131
1.9677
2.96328
3.61002
3.87234
3.90328
3.82722
3.66642
3.50519
3.41973
3.41755
3.44765
3.45803
3.46116
3.41767
3.27431
3.08418
2.89152
2.68922
2.51523
2.40747
2.36442
2.34936
2.32661
2.30323
2.2555
2.1544
2.0443
1.9734
1.94988
1.94744
1.93789
1.9269
1.89173
1.80244
1.68735
1.56993
1.44558
1.33441
1.25645
1.21002
1.17414
1.12825
1.07505
1.0007
0.886455
0.747666
0.597349
0.431312
0.253956
0.0685704
-0.129975
-0.348454
-0.590991
-0.851132
-1.0984
-1.29461
-1.42508
-1.4409
-1.27157
-0.96805
-0.648332
-0.365057
-0.117216
0.801293
2.2218
3.31651
4.00452
4.21343
4.17548
4.05278
3.82847
3.61328
3.50943
3.5213
3.57277
3.58748
3.60813
3.57955
3.41048
3.19032
2.98092
2.74998
2.55129
2.43908
2.41032
2.41238
2.39408
2.38162
2.34106
2.21944
2.08552
2.00773
1.99438
2.00593
2.00118
2.00202
1.97691
1.87522
1.74519
1.61996
1.48115
1.35761
1.27832
1.24074
1.21527
1.17289
1.12671
1.05814
0.936171
0.787655
0.631732
0.457282
0.271381
0.0794694
-0.126501
-0.356457
-0.618518
-0.909697
-1.19166
-1.4144
-1.57598
-1.61519
-1.41403
-1.0448
-0.678351
-0.373475
-0.118566
0.921054
2.50598
3.70571
4.44235
4.57083
4.4465
4.28133
3.98228
3.70256
3.58057
3.61551
3.69707
3.71051
3.75491
3.75211
3.54715
3.29046
3.06912
2.804
2.57485
2.45876
2.45031
2.47522
2.45786
2.46014
2.43314
2.28318
2.11785
2.03241
2.03379
2.06393
2.061
2.07714
2.06804
1.9484
1.7999
1.66953
1.51323
1.3742
1.29395
1.2686
1.25675
1.21605
1.17895
1.11982
0.987074
0.826837
0.66696
0.48357
0.288808
0.0916751
-0.12014
-0.360044
-0.641153
-0.966858
-1.28833
-1.53668
-1.73573
-1.81225
-1.5715
-1.11784
-0.699269
-0.37523
-0.117634
1.06531
2.82226
4.13144
4.93135
4.94182
4.71038
4.51536
4.12712
3.7697
3.63045
3.70021
3.8238
3.82458
3.90072
3.94049
3.68383
3.38213
3.15854
2.85149
2.5843
2.46514
2.48471
2.54019
2.51658
2.53861
2.53541
2.34591
2.13953
2.04598
2.06815
2.12321
2.116
2.1519
2.16797
2.02172
1.85013
1.71992
1.54192
1.38327
1.30256
1.29368
1.29976
1.25691
1.23146
1.18733
1.03893
0.864268
0.703371
0.510029
0.305752
0.10505
-0.110803
-0.358704
-0.657634
-1.022
-1.38921
-1.65931
-1.90267
-2.03736
-1.7467
-1.18362
-0.70834
-0.369248
-0.114184
1.24278
3.17206
4.5924
5.48243
5.32217
4.95887
4.75959
4.26238
3.81084
3.65605
3.77551
3.95798
3.9257
4.044
4.15199
3.81929
3.46154
3.25287
2.8927
2.57769
2.45657
2.5138
2.61069
2.56791
2.61631
2.6529
2.40769
2.14833
2.04671
2.09753
2.18649
2.16404
2.22549
2.2807
2.09451
1.89378
1.77317
1.56731
1.38371
1.3032
1.31608
1.34606
1.29415
1.28365
1.26291
1.09131
0.898612
0.741624
0.536491
0.321583
0.119447
-0.0984814
-0.352021
-0.66647
-1.07442
-1.49595
-1.77939
-2.07378
-2.29759
-1.94304
-1.23723
-0.702612
-0.354667
-0.108086
1.46626
3.55577
5.08447
6.11096
5.70551
5.18064
5.02195
4.3873
3.82149
3.65402
3.84143
4.10705
4.00784
4.18201
4.39684
3.95125
3.52306
3.35772
2.92774
2.55263
2.43113
2.53778
2.69161
2.60819
2.69176
2.7925
2.46813
2.1415
2.03268
2.12194
2.25778
2.20187
2.29646
2.41184
2.16553
1.92778
1.83234
1.58944
1.37416
1.29479
1.33586
1.39826
1.32576
1.33455
1.34977
1.14344
0.928005
0.782864
0.562745
0.33549
0.134746
-0.0832499
-0.339736
-0.665872
-1.12324
-1.61136
-1.89315
-2.24423
-2.60236
-2.16475
-1.27195
-0.679083
-0.330944
-0.0993365
1.7545
3.97228
5.59943
6.8386
6.08265
5.36033
5.31491
4.50067
3.79646
3.6207
3.89755
4.28186
4.06221
4.31038
4.68937
4.07591
3.55865
3.48138
2.9564
2.50623
2.38663
2.55654
2.78997
2.63193
2.76239
2.96359
2.52613
2.11571
2.00175
2.14116
2.34291
2.22473
2.36249
2.56922
2.2327
1.94771
1.90195
1.60816
1.35301
1.2761
1.35289
1.4601
1.3488
1.38267
1.45243
1.1941
0.949902
0.828934
0.588487
0.34645
0.150905
-0.0652767
-0.321824
-0.653691
-1.16719
-1.73996
-1.9958
-2.4066
-2.96414
-2.41699
-1.27863
-0.634945
-0.297976
-0.0880797
2.13454
4.41832
6.12323
7.69572
6.44057
5.47744
5.65722
4.60019
3.7298
3.55224
3.94253
4.49786
4.07639
4.42257
5.04934
4.18733
3.55711
3.63583
2.97776
2.43514
2.32067
2.56935
2.91567
2.63132
2.82422
3.17882
2.5794
2.06708
1.95169
2.1545
2.45018
2.22591
2.42007
2.76365
2.29275
1.94743
1.98858
1.62295
1.31839
1.2458
1.36671
1.53692
1.3591
1.42578
1.57713
1.2414
0.960883
0.882653
0.613235
0.353175
0.16803
-0.0448214
-0.298601
-0.627353
-1.20442
-1.88855
-2.08142
-2.54999
-3.39941
-2.706
-1.24501
-0.567937
-0.256198
-0.0746085
2.64473
4.88766
6.63391
8.72441
6.76125
5.50493
6.07599
4.68155
3.61483
3.44479
3.97334
4.77663
4.03319
4.50911
5.50365
4.27675
3.50322
3.838
2.98965
2.33551
2.23075
2.57438
3.08251
2.59545
2.87139
3.45518
2.62391
1.99123
1.8803
2.16039
2.5912
2.1961
2.46407
3.00979
2.34091
1.9186
2.10149
1.63257
1.26812
1.20252
1.37629
1.6361
1.35088
1.46075
1.73239
1.28256
0.956432
0.948161
0.636212
0.354071
0.186457
-0.0222306
-0.270846
-0.583802
-1.23209
-2.06695
-2.14291
-2.65895
-3.9297
-3.03912
-1.15491
-0.476849
-0.206643
-0.0593532
3.33857
5.37005
7.09898
9.98217
7.02012
5.40768
6.60934
4.7372
3.44426
3.29482
3.98423
5.14777
3.90944
4.5568
6.08826
4.33161
3.37676
4.11132
2.98789
2.20309
2.11445
2.56807
3.30934
2.50956
2.89568
3.81512
2.65305
1.88343
1.7856
2.15584
2.78188
2.12277
2.48738
3.32728
2.37028
1.85011
2.25354
1.63471
1.19986
1.14495
1.37963
1.7678
1.3163
1.48325
1.92964
1.31356
0.93069
1.03134
0.656174
0.347188
0.20686
0.00207563
-0.23995
-0.51948
-1.24594
-2.28885
-2.17196
-2.71211
-4.58291
-3.42484
-0.987196
-0.362169
-0.150965
-0.042852
4.28927
5.85005
7.47236
11.5463
7.18423
5.1407
7.30939
4.75461
3.21047
3.09954
3.96533
5.65118
3.67453
4.54775
6.8506
4.33449
3.15139
4.48755
2.96527
2.03343
1.96971
2.54426
3.62151
2.35411
2.88594
4.28801
2.65665
1.73881
1.6661
2.13568
3.04369
1.98936
2.48029
3.74198
2.37137
1.72752
2.46213
1.62539
1.11109
1.07201
1.37334
1.94565
1.24501
1.4875
2.18395
1.32878
0.876185
1.1403
0.671174
0.330181
0.230357
0.0276249
-0.208082
-0.430335
-1.23962
-2.57274
-2.1591
-2.68068
-5.39481
-3.87278
-0.714756
-0.22692
-0.0913672
-0.0257054
5.59514
6.30558
7.69081
13.5189
7.21008
4.64727
8.24585
4.71413
2.90587
2.85759
3.9009
6.33962
3.28878
4.45827
7.85202
4.26189
2.79345
5.00893
2.91026
1.82211
1.79521
2.49307
4.05258
2.10375
2.82743
4.91171
2.61976
1.55273
1.52117
2.09161
3.40498
1.77442
2.42993
4.28736
2.33133
1.53236
2.75044
1.59824
0.999336
0.983003
1.35201
2.18769
1.12352
1.4659
2.51486
1.32059
0.783549
1.28595
0.678277
0.300287
0.258647
0.0539243
-0.178364
-0.311897
-1.20395
-2.94296
-2.09393
-2.52667
-6.41067
-4.39362
-0.303273
-0.0776704
-0.0304419
-0.00852067
)
;

boundaryField
{
    left
    {
        type            calculated;
        value           uniform 0;
    }
    right
    {
        type            calculated;
        value           uniform 0;
    }
    interface
    {
        type            calculated;
        value           nonuniform List<scalar> 
64
(
5.59514
6.30558
7.69081
13.5189
7.21008
4.64727
8.24585
4.71413
2.90587
2.85759
3.9009
6.33962
3.28878
4.45827
7.85202
4.26189
2.79345
5.00893
2.91026
1.82211
1.79521
2.49307
4.05258
2.10375
2.82743
4.91171
2.61976
1.55273
1.52117
2.09161
3.40498
1.77442
2.42993
4.28736
2.33133
1.53236
2.75044
1.59824
0.999336
0.983003
1.35201
2.18769
1.12352
1.4659
2.51486
1.32059
0.783549
1.28595
0.678277
0.300287
0.258647
0.0539243
-0.178364
-0.311897
-1.20395
-2.94296
-2.09393
-2.52667
-6.41067
-4.39362
-0.303273
-0.0776704
-0.0304419
-0.00852067
)
;
    }
    bottom
    {
        type            calculated;
        value           nonuniform List<scalar> 
64
(
0.00773427
0.0229666
0.0375126
0.0509854
0.0630919
0.0736463
0.0825691
0.0898726
0.0956377
0.0999894
0.103074
0.105043
0.106042
0.106209
0.105671
0.104549
0.102959
0.10101
0.0988036
0.0964293
0.093962
0.0914595
0.0889623
0.0864951
0.0840697
0.0816882
0.0793461
0.0770335
0.0747371
0.0724397
0.0701217
0.0677624
0.0653416
0.0628422
0.0602516
0.0575621
0.0547703
0.0518748
0.048874
0.0457639
0.0425366
0.0391808
0.0356837
0.0320338
0.0282253
0.0242613
0.0201581
0.0159474
0.0116782
0.00741762
0.00325063
-0.00072179
-0.0043858
-0.00762009
-0.0103034
-0.0123243
-0.0135914
-0.0140451
-0.0136653
-0.012478
-0.0105553
-0.00801279
-0.00500165
-0.00169991
)
;
    }
    defaultFaces
    {
        type            empty;
    }
}


// ************************************************************************* //
