/*--------------------------------*- C++ -*----------------------------------*\
| =========                 |                                                 |
| \\      /  F ield         | OpenFOAM: The Open Source CFD Toolbox           |
|  \\    /   O peration     | Version:  5.x                                   |
|   \\  /    A nd           | Web:      www.OpenFOAM.org                      |
|    \\/     M anipulation  |                                                 |
\*---------------------------------------------------------------------------*/
FoamFile
{
    version     2.0;
    format      ascii;
    class       volScalarField;
    location    "3.3";
    object      T;
}
// * * * * * * * * * * * * * * * * * * * * * * * * * * * * * * * * * * * * * //

dimensions      [0 0 0 1 0 0 0];

internalField   nonuniform List<scalar> 
2048
(
9.80242
9.80266
9.80314
9.80383
9.80473
9.8058
9.80703
9.80838
9.80984
9.81137
9.81296
9.81459
9.81625
9.81791
9.81957
9.82121
9.82283
9.82443
9.82599
9.82751
9.829
9.83045
9.83186
9.83323
9.83456
9.83586
9.83712
9.83834
9.83952
9.84067
9.84179
9.84286
9.84391
9.84491
9.84587
9.84679
9.84767
9.8485
9.84929
9.85003
9.85072
9.85136
9.85194
9.85247
9.85294
9.85336
9.8537
9.85398
9.8542
9.85435
9.85443
9.85445
9.85441
9.85431
9.85417
9.85399
9.85379
9.85357
9.85335
9.85314
9.85296
9.85281
9.85271
9.85265
9.4157
9.41642
9.41784
9.41991
9.42258
9.42578
9.42943
9.43345
9.43777
9.44232
9.44704
9.45187
9.45677
9.46169
9.4666
9.47147
9.47627
9.48099
9.48561
9.49012
9.49452
9.4988
9.50297
9.50702
9.51096
9.51478
9.5185
9.52211
9.52562
9.52902
9.53231
9.5355
9.53857
9.54154
9.54438
9.54711
9.5497
9.55217
9.5545
9.55669
9.55873
9.56062
9.56235
9.56392
9.56531
9.56653
9.56756
9.5684
9.56903
9.56947
9.56972
9.56977
9.56964
9.56935
9.56892
9.56838
9.56777
9.56711
9.56645
9.56582
9.56528
9.56483
9.56452
9.56436
9.04534
9.04654
9.04889
9.05233
9.05675
9.06203
9.06805
9.07468
9.0818
9.08928
9.09703
9.10496
9.11299
9.12106
9.1291
9.13707
9.14493
9.15264
9.16019
9.16757
9.17475
9.18174
9.18855
9.19516
9.20159
9.20784
9.21391
9.2198
9.22552
9.23107
9.23645
9.24166
9.24668
9.25152
9.25617
9.26062
9.26487
9.2689
9.27271
9.27628
9.27962
9.28271
9.28555
9.28812
9.2904
9.29239
9.29408
9.29545
9.29649
9.29721
9.2976
9.29767
9.29745
9.29696
9.29624
9.29533
9.29429
9.29318
9.29207
9.29102
9.2901
9.28935
9.28883
9.28856
8.69036
8.69203
8.69533
8.70014
8.70631
8.71369
8.72207
8.73127
8.74114
8.7515
8.76221
8.77316
8.78423
8.79534
8.80641
8.81737
8.82817
8.83877
8.84914
8.85925
8.8691
8.87868
8.88801
8.89707
8.90587
8.91443
8.92275
8.93083
8.93867
8.94628
8.95365
8.96079
8.96768
8.97432
8.98071
8.98681
8.99264
8.99817
9.0034
9.00831
9.01289
9.01714
9.02104
9.02457
9.02771
9.03046
9.03278
9.03466
9.03609
9.03707
9.0376
9.03769
9.03736
9.03664
9.03561
9.0343
9.03282
9.03123
9.02964
9.02815
9.02683
9.02577
9.02502
9.02464
8.34984
8.35201
8.35628
8.36249
8.37045
8.37993
8.39069
8.40247
8.41506
8.42826
8.44188
8.45578
8.46982
8.4839
8.4979
8.51176
8.5254
8.53877
8.55184
8.56458
8.57699
8.58905
8.60077
8.61217
8.62325
8.63402
8.64448
8.65464
8.66451
8.67409
8.68337
8.69236
8.70105
8.70942
8.71746
8.72516
8.7325
8.73948
8.74607
8.75226
8.75805
8.76341
8.76833
8.77279
8.77677
8.78024
8.78318
8.78556
8.78737
8.7886
8.78925
8.78933
8.78887
8.78792
8.78654
8.78481
8.78284
8.78075
8.77864
8.77666
8.77491
8.77351
8.77252
8.77202
8.02295
8.02564
8.03092
8.03859
8.0484
8.06004
8.0732
8.08758
8.1029
8.11891
8.13541
8.1522
8.16915
8.18611
8.20297
8.21964
8.23602
8.25207
8.26774
8.283
8.29784
8.31227
8.32629
8.33992
8.35317
8.36604
8.37855
8.39071
8.40251
8.41397
8.42509
8.43585
8.44625
8.45628
8.46592
8.47515
8.48396
8.49232
8.50022
8.50765
8.51459
8.52103
8.52694
8.53231
8.5371
8.54128
8.54482
8.54769
8.54987
8.55134
8.5521
8.55216
8.55155
8.55033
8.54857
8.54638
8.54388
8.54122
8.53855
8.53604
8.53382
8.53204
8.53079
8.53015
7.70894
7.71218
7.71853
7.72774
7.73947
7.75334
7.76896
7.78596
7.80402
7.82284
7.84217
7.86182
7.88162
7.9014
7.92105
7.94044
7.95948
7.97811
7.99628
8.01395
8.03113
8.04781
8.06403
8.07978
8.09509
8.10997
8.12444
8.1385
8.15215
8.16541
8.17828
8.19074
8.2028
8.21443
8.2256
8.23631
8.24652
8.25621
8.26537
8.27399
8.28205
8.28952
8.2964
8.30265
8.30823
8.31311
8.31724
8.32059
8.32313
8.32483
8.32568
8.32571
8.32493
8.32341
8.32124
8.31854
8.31546
8.31218
8.30889
8.30578
8.30305
8.30085
8.29931
8.29852
7.4071
7.41093
7.41842
7.42925
7.443
7.4592
7.47735
7.49703
7.51784
7.53946
7.56161
7.58407
7.60666
7.62921
7.65157
7.67362
7.69524
7.71636
7.73692
7.75691
7.77631
7.79515
7.81345
7.83123
7.84851
7.86531
7.88164
7.89751
7.91294
7.92792
7.94246
7.95656
7.9702
7.98337
7.99602
8.00815
8.01971
8.03069
8.04106
8.05082
8.05995
8.06844
8.07625
8.08336
8.08971
8.09528
8.1
8.10382
8.10671
8.10864
8.10958
8.10955
8.10858
8.10673
8.1041
8.10084
8.09712
8.09315
8.08917
8.08542
8.08212
8.07946
8.0776
8.07665
7.11676
7.12123
7.12996
7.14253
7.15843
7.17705
7.19783
7.22024
7.24383
7.26824
7.29318
7.31842
7.34375
7.36901
7.39402
7.41865
7.44277
7.4663
7.48917
7.51137
7.53289
7.55378
7.57406
7.59377
7.61293
7.63155
7.64966
7.66727
7.68438
7.701
7.71715
7.73282
7.74799
7.76263
7.77672
7.79022
7.80308
7.8153
7.82684
7.8377
7.84786
7.85732
7.86604
7.87398
7.88111
7.88735
7.89265
7.89695
7.90019
7.90233
7.90336
7.90326
7.90208
7.89987
7.89675
7.89287
7.88845
7.88372
7.87897
7.8745
7.87056
7.8674
7.86519
7.86406
6.83731
6.84249
6.85256
6.86701
6.88519
6.90638
6.92987
6.95507
6.98146
7.00866
7.03637
7.06434
7.09237
7.12028
7.14789
7.17504
7.20159
7.22744
7.25252
7.27683
7.30038
7.32321
7.34538
7.36692
7.38786
7.40823
7.42804
7.44729
7.46601
7.48421
7.50189
7.51906
7.5357
7.55178
7.56725
7.58207
7.5962
7.6096
7.62226
7.63417
7.64534
7.65573
7.66533
7.6741
7.68198
7.6889
7.69478
7.69955
7.70314
7.70551
7.70661
7.70644
7.70503
7.70244
7.69878
7.69423
7.68902
7.68346
7.67786
7.67258
7.66795
7.66423
7.66164
7.66031
6.56817
6.57412
6.58566
6.60216
6.62279
6.64668
6.673
6.70105
6.73027
6.76025
6.79069
6.82135
6.85203
6.88255
6.9127
6.94231
6.97122
6.99931
7.02652
7.05284
7.0783
7.10298
7.12692
7.1502
7.17285
7.19488
7.21631
7.23714
7.25739
7.27708
7.29624
7.31485
7.33291
7.35038
7.36719
7.38329
7.39862
7.41317
7.4269
7.43983
7.45195
7.46325
7.47372
7.4833
7.49192
7.49951
7.50597
7.51122
7.51517
7.51776
7.51894
7.51869
7.51704
7.51403
7.50979
7.50451
7.49846
7.49197
7.48543
7.47926
7.47386
7.46953
7.46652
7.46498
6.30878
6.31559
6.32877
6.3475
6.37077
6.39752
6.42678
6.45775
6.48981
6.52256
6.55568
6.58898
6.62226
6.65533
6.68797
6.71999
6.75119
6.78145
6.81069
6.83892
6.8662
6.89261
6.91825
6.94318
6.96745
6.99107
7.01404
7.03637
7.05808
7.0792
7.09976
7.11976
7.1392
7.158
7.17611
7.19345
7.20996
7.2256
7.24037
7.25426
7.2673
7.27948
7.29078
7.30116
7.31052
7.31879
7.32584
7.33157
7.33588
7.33869
7.33996
7.33963
7.33772
7.33428
7.32943
7.32336
7.31638
7.30887
7.30129
7.29415
7.28789
7.2829
7.27945
7.27768
6.05864
6.06641
6.08139
6.10257
6.1287
6.15848
6.1908
6.22474
6.25966
6.29513
6.3309
6.36678
6.40261
6.43818
6.47327
6.50765
6.54108
6.57343
6.60462
6.63466
6.66365
6.69169
6.71892
6.74542
6.77124
6.79637
6.82082
6.84457
6.86766
6.89014
6.91204
6.93339
6.95414
6.97426
6.99363
7.01218
7.02982
7.04651
7.06226
7.07708
7.09099
7.10401
7.11614
7.1273
7.13741
7.14635
7.15399
7.16021
7.16489
7.16795
7.1693
7.1689
7.16673
7.16284
7.15733
7.15041
7.14242
7.1338
7.12508
7.11686
7.10967
7.10397
7.10003
7.09803
5.81723
5.82609
5.84308
5.86695
5.89617
5.92919
5.96468
6.00166
6.03942
6.07757
6.11591
6.15431
6.19263
6.23066
6.26816
6.30485
6.34047
6.37484
6.40789
6.43964
6.47022
6.49979
6.52852
6.55651
6.5838
6.61039
6.63624
6.66135
6.68576
6.70951
6.7327
6.75532
6.77737
6.79876
6.81937
6.83909
6.85782
6.87553
6.89221
6.90789
6.92264
6.93648
6.9494
6.96134
6.97219
6.98181
6.99006
6.99678
7.00185
7.00515
7.0066
7.00613
7.00371
6.99935
6.99316
6.98534
6.97626
6.96642
6.95644
6.94703
6.93883
6.93236
6.92792
6.92567
5.58409
5.59417
5.61341
5.64026
5.67283
5.70927
5.74807
5.78812
5.82871
5.86948
5.91032
5.95116
5.99191
6.03235
6.07223
6.11121
6.14896
6.18528
6.22009
6.25344
6.2855
6.3165
6.34664
6.37603
6.40474
6.43272
6.45993
6.48633
6.51197
6.53694
6.56134
6.5852
6.6085
6.63113
6.65296
6.67382
6.69361
6.71229
6.72985
6.74635
6.76189
6.77651
6.79021
6.80292
6.81452
6.82484
6.8337
6.84093
6.8464
6.84996
6.85151
6.85099
6.84831
6.84349
6.83659
6.82781
6.81756
6.80639
6.79503
6.78431
6.77502
6.76773
6.76277
6.76027
5.35877
5.37022
5.39198
5.42213
5.45835
5.49842
5.54064
5.5838
5.62716
5.67047
5.71371
5.75692
5.80003
5.84285
5.88509
5.92632
5.96616
6.00437
6.04086
6.0757
6.10912
6.14143
6.17288
6.20362
6.23367
6.26301
6.29152
6.31915
6.34594
6.37204
6.3976
6.42265
6.44717
6.47103
6.49405
6.51604
6.53685
6.55645
6.57484
6.59211
6.60839
6.62376
6.63822
6.65169
6.66404
6.67507
6.68456
6.69232
6.69819
6.70203
6.70371
6.70314
6.70023
6.69494
6.68731
6.67753
6.66602
6.65342
6.64054
6.62838
6.6179
6.60976
6.60427
6.60152
5.14083
5.15384
5.17843
5.21223
5.25241
5.29632
5.34208
5.38836
5.43445
5.48018
5.5257
5.57119
5.61661
5.66177
5.70634
5.74982
5.79171
5.83174
5.86981
5.90603
5.94069
5.9742
6.00688
6.03889
6.07025
6.1009
6.13067
6.15945
6.18732
6.21448
6.24113
6.26733
6.29303
6.31812
6.34233
6.36541
6.38721
6.40769
6.42685
6.44483
6.4618
6.47789
6.49309
6.50732
6.52044
6.53219
6.54232
6.55062
6.55691
6.56103
6.56285
6.56226
6.55914
6.55339
6.54502
6.5342
6.52136
6.50719
6.49264
6.4789
6.46715
6.45813
6.45211
6.44912
4.92984
4.94464
4.97239
5.01025
5.05473
5.1027
5.15209
5.20152
5.25024
5.29825
5.34593
5.39361
5.44127
5.48872
5.53563
5.58136
5.62525
5.66704
5.70662
5.74409
5.77986
5.81444
5.84827
5.8815
5.91411
5.94606
5.97705
6.00692
6.03578
6.06391
6.0916
6.1189
6.14576
6.17206
6.19746
6.22162
6.24438
6.26569
6.28556
6.30419
6.3218
6.33857
6.3545
6.36949
6.38338
6.39588
6.40666
6.41551
6.42224
6.42666
6.42864
6.42805
6.42474
6.41856
6.40945
6.39754
6.38328
6.36744
6.35106
6.33558
6.32246
6.31253
6.306
6.30279
4.7254
4.74224
4.77353
4.8159
4.86507
4.91729
4.97041
5.02297
5.0742
5.12434
5.17402
5.22379
5.27363
5.32333
5.3726
5.42059
5.46646
5.50995
5.55095
5.58954
5.62628
5.66182
5.69671
5.73109
5.76493
5.79815
5.83036
5.86124
5.89099
5.92001
5.94867
5.97703
6.00503
6.03256
6.05915
6.08437
6.10806
6.13016
6.15068
6.16988
6.18808
6.2055
6.22214
6.23789
6.25258
6.26584
6.27729
6.2867
6.29387
6.29861
6.30076
6.3002
6.29673
6.29015
6.28031
6.26728
6.25153
6.2339
6.21551
6.1981
6.18352
6.17269
6.16569
6.16229
4.52713
4.5463
4.58154
4.62893
4.6832
4.73984
4.79677
4.85246
4.90605
4.95812
5.00961
5.06138
5.11335
5.16525
5.21692
5.26721
5.315
5.36013
5.40248
5.44206
5.4796
5.51597
5.55187
5.58736
5.62237
5.65688
5.6903
5.72212
5.75266
5.78246
5.81205
5.84144
5.87054
5.89931
5.92712
5.95337
5.97797
6.00083
6.02192
6.04162
6.06033
6.07838
6.09572
6.11221
6.12773
6.14179
6.15391
6.1639
6.17153
6.17658
6.17893
6.17843
6.17485
6.16791
6.15736
6.14317
6.12585
6.10633
6.08573
6.06616
6.05004
6.03834
6.03093
6.02737
4.33462
4.3565
4.39611
4.4491
4.50893
4.57011
4.6309
4.68971
4.74548
4.79925
4.85234
4.90605
4.96008
5.01411
5.06825
5.12092
5.17057
5.2173
5.26093
5.30133
5.33953
5.37657
5.41342
5.44999
5.48612
5.52196
5.55661
5.58929
5.62049
5.65095
5.68143
5.71181
5.74198
5.77203
5.8011
5.82835
5.85383
5.87741
5.89901
5.91911
5.93827
5.95693
5.97496
5.99219
6.00856
6.02346
6.03626
6.04682
6.05493
6.0603
6.06286
6.06244
6.0588
6.05155
6.04033
6.02496
6.00601
5.9845
5.96147
5.93947
5.92174
5.90922
5.90148
5.89781
4.14751
4.17255
4.21694
4.27619
4.34208
4.40786
4.47257
4.53451
4.59221
4.64743
4.70188
4.75747
4.81352
4.86957
4.92628
4.98144
5.03286
5.08113
5.12601
5.16707
5.20574
5.24329
5.28106
5.31868
5.35588
5.3931
5.42903
5.46246
5.49421
5.5252
5.55653
5.58789
5.61907
5.65045
5.68085
5.70905
5.73538
5.75968
5.78167
5.8021
5.82162
5.84087
5.85959
5.87753
5.8948
5.91059
5.92406
5.93521
5.9438
5.9495
5.95228
5.95198
5.94833
5.94084
5.929
5.91241
5.89176
5.86821
5.84251
5.81774
5.79832
5.78509
5.77712
5.77342
3.96542
3.9942
4.04373
4.11
4.18255
4.25284
4.3215
4.38663
4.44595
4.50234
4.55784
4.61532
4.67338
4.73128
4.79072
4.84853
4.90157
4.95136
4.99748
5.03898
5.07794
5.11582
5.15451
5.19317
5.23132
5.27005
5.30736
5.3414
5.37354
5.40491
5.43709
5.46941
5.5015
5.53432
5.56613
5.5952
5.62237
5.64738
5.66966
5.69032
5.7101
5.72996
5.74937
5.76797
5.78621
5.80296
5.81706
5.8288
5.8379
5.84391
5.84693
5.84678
5.84317
5.83552
5.82314
5.80531
5.78288
5.75729
5.72864
5.70066
5.67953
5.66572
5.65767
5.654
3.78796
3.82125
3.87615
3.95036
4.03026
4.10479
4.17746
4.24589
4.30643
4.3637
4.41988
4.47933
4.53937
4.59885
4.66127
4.72199
4.77639
4.82768
4.8751
4.91679
4.95586
4.99382
5.0335
5.0732
5.11215
5.15253
5.19138
5.22584
5.25824
5.28978
5.32287
5.35613
5.38899
5.42338
5.45674
5.48656
5.51456
5.5403
5.56274
5.58353
5.60345
5.62396
5.64407
5.66324
5.68255
5.70034
5.71501
5.72735
5.737
5.74329
5.74655
5.74657
5.74309
5.73536
5.72254
5.70342
5.67912
5.65157
5.61966
5.5879
5.56508
5.55092
5.54294
5.53938
3.61474
3.65358
3.71387
3.79709
3.88519
3.96341
4.04016
4.11214
4.17336
4.23123
4.28761
4.34922
4.41129
4.4719
4.53767
4.60164
4.65702
4.70982
4.75867
4.80021
4.83923
4.87698
4.91778
4.95857
4.99803
5.04033
5.08093
5.11557
5.14807
5.17953
5.21362
5.24785
5.28124
5.3174
5.35251
5.38285
5.4117
5.43827
5.46067
5.48151
5.5014
5.52263
5.54346
5.56308
5.58358
5.60254
5.61768
5.63062
5.64086
5.64739
5.65091
5.65112
5.64783
5.64012
5.627
5.60655
5.58025
5.55094
5.51545
5.47914
5.45473
5.44048
5.43277
5.42939
3.44534
3.49116
3.55646
3.65005
3.74743
3.82835
3.90932
3.98529
4.04643
4.10471
4.16061
4.22475
4.28896
4.35
4.41965
4.4874
4.54312
4.59749
4.64805
4.68899
4.72782
4.76496
4.80713
4.84907
4.88863
4.93319
4.9759
5.01032
5.04282
5.07384
5.10913
5.14439
5.17794
5.21616
5.25331
5.28383
5.31355
5.34109
5.36322
5.38403
5.40368
5.42578
5.44738
5.46721
5.48908
5.50939
5.52482
5.53839
5.54928
5.55598
5.55977
5.56019
5.55716
5.54957
5.53636
5.51447
5.486
5.45531
5.41587
5.37398
5.34822
5.33424
5.327
5.32389
3.2793
3.33413
3.40344
3.50911
3.61714
3.6992
3.78465
3.86529
3.9253
3.98393
4.03845
4.10572
4.17225
4.23267
4.30695
4.37921
4.43433
4.49042
4.54312
4.58281
4.62144
4.65739
4.70133
4.74458
4.78358
4.8309
4.87619
4.90984
4.94231
4.9724
5.00922
5.04561
5.07874
5.11944
5.15903
5.18921
5.21989
5.24865
5.27015
5.29093
5.31003
5.33321
5.35566
5.37536
5.39886
5.42075
5.43618
5.45043
5.46208
5.46882
5.47291
5.47354
5.47087
5.46348
5.45044
5.427
5.39607
5.36464
5.32086
5.27201
5.24533
5.23205
5.22549
5.22274
3.11609
3.1828
3.25416
3.37415
3.49466
3.57541
3.66583
3.7522
3.80958
3.86876
3.92059
3.99196
4.06115
4.11935
4.19935
4.27714
4.33021
4.3883
4.44383
4.48136
4.51992
4.55388
4.60022
4.64499
4.68245
4.73325
4.78178
4.81386
4.84638
4.87485
4.91371
4.95141
4.98327
5.02704
5.06963
5.09869
5.13049
5.16083
5.18121
5.20203
5.22014
5.24474
5.26817
5.28721
5.31272
5.3365
5.35152
5.36653
5.3791
5.38569
5.39013
5.39094
5.38873
5.38161
5.36913
5.34397
5.31011
5.27893
5.23042
5.1727
5.14586
5.13379
5.12811
5.12578
2.95509
3.03773
3.10783
3.24504
3.38046
3.45633
3.55249
3.64621
3.69879
3.75917
3.80644
3.88334
3.95571
4.00938
4.09662
4.18136
4.23027
4.29084
4.35021
4.38427
4.42319
4.45398
4.50364
4.55031
4.58475
4.64004
4.69272
4.72203
4.75495
4.78079
4.82246
4.86177
4.89109
4.93877
4.98515
5.01192
5.0451
5.0776
5.09612
5.11722
5.1337
5.16023
5.18483
5.20245
5.23047
5.25659
5.27055
5.28647
5.30018
5.30636
5.31125
5.31218
5.31055
5.30372
5.29231
5.26522
5.22772
5.19825
5.14463
5.07545
5.04965
5.03936
5.03475
5.0329
2.79554
2.89987
2.96335
3.12171
3.27529
3.34109
3.44428
3.54763
3.59232
3.65526
3.69528
3.77977
3.85615
3.90194
3.99855
4.0922
4.13391
4.19772
4.26239
4.29109
4.33124
4.35717
4.41149
4.46059
4.48992
4.55108
4.60914
4.63398
4.668
4.68978
4.73537
4.77672
4.8017
4.85445
4.90568
4.92852
4.9635
4.99894
5.01458
5.03644
5.05036
5.07955
5.1056
5.12069
5.15196
5.18099
5.193
5.21007
5.22523
5.23058
5.23608
5.23704
5.23615
5.22954
5.21991
5.19061
5.14839
5.12273
5.06363
4.97952
4.95661
4.94867
4.94529
4.94395
2.63651
2.77055
2.81933
3.00406
3.18015
3.22857
3.3408
3.45699
3.48938
3.55732
3.58624
3.68123
3.76284
3.79606
3.90495
4.01014
4.04041
4.10862
4.18064
4.20129
4.24419
4.26284
4.3237
4.37601
4.39726
4.4662
4.53126
4.54922
4.5856
4.60129
4.65234
4.6964
4.71451
4.77391
4.83144
4.84802
4.88543
4.92496
4.93622
4.95968
4.96972
5.0026
5.03052
5.0415
5.07701
5.10975
5.11853
5.13713
5.15417
5.15811
5.16449
5.1653
5.16535
5.1588
5.1519
5.12006
5.0715
5.05259
4.98773
4.884
4.86671
4.86167
4.85962
4.85881
2.47687
2.65171
2.67392
2.89205
3.09638
3.11737
3.24161
3.37505
3.38893
3.46586
3.47823
3.58776
3.67634
3.69054
3.81566
3.93591
3.94884
4.02321
4.10537
4.11415
4.16231
4.17025
4.24022
4.2969
4.30596
4.38525
4.45946
4.46712
4.50798
4.51466
4.57334
4.62106
4.62879
4.697
4.76277
4.76985
4.81066
4.8558
4.8606
4.88703
4.89132
4.92928
4.95969
4.96439
5.0055
5.04298
5.04677
5.06747
5.08695
5.08866
5.09633
5.09675
5.09802
5.09117
5.08827
5.05355
4.99631
4.98812
4.91735
4.78778
4.78005
4.7783
4.77762
4.77735
)
;

boundaryField
{
    left
    {
        type            zeroGradient;
    }
    right
    {
        type            zeroGradient;
    }
    interface
    {
        type            fixedValue;
        value           nonuniform List<scalar> 
64
(
2.39421
2.59766
2.59766
2.83766
3.06028
3.06028
3.19288
3.33816
3.33816
3.42286
3.42286
3.54263
3.63602
3.63602
3.77214
3.90246
3.90246
3.98125
4.07052
4.07052
4.12336
4.12336
4.19977
4.25948
4.25948
4.34582
4.42611
4.42611
4.47094
4.47094
4.53502
4.5853
4.5853
4.65947
4.73076
4.73076
4.774
4.82307
4.82307
4.85211
4.85211
4.89365
4.92574
4.92574
4.97064
5.01124
5.01124
5.03345
5.05457
5.05457
5.06322
5.06322
5.06533
5.05802
5.05802
5.02164
4.95826
4.95826
4.88451
4.73754
4.73754
4.73754
4.73754
4.73754
)
;
    }
    bottom
    {
        type            fixedValue;
        value           uniform 10;
    }
    defaultFaces
    {
        type            empty;
    }
}


// ************************************************************************* //
