/*--------------------------------*- C++ -*----------------------------------*\
| =========                 |                                                 |
| \\      /  F ield         | OpenFOAM: The Open Source CFD Toolbox           |
|  \\    /   O peration     | Version:  5.x                                   |
|   \\  /    A nd           | Web:      www.OpenFOAM.org                      |
|    \\/     M anipulation  |                                                 |
\*---------------------------------------------------------------------------*/
FoamFile
{
    version     2.0;
    format      ascii;
    class       volScalarField;
    location    "19.6";
    object      gradTx;
}
// * * * * * * * * * * * * * * * * * * * * * * * * * * * * * * * * * * * * * //

dimensions      [0 -1 0 1 0 0 0];

internalField   nonuniform List<scalar> 
6300
(
-15.0392
-14.8209
-14.3868
-13.742
-12.8948
-11.8575
-10.6473
-9.28674
-7.80488
-6.23725
-4.62546
-3.0159
-1.45739
0.00209388
1.31914
-15.2577
-15.037
-14.5978
-13.9446
-13.0851
-12.0308
-10.7978
-9.40831
-7.89094
-6.28169
-4.62351
-2.96514
-1.35864
0.144224
1.49644
-15.6972
-15.4719
-15.0229
-14.3538
-13.4706
-12.3829
-11.1052
-9.65798
-8.06915
-6.37533
-4.62204
-2.86281
-1.15656
0.436745
1.86208
-16.3622
-16.1307
-15.6684
-14.9772
-14.0607
-12.9254
-11.5825
-10.0495
-8.35261
-6.52874
-4.62682
-2.70777
-0.841875
0.896902
2.43938
-17.2589
-17.0205
-16.5431
-15.8263
-14.8698
-13.6757
-12.25
-10.6051
-8.76336
-6.76047
-4.64901
-2.49987
-0.400353
1.55307
3.26755
-18.3942
-18.1494
-17.6577
-16.9151
-15.9167
-14.658
-13.1371
-11.358
-9.33549
-7.10105
-4.70917
-2.24266
0.186968
2.44786
4.40761
-19.7746
-19.5255
-19.0233
-18.26
-17.2242
-15.9028
-14.2825
-12.3544
-10.1199
-7.59934
-4.84425
-1.94887
0.942726
3.64348
5.95334
-21.4042
-21.155
-20.6503
-19.8775
-18.8177
-17.4465
-15.736
-13.6577
-11.1905
-8.33245
-5.11993
-1.65157
1.88902
5.22971
8.05085
-23.2833
-23.0403
-22.5457
-21.7822
-20.7226
-19.33
-17.5574
-15.3502
-12.6521
-9.42033
-5.65171
-1.42681
3.03491
7.33519
10.9358
-25.4055
-25.1773
-24.7104
-23.9831
-22.9609
-21.5937
-19.8138
-17.5336
-14.6479
-11.0453
-6.64004
-1.43917
4.34194
10.14
15.0087
-27.7562
-27.5531
-27.1356
-26.4792
-25.5442
-24.2704
-22.5707
-20.3227
-17.3607
-13.4732
-8.42426
-2.03205
5.63167
13.8738
20.9999
-30.3102
-30.1437
-29.7997
-29.2542
-28.4667
-27.3733
-25.8761
-23.8262
-20.9991
-17.0629
-11.552
-3.89678
6.34263
18.7231
30.3743
-33.0307
-32.912
-32.6655
-32.2714
-31.6951
-30.8801
-29.7343
-28.107
-25.747
-22.2277
-16.8242
-8.34606
4.91209
24.3013
46.4588
-35.8702
-35.8083
-35.6791
-35.4709
-35.1626
-34.7178
-34.0741
-33.1209
-31.6542
-29.2768
-25.1715
-17.5757
-2.65001
27.1106
78.1143
-38.7718
-38.7719
-38.7718
-38.7707
-38.7666
-38.7546
-38.7235
-38.6485
-38.4722
-38.054
-37.0095
-34.1355
-25.0475
8.67611
153.878
2.37833
3.18844
3.85106
4.36399
4.73035
4.95762
5.05652
5.03983
4.92129
4.71475
4.4335
4.08979
3.69466
3.25776
2.78745
2.29083
1.7739
1.24169
0.698397
0.147547
-0.407912
-0.965496
-1.5231
-2.07894
-2.6315
-3.17948
-3.72184
-4.25772
-4.7865
-5.30775
-5.82128
-6.32705
-6.82521
-7.31601
-7.79974
-8.27673
-8.7472
-9.21132
-9.66909
-10.1204
-10.565
-11.0027
-11.4332
-11.8562
-12.2717
-12.6798
-13.0806
-13.4746
-13.8621
-14.2438
-14.6199
-14.9906
-15.356
-15.7158
-16.0692
-16.4156
-16.7537
-17.0825
-17.4007
-17.7074
-18.0013
-18.2818
-18.5479
-18.7988
-19.0338
-19.2515
-19.4505
-19.6288
-19.7838
-19.9126
-20.0116
-20.0771
-20.1051
-20.0919
-20.0338
-19.9279
-19.772
-19.5644
-19.3046
-18.993
-18.6307
-18.2199
-17.7638
-17.2664
-16.7324
-16.1676
-15.5784
-14.972
-14.3559
-13.7379
2.57873
3.40049
4.0663
4.57476
4.93035
5.14219
5.22271
5.18623
5.04776
4.82212
4.5232
4.16364
3.75459
3.30569
2.82516
2.31992
1.79575
1.2575
0.70915
0.154063
-0.404963
-0.965565
-1.52574
-2.08375
-2.63814
-3.18765
-3.73121
-4.26799
-4.79736
-5.31891
-5.83245
-6.33802
-6.83581
-7.32616
-7.80944
-8.28606
-8.75632
-9.22041
-9.67833
-10.1299
-10.575
-11.0131
-11.4438
-11.867
-12.2824
-12.6901
-13.0904
-13.4837
-13.8706
-14.2516
-14.6274
-14.9982
-15.3641
-15.7246
-16.0793
-16.4272
-16.767
-17.0975
-17.4173
-17.7254
-18.0206
-18.3022
-18.5695
-18.8218
-19.0583
-19.2783
-19.4801
-19.662
-19.8215
-19.9553
-20.0597
-20.1308
-20.1644
-20.1562
-20.1024
-19.9999
-19.8461
-19.6394
-19.3792
-19.0657
-18.7002
-18.2851
-17.8232
-17.3188
-16.7766
-16.2025
-15.6031
-14.9858
-14.3585
-13.7294
2.99189
3.83683
4.50783
5.0054
5.33706
5.51561
5.55713
5.47922
5.29953
5.03476
4.70002
4.30857
3.87172
3.39899
2.89828
2.37609
1.83776
1.28769
0.729483
0.166135
-0.39985
-0.966353
-1.53155
-2.09386
-2.65189
-3.20442
-3.7504
-4.28897
-4.81951
-5.3416
-5.85513
-6.36019
-6.85713
-7.34645
-7.82873
-8.30453
-8.7743
-9.23832
-9.6966
-10.1489
-10.5949
-11.0338
-11.4653
-11.8888
-12.304
-12.711
-13.1101
-13.5019
-13.8872
-14.267
-14.642
-15.0128
-15.3795
-15.7419
-16.0992
-16.4502
-16.7936
-17.1276
-17.4508
-17.7618
-18.0595
-18.3432
-18.6125
-18.8671
-19.1067
-19.3308
-19.5383
-19.7275
-19.8958
-20.0399
-20.1557
-20.2385
-20.2835
-20.2859
-20.2411
-20.1455
-19.9962
-19.7913
-19.5301
-19.213
-18.8413
-18.4172
-17.9438
-17.4253
-16.8666
-16.2737
-15.6534
-15.0138
-14.3635
-13.7116
3.64399
4.52332
5.19881
5.67463
5.96395
6.08604
6.06324
5.9185
5.67356
5.34791
4.95829
4.51864
4.04031
3.53239
3.00214
2.45532
1.89653
1.32946
0.757086
0.181883
-0.394103
-0.969118
-1.54162
-2.11022
-2.67364
-3.23068
-3.78029
-4.32157
-4.85383
-5.37666
-5.88999
-6.39405
-6.88942
-7.37687
-7.85731
-8.33163
-8.80053
-9.26444
-9.7234
-10.177
-10.6247
-11.0654
-11.4982
-11.9224
-12.3374
-12.7431
-13.1401
-13.5293
-13.9118
-14.2891
-14.6626
-15.0331
-15.401
-15.7663
-16.1279
-16.4842
-16.8334
-17.1732
-17.5016
-17.817
-18.1182
-18.4047
-18.6764
-18.9338
-19.1773
-19.4071
-19.6227
-19.8228
-20.0049
-20.1652
-20.2989
-20.4005
-20.4639
-20.4832
-20.4528
-20.3683
-20.226
-20.0241
-19.7615
-19.4388
-19.0575
-18.6199
-18.1293
-17.5896
-17.0058
-16.3839
-15.7314
-15.057
-14.3706
-13.6829
4.57909
5.50303
6.17703
6.61211
6.83137
6.86484
6.74468
6.50179
6.16355
5.75294
5.28839
4.78422
4.2513
3.69777
3.1297
2.55164
1.96708
1.3787
0.788642
0.198638
-0.389864
-0.975598
-1.5574
-2.13412
-2.70461
-3.2677
-3.82224
-4.3672
-4.90176
-5.42544
-5.93819
-6.44045
-6.93309
-7.41736
-7.89469
-8.36649
-8.83392
-9.29765
-9.75779
-10.2137
-10.6644
-11.1082
-11.5436
-11.9691
-12.3839
-12.7878
-13.1814
-13.5661
-13.9438
-14.3168
-14.6872
-15.0568
-15.4264
-15.7959
-16.1639
-16.5284
-16.8865
-17.235
-17.5711
-17.8926
-18.198
-18.4872
-18.7608
-19.0203
-19.2674
-19.5036
-19.7293
-19.944
-20.1451
-20.3284
-20.4882
-20.6172
-20.7076
-20.7517
-20.7424
-20.6738
-20.5418
-20.3438
-20.0793
-19.7489
-19.3546
-18.8989
-18.3852
-17.8172
-17.1996
-16.5382
-15.8409
-15.1173
-14.3795
-13.6404
5.86612
6.84236
7.49899
7.86007
7.96607
7.86455
7.6026
7.22211
6.75751
6.2354
5.67531
5.09099
4.49178
3.8839
3.27145
2.65718
2.04297
1.43022
0.819991
0.213111
-0.389716
-0.987841
-1.58057
-2.16707
-2.74632
-3.31709
-3.87804
-4.42783
-4.96538
-5.48997
-6.00153
-6.50069
-6.98881
-7.46783
-7.94001
-8.40762
-8.87256
-9.33601
-9.79814
-10.258
-10.7138
-11.163
-11.603
-12.0312
-12.4461
-12.8472
-13.2354
-13.6128
-13.9824
-14.348
-14.713
-15.0804
-15.4518
-15.8272
-16.205
-16.5817
-16.9531
-17.3145
-17.6616
-17.991
-18.3011
-18.592
-18.8654
-19.1246
-19.3732
-19.6148
-19.8517
-20.0844
-20.3106
-20.5256
-20.7216
-20.8892
-21.0178
-21.097
-21.1171
-21.0706
-20.9522
-20.7593
-20.4917
-20.1509
-19.7397
-19.2613
-18.719
-18.1161
-17.4561
-16.7442
-15.9879
-15.1982
-14.3898
-13.5802
7.61164
8.64164
9.24626
9.47506
9.39934
9.09501
8.63095
8.06328
7.43402
6.7723
6.0969
5.41897
4.74454
4.07643
3.41567
2.76245
2.11662
1.47799
0.846388
0.221634
-0.396442
-1.00795
-1.61279
-2.21055
-2.8003
-3.38068
-3.94993
-4.50616
-5.04766
-5.57328
-6.08271
-6.57683
-7.05764
-7.52812
-7.99187
-8.45256
-8.91333
-9.37622
-9.84164
-10.3082
-10.7727
-11.2312
-11.6791
-12.1123
-12.528
-12.9252
-13.3049
-13.6705
-14.0268
-14.3798
-14.7352
-15.0981
-15.4713
-15.8552
-16.2473
-16.6425
-17.0341
-17.4146
-17.7773
-18.1171
-18.4317
-18.7216
-18.9904
-19.2438
-19.4889
-19.7325
-19.98
-20.2338
-20.4924
-20.7497
-20.9957
-21.217
-21.3991
-21.527
-21.5876
-21.5706
-21.4697
-21.2822
-21.0092
-20.6541
-20.2214
-19.7156
-19.1401
-18.4969
-17.7874
-17.0139
-16.1827
-15.3057
-14.402
-13.4959
9.98299
11.0532
11.5345
11.5283
11.1616
10.5553
9.80826
8.99293
8.15703
7.32867
6.5219
5.74173
4.98802
4.25819
3.54888
2.85691
2.17975
1.51552
0.862807
0.220435
-0.412727
-1.03773
-1.65531
-2.26561
-2.86785
-3.46034
-4.0406
-4.60572
-5.15287
-5.67989
-6.18598
-6.67213
-7.14131
-7.5981
-8.04813
-8.49734
-8.951
-9.41274
-9.88349
-10.361
-10.8403
-11.3146
-11.7763
-12.2186
-12.6366
-13.0281
-13.3947
-13.7413
-14.076
-14.4079
-14.7467
-15.1006
-15.4751
-15.8712
-16.2851
-16.7085
-17.1308
-17.5401
-17.9256
-18.2795
-18.5977
-18.8815
-19.1372
-19.3749
-19.6065
-19.8444
-20.0989
-20.3761
-20.6757
-20.9901
-21.305
-21.6014
-21.8581
-22.0538
-22.1696
-22.1915
-22.1115
-21.9281
-21.6449
-21.2689
-20.8083
-20.27
-19.6583
-18.9731
-18.2105
-17.3668
-16.4432
-15.4515
-14.4175
-13.378
13.253
14.3124
14.5243
14.1005
13.2686
12.2179
11.0838
9.95198
8.86897
7.85376
6.9084
6.02617
5.19693
4.41024
3.65695
2.92992
2.22413
1.53632
0.86423
0.205876
-0.440859
-1.07826
-1.70839
-2.33232
-2.9495
-3.55766
-4.1531
-4.73119
-5.28707
-5.81667
-6.31794
-6.79188
-7.24281
-7.67778
-8.10556
-8.53565
-8.97701
-9.43624
-9.91552
-10.4113
-10.9152
-11.4159
-11.9013
-12.36
-12.7832
-13.1668
-13.5129
-13.8295
-14.1289
-14.426
-14.7363
-15.0735
-15.4477
-15.8616
-16.3089
-16.7762
-17.2459
-17.6995
-18.1196
-18.4929
-18.8129
-19.0818
-19.31
-19.5144
-19.7149
-19.9323
-20.1851
-20.486
-20.8376
-21.2296
-21.6406
-22.0428
-22.4047
-22.6953
-22.8868
-22.9589
-22.902
-22.7173
-22.414
-22.0056
-21.5067
-20.93
-20.2824
-19.5604
-18.7503
-17.8345
-16.8017
-15.6583
-14.4406
-13.2106
17.8922
18.7918
18.4289
17.2602
15.6904
14.0003
12.356
10.8406
9.48308
8.27808
7.20382
6.23411
5.34437
4.51402
3.72706
2.97218
2.24247
1.53438
0.845756
0.174482
-0.482523
-1.12935
-1.77045
-2.40882
-3.0442
-3.67335
-4.29062
-4.88866
-5.45912
-5.99428
-6.48926
-6.94473
-7.3673
-7.76779
-8.15963
-8.55772
-8.97723
-9.43079
-9.92377
-10.4498
-10.9944
-11.5392
-12.0647
-12.5523
-12.9866
-13.3596
-13.6736
-13.9422
-14.185
-14.4252
-14.6867
-14.9932
-15.3631
-15.8036
-16.3037
-16.8401
-17.3843
-17.9071
-18.3807
-18.783
-19.1017
-19.3403
-19.517
-19.6593
-19.7989
-19.969
-20.2018
-20.5228
-20.9413
-21.4413
-21.9889
-22.5418
-23.054
-23.4794
-23.7757
-23.9118
-23.8764
-23.6772
-23.3343
-22.8722
-22.3169
-21.6921
-21.0131
-20.2746
-19.4423
-18.4705
-17.3192
-15.9721
-14.4813
-12.9643
24.7755
25.0888
23.4934
20.997
18.2849
15.7163
13.4422
11.5017
9.87739
8.51396
7.34847
6.32669
5.40611
4.55516
3.75077
2.97803
2.22954
1.50426
0.802168
0.122422
-0.538944
-1.18877
-1.83651
-2.48969
-3.14791
-3.8062
-4.45587
-5.08589
-5.68202
-6.22975
-6.71747
-7.14496
-7.52357
-7.87023
-8.20465
-8.54893
-8.92835
-9.36855
-9.88433
-10.4615
-11.0734
-11.6903
-12.2828
-12.821
-13.2785
-13.6369
-13.8998
-14.0918
-14.2448
-14.3933
-14.5726
-14.8211
-15.1767
-15.6598
-16.2459
-16.8925
-17.5535
-18.1852
-18.7444
-19.1931
-19.5058
-19.6877
-19.7734
-19.8078
-19.8387
-19.9153
-20.0912
-20.419
-20.9276
-21.584
-22.3295
-23.0991
-23.8283
-24.449
-24.8948
-25.1117
-25.0861
-24.8441
-24.4257
-23.8729
-23.227
-22.5321
-21.8292
-21.1238
-20.3347
-19.3651
-18.1183
-16.4925
-14.5595
-12.5777
35.6979
34.1338
29.8552
25.0441
20.6723
17.0075
14.0475
11.707
9.89581
8.46458
7.28595
6.27335
5.3674
4.52904
3.72874
2.94881
2.183
1.4406
0.726269
0.0437692
-0.612089
-1.25131
-1.89483
-2.56336
-3.25158
-3.9515
-4.64948
-5.33192
-5.97461
-6.55167
-7.0324
-7.41555
-7.72585
-7.99027
-8.23542
-8.48951
-8.79188
-9.1974
-9.75651
-10.4229
-11.1452
-11.8762
-12.5788
-13.2061
-13.7127
-14.0516
-14.2281
-14.2973
-14.3111
-14.3169
-14.3584
-14.4949
-14.8066
-15.3674
-16.1009
-16.9241
-17.7647
-18.5677
-19.267
-19.7987
-20.0982
-20.1735
-20.1036
-19.9611
-19.8125
-19.7185
-19.7618
-20.0546
-20.7009
-21.5982
-22.6351
-23.7143
-24.7587
-25.6701
-26.3435
-26.6606
-26.607
-26.2649
-25.7104
-25.0075
-24.2071
-23.3834
-22.6488
-22.0934
-21.4867
-20.6586
-19.4629
-17.4552
-14.7078
-11.9038
54.8005
47.0872
36.9835
28.4587
22.0418
17.2836
13.7607
11.1501
9.36687
8.05128
6.98416
6.06626
5.23122
4.44794
3.67723
2.89912
2.10262
1.33643
0.604447
-0.0733213
-0.709254
-1.30772
-1.9172
-2.60869
-3.33846
-4.09964
-4.86545
-5.63522
-6.36172
-7.01232
-7.48782
-7.79101
-7.99419
-8.13802
-8.25331
-8.3605
-8.50684
-8.80503
-9.47412
-10.3038
-11.2044
-12.1032
-12.983
-13.7651
-14.3884
-14.6999
-14.7106
-14.5825
-14.3887
-14.189
-14.0076
-13.916
-14.0777
-14.8264
-15.8266
-16.9303
-18.0301
-19.0991
-20.0307
-20.7388
-21.0129
-20.8684
-20.5379
-20.1229
-19.7076
-19.3238
-19.0729
-19.1809
-20.1126
-21.4114
-22.8795
-24.3792
-25.8806
-27.2338
-28.3049
-28.743
-28.5433
-27.9911
-27.2088
-26.2823
-25.2207
-24.1063
-23.2101
-23.1365
-22.9573
-22.4815
-21.9765
-19.4831
-14.9373
-10.5533
92.9131
63.4817
41.8375
28.8374
21.022
15.7806
12.16
9.40135
8.16435
7.27996
6.4673
5.73966
5.0203
4.34853
3.63622
2.87572
1.97844
1.18284
0.40442
-0.250774
-0.860478
-1.34833
-1.82155
-2.59896
-3.38013
-4.24115
-5.07577
-6.00086
-6.85812
-7.72511
-8.19137
-8.31048
-8.34796
-8.32682
-8.28281
-8.17507
-8.0031
-7.87848
-8.96049
-10.0823
-11.2661
-12.3573
-13.5278
-14.5525
-15.5128
-15.7813
-15.3929
-14.9624
-14.4745
-14.0346
-13.5273
-12.9724
-12.5033
-13.9229
-15.4031
-16.9421
-18.3397
-19.8281
-21.1161
-22.3036
-22.5304
-21.8308
-21.0939
-20.2852
-19.5569
-18.7374
-17.867
-17.1209
-18.9953
-20.9804
-23.0784
-25.0413
-27.2156
-29.2033
-31.1777
-31.7435
-30.9869
-30.0483
-28.9145
-27.7515
-26.3098
-24.5148
-22.5867
-24.3314
-24.8546
-24.3463
-27.353
-24.4665
-14.9333
-7.4359
181.68
68.6619
34.2434
21.7498
16.2953
11.9435
9.31764
5.46131
6.45391
6.40519
5.82783
5.40098
4.74069
4.30731
3.66445
3.04915
1.70767
1.00442
0.0268372
-0.493819
-1.18724
-1.4101
-1.2879
-2.58387
-3.30688
-4.42068
-5.15582
-6.46421
-7.3405
-9.01496
-9.39478
-8.94747
-8.78612
-8.54854
-8.40403
-8.08211
-7.43113
-5.21432
-8.38948
-9.77157
-11.4609
-12.4973
-14.2822
-15.4326
-17.6334
-17.8085
-16.1359
-15.4245
-14.4913
-13.977
-13.1154
-11.9049
-8.209
-12.9323
-14.8947
-17.1571
-18.5187
-20.8453
-22.3459
-25.2518
-25.3814
-22.847
-21.7529
-20.3314
-19.5377
-18.224
-16.4821
-11.2874
-17.7185
-20.3866
-23.4718
-25.3988
-28.8191
-31.1916
-36.0787
-36.6479
-33.6923
-32.3865
-30.662
-29.6219
-27.9072
-25.1149
-16.674
-27.2853
-28.2372
-21.1494
-41.2154
-39.0208
-11.9979
0.399958
-13.0656
-12.3508
-11.6671
-11.0239
-10.4283
-9.88542
-9.39825
-8.96828
-8.59573
-8.27994
-8.01976
-7.81381
-7.66074
-7.5594
-7.50894
-13.0456
-12.3196
-11.6266
-10.9762
-10.3756
-9.82957
-9.34095
-8.91078
-8.53888
-8.22425
-7.96545
-7.76085
-7.60894
-7.50843
-7.45842
-13.0041
-12.2552
-11.5433
-10.8785
-10.2681
-9.71625
-9.22512
-8.79492
-8.42467
-8.11267
-7.85685
-7.65514
-7.50567
-7.40691
-7.3578
-12.9383
-12.1536
-11.4128
-10.7265
-10.1018
-9.54215
-9.04825
-8.61901
-8.25215
-7.94481
-7.69406
-7.49712
-7.3516
-7.25566
-7.20801
-12.8431
-12.0081
-11.2275
-10.5128
-9.87046
-9.30217
-8.80664
-8.38065
-8.02
-7.72031
-7.47739
-7.28759
-7.1479
-7.05605
-7.0105
-12.7106
-11.8082
-10.9761
-10.2268
-9.5649
-8.98932
-8.49542
-8.07685
-7.72684
-7.43895
-7.20753
-7.02788
-6.8963
-6.81006
-6.76738
-12.5287
-11.5378
-10.6419
-9.85323
-9.17292
-8.5947
-8.10878
-7.70442
-7.37147
-7.10104
-6.88583
-6.72004
-6.59929
-6.52045
-6.48152
-12.2782
-11.1723
-10.2002
-9.37124
-8.67877
-8.1077
-7.64049
-7.26052
-6.95349
-6.70785
-6.51464
-6.36709
-6.2603
-6.19086
-6.15666
-11.9272
-10.6731
-9.61518
-8.75271
-8.06314
-7.51674
-7.0849
-6.7436
-6.47405
-6.26218
-6.09772
-5.97332
-5.88389
-5.82599
-5.79754
-11.4196
-9.97772
-8.83464
-7.9612
-7.30429
-6.81115
-6.4387
-6.15486
-5.93688
-5.76904
-5.64067
-5.54454
-5.47588
-5.43162
-5.40991
-10.6503
-8.98341
-7.78434
-6.95309
-6.38159
-5.98481
-5.70383
-5.5002
-5.34949
-5.23639
-5.15131
-5.08823
-5.04344
-5.01463
-5.00053
-9.40902
-7.52113
-6.36612
-5.68515
-5.28411
-5.04262
-4.89157
-4.79255
-4.72445
-4.67568
-4.63989
-4.6136
-4.59494
-4.5829
-4.57699
-7.25465
-5.32592
-4.47383
-4.13722
-4.02705
-4.00994
-4.02722
-4.05394
-4.08002
-4.10194
-4.11892
-4.13131
-4.13978
-4.145
-4.14749
-3.24045
-2.05401
-2.06599
-2.3628
-2.67687
-2.94283
-3.15341
-3.31592
-3.43973
-3.53309
-3.6025
-3.65288
-3.68782
-3.70981
-3.72043
4.65224
2.41635
0.626685
-0.571108
-1.37479
-1.93108
-2.32765
-2.61655
-2.82986
-2.98816
-3.10508
-3.18987
-3.24877
-3.28596
-3.30395
-41.4317
-41.4889
-41.6078
-41.7985
-42.0778
-42.4726
-43.0258
-43.8083
-44.9441
-46.6741
-49.5381
-55.0118
-68.1613
-110.411
-287.548
-43.8102
-43.916
-44.1363
-44.4896
-45.0078
-45.7426
-46.778
-48.2537
-50.4151
-53.7232
-59.1155
-68.6598
-87.1467
-125.001
-193.804
-46.1152
-46.2638
-46.5725
-47.0662
-47.7874
-48.804
-50.2243
-52.2229
-55.0899
-59.3249
-65.8098
-76.0979
-92.6823
-118.099
-147.84
-48.3171
-48.5004
-48.8804
-49.485
-50.3618
-51.5852
-53.2692
-55.589
-58.8149
-63.3641
-69.8628
-79.1634
-92.0841
-108.195
-122.528
-50.3917
-50.6007
-51.0322
-51.7148
-52.6957
-54.0465
-55.8726
-58.3259
-61.621
-66.0495
-71.9701
-79.7148
-89.2706
-99.5253
-107.169
-52.3212
-52.5465
-53.0098
-53.7376
-54.7727
-56.1778
-58.0405
-60.4781
-63.64
-67.6989
-72.8108
-79.0083
-85.9715
-92.6689
-97.1176
-54.0943
-54.3271
-54.8037
-55.547
-56.5927
-57.9914
-59.8091
-62.1273
-65.0363
-68.6169
-72.8976
-77.7701
-82.8571
-87.3739
-90.1557
-55.7058
-55.9384
-56.4124
-57.1463
-58.1678
-59.514
-61.2303
-63.3662
-65.966
-69.0488
-72.5734
-76.3828
-80.1385
-83.2837
-85.1256
-57.1559
-57.382
-57.8408
-58.546
-59.5173
-60.7796
-62.36
-64.283
-66.5603
-69.174
-72.0514
-75.0328
-77.8438
-80.0986
-81.3744
-58.4491
-58.6639
-59.0982
-59.761
-60.6649
-61.8242
-63.2518
-64.9538
-66.921
-69.116
-71.457
-73.8011
-75.9354
-77.5934
-78.5091
-59.5931
-59.7934
-60.1968
-60.8086
-61.6352
-62.6826
-63.953
-65.4405
-67.1235
-68.9566
-70.8607
-72.7149
-74.3578
-75.6035
-76.2798
-60.5981
-60.7819
-61.1509
-61.707
-62.4521
-63.386
-64.5036
-65.7913
-67.2217
-68.748
-70.2988
-71.7754
-73.0559
-74.0091
-74.52
-61.4755
-61.6419
-61.9749
-62.4741
-63.138
-63.9619
-64.9362
-66.0431
-67.2533
-68.5224
-69.7885
-70.9722
-71.9813
-72.7219
-73.115
-62.2373
-62.3863
-62.6835
-63.127
-63.7127
-64.4333
-65.2766
-66.2231
-67.2439
-68.2988
-69.3354
-70.2902
-71.0931
-71.6759
-71.9829
-62.8956
-63.0277
-63.2906
-63.681
-64.1937
-64.8196
-65.5454
-66.3515
-67.2109
-68.088
-68.9391
-69.7136
-70.3578
-70.8213
-71.0641
-63.4622
-63.5784
-63.809
-64.1503
-64.596
-65.1366
-65.7585
-66.4429
-67.1654
-67.8953
-68.5961
-69.2275
-69.748
-70.1199
-70.3139
-63.9481
-64.0496
-64.2506
-64.5471
-64.9324
-65.3972
-65.9281
-66.5079
-67.1149
-67.7227
-68.3013
-68.8182
-69.2415
-69.5421
-69.6983
-64.3636
-64.4517
-64.6259
-64.8821
-65.2138
-65.6117
-66.0637
-66.5541
-67.0638
-67.5704
-68.0492
-68.4742
-68.82
-69.0646
-69.1913
-64.7179
-64.794
-64.9443
-65.1647
-65.4491
-65.7888
-66.1727
-66.5869
-67.0147
-67.4374
-67.8345
-68.185
-68.4689
-68.6688
-68.7722
-65.0194
-65.0849
-65.214
-65.4029
-65.6459
-65.9352
-66.2607
-66.6101
-66.9693
-67.3223
-67.6522
-67.9421
-68.1759
-68.3402
-68.4249
-65.2754
-65.3316
-65.4421
-65.6035
-65.8107
-66.0565
-66.332
-66.6266
-66.9281
-67.2232
-67.4978
-67.7381
-67.9314
-68.0668
-68.1365
-65.4925
-65.5405
-65.6348
-65.7724
-65.9486
-66.1571
-66.39
-66.6383
-66.8914
-67.1382
-67.3671
-67.5668
-67.7269
-67.8389
-67.8965
-65.6763
-65.7171
-65.7975
-65.9146
-66.0641
-66.2407
-66.4375
-66.6465
-66.8591
-67.0657
-67.2567
-67.423
-67.556
-67.6488
-67.6965
-65.8316
-65.8664
-65.9347
-66.0341
-66.1609
-66.3103
-66.4764
-66.6524
-66.8309
-67.004
-67.1636
-67.3022
-67.4129
-67.49
-67.5296
-65.9629
-65.9924
-66.0504
-66.1346
-66.242
-66.3682
-66.5084
-66.6566
-66.8065
-66.9516
-67.0851
-67.2008
-67.2931
-67.3573
-67.3903
-66.0736
-66.0986
-66.1478
-66.2191
-66.3099
-66.4166
-66.5348
-66.6595
-66.7855
-66.9072
-67.019
-67.1157
-67.1927
-67.2463
-67.2738
-66.1669
-66.1881
-66.2297
-66.2901
-66.3669
-66.4569
-66.5566
-66.6616
-66.7675
-66.8696
-66.9633
-67.0443
-67.1087
-67.1534
-67.1764
-66.2455
-66.2635
-66.2987
-66.3497
-66.4146
-66.4906
-66.5746
-66.6631
-66.7521
-66.8379
-66.9165
-66.9843
-67.0383
-67.0757
-67.0949
-66.3116
-66.3268
-66.3566
-66.3998
-66.4546
-66.5188
-66.5896
-66.6641
-66.7391
-66.8112
-66.8772
-66.9341
-66.9793
-67.0106
-67.0267
-66.3672
-66.38
-66.4052
-66.4418
-66.4881
-66.5423
-66.602
-66.6649
-66.728
-66.7887
-66.8441
-66.892
-66.9299
-66.9562
-66.9697
-66.4138
-66.4247
-66.446
-66.4769
-66.5161
-66.5619
-66.6124
-66.6654
-66.7186
-66.7697
-66.8164
-66.8567
-66.8886
-66.9107
-66.922
-66.4529
-66.4621
-66.4802
-66.5063
-66.5395
-66.5783
-66.621
-66.6658
-66.7107
-66.7539
-66.7933
-66.8272
-66.8541
-66.8727
-66.8822
-66.4855
-66.4934
-66.5087
-66.5309
-66.559
-66.5919
-66.6281
-66.666
-66.7041
-66.7406
-66.7739
-66.8026
-66.8253
-66.841
-66.8491
-66.5127
-66.5194
-66.5325
-66.5514
-66.5753
-66.6032
-66.634
-66.6662
-66.6985
-66.7295
-66.7578
-66.7821
-66.8013
-66.8147
-66.8215
-66.5353
-66.541
-66.5522
-66.5683
-66.5887
-66.6126
-66.6388
-66.6663
-66.6939
-66.7203
-66.7444
-66.7651
-66.7815
-66.7928
-66.7987
-66.5539
-66.5588
-66.5684
-66.5823
-66.5998
-66.6203
-66.6428
-66.6664
-66.6901
-66.7127
-66.7334
-66.7511
-66.7651
-66.7749
-66.7798
-66.5692
-66.5734
-66.5817
-66.5937
-66.6089
-66.6266
-66.6461
-66.6665
-66.6869
-66.7065
-66.7243
-66.7397
-66.7518
-66.7602
-66.7645
-66.5814
-66.5851
-66.5924
-66.6029
-66.6162
-66.6317
-66.6487
-66.6666
-66.6844
-66.7015
-66.7171
-66.7305
-66.741
-66.7484
-66.7521
-66.5911
-66.5944
-66.6009
-66.6102
-66.622
-66.6357
-66.6508
-66.6666
-66.6824
-66.6975
-66.7113
-66.7232
-66.7326
-66.739
-66.7424
-66.5986
-66.6015
-66.6073
-66.6157
-66.6264
-66.6387
-66.6524
-66.6666
-66.6809
-66.6945
-66.7069
-66.7176
-66.7261
-66.7319
-66.7349
-66.6039
-66.6066
-66.612
-66.6197
-66.6295
-66.6409
-66.6535
-66.6666
-66.6798
-66.6923
-66.7038
-66.7136
-66.7214
-66.7268
-66.7295
-66.6074
-66.6099
-66.615
-66.6223
-66.6316
-66.6424
-66.6542
-66.6666
-66.679
-66.6909
-66.7017
-66.711
-66.7184
-66.7234
-66.726
-66.609
-66.6115
-66.6165
-66.6236
-66.6326
-66.6431
-66.6546
-66.6666
-66.6787
-66.6902
-66.7007
-66.7098
-66.7169
-66.7219
-66.7244
-66.6089
-66.6114
-66.6164
-66.6235
-66.6325
-66.643
-66.6546
-66.6666
-66.6787
-66.6903
-66.7008
-66.7098
-66.717
-66.7219
-66.7245
-66.6071
-66.6097
-66.6148
-66.6221
-66.6314
-66.6423
-66.6542
-66.6666
-66.6791
-66.691
-66.7019
-66.7112
-66.7186
-66.7237
-66.7263
-66.6034
-66.6062
-66.6116
-66.6194
-66.6293
-66.6408
-66.6534
-66.6666
-66.6799
-66.6925
-66.704
-66.7139
-66.7218
-66.7272
-66.73
-66.5979
-66.6009
-66.6068
-66.6152
-66.626
-66.6385
-66.6522
-66.6666
-66.681
-66.6948
-66.7073
-66.7181
-66.7266
-66.7325
-66.7356
-66.5902
-66.5936
-66.6001
-66.6095
-66.6214
-66.6353
-66.6506
-66.6666
-66.6826
-66.6979
-66.7119
-66.7238
-66.7333
-66.7399
-66.7432
-66.5803
-66.5841
-66.5914
-66.6021
-66.6155
-66.6312
-66.6485
-66.6666
-66.6846
-66.702
-66.7177
-66.7313
-66.742
-66.7494
-66.7532
-66.5677
-66.572
-66.5805
-66.5926
-66.6081
-66.626
-66.6458
-66.6665
-66.6872
-66.7071
-66.7252
-66.7407
-66.753
-66.7615
-66.7659
-66.5522
-66.5572
-66.5669
-66.581
-66.5988
-66.6196
-66.6425
-66.6665
-66.6905
-66.7134
-66.7344
-66.7524
-66.7666
-66.7765
-66.7816
-66.5332
-66.539
-66.5503
-66.5667
-66.5875
-66.6118
-66.6384
-66.6664
-66.6944
-66.7212
-66.7456
-66.7667
-66.7833
-66.7948
-66.8007
-66.5101
-66.5169
-66.5302
-66.5494
-66.5738
-66.6022
-66.6335
-66.6663
-66.6991
-66.7306
-66.7593
-66.784
-66.8035
-66.8171
-66.824
-66.4824
-66.4904
-66.506
-66.5286
-66.5572
-66.5907
-66.6275
-66.6661
-66.7048
-66.7419
-66.7757
-66.8048
-66.8279
-66.8439
-66.8521
-66.4491
-66.4585
-66.4769
-66.5036
-66.5374
-66.5768
-66.6203
-66.6659
-66.7116
-66.7554
-66.7955
-66.8299
-66.8572
-66.8761
-66.8858
-66.4092
-66.4204
-66.4421
-66.4736
-66.5135
-66.5602
-66.6116
-66.6655
-66.7197
-66.7716
-66.8191
-66.86
-66.8924
-66.9148
-66.9263
-66.3617
-66.3748
-66.4006
-66.4378
-66.485
-66.5402
-66.6011
-66.6651
-66.7293
-66.7909
-66.8473
-66.8959
-66.9344
-66.9611
-66.9748
-66.305
-66.3206
-66.351
-66.3951
-66.451
-66.5164
-66.5886
-66.6644
-66.7407
-66.8139
-66.881
-66.9387
-66.9846
-67.0164
-67.0327
-66.2376
-66.256
-66.2919
-66.3441
-66.4103
-66.4878
-66.5734
-66.6635
-66.7541
-66.8412
-66.9211
-66.9899
-67.0446
-67.0825
-67.102
-66.1574
-66.1791
-66.2217
-66.2834
-66.3618
-66.4537
-66.5552
-66.6622
-66.7699
-66.8737
-66.9688
-67.0509
-67.1162
-67.1615
-67.1847
-66.0622
-66.0878
-66.1381
-66.2111
-66.3039
-66.4128
-66.5333
-66.6603
-66.7885
-66.9121
-67.0255
-67.1236
-67.2016
-67.2558
-67.2836
-65.9491
-65.9794
-66.0388
-66.125
-66.2348
-66.3638
-66.5067
-66.6577
-66.8102
-66.9575
-67.093
-67.2102
-67.3035
-67.3685
-67.4018
-65.815
-65.8507
-65.9208
-66.0226
-66.1524
-66.3051
-66.4747
-66.654
-66.8356
-67.0113
-67.1731
-67.3133
-67.4252
-67.5031
-67.5431
-65.6562
-65.6982
-65.7807
-65.9009
-66.0541
-66.2348
-66.4357
-66.6488
-66.865
-67.0747
-67.2682
-67.4362
-67.5704
-67.664
-67.7121
-65.4682
-65.5175
-65.6146
-65.756
-65.9368
-66.1503
-66.3884
-66.6415
-66.8989
-67.1493
-67.3809
-67.5825
-67.7439
-67.8566
-67.9145
-65.2458
-65.3037
-65.4177
-65.5839
-65.7968
-66.0488
-66.3306
-66.6311
-66.9377
-67.2369
-67.5145
-67.7568
-67.9512
-68.0872
-68.1572
-64.9833
-65.0511
-65.1844
-65.3794
-65.6296
-65.9267
-66.2599
-66.6165
-66.9817
-67.3394
-67.6726
-67.9644
-68.1991
-68.3636
-68.4484
-64.6738
-64.7528
-64.9085
-65.1364
-65.4299
-65.7794
-66.1729
-66.5958
-67.0309
-67.459
-67.8594
-68.2115
-68.4957
-68.6954
-68.7985
-64.3095
-64.4012
-64.5823
-64.8481
-65.1912
-65.6015
-66.0656
-66.5667
-67.0851
-67.5978
-68.0798
-68.5057
-68.851
-69.0944
-69.2202
-63.8815
-63.9875
-64.1973
-64.506
-64.9059
-65.3863
-65.9325
-66.5257
-67.1432
-67.7577
-68.3393
-68.856
-69.277
-69.5749
-69.7293
-63.3798
-63.5018
-63.7436
-64.1005
-64.5648
-65.1254
-65.7666
-66.468
-67.2032
-67.9407
-68.6437
-69.2728
-69.7884
-70.155
-70.3456
-62.7935
-62.933
-63.2101
-63.6204
-64.1569
-64.8084
-65.5591
-66.3866
-67.2618
-68.1475
-68.9995
-69.7684
-70.4032
-70.8573
-71.0943
-62.1102
-62.2687
-62.584
-63.0528
-63.6691
-64.4227
-65.2981
-66.2722
-67.313
-68.3776
-69.413
-70.357
-71.1436
-71.7104
-72.0076
-61.317
-61.4954
-61.8513
-62.3828
-63.0859
-63.9524
-64.9685
-66.1116
-67.3476
-68.6282
-69.8899
-71.0549
-72.0367
-72.7506
-73.1272
-60.4
-60.5987
-60.9966
-61.5938
-62.3892
-63.3783
-64.5508
-65.8865
-67.3511
-68.8919
-70.4339
-71.8799
-73.1159
-74.025
-74.5083
-59.345
-59.5639
-60.0035
-60.6672
-61.5579
-62.6769
-64.0197
-65.5718
-67.3018
-69.1548
-71.0446
-72.8507
-74.4221
-75.5951
-76.2249
-58.138
-58.3757
-58.855
-59.5828
-60.5682
-61.8201
-63.3434
-65.1334
-67.1671
-69.392
-71.7135
-73.9845
-76.005
-77.5424
-78.3789
-56.7659
-57.0199
-57.5339
-58.3196
-59.3935
-60.7748
-62.4819
-64.5259
-66.8996
-69.5621
-72.4174
-75.2922
-77.9234
-79.9763
-81.1137
-55.2176
-55.4836
-56.0241
-56.8562
-58.0052
-59.5033
-61.3866
-63.6893
-66.4315
-69.5983
-73.1078
-76.7689
-80.2433
-83.046
-84.6383
-53.4846
-53.7566
-54.3118
-55.1729
-56.3747
-57.9642
-60
-62.5476
-65.6686
-69.3966
-73.6929
-78.3752
-83.0295
-86.9562
-89.2685
-51.5627
-51.833
-52.3872
-53.2531
-54.4749
-56.1153
-58.258
-61.0077
-64.4841
-68.8002
-74.0099
-80.001
-86.3211
-91.9875
-95.5044
-49.4532
-49.7124
-50.2461
-51.0861
-52.2844
-53.9176
-56.0946
-58.9633
-62.7164
-67.5832
-73.7843
-81.3981
-90.0664
-98.5113
-104.183
-47.1637
-47.4013
-47.8923
-48.6705
-49.7918
-51.3425
-53.4507
-56.3046
-60.1753
-65.4397
-72.5774
-82.063
-93.9669
-106.961
-116.799
-44.7093
-44.9143
-45.3393
-46.0166
-47.0012
-48.3802
-50.2891
-52.9399
-56.6663
-61.9953
-69.7401
-81.0486
-97.11
-117.603
-136.247
-42.1127
-42.2746
-42.6111
-43.1494
-43.9368
-45.0499
-46.6124
-48.8283
-52.0445
-56.8733
-64.4281
-76.7334
-97.1754
-129.529
-168.641
-39.4037
-39.5139
-39.7428
-40.1093
-40.6463
-41.4075
-42.4821
-44.0222
-46.3028
-49.8583
-55.8171
-66.7678
-88.9689
-136.761
-228.197
-36.6184
-36.6707
-36.779
-36.951
-37.2001
-37.5476
-38.0285
-38.7018
-39.676
-41.1746
-43.7396
-48.9894
-62.9911
-113.683
-351.249
-33.7968
-33.7888
-33.7711
-33.7394
-33.6856
-33.5952
-33.4413
-33.1725
-32.6851
-31.7503
-29.7979
-25.1333
-11.5338
39.167
277.206
-30.9809
-30.9139
-30.7731
-30.5431
-30.1967
-29.6871
-28.934
-27.7953
-26.0049
-23.0331
-17.7397
-7.48227
14.1586
61.9207
154.487
-28.2116
-28.0904
-27.8371
-27.4279
-26.8213
-25.9481
-24.6948
-22.8706
-20.1455
-15.9283
-9.1292
2.26351
21.7109
53.5597
96.0526
14.9398
6.10511
2.55242
0.710012
-0.40796
-1.15004
-1.66937
-2.04474
-2.32122
-2.52653
-2.67854
-2.78912
-2.8662
-2.91499
-2.93863
9.44767
5.79042
3.11539
1.37158
0.209942
-0.594689
-1.17091
-1.59356
-1.90822
-2.14386
-2.31954
-2.44806
-2.53804
-2.59518
-2.62293
6.49524
4.79358
3.03166
1.62884
0.579923
-0.19795
-0.779079
-1.21738
-1.55009
-1.80282
-1.99327
-2.13373
-2.23268
-2.29576
-2.32648
4.72445
3.83857
2.69855
1.64032
0.761675
0.0621618
-0.486432
-0.914501
-1.24749
-1.50502
-1.70171
-1.84823
-1.95219
-2.01881
-2.05134
3.56884
3.06002
2.3086
1.52708
0.819023
0.217469
-0.277482
-0.677646
-0.997283
-1.24946
-1.44497
-1.59226
-1.69763
-1.76552
-1.79878
2.76655
2.44991
1.93955
1.36282
0.802403
0.298743
-0.134353
-0.49671
-0.793917
-1.03324
-1.22172
-1.36539
-1.46907
-1.53627
-1.56931
2.18412
1.97433
1.61657
1.18722
0.746364
0.331012
-0.0403464
-0.361013
-0.630745
-0.85232
-1.02956
-1.16629
-1.26583
-1.33074
-1.36276
1.74736
1.60148
1.3433
1.01959
0.67261
0.332728
0.0184571
-0.260685
-0.501011
-0.702182
-0.86553
-0.993017
-1.08663
-1.14804
-1.17844
1.4119
1.30662
1.11553
0.868129
0.593918
0.316655
0.0528656
-0.18731
-0.398464
-0.578306
-0.726397
-0.843257
-0.92978
-0.986871
-1.01523
1.14955
1.07133
0.926843
0.735279
0.517341
0.291224
0.0708754
-0.134089
-0.317659
-0.476475
-0.608947
-0.714559
-0.793364
-0.845647
-0.8717
0.9415
0.882057
0.770847
0.620738
0.44644
0.261784
0.0782014