/*--------------------------------*- C++ -*----------------------------------*\
| =========                 |                                                 |
| \\      /  F ield         | OpenFOAM: The Open Source CFD Toolbox           |
|  \\    /   O peration     | Version:  5.x                                   |
|   \\  /    A nd           | Web:      www.OpenFOAM.org                      |
|    \\/     M anipulation  |                                                 |
\*---------------------------------------------------------------------------*/
FoamFile
{
    version     2.0;
    format      ascii;
    class       volScalarField;
    location    "19.6";
    object      gradTy;
}
// * * * * * * * * * * * * * * * * * * * * * * * * * * * * * * * * * * * * * //

dimensions      [0 -1 0 1 0 0 0];

internalField   nonuniform List<scalar> 
6300
(
992.398
977.305
962.54
948.32
934.854
922.34
910.965
900.895
892.27
885.199
879.751
875.95
873.77
873.134
873.917
-0.164918
-0.493052
-0.815868
-1.12914
-1.42764
-1.7049
-1.95303
-2.16285
-2.32427
-2.42712
-2.46236
-2.4237
-2.30926
-2.12288
-1.87461
-0.276764
-0.827685
-1.37043
-1.89834
-2.40304
-2.87389
-3.29764
-3.65852
-3.93882
-4.1202
-4.18587
-4.12351
-3.9285
-3.60674
-3.17582
-0.391211
-1.17049
-1.93981
-2.69075
-3.41231
-4.08998
-4.70512
-5.23478
-5.65229
-5.929
-6.03743
-5.95596
-5.6745
-5.19975
-4.55817
-0.508801
-1.52326
-2.52755
-3.51253
-4.46544
-5.36857
-6.19805
-6.92316
-7.50654
-7.90604
-8.07884
-7.98839
-7.61373
-6.95955
-6.06278
-0.62954
-1.88618
-3.13461
-4.36636
-5.56834
-6.7208
-7.79535
-8.75325
-9.54464
-10.1098
-10.3835
-10.305
-9.8325
-8.96192
-7.74209
-0.752714
-2.2573
-3.75834
-5.24995
-6.72072
-8.1509
-9.50926
-10.7498
-11.809
-12.6048
-13.0404
-13.0156
-12.4493
-11.3135
-9.66745
-0.876726
-2.63196
-4.39147
-6.15437
-7.91368
-9.65279
-11.341
-12.9277
-14.3367
-15.46
-16.1577
-16.2674
-15.6356
-14.1753
-11.9439
-0.998952
-3.00234
-5.02118
-7.06236
-9.12681
-11.2056
-13.274
-15.2834
-17.1499
-18.7408
-19.8627
-20.2609
-19.6503
-17.808
-14.74
-1.1157
-3.35724
-5.62855
-7.94705
-10.3256
-12.7687
-15.266
-17.7819
-20.2386
-22.4905
-24.2915
-25.263
-24.8967
-22.6663
-18.3581
-1.22229
-3.68235
-6.18872
-8.77167
-11.4598
-14.2775
-17.2393
-20.3397
-23.5319
-26.691
-29.5496
-31.6029
-32.0072
-29.6022
-23.4241
-1.3134
-3.96114
-6.67228
-9.49108
-12.4644
-15.642
-19.0741
-22.8055
-26.8584
-31.1918
-35.6128
-39.5918
-41.9268
-40.3113
-31.4993
-1.38358
-4.1765
-7.04814
-10.0559
-13.2649
-16.7518
-20.6094
-24.9498
-29.9041
-35.6049
-42.1179
-49.2243
-55.7968
-58.217
-47.4094
-1.42798
-4.31311
-7.28788
-10.4194
-13.7872
-17.4909
-21.6618
-26.4802
-32.2032
-39.2054
-48.0295
-59.3907
-73.819
-89.3502
-89.4442
-1.4432
-4.36008
-7.3708
-10.5466
-13.9737
-17.7629
-22.0664
-27.1057
-33.2229
-40.984
-51.4039
-66.4896
-90.7378
-135.92
-239.086
875.781
878.217
881.271
884.815
888.72
892.865
897.137
901.431
905.658
909.739
913.606
917.203
920.484
923.411
925.953
928.088
929.796
931.063
931.878
932.235
932.13
931.558
930.52
929.017
927.051
924.626
921.745
918.415
914.641
910.429
905.785
900.717
895.231
889.333
883.029
876.325
869.227
861.739
853.867
845.616
836.992
827.999
818.645
808.935
798.876
788.474
777.734
766.664
755.269
743.554
731.523
719.181
706.532
693.581
680.332
666.791
652.963
638.857
624.48
609.842
594.952
579.823
564.466
548.892
533.115
517.149
501.007
484.707
468.265
451.702
435.042
418.309
401.535
384.751
367.995
351.305
334.722
318.289
302.052
286.053
270.336
254.944
239.916
225.288
211.095
197.364
184.12
171.379
159.155
147.451
-1.6045
-1.33876
-1.06418
-0.791442
-0.529669
-0.28585
-0.06468
0.131321
0.301476
0.446519
0.568146
0.668622
0.750458
0.816173
0.868147
0.908528
0.939193
0.961746
0.977529
0.987652
0.99302
0.99437
0.992306
0.987328
0.97987
0.97033
0.959089
0.94653
0.933045
0.919023
0.904838
0.890819
0.877225
0.864221
0.851857
0.840069
0.828691
0.817486
0.806189
0.794557
0.782419
0.769709
0.756489
0.742947
0.729361
0.71606
0.703362
0.691506
0.680602
0.670591
0.661237
0.652137
0.642773
0.632577
0.621005
0.60761
0.592104
0.574377
0.5545
0.532676
0.509176
0.484243
0.45801
0.430411
0.401135
0.369607
0.33502
0.296406
0.252741
0.203072
0.146647
0.0830206
0.0121376
-0.0656362
-0.149524
-0.238389
-0.330819
-0.425218
-0.519896
-0.613145
-0.703279
-0.788648
-0.867634
-0.938642
-1.0001
-1.0505
-1.0885
-1.113
-1.12333
-1.11933
-2.70647
-2.24545
-1.77078
-1.30168
-0.854223
-0.440347
-0.0676825
0.260095
0.542544
0.781594
0.980707
1.14417
1.27654
1.38227
1.46546
1.52976
1.5783
1.61374
1.63827
1.65369
1.66145
1.66274
1.65849
1.6495
1.63643
1.61992
1.60057
1.57902
1.55592
1.53196
1.50779
1.48401
1.46109
1.43934
1.41884
1.39945
1.38087
1.36261
1.34417
1.32506
1.30493
1.28364
1.26132
1.2383
1.21514
1.19247
1.17092
1.15099
1.13291
1.11661
1.10166
1.08731
1.07262
1.05649
1.03791
1.01605
0.990376
0.960725
0.927275
0.890477
0.850923
0.809166
0.765551
0.720054
0.672177
0.620916
0.564814
0.502086
0.430827
0.349244
0.255907
0.149951
0.0312284
-0.0996334
-0.241257
-0.39162
-0.548216
-0.708242
-0.86877
-1.02688
-1.17974
-1.32461
-1.4588
-1.57966
-1.68449
-1.77066
-1.83571
-1.87761
-1.89507
-1.88772
-3.85794
-3.17186
-2.46944
-1.78086
-1.13051
-0.535596
-0.00615187
0.454034
0.845992
1.17405
1.44448
1.66436
1.84086
1.98068
2.08984
2.17353
2.23614
2.2813
2.31198
2.3306
2.33907
2.33892
2.33136
2.31738
2.29781
2.27345
2.24508
2.21358
2.17989
2.14503
2.11003
2.07581
2.04314
2.01251
1.98405
1.95754
1.93241
1.90786
1.88297
1.85688
1.82896
1.79894
1.767
1.73373
1.70006
1.66713
1.63603
1.60768
1.58254
1.56056
1.54107
1.52289
1.50439
1.48381
1.45942
1.42986
1.39427
1.35244
1.30476
1.25215
1.19574
1.13667
1.07571
1.01303
0.948002
0.879114
0.804066
0.719974
0.623703
0.512273
0.383269
0.235201
0.0677387
-0.118191
-0.320459
-0.535925
-0.760722
-0.990588
-1.22116
-1.44822
-1.66774
-1.87597
-2.06921
-2.24377
-2.39577
-2.52123
-2.61625
-2.67746
-2.70255
-2.69077
-5.0806
-4.1217
-3.14806
-2.20489
-1.32686
-0.536457
0.155228
0.746337
1.24157
1.64963
1.98114
2.24714
2.45809
2.62337
2.75102
2.84779
2.91923
2.96982
3.0032
3.02224
3.02922
3.0259
3.01362
2.99344
2.96624
2.93287
2.89423
2.85142
2.80568
2.75846
2.71127
2.66552
2.6224
2.58269
2.5466
2.51377
2.48327
2.45375
2.42363
2.39146
2.35614
2.31715
2.27474
2.22987
2.18407
2.13926
2.09733
2.05986
2.02775
2.00103
1.97874
1.95902
1.9393
1.91672
1.88851
1.85246
1.80726
1.75266
1.68948
1.61938
1.5445
1.46698
1.38844
1.30949
1.22947
1.14627
1.05643
0.955483
0.838491
0.700684
0.53816
0.348453
0.130915
-0.113152
-0.38059
-0.666726
-0.965865
-1.27185
-1.57857
-1.88033
-2.17197
-2.44884
-2.70648
-2.9403
-3.14523
-3.31559
-3.44544
-3.52927
-3.56307
-3.5453
-6.3983
-5.0928
-3.78279
-2.5351
-1.397
-0.395131
0.461481
1.17675
1.76272
2.23547
2.61219
2.90923
3.14115
3.32027
3.4567
3.55858
3.63237
3.68319
3.71511
3.73131
3.73427
3.72583
3.70732
3.67967
3.64363
3.59993
3.54948
3.49353
3.43368
3.37194
3.31049
3.2515
3.19683
3.14771
3.10453
3.06673
3.03281
3.00055
2.96734
2.93067
2.88865
2.84037
2.78612
2.7274
2.66675
2.6073
2.55228
2.50439
2.46529
2.4352
2.41279
2.3952
2.37842
2.35782
2.32896
2.28832
2.23385
2.16532
2.08423
1.99356
1.89713
1.79884
1.7018
1.60757
1.5156
1.42304
1.32483
1.21416
1.08331
0.924745
0.73225
0.501841
0.232346
-0.0743998
-0.413739
-0.77875
-1.1611
-1.55199
-1.94308
-2.32695
-2.69743
-3.04934
-3.378
-3.67841
-3.94442
-4.16825
-4.34085
-4.45309
-4.49781
-4.47186
-7.8367
-6.0703
-4.32769
-2.70741
-1.27082
-0.0444836
0.971437
1.79357
2.44712
2.95984
3.35818
3.66533
3.90047
4.07887
4.21238
4.31006
4.37882
4.42404
4.4499
4.45972
4.456
4.44054
4.41443
4.37826
4.33232
4.27698
4.21295
4.14152
4.06471
3.98527
3.90644
3.83157
3.76357
3.70448
3.65501
3.61438
3.58025
3.54901
3.51631
3.47788
3.43048
3.37247
3.3042
3.22801
3.14798
3.06926
2.99725
2.93655
2.8901
2.85858
2.84015
2.83049
2.82327
2.81106
2.78662
2.74431
2.68095
2.59629
2.49302
2.37625
2.25265
2.12912
2.01135
1.90258
1.80276
1.70814
1.61136
1.50208
1.36822
1.19784
0.981106
0.711679
0.387581
0.0114436
-0.409766
-0.865663
-1.34387
-1.83174
-2.31782
-2.79274
-3.24951
-3.68321
-4.09008
-4.46595
-4.80424
-5.0946
-5.32308
-5.47407
-5.53422
-5.49709
-9.42202
-7.01346
-4.69638
-2.61514
-0.841808
0.609259
1.76058
2.65331
3.3345
3.8491
4.23572
4.52536
4.74172
4.90235
5.01989
5.10341
5.15945
5.19301
5.20807
5.20788
5.19493
5.17086
5.13634
5.0912
5.03486
4.96687
4.88737
4.79755
4.69985
4.59805
4.49702
4.40203
4.31781
4.24772
4.19309
4.15298
4.12385
4.09991
4.07383
4.03834
3.98789
3.91965
3.83399
3.73448
3.62762
3.52185
3.42623
3.34849
3.29372
3.26342
3.25518
3.26256
3.27561
3.28217
3.27031
3.2309
3.15896
3.05434
2.92149
2.76905
2.60832
2.45135
2.30817
2.18496
2.08267
1.99658
1.91613
1.82561
1.7059
1.53789
1.30604
1.00043
0.61794
0.162373
-0.355662
-0.920282
-1.51254
-2.1139
-2.70847
-3.28452
-3.83464
-4.35556
-4.84667
-5.30747
-5.73296
-6.10994
-6.41676
-6.62577
-6.71062
-6.65793
-11.1743
-7.82488
-4.72544
-2.07953
0.0511495
1.6945
2.922
3.81759
4.46172
4.92263
5.25289
5.49089
5.66321
5.78785
5.87641
5.93633
5.97246
5.9886
5.98818
5.97439
5.94989
5.91623
5.87353
5.82028
5.75419
5.67333
5.57668
5.46497
5.34089
5.20976
5.0789
4.95702
4.85174
4.7687
4.71033
4.67578
4.66
4.65393
4.64496
4.62037
4.57098
4.49195
4.38377
4.25158
4.10574
3.95989
3.82953
3.7274
3.66216
3.63654
3.64779
3.6865
3.73736
3.77985
3.7937
3.76437
3.68409
3.55307
3.37823
3.17384
2.95863
2.75377
2.5763
2.43729
2.33928
2.27696
2.23544
2.19124
2.1132
1.9699
1.73723
1.39994
0.953569
0.403305
-0.234425
-0.93505
-1.66803
-2.40578
-3.1257
-3.81358
-4.46175
-5.07076
-5.64683
-6.19974
-6.73146
-7.2262
-7.65124
-7.95614
-8.085
-8.00932
-13.0819
-8.27646
-4.10155
-0.802147
1.64552
3.37812
4.56085
5.34342
5.85225
6.18377
6.40241
6.55049
6.65285
6.72481
6.77361
6.80299
6.81371
6.8075
6.78699
6.75578
6.71744
6.67405
6.62535
6.56727
6.49421
6.40193
6.2871
6.14962
5.99152
5.8205
5.64728
5.48756
5.35305
5.25359
5.19268
5.17102
5.18161
5.21157
5.23802
5.23756
5.19621
5.1057
4.96758
4.78782
4.58336
4.37509
4.19166
4.05269
3.97308
3.95609
4.00037
4.09251
4.2107
4.31834
4.37884
4.37079
4.28187
4.11447
3.87711
3.5938
3.29364
3.01638
2.78867
2.63021
2.54416
2.52705
2.55831
2.60528
2.61417
2.5303
2.3188
1.95625
1.43854
0.769932
-0.0228562
-0.903439
-1.81688
-2.7235
-3.58922
-4.39994
-5.14535
-5.83349
-6.48042
-7.12256
-7.78324
-8.44284
-9.05872
-9.54001
-9.75389
-9.6391
-15.0022
-7.82036
-2.2172
1.70156
4.26936
5.85316
6.77539
7.26282
7.49743
7.60676
7.65285
7.6752
7.68555
7.69439
7.69806
7.6958
7.67858
7.64623
7.60043
7.54666
7.49151
7.43869
7.38987
7.33504
7.26109
7.16221
7.0293
6.86317
6.65992
6.43359
6.19542
5.98098
5.80307
5.68219
5.61768
5.61903
5.67453
5.77348
5.86902
5.91286
5.89144
5.78722
5.6106
5.35886
5.06571
4.7538
4.48905
4.29179
4.19312
4.18672
4.28333
4.46031
4.69857
4.92406
5.06205
5.09301
4.99204
4.776
4.44157
4.03744
3.59509
3.2071
2.90075
2.71832
2.64927
2.70699
2.85806
3.07368
3.24827
3.27405
3.11746
2.73557
2.1404
1.315
0.314775
-0.824853
-1.97585
-3.10041
-4.13221
-5.08057
-5.91164
-6.65575
-7.32106
-8.01882
-8.83666
-9.7225
-10.6601
-11.5089
-11.8961
-11.6977
-16.2397
-5.09119
2.09229
6.15056
8.31036
9.28124
9.61648
9.5467
9.32349
9.12127
8.93792
8.81768
8.72089
8.67193
8.63154
8.61065
8.56578
8.50489
8.42592
8.34012
8.2628
8.1982
8.16368
8.13096
8.06452
7.97217
7.81998
7.63085
7.3622
7.06443
6.71006
6.42247
6.17168
6.03029
5.94853
5.98974
6.10555
6.34099
6.57515
6.68284
6.70657
6.5737
6.36248
5.99019
5.5758
5.06526
4.68993
4.38957
4.28095
4.26968
4.4512
4.74049
5.20546
5.65635
5.89998
6.00578
5.86848
5.60862
5.10695
4.53671
3.81884
3.28079
2.83495
2.6437
2.57233
2.75299
3.06532
3.60162
4.09708
4.28084
4.24094
3.82246
3.1742
2.11225
0.853553
-0.729482
-2.1725
-3.6105
-4.79497
-5.92974
-6.80282
-7.59116
-8.11465
-8.74189
-9.79188
-10.9274
-12.3889
-14.1426
-14.8811
-14.4573
-13.5547
3.34769
10.9019
13.3329
14.063
13.6243
13.0406
12.0513
11.1192
10.6085
10.132
9.92625
9.68723
9.63699
9.53681
9.5599
9.4759
9.38943
9.2611
9.12122
9.01565
8.91423
8.9348
8.9753
8.90513
8.86818
8.66376
8.51293
8.10631
7.77668
7.12844
6.81087
6.38266
6.29244
6.1022
6.25296
6.36423
6.91027
7.46333
7.57362
7.74715
7.4729
7.34625
6.68208
6.22427
5.18197
4.7828
4.21122
4.22856
4.075
4.46383
4.76763
5.73259
6.68707
6.93635
7.26859
6.92137
6.78942
5.87103
5.24852
3.78363
3.22169
2.40254
2.39643
2.13245
2.6094
2.95004
4.18836
5.39473
5.60967
5.90957
5.24019
4.80369
3.19281
1.85939
-0.835713
-2.37636
-4.48561
-5.52925
-7.15568
-7.81593
-8.90788
-8.75874
-8.85611
-10.6238
-11.6628
-13.6969
-18.2378
-19.5396
-18.4258
9.10987
25.2481
27.0888
22.9647
21.4981
18.176
17.0481
14.4734
12.3074
12.0459
10.9357
11.0823
10.3813
10.6735
10.2641
10.6629
10.3891
10.3338
10.1124
9.85243
9.76203
9.45411
9.67671
9.97853
9.6974
10.0048
9.42986
9.76288
8.73904
8.94723
7.07017
7.35809
6.10646
6.69815
5.76435
6.57255
5.99635
7.46898
8.98861
8.37285
9.43209
8.15906
9.10362
7.07634
7.71399
4.37212
5.12353
3.18439
4.42188
3.09884
4.59854
3.84231
6.27444
8.73288
7.85287
9.50942
7.66389
9.10231
6.20867
7.17302
2.44783
3.53265
0.799014
2.52022
0.625343
2.6618
1.54183
4.82082
8.11975
6.81588
8.97371
6.32233
8.12403
3.87357
4.82584
-2.60456
-1.7616
-6.89538
-5.42443
-9.77303
-8.20744
-12.0118
-9.04791
-6.56506
-12.5052
-10.965
-11.3951
-26.9974
-27.6765
-24.5479
137.551
67.7363
51.8648
28.7692
31.6052
19.5679
23.1388
16.307
10.7533
14.7057
9.92958
13.4592
9.64509
12.7207
9.8276
12.7345
10.9879
11.5172
11.0196
10.3395
10.8218
9.23019
10.3047
11.8214
9.6423
12.4124
8.88865
12.9669
7.59787
13.1207
3.89457
10.1225
3.17608
9.3008
2.91829
8.8859
2.67841
7.96023
13.5891
6.7603
14.4757
5.65214
15.1406
3.63336
14.9345
-2.33179
9.3389
-2.41647
8.3026
-1.94177
7.98204
-1.67399
6.77863
15.5862
5.11696
16.7935
3.67773
17.6536
0.991041
17.2906
-7.25411
9.34241
-7.21922
7.85138
-6.54265
7.25968
-6.20069
5.42476
17.4729
3.03738
18.9632
0.992181
20.1596
-2.93741
19.8635
-16.2869
7.45988
-18.8157
3.06073
-20.9066
-0.865987
-24.862
-8.64413
7.85526
-25.1582
-7.42962
12.7548
-57.2461
-41.2959
-34.8035
135.147
122.458
110.476
99.1644
88.4763
78.3605
68.7613
59.6213
50.8823
42.4867
34.3781
26.5015
18.8034
11.2318
3.73557
-1.09963
-1.05971
-1.00403
-0.935873
-0.858659
-0.775612
-0.689494
-0.60248
-0.516129
-0.431425
-0.348856
-0.268514
-0.190187
-0.113441
-0.037699
-1.85316
-1.78365
-1.68724
-1.56984
-1.43758
-1.29611
-1.15016
-1.00341
-0.858396
-0.716676
-0.578958
-0.445291
-0.315223
-0.187954
-0.0624505
-2.63847
-2.53448
-2.39142
-2.21867
-2.02572
-1.82106
-1.61163
-1.40259
-1.19737
-0.99792
-0.805007
-0.618463
-0.437458
-0.2607
-0.0865989
-3.47071
-3.32435
-3.12526
-2.88769
-2.62553
-2.35076
-2.07271
-1.79793
-1.53055
-1.27262
-1.02468
-0.786091
-0.555443
-0.330786
-0.109843
-4.3679
-4.16691
-3.89756
-3.58127
-3.23794
-2.88374
-2.53048
-2.18587
-1.85425
-1.53733
-1.23498
-0.945772
-0.667431
-0.397156
-0.13183
-5.35259
-5.0778
-4.71674
-4.30187
-3.86119
-3.41574
-2.97956
-2.56081
-2.16323
-1.78747
-1.43214
-1.09458
-0.771345
-0.458573
-0.152149
-6.45434
-6.07489
-5.58967
-5.04822
-4.48915
-3.93844
-3.41119
-2.91456
-2.45037
-2.01715
-1.61151
-1.22904
-0.864796
-0.513638
-0.170339
-7.71338
-7.17766
-6.51877
-5.81212
-5.10872
-4.43763
-3.81218
-3.23584
-2.70652
-2.21923
-1.7677
-1.34525
-0.945155
-0.560839
-0.185909
-9.18526
-8.40354
-7.49555
-6.57269
-5.69593
-4.89114
-4.16401
-3.51008
-2.9206
-2.38551
-1.89481
-1.4391
-1.00972
-0.598651
-0.198363
-10.9438
-9.75564
-8.48716
-7.28713
-6.21111
-5.26695
-4.44258
-3.71982
-3.08027
-2.50739
-1.98691
-1.50662
-1.05597
-0.625672
-0.207255
-13.0677
-11.188
-9.41025
-7.87747
-6.59438
-5.52293
-4.61951
-3.84632
-3.17325
-2.57685
-2.03879
-1.54446
-1.08187
-0.640805
-0.212237
-15.5554
-12.5182
-10.0883
-8.21806
-6.76594
-5.61082
-4.66615
-3.87266
-3.18952
-2.58795
-2.04693
-1.55056
-1.08621
-0.643439
-0.213121
-17.9488
-13.241
-10.2066
-8.14045
-6.64044
-5.48819
-4.56158
-3.78861
-3.1242
-2.53845
-2.01042
-1.52461
-1.06898
-0.63361
-0.20993
-17.8509
-12.2901
-9.35642
-7.49666
-6.16713
-5.13985
-4.30334
-3.59597
-2.98018
-2.43122
-1.93165
-1.46848
-1.03146
-0.612088
-0.202916
-1.43156
-4.32426
-7.3081
-10.4523
-13.8404
-17.5804
-21.8204
-26.7764
-32.7838
-40.4019
-50.6464
-65.5624
-89.7982
-135.378
-237.22
-1.39831
-4.22186
-7.12821
-10.1795
-13.4495
-17.031
-21.0472
-25.6692
-31.1447
-37.8442
-46.3256
-57.3702
-71.629
-86.7954
-80.8545
-1.34634
-4.06195
-6.84766
-9.75481
-12.8422
-16.1797
-19.8532
-23.9692
-28.6556
-34.0489
-40.2247
-46.9456
-52.829
-52.8706
-32.6613
-1.27846
-3.85334
-6.48274
-9.20497
-12.061
-15.0949
-18.352
-21.8729
-25.6756
-29.7101
-33.7452
-37.1025
-38.0855
-33.0085
-15.7966
-1.19809
-3.60686
-6.05334
-8.56215
-11.1564
-13.8552
-16.6675
-19.5807
-22.5345
-25.3709
-27.7362
-28.9084
-27.5501
-21.5733
-8.91879
-1.10897
-3.33419
-5.58062
-7.85995
-10.1792
-12.5364
-14.913
-17.2602
-19.4748
-21.3586
-22.5556
-22.4715
-20.222
-14.7753
-5.64033
-1.01479
-3.04679
-5.08504
-7.13
-9.17556
-11.2041
-13.179
-15.0319
-16.6447
-17.823
-18.2647
-17.5382
-15.114
-10.5385
-3.8519
-0.918915
-2.75503
-4.58478
-6.39961
-8.18368
-9.90915
-11.5295
-12.9702
-14.1164
-14.7991
-14.7849
-13.7836
-11.5001
-7.76771
-2.76984
-0.824231
-2.46769
-4.09486
-5.69056
-7.23248
-8.68713
-10.0048
-11.113
-11.9099
-12.259
-11.9905
-10.9194
-8.89243
-5.87567
-2.06403
-0.733021
-2.19163
-3.62679
-5.01885
-6.34183
-7.56024
-8.62543
-9.47191
-10.0144
-10.1477
-9.75354
-8.71887
-6.97207
-4.53561
-1.57794
-0.646967
-1.93186
-3.18862
-4.39508
-5.52378
-6.5397
-7.39794
-8.04192
-8.40294
-8.40274
-7.96134
-7.01288
-5.53061
-3.55748
-1.22949
-0.567189
-1.69162
-2.78538
-3.82529
-4.78403
-5.62864
-6.31921
-6.8084
-7.04233
-6.96413
-6.52123
-5.67755
-4.43001
-2.82576
-0.972006
-0.494316
-1.47266
-2.41953
-3.31184
-4.12352
-4.82453
-5.38031
-5.7521
-5.89845
-5.77876
-5.35943
-4.62267
-3.57712
-2.2673
-0.777195
-0.428585
-1.27557
-2.09155
-2.85437
-3.53986
-4.12124
-4.56916
-4.85234
-4.93928
-4.80145
-4.41804
-3.78221
-2.90772
-1.83404
-0.627023
-0.369925
-1.1
-1.80046
-2.45061
-3.02847
-3.51061
-3.8724
-4.08884
-4.13619
-3.99465
-3.65192
-3.10746
-2.37665
-1.49335
-0.509512
-0.318049
-0.944996
-1.54432
-2.09704
-2.58354
-2.98355
-3.27656
-3.44273
-3.46426
-3.32757
-3.02587
-2.56212
-1.95145
-1.22249
-0.416431
-0.272527
-0.809173
-1.32052
-1.78946
-2.19866
-2.53077
-2.76881
-2.89705
-2.9022
-2.77505
-2.51235
-2.11878
-1.60839
-1.00515
-0.341964
-0.232841
-0.690917
-1.12616
-1.52334
-1.86732
-2.1433
-2.33729
-2.43683
-2.43201
-2.31664
-2.08971
-1.75657
-1.32982
-0.829443
-0.281899
-0.198437
-0.588514
-0.958235
-1.29417
-1.5832
-1.81276
-1.97135
-2.04909
-2.03856
-1.93571
-1.74082
-1.45935
-1.10236
-0.686487
-0.233122
-0.168752
-0.500244
-0.813766
-1.09758
-1.34036
-1.53151
-1.66155
-1.72264
-1.70922
-1.61868
-1.45206
-1.21456
-0.915786
-0.569566
-0.193288
-0.143242
-0.424452
-0.689926
-0.929467
-1.13337
-1.29269
-1.39962
-1.44793
-1.43342
-1.35448
-1.21252
-1.01233
-0.762156
-0.473517
-0.160605
-0.121393
-0.359586
-0.584092
-0.786105
-0.957328
-1.09024
-1.17841
-1.21684
-1.20236
-1.13403
-1.01341
-0.844795
-0.635239
-0.394321
-0.133684
-0.102734
-0.304224
-0.493876
-0.664121
-0.807891
-0.918863
-0.991727
-1.02247
-1.0087
-0.949894
-0.847623
-0.705693
-0.530097
-0.328818
-0.111435
-0.086836
-0.257081
-0.417136
-0.56052
-0.681227
-0.773946
-0.834289
-0.859025
-0.846319
-0.795933
-0.709375
-0.589966
-0.442789
-0.274497
-0.0929975
-0.0733179
-0.217013
-0.351973
-0.472664
-0.573996
-0.65151
-0.701574
-0.721573
-0.710098
-0.667088
-0.593937
-0.493522
-0.370141
-0.229347
-0.0776812
-0.0618416
-0.183011
-0.296717
-0.398251
-0.483304
-0.548135
-0.589734
-0.605977
-0.595773
-0.559171
-0.49743
-0.413025
-0.309585
-0.191746
-0.0649318
-0.0521109
-0.15419
-0.249913
-0.33528
-0.406653
-0.460892
-0.495499
-0.508745
-0.499778
-0.46871
-0.416659
-0.345746
-0.259027
-0.160377
-0.0542996
-0.0438681
-0.129783
-0.210299
-0.282027
-0.341898
-0.38728
-0.416097
-0.426936
-0.419128
-0.392818
-0.348986
-0.28944
-0.216755
-0.134165
-0.0454182
-0.0368897
-0.109125
-0.176786
-0.237007
-0.287204
-0.325169
-0.34918
-0.358074
-0.351327
-0.329093
-0.292225
-0.242259
-0.181359
-0.112229
-0.0379876
-0.0309832
-0.0916442
-0.148438
-0.198949
-0.241002
-0.272749
-0.292758
-0.300073
-0.294278
-0.275528
-0.244558
-0.202669
-0.151677
-0.0938427
-0.0317608
-0.025983
-0.0768482
-0.124453
-0.166764
-0.201955
-0.228481
-0.245149
-0.251175
-0.246226
-0.230449
-0.204474
-0.169399
-0.126747
-0.0784053
-0.0265338
-0.0217473
-0.064316
-0.104144
-0.139523
-0.168924
-0.191056
-0.20493
-0.209897
-0.205693
-0.192451
-0.170708
-0.141389
-0.105769
-0.0654189
-0.0221374
-0.0181544
-0.0536872
-0.0869232
-0.116434
-0.14094
-0.159367
-0.170894
-0.174988
-0.171435
-0.160355
-0.142203
-0.117755
-0.0880737
-0.0544681
-0.0184306
-0.0151002
-0.044653
-0.0722895
-0.0968186
-0.117176
-0.13247
-0.14202
-0.145388
-0.142403
-0.133169
-0.118071
-0.097754
-0.073104
-0.0452058
-0.0152957
-0.0124956
-0.0369495
-0.0598135
-0.0801003
-0.0969287
-0.109562
-0.117438
-0.1202
-0.117709
-0.110056
-0.0975614
-0.080762
-0.0603897
-0.0373406
-0.0126339
-0.0102641
-0.03035
-0.0491271
-0.0657832
-0.0795943
-0.0899555
-0.0964079
-0.0986593
-0.0965991
-0.0903048
-0.0800414
-0.0662507
-0.0495342
-0.0306263
-0.0103619
-0.00833976
-0.0246592
-0.0399134
-0.0534416
-0.0646553
-0.0730635
-0.0782945
-0.0801125
-0.0784293
-0.0733098
-0.0649704
-0.0537711
-0.0402003
-0.0248539
-0.00840865
-0.00666543
-0.0197081
-0.0318981
-0.042707
-0.0516642
-0.0583778
-0.0625511
-0.0639967
-0.0626456
-0.0585504
-0.0518852
-0.0429381
-0.0320993
-0.0198446
-0.00671373
-0.00519122
-0.0153489
-0.0248419
-0.0332582
-0.0402312
-0.0454558
-0.0487015
-0.049823
-0.0487671
-0.0455756
-0.0403845
-0.0334185
-0.0249816
-0.0154437
-0.00522475
-0.00387306
-0.0114514
-0.0185333
-0.0248114
-0.0300121
-0.0339079
-0.036327
-0.0371613
-0.0363715
-0.0339893
-0.0301163
-0.0249203
-0.0186282
-0.0115157
-0.00389583
-0.00267142
-0.00789846
-0.012783
-0.0171128
-0.0206992
-0.0233853
-0.0250528
-0.0256272
-0.0250816
-0.023438
-0.0207666
-0.0171833
-0.0128444
-0.00794014
-0.00268617
-0.00155019
-0.00458337
-0.00741778
-0.00993027
-0.0120114
-0.01357
-0.0145376
-0.0148709
-0.0145542
-0.0136004
-0.0120502
-0.00997091
-0.00745316
-0.00460739
-0.00155869
-0.000475628
-0.00140631
-0.00227612
-0.00304732
-0.00368635
-0.00416524
-0.00446283
-0.0045658
-0.00446922
-0.00417691
-0.00370129
-0.00306294
-0.00228971
-0.00141553
-0.000478892
0.000584646
0.00172849
0.00279708
0.00374384
0.00452746
0.00511368
0.00547677
0.0056007
0.00547985
0.0051193
0.00453466
0.00375137
0.00280363
0.00173294
0.000586221
0.00166259
0.00491553
0.00795485
0.0106483
0.0128783
0.0145475
0.0155824
0.0159371
0.0155953
0.0145711
0.0129085
0.0106798
0.00798234
0.0049342
0.00166919
0.00279069
0.00825091
0.0133528
0.0178744
0.0216187
0.0244217
0.0261603
0.0267572
0.0261846
0.0244661
0.0216755
0.0179338
0.0134045
0.00828602
0.00280311
0.00400293
0.0118351
0.0191536
0.0256403
0.0310125
0.0350351
0.037531
0.0383892
0.0375696
0.0351056
0.0311027
0.0257347
0.0192358
0.0118909
0.00402266
0.00533575
0.0157759
0.025532
0.0341801
0.0413433
0.0467084
0.0500389
0.0511862
0.0500964
0.0468135
0.0414779
0.0343207
0.0256545
0.0158591
0.00536516
0.00682919
0.0201918
0.0326797
0.0437508
0.0529228
0.0597944
0.0640626
0.0655364
0.064146
0.0599467
0.0531177
0.0439546
0.0328572
0.0203123
0.0068718
0.00852796
0.0252151
0.0408112
0.05464
0.0660995
0.0746881
0.0800266
0.0818753
0.0801458
0.0749059
0.0663783
0.0549315
0.0410651
0.0253874
0.0085889
0.0104828
0.0309958
0.0501699
0.0671744
0.0812696
0.0918385
0.0984137
0.100699
0.0985831
0.092148
0.0816657
0.0675885
0.0505305
0.0312406
0.0105694
0.0127519
0.0377063
0.0610349
0.0817287
0.0988882
0.111762
0.11978
0.122578
0.120019
0.1122
0.0994491
0.0823152
0.0615457
0.038053
0.0128746
0.0154026
0.0455457
0.0737294
0.0987371
0.119483
0.135057
0.144769
0.148177
0.145109
0.135677
0.120276
0.0995664
0.0744516
0.0460358
0.015576
0.018513
0.0547454
0.0886293
0.118705
0.143667
0.162423
0.174137
0.178272
0.174616
0.163299
0.144788
0.119876
0.0896496
0.0554379
0.0187579
0.0221743
0.0655758
0.106173
0.142223
0.172162
0.194678
0.208767
0.213776
0.209444
0.195915
0.173744
0.143877
0.107614
0.0665539
0.0225203
0.0264934
0.0783531
0.126876
0.169983
0.20581
0.232786
0.249701
0.255767
0.250657
0.234532
0.208044
0.172319
0.128911
0.0797341
0.0269819
0.0315949
0.0934474
0.151339
0.202798
0.245604
0.277878
0.298169
0.305518
0.299518
0.280343
0.248758
0.206097
0.154211
0.0953972
0.0322846
0.0376251
0.111292
0.180268
0.241621
0.29271
0.331292
0.355622
0.364537
0.357526
0.334772
0.297164
0.246278
0.184324
0.114045
0.0385989
0.0447547
0.132394
0.21449
0.287571
0.348501
0.394602
0.423778
0.434615
0.426466
0.399514
0.354788
0.294146
0.220215
0.13628
0.0461294
0.0531829
0.157345
0.254971
0.341959
0.414587
0.469665
0.504668
0.517874
0.508463
0.476599
0.423462
0.35124
0.263054
0.162831
0.0551238
0.0631414
0.186833
0.302838
0.406316
0.492861
0.558665
0.600693
0.616837
0.60605
0.568453
0.505389
0.41942
0.31425
0.19458
0.0658817
0.0748991
0.22166
0.359402
0.482432
0.585535
0.664174
0.714691
0.734499
0.722252
0.677991
0.60322
0.50093
0.375514
0.232597
0.0787681
0.0887658
0.262747
0.426182
0.572384
0.695195
0.789209
0.850013
0.874418
0.860685
0.808711
0.72016
0.598499
0.44893
0.27819
0.0942289
0.105097
0.311158
0.504928
0.678578
0.824849
0.937304
1.01061
1.04082
1.02567
0.96483
0.860089
0.715446
0.537045
0.332964
0.112812
0.124299
0.368104
0.597643
0.803783
0.977983
1.11258
1.20112
1.23871
1.22238
1.15143
1.02773
0.855831
0.642992
0.398897
0.135194
0.146827
0.434954
0.706605
0.951165
1.15861
1.31984
1.42702
1.47405
1.45701
1.37466
1.22882
1.02465
0.770643
0.478445
0.162216
0.173194
0.513245
0.834377
1.12431
1.37134
1.56463
1.69468
1.75386
1.73699
1.64198
1.47043
1.22806
0.924815
0.574679
0.194935
0.203961
0.604671
0.983809
1.32726
1.62137
1.85331
2.01155
2.08649
2.07122
1.96244
1.76122
1.47373
1.11155
0.691472
0.234685
0.239738
0.711073
1.15802
1.56446
1.91457
2.19318
2.38627
2.48174
2.4704
2.34708
2.1119
1.77126
1.33848
0.833756
0.283173
0.281165
0.834408
1.36036
1.84077
2.25742
2.59242
2.82876
2.95116
2.94731
2.8094
2.53582
2.13277
1.61537
1.00788
0.342604
0.328902
0.976691
1.59432
2.16135
2.65696
3.06017
3.35037
3.50824
3.51731
3.36592
3.04964
2.57368
1.95482
1.22214
0.415873
0.383591
1.13991
1.86342
2.53151
3.12065
3.6064
3.96385
4.16864
4.19872
4.03694
3.67433
3.1138
2.37329
1.48749
0.506835
0.44582
1.32592
2.171
2.95649
3.65612
4.2417
4.68333
4.95035
5.01335
4.84739
4.43646
3.7789
2.89265
1.81871
0.62072
0.516062
1.53623
2.51995
3.44107
4.27078
4.97696
5.52404
5.87371
5.98696
5.82794
5.36985
4.6028
3.54234
2.23605
0.76478
0.594606
1.77184
2.91237
3.98912
4.9712
5.82268
6.50182
6.96123
7.14963
7.01615
6.51775
5.63045
4.36273
2.76796
0.949313
0.681463
2.03294
3.34908
4.60289
5.76229
6.78806
7.63216
8.2369
8.53581
8.45773
7.93571
6.92224
5.41022
3.45534
1.18938
0.776265
2.31858
3.82904
5.2822
6.64616
7.87957
8.9287
9.72492
10.1838
10.2076
9.69493
8.56022
6.76522
4.35874
1.50778
0.878154
2.62634
4.34877
6.02344
7.62065
9.09901
10.4008
11.4472
12.1337
12.3299
11.8861
10.6567
8.54484
5.57078
1.94049
0.985676
2.95198
4.90165
6.81845
8.67764
10.441
12.0503
13.4193
14.4243
14.8965
14.6229
13.3659
10.9232
7.23852
2.54728
1.0967
3.28915
5.47733
7.65344
9.80114
11.8899
13.8667
15.6442
17.0846
17.9811
18.0424
16.8986
14.1639
9.60527
3.43413
1.20838
3.62927
6.06138
8.50812
10.9655
13.4165
15.8214
18.103
20.1226
21.6457
22.2987
21.536
18.6712
13.0918
4.80508
1.3172
3.96158
6.63525
9.35537
12.1343
14.975
17.8617
20.7438
23.5055
25.9143
27.538
27.6333
25.0635
18.4583
7.09507
1.41909
4.27353
7.17683
10.1617
13.2603
16.5015
19.9052
23.468
27.1332
30.7281
33.8387
35.581
34.2582
27.1288
11.3482
1.50969
4.55153
7.66172
10.8891
14.287
17.9151
21.8382
26.1211
30.8097
35.878
41.0894
45.6573
47.485
41.807
20.4038
1.58469
4.78205
8.06524
11.4979
15.154
19.1238
23.5212
28.4923
34.2225
40.9285
48.7869
57.6361
65.9238
67.4054
42.9347
1.64024
4.95296
8.36495
11.9514
15.803
20.0355
24.8057
30.3362
36.9575
45.1785
55.7961
70.0047
89.0889
111.026
108.103
1.67341
5.05491
8.54344
12.2209
16.1874
20.5737
25.5621
31.4226
38.5816
47.7639
60.3113
78.987
110.273
171.909
321.386
1.68249
5.08252
8.59069
12.2896
16.2802
20.6937
25.7128
31.607
38.8006
48.0122
60.5704
79.2121
110.379
171.792
321.104
1.66723
5.03502
8.5054
12.1559
16.0791
20.3931
25.2557
30.889
37.618
45.9364
56.6045
70.7388
89.4807
110.632
106.752
1.6288
4.91624
8.29504
11.8326
15.6068
19.7114
24.2634
29.4098
35.3316
42.2285
50.2313
59.0654
66.9087
66.8558
37.9716
-11.313
-9.23029
-7.6665
-6.45393
-5.47503
-4.65772
-3.95657
-3.34145
-2.79136
-2.29097
-1.82857
-1.39485
-0.982118
-0.583711
-0.193656
-4.24521
-5.88828
-5.81904
-5.31319
-4.71645
-4.12773
-3.57394
-3.05938
-2.5811
-2.13402
-1.71266
-1.3117
-0.926187
-0.551465
-0.183119
-1.93254
-3.73533
-4.27476
-4.23554
-3.95226
-3.57346
-3.16404
-2.75209
-2.34917
-1.95921
-1.58255
-1.21781
-0.862757
-0.514788
-0.171116
-1.052
-2.45968
-3.13228
-3.32735
-3.25439
-3.04043
-2.75588
-2.43851
-2.10821
-1.77514
-1.44417
-1.11718
-0.794403
-0.475123
-0.158113
-0.655011
-1.69448
-2.3214
-2.60527
-2.6544
-2.5564
-2.3705
-2.1339
-1.86915
-1.58962
-1.30301
-1.01362
-0.723613
-0.433877
-0.144565
-0.445901
-1.21576
-1.74873
-2.0462
-2.15657
-2.13339
-2.02031
-1.84883
-1.64035
-1.40898
-1.16379
-0.910489
-0.652627
-0.392335
-0.13089
-0.321469
-0.901549
-1.33958
-1.61705
-1.75145
-1.7728
-1.71067
-1.58943
-1.42744
-1.23794
-1.03017
-0.810518
-0.583324
-0.35159
-0.117447
-0.240686
-0.685973
-1.04194
-1.28723
-1.42485
-1.47016
-1.44207
-1.35831
-1.23363
-1.07957
-0.904814
-0.715775
-0.51717
-0.312514
-0.104526
-0.184961
-0.53242
-0.821146
-1.03217
-1.16232
-1.21849
-1.21213
-1.15559
-1.06021
-0.935569
-0.789366
-0.627669
-0.455216
-0.275751
-0.0923412
-0.144832
-0.419652
-0.654306
-0.833268
-0.951176
-1.01024
-1.01702
-0.979838
-0.907116
-0.806531
-0.684672
-0.54703
-0.398128
-0.241726
-0.0810396
-0.115013
-0.334773
-0.526137
-0.676757
-0.780884
-0.838289
-0.852437
-0.828756
-0.773363
-0.69226
-0.590934
-0.474205
-0.346245
-0.210675
-0.0707045