/*--------------------------------*- C++ -*----------------------------------*\
| =========                 |                                                 |
| \\      /  F ield         | OpenFOAM: The Open Source CFD Toolbox           |
|  \\    /   O peration     | Version:  5.x                                   |
|   \\  /    A nd           | Web:      www.OpenFOAM.org                      |
|    \\/     M anipulation  |                                                 |
\*---------------------------------------------------------------------------*/
FoamFile
{
    version     2.0;
    format      ascii;
    class       volScalarField;
    location    "19.6";
    object      T;
}
// * * * * * * * * * * * * * * * * * * * * * * * * * * * * * * * * * * * * * //

dimensions      [0 0 0 1 0 0 0];

internalField   nonuniform List<scalar> 
6300
(
9.92453
9.77469
9.62811
9.48695
9.35327
9.22905
9.11612
9.01611
8.93039
8.86001
8.80564
8.7675
8.74532
8.73835
8.74537
9.92343
9.77141
9.62269
9.47946
9.3438
9.21775
9.10319
9.0018
8.91502
8.84398
8.78939
8.75151
8.73008
8.72433
8.73297
9.92123
9.76482
9.61179
9.46437
9.32472
9.19496
9.07706
8.97285
8.8839
8.81147
8.75639
8.71903
8.69914
8.6959
8.70787
9.9179
9.75486
9.59529
9.44149
9.29574
9.16028
9.03723
8.92863
8.83624
8.76157
8.70567
8.66904
8.65151
8.6522
8.66945
9.91341
9.74141
9.573
9.41055
9.25647
9.11316
8.98296
8.86816
8.77086
8.69289
8.63565
8.59991
8.58565
8.5919
8.61671
9.90772
9.72439
9.54474
9.37124
9.20643
9.0529
8.91327
8.79016
8.68611
8.60345
8.54409
8.50927
8.49924
8.51301
8.5482
9.90082
9.70369
9.51031
9.32322
9.14511
8.97874
8.82705
8.69309
8.57996
8.49069
8.42798
8.39381
8.389
8.41266
8.46187
9.89267
9.67925
9.46957
9.26624
9.07202
8.88989
8.72309
8.57517
8.44993
8.35136
8.28328
8.24896
8.25025
8.28674
8.35485
9.88328
9.65105
9.42248
9.20014
8.98683
8.78568
8.60023
8.43454
8.29323
8.18149
8.10482
8.06846
8.07629
8.12916
8.22299
9.87269
9.6192
9.36914
9.12499
8.88948
8.66577
8.45761
8.2695
8.10694
7.97654
7.88603
7.84374
7.85725
7.93058
8.06005
9.86097
9.58391
9.30991
9.0412
8.78032
8.53031
8.29491
8.0789
7.88846
7.73168
7.61899
7.5632
7.57835
7.67583
7.85583
9.84824
9.54555
9.24537
8.94956
8.66029
8.38023
8.11282
7.8627
7.6363
7.44272
7.29504
7.21168
7.2171
7.33853
7.59157
9.8347
9.50468
9.17646
8.85137
8.53103
8.21747
7.91343
7.62279
7.35129
7.10785
6.90674
6.77136
6.73982
6.8696
7.22584
9.82057
9.46202
9.10441
8.74844
8.39499
8.04519
7.70063
7.36371
7.03822
6.73062
6.45268
6.22719
6.10117
6.17419
6.64338
9.80614
9.41842
9.0307
8.64299
8.25529
7.86765
7.4802
7.09318
6.70723
6.32374
5.94615
5.58355
5.26344
5.0826
5.43696
8.76312
8.78662
8.81626
8.8508
8.889
8.92964
8.97162
9.01392
9.05562
9.09594
9.1342
9.16983
9.20236
9.23141
9.25666
9.27787
9.29484
9.30743
9.31553
9.31907
9.31799
9.31227
9.3019
9.28689
9.26725
9.24303
9.21426
9.181
9.1433
9.10122
9.05484
9.0042
8.94939
8.89045
8.82745
8.76045
8.68951
8.61467
8.53598
8.45351
8.36731
8.27743
8.18393
8.08688
7.98633
7.88235
7.775
7.66434
7.55042
7.4333
7.31303
7.18964
7.06318
6.9337
6.80125
6.66588
6.52766
6.38666
6.24295
6.09664
5.94783
5.79662
5.64313
5.48749
5.32982
5.17026
5.00896
4.84609
4.68182
4.51636
4.34994
4.18283
4.01532
3.84774
3.68046
3.51385
3.34832
3.18431
3.02225
2.86257
2.7057
2.55206
2.40203
2.25599
2.11426
1.97712
1.8448
1.71748
1.59527
1.47822
8.75249
8.77772
8.80916
8.84549
8.88541
8.92767
8.97111
9.01471
9.05755
9.09884
9.13792
9.17423
9.20731
9.2368
9.26241
9.28389
9.30107
9.31382
9.32203
9.32564
9.3246
9.31889
9.30851
9.29346
9.27378
9.24949
9.22065
9.1873
9.14952
9.10735
9.06087
9.01014
8.95523
8.89621
8.83313
8.76605
8.69503
8.62011
8.54136
8.45881
8.37252
8.28256
8.18897
8.09183
7.99119
7.88712
7.77969
7.66895
7.55496
7.43777
7.31743
7.19398
7.06746
6.93792
6.80539
6.66993
6.5316
6.39048
6.24664
6.10019
5.95122
5.79984
5.64618
5.49035
5.33249
5.17271
5.01118
4.84805
4.68348
4.51769
4.35089
4.18336
4.01538
3.84729
3.67944
3.51224
3.34611
3.18148
3.01879
2.85849
2.70103
2.54682
2.39628
2.24977
2.10763
1.97016
1.83759
1.71011
1.58783
1.4708
8.73103
8.75984
8.79498
8.83497
8.8784
8.92393
8.97033
9.01654
9.06165
9.10487
9.14556
9.1832
9.21737
9.24773
9.27402
9.29604
9.31362
9.32667
9.33508
9.33882
9.33785
9.33216
9.32175
9.30663
9.28685
9.26244
9.23344
9.19993
9.16196
9.1196
9.07293
9.02202
8.96693
8.90773
8.84449
8.77725
8.70608
8.63102
8.55211
8.46941
8.38296
8.29282
8.19906
8.10174
8.00092
7.89667
7.78907
7.67817
7.56404
7.44672
7.32625
7.20268
7.07604
6.94636
6.81367
6.67804
6.5395
6.39814
6.25404
6.1073
5.95801
5.80631
5.65229
5.4961
5.33784
5.17765
5.01566
4.85201
4.68687
4.52042
4.35287
4.18449
4.01556
3.84643
3.67747
3.50908
3.34171
3.17581
3.01185
2.85031
2.69163
2.53628
2.38468
2.23722
2.09426
1.95611
1.82303
1.69522
1.5728
1.45583
8.69836
8.73281
8.77375
8.81946
8.86832
8.91886
8.96976
9.01991
9.0684
9.11447
9.15753
9.19711
9.23284
9.26445
9.29172
9.31449
9.33264
9.34609
9.3548
9.35871
9.35783
9.35214
9.34168
9.32645
9.30651
9.28189
9.25266
9.21888
9.18063
9.13799
9.09102
9.03982
8.98446
8.925
8.86151
8.79404
8.72265
8.64737
8.56824
8.48531
8.39862
8.30823
8.2142
8.1166
8.01549
7.91097
7.80311
7.69197
7.57762
7.46011
7.33947
7.21573
7.08892
6.95905
6.82614
6.69025
6.55141
6.40969
6.26519
6.118
5.96824
5.81603
5.66149
5.50475
5.34593
5.18513
5.02248
4.85809
4.6921
4.52467
4.35601
4.18636
4.016
3.84529
3.67462
3.50441
3.33515
3.16731
3.00141
2.83795
2.67743
2.52033
2.3671
2.21817
2.07394
1.93474
1.80087
1.67255
1.54992
1.43304
8.65387
8.69641
8.74559
8.79936
8.85579
8.91321
8.97021
9.02562
9.07857
9.12835
9.17445
9.21649
9.25419
9.28735
9.31582
9.33951
9.35835
9.37229
9.38132
9.38544
9.38463
9.37894
9.36837
9.35298
9.33281
9.3079
9.27834
9.2442
9.20556
9.1625
9.11513
9.06353
9.00779
8.94798
8.88417
8.81641
8.74473
8.66917
8.58977
8.50654
8.41954
8.3288
8.2344
8.13641
8.03492
7.93001
7.82179
7.71032
7.59569
7.47793
7.35707
7.23314
7.10613
6.97603
6.84286
6.70663
6.56739
6.42519
6.28014
6.13234
5.98193
5.82904
5.67381
5.51636
5.3568
5.19524
5.03174
4.86641
4.69934
4.53066
4.36054
4.18919
4.01692
3.84407
3.67106
3.49836
3.32649
3.156
2.98743
2.82134
2.65828
2.49877
2.3433
2.19235
2.04634
1.90569
1.77071
1.64167
1.51875
1.40201
8.59675
8.65038
8.71079
8.77536
8.84179
8.90813
8.97286
9.03484
9.09323
9.14747
9.19716
9.24205
9.28201
9.31692
9.34674
9.37144
9.39102
9.40549
9.41486
9.41916
9.41841
9.41266
9.40195
9.38632
9.36583
9.34055
9.31055
9.27591
9.23675
9.19316
9.14525
9.09313
9.0369
8.97665
8.91244
8.84432
8.77231
8.69644
8.61671
8.53314
8.44575
8.35458
8.25969
8.16119
8.05917
7.95376
7.84505
7.73317
7.61818
7.50013
7.37904
7.25491
7.1277
6.99738
6.86392
6.7273
6.58755
6.44475
6.29898
6.15039
5.99913
5.84537
5.68926
5.53094
5.37052
5.20806
5.04361
4.8772
4.70887
4.53869
4.36677
4.19333
4.01862
3.84303
3.66701
3.49108
3.31583
3.14187
2.96984
2.80035
2.63399
2.47135
2.31297
2.15937
2.01104
1.86843
1.73197
1.60197
1.47866
1.36214
8.52591
8.59455
8.66993
8.74866
8.82785
8.90531
8.97944
9.04916
9.11382
9.17306
9.2267
9.27468
9.31701
9.35375
9.38495
9.41068
9.43099
9.44596
9.45563
9.46006
9.45932
9.45345
9.44252
9.42657
9.40568
9.3799
9.34933
9.31407
9.27423
9.22994
9.18134
9.12856
9.07173
9.01094
8.94626
8.87774
8.80538
8.72918
8.64911
8.56516
8.47731
8.38561
8.29012
8.19096
8.08825
7.98216
7.87283
7.76041
7.64499
7.52663
7.40533
7.28104
7.15369
7.02319
6.88944
6.7524
6.61207
6.4685
6.32182
6.17221
6.01987
5.86502
5.70784
5.54851
5.38711
5.2237
5.05824
4.8907
4.72101
4.54916
4.37518
4.19923
4.02156
3.84258
3.66278
3.48278
3.30327
3.12496
2.94857
2.7748
2.60433
2.43778
2.27574
2.11878
1.96746
1.82232
1.68389
1.55261
1.4288
1.31258
8.44001
8.52897
8.62423
8.72121
8.81637
8.90724
8.99229
9.07071
9.14217
9.20666
9.26432
9.31536
9.36001
9.39849
9.43098
9.45764
9.4786
9.49397
9.50386
9.50835
9.50753
9.50147
9.49024
9.47388
9.45248
9.42609
9.3948
9.35874
9.31804
9.27286
9.22338
9.16976
9.11218
9.05074
8.98554
8.91661
8.84392
8.76742
8.68704
8.6027
8.51435
8.42202
8.32578
8.22575
8.12213
8.01514
7.905
7.7919
7.67598
7.5573
7.43585
7.31152
7.18417
7.0536
6.91965
6.78218
6.64117
6.49667
6.34884
6.19791
6.04418
5.88795
5.72949
5.569
5.40657
5.24222
5.07583
4.90724
4.73623
4.56264
4.3864
4.20756
4.02637
3.84326
3.65881
3.47376
3.28895
3.10524
2.92348
2.74449
2.569
2.39769
2.23117
2.07005
1.91495
1.76654
1.6255
1.49249
1.36798
1.25219
8.33747
8.45428
8.57601
8.69635
8.81102
8.9175
9.01465
9.10223
9.18051
9.25004
9.31141
9.36518
9.41185
9.4518
9.48535
9.51275
9.53418
9.54982
9.55979
9.56422
9.56322
9.55687
9.54525
9.5284
9.50638
9.47924
9.44708
9.41002
9.36823
9.3219
9.27128
9.21661
9.15809
9.09589
9.03012
8.9608
8.88786
8.81118
8.73059
8.64592
8.55707
8.464
8.3668
8.26565
8.1608
8.0526
7.94136
7.82738
7.71087
7.5919
7.47043
7.34629
7.21921
7.08883
6.95485
6.81702
6.67524
6.52959
6.38025
6.22759
6.07204
5.91404
5.75401
5.59221
5.42877
5.26363
5.09656
4.92721
4.75513
4.57991
4.4013
4.21924
4.03392
3.84583
3.65567
3.46438
3.27302
3.08268
2.8944
2.70911
2.52764
2.35067
2.1788
2.01263
1.8528
1.70012
1.55556
1.42009
1.29458
1.17942
8.21653
8.37248
8.52972
8.67962
8.81739
8.94113
9.05073
9.14706
9.23141
9.30511
9.36938
9.42518
9.47328
9.51425
9.54851
9.57637
9.59805
9.61374
9.62362
9.62784
9.62653
9.6198
9.60771
9.59029
9.56756
9.53955
9.50634
9.46804
9.42486
9.37706
9.32496
9.2689
9.20921
9.14611
9.07975
9.01012
8.93712
8.8605
8.77994
8.6951
8.60577
8.51186
8.41345
8.31078
8.20425
8.09434
7.98159
7.86645
7.74922
7.63003
7.5088
7.38525
7.25892
7.1292
6.99552
6.85747
6.71485
6.56773
6.4164
6.26139
6.10335
5.94302
5.78101
5.61774
5.45336
5.28776
5.12054
4.95106
4.7785
4.60204
4.42114
4.23556
4.04544
3.85132
3.65412
3.45506
3.25559
3.05712
2.86097
2.66822
2.47977
2.29627
2.11823
1.94605
1.78032
1.62202
1.47248
1.33336
1.20628
1.09201
8.07583
8.28875
8.49398
8.68031
8.84393
8.98506
9.10586
9.20909
9.29756
9.37372
9.43946
9.49619
9.5449
9.58629
9.62082
9.64881
9.67046
9.68597
9.69553
9.69934
9.69757
9.69035
9.67775
9.65974
9.63626
9.60728
9.57282
9.53301
9.48806
9.43831
9.38423
9.32636
9.26515
9.20096
9.13398
9.06422
8.99149
8.91541
8.83535
8.75067
8.66099
8.56612
8.46616
8.36141
8.25247
8.1401
8.02519
7.90843
7.79033
7.67102
7.55044
7.42814
7.30342
7.1752
7.04242
6.90443
6.76088
6.61188
6.45779
6.29947
6.13791
5.97437
5.80978
5.64481
5.47965
5.31417
5.14773
4.97931
4.80741
4.63052
4.44768
4.25836
4.06269
3.86122
3.65521
3.44631
3.23668
3.02821
2.82261
2.62111
2.42473
2.234
2.0492
1.87018
1.69713
1.53127
1.37438
1.22929
1.09951
0.986636
7.91648
8.21607
8.48538
8.71365
8.90278
9.05819
9.18624
9.29232
9.38136
9.45725
9.52243
9.57868
9.62699
9.66814
9.70247
9.73028
9.75162
9.76667
9.77563
9.77877
9.77636
9.76857
9.7555
9.73699
9.71278
9.6828
9.64692
9.60531
9.55806
9.50573
9.44886
9.38852
9.32527
9.25976
9.1921
9.1225
9.05061
8.97597
8.89732
8.81336
8.7236
8.62761
8.52567
8.41796
8.30556
8.18942
8.07137
7.95228
7.83308
7.71376
7.59447
7.47446
7.35289
7.22768
7.09676
6.95933
6.81469
6.66325
6.50523
6.34214
6.17525
6.00717
5.83903
5.67211
5.50634
5.3419
5.1777
5.01254
4.84346
4.66752
4.48349
4.29027
4.08825
3.87762
3.66042
3.43857
3.21607
2.99512
2.77833
2.56661
2.36153
2.16316
1.97181
1.78568
1.60359
1.42757
1.25928
1.10318
0.968357
0.858055
7.75104
8.18693
8.53582
8.80332
9.01013
9.17068
9.29819
9.40003
9.48403
9.55614
9.61822
9.67255
9.71932
9.75973
9.79345
9.82102
9.84177
9.85606
9.86405
9.86614
9.86282
9.85432
9.84103
9.82236
9.79755
9.76672
9.72922
9.68563
9.6353
9.5796
9.51843
9.45481
9.38858
9.32157
9.25295
9.18401
9.11361
9.04223
8.96685
8.88433
8.79513
8.69759
8.59341
8.48121
8.36399
8.2414
8.11899
7.99623
7.87595
7.75641
7.63946
7.52295
7.40753
7.28833
7.16042
7.02455
6.87825
6.72405
6.55993
6.3902
6.21429
6.03999
5.86648
5.69769
5.5311
5.36923
5.20904
5.05135
4.88935
4.71614
4.5325
4.33481
4.12618
3.90347
3.67228
3.43172
3.19323
2.956
2.72671
2.50252
2.28867
2.08217
1.8869
1.69534
1.50129
1.31272
1.1266
0.946443
0.801884
0.697489
7.64539
8.28302
8.70342
8.98031
9.18404
9.33068
9.44705
9.53335
9.60374
9.66942
9.72507
9.77721
9.82073
9.86088
9.89321
9.92148
9.94114
9.95446
9.96085
9.9612
9.95667
9.94686
9.9342
9.9165
9.89088
9.86016
9.8202
9.77556
9.72018
9.66126
9.59143
9.52474
9.45292
9.38561
9.31414
9.24756
9.17789
9.11418
9.04658
8.96483
8.87855
8.77707
8.67259
8.5516
8.43005
8.29306
8.16703
8.03651
7.91765
7.79526
7.68374
7.56981
7.46754
7.36142
7.23549
7.1047
6.95312
6.79904
6.62265
6.44711
6.25093
6.0716
5.88708
5.72004
5.54899
5.39409
5.2367
5.0963
4.95136
4.77971
4.60168
4.39507
4.18433
3.94148
3.69761
3.42185
3.16855
2.9054
2.66774
2.4235
2.20522
1.985
1.79664
1.60855
1.39111
1.19431
0.985339
0.738428
0.577564
0.489539
7.93323
8.69189
9.0776
9.26261
9.4401
9.5342
9.63916
9.6895
9.73018
9.79706
9.83693
9.89419
9.92695
9.9732
9.99874
10.0343
10.0496
10.0627
10.0663
10.0632
10.0581
10.0434
10.0346
10.0219
9.9915
9.96682
9.91782
9.88089
9.81008
9.75855
9.65983
9.60197
9.51071
9.45553
9.36823
9.31547
9.23353
9.19161
9.14663
9.05179
8.98377
8.86077
8.77548
8.62274
8.51827
8.32885
8.22146
8.05991
7.96438
7.81839
7.73143
7.5998
7.53302
7.46298
7.31748
7.21474
7.03153
6.90609
6.68411
6.53366
6.26324
6.11064
5.88246
5.74809
5.5436
5.42246
5.23987
5.14776
5.05175
4.85246
4.71197
4.46126
4.28866
3.98094
3.7688
3.37963
3.158
2.81809
2.61823
2.30706
2.12453
1.84194
1.70594
1.56404
1.25119
1.09342
0.898701
0.406495
0.248354
0.206531
1.35511
1.2281
1.1081
0.994753
0.887619
0.786187
0.68991
0.598222
0.510545
0.426307
0.344946
0.265912
0.18867
0.112697
0.0374818
1.34782
1.22107
1.10143
0.988534
0.881907
0.781023
0.685316
0.594204
0.5071
0.423426
0.342615
0.264117
0.187398
0.111939
0.0372297
1.33312
1.2069
1.08802
0.976036
0.870445
0.770674
0.67612
0.586172
0.500222
0.417679
0.337969
0.260542
0.184866
0.110428
0.0367278
1.31076
1.18539
1.06769
0.957137
0.853156
0.755101
0.662313
0.574136
0.489933
0.409093
0.331036
0.255212
0.181094
0.10818
0.0359807
1.28035
1.15621
1.04019
0.931662
0.829931
0.734253
0.643888
0.55812
0.476275
0.39772
0.321869
0.248172
0.176117
0.105214
0.0349958
1.24134
1.11891
1.00518
0.899383
0.800645
0.708086
0.620859
0.538177
0.459322
0.38364
0.310543
0.23949
0.169985
0.101564
0.0337838
1.19299
1.07287
0.962237
0.860037
0.765172
0.676578
0.593278
0.514403
0.43919
0.366973
0.297169
0.229257
0.162768
0.0972711
0.0323592
1.13429
1.01735
0.910846
0.813346
0.723421
0.639771
0.561267
0.486961
0.416057
0.347891
0.2819
0.217598
0.154558
0.0923924
0.0307409
1.06391
0.951376
0.850443
0.759072
0.675389
0.59781
0.525054
0.456112
0.390182
0.32663
0.264939
0.204676
0.145472
0.0869984
0.0289524
0.980025
0.873797
0.780471
0.697104
0.621247
0.551018
0.485024
0.422244
0.361927
0.303507
0.246546
0.190693
0.135655
0.0811756
0.0270227
0.880201
0.783305
0.700532
0.627619
0.561471
0.499987
0.441774
0.38591
0.33177
0.27892
0.227043
0.175894
0.125278
0.0750254
0.0249852
0.76115
0.678684
0.610728
0.551361
0.497025
0.445679
0.396172
0.347848
0.300321
0.253359
0.206808
0.160561
0.114536
0.0686621
0.0228776
0.618846
0.559546
0.512327
0.470069
0.429583
0.389528
0.349384
0.308984
0.268305
0.227383
0.186267
0.145005
0.103641
0.0622093
0.0207404
0.450042
0.42832
0.408962
0.387
0.361706
0.333463
0.302849
0.270394
0.236531
0.2016
0.165869
0.12955
0.0928114
0.0557934
0.0186152
0.259869
0.294726
0.308196
0.30726
0.296774
0.279764
0.258152
0.233211
0.205821
0.176614
0.146058
0.114513
0.082261
0.0495371
0.0165419
9.79291
9.37845
8.96313
8.5463
8.12716
7.70474
7.27771
6.84423
6.40155
5.94534
5.46806
4.95458
4.36783
3.59136
2.1596
9.78108
9.34272
8.90276
8.45999
8.01297
7.55984
7.09811
6.62428
6.13304
5.61597
5.05858
4.43366
3.68538
2.69073
1.18535
9.76961
9.30809
8.84433
8.37664
7.90301
7.42089
6.92693
6.41641
5.88247
5.31461
4.69597
3.99841
3.17401
2.14477
0.812026
9.75864
9.27502
8.78863
8.29741
7.79893
7.29017
6.76723
6.22479
5.65545
5.04849
4.38817
3.65124
2.8049
1.80955
0.640999
9.7483
9.24387
8.73628
8.22322
7.70199
7.16931
6.62106
6.05186
5.45454
4.81944
4.13355
3.38004
2.53926
1.59462
0.54875
9.73867
9.2149
8.68774
8.15471
7.61299
7.05926
6.48943
5.89845
5.27987
4.62565
3.9259
3.16943
2.34573
1.45
0.492352
9.72982
9.1883
8.64327
8.09222
7.53234
6.96037
6.37251
5.76419
5.12996
4.46346
3.75762
3.00551
2.20222
1.34837
0.454745
9.72176
9.16412
8.60299
8.03588
7.46006
6.87252
6.26979
5.64792
5.00246
4.32859
3.62148
2.87713
2.09383
1.27436
0.428154
9.7145
9.14238
8.56686
7.98556
7.39594
6.79522
6.18035
5.54802
4.89469
4.21681
3.51121
2.77578
2.01055
1.21891
0.408581
9.70802
9.123
8.53474
7.94103
7.33952
6.72773
6.10304
5.4627
4.80396
4.12428
3.42164
2.69514
1.94562
1.17643
0.393754
9.70228
9.10585
8.50642
7.90192
7.29024
6.66921
6.03659
5.39015
4.72778
4.04768
3.34865
2.63047
1.89435
1.14331
0.382282
9.69724
9.0908
8.4816
7.86778
7.24746
6.61874
5.97974
5.32867
4.66391
3.98423
3.28895
2.57826
1.85344
1.11714
0.373262
9.69283
9.07766
8.45999
7.83816
7.21051
6.5754
5.93127
5.27668
4.61041
3.93161
3.23996
2.53584
1.82052
1.09622
0.366082
9.689
9.06625
8.44127
7.81258
7.17874
6.53833
5.89007
5.2328
4.56561
3.88792
3.19963
2.50121
1.79383
1.07935
0.360309
9.68569
9.0564
8.42513
7.79059
7.15151
6.50672
5.85512
5.19581
4.52809
3.85159
3.16633
2.47281
1.77206
1.06565
0.355631
9.68283
9.04792
8.41127
7.77174
7.12826
6.47982
5.82553
5.16465
4.49667
3.82134
3.13876
2.44942
1.75422
1.05446
0.351817
9.68039
9.04065
8.39939
7.75564
7.10845
6.45699
5.80051
5.13843
4.47035
3.79613
3.1159
2.4301
1.73953
1.04528
0.348691
9.67829
9.03443
8.38926
7.74192
7.09162
6.43764
5.77938
5.11637
4.4483
3.77509
3.09689
2.41411
1.72741
1.03771
0.346118
9.67651
9.02914
8.38063
7.73025
7.07733
6.42127
5.76156
5.09781
4.42982
3.75752
3.08107
2.40083
1.71737
1.03145
0.343992
9.67499
9.02463
8.37329
7.72035
7.06523
6.40743
5.74653
5.08222
4.41432
3.74283
3.06788
2.38979
1.70904
1.02627
0.342232
9.67369
9.0208
8.36706
7.71196
7.05499
6.39574
5.73386
5.0691
4.40133
3.73054
3.05687
2.38059
1.70211
1.02196
0.340771
9.6726
9.01755
8.36179
7.70486
7.04634
6.38588
5.7232
5.05808
4.39043
3.72026
3.04767
2.37291
1.69633
1.01837
0.339556
9.67167
9.0148
8.35733
7.69885
7.03904
6.37757
5.71422
5.04882
4.38129
3.71164
3.03998
2.36651
1.69152
1.01539
0.338543
9.67089
9.01248
8.35356
7.69379
7.03288
6.37057
5.70667
5.04104
4.37362
3.70442
3.03354
2.36115
1.6875
1.01289
0.337698
9.67022
9.01052
8.35038
7.68951
7.02768
6.36467
5.70032
5.03451
4.36719
3.69838
3.02816
2.35667
1.68414
1.01081
0.336993
9.66966
9.00886
8.34769
7.68591
7.02331
6.35971
5.69498
5.02902
4.36179
3.69331
3.02364
2.35293
1.68133
1.00907
0.336404
9.66919
9.00747
8.34543
7.68287
7.01963
6.35554
5.69049
5.02441
4.35726
3.68906
3.01986
2.34979
1.67898
1.00762
0.335911
9.6688
9.00629
8.34353
7.68032
7.01653
6.35203
5.68672
5.02054
4.35346
3.68549
3.0167
2.34716
1.67701
1.0064
0.335499
9.66846
9.00531
8.34192
7.67817
7.01393
6.34908
5.68355
5.01729
4.35027
3.68251
3.01405
2.34497
1.67537
1.00538
0.335154
9.66818
9.00448
8.34058
7.67637
7.01174
6.34661
5.6809
5.01457
4.3476
3.68001
3.01183
2.34313
1.67399
1.00453
0.334865
9.66794
9.00378
8.33945
7.67486
7.00991
6.34454
5.67867
5.01229
4.34537
3.67792
3.00997
2.34159
1.67284
1.00382
0.334624
9.66775
9.0032
8.33851
7.67359
7.00838
6.3428
5.67681
5.01038
4.3435
3.67617
3.00842
2.3403
1.67188
1.00322
0.334423
9.66758
9.00271
8.33772
7.67253
7.0071
6.34135
5.67526
5.00879
4.34194
3.67471
3.00713
2.33923
1.67108
1.00273
0.334256
9.66744
9.0023
8.33706
7.67165
7.00603
6.34015
5.67397
5.00747
4.34064
3.6735
3.00605
2.33834
1.67041
1.00231
0.334116
9.66733
9.00196
8.33651
7.67092
7.00514
6.33914
5.67289
5.00637
4.33957
3.67249
3.00516
2.3376
1.66986
1.00197
0.334001
9.66724
9.00168
8.33606
7.67032
7.00441
6.33832
5.67201
5.00546
4.33868
3.67166
3.00442
2.33699
1.6694
1.00169
0.333906
9.66716
9.00146
8.33569
7.66982
7.00382
6.33765
5.67129
5.00472
4.33796
3.67098
3.00383
2.3365
1.66903
1.00146
0.333828
9.6671
9.00127
8.33539
7.66943
7.00334
6.3371
5.6707
5.00413
4.33737
3.67044
3.00334
2.3361
1.66873
1.00128
0.333765
9.66705
9.00113
8.33516
7.66911
7.00296
6.33667
5.67024
5.00366
4.33691
3.67001
3.00296
2.33578
1.6685
1.00113
0.333716
9.66701
9.00102
8.33498
7.66887
7.00267
6.33634
5.66989
5.0033
4.33656
3.66968
3.00267
2.33554
1.66832
1.00102
0.333678
9.66698
9.00094
8.33485
7.6687
7.00246
6.33611
5.66964
5.00304
4.3363
3.66944
3.00246
2.33537
1.66819
1.00094
0.333651
9.66697
9.00089
8.33477
7.66859
7.00232
6.33595
5.66947
5.00287
4.33614
3.66929
3.00232
2.33525
1.6681
1.00089
0.333634
9.66696
9.00086
8.33473
7.66853
7.00226
6.33588
5.6694
5.00279
4.33606
3.66922
3.00226
2.3352
1.66806
1.00086
0.333625
9.66696
9.00086
8.33473
7.66854
7.00226
6.33589
5.6694
5.00279
4.33607
3.66922
3.00226
2.3352
1.66806
1.00086
0.333626
9.66697
9.00089
8.33477
7.66859
7.00233
6.33597
5.66949
5.00288
4.33615
3.6693
3.00233
2.33526
1.66811
1.00089
0.333635
9.66699
9.00094
8.33486
7.66871
7.00247
6.33613
5.66966
5.00306
4.33633
3.66946
3.00248
2.33538
1.6682
1.00095
0.333653
9.66701
9.00103
8.335
7.66889
7.00269
6.33637
5.66992
5.00333
4.33659
3.66971
3.00269
2.33556
1.66833
1.00103
0.333682
9.66705
9.00114
8.33518
7.66914
7.00299
6.33671
5.67028
5.0037
4.33695
3.67005
3.00299
2.33581
1.66852
1.00114
0.33372
9.6671
9.00129
8.33542
7.66946
7.00338
6.33715
5.67076
5.00418
4.33743
3.67049
3.00339
2.33613
1.66876
1.00129
0.333771
9.66717
9.00148
8.33573
7.66987
7.00387
6.33771
5.67135
5.00479
4.33802
3.67105
3.00388
2.33654
1.66907
1.00148
0.333835
9.66725
9.00171
8.3361
7.67037
7.00448
6.3384
5.67209
5.00555
4.33876
3.67174
3.00449
2.33705
1.66944
1.00172
0.333914
9.66734
9.002
8.33656
7.67099
7.00523
6.33924
5.67299
5.00647
4.33966
3.67258
3.00524
2.33767
1.66991
1.002
0.334011
9.66746
9.00234
8.33712
7.67174
7.00613
6.34026
5.67409
5.00759
4.34076
3.67361
3.00615
2.33842
1.67047
1.00235
0.334129
9.6676
9.00275
8.33779
7.67263
7.00722
6.34149
5.67541
5.00894
4.34208
3.67484
3.00725
2.33933
1.67115
1.00277
0.334271
9.66777
9.00325
8.3386
7.67371
7.00853
6.34297
5.67699
5.01056
4.34367
3.67633
3.00856
2.34042
1.67196
1.00328
0.334441
9.66797
9.00385
8.33956
7.675
7.01009
6.34473
5.67888
5.0125
4.34557
3.67811
3.01014
2.34173
1.67294
1.00388
0.334646
9.66821
9.00456
8.34071
7.67655
7.01196
6.34685
5.68115
5.01482
4.34785
3.68024
3.01203
2.34329
1.67411
1.0046
0.334891
9.66849
9.0054
8.34208
7.67838
7.01418
6.34937
5.68385
5.01759
4.35057
3.68278
3.01429
2.34516
1.67551
1.00547
0.335184
9.66884
9.00641
8.34372
7.68057
7.01683
6.35237
5.68708
5.0209
4.35381
3.68582
3.01698
2.3474
1.67718
1.0065
0.335534
9.66924
9.00761
8.34566
7.68318
7.01999
6.35594
5.69092
5.02484
4.35767
3.68944
3.0202
2.35006
1.67918
1.00774
0.335953
9.66972
9.00904
8.34797
7.68627
7.02374
6.3602
5.69549
5.02953
4.36228
3.69376
3.02404
2.35325
1.68157
1.00922
0.336453
9.67029
9.01073
8.35071
7.68995
7.0282
6.36525
5.70093
5.03512
4.36777
3.69891
3.02862
2.35705
1.68442
1.01098
0.337051
9.67097
9.01273
8.35396
7.69431
7.0335
6.37127
5.7074
5.04177
4.37432
3.70506
3.03409
2.3616
1.68783
1.0131
0.337766
9.67177
9.0151
8.35781
7.69949
7.03979
6.37841
5.7151
5.04969
4.38212
3.71239
3.04063
2.36703
1.6919
1.01562
0.338621
9.67272
9.01792
8.36237
7.70562
7.04725
6.38689
5.72424
5.05912
4.39141
3.72114
3.04843
2.37352
1.69678
1.01864
0.339646
9.67384
9.02124
8.36777
7.71289
7.05609
6.39695
5.73511
5.07034
4.40249
3.73158
3.05776
2.38129
1.70262
1.02227
0.340875
9.67517
9.02516
8.37415
7.72148
7.06656
6.40888
5.74803
5.08369
4.4157
3.74405
3.06891
2.3906
1.70962
1.02662
0.34235
9.67673
9.02979
8.38168
7.73162
7.07895
6.42303
5.76336
5.09957
4.43144
3.75895
3.08226
2.40176
1.71803
1.03185
0.344124
9.67857
9.03524
8.39054
7.7436
7.09358
6.43977
5.78155
5.11846
4.45022
3.77676
3.09826
2.41516
1.72815
1.03814
0.346261
9.68073
9.04164
8.40098
7.7577
7.11086
6.45958
5.80313
5.14093
4.47262
3.79807
3.11746
2.43128
1.74034
1.04574
0.348843
9.68325
9.04915
8.41322
7.77428
7.13121
6.48298
5.8287
5.16765
4.49934
3.82358
3.14053
2.45071
1.75507
1.05494
0.351971
9.68621
9.05792
8.42755
7.79372
7.15514
6.51058
5.85897
5.1994
4.53124
3.85417
3.16829
2.47418
1.77292
1.06611
0.355774
9.68965
9.06815
8.44427
7.81647
7.18322
6.54309
5.89476
5.23712
4.56932
3.89087
3.20177
2.50261
1.79463
1.07973
0.360418
9.69364
9.08002
8.46373
7.843
7.21607
6.58128
5.93703
5.28191
4.61479
3.93496
3.24223
2.53716
1.82113
1.09642
0.36612
9.69825
9.09375
8.48627
7.87382
7.2544
6.62604
5.98683
5.33502
4.6691
3.988
3.29126
2.57932
1.85366
1.117
0.373165
9.70355
9.10955
8.51227
7.90948
7.29893
6.67832
6.04539
5.39793
4.73395
4.05189
3.35086
2.631
1.89384
1.14256
0.381942
9.70961
9.12763
8.54209
7.95053
7.35044
6.73917
6.11403
5.4723
4.81136
4.12896
3.42352
2.69469
1.94384
1.17459
0.392988
9.71649
9.1482
8.57609
7.99752
7.4097
6.80965
6.1942
5.56001
4.90368
4.22202
3.51244
2.77367
2.0066
1.2152
0.407071
9.72424
9.17141
8.61457
8.05092
7.47745
6.89082
6.28738
5.66309
5.01359
4.33446
3.62163
2.8723
2.08625
1.26744
0.425329
9.73291
9.19739
8.65778
8.11116
7.55432
6.98367
6.39504
5.78367
5.14409
4.47029
3.75615
2.99644
2.18865
1.33584
0.449526
9.74252
9.22623
8.70586
8.17848
7.6408
7.08899
6.51849
5.92382
5.29834
4.63414
3.92233
3.15394
2.32231
1.42752
0.482565
9.75305
9.25788
8.7588
8.25296
7.73708
7.20727
6.65873
6.08538
5.47946
4.83105
4.1278
3.35537
2.49984
1.55404
0.52961
9.76447
9.29225
8.81645
8.33441
7.84304
7.33857
6.81619
6.26955
5.6901
5.06605
4.3813
3.6145
2.74004
1.73516
0.600816
9.77671
9.32911
8.87842
8.42232
7.95809
7.4823
6.99048
6.47652
5.93168
5.34319
4.69178
3.94839
3.07081
2.00619
0.718747
9.78964
9.36811
8.94414
8.51589
8.08115
7.63715
7.18016
6.70491
6.20359
5.66402
5.06612
4.37545
3.53146
2.43195
0.94088
9.80312
9.40881
9.01284
8.61395
8.21065
7.80103
7.3825
6.95139
6.50206
6.02533
5.50489
4.90899
4.16954
3.12961
1.43432
9.81697
9.45066
9.08356
8.71508
8.34454
7.97108
7.59359
7.21051
6.81955
6.41699
5.99606
5.5422
5.01627
4.28237
2.7426
9.83101
9.49306
9.15523
8.81764
8.48044
8.14392
7.80854
7.4751
7.14509
6.8214
6.51008
6.22544
6.00741
5.99476
6.79075
9.84501
9.53537
9.22674
8.91991
8.61587
8.31597
8.02213
7.73729
7.46623
7.21719
7.00556
6.8624
6.85592
7.14557
8.09433
9.85879
9.57697
9.29699
9.02023
8.74843
8.48381
8.22947
7.98991
7.77205
7.587
7.45349
7.40442
7.49876
7.83863
8.56995
0.106928
0.191868
0.22903
0.242916
0.243231
0.234757
0.22023
0.20137
0.179335
0.154945
0.128805
0.101374
0.073022
0.0440504
0.0147223
0.0574161
0.131537
0.173224
0.193845
0.200656
0.198044
0.188762
0.174626
0.156891
0.136461
0.114014
0.0900706
0.0650524
0.0393098
0.0131488
0.0361748
0.0937299
0.132046
0.154363
0.164623
0.165962
0.160664
0.15038
0.136317
0.119378
0.10026
0.0795128
0.0575856
0.0348593
0.0116703
0.0252071
0.069282
0.101978
0.123253
0.134785
0.138486
0.136028
0.128758
0.117738
0.103808
0.0876377
0.0697738
0.0506732
0.03073
0.0102969
0.0186414
0.0527353
0.0798418
0.0989074
0.110383
0.115288
0.114733
0.109738
0.10118
0.0897925
0.0761907
0.0608931
0.0443455
0.0269406
0.00903507
0.0142902
0.0410407
0.0632885
0.0798317
0.0905449
0.0958798
0.0965198
0.0931927
0.0865856
0.0773144
0.0659208
0.0528801
0.0386129
0.0234987
0.00788748
0.0112098
0.0324726
0.0506963
0.0648041
0.0744407
0.0797313
0.0810609
0.0789244
0.0738407
0.0663095
0.0567943
0.0457183
0.0334684
0.0204017
0.00685357
0.00893241
0.0260149
0.0409621
0.0528809
0.061354
0.0663331
0.0680086
0.0667023
0.0627949
0.056682
0.0487512
0.0393714
0.0288909
0.0176388
0.00593003
0.00719832
0.0210398
0.0333307
0.0433503
0.0506933
0.0552286
0.0570264
0.0562859
0.0532802
0.0483167
0.041714
0.0337887
0.0248489
0.0151931
0.00511147
0.00584974
0.0171412
0.0272764
0.0356781
0.0419819
0.0460249
0.0478064
0.0474424
0.0451246
0.0410892
0.0355951
0.0289103
0.0213039
0.013043
0.00439101
0.00478445
0.0140456
0.0224256
0.0294625
0.0348403
0.0383913
0.040076
0.0399553
0.0381616
0.0348745
0.0303028
0.0246716
0.0182134
0.0111643
0.00376081
0.00393286
0.0115617
0.0185074
0.0243988
0.0289672
0.0320534
0.0335991
0.0336298
0.0322352
0.0295516
0.0257462
0.0210069
0.0155332
0.00953175
0.0032126
0.00324577
0.00955203
0.0153213
0.0202537
0.0241231
0.0267851
0.0281741
0.0282938
0.0272039
0.0250073
0.0218381
0.017852
0.0132193
0.00811971
0.00273801
0.00268734
0.00791525
0.0127161
0.0168467
0.0201174
0.0224006
0.0236303
0.0237975
0.022941
0.0211384
0.018497
0.0151459
0.0112297
0.00690351
0.0023289
0.00223082
0.00657499
0.0105764
0.0140366
0.0167973
0.0187474
0.0198243
0.020012
0.019335
0.0178518
0.0156486
0.0128321
0.00952475
0.00585977
0.00197754
0.00185584
0.00547274
0.00881234
0.0117122
0.0140401
0.0157004
0.0166358
0.0168269
0.0162886
0.0150652
0.013226
0.0108591
0.00806808
0.00496685
0.00167675
0.00154668
0.00456303
0.00735361
0.0097849
0.0117465
0.0131566
0.0139639
0.0141482
0.0137177
0.0127063
0.0111696
0.00918069
0.00682674
0.00420505
0.00141999
0.001291
0.00381006
0.00614433
0.00818366
0.0098359
0.0110313
0.0117247
0.0118963
0.0115501
0.0107121
0.00942707
0.00775571
0.0057713
0.00355668
0.00120134
0.00107903
0.0031854
0.00513983
0.00685119
0.00824247
0.00925444
0.00984781
0.0100039
0.00972406
0.00902825
0.0079528
0.00654806
0.00487567
0.00300601
0.00101556
0.000902949
0.00266622
0.00430409
0.00574094
0.00691238
0.00776823
0.0082745
0.00841413
0.00818681
0.00760795
0.00670716
0.00552623
0.00411702
0.0025392
0.000858009
0.000756461
0.00223411
0.00360791
0.00481498
0.00580139
0.00652474
0.00695575
0.00707914
0.00689361
0.00641117
0.00565601
0.00466288
0.00347542
0.00214416
0.000724638
0.000634461
0.00187411
0.00302749
0.0040422
0.00487306
0.00548421
0.00585057
0.00595862
0.00580654
0.00540375
0.00477007
0.00393447
0.00293365
0.0018104
0.000611925
0.000532788
0.00157399
0.00254335
0.00339708
0.00409727
0.00461363
0.00492473
0.00501872
0.00489353
0.00455663
0.00402431
0.00332076
0.00247688
0.00152887
0.000516827
0.000448035
0.00132376
0.00213948
0.00285855
0.00344911
0.00388556
0.00414962
0.00423098
0.00412752
0.00384518
0.00339743
0.0028045
0.0020924
0.0012918
0.00043673
0.000377408
0.00111519
0.00180272
0.00240925
0.00290796
0.00327719
0.00350136
0.00357155
0.00348571
0.00324858
0.00287134
0.00237096
0.00176937
0.00109256
0.0003694
0.000318605
0.000941511
0.0015222
0.0020348
0.00245669
0.00276952
0.00296001
0.00302045
0.00294892
0.00274925
0.00243075