/*--------------------------------*- C++ -*----------------------------------*\
| =========                 |                                                 |
| \\      /  F ield         | OpenFOAM: The Open Source CFD Toolbox           |
|  \\    /   O peration     | Version:  5.x                                   |
|   \\  /    A nd           | Web:      www.OpenFOAM.org                      |
|    \\/     M anipulation  |                                                 |
\*---------------------------------------------------------------------------*/
FoamFile
{
    version     2.0;
    format      ascii;
    class       volScalarField;
    location    "1.4";
    object      T;
}
// * * * * * * * * * * * * * * * * * * * * * * * * * * * * * * * * * * * * * //

dimensions      [0 0 0 1 0 0 0];

internalField   nonuniform List<scalar> 
6300
(
12.5452
17.6449
22.7721
27.9443
33.1776
38.4859
43.8806
49.3691
54.9545
60.6344
66.3999
72.2354
78.1181
84.0184
89.9007
12.5358
17.617
22.7265
27.8823
33.1013
38.3982
43.785
49.2703
54.8579
60.5462
66.327
72.185
78.097
84.0326
89.9546
12.5168
17.5604
22.6339
27.7564
32.9461
38.2192
43.5894
49.0672
54.6583
60.3629
66.1742
72.0774
78.0489
84.0565
90.06
12.4876
17.4736
22.4916
27.5625
32.7063
37.9416
43.2846
48.7488
54.3431
60.0705
65.9268
71.8984
77.9613
84.0806
90.2114
12.4476
17.3543
22.2958
27.2949
32.3741
37.5548
42.8571
48.2985
53.8925
59.6468
65.5613
71.6249
77.8138
84.0896
90.4001
12.3958
17.2
22.0418
26.9464
31.9392
37.0452
42.289
47.6937
53.2793
59.0606
65.0439
71.2231
77.576
84.0602
90.6134
12.3314
17.0077
21.7244
26.509
31.3899
36.3964
41.5585
46.9063
52.4685
58.2701
64.3278
70.6449
77.2035
83.9583
90.833
12.2535
16.7746
21.3384
25.9745
30.7141
35.5908
40.6408
45.9026
51.4163
57.2211
63.3499
69.8222
76.6316
83.733
91.0321
12.1614
16.4986
20.8797
25.3357
29.9002
34.6108
39.5098
44.6454
50.0713
55.8457
62.0261
68.6596
75.7646
83.3065
91.1706
12.0547
16.1784
20.3456
24.5876
28.9394
33.4412
38.141
43.0961
48.3759
54.0623
60.247
67.0226
74.458
82.5544
91.1845
11.9337
15.8145
19.7363
23.7292
27.8276
32.0726
36.5154
41.2207
46.2724
51.7783
57.8749
64.7235
72.4873
81.2656
90.9614
11.7991
15.4092
19.0554
22.7645
26.5682
30.5054
34.6261
38.9977
43.7129
48.902
54.7488
61.5067
69.4994
79.0564
90.2754
11.6527
14.9675
18.311
21.7048
25.1748
28.7535
32.4848
36.4297
40.678
45.3663
50.7095
57.053
64.9449
75.1823
88.5792
11.4969
14.4969
17.516
20.5685
23.6718
26.8484
30.1288
33.5572
37.2019
41.174
45.6682
51.0488
58.0428
68.146
84.2164
11.3349
14.0071
16.6871
19.3808
22.0951
24.8387
27.6237
30.4675
33.397
36.4584
39.739
43.4296
48.0297
55.1403
70.9645
95.2394
100.025
104.718
109.294
113.729
118.002
122.093
125.986
129.667
133.122
136.342
139.319
142.046
144.519
146.735
148.69
150.383
151.813
152.981
153.889
154.538
154.933
155.076
154.975
154.634
154.062
153.267
152.259
151.048
149.646
148.064
146.315
144.412
142.367
140.195
137.908
135.518
133.04
130.484
127.863
125.189
122.472
119.723
116.952
114.169
111.381
108.597
105.823
103.066
100.33
97.619
94.9372
92.2867
89.6692
87.0859
84.5374
82.0239
79.5454
77.1014
74.6912
72.3142
69.9692
67.6553
65.3712
63.1159
60.8881
58.6867
56.5108
54.3595
52.2324
50.1291
48.0497
45.9949
43.9655
41.9628
39.9884
38.0444
36.133
34.2569
32.4188
30.6216
28.868
27.1611
25.5035
23.8979
22.3465
20.8511
19.4131
18.0334
16.7123
95.3322
100.154
104.882
109.491
113.957
118.257
122.372
126.286
129.983
133.452
136.683
139.669
142.403
144.881
147.1
149.056
150.749
152.179
153.345
154.249
154.893
155.281
155.416
155.304
154.953
154.368
153.559
152.535
151.308
149.888
148.288
146.52
144.598
142.535
140.344
138.038
135.63
133.134
130.561
127.924
125.234
122.502
119.739
116.955
114.16
111.362
108.568
105.786
103.022
100.28
97.5656
94.8807
92.2281
89.6094
87.0256
84.4772
81.9644
79.4869
77.0443
74.6357
72.2605
69.9174
67.6056
65.3236
63.0703
60.8445
58.6448
56.4704
54.3202
52.1936
50.0904
48.0106
45.9548
43.9237
41.9188
39.9417
37.9946
36.0798
34.1999
32.3578
30.5565
28.799
27.0882
25.4271
23.8184
22.2643
20.767
19.328
17.9481
16.6276
95.5173
100.412
105.212
109.889
114.416
118.772
122.936
126.89
130.621
134.117
137.37
140.373
143.12
145.607
147.832
149.792
151.485
152.913
154.074
154.97
155.604
155.978
156.097
155.967
155.592
154.982
154.145
153.09
151.83
150.374
148.738
146.932
144.972
142.87
140.641
138.298
135.854
133.322
130.715
128.045
125.323
122.562
119.771
116.961
114.141
111.321
108.509
105.71
102.933
100.18
97.4572
94.7663
92.1097
89.4888
86.9043
84.3564
81.845
79.3697
76.9298
74.5245
72.1529
69.8139
67.5061
65.2284
62.9794
60.7575
58.5615
56.3901
54.2422
52.1169
50.014
47.9333
45.8754
43.841
41.8317
39.8491
37.8956
35.9736
34.0861
32.236
30.4265
28.6608
26.9422
25.2738
23.6585
22.0992
20.5979
19.1565
17.7761
16.457
95.7932
100.803
105.714
110.495
115.118
119.558
123.793
127.808
131.589
135.125
138.409
141.436
144.202
146.702
148.935
150.899
152.594
154.018
155.172
156.057
156.676
157.03
157.125
156.965
156.557
155.908
155.028
153.926
152.615
151.106
149.414
147.551
145.533
143.373
141.086
138.687
136.188
133.603
130.944
128.224
125.455
122.648
119.814
116.965
114.109
111.256
108.415
105.592
102.794
100.026
97.2904
94.591
91.929
89.3053
86.7202
84.1734
81.6645
79.1928
76.7573
74.3571
71.9911
69.6582
67.3569
65.0858
62.8434
60.6278
58.4376
56.2711
54.1269
52.0039
49.9015
47.8196
45.7585
43.719
41.7028
39.7118
37.7484
35.8155
33.9161
32.0535
30.2313
28.4529
26.7221
25.0422
23.4168
21.8489
20.3413
18.8961
17.5147
16.1977
96.1585
101.33
106.397
111.324
116.078
120.631
124.963
129.057
132.901
136.488
139.811
142.868
145.656
148.172
150.416
152.385
154.081
155.501
156.646
157.517
158.115
158.444
158.506
158.307
157.854
157.153
156.215
155.049
153.669
152.087
150.318
148.377
146.28
144.042
141.678
139.202
136.629
133.972
131.245
128.458
125.625
122.757
119.866
116.962
114.057
111.161
108.281
105.425
102.601
99.8111
97.0605
94.3505
91.6823
89.056
86.471
83.9266
81.4217
78.9551
76.5259
74.1328
71.7746
69.4501
67.1578
64.896
62.6629
60.4564
58.2745
56.1152
53.9765
51.857
49.7557
47.6723
45.6068
43.5604
41.5347
39.5319
37.5549
35.6066
33.6907
31.8109
29.971
28.1749
26.4269
24.7308
23.0908
21.5106
19.9936
18.5427
17.1596
15.8453
96.6112
102.001
107.278
112.397
117.32
122.018
126.468
130.658
134.577
138.221
141.589
144.679
147.491
150.025
152.28
154.257
155.953
157.368
158.502
159.356
159.93
160.227
160.25
160.003
159.492
158.726
157.713
156.466
154.997
153.321
151.454
149.413
147.214
144.875
142.412
139.84
137.175
134.428
131.613
128.743
125.83
122.884
119.92
116.948
113.98
111.027
108.098
105.201
102.343
99.5287
96.7601
94.0388
91.3647
88.7368
86.1537
83.6136
81.1147
78.6555
76.2345
73.8506
71.5025
69.189
66.9084
64.6589
62.4384
60.2443
58.074
55.9248
53.7942
51.6799
49.5805
47.4953
45.4245
43.3689
41.3307
39.3124
37.3172
35.3489
33.4113
31.5088
29.6455
27.8261
26.0551
24.3372
22.6772
21.0799
19.5497
18.0903
16.7046
15.3938
97.15
102.83
108.381
113.747
118.882
123.754
128.344
132.641
136.641
140.346
143.758
146.882
149.718
152.27
154.538
156.521
158.218
159.629
160.752
161.586
162.132
162.392
162.367
162.063
161.484
160.638
159.535
158.187
156.607
154.814
152.824
150.658
148.333
145.87
143.286
140.597
137.819
134.965
132.046
129.075
126.063
123.023
119.969
116.912
113.866
110.843
107.854
104.908
102.011
99.1678
96.3801
93.6479
90.9698
88.3431
85.7648
83.232
80.7418
78.2924
75.882
73.5095
71.1738
68.8738
66.6079
64.3743
62.1703
59.9928
57.8384
55.7033
53.584
51.4774
49.3812
47.2943
45.2167
43.1496
41.0952
39.0569
37.0385
35.0445
33.0794
31.148
29.2553
27.406
25.6054
23.8589
22.1722
20.5514
19.0025
17.5309
16.1408
14.8342
97.775
103.839
109.747
115.424
120.816
125.892
130.635
135.044
139.124
142.885
146.337
149.488
152.346
154.915
157.195
159.186
160.886
162.293
163.404
164.218
164.734
164.952
164.874
164.504
163.845
162.905
161.693
160.223
158.51
156.572
154.432
152.112
149.634
147.021
144.292
141.466
138.556
135.576
132.536
129.447
126.32
123.168
120.005
116.845
113.704
110.597
107.535
104.53
101.589
98.7144
95.9081
93.1679
90.49
87.8694
85.3008
82.7795
80.3017
77.8648
75.4671
73.108
70.7867
68.5028
66.255
64.0412
61.8586
59.7031
57.5701
55.4546
53.3513
51.2559
49.1649
47.0766
44.9907
42.9089
40.8339
38.7701
36.7224
34.6962
32.6969
30.7299
28.8006
26.9142
25.0763
23.293
21.5709
19.9181
18.3428
16.8533
15.456
14.1544
98.4903
105.07
111.441
117.506
123.201
128.501
133.401
137.914
142.059
145.861
149.339
152.509
155.383
157.965
160.258
162.26
163.965
165.371
166.472
167.266
167.751
167.925
167.789
167.345
166.596
165.547
164.208
162.592
160.717
158.605
156.282
153.775
151.112
148.32
145.421
142.435
139.376
136.254
133.078
129.855
126.596
123.311
120.019
116.735
113.479
110.269
107.121
104.048
101.056
98.1505
95.3289
92.5868
89.9169
87.3105
84.759
82.2552
79.794
77.3723
74.9892
72.6445
70.3392
68.0735
65.847
63.6578
61.5025
59.3761
57.2723
55.1839
53.1034
51.0243
48.9414
46.8521
44.756
42.6553
40.554
38.4578
36.3732
34.3071
32.2659
30.2557
28.2823
26.3511
24.4674
22.6374
20.8689
19.172
17.5587
16.0419
14.6327
13.337
99.3094
106.594
113.573
120.113
126.152
131.68
136.719
141.305
145.483
149.296
152.776
155.949
158.829
161.424
163.732
165.749
167.466
168.876
169.972
170.748
171.201
171.33
171.134
170.611
169.762
168.591
167.105
165.318
163.248
160.924
158.377
155.643
152.758
149.753
146.657
143.49
140.266
136.992
133.669
130.299
126.889
123.45
120.003
116.568
113.171
109.836
106.585
103.433
100.388
97.4528
94.6233
91.8904
89.2417
86.6625
84.139
81.6606
79.2207
76.8166
74.4482
72.1177
69.8279
67.5815
65.3795
63.2203
61.0998
59.0118
56.9478
54.8976
52.8499
50.7945
48.7239
46.6342
44.5252
42.4
40.2644
38.1265
35.9954
33.8801
31.7884
29.727
27.7019
25.718
23.7799
21.8922
20.0628
18.3045
16.6347
15.0747
13.6452
12.357
100.27
108.556
116.332
123.436
129.833
135.559
140.681
145.278
149.428
153.202
156.649
159.802
162.679
165.285
167.615
169.659
171.399
172.823
173.919
174.681
175.106
175.191
174.934
174.331
173.377
172.072
170.419
168.432
166.129
163.546
160.723
157.711
154.555
151.3
147.976
144.609
141.21
137.781
134.309
130.783
127.204
123.585
119.952
116.331
112.759
109.269
105.892
102.649
99.5492
96.5911
93.7672
91.0621
88.4562
85.9248
83.4448
81.002
78.5881
76.202
73.8457
71.5255
69.2478
67.0201
64.845
62.722
60.6457
58.6087
56.5995
54.604
52.6042
50.5832
48.5308
46.4413
44.3154
42.1571
39.9759
37.7832
35.5932
33.4173
31.2655
29.1445
27.0608
25.0179
23.0185
21.0621
19.1533
17.3086
15.5519
13.9189
12.4533
11.1764
101.483
111.248
120.056
127.771
134.477
140.301
145.395
149.886
153.908
157.572
160.937
164.046
166.91
169.534
171.902
173.996
175.778
177.23
178.335
179.087
179.486
179.531
179.219
178.541
177.482
176.036
174.198
171.98
169.397
166.494
163.321
159.964
156.477
152.924
149.336
145.752
142.176
138.611
135.008
131.322
127.558
123.724
119.863
116.007
112.213
108.522
104.993
101.645
98.4928
95.5237
92.7281
90.0795
87.5529
85.103
82.6879
80.293
77.9071
75.5369
73.1842
70.8655
68.5898
66.3772
64.2302
62.1514
60.1305
58.1614
56.2276
54.313
52.3855
50.4142
48.3882
46.298
44.1496
41.9449
39.7021
37.4339
35.1689
32.9181
30.6969
28.507
26.3597
24.254
22.1941
20.1625
18.1505
16.1852
14.2902
12.5215
10.9891
9.73413
103.301
115.313
125.351
133.554
140.384
146.09
150.973
155.164
158.897
162.365
165.586
168.636
171.476
174.145
176.575
178.77
180.622
182.127
183.245
183.991
184.362
184.368
184.018
183.283
182.128
180.549
178.507
176.037
173.104
169.812
166.165
162.383
158.471
154.577
150.668
146.861
143.107
139.473
135.806
131.954
127.992
123.881
119.751
115.575
111.504
107.527
103.818
100.345
97.16
94.1942
91.466
88.9107
86.5293
84.2214
81.8931
79.5629
77.1959
74.8393
72.4671
70.1375
67.8351
65.6346
63.5125
61.4928
59.5366
57.6596
55.8243
54.0374
52.2266
50.3213
48.3354
46.2364
44.0624
41.7859
39.4628
37.0784
34.7227
32.375
30.0817
27.8071
25.5977
23.4231
21.3278
19.2341
17.0795
14.9601
12.8458
10.7832
9.12489
7.92755
107.094
122.214
133.285
141.311
147.903
153.06
157.54
161.097
164.263
167.504
170.477
173.521
176.281
179.091
181.576
184.03
185.953
187.571
188.679
189.424
189.75
189.706
189.354
188.617
187.365
185.712
183.413
180.741
177.309
173.619
169.182
164.966
160.417
156.23
151.831
147.872
143.841
140.362
136.85
132.72
128.623
124.044
119.685
114.975
110.64
106.13
102.287
98.6176
95.4983
92.5106
89.9435
87.4809
85.3898
83.3601
81.0923
78.8777
76.4623
74.1571
71.6824
69.3643
66.9283
64.7744
62.6429
60.7388
58.8249
57.0942
55.3484
53.7929
52.2012
50.3419
48.4433
46.2804
44.1211
41.692
39.31
36.6802
34.2635
31.7525
29.4383
27.0125
24.7846
22.4771
20.4587
18.3925
15.9573
13.727
11.3267
8.46222
6.59651
5.576
119.057
134.945
145.598
151.128
157.484
161.002
165.428
167.589
169.516
173.023
175.258
178.81
181.005
184.496
186.614
190.047
191.711
193.738
194.624
195.446
195.657
195.472
195.231
194.676
193.163
191.789
188.837
186.52
181.866
178.478
171.858
168.005
161.819
158.164
152.337
148.962
143.756
141.274
138.76
133.417
129.928
123.868
120.103
113.819
110.011
103.758
100.493
96.0837
93.6345
90.2096
88.2597
85.5058
84.1525
82.8326
80.2063
78.4737
75.5631
73.7122
70.6662
68.7557
65.6104
63.8774
61.4419
59.9953
57.8461
56.5473
54.5954
53.5982
52.5587
50.4167
48.9296
46.3175
44.5665
41.5286
39.5128
35.9739
33.9388
30.8458
28.9545
25.9321
24.0854
21.1143
19.6575
18.0819
14.5395
12.7385
10.4754
4.70274
2.85079
2.35702
15.3229
13.8893
12.5346
11.2546
10.0443
8.89807
7.80968
6.77277
5.7809
4.82762
3.90664
3.01178
2.13704
1.27656
0.424576
15.24
13.8095
12.4591
11.1842
9.97974
8.83969
7.75774
6.72736
5.74196
4.79505
3.88029
2.99149
2.12266
1.26798
0.421726
15.073
13.649
12.3072
11.0428
9.85014
8.7227
7.6538
6.63656
5.6642
4.73007
3.82775
2.95105
2.09402
1.2509
0.416049
14.8192
13.4053
12.0772
10.8291
9.6547
8.54669
7.49774
6.50051
5.54788
4.633
3.74936
2.89078
2.05137
1.22547
0.4076
14.4747
13.0752
11.7663
10.5413
9.39228
8.31112
7.28952
6.3195
5.39349
4.50442
3.6457
2.81118
1.99508
1.19193
0.39646
14.0337
12.6537
11.3709
10.1767
9.0615
8.01551
7.02931
6.09412
5.20186
4.34524
3.51764
2.71299
1.92573
1.15064
0.382752
13.4881
12.1344
10.8863
9.73259
8.66097
7.65964
6.71771
5.82544
4.9743
4.15681
3.36641
2.59726
1.84411
1.10209
0.366638
12.827
11.5087
10.3068
9.2058
8.18967
7.24396
6.35607
5.51532
4.7128
3.94105
3.19374
2.4654
1.75124
1.0469
0.34833
12.0354
10.7658
9.62603
8.59356
7.6475
6.77007
5.94692
5.16665
4.42028
3.70064
3.00191
2.31923
1.64845
0.985872
0.328096
11.0929
9.89255
8.83739
7.89447
7.03626
6.24153
5.49456
4.78381
4.10079
3.43911
2.79385
2.16104
1.53738
0.919986
0.30626
9.97115
8.87359
7.93603
7.11024
6.36115
5.6649
5.00567
4.37297
3.75972
3.16099
2.57319
1.99358
1.41995
0.850384
0.283201
8.63165
7.69418
6.92247
6.24894
5.63287
5.05096
4.48998
3.94244
3.40392
2.87175
2.3442
1.82005
1.29836
0.778358
0.259344
7.02649
6.34863
5.81039
5.32984
4.87016
4.41579
3.96063
3.50267
3.04159
2.57775
2.11169
1.64394
1.17501
0.705301
0.235148
5.11588
4.86314
4.64034
4.38958
4.10187
3.78118
3.43387
3.06582
2.68187
2.28583
1.88073
1.46894
1.05239
0.632646
0.21108
2.95583
3.34748
3.49802
3.48606
3.36634
3.173
2.92767
2.64473
2.33408
2.00286
1.65636
1.29863
0.932887
0.561783
0.187596
11.1839
13.5508
15.9146
18.2729
20.6222
22.958
25.2729
27.5557
29.7874
31.9338
33.9269
35.6103
36.5485
35.2295
25.2279
11.0473
13.1379
15.2159
17.2715
19.2924
21.2622
23.1576
24.9435
26.5645
27.9263
28.8575
29.0186
27.6776
23.1575
11.7417
10.9135
12.7337
14.5327
16.294
17.9978
19.6178
21.1179
22.4455
23.521
24.2172
24.3223
23.4694
21.0137
15.8739
6.63567
10.7845
12.3442
13.8753
15.3563
16.7611
18.0563
19.1975
20.1222
20.7404
20.9181
20.4518
19.0329
16.2135
11.4359
4.33027
10.6618
11.9743
13.2527
14.4714
15.6002
16.6016
17.427
18.0113
18.2654
18.0658
17.2423
15.5685
12.7727
8.6144
3.10459
10.5468
11.6281
12.6714
13.6487
14.5276
15.2689
15.8237
16.1294
16.1051
15.6465
14.6231
12.8829
10.2778
6.7313
2.36451
10.4404
11.3082
12.1358
12.8942
13.5503
14.0655
14.3931
14.4764
14.246
13.6191
12.5014
10.7976
8.43659
5.41768
1.87593
10.3431
11.016
11.6482
12.2106
12.6707
12.9921
13.132
13.041
12.6622
11.9322
10.7864
9.16869
7.05202
4.46706
1.53321
10.2551
10.7521
11.2091
11.5977
11.8875
12.0445
12.031
11.8053
11.3219
10.5341
9.39882
7.88611
5.99253
3.75863
1.28253
10.1762
10.516
10.8173
11.0535
11.1963
11.2151
11.0774
10.7485
10.1929
9.37693
8.27328
6.86786
5.16928
3.21834
1.0936
10.1062
10.3065
10.4708
10.5742
10.591
10.4943
10.2564
9.84884
9.24449
8.41949
7.35715
6.05311
4.52119
2.79869
0.948025
10.0444
10.122
10.1664
10.1549
10.0644
9.87162
9.553
9.08579
8.44923
7.62674
6.60879
5.39651
4.00539
2.46799
0.833955
9.99025
9.96066
9.90077
9.79028
9.60882
9.33618
8.95274
8.44023
7.78298
6.96963
5.99528
4.86402
3.59113
2.20437
0.743396
9.94313
9.82031
9.67026
9.47493
9.21648
8.87762
8.44203
7.89511
7.22507
6.42423
5.49067
4.42983
3.25589
1.99225
0.670756
9.90231
9.69885
9.47116
9.20336
8.87994
8.48618
8.00855
7.43542
6.75791
5.97094
5.07439
4.07414
2.98291
1.82029
0.612008
9.86711
9.59418
9.2999
8.97037
8.5922
8.15291
7.64132
7.04815
6.36671
5.5937
4.73005
3.78159
2.75945
1.68003
0.564178
9.83686
9.50432
9.1531
8.77111
8.34687
7.86982
7.33071
6.72213
6.03904
5.27936
4.44458
3.54016
2.57576
1.56504
0.525025
9.81096
9.42743
9.02765
8.60118
8.13819
7.62977
7.0683
6.44782
5.76451
5.01714
4.20743
3.34036
2.42421
1.47039
0.492834
9.78884
9.3618
8.92071
8.45657
7.96102
7.42654
6.84682
6.21709
5.53444
4.79818
4.01008
3.1746
2.29881
1.39222
0.466271
9.77
9.30593
8.82976
8.33377
7.81086
7.25469
6.66006
6.02309
5.34157
4.61517
3.84562
3.03682
2.19479
1.32746
0.444286
9.75399
9.25846
8.75254
8.22966
7.68376
7.10954
6.50266
5.86
5.17985
4.46211
3.70839
2.9221
2.10833
1.2737
0.426046
9.7404
9.21819
8.68711
8.14153
7.57632
6.98704
6.37009
5.72292
5.04421
4.33401
3.59377
2.82645
2.03634
1.22899
0.410881
9.72888
9.18409
8.63172
8.067
7.48559
6.88375
6.25848
5.60772
4.93043
4.22674
3.49796
2.7466
1.97632
1.19174
0.398254
9.71914
9.15525
8.5849
8.00406
7.40904
6.79671
6.16457
5.51093
4.83498
4.13688
3.4178
2.67988
1.92621
1.16066
0.387724
9.71091
9.13088
8.54537
7.95095
7.34451
6.72341
6.08557
5.42962
4.75489
4.06159
3.35071
2.6241
1.88436
1.13472
0.378935
9.70396
9.11032
8.51203
7.90617
7.29014
6.66171
6.01916
5.36132
4.6877
3.99848
3.29454
2.57744
1.84936
1.11304
0.371592
9.69811
9.09299
8.48393
7.86846
7.24438
6.60982
5.96334
5.30398
4.63134
3.94559
3.2475
2.53838
1.82009
1.09491
0.365454
9.69317
9.07839
8.46027
7.83673
7.2059
6.56621
5.91646
5.25585
4.58407
3.90127
3.2081
2.5057
1.79561
1.07975
0.360322
9.68902
9.06611
8.44037
7.81004
7.17355
6.52958
5.87711
5.21548
4.54444
3.86413
3.17512
2.47834
1.77513
1.06708
0.35603
9.68553
9.05579
8.42366
7.78764
7.14641
6.49885
5.84411
5.18165
4.51125
3.83305
3.14751
2.45546
1.758
1.05648
0.352443
9.68261
9.04714
8.40964
7.76885
7.12365
6.47309
5.81647
5.15332
4.48347
3.80704
3.12443
2.43634
1.74369
1.04762
0.349446
9.68016
9.03989
8.3979
7.75313
7.10461
6.45155
5.79336
5.12964
4.46026
3.78532
3.10516
2.42037
1.73174
1.04023
0.346946
9.67811
9.03384
8.3881
7.74
7.08871
6.43357
5.77408
5.1099
4.44091
3.76722
3.08911
2.40707
1.72179
1.03408
0.344864
9.67641
9.0288
8.37995
7.72907
7.07549
6.41862
5.75805
5.09348
4.42483
3.75218
3.07577
2.39603
1.71354
1.02897
0.343135
9.675
9.02463
8.37319
7.72003
7.06454
6.40625
5.74478
5.0799
4.41153
3.73974
3.06474
2.3869
1.70671
1.02475
0.341707
9.67384
9.0212
8.36764
7.71259
7.05555
6.39608
5.73388
5.06875
4.40061
3.72952
3.05569
2.37941
1.7011
1.02129
0.340535
9.67289
9.01841
8.36312
7.70654
7.04823
6.38781
5.72502
5.05967
4.39172
3.72122
3.04833
2.37332
1.69655
1.01847
0.339582
9.67214
9.01617
8.35951
7.7017
7.04237
6.38119
5.71792
5.05241
4.38462
3.71458
3.04244
2.36844
1.69291
1.01622
0.33882
9.67155
9.01443
8.35668
7.69791
7.03779
6.37601
5.71237
5.04674
4.37906
3.70939
3.03784
2.36464
1.69006
1.01446
0.338225
9.6711
9.01312
8.35456
7.69507
7.03435
6.37213
5.70821
5.04248
4.3749
3.70549
3.03439
2.36178
1.68793
1.01314
0.337778
9.67079
9.0122
8.35308
7.69309
7.03196
6.36942
5.70532
5.03952
4.37199
3.70278
3.03199
2.35979
1.68644
1.01222
0.337467
9.67061
9.01166
8.3522
7.69191
7.03053
6.36781
5.70359
5.03775
4.37026
3.70116
3.03055
2.35861
1.68555
1.01167
0.337282
9.67055
9.01147
8.35189
7.6915
7.03003
6.36724
5.70298
5.03713
4.36965
3.70059
3.03005
2.35819
1.68524
1.01148
0.337217
9.6706
9.01162
8.35214
7.69184
7.03043
6.3677
5.70347
5.03763
4.37015
3.70105
3.03045
2.35852
1.68549
1.01164
0.337269
9.67077
9.01213
8.35296
7.69293
7.03176
6.3692
5.70508
5.03928
4.37176
3.70256
3.03179
2.35963
1.68632
1.01214
0.337441
9.67107
9.013
8.35438
7.69483
7.03405
6.37179
5.70785
5.04211
4.37453
3.70515
3.03408
2.36153
1.68774
1.01302
0.337738
9.67149
9.01427
8.35643
7.69758
7.03738
6.37555
5.71187
5.04622
4.37856
3.70891
3.03742
2.36428
1.6898
1.0143
0.338169
9.67207
9.01597
8.35918
7.70126
7.04183
6.38058
5.71726
5.05174
4.38395
3.71395
3.04189
2.36798
1.69256
1.016
0.338747
9.67281
9.01816
8.36271
7.70599
7.04755
6.38704
5.72419
5.05882
4.39089
3.72043
3.04763
2.37273
1.69611
1.0182
0.33949
9.67373
9.02089
8.36713
7.71191
7.05471
6.39514
5.73286
5.06769
4.39957
3.72855
3.05482
2.37868
1.70056
1.02095
0.340421
9.67487
9.02425
8.37258
7.7192
7.06353
6.4051
5.74353
5.07862
4.41026
3.73854
3.06367
2.38601
1.70604
1.02434
0.341567
9.67625
9.02834
8.3792
7.72807
7.07427
6.41723
5.75654
5.09192
4.42329
3.75072
3.07447
2.39495
1.71272
1.02847
0.342964
9.67793
9.03329
8.38721
7.7388
7.08725
6.4319
5.77227
5.10802
4.43905
3.76546
3.08753
2.40576
1.72081
1.03347
0.344656
9.67994
9.03924
8.39685
7.7517
7.10286
6.44956
5.79119
5.12739
4.45803
3.7832
3.10326
2.41879
1.73055
1.03949
0.346694
9.68235
9.04637
8.40839
7.76716
7.12158
6.47072
5.81388
5.15063
4.48079
3.8045
3.12215
2.43442
1.74224
1.04672
0.349141
9.68523
9.05489
8.42219
7.78565
7.14396
6.49603
5.84103
5.17844
4.50804
3.82999
3.14476
2.45315
1.75625
1.05539
0.352073
9.68867
9.06506
8.43865
7.8077
7.17067
6.52625
5.87345
5.21165
4.54061
3.86047
3.1718
2.47555
1.77301
1.06576
0.355582
9.69276
9.07717
8.45826
7.83399
7.20251
6.56228
5.91213
5.25129
4.57948
3.89686
3.2041
2.50232
1.79305
1.07815
0.359777
9.69763
9.09157
8.4816
7.86527
7.24042
6.6052
5.95822
5.29855
4.62585
3.94029
3.24267
2.53429
1.81698
1.09296
0.36479
9.70342
9.10869
8.50934
7.90248
7.28552
6.65629
6.0131
5.35487
4.68113
3.99211
3.2887
2.57247
1.84557
1.11066
0.37078
9.71029
9.12902
8.54229
7.94669
7.33914
6.71706
6.07844
5.42195
4.74702
4.0539
3.34363
2.61805
1.87971
1.1318
0.377938
9.71844
9.15315
8.58141
7.99919
7.40285
6.78931
6.15617
5.50182
4.82555
4.1276
3.40919
2.67248
1.92051
1.15707
0.386495
9.72811
9.18175
8.6278
8.06148
7.4785
6.87518
6.24863
5.59691
4.91912
4.2155
3.48744
2.7375
1.96928
1.18728
0.396729
9.73955
9.21563
8.68277
8.13534
7.56826
6.97716
6.35856
5.71009
5.03062
4.32035
3.58089
2.81522
2.0276
1.22344
0.408978
9.75309
9.25572
8.74784
8.22285
7.67471
7.09822
6.48921
5.84479
5.1635
4.44548
3.69254
2.90816
2.09742
1.26674
0.423653
9.76908
9.30309
8.8248
8.32642
7.80084
7.24185
6.64445
6.00508
5.32187
4.59484
3.826
3.01941
2.18106
1.31866
0.441254
9.78795
9.35901
8.91569
8.44887
7.95015
7.41214
6.82882
6.1958
5.51066
4.77321
3.98566
3.1527
2.2814
1.381
0.462396
9.81018
9.42491
9.0229
8.59346
8.12672
7.61389
7.04769
6.42269
5.73577
4.98637
4.17685
3.31259
2.40195
1.45596
0.487835
9.83632
9.50244
9.14913
8.76395
8.33528
7.85268
7.30735
6.69258
6.00423
5.24125
4.40603
3.50468
2.54703
1.5463
0.51851
9.86699
9.59346
9.29748
8.96462
8.58126
8.13502
7.61522
7.01353
6.3245
5.54626
4.68111
3.73586
2.722
1.65542
0.555593
9.90289
9.70004
9.47143
9.20035
8.8709
8.4684
7.97994
7.3951
6.70668
5.91162
5.01179
4.01465
2.93358
1.78761
0.600562
9.94478
9.82451
9.67484
9.47658
9.21123
8.86143
8.41156
7.84855
7.16288
6.34969
5.41
4.3517
3.1902
1.94833
0.6553
9.9935
9.96938
9.91198
9.79938
9.61019
9.32392
8.9217
8.38715
7.70759
6.87558
5.89055
4.7604
3.50262
2.14455
0.722233
10.0499
10.1373
10.1874
10.1753
10.0765
9.86689
9.5237
9.02639
8.35812
7.50768
6.47183
5.25768
3.88466
2.38538
0.804541
10.115
10.3312
10.506
10.6115
10.6197
10.5026
10.2327
9.7843
9.13509
8.26848
7.17689
5.86524
4.35434
2.68283
0.906452
10.1896
10.5538
10.8727
11.1152
11.2499
11.2442
11.0655
10.6816
10.063
9.18546
8.0347
6.61112
4.93551
3.05309
1.03372
10.2747
10.808
11.2922
11.6938
11.9774
12.106
12.0407
11.7418
11.1705
10.2921
9.08189
7.53195
5.66026
3.51841
1.19435
10.3711
11.096
11.7692
12.3543
12.8126
13.1024
13.1781
12.9912
12.4911
11.6292
10.3649
8.67612
6.57258
4.11024
1.39986
10.4793
11.4201
12.3073
13.1027
13.7648
14.2472
14.4978
14.4579
14.0629
13.2455
11.9426
10.1082
7.73397
4.87427
1.66739
10.5997
11.7814
12.909
13.9435
14.8415
15.5529
16.0191
16.171
15.9278
15.1989
13.8892
11.9152
9.23239
5.87933
2.02371
10.7325
12.1802
13.5753
14.8792
16.0478
17.0288
17.7586
18.1582
18.13
17.5553
16.2972
14.2142
11.1962
7.23331
2.51319
10.8772
12.6156
14.3049
15.9086
17.3841
18.6791
19.7272
20.4424
20.7114
20.3861
19.2777
17.1622
13.8159
9.1131
3.21531
11.033
13.0849
15.0938
17.027
18.8457
20.5006
21.9268
23.0361
23.7053
23.7605
22.9573
20.9649
17.3775
11.8226
4.28741
11.1984
13.5841
15.9351
18.2249
20.4208
22.4806
24.3463
25.9353
27.1254
27.7306
27.4626
25.8748
22.305
15.9072
6.08142
11.3717
14.1073
16.8189
19.4877
22.0903
24.5952
26.9577
29.1112
30.9513
32.3067
32.8839
32.1608
29.1962
22.372
9.49834
11.5503
14.6471
17.7322
20.7964
23.8274
26.8083
29.7139
32.5043
35.1133
37.4228
39.2078
40.003
38.7674
33.0374
17.1672
11.7314
15.1949
18.66
22.1279
25.5991
29.0735
32.5497
36.0231
39.4828
42.9027
46.2185
49.2549
51.4589
50.7441
37.6582
11.9121
15.7414
19.5858
23.4569
27.3682
31.3372
35.3871
39.551
43.8794
48.4543
53.4226
59.084
66.1768
77.0408
101.364
12.0894
16.2772
20.4929
24.7577
29.0971
33.5444
38.1448
42.9642
48.1042
53.7319
60.1446
67.9184
78.2746
93.9895
121.248
12.2603
16.7936
21.3658
26.0063
30.7508
35.6448
40.7499
46.1542
51.9896
58.4636
65.9207
74.9583
86.65
102.92
126.963
1.21546
2.17899
2.5997
2.75644
2.75945
2.66298
2.498
2.28398
2.03402
1.75738
1.46089
1.14978
0.828216
0.499622
0.166981
0.652292
1.4936
1.96628
2.1998
2.27671
2.24682
2.14136
1.98091
1.77968
1.54793
1.29329
1.0217
0.73791
0.445904
0.149152
0.410819
1.06416
1.49885
1.75186
1.86805
1.88306
1.82283
1.70608
1.54649
1.35431
1.13741
0.90204
0.653285
0.395465
0.132395
0.286203
0.786527
1.15755
1.39886
1.52959
1.57147
1.54349
1.46094
1.33587
1.1778
0.994327
0.791643
0.574929
0.348657
0.116827
0.211634
0.598656
0.906289
1.12261
1.25276
1.30834
1.30199
1.24527
1.14813
1.01889
0.864545
0.690959
0.503191
0.305696
0.102521
0.162229
0.465894
0.71841
0.906142
1.02769
1.08819
1.09541
1.05762
0.98262
0.877394
0.74809
0.600097
0.438189
0.266668
0.0895089
0.127258
0.368636
0.575493
0.73561
0.844964
0.904985
0.920049
0.89578
0.838067
0.752583
0.644585
0.518876
0.379846
0.231547
0.0777837
0.101408
0.295337
0.465015
0.600304
0.696469
0.752971
0.771972
0.757131
0.712769
0.643378
0.553355
0.446887
0.327927
0.20021
0.0673088
0.0817245
0.238868
0.378402
0.492144
0.575495
0.626971
0.647368
0.638954
0.604827
0.548478
0.473524
0.383558
0.282075
0.172466
0.0580234
0.0664173
0.194618
0.309687
0.405072
0.476636
0.52253
0.542749
0.538611
0.512293
0.466477
0.404102
0.32821
0.241857
0.148073
0.0498498
0.0543255
0.159481
0.254631
0.334528
0.395586
0.4359
0.455024
0.45365
0.433282
0.395959
0.344052
0.280115
0.206791
0.126757
0.0426993
0.0446592
0.131287
0.210157
0.277054
0.328926
0.363968
0.381518
0.381864
0.366027
0.335553
0.292344
0.238529
0.176376
0.108231
0.0364784
0.0368597
0.108475
0.173991
0.230003
0.273943
0.304171
0.319943
0.321302
0.308924
0.283979
0.247989
0.202724
0.150116
0.092206
0.0310923
0.0305203
0.089894
0.144417
0.191328
0.228472
0.254401
0.268367
0.270265
0.260538
0.240065
0.210067
0.172009
0.127534
0.0784019
0.0264489
0.0253375
0.0746784
0.120126
0.159426
0.190782
0.21293
0.225162
0.227293
0.219603
0.202758
0.177733
0.145744
0.10818
0.066554
0.0224605
0.0210802
0.0621639
0.100098
0.133036
0.159479
0.178337
0.188962
0.191132
0.185017
0.171122
0.15023
0.123346
0.0916432
0.0564171
0.0190458
0.0175698
0.0518345
0.0835346
0.111153
0.133437
0.149454
0.158625
0.160718
0.155828
0.144339
0.126882
0.104289
0.0775494
0.0477679
0.0161306
0.0146665
0.0432843
0.0698028
0.0929706
0.111741
0.125321
0.133199
0.135148
0.131215
0.121695
0.107096
0.0881088
0.0655649
0.0404058
0.0136478
0.0122592
0.0361903
0.0583951
0.0778384
0.0936452
0.105142
0.111884
0.113657
0.110478
0.102573
0.0903543
0.0743946
0.0553941
0.0341523
0.0115381
0.0102593
0.0302937
0.0489031
0.0652287
0.0785386
0.0882628
0.0940151
0.0956016
0.0930188
0.0864419
0.076207
0.0627893
0.0467778
0.0288505
0.00974875
0.00859538
0.0253854
0.0409953
0.0547108
0.0659191
0.0741382
0.0790356
0.0804377
0.0783296
0.0728479
0.0642673
0.0529828
0.03949
0.0243634
0.00823382
0.00720943
0.0212956
0.0344016
0.0459319
0.055373
0.0623175
0.0664805
0.0677083
0.0659802
0.0614033
0.0542027
0.0447078
0.0333354
0.0205718
0.00695337
0.00605423
0.0178857
0.0289008
0.038602
0.0465585
0.0524261
0.0559612
0.0570292
0.0556067
0.0517784
0.0457295
0.0377349
0.0281456
0.0173731
0.00587287
0.00509112
0.0150422
0.0243114
0.0324823
0.039193
0.0441525
0.047153
0.0480775
0.0469019
0.0436936
0.0386057
0.0318681
0.0237764
0.014679
0.00496266
0.00428836
0.0126716
0.0204837
0.0273755
0.0330421
0.0372376
0.0397848
0.0405823
0.0396069
0.0369125
0.0326261
0.0269404
0.0201048
0.0124143
0.00419737
0.00361983
0.010697
0.0172945
0.0231184
0.0279117
0.0314659
0.0336302
0.0343168
0.0335041
0.0312356
0.0276169
0.0228102
0.0170261
0.0105148
0.00355537
0.00306401
0.00905509
0.0146419
0.0195762
0.0236406
0.0266583
0.0285004
0.0290913
0.0284111
0.0264951
0.0234318
0.0193578
0.0144517
0.00892602
0.00301835
0.00260318
0.00769363
0.0124418
0.0166374
0.0200956
0.0226661
0.0242385
0.0247475
0.0241752
0.0225505
0.0199477
0.0164826
0.0123071
0.00760219
0.00257083
0.00222275
0.00656959
0.010625
0.0142099
0.0171665
0.0193661
0.020714
0.0211538
0.0206692
0.0192842
0.0170617
0.0141003
0.0105296
0.0065048
0.00219983
0.00191074
0.00564765
0.00913472
0.0122181
0.0147625
0.0166568
0.0178195
0.0182013
0.0177877
0.0165988
0.0146882
0.0121405
0.00906708
0.00560174
0.0018945