/*--------------------------------*- C++ -*----------------------------------*\
| =========                 |                                                 |
| \\      /  F ield         | OpenFOAM: The Open Source CFD Toolbox           |
|  \\    /   O peration     | Version:  5.x                                   |
|   \\  /    A nd           | Web:      www.OpenFOAM.org                      |
|    \\/     M anipulation  |                                                 |
\*---------------------------------------------------------------------------*/
FoamFile
{
    version     2.0;
    format      ascii;
    class       volScalarField;
    location    "0.8";
    object      gradTy;
}
// * * * * * * * * * * * * * * * * * * * * * * * * * * * * * * * * * * * * * //

dimensions      [0 -1 0 1 0 0 0];

internalField   nonuniform List<scalar> 
3200
(
5.87149
-4.77449
-1.31915
-0.20333
-1.58528
1.14644
-1.57467
1.384
-1.89268
-0.07577
1.90027
-1.62375
1.67699
-1.75291
1.72547
-1.82095
1.7902
-1.88138
1.85404
-1.93312
1.91211
-1.9719
1.95999
-1.99344
1.99322
-1.99383
2.00762
-1.96977
1.99942
-1.91885
1.96559
-1.83993
1.9041
-1.73348
1.81437
-1.60184
1.69756
-1.44926
1.55682
-1.28159
1.39708
-1.10569
1.22466
-0.928863
1.04666
-0.758381
0.869623
-0.603763
0.686565
-0.530813
0.175047
0.514881
-0.217858
0.308512
-0.163154
0.213159
-0.108264
0.144043
-0.0691581
0.0942111
-0.0431428
0.0599382
-0.0265708
0.0374024
-0.016333
0.0231121
-0.01013
0.0142844
-0.00641367
0.00892569
-0.00419891
0.00572093
-0.00282128
0.00375607
-0.00199262
0.00307092
0.000619449
0.000145846
3.72808e-05
1.25971e-05
4.18742
-3.22904
-1.08585
-0.243695
-1.09967
0.713776
-1.04183
0.8727
-1.29914
-0.0534101
1.29313
-1.03961
1.08827
-1.13948
1.11584
-1.18448
1.15784
-1.22341
1.19976
-1.25634
1.23826
-1.28055
1.27046
-1.29329
1.29344
-1.29202
1.30446
-1.27467
1.30101
-1.23974
1.28104
-1.18657
1.24314
-1.11557
1.18679
-1.02841
1.11262
-0.927984
1.02254
-0.818177
0.919657
-0.703528
0.808033
-0.58881
0.692253
-0.478767
0.576406
-0.380346
0.452644
-0.348699
0.124647
0.363513
-0.127962
0.208061
-0.0994335
0.143354
-0.0656646
0.0970649
-0.0416253
0.0636115
-0.02579
0.0405301
-0.0158061
0.0253129
-0.00969378
0.0156441
-0.00601629
0.0096631
-0.003824
0.00602927
-0.00252096
0.0038572
-0.00170558
0.002527
-0.00119645
0.00214181
0.000539937
0.000130897
3.36155e-05
1.13456e-05
2.79985
-2.06621
-0.800779
-0.216416
-0.721137
0.423562
-0.656123
0.524519
-0.842648
-0.0354482
0.832794
-0.634281
0.673377
-0.705786
0.688022
-0.734142
0.713981
-0.758049
0.740192
-0.778045
0.76448
-0.792472
0.785044
-0.799625
0.800082
-0.797967
0.807861
-0.786232
0.806806
-0.763534
0.7956
-0.729518
0.773306
-0.68451
0.739533
-0.62961
0.69459
-0.566682
0.639589
-0.498198
0.576403
-0.427008
0.50751
-0.356081
0.435736
-0.288372
0.363514
-0.228652
0.283981
-0.217672
0.0835422
0.241288
-0.0712233
0.133305
-0.0577633
0.0915899
-0.0379614
0.0621227
-0.0238668
0.0407836
-0.0146771
0.0260193
-0.00894671
0.0162625
-0.00547296
0.0100524
-0.00339924
0.00620606
-0.00216992
0.0038674
-0.00144145
0.00247005
-0.000982527
0.0016155
-0.000683307
0.00140986
0.000412335
0.000103148
2.66557e-05
8.97587e-06
1.60675
-1.14886
-0.488693
-0.145819
-0.408836
0.222053
-0.361109
0.277958
-0.47344
-0.0202448
0.465539
-0.340282
0.365605
-0.383367
0.372474
-0.398989
0.386552
-0.411889
0.400897
-0.422579
0.414278
-0.430171
0.425715
-0.433743
0.434225
-0.43247
0.438857
-0.425673
0.438744
-0.412892
0.43315
-0.393954
0.421541
-0.369064
0.403673
-0.338852
0.379682
-0.304363
0.35014
-0.266963
0.31604
-0.228217
0.278716
-0.189745
0.239697
-0.153159
0.200258
-0.121262
0.155792
-0.118843
0.0481064
0.137816
-0.035214
0.0743328
-0.0297421
0.0509557
-0.0194651
0.0346059
-0.012148
0.0227487
-0.00741984
0.0145276
-0.00450033
0.00908519
-0.00274642
0.00561654
-0.00170697
0.00346625
-0.00109401
0.00215805
-0.000731819
0.00137661
-0.000502201
0.00089931
-0.000346291
0.000801168
0.000256883
6.58122e-05
1.70967e-05
5.72976e-06
0.523762
-0.368287
-0.16407
-0.0511505
-0.132462
0.0689271
-0.115171
0.0868196
-0.152619
-0.00655573
0.149731
-0.106975
0.115796
-0.121377
0.117776
-0.126364
0.122231
-0.130433
0.126793
-0.133789
0.131064
-0.13615
0.134732
-0.137227
0.137486
-0.13676
0.139023
-0.134535
0.139066
-0.13041
0.137378
-0.124334
0.133787
-0.116377
0.128209
-0.106743
0.120682
-0.0957697
0.111381
-0.0838934
0.100618
-0.0716124
0.0888115
-0.0594405
0.0764463
-0.0478899
0.0639169
-0.0378864
0.0496076
-0.0377311
0.0157155
0.0448161
-0.0105382
0.0238808
-0.00913225
0.0163495
-0.00596204
0.0111111
-0.00370422
0.00730912
-0.00225303
0.00467013
-0.00136228
0.00292149
-0.000830115
0.00180622
-0.000516158
0.0011145
-0.000331637
0.00069353
-0.000222802
0.000442106
-0.000153529
0.000288649
-0.000105285
0.000259907
8.7099e-05
2.26019e-05
5.88549e-06
1.93159e-06
-0.523604
0.368378
0.164145
0.0512246
0.132538
-0.0688487
0.115252
-0.0867363
0.152705
0.00664404
-0.149641
0.107067
-0.115703
0.12147
-0.117681
0.126459
-0.122135
0.13053
-0.126696
0.133886
-0.130967
0.136247
-0.134637
0.137322
-0.137394
0.13685
-0.138935
0.13462
-0.138984
0.130488
-0.137304
0.124404
-0.133721
0.116439
-0.128152
0.106796
-0.120634
0.0958126
-0.111343
0.0839271
-0.100588
0.0716376
-0.0887901
0.0594584
-0.0764317
0.0479014
-0.0639083
0.0378922
-0.0496044
0.037732
-0.0157162
-0.0448175
0.0105367
-0.0238821
0.00913114
-0.0163505
0.00596115
-0.0111119
0.00370349
-0.00730976
0.00225249
-0.00467058
0.00136191
-0.00292178
0.000829887
-0.00180639
0.000516021
-0.0011146
0.000331553
-0.000693598
0.000222745
-0.000442154
0.000153488
-0.000288682
0.000105263
-0.000259912
-8.70866e-05
-2.25824e-05
-5.88952e-06
-2.04371e-06
-1.60664
1.14893
0.488747
0.145873
0.408891
-0.221996
0.361168
-0.277897
0.473503
0.0203096
-0.465473
0.340349
-0.365536
0.383436
-0.372404
0.39906
-0.386481
0.411961
-0.400825
0.422651
-0.414206
0.430243
-0.425644
0.433813
-0.434156
0.432537
-0.438792
0.425737
-0.438682
0.412951
-0.433094
0.394007
-0.421491
0.369111
-0.40363
0.338893
-0.379645
0.304396
-0.35011
0.26699
-0.316017
0.228238
-0.278698
0.18976
-0.239685
0.153169
-0.20025
0.121267
-0.155788
0.118845
-0.0481059
-0.137816
0.0352136
-0.0743332
0.0297418
-0.050956
0.0194648
-0.0346062
0.0121477
-0.022749
0.0074196
-0.0145278
0.00450017
-0.00908532
0.00274632
-0.00561662
0.00170691
-0.0034663
0.00109398
-0.00215807
0.000731795
-0.00137663
0.000502182
-0.000899324
0.000346283
-0.000801165
-0.00025687
-6.57949e-05
-1.70956e-05
-5.80615e-06
-2.79982
2.06623
0.800792
0.21643
0.721152
-0.423547
0.656139
-0.524503
0.842665
0.0354656
-0.832776
0.634299
-0.673358
0.705805
-0.688002
0.734162
-0.713961
0.758069
-0.740172
0.778066
-0.764459
0.792492
-0.785024
0.799645
-0.800062
0.797987
-0.807842
0.786251
-0.806788
0.763552
-0.795582
0.729535
-0.77329
0.684525
-0.739518
0.629623
-0.694578
0.566693
-0.639579
0.498208
-0.576395
0.427016
-0.507502
0.356087
-0.435731
0.288376
-0.36351
0.228655
-0.283978
0.217675
-0.0835405
-0.241287
0.0712243
-0.133304
0.057764
-0.0915893
0.0379618
-0.0621223
0.0238671
-0.0407834
0.0146773
-0.0260191
0.00894682
-0.0162624
0.00547303
-0.0100523
0.00339929
-0.00620602
0.00216996
-0.00386737
0.00144147
-0.00247004
0.00098254
-0.00161549
0.000683316
-0.00140985
-0.000412325
-0.000103139
-2.66494e-05
-8.98762e-06
-4.18752
3.22898
1.08581
0.243653
1.09963
-0.71382
1.04179
-0.872746
1.29909
0.0533606
-1.29318
1.03956
-1.08833
1.13943
-1.1159
1.18443
-1.15789
1.22335
-1.19981
1.25628
-1.23831
1.2805
-1.27051
1.29323
-1.2935
1.29197
-1.30451
1.27463
-1.30106
1.2397
-1.28108
1.18653
-1.24318
1.11554
-1.18682
1.02839
-1.11264
0.927962
-1.02256
0.818159
-0.919672
0.703515
-0.808044
0.588801
-0.692259
0.478762
-0.576409
0.380344
-0.452645
0.3487
-0.124646
-0.363511
0.127963
-0.20806
0.0994345
-0.143353
0.0656654
-0.0970642
0.0416259
-0.063611
0.0257904
-0.0405297
0.0158063
-0.0253126
0.00969396
-0.015644
0.00601641
-0.00966301
0.00382407
-0.00602922
0.00252101
-0.00385716
0.00170561
-0.00252698
0.00119647
-0.0021418
-0.00053994
-0.000130905
-3.36104e-05
-1.12771e-05
-5.87168
4.77437
1.31905
0.203229
1.58518
-1.14655
1.57456
-1.38411
1.89256
0.075649
-1.90039
1.62362
-1.67712
1.75278
-1.7256
1.82082
-1.79033
1.88125
-1.85417
1.93298
-1.91225
1.97176
-1.96012
1.99331
-1.99335
1.9937
-2.00774
1.96965
-1.99954
1.91874
-1.96569
1.83983
-1.9042
1.73339
-1.81445
1.60176
-1.69763
1.4492
-1.55688
1.28154
-1.39713
1.10565
-1.2247
0.928833
-1.04669
0.75836
-0.869639
0.603751
-0.686573
0.530808
-0.175049
-0.514882
0.217857
-0.308512
0.163153
-0.213159
0.108264
-0.144043
0.0691582
-0.0942109
0.043143
-0.059938
0.0265709
-0.0374023
0.0163331
-0.023112
0.01013
-0.0142843
0.00641369
-0.00892568
0.00419892
-0.00572092
0.00282129
-0.00375606
0.00199262
-0.00307093
-0.00061948
-0.000145883
-3.72893e-05
-1.24654e-05
0.885971
-0.9408
-1.1113
0.649498
-0.990448
0.881661
-1.10104
0.962809
-1.43349
-0.129723
1.45451
-1.31677
1.33515
-1.43723
1.40372
-1.50145
1.47226
-1.55128
1.53006
-1.58802
1.57557
-1.61067
1.60763
-1.61827
1.62513
-1.6102
1.62719
-1.58634
1.61335
-1.54726
1.58375
-1.4942
1.5392
-1.42907
1.48124
-1.35424
1.41198
-1.27233
1.33393
-1.18593
1.24971
-1.09748
1.16189
-1.00911
1.07269
-0.922985
0.982667
-0.846777
0.867184
-0.897339
0.10523
0.891699
-0.586328
0.67608
-0.560182
0.603848
-0.51097
0.546586
-0.468817
0.498104
-0.436039
0.458752
-0.413164
0.429344
-0.399384
0.412075
-0.383252
0.401233
-0.343234
0.374039
-0.278587
0.318029
-0.215863
0.278301
-0.0643735
0.13924
0.0281548
0.00652958
0.00157536
0.000464727
0.622795
-0.671276
-0.797047
0.393387
-0.657097
0.561352
-0.725773
0.603393
-0.988691
-0.091459
0.985338
-0.846707
0.864351
-0.935827
0.90682
-0.977303
0.952006
-1.00875
0.990445
-1.0316
1.021
-1.04524
1.04289
-1.04905
1.05539
-1.04266
1.05788
-1.02604
1.05004
-0.999576
1.03188
-0.96415
1.00391
-0.921038
0.967075
-0.871812
0.92272
-0.818184
0.872463
-0.761844
0.818021
-0.704354
0.761065
-0.647089
0.703052
-0.591506
0.643982
-0.54413
0.561434
-0.604662
0.0752979
0.616831
-0.366076
0.445776
-0.35786
0.39633
-0.327057
0.358397
-0.300441
0.326214
-0.279927
0.299923
-0.265856
0.280115
-0.257538
0.268733
-0.246926
0.262747
-0.219641
0.246681
-0.176293
0.210925
-0.134501
0.189255
-0.0325443
0.098131
0.0245724
0.00586023
0.00141992
0.000419089
0.411182
-0.448766
-0.535741
0.226598
-0.414823
0.340937
-0.455498
0.360483
-0.643816
-0.0607373
0.63215
-0.518744
0.533614
-0.580532
0.558592
-0.606097
0.586945
-0.625032
0.611259
-0.638589
0.630744
-0.646409
0.644915
-0.648122
0.653302
-0.643505
0.655515
-0.632561
0.651317
-0.615565
0.640701
-0.593083
0.62394
-0.565931
0.601601
-0.535102
0.574504
-0.501665
0.543644
-0.466665
0.510086
-0.43106
0.474876
-0.395691
0.438914
-0.361501
0.401981
-0.33348
0.346314
-0.386052
0.0506905
0.40274
-0.217802
0.279914
-0.218018
0.247758
-0.199645
0.22384
-0.183615
0.203514
-0.171367
0.186814
-0.163115
0.174142
-0.158329
0.166996
-0.151677
0.163887
-0.134045
0.154855
-0.106439
0.133101
-0.079925
0.122018
-0.0148231
0.0651854
0.0187925
0.00461771
0.00112536
0.000332381
0.233777
-0.257424
-0.308672
0.115689
-0.228715
0.182326
-0.25001
0.190087
-0.36274
-0.0347192
0.352395
-0.279237
0.289206
-0.315707
0.302173
-0.32955
0.31773
-0.339604
0.331154
-0.346714
0.34198
-0.350694
0.349939
-0.351347
0.354771
-0.348558
0.356258
-0.342337
0.354259
-0.332846
0.348759
-0.320404
0.339893
-0.305464
0.32796
-0.288574
0.313398
-0.270317
0.296747
-0.251261
0.278585
-0.231923
0.259484
-0.212754
0.239933
-0.194285
0.219714
-0.179652
0.187477
-0.214397
0.02929
0.227383
-0.114419
0.153728
-0.116866
0.135579
-0.107195
0.122402
-0.098683
0.111192
-0.0922273
0.10194
-0.0879426
0.0948828
-0.085499
0.0909582
-0.0818505
0.0895214
-0.0719608
0.0850036
-0.0566455
0.0733601
-0.0419629
0.0683217
-0.00578317
0.0372913
0.0117211
0.00294607
0.00072155
0.000213187
0.0758803
-0.0838489
-0.100801
0.0353495
-0.0730093
0.0572619
-0.0796111
0.0592113
-0.117099
-0.0112715
0.113178
-0.0879493
0.0915116
-0.100018
0.0955096
-0.104395
0.100464
-0.107538
0.104754
-0.109745
0.108225
-0.110958
0.110791
-0.111117
0.11237
-0.110185
0.11289
-0.108167
0.112305
-0.105117
0.110608
-0.101138
0.107841
-0.0963743
0.104095
-0.0910017
0.0995097
-0.085205
0.0942539
-0.0791641
0.0885121
-0.0730416
0.0824656
-0.0669802
0.0762691
-0.0611509
0.0698358
-0.0566241
0.0592678
-0.0686908
0.00959503
0.07351
-0.0355379
0.048992
-0.0367294
0.043121
-0.0337225
0.0389142
-0.0310622
0.0353329
-0.0290533
0.0323703
-0.0277323
0.0301036
-0.0269868
0.0288519
-0.025826
0.0284397
-0.0226402
0.0270761
-0.0177346
0.023419
-0.0130346
0.0219941
-0.00143478
0.0121402
0.00397612
0.00101128
0.000248316
7.32241e-05
-0.0756963
0.0839487
0.100878
-0.0352774
0.0730818
-0.057188
0.0796867
-0.0591337
0.117179
0.0113531
-0.113095
0.0880335
-0.0914263
0.100104
-0.0954226
0.104483
-0.100376
0.107627
-0.104665
0.109834
-0.108136
0.111048
-0.110703
0.111205
-0.112283
0.11027
-0.112805
0.10825
-0.112224
0.105196
-0.110531
0.101212
-0.107768
0.0964444
-0.104028
0.0910668
-0.0994472
0.085265
-0.0941965
0.079219
-0.0884597
0.0730915
-0.0824181
0.0670254
-0.0762263
0.0611914
-0.0697978
0.0566595
-0.0592352
0.0687207
-0.00956758
-0.0734844
0.035562
-0.0489691
0.036751
-0.0431007
0.0337413
-0.038897
0.0310779
-0.0353187
0.0290659
-0.0323592
0.0277417
-0.0300957
0.026993
-0.0288474
0.0258289
-0.0284383
0.0226402
-0.0270772
0.0177325
-0.0234217
0.0130316
-0.021997
0.0014323
-0.012142
-0.00397727
-0.00101189
-0.000248659
-7.38191e-05
-0.233648
0.257495
0.308728
-0.115636
0.228769
-0.182272
0.250065
-0.19003
0.362799
0.0347794
-0.352334
0.279299
-0.289143
0.315771
-0.302109
0.329615
-0.317665
0.33967
-0.331088
0.34678
-0.341914
0.35076
-0.349873
0.351412
-0.354707
0.348621
-0.356195
0.342399
-0.354199
0.332906
-0.348701
0.32046
-0.339838
0.305516
-0.327909
0.288623
-0.313351
0.270362
-0.296703
0.251303
-0.278545
0.231961
-0.259448
0.212789
-0.239901
0.194316
-0.219685
0.179679
-0.187452
0.21442
-0.0292687
-0.227363
0.114437
-0.15371
0.116883
-0.135563
0.10721
-0.122389
0.0986953
-0.11118
0.0922372
-0.101931
0.0879502
-0.0948764
0.0855042
-0.0909543
0.0818533
-0.0895198
0.0719614
-0.0850039
0.0566445
-0.0733616
0.041961
-0.0683235
0.00578159
-0.0372925
-0.0117218
-0.00294645
-0.000721763
-0.000213591
-0.411157
0.448782
0.535756
-0.226584
0.414838
-0.340922
0.455513
-0.360467
0.643832
0.0607539
-0.632133
0.518761
-0.533597
0.58055
-0.558574
0.606115
-0.586927
0.62505
-0.61124
0.638608
-0.630726
0.646428
-0.644896
0.64814
-0.653283
0.643523
-0.655497
0.632579
-0.651299
0.615583
-0.640684
0.5931
-0.623924
0.565947
-0.601585
0.535118
-0.574489
0.501679
-0.54363
0.466678
-0.510074
0.431072
-0.474865
0.395702
-0.438904
0.361511
-0.401971
0.333489
-0.346305
0.38606
-0.0506831
-0.402733
0.217808
-0.279908
0.218023
-0.247752
0.19965
-0.223835
0.183619
-0.20351
0.171371
-0.186811
0.163118
-0.174139
0.158331
-0.166994
0.151678
-0.163886
0.134046
-0.154854
0.10644
-0.133101
0.079925
-0.122018
0.014823
-0.0651855
-0.0187926
-0.00461773
-0.00112536
-0.00033244
-0.622904
0.671218
0.797004
-0.393427
0.657056
-0.561393
0.725731
-0.603436
0.988647
0.0914135
-0.985384
0.84666
-0.864398
0.935779
-0.906869
0.977254
-0.952056
1.0087
-0.990495
1.03155
-1.02105
1.04519
-1.04294
1.049
-1.05543
1.04261
-1.05793
1.02599
-1.05008
0.999533
-1.03193
0.96411
-1.00395
0.920999
-0.967112
0.871777
-0.922754
0.818151
-0.872494
0.761815
-0.818049
0.704327
-0.76109
0.647065
-0.703075
0.591484
-0.644003
0.544111
-0.561452
0.604646
-0.0753123
-0.616844
0.366063
-0.445788
0.357848
-0.396341
0.327047
-0.358406
0.300432
-0.326222
0.27992
-0.299929
0.265851
-0.280119
0.257535
-0.268735
0.246925
-0.262747
0.219642
-0.24668
0.176295
-0.210923
0.134503
-0.189253
0.0325459
-0.0981298
-0.0245717
-0.00585984
-0.0014197
-0.000418726
-0.8862
0.940671
1.1112
-0.649598
0.990348
-0.881763
1.10093
-0.962917
1.43338
0.12961
-1.45463
1.31665
-1.33527
1.43711
-1.40384
1.50133
-1.47238
1.55116
-1.53018
1.5879
-1.5757
1.61055
-1.60776
1.61815
-1.62525
1.61008
-1.62731
1.58623
-1.61347
1.54714
-1.58386
1.49409
-1.5393
1.42897
-1.48133
1.35415
-1.41207
1.27224
-1.33401
1.18585
-1.24979
1.09741
-1.16196
1.00905
-1.07276
0.922925
-0.982723
0.846724
-0.867233
0.897294
-0.105272
-0.891738
0.586291
-0.676115
0.560149
-0.603879
0.510941
-0.546613
0.468792
-0.498126
0.436019
-0.45877
0.413149
-0.429357
0.399374
-0.412084
0.383246
-0.401237
0.343232
-0.374039
0.278588
-0.318027
0.215866
-0.278298
0.0643761
-0.139238
-0.0281536
-0.00652896
-0.00157502
-0.000464032
0.887418
-0.941861
-1.11117
0.649167
-0.990221
0.881397
-1.10086
0.962594
-1.43342
-0.129874
1.45446
-1.31695
1.33525
-1.43754
1.40395
-1.50191
1.47263
-1.55187
1.53057
-1.58871
1.57621
-1.61145
1.60837
-1.6191
1.62594
-1.61103
1.62803
-1.58713
1.61418
-1.54796
1.58452
-1.49477
1.53986
-1.42949
1.48176
-1.35448
1.41234
-1.27237
1.3341
-1.18576
1.24968
-1.09709
1.16164
-1.00852
1.07223
-0.922199
0.982001
-0.845813
0.866383
-0.896029
0.105382
0.890369
-0.585115
0.674848
-0.558885
0.602568
-0.509653
0.545275
-0.467502
0.496782
-0.434746
0.457438
-0.411921
0.428057
-0.398242
0.410838
-0.382344
0.400174
-0.342607
0.373255
-0.278167
0.317444
-0.215753
0.278057
-0.0643328
0.139134
0.0281333
0.00652458
0.00157415
0.000464374
0.623832
-0.671975
-0.796991
0.393161
-0.656954
0.561177
-0.725666
0.603247
-0.988653
-0.0915656
0.985294
-0.846836
0.864404
-0.936042
0.906963
-0.977607
0.95224
-1.00914
0.990768
-1.03206
1.0214
-1.04575
1.04336
-1.04959
1.05591
-1.0432
1.05843
-1.02655
1.05058
-1.00003
1.03239
-0.964516
1.00436
-0.921298
0.96743
-0.871954
0.922968
-0.818195
0.87259
-0.761718
0.818014
-0.704088
0.760919
-0.646688
0.702766
-0.590981
0.643564
-0.54349
0.560938
-0.603754
0.0754056
0.615931
-0.365295
0.444978
-0.357016
0.395501
-0.326202
0.357546
-0.299589
0.325355
-0.27909
0.299067
-0.265054
0.279273
-0.256805
0.267917
-0.246353
0.262041
-0.219254
0.246155
-0.176038
0.210525
-0.134448
0.189086
-0.0325266
0.0980557
0.0245536
0.00585574
0.00141884
0.000418771
0.411879
-0.449204
-0.535725
0.226453
-0.414738
0.340826
-0.455434
0.36039
-0.643796
-0.0608083
0.632116
-0.51883
0.533642
-0.580671
0.558675
-0.60629
0.587085
-0.625276
0.611454
-0.638876
0.630991
-0.646728
0.645205
-0.648457
0.653625
-0.643839
0.655855
-0.632874
0.651657
-0.61584
0.64102
-0.593303
0.624221
-0.566085
0.601828
-0.535182
0.574666
-0.501664
0.543731
-0.466578
0.510091
-0.430886
0.474795
-0.395435
0.438745
-0.361169
0.40173
-0.333075
0.34602
-0.385459
0.0507623
0.402164
-0.217323
0.279421
-0.217495
0.247246
-0.199116
0.223314
-0.183088
0.202983
-0.170852
0.186283
-0.162621
0.173618
-0.15788
0.166483
-0.151332
0.16344
-0.133816
0.15452
-0.106292
0.132843
-0.0799033
0.121907
-0.0148172
0.0651352
0.0187781
0.00461418
0.0011245
0.000332128
0.234178
-0.257663
-0.30867
0.115607
-0.22867
0.182265
-0.249976
0.190035
-0.362731
-0.0347599
0.352373
-0.279286
0.289219
-0.315785
0.302216
-0.329657
0.317804
-0.339738
0.331258
-0.346872
0.342112
-0.350868
0.350095
-0.351529
0.354946
-0.348739
0.356443
-0.342506
0.354445
-0.332994
0.348934
-0.320521
0.340048
-0.305545
0.328086
-0.288614
0.31349
-0.270313
0.296798
-0.25121
0.278592
-0.231825
0.259444
-0.212611
0.239845
-0.194101
0.219582
-0.179429
0.187324
-0.214062
0.0293312
0.227062
-0.114161
0.15346
-0.116582
0.135302
-0.106908
0.122117
-0.0983976
0.110903
-0.0919479
0.101651
-0.087676
0.0945971
-0.0852578
0.0906769
-0.0816671
0.0892744
-0.0718416
0.0848177
-0.0565699
0.0732148
-0.0419558
0.0682584
-0.00578213
0.0372625
0.0117121
0.00294381
0.000720999
0.000213025
0.0760112
-0.0839248
-0.100802
0.0353232
-0.0729952
0.0572424
-0.0796006
0.0591947
-0.117097
-0.0112848
0.113171
-0.0879651
0.0915152
-0.100043
0.0955228
-0.104429
0.100487
-0.107581
0.104787
-0.109795
0.108267
-0.111014
0.110841
-0.111175
0.112425
-0.110242
0.112948
-0.108221
0.112364
-0.105164
0.110664
-0.101174
0.10789
-0.0963994
0.104136
-0.0910137
0.0995392
-0.085203
0.0942707
-0.0791473
0.0885149
-0.07301
0.0824535
-0.0669344
0.0762419
-0.0610922
0.0697944
-0.0565527
0.0592204
-0.0685825
0.00960845
0.073407
-0.0354566
0.0489074
-0.0366395
0.0430333
-0.0336316
0.0388239
-0.0309719
0.0352414
-0.028965
0.0322787
-0.0276481
0.0300129
-0.0269108
0.0287623
-0.0257687
0.0283607
-0.0226032
0.0270165
-0.0177114
0.0233721
-0.0130332
0.0219736
-0.00143483
0.0121308
0.00397307
0.00101051
0.000248127
7.31683e-05
-0.0758272
0.0840246
0.100879
-0.0352511
0.0730677
-0.0571685
0.0796763
-0.059117
0.117177
0.0113664
-0.113088
0.0880494
-0.0914299
0.100129
-0.0954357
0.104517
-0.100399
0.10767
-0.104697
0.109884
-0.108177
0.111103
-0.110752
0.111262
-0.112338
0.110328
-0.112864
0.108303
-0.112283
0.105243
-0.110587
0.101249
-0.107818
0.0964694
-0.104068
0.0910788
-0.0994767
0.085263
-0.0942133
0.0792022
-0.0884625
0.0730599
-0.082406
0.0669795
-0.0761991
0.0611326
-0.0697564
0.0565881
-0.0591878
0.0686124
-0.00958104
-0.0733814
0.0354808
-0.0488845
0.0366611
-0.0430131
0.0336503
-0.0388067
0.0309876
-0.0352272
0.0289776
-0.0322676
0.0276575
-0.0300051
0.026917
-0.0287577
0.0257716
-0.0283593
0.0226033
-0.0270176
0.0177093
-0.0233749
0.0130302
-0.0219765
0.00143235
-0.0121326
-0.00397421
-0.00101111
-0.000248469
-7.3763e-05
-0.234049
0.257735
0.308726
-0.115554
0.228724
-0.182211
0.250032
-0.189978
0.36279
0.0348201
-0.352312
0.279348
-0.289156
0.315848
-0.302151
0.329722
-0.317738
0.339804
-0.331192
0.346938
-0.342046
0.350934
-0.350029
0.351595
-0.354882
0.348803
-0.35638
0.342568
-0.354384
0.333053
-0.348876
0.320577
-0.339993
0.305597
-0.328035
0.288663
-0.313442
0.270358
-0.296754
0.251252
-0.278552
0.231863
-0.259408
0.212646
-0.239813
0.194132
-0.219552
0.179456
-0.187299
0.214085
-0.0293099
-0.227042
0.11418
-0.153443
0.116599
-0.135286
0.106922
-0.122103
0.0984099
-0.110892
0.0919579
-0.101642
0.0876836
-0.0945907
0.085263
-0.0906729
0.0816699
-0.0892728
0.0718421
-0.084818
0.0565689
-0.0732163
0.041954
-0.0682602
0.00578054
-0.0372637
-0.0117128
-0.0029442
-0.000721212
-0.000213429
-0.411854
0.449219
0.53574
-0.226438
0.414753
-0.340811
0.45545
-0.360374
0.643812
0.0608248
-0.632099
0.518847
-0.533625
0.580689
-0.558657
0.606308
-0.587066
0.625295
-0.611435
0.638895
-0.630972
0.646747
-0.645186
0.648476
-0.653606
0.643857
-0.655837
0.632893
-0.651639
0.615858
-0.641003
0.59332
-0.624204
0.566101
-0.601812
0.535197
-0.574651
0.501678
-0.543717
0.466591
-0.510079
0.430899
-0.474783
0.395446
-0.438735
0.361179
-0.401721
0.333084
-0.346012
0.385466
-0.0507549
-0.402157
0.21733
-0.279415
0.217501
-0.247241
0.199121
-0.223309
0.183093
-0.202978
0.170855
-0.18628
0.162624
-0.173615
0.157883
-0.166481
0.151333
-0.163439
0.133817
-0.154519
0.106292
-0.132842
0.0799034
-0.121907
0.0148171
-0.0651353
-0.0187782
-0.0046142
-0.0011245
-0.000332187
-0.623941
0.671918
0.796948
-0.393202
0.656914
-0.561218
0.725624
-0.60329
0.988608
0.09152
-0.985341
0.846789
-0.864452
0.935994
-0.907011
0.977558
-0.95229
1.00909
-0.990818
1.03201
-1.02145
1.0457
-1.04341
1.04954
-1.05596
1.04315
-1.05848
1.0265
-1.05062
0.999984
-1.03243
0.964475
-1.0044
0.92126
-0.967467
0.871918
-0.923002
0.818163
-0.872621
0.761688
-0.818042
0.704061
-0.760944
0.646664
-0.702789
0.59096
-0.643584
0.543471
-0.560955
0.603738
-0.07542
-0.615945
0.365283
-0.44499
0.357005
-0.395512
0.326192
-0.357555
0.29958
-0.325363
0.279084
-0.299073
0.265049
-0.279277
0.256802
-0.267919
0.246352
-0.262042
0.219254
-0.246154
0.17604
-0.210523
0.13445
-0.189084
0.0325282
-0.0980546
-0.0245529
-0.00585536
-0.00141862
-0.000418407
-0.887648
0.941732
1.11106
-0.649267
0.990121
-0.881499
1.10076
-0.962701
1.43331
0.129761
-1.45458
1.31684
-1.33537
1.43742
-1.40408
1.50178
-1.47276
1.55174
-1.53069
1.58859
-1.57633
1.61132
-1.60849
1.61898
-1.62606
1.61091
-1.62815
1.58702
-1.6143
1.54785
-1.58463
1.49467
-1.53997
1.42939
-1.48186
1.35439
-1.41243
1.27228
-1.33418
1.18568
-1.24976
1.09702
-1.16171
1.00845
-1.07229
0.922139
-0.982057
0.84576
-0.866432
0.895984
-0.105424
-0.890408
0.585078
-0.674883
0.558852
-0.602599
0.509625
-0.545301
0.467478
-0.496804
0.434726
-0.457455
0.411906
-0.42807
0.398231
-0.410846
0.382338
-0.400178
0.342605
-0.373255
0.278168
-0.317442
0.215755
-0.278054
0.0643353
-0.139132
-0.0281321
-0.00652397
-0.00157382
-0.00046368
5.86921
-4.77323
-1.32107
-0.201456
-1.58672
1.14806
-1.57577
1.38526
-1.89362
-0.0754114
1.90118
-1.62402
1.67748
-1.75296
1.72569
-1.82075
1.79016
-1.88094
1.85374
-1.93245
1.91158
-1.97105
1.95924
-1.99248
1.99232
-1.99283
2.00663
-1.96881
1.99843
-1.918
1.96466
-1.83922
1.90329
-1.73294
1.81371
-1.6015
1.69709
-1.44915
1.55657
-1.28169
1.39705
-1.10597
1.22484
-0.929265
1.04699
-0.758843
0.870053
-0.604227
0.687017
-0.531288
0.175148
0.51534
-0.218063
0.308801
-0.163284
0.213346
-0.108322
0.144144
-0.0691706
0.0942511
-0.0431327
0.059942
-0.026554
0.0373904
-0.0163175
0.0230965
-0.0101181
0.0142707
-0.00640546
0.00891531
-0.004194
0.00571421
-0.00281822
0.00375182
-0.00199065
0.00306775
0.000618809
0.000145695
3.72424e-05
1.25842e-05
4.18577
-3.22828
-1.08712
-0.242469
-1.10058
0.714849
-1.04253
0.873532
-1.29975
-0.0531551
1.29378
-1.03976
1.08861
-1.1395
1.11601
-1.18433
1.15783
-1.2231
1.19958
-1.25589
1.23793
-1.27999
1.26998
-1.29265
1.29286
-1.29137
1.30382
-1.27405
1.30036
-1.23919
1.28043
-1.18612
1.2426
-1.11524
1.18635
-1.02821
1.1123
-0.927928
1.02236
-0.818258
0.919623
-0.703722
0.808135
-0.58908
0.692461
-0.479072
0.576683
-0.380649
0.452936
-0.349018
0.124719
0.363835
-0.128083
0.208257
-0.0995107
0.143481
-0.0656971
0.0971351
-0.0416297
0.06364
-0.0257813
0.0405337
-0.0157944
0.0253054
-0.0096836
0.0156339
-0.00600881
0.00965401
-0.00381892
0.00602229
-0.00251801
0.00385266
-0.00170375
0.00252413
-0.0011953
0.0021396
0.000539379
0.000130762
3.35809e-05
1.1334e-05
2.79873
-2.06578
-0.801578
-0.215652
-0.721688
0.424238
-0.656539
0.525042
-0.843033
-0.0352775
0.833228
-0.634356
0.673598
-0.705785
0.688132
-0.73404
0.713986
-0.75785
0.740093
-0.777759
0.764281
-0.792117
0.784756
-0.799229
0.799725
-0.797564
0.807463
-0.785851
0.8064
-0.7632
0.795216
-0.729246
0.772966
-0.68431
0.739252
-0.629494
0.694383
-0.566656
0.639469
-0.498258
0.576374
-0.427136
0.507566
-0.356253
0.435861
-0.288563
0.363684
-0.22884
0.28416
-0.217875
0.0835902
0.241501
-0.0712914
0.13343
-0.057807
0.0916721
-0.0379783
0.0621686
-0.0238673
0.0408027
-0.0146706
0.0260222
-0.00893901
0.0162581
-0.0054666
0.010046
-0.00339472
0.00620031
-0.00216693
0.00386294
-0.00143976
0.00246714
-0.000981487
0.00161366
-0.000682659
0.0014084
0.000411909
0.000103041
2.66283e-05
8.96667e-06
1.6061
-1.14864
-0.489132
-0.145403
-0.40913
0.222426
-0.361329
0.278245
-0.47365
-0.0201466
0.465788
-0.340315
0.36573
-0.383361
0.372538
-0.39893
0.386559
-0.411777
0.400847
-0.42242
0.414174
-0.429976
0.425561
-0.433527
0.434032
-0.43225
0.438641
-0.425468
0.438522
-0.412713
0.432939
-0.393809
0.421354
-0.368959
0.403517
-0.338794
0.379566
-0.304353
0.35007
-0.266999
0.316021
-0.22829
0.278744
-0.189841
0.239763
-0.153264
0.20035
-0.121364
0.155888
-0.118956
0.048134
0.137937
-0.035248
0.074403
-0.0297641
0.0510018
-0.0194729
0.0346319
-0.0121474
0.0227597
-0.00741581
0.0145294
-0.00449596
0.00908284
-0.00274295
0.00561305
-0.00170456
0.00346307
-0.00109245
0.00215557
-0.000730961
0.00137499
-0.000501675
0.000898281
-0.000345969
0.000800338
0.000256617
6.57443e-05
1.70791e-05
5.72389e-06
0.52355
-0.368221
-0.16421
-0.0510183
-0.132554
0.0690459
-0.11524
0.086911
-0.152685
-0.00652367
0.149812
-0.106984
0.115836
-0.121374
0.117797
-0.126344
0.122234
-0.130397
0.126778
-0.133738
0.131031
-0.136088
0.134684
-0.137159
0.137425
-0.13669
0.138955
-0.13447
0.138996
-0.130353
0.137311
-0.124288
0.133727
-0.116344
0.128159
-0.106725
0.120644
-0.0957673
0.111358
-0.0839055
0.100611
-0.0716359
0.0888199
-0.0594713
0.076467
-0.0479233
0.0639458
-0.0379188
0.0496381
-0.037767
0.0157246
0.0448554
-0.0105485
0.0239033
-0.00913889
0.0163643
-0.00596428
0.0111195
-0.00370386
0.00731272
-0.00225166
0.00467078
-0.00136086
0.00292076
-0.000829012
0.00180511
-0.000515404
0.00111348
-0.000331152
0.000692735
-0.00022254
0.000441584
-0.00015337
0.000288318
-0.000105188
0.000259638
8.7009e-05
2.25785e-05
5.87943e-06
1.92961e-06
-0.523392
0.368312
0.164285
0.0510923
0.13263
-0.0689676
0.11532
-0.0868277
0.152771
0.00661194
-0.149722
0.107076
-0.115744
0.121468
-0.117703
0.12644
-0.122138
0.130494
-0.126681
0.133835
-0.130934
0.136184
-0.134589
0.137253
-0.137333
0.13678
-0.138867
0.134555
-0.138914
0.130432
-0.137237
0.124359
-0.133661
0.116406
-0.128102
0.106778
-0.120597
0.0958102
-0.11132
0.0839392
-0.100582
0.0716612
-0.0887985
0.0594891
-0.0764524
0.0479348
-0.0639372
0.0379246
-0.0496349
0.037768
-0.0157252
-0.0448568
0.0105469
-0.0239047
0.00913778
-0.0163653
0.00596338
-0.0111203
0.00370313
-0.00731336
0.00225112
-0.00467123
0.00136049
-0.00292105
0.000828783
-0.00180528
0.000515267
-0.00111359
0.000331068
-0.000692803
0.000222484
-0.000441632
0.000153328
-0.000288351
0.000105167
-0.000259642
-8.69966e-05
-2.25591e-05
-5.88346e-06
-2.04162e-06
-1.60599
1.14871
0.489187
0.145457
0.409185
-0.222369
0.361388
-0.278184
0.473713
0.0202114
-0.465722
0.340382
-0.365662
0.38343
-0.372469
0.399
-0.386488
0.411848
-0.400775
0.422492
-0.414102
0.430047
-0.425491
0.433597
-0.433963
0.432318
-0.438575
0.425532
-0.438461
0.412771
-0.432883
0.393862
-0.421303
0.369006
-0.403474
0.338834
-0.379529
0.304386
-0.35004
0.267025
-0.315998
0.22831
-0.278726
0.189856
-0.239751
0.153274
-0.200342
0.121369
-0.155885
0.118958
-0.0481335
-0.137937
0.0352476
-0.0744034
0.0297637
-0.0510021
0.0194726
-0.0346322
0.0121471
-0.02276
0.00741557
-0.0145296
0.0044958
-0.00908297
0.00274285
-0.00561312
0.00170451
-0.00346312
0.00109241
-0.00215559
0.000730937
-0.00137501
0.000501657
-0.000898296
0.000345961
-0.000800335
-0.000256604
-6.5727e-05
-1.7078e-05
-5.80021e-06
-2.79871
2.0658
0.801592
0.215667
0.721703
-0.424223
0.656555
-0.525026
0.84305
0.0352949
-0.83321
0.634374
-0.673579
0.705804
-0.688113
0.73406
-0.713967
0.75787
-0.740073
0.77778
-0.764261
0.792138
-0.784736
0.79925
-0.799705
0.797584
-0.807443
0.78587
-0.806381
0.763218
-0.795198
0.729262
-0.77295
0.684325
-0.739237