/*--------------------------------*- C++ -*----------------------------------*\
| =========                 |                                                 |
| \\      /  F ield         | OpenFOAM: The Open Source CFD Toolbox           |
|  \\    /   O peration     | Version:  5.x                                   |
|   \\  /    A nd           | Web:      www.OpenFOAM.org                      |
|    \\/     M anipulation  |                                                 |
\*---------------------------------------------------------------------------*/
FoamFile
{
    version     2.0;
    format      ascii;
    class       volScalarField;
    location    "0.8";
    object      T;
}
// * * * * * * * * * * * * * * * * * * * * * * * * * * * * * * * * * * * * * //

dimensions      [0 0 0 1 0 0 0];

internalField   nonuniform List<scalar> 
3200
(
4.43477
4.89989
4.92111
4.89239
4.8839
4.73762
4.72116
4.54894
4.52934
4.34064
4.14564
4.12455
3.93014
3.90944
3.7079
3.68649
3.47748
3.45532
3.23919
3.21632
2.9939
2.97045
2.74307
2.7192
2.4887
2.46463
2.23333
2.20931
1.97991
1.95626
1.73178
1.7088
1.49245
1.47049
1.26547
1.24484
1.05415
1.03515
0.861362
0.844226
0.689295
0.674186
0.539317
0.526317
0.411885
0.400989
0.306542
0.297651
0.221928
0.214625
0.15404
0.107471
0.10311
0.0712275
0.0683857
0.0462422
0.0443038
0.0294365
0.0281508
0.0184864
0.0176583
0.0115371
0.0110157
0.00720538
0.00688154
0.00452773
0.00432741
0.0028696
0.00274488
0.00182952
0.00175043
0.00116025
0.00110876
0.000718247
0.000683524
0.000406577
0.000391821
0.000389349
0.000388791
0.000388665
4.48418
4.86102
4.90891
4.88995
4.8708
4.74649
4.70853
4.55973
4.5138
4.34001
4.16116
4.11178
3.94343
3.89553
3.72155
3.67203
3.49165
3.44038
3.25386
3.20098
3.00904
2.95481
2.7586
2.7034
2.50451
2.44884
2.24926
2.19372
1.99579
1.94108
1.7474
1.69427
1.5076
1.45682
1.27992
1.23223
1.06769
1.02375
0.873796
0.834165
0.700469
0.665523
0.549126
0.519056
0.420281
0.395076
0.313526
0.29295
0.227425
0.210382
0.155509
0.111776
0.101482
0.0737316
0.0671401
0.0479696
0.0434796
0.0306052
0.0276268
0.0192517
0.0173327
0.0120245
0.0108158
0.00750966
0.0067588
0.00471578
0.00425126
0.00298578
0.00269655
0.00190205
0.00171866
0.00120668
0.00108732
0.000748691
0.000668441
0.000432041
0.000397768
0.000390768
0.000389154
0.000388787
4.51852
4.83531
4.89939
4.88752
4.86191
4.75189
4.70032
4.5664
4.50336
4.33958
4.1715
4.10376
3.9519
3.88665
3.73022
3.6628
3.50064
3.43085
3.26318
3.1912
3.01867
2.94484
2.76848
2.69334
2.51457
2.43879
2.25942
2.18382
2.00593
1.93146
1.7574
1.68507
1.51732
1.44818
1.28921
1.22428
1.0764
1.01659
0.881813
0.827862
0.707689
0.660115
0.555478
0.51454
0.42573
0.391414
0.31807
0.290044
0.230981
0.207651
0.156533
0.114742
0.100551
0.0753887
0.066397
0.0491093
0.0429905
0.0313778
0.0273183
0.0197586
0.0171425
0.0123477
0.0106996
0.00771164
0.00668766
0.00484062
0.00420709
0.00306287
0.0026684
0.00195011
0.00170001
0.00123739
0.00107465
0.000768787
0.000659595
0.000449413
0.000402619
0.000391967
0.000389463
0.000388892
4.54018
4.8197
4.8929
4.88562
4.85638
4.75496
4.6954
4.57022
4.49694
4.3393
4.17782
4.09909
3.9569
3.88141
3.73531
3.65735
3.50593
3.42522
3.26867
3.18542
3.02433
2.93896
2.7743
2.68741
2.52051
2.43288
2.26541
2.178
2.01193
1.92581
1.76332
1.67968
1.52307
1.44313
1.29472
1.21963
1.08158
1.01242
0.886588
0.824201
0.711997
0.656983
0.559276
0.511934
0.428995
0.389308
0.320797
0.288377
0.233105
0.206028
0.15718
0.116602
0.100058
0.0763977
0.0659848
0.0498014
0.0427204
0.0318477
0.0271495
0.0200674
0.0170392
0.0125449
0.0106368
0.00783491
0.00664934
0.00491682
0.00418327
0.0031099
0.00265315
0.0019794
0.00168983
0.00125608
0.00106767
0.000781
0.000654774
0.000460238
0.000406015
0.000392831
0.000389688
0.000388967
4.55066
4.81233
4.88961
4.8846
4.85373
4.75634
4.6931
4.57196
4.49389
4.33917
4.18081
4.09695
3.95922
3.87899
3.73767
3.65482
3.50837
3.42261
3.2712
3.18275
3.02695
2.93624
2.77699
2.68466
2.52326
2.43014
2.26819
2.17531
2.01471
1.9232
1.76606
1.67719
1.52575
1.4408
1.29728
1.2175
1.084
1.01051
0.888816
0.822523
0.714009
0.655551
0.561052
0.510746
0.430524
0.388351
0.322075
0.287619
0.234097
0.205274
0.157495
0.117498
0.0998468
0.0768753
0.0658022
0.0501284
0.0426012
0.0320699
0.0270754
0.0202136
0.0169941
0.0126383
0.0106096
0.00789334
0.00663274
0.00495295
0.00417295
0.00313219
0.00264652
0.00199327
0.00168537
0.00126492
0.0010646
0.000786774
0.000652669
0.000465437
0.000407757
0.000393283
0.000389805
0.000389006
4.55066
4.81233
4.88962
4.8846
4.85373
4.75634
4.6931
4.57196
4.49389
4.33917
4.18081
4.09695
3.95922
3.87899
3.73767
3.65482
3.50837
3.42261
3.2712
3.18275
3.02695
2.93624
2.77699
2.68466
2.52326
2.43014
2.26819
2.17531
2.01471
1.9232
1.76606
1.67719
1.52575
1.4408
1.29728
1.2175
1.084
1.01051
0.888816
0.822523
0.714009
0.655551
0.561052
0.510746
0.430524
0.388351
0.322075
0.287619
0.234097
0.205274
0.157495
0.117498
0.0998468
0.0768753
0.0658022
0.0501284
0.0426012
0.0320699
0.0270754
0.0202136
0.0169941
0.0126383
0.0106096
0.00789334
0.00663273
0.00495295
0.00417295
0.00313219
0.00264651
0.00199327
0.00168537
0.00126492
0.0010646
0.000786773
0.000652669
0.000465437
0.000407757
0.000393283
0.000389805
0.000389005
4.54018
4.8197
4.8929
4.88562
4.85638
4.75496
4.6954
4.57022
4.49695
4.3393
4.17782
4.09909
3.9569
3.88142
3.73531
3.65735
3.50593
3.42522
3.26867
3.18542
3.02433
2.93896
2.7743
2.68741
2.52051
2.43288
2.26542
2.178
2.01193
1.92581
1.76332
1.67968
1.52307
1.44313
1.29472
1.21963
1.08158
1.01242
0.886589
0.824201
0.711998
0.656984
0.559276
0.511935
0.428996
0.389309
0.320797
0.288377
0.233105
0.206028
0.15718
0.116602
0.100058
0.0763977
0.0659848
0.0498014
0.0427204
0.0318476
0.0271495
0.0200674
0.0170392
0.0125449
0.0106368
0.00783491
0.00664933
0.00491682
0.00418327
0.0031099
0.00265315
0.0019794
0.00168983
0.00125608
0.00106767
0.000781
0.000654774
0.000460238
0.000406015
0.000392831
0.000389688
0.000388965
4.51852
4.83531
4.89939
4.88752
4.86191
4.7519
4.70032
4.5664
4.50336
4.33958
4.1715
4.10376
3.95191
3.88666
3.73022
3.6628
3.50064
3.43085
3.26319
3.1912
3.01867
2.94484
2.76848
2.69334
2.51458
2.43879
2.25942
2.18382
2.00593
1.93146
1.7574
1.68507
1.51732
1.44818
1.28921
1.22428
1.0764
1.01659
0.881814
0.827863
0.707689
0.660116
0.555478
0.514541
0.425731
0.391414
0.31807
0.290044
0.230981
0.207651
0.156533
0.114742
0.100551
0.0753887
0.066397
0.0491093
0.0429905
0.0313778
0.0273183
0.0197586
0.0171425
0.0123477
0.0106996
0.00771164
0.00668766
0.00484061
0.00420709
0.00306286
0.00266839
0.00195011
0.00170001
0.00123739
0.00107465
0.000768787
0.000659594
0.000449413
0.00040262
0.000391967
0.000389463
0.000388889
4.48419
4.86102
4.90891
4.88995
4.8708
4.74649
4.70853
4.55973
4.5138
4.34001
4.16117
4.11178
3.94343
3.89553
3.72155
3.67203
3.49165
3.44039
3.25386
3.20099
3.00904
2.95481
2.7586
2.7034
2.50451
2.44884
2.24926
2.19372
1.99579
1.94108
1.74741
1.69427
1.50761
1.45682
1.27993
1.23223
1.06769
1.02376
0.873797
0.834166
0.70047
0.665524
0.549126
0.519056
0.420281
0.395076
0.313527
0.29295
0.227426
0.210382
0.15551
0.111776
0.101482
0.0737316
0.0671401
0.0479696
0.0434796
0.0306052
0.0276268
0.0192517
0.0173327
0.0120245
0.0108157
0.00750966
0.00675879
0.00471577
0.00425125
0.00298578
0.00269655
0.00190205
0.00171866
0.00120668
0.00108732
0.00074869
0.00066844
0.000432041
0.000397769
0.000390769
0.000389155
0.000388785
4.43477
4.89989
4.92111
4.89239
4.8839
4.73762
4.72116
4.54894
4.52934
4.34065
4.14564
4.12455
3.93014
3.90944
3.7079
3.68649
3.47749
3.45532
3.23919
3.21633
2.9939
2.97045
2.74307
2.7192
2.48871
2.46463
2.23333
2.20932
1.97991
1.95626
1.73178
1.7088
1.49245
1.47049
1.26547
1.24484
1.05415
1.03515
0.861363
0.844226
0.689296
0.674186
0.539318
0.526317
0.411885
0.400989
0.306542
0.297651
0.221929
0.214625
0.15404
0.107471
0.10311
0.0712275
0.0683857
0.0462422
0.0443038
0.0294365
0.0281509
0.0184864
0.0176583
0.0115371
0.0110157
0.00720538
0.00688154
0.00452774
0.00432741
0.0028696
0.00274488
0.00182952
0.00175043
0.00116025
0.00110876
0.000718247
0.000683524
0.000406577
0.000391821
0.000389349
0.000388791
0.000388664
4.75782
4.83122
4.83025
4.74274
4.73279
4.62554
4.61357
4.4917
4.47738
4.33676
4.18538
4.16879
4.01299
3.99626
3.83182
3.81428
3.6423
3.62405
3.44586
3.42703
3.2441
3.22486
3.03877
3.0193
2.83176
2.81223
2.62505
2.60565
2.42064
2.40156
2.22051
2.20193
2.0265
2.00858
1.84026
1.82314
1.66311
1.64691
1.4961
1.48089
1.33993
1.32576
1.19497
1.18186
1.06132
1.04927
0.938824
0.927785
0.826994
0.816425
0.721466
0.634784
0.625955
0.551085
0.543628
0.476031
0.469302
0.407948
0.401819
0.345707
0.340068
0.288125
0.282862
0.233954
0.228951
0.181966
0.177164
0.132
0.127504
0.0863017
0.0823606
0.0478871
0.0446609
0.0170056
0.0149352
0.00274699
0.00208185
0.00196907
0.00194362
0.00193793
4.76521
4.8233
4.82087
4.74768
4.72483
4.63245
4.60476
4.49917
4.46557
4.33568
4.19723
4.1584
4.02355
3.98484
3.84292
3.80236
3.65395
3.61173
3.45797
3.41444
3.25658
3.21209
3.05152
3.00647
2.84465
2.79948
2.63796
2.59309
2.43345
2.38932
2.2331
2.19012
2.03875
1.9973
1.85204
1.81245
1.67435
1.63687
1.50673
1.47155
1.34989
1.31711
1.20423
1.17392
1.06988
1.04201
0.946662
0.921112
0.833861
0.809139
0.722352
0.642143
0.621412
0.556497
0.539229
0.480852
0.465285
0.412309
0.39813
0.349678
0.336634
0.291779
0.279603
0.237369
0.225797
0.185243
0.174138
0.135199
0.124805
0.0892967
0.0801853
0.0504424
0.0429908
0.0192769
0.0144938
0.00390891
0.00235234
0.00203262
0.00195898
0.00194246
4.77028
4.8178
4.81431
4.75061
4.71965
4.63676
4.59906
4.50377
4.4576
4.33493
4.20509
4.15185
4.03027
3.97754
3.84996
3.79474
3.66134
3.60387
3.46567
3.4064
3.26452
3.20396
3.05963
2.99832
2.85287
2.79138
2.6462
2.58512
2.44164
2.38156
2.24115
2.18264
2.04658
1.99016
1.8596
1.8057
1.68157
1.63054
1.51355
1.46565
1.35629
1.31167
1.21019
1.16892
1.07538
1.03744
0.951703
0.916902
0.838223
0.804332
0.722972
0.647121
0.618633
0.560001
0.536471
0.483958
0.462761
0.415116
0.39581
0.352231
0.33447
0.294124
0.277545
0.239556
0.2238
0.18734
0.172225
0.137255
0.123111
0.0912353
0.0788347
0.0521056
0.0419708
0.0207907
0.0142843
0.00470961
0.0025733
0.00208628
0.00197202
0.00194631
4.77343
4.81433
4.81015
4.75221
4.71654
4.63926
4.59565
4.50638
4.45269
4.33446
4.20988
4.14803
4.03423
3.97323
3.85409
3.79023
3.66569
3.59923
3.4702
3.40166
3.26919
3.19916
3.06441
2.99351
2.85772
2.78661
2.65107
2.58044
2.44648
2.37701
2.24591
2.17826
2.05122
1.98598
1.86407
1.80175
1.68584
1.62684
1.5176
1.46221
1.36009
1.30849
1.21373
1.16601
1.07865
1.03478
0.954701
0.914442
0.840787
0.801418
0.723366
0.650198
0.617056
0.562095
0.534868
0.485807
0.461292
0.416786
0.394458
0.353748
0.333206
0.295515
0.276341
0.240852
0.22263
0.188582
0.171105
0.138476
0.122124
0.0923938
0.0780565
0.0531044
0.0413923
0.0217172
0.0141973
0.00521262
0.00272819
0.00212497
0.00198149
0.00194911
4.77495
4.81265
4.80813
4.75292
4.71507
4.64041
4.59406
4.50757
4.45035
4.33424
4.21214
4.14627
4.03606
3.97122
3.856
3.78815
3.6677
3.59708
3.47229
3.39947
3.27136
3.19694
3.06663
2.99129
2.85997
2.78441
2.65333
2.57828
2.44872
2.37491
2.24812
2.17624
2.05338
1.98405
1.86616
1.79993
1.68783
1.62514
1.51949
1.46063
1.36186
1.30703
1.21538
1.16467
1.08018
1.03356
0.956098
0.913309
0.841972
0.800044
0.723558
0.651668
0.616345
0.563075
0.534134
0.48667
0.460617
0.417564
0.393836
0.354455
0.332625
0.296162
0.275786
0.241454
0.22209
0.189159
0.170588
0.139045
0.121672
0.0929353
0.0777018
0.0535728
0.0411316
0.0221571
0.0141686
0.00545543
0.00280772
0.0021452
0.00198645
0.00195058
4.77495
4.81265
4.80814
4.75292
4.71507
4.64041
4.59406
4.50757
4.45035
4.33424
4.21214
4.14627
4.03606
3.97123
3.856
3.78815
3.6677
3.59708
3.47229
3.39947
3.27136
3.19694
3.06663
2.99129
2.85997
2.78441
2.65333
2.57828
2.44872
2.37491
2.24812
2.17624
2.05338
1.98405
1.86616
1.79993
1.68783
1.62514
1.51949
1.46063
1.36186
1.30703
1.21538
1.16467
1.08018
1.03356
0.956098
0.91331
0.841972
0.800044
0.723558
0.651668
0.616345
0.563075
0.534134
0.48667
0.460617
0.417564
0.393837
0.354455
0.332625
0.296162
0.275786
0.241454
0.22209
0.189159
0.170588
0.139045
0.121672
0.0929353
0.0777018
0.0535728
0.0411316
0.0221571
0.0141686
0.00545542
0.00280771
0.0021452
0.00198645
0.00195057
4.77344
4.81433
4.81015
4.75222
4.71654
4.63927
4.59565
4.50638
4.45269
4.33446
4.20988
4.14803
4.03423
3.97323
3.85409
3.79024
3.66569
3.59923
3.4702
3.40166
3.2692
3.19916
3.06442
2.99351
2.85772
2.78661
2.65107
2.58044
2.44648
2.37701
2.24591
2.17826
2.05123
1.98598
1.86408
1.80175
1.68584
1.62684
1.5176
1.46221
1.36009
1.30849
1.21373
1.16601
1.07865
1.03478
0.954702
0.914443
0.840787
0.801418
0.723366
0.650199
0.617056
0.562096
0.534869
0.485808
0.461292
0.416786
0.394458
0.353749
0.333207
0.295515
0.276341
0.240852
0.22263
0.188582
0.171105
0.138476
0.122124
0.0923938
0.0780565
0.0531044
0.0413922
0.0217172
0.0141973
0.00521259
0.00272818
0.00212496
0.00198148
0.0019491
4.77028
4.8178
4.81431
4.75061
4.71965
4.63676
4.59906
4.50377
4.45761
4.33493
4.20509
4.15185
4.03027
3.97754
3.84996
3.79474
3.66135
3.60388
3.46567
3.4064
3.26452
3.20396
3.05963
2.99832
2.85287
2.79138
2.64621
2.58513
2.44164
2.38157
2.24115
2.18265
2.04658
1.99017
1.8596
1.8057
1.68157
1.63054
1.51355
1.46565
1.35629
1.31167
1.21019
1.16892
1.07538
1.03744
0.951704
0.916903
0.838223
0.804333
0.722972
0.647121
0.618634
0.560001
0.536471
0.483958
0.462762
0.415116
0.39581
0.352231
0.33447
0.294124
0.277545
0.239556
0.223801
0.18734
0.172225
0.137255
0.123111
0.0912353
0.0788347
0.0521056
0.0419708
0.0207906
0.0142843
0.00470957
0.00257328
0.00208627
0.00197202
0.0019463
4.76521
4.8233
4.82087
4.74768
4.72483
4.63245
4.60476
4.49917
4.46557
4.33568
4.19723
4.1584
4.02356
3.98484
3.84292
3.80236
3.65395
3.61174
3.45797
3.41444
3.25658
3.21209
3.05152
3.00648
2.84465
2.79948
2.63796
2.59309
2.43345
2.38932
2.2331
2.19012
2.03875
1.9973
1.85204
1.81245
1.67436
1.63687
1.50673
1.47155
1.34989
1.31712
1.20423
1.17392
1.06988
1.04201
0.946662
0.921112
0.833861
0.80914
0.722353
0.642144
0.621412
0.556498
0.539229
0.480853
0.465285
0.412309
0.39813
0.349678
0.336634
0.291779
0.279603
0.237369
0.225797
0.185243
0.174138
0.135199
0.124805
0.0892967
0.0801853
0.0504423
0.0429907
0.0192768
0.0144937
0.00390888
0.00235232
0.00203261
0.00195897
0.00194245
4.75782
4.83122
4.83025
4.74274
4.73279
4.62554
4.61357
4.4917
4.47738
4.33676
4.18538
4.16879
4.01299
3.99626
3.83182
3.81428
3.6423
3.62405
3.44586
3.42704
3.2441
3.22486
3.03877
3.0193
2.83176
2.81223
2.62505
2.60565
2.42064
2.40156
2.22051
2.20193
2.02651
2.00859
1.84026
1.82314
1.66311
1.64691
1.4961
1.48089
1.33993
1.32576
1.19497
1.18186
1.06132
1.04927
0.938824
0.927785
0.826994
0.816426
0.721466
0.634784
0.625955
0.551085
0.543628
0.476032
0.469303
0.407948
0.401819
0.345707
0.340068
0.288125
0.282862
0.233954
0.228951
0.181966
0.177164
0.132
0.127504
0.0863017
0.0823606
0.0478871
0.0446609
0.0170056
0.0149352
0.00274698
0.00208184
0.00196907
0.00194362
0.00193793
4.75649
4.83
4.82904
4.74156
4.73162
4.62439
4.61243
4.49058
4.47626
4.33565
4.18428
4.16768
4.01186
3.99513
3.83066
3.81312
3.64109
3.62283
3.44458
3.42575
3.24273
3.22349
3.03731
3.01783
2.8302
2.81066
2.62338
2.60397
2.41887
2.39977
2.21864
2.20005
2.02456
2.00663
1.83825
1.82112
1.66106
1.64486
1.49404
1.47883
1.33788
1.32371
1.19296
1.17986
1.05938
1.04734
0.936971
0.925942
0.825256
0.814699
0.719867
0.633324
0.62451
0.549783
0.542342
0.474894
0.468181
0.406978
0.400865
0.344905
0.339282
0.28749
0.282242
0.23348
0.228492
0.181643
0.176853
0.131803
0.127317
0.0861969
0.0822631
0.0478468
0.0446248
0.0169924
0.0149237
0.00274466
0.00208003
0.00196733
0.00194191
0.00193622
4.76389
4.82208
4.81966
4.7465
4.72366
4.6313
4.60362
4.49805
4.46445
4.33457
4.19612
4.15729
4.02243
3.98371
3.84176
3.80119
3.65274
3.61051
3.4567
3.41314
3.25522
3.21071
3.05006
3.005
2.8431
2.7979
2.6363
2.59141
2.43169
2.38753
2.23124
2.18824
2.0368
1.99534
1.85004
1.81044
1.67231
1.63482
1.50467
1.46949
1.34784
1.31507
1.20222
1.17192
1.06793
1.04008
0.944804
0.919277
0.832116
0.807424
0.720754
0.640673
0.619977
0.555186
0.537953
0.479705
0.464174
0.411329
0.397186
0.348866
0.335858
0.291133
0.278993
0.236885
0.225347
0.18491
0.173835
0.134993
0.124623
0.0891856
0.080091
0.0503973
0.0429554
0.0192616
0.0144825
0.00390569
0.00235031
0.00203083
0.00195725
0.00194074
4.76897
4.81657
4.8131
4.74943
4.71848
4.63561
4.59791
4.50264
4.45649
4.33382
4.20398
4.15074
4.02915
3.97641
3.8488
3.79357
3.66014
3.60265
3.46439
3.40511
3.26316
3.20257
3.05818
2.99684
2.85132
2.78979
2.64455
2.58344
2.43988
2.37977
2.23929
2.18076
2.04465
1.98821
1.8576
1.80369
1.67952
1.62849
1.51149
1.46359
1.35424
1.30963
1.20818
1.16692
1.07343
1.03552
0.949843
0.915073
0.836474
0.802624
0.721375
0.645643
0.617204
0.558683
0.535202
0.482804
0.461657
0.414129
0.394873
0.351412
0.333701
0.293471
0.276941
0.239065
0.223356
0.187001
0.171926
0.137043
0.122932
0.09112
0.0787423
0.0520573
0.0419358
0.0207741
0.0142731
0.00470577
0.0025711
0.00208445
0.00197028
0.00194459
4.77213
4.81309
4.80894
4.75103
4.71536
4.63812
4.59451
4.50526
4.45157
4.33335
4.20877
4.14692
4.0331
3.97209
3.85294
3.78906
3.66448
3.59801
3.46892
3.40036
3.26784
3.19778
3.06297
2.99203
2.85617
2.78502
2.64942
2.57875
2.44472
2.37522
2.24406
2.17637
2.04929
1.98402
1.86208
1.79973
1.6838
1.62479
1.51554
1.46015
1.35804
1.30645
1.21172
1.16401
1.0767
1.03286
0.952839
0.912615
0.839037
0.799715
0.721769
0.648716
0.61563
0.560774
0.533603
0.48465
0.460191
0.415795
0.393525
0.352926
0.332441
0.294859
0.275741
0.240357
0.222189
0.188239
0.170808
0.138262
0.121947
0.092276
0.0779652
0.0530542
0.0413573
0.0216998
0.0141862
0.00520839
0.00272587
0.00212311
0.00197974
0.00194738
4.77365
4.81141
4.80692
4.75174
4.7139
4.63926
4.59292
4.50644
4.44923
4.33313
4.21103
4.14516
4.03493
3.97009
3.85485
3.78697
3.66649
3.59585
3.47102
3.39817
3.27
3.19556
3.06518
2.9898
2.85842
2.78282
2.65167
2.57658
2.44697
2.37311
2.24627
2.17435
2.05145
1.98209
1.86416
1.79791
1.68579
1.62309
1.51743
1.45857
1.35981
1.30499
1.21337
1.16267
1.07823
1.03163
0.954234
0.911484
0.840221
0.798343
0.721961
0.650184
0.614921
0.561752
0.53287
0.48551
0.459519
0.416571
0.392905
0.35363
0.331862
0.295504
0.275188
0.240957
0.221651
0.188814
0.170293
0.138829
0.121495
0.0928164
0.0776109
0.0535216
0.0410967
0.0221393
0.0141575
0.00545102
0.00280534
0.00214332
0.0019847
0.00194885
4.77365
4.81141
4.80693
4.75174
4.7139
4.63926
4.59292
4.50644
4.44923
4.33313
4.21103
4.14516
4.03493
3.97009
3.85485
3.78697
3.66649
3.59585
3.47102
3.39817
3.27001
3.19556
3.06518
2.9898
2.85842
2.78282
2.65168
2.57659
2.44697
2.37311
2.24627
2.17435
2.05145
1.98209
1.86416
1.79791
1.68579
1.62309
1.51743
1.45857
1.35981
1.30499
1.21337
1.16267
1.07823
1.03163
0.954234
0.911484
0.840221
0.798343
0.721962
0.650184
0.614921
0.561752
0.53287
0.48551
0.459519
0.416572
0.392905
0.35363
0.331862
0.295504
0.275188
0.240957
0.221651
0.188814
0.170293
0.138829
0.121495
0.0928164
0.0776109
0.0535216
0.0410967
0.0221392
0.0141575
0.00545101
0.00280533
0.00214332
0.0019847
0.00194885
4.77213
4.81309
4.80894
4.75103
4.71537
4.63812
4.59451
4.50526
4.45157
4.33335
4.20877
4.14692
4.0331
3.97209
3.85294
3.78906
3.66448
3.59801
3.46893
3.40037
3.26784
3.19778
3.06297
2.99203
2.85617
2.78502
2.64942
2.57875
2.44472
2.37522
2.24406
2.17638
2.04929
1.98402
1.86208
1.79973
1.6838
1.62479
1.51555
1.46015
1.35804
1.30645
1.21172
1.16401
1.0767
1.03286
0.952839
0.912616
0.839037
0.799715
0.72177
0.648716
0.615631
0.560775
0.533603
0.48465
0.460192
0.415795
0.393525
0.352926
0.332441
0.294859
0.275741
0.240357
0.222189
0.188239
0.170808
0.138262
0.121947
0.092276
0.0779651
0.0530541
0.0413573
0.0216997
0.0141861
0.00520837
0.00272586
0.0021231
0.00197973
0.00194738
4.76897
4.81657
4.8131
4.74943
4.71848
4.63562
4.59792
4.50264
4.45649
4.33382
4.20398
4.15074
4.02915
3.97641
3.8488
3.79357
3.66014
3.60265
3.4644
3.40511
3.26316
3.20258
3.05818
2.99684
2.85132
2.78979
2.64455
2.58344
2.43988
2.37978
2.23929
2.18076
2.04465
1.98821
1.8576
1.80369
1.67953
1.62849
1.51149
1.4636
1.35424
1.30963
1.20818
1.16692
1.07343
1.03552
0.949843
0.915073
0.836475
0.802625
0.721375
0.645643
0.617205
0.558683
0.535202
0.482805
0.461657
0.414129
0.394873
0.351413
0.333701
0.293471
0.276942
0.239065
0.223356
0.187001
0.171926
0.137043
0.122932
0.09112
0.0787423
0.0520573
0.0419358
0.020774
0.0142731
0.00470574
0.00257108
0.00208444
0.00197028
0.00194458
4.76389
4.82208
4.81966
4.7465
4.72366
4.6313
4.60362
4.49805
4.46445
4.33457
4.19613
4.15729
4.02243
3.98371
3.84176
3.80119
3.65274
3.61051
3.4567
3.41314
3.25522
3.21071
3.05006
3.005
2.8431
2.7979
2.6363
2.59141
2.43169
2.38754
2.23124
2.18824
2.03681
1.99535
1.85004
1.81044
1.67231
1.63483
1.50467
1.46949
1.34784
1.31507
1.20222
1.17192
1.06793
1.04008
0.944805
0.919277
0.832117
0.807425
0.720755
0.640673
0.619977
0.555186
0.537953
0.479705
0.464174
0.411329
0.397187
0.348866
0.335858
0.291133
0.278994
0.236885
0.225347
0.18491
0.173835
0.134993
0.124623
0.0891856
0.080091
0.0503973
0.0429554
0.0192616
0.0144825
0.00390566
0.00235029
0.00203082
0.00195724
0.00194073
4.75649
4.83001
4.82904
4.74156
4.73162
4.62439
4.61243
4.49058
4.47626
4.33565
4.18428
4.16768
4.01186
3.99513
3.83066
3.81312
3.64109
3.62283
3.44458
3.42575
3.24274
3.22349
3.03731
3.01783
2.8302
2.81066
2.62338
2.60397
2.41887
2.39977
2.21864
2.20005
2.02456
2.00663
1.83825
1.82112
1.66107
1.64486
1.49404
1.47883
1.33788
1.32371
1.19296
1.17986
1.05938
1.04734
0.936972
0.925943
0.825256
0.8147
0.719867
0.633324
0.62451
0.549784
0.542342
0.474894
0.468181
0.406978
0.400865
0.344905
0.339283
0.28749
0.282243
0.23348
0.228492
0.181643
0.176853
0.131803
0.127317
0.0861969
0.0822631
0.0478468
0.0446248
0.0169924
0.0149237
0.00274465
0.00208002
0.00196733
0.0019419
0.00193621
4.43518
4.90013
4.92132
4.8924
4.88389
4.73743
4.72095
4.5486
4.52899
4.34018
4.1451
4.124
3.92954
3.90884
3.70728
3.68587
3.47688
3.45472
3.23863
3.21577
2.99342
2.96998
2.74269
2.71883
2.48844
2.46438
2.23319
2.20919
1.9799
1.95625
1.73188
1.70891
1.49265
1.47069
1.26574
1.24512
1.05448
1.03548
0.861711
0.844575
0.689641
0.67453
0.539636
0.526632
0.412159
0.401258
0.30676
0.297864
0.222088
0.214779
0.154143
0.107533
0.103168
0.0712555
0.0684112
0.0462491
0.0443092
0.0294323
0.028146
0.0184781
0.0176499
0.0115288
0.0110074
0.00719864
0.00687497
0.0045229
0.00432274
0.00286639
0.0027418
0.00182752
0.00174852
0.00115903
0.0011076
0.000717521
0.000682835
0.000406173
0.000391432
0.000388962
0.000388405
0.000388279
4.48458
4.86127
4.90912
4.88997
4.87078
4.74631
4.70831
4.5594
4.51343
4.33955
4.16063
4.11122
3.94284
3.89493
3.72093
3.67142
3.49105
3.43979
3.2533
3.20044
3.00855
2.95434
2.75821
2.70303
2.50423
2.44859
2.24911
2.1936
1.99577
1.94108
1.74749
1.69438
1.50779
1.45702
1.28019
1.23251
1.06801
1.02408
0.874143
0.834514
0.700815
0.665866
0.549446
0.519368
0.420557
0.395341
0.313748
0.293159
0.227589
0.210532
0.155614
0.111841
0.101538
0.073762
0.0671646
0.0479781
0.0434846
0.0306018
0.0276218
0.0192438
0.0173244
0.0120162
0.0108076
0.00750283
0.00675235
0.00471082
0.00424668
0.00298246
0.00269353
0.00189997
0.00171678
0.00120541
0.00108619
0.00074793
0.000667767
0.000431611
0.000397373
0.00039038
0.000388768
0.000388402
4.5189
4.83556
4.89958
4.88755
4.86188
4.75173
4.7001
4.56607
4.50299
4.33912
4.17097
4.1032
3.95131
3.88605
3.7296
3.66219
3.50004
3.43026
3.26262
3.19066
3.01818
2.94438
2.76809
2.69298
2.5143
2.43855
2.25926
2.1837
2.0059
1.93147
1.75749
1.68519
1.5175
1.44839
1.28947
1.22456
1.07672
1.01692
0.882158
0.82821
0.708034
0.660456
0.555799
0.514851
0.426008
0.391677
0.318294
0.290251
0.231147
0.207799
0.156638
0.11481
0.100606
0.0754207
0.066421
0.0491188
0.0429952
0.031375
0.0273134
0.0197509
0.0171343
0.0123395
0.0106916
0.00770475
0.00668129
0.00483558
0.00420257
0.00305947
0.00266542
0.00194797
0.00169816
0.00123608
0.00107352
0.000768004
0.000658929
0.000448965
0.000402219
0.000391578
0.000389077
0.000388506
4.54055
4.81995
4.89308
4.88566
4.85635
4.7548
4.69518
4.5699
4.49657
4.33884
4.17729
4.09854
3.95631
3.88081
3.7347
3.65673
3.50533
3.42463
3.2681
3.18488
3.02384
2.9385
2.7739
2.68705
2.52023
2.43264
2.26526
2.17789
2.01189
1.92582
1.7634
1.6798
1.52325
1.44334
1.29498
1.21992
1.0819
1.01275
0.886933
0.824549
0.712342
0.657323
0.559598
0.512243
0.429274
0.38957
0.321022
0.288582
0.233272
0.206175
0.157286
0.116671
0.100112
0.0764306
0.0660085
0.0498115
0.0427251
0.0318452
0.0271445
0.0200599
0.017031
0.0125366
0.0106288
0.00782799
0.00664301
0.00491174
0.00417878
0.00310647
0.00265019
0.00197722
0.00168799
0.00125475
0.00106656
0.000780203
0.000654113
0.000459779
0.000405611
0.000392441
0.000389301
0.000388581
4.55102
4.81259
4.8898
4.88464
4.85369
4.75618
4.69288
4.57164
4.49352
4.33871
4.18029
4.09639
3.95863
3.87839
3.73705
3.65421
3.50777
3.42202
3.27064
3.18221
3.02646
2.93578
2.7766
2.6843
2.52298
2.42991
2.26804
2.1752
2.01467
1.92321
1.76614
1.67731
1.52593
1.44101
1.29754
1.21778
1.08431
1.01083
0.88916
0.82287
0.714354
0.65589
0.561374
0.511054
0.430804
0.388612
0.322301
0.287824
0.234265
0.20542
0.157601
0.117568
0.0999013
0.0769087
0.0658257
0.0501388
0.0426058
0.0320676
0.0270704
0.0202061
0.0169859
0.0126301
0.0106016
0.00788641
0.00662644
0.00494784
0.00416848
0.00312874
0.00264357
0.00199108
0.00168354
0.00126358
0.00106349
0.00078597
0.00065201
0.000464972
0.000407352
0.000392893
0.000389418
0.00038862
4.55102
4.81259
4.8898
4.88464
4.85369
4.75618
4.69288
4.57164
4.49352
4.33871
4.18029
4.0964
3.95863
3.87839
3.73705
3.65421
3.50777
3.42202
3.27064
3.18221
3.02646
2.93578
2.7766
2.68431
2.52298
2.42991
2.26804
2.1752
2.01467
1.92321
1.76614
1.67731
1.52593
1.44101
1.29754
1.21778
1.08431
1.01083
0.88916
0.82287
0.714355
0.65589
0.561374
0.511054
0.430804
0.388612
0.322301
0.287824
0.234265
0.20542
0.157601
0.117568
0.0999013
0.0769087
0.0658257
0.0501388
0.0426058
0.0320676
0.0270704
0.0202061
0.0169859
0.0126301
0.0106016
0.00788641
0.00662643
0.00494784
0.00416848
0.00312874
0.00264357
0.00199108
0.00168354
0.00126358
0.00106349
0.000785969
0.00065201
0.000464972
0.000407352
0.000392893
0.000389418
0.000388619
4.54055
4.81996
4.89309
4.88566
4.85635
4.7548
4.69518
4.5699
4.49658
4.33885
4.17729
4.09854
3.95631
3.88081
3.7347
3.65674
3.50533
3.42463
3.26811
3.18488
3.02384
2.9385
2.77391
2.68705
2.52023
2.43264
2.26526
2.17789
2.0119
1.92582
1.7634
1.6798
1.52325
1.44334
1.29498
1.21992
1.0819
1.01275
0.886933
0.824549
0.712343
0.657323
0.559598
0.512244
0.429275
0.38957
0.321022
0.288582
0.233272
0.206175
0.157286
0.116671
0.100112
0.0764306
0.0660085
0.0498115
0.0427251
0.0318452
0.0271445
0.0200599
0.017031
0.0125366
0.0106288
0.00782799
0.00664301
0.00491173
0.00417878
0.00310646
0.00265019
0.00197722
0.00168799
0.00125475
0.00106656
0.000780203
0.000654113
0.000459779
0.000405612
0.000392441
0.000389301
0.000388579
4.5189
4.83556
4.89958
4.88755
4.86188
4.75173
4.70011
4.56607
4.50299
4.33912
4.17097
4.1032
3.95131
3.88605
3.7296
3.66219
3.50004
3.43026
3.26262
3.19066
3.01818
2.94438
2.76809
2.69298
2.5143
2.43855
2.25927
2.18371
2.00591
1.93147
1.75749
1.68519
1.5175
1.44839
1.28947
1.22456
1.07672
1.01692
0.882159
0.828211
0.708035
0.660456
0.5558
0.514851
0.426009
0.391677
0.318294
0.290251
0.231147
0.207799
0.156638
0.11481
0.100606
0.0754206
0.066421
0.0491187
0.0429952
0.031375
0.0273134
0.0197509
0.0171342
0.0123395
0.0106915
0.00770475
0.00668129
0.00483558
0.00420257
0.00305947
0.00266542
0.00194797
0.00169816
0.00123608
0.00107352
0.000768004
0.000658929
0.000448965
0.00040222
0.000391578
0.000389077
0.000388503
4.48458
4.86127
4.90912
4.88998
4.87078
4.74631
4.70831
4.5594
4.51344
4.33955
4.16063
4.11122
3.94284
3.89493
3.72094
3.67142
3.49105
3.43979
3.2533
3.20044
3.00856
2.95434
2.75821
2.70304
2.50424
2.44859
2.24911
2.1936
1.99577
1.94109
1.7475
1.69438
1.50779
1.45702
1.28019
1.23251
1.06801
1.02408
0.874144
0.834514
0.700815
0.665866
0.549447
0.519369
0.420558
0.395342
0.313748
0.293159
0.227589
0.210532
0.155614
0.111841
0.101538
0.073762
0.0671646
0.0479781
0.0434846
0.0306018
0.0276218
0.0192438
0.0173244
0.0120162
0.0108076
0.00750283
0.00675234
0.00471082
0.00424668
0.00298246
0.00269353
0.00189997
0.00171678
0.00120541
0.00108619
0.00074793
0.000667767
0.000431611
0.000397374
0.000390381
0.000388768
0.0003884
4.43518
4.90013
4.92133
4.8924
4.88389
4.73743
4.72096
4.5486
4.52899
4.34018
4.1451
4.124
3.92954
3.90884
3.70728
3.68587
3.47688
3.45472
3.23863
3.21577
2.99342
2.96998
2.74269
2.71883
2.48844
2.46438
2.23319
2.20919
1.9799
1.95625
1.73188
1.70891
1.49265
1.47069
1.26574
1.24512
1.05448
1.03548
0.861711
0.844576
0.689642
0.674531
0.539637
0.526633
0.412159
0.401258
0.30676
0.297864
0.222089
0.214779
0.154144
0.107533
0.103168
0.0712555
0.0684112
0.0462491
0.0443092
0.0294323
0.028146
0.0184781
0.0176499
0.0115288
0.0110074
0.00719864
0.00687497
0.0045229
0.00432274
0.00286639
0.0027418
0.00182752
0.00174852
0.00115903
0.0011076
0.000717521
0.000682835
0.000406173
0.000391432
0.000388963
0.000388405
0.000388278
)
;

boundaryField
{
    F1_1
    {
        type            fixedValue;
        value           nonuniform List<scalar> 
80
(
4.40076
4.9282
4.9282
4.8932
4.8932
4.73059
4.73059
4.5405
4.5405
4.34109
4.1344
4.1344
3.92002
3.92002
3.69747
3.69747
3.46667
3.46667
3.22799
3.22799
2.98235
2.98235
2.73123
2.73123
2.47667
2.47667
2.22122
2.22122
1.96786
1.96786
1.71994
1.71994
1.48099
1.48099
1.25455
1.25455
1.04395
1.04395
0.852011
0.852011
0.680911
0.680911
0.531975
0.531975
0.405616
0.405616
0.301338
0.301338
0.217811
0.217811
0.153024
0.104475
0.104475
0.0693944
0.0693944
0.0449743
0.0449743
0.0285804
0.0285804
0.017927
0.017927
0.0111814
0.0111814
0.0069835
0.0069835
0.00439063
0.00439063
0.00278485
0.00278485
0.00177653
0.00177653
0.00112625
0.00112625
0.000695908
0.000695908
0.0003886
0.0003886
0.0003886
0.0003886
0.0003886
)
;
    }
    F1_2
    {
        type            fixedValue;
        value           nonuniform List<scalar> 
80
(
4.75266
4.83667
4.83667
4.73872
4.73872
4.62017
4.62017
4.48581
4.48581