/*--------------------------------*- C++ -*----------------------------------*\
| =========                 |                                                 |
| \\      /  F ield         | OpenFOAM: The Open Source CFD Toolbox           |
|  \\    /   O peration     | Version:  5.x                                   |
|   \\  /    A nd           | Web:      www.OpenFOAM.org                      |
|    \\/     M anipulation  |                                                 |
\*---------------------------------------------------------------------------*/
FoamFile
{
    version     2.0;
    format      ascii;
    class       volScalarField;
    location    "6.3";
    object      gradTx;
}
// * * * * * * * * * * * * * * * * * * * * * * * * * * * * * * * * * * * * * //

dimensions      [0 -1 0 1 0 0 0];

internalField   nonuniform List<scalar> 
6300
(
116.234
116.884
118.171
120.065
122.52
125.471
128.831
132.487
136.299
140.105
143.716
146.934
149.557
151.396
152.294
115.581
116.245
117.561
119.5
122.021
125.06
128.532
132.326
136.303
140.295
144.107
147.526
150.337
152.333
153.343
114.261
114.952
116.323
118.352
121
124.211
127.907
131.98
136.29
140.661
144.885
148.724
151.927
154.254
155.497
112.246
112.975
114.425
116.58
119.412
122.876
126.902
131.393
136.211
141.172
146.045
150.554
154.391
157.254
158.874
109.5
110.274
111.819
114.13
117.19
120.974
125.43
130.476
135.985
141.768
147.567
153.05
157.828
161.491
163.673
105.976
106.798
108.445
110.925
114.243
118.396
123.364
129.094
135.482
142.345
149.4
156.247
162.375
167.207
170.205
101.628
102.494
104.236
106.881
110.457
115
120.532
127.051
134.499
142.726
151.439
160.161
168.212
174.754
178.945
96.4124
97.3087
99.1234
101.9
105.703
110.611
116.71
124.076
132.735
142.616
153.464
164.744
175.555
184.647
190.637
90.2975
91.2027
93.0454
95.8911
99.84
105.027
111.62
119.803
129.746
141.536
155.055
169.791
184.613
197.638
206.475
83.2748
84.1567
85.9618
88.7761
92.7359
98.036
104.937
113.768
124.907
138.724
155.425
174.747
195.463
214.814
228.485
75.3678
76.1848
77.8664
80.5129
84.2889
89.4408
96.3215
105.42
117.387
133.025
153.169
178.306
207.674
237.666
260.347
66.6414
67.3461
68.8036
71.1179
74.4637
79.1143
85.4852
94.2016
106.194
122.816
145.915
177.631
219.257
267.82
309.408
57.2082
57.7521
58.8819
60.689
63.3313
67.065
72.301
79.7041
90.369
106.127
130.041
167.041
223.898
304.945
392.288
47.229
47.5703
48.2809
49.4229
51.1053
53.5113
56.9474
61.9423
69.4483
81.2766
101.079
136.59
204.343
335.768
553.209
36.9065
37.0171
37.2467
37.6142
38.154
38.9255
40.0329
41.6674
44.203
48.4495
56.4064
73.892
121.113
280.569
935.039
152.235
151.336
149.663
147.238
144.105
140.327
135.976
131.128
125.861
120.248
114.354
108.238
101.952
95.5388
89.0364
82.4774
75.8905
69.3016
62.7341
56.2097
49.7482
43.3679
37.0853
30.9151
24.8702
18.9613
13.1972
7.58447
2.1278
-3.17015
-8.30854
-13.2881
-18.111
-22.7801
-27.2994
-31.6726
-35.9038
-39.9965
-43.9539
-47.7786
-51.473
-55.0394
-58.4802
-61.7985
-64.9981
-68.0836
-71.0607
-73.9356
-76.7148
-79.4049
-82.0114
-84.539
-86.9908
-89.368
-91.6704
-93.8962
-96.0424
-98.1056
-100.082
-101.969
-103.762
-105.461
-107.062
-108.564
-109.962
-111.253
-112.428
-113.478
-114.389
-115.147
-115.732
-116.124
-116.304
-116.251
-115.946
-115.374
-114.521
-113.38
-111.947
-110.221
-108.208
-105.918
-103.366
-100.572
-97.5623
-94.3664
-91.0203
-87.5637
-84.04
-80.4942
153.341
152.448
150.743
148.253
145.032
141.15
136.687
131.729
126.357
120.648
114.67
108.481
102.132
95.6652
89.1159
82.5156
75.8917
69.2692
62.6707
56.1178
49.6302
43.2262
36.9226
30.7342
24.6739
18.7525
12.979
7.35973
1.89936
-3.3997
-8.53688
-13.5133
-18.3316
-22.9954
-27.5087
-31.8763
-36.1022
-40.1903
-44.1437
-47.965
-51.656
-55.2188
-58.6552
-61.9679
-65.1606
-68.2381
-71.2061
-74.0715
-76.8415
-79.5232
-82.1231
-84.6463
-87.0961
-89.4738
-91.7788
-94.0087
-96.1599
-98.2283
-100.21
-102.1
-103.897
-105.599
-107.204
-108.71
-110.116
-111.417
-112.606
-113.675
-114.609
-115.393
-116.007
-116.429
-116.638
-116.611
-116.329
-115.775
-114.935
-113.8
-112.366
-110.632
-108.605
-106.293
-103.712
-100.882
-97.8284
-94.5814
-91.1778
-87.6591
-84.0705
-80.4598
155.609
154.725
152.948
150.318
146.907
142.804
138.109
132.922
127.336
121.434
115.287
108.953
102.48
95.9074
89.2667
82.5858
75.8894
69.2003
62.5404
55.9306
49.3906
42.9392
36.5933
30.3681
24.2769
18.3307
12.5383
6.90623
1.43875
-3.86206
-8.99627
-13.9658
-18.7743
-23.4263
-27.9273
-32.2828
-36.4979
-40.5768
-44.5226
-48.3374
-52.0225
-55.5785
-59.0066
-62.3085
-65.4875
-68.5483
-71.4975
-74.3429
-77.0933
-79.7575
-82.3433
-84.8572
-87.303
-89.6821
-91.9931
-94.2323
-96.3946
-98.4742
-100.465
-102.364
-104.168
-105.874
-107.485
-108.999
-110.418
-111.739
-112.957
-114.063
-115.044
-115.882
-116.555
-117.039
-117.308
-117.337
-117.103
-116.586
-115.772
-114.649
-113.214
-111.465
-109.409
-107.055
-104.416
-101.513
-98.3709
-95.0203
-91.4997
-87.8535
-84.1315
-80.387
159.166
158.285
156.376
153.505
149.774
145.307
140.237
134.686
128.767
122.57
116.17
109.622
102.97
96.2452
89.4735
82.6765
75.8746
69.0879
62.3366
55.6415
49.0225
42.4992
36.0893
29.8085
23.6707
17.6871
11.8666
6.21568
0.738269
-4.56411
-9.6924
-14.6498
-19.4415
-24.074
-28.5546
-32.8907
-37.0888
-41.1538
-45.089
-48.8955
-52.5732
-56.1211
-59.5381
-62.8246
-65.9828
-69.0176
-71.9366
-74.7494
-77.4675
-80.1026
-82.6653
-85.1641
-87.6041
-89.9865
-92.3087
-94.5647
-96.7464
-98.8449
-100.853
-102.763
-104.575
-106.286
-107.902
-109.424
-110.859
-112.207
-113.466
-114.629
-115.683
-116.606
-117.374
-117.956
-118.322
-118.44
-118.281
-117.824
-117.05
-115.947
-114.51
-112.74
-110.641
-108.223
-105.499
-102.487
-99.2115
-95.7028
-92.0011
-88.1557
-84.2238
-80.2682
164.222
163.322
161.187
157.926
153.696
148.678
143.052
136.98
130.593
123.996
117.261
110.439
103.562
96.6484
89.7145
82.7724
75.8364
68.9227
62.0508
55.2413
48.5158
41.8951
35.3984
29.0426
22.842
16.8084
10.9506
5.27524
-0.214123
-5.51658
-10.6342
-15.5719
-20.3372
-24.9395
-29.3892
-33.6964
-37.8701
-41.9166
-45.8392
-49.6378
-53.3097
-56.8505
-60.256
-63.5237
-66.6542
-69.6521
-72.5266
-75.2905
-77.9594
-80.5499
-83.0773
-85.5536
-87.986
-90.3757
-92.7176
-95.002
-97.2156
-99.3446
-101.377
-103.304
-105.123
-106.835
-108.449
-109.975
-111.422
-112.8
-114.111
-115.352
-116.506
-117.553
-118.458
-119.184
-119.69
-119.937
-119.889
-119.517
-118.799
-117.723
-116.285
-114.486
-112.331
-109.83
-106.995
-103.84
-100.386
-96.6615
-92.7081
-88.5809
-84.3489
-80.0902
171.104
170.135
167.617
163.738
158.748
152.921
146.508
139.721
132.721
125.617
118.477
111.334
104.202
97.0795
89.9651
82.858
75.764
68.6962
61.6735
54.719
47.8571
41.1116
34.5039
28.0526
21.7726
15.676
9.77195
4.06691
-1.43551
-6.73494
-11.8347
-16.7418
-21.4671
-26.0242
-30.428
-34.6936
-38.8336
-42.8568
-46.7668
-50.5613
-54.2334
-57.7732
-61.1709
-64.4189
-67.5148
-70.4627
-73.274
-75.9664
-78.5624
-81.0863
-83.5609
-86.0044
-88.4275
-90.8314
-93.2075
-95.5391
-97.8047
-99.9816
-102.05
-103.998
-105.821
-107.525
-109.123
-110.635
-112.084
-113.487
-114.857
-116.195
-117.485
-118.7
-119.797
-120.726
-121.43
-121.858
-121.962
-121.704
-121.061
-120.02
-118.579
-116.742
-114.518
-111.918
-108.949
-105.622
-101.948
-97.9486
-93.6639
-89.1559
-84.511
-79.833
180.321
179.175
176.005
171.143
165.005
158.004
150.5
142.768
134.994
127.287
119.692
112.212
104.824
97.4975
90.2031
82.9226
75.6524
68.4032
61.1968
54.0622
47.0298
40.1287
33.3838
26.8153
20.4388
14.2661
8.3066
2.56685
-2.94903
-8.24057
-13.312
-18.173
-22.8387
-27.3286
-31.6651
-35.8705
-39.9641
-43.959
-47.8595
-51.6599
-55.3462
-58.8993
-62.2997
-65.5315
-68.5869
-71.4684
-74.1908
-76.7795
-79.2675
-81.6918
-84.0873
-86.4827
-88.8948
-91.3252
-93.7594
-96.1694
-98.5193
-100.772
-102.896
-104.871
-106.69
-108.364
-109.917
-111.386
-112.808
-114.22
-115.648
-117.103
-118.57
-120.014
-121.377
-122.587
-123.568
-124.244
-124.553
-124.446
-123.895
-122.892
-121.44
-119.552
-117.246
-114.533
-111.419
-107.902
-103.976
-99.6456
-94.9397
-89.9267
-84.7196
-79.4656
192.668
191.124
186.826
180.384
172.499
163.81
154.818
145.871
137.169
128.794
120.741
112.955
105.357
97.8667
90.4188
82.9707
75.5091
68.0468
60.6157
53.2569
46.0125
38.92
32.009
25.3011
18.811
12.5493
6.52468
0.744532
-4.78535
-10.0628
-15.0919
-19.8848
-24.4625
-28.8533
-33.0902
-37.2074
-41.2355
-45.1959
-49.095
-52.9214
-56.6492
-60.2439
-63.6696
-66.8967
-69.9074
-72.7016
-75.2984
-77.7354
-80.0628
-82.3367
-84.6121
-86.935
-89.3337
-91.8116
-94.3442
-96.8841
-99.3716
-101.746
-103.955
-105.965
-107.765
-109.374
-110.833
-112.2
-113.544
-114.927
-116.4
-117.99
-119.688
-121.444
-123.175
-124.778
-126.141
-127.158
-127.739
-127.824
-127.38
-126.407
-124.925
-122.965
-120.557
-117.724
-114.469
-110.769
-106.586
-101.882
-96.6564
-90.9758
-84.9945
-78.9385
209.441
207.036
200.728
191.698
181.148
170.046
159.068
148.617
138.87
129.833
121.403
113.424
105.731
98.1733
90.6326
83.0365
75.3648
67.6439
59.9289
52.2856
44.7757
37.4493
30.3413
23.4727
16.8539
10.4911
4.39074
-1.43801
-6.98484
-12.2423
-17.2113
-21.9059
-26.3548
-30.5987
-34.6866
-38.6714
-42.6034
-46.5201
-50.4337
-54.3235
-58.1425
-61.83
-65.3241
-68.5716
-71.5381
-74.2169
-76.6344
-78.8474
-80.9329
-82.9774
-85.0666
-87.276
-89.6565
-92.2173
-94.9162
-97.672
-100.385
-102.956
-105.299
-107.358
-109.114
-110.597
-111.876
-113.048
-114.221
-115.502
-116.982
-118.721
-120.719
-122.906
-125.156
-127.313
-129.211
-130.696
-131.64
-131.96
-131.625
-130.654
-129.098
-127.02
-124.48
-121.522
-118.155
-114.331
-109.943
-104.867
-99.0272
-92.4566
-85.3756
-78.1659
232.863
228.566
218.544
205.2
190.585
176.098
162.555
150.345
139.547
129.997
121.411
113.478
105.908
98.4531
90.924
83.2089
75.2895
67.2309
59.1376
51.1208
43.2735
35.6631
28.3283
21.284
14.5281
8.0547
1.86581
-4.02627
-9.60061
-14.8367
-19.7252
-24.2801
-28.5414
-32.5677
-36.4304
-40.2104
-43.992
-47.8472
-51.8053
-55.8261
-59.8235
-63.693
-67.3318
-70.6492
-73.5813
-76.1066
-78.2627
-80.1407
-81.8602
-83.5515
-85.3458
-87.3685
-89.7175
-92.4219
-95.404
-98.5194
-101.601
-104.49
-107.05
-109.183
-110.856
-112.113
-113.073
-113.892
-114.74
-115.786
-117.19
-119.077
-121.476
-124.276
-127.27
-130.217
-132.873
-135.01
-136.438
-137.037
-136.783
-135.741
-134.02
-131.737
-129.002
-125.908
-122.499
-118.704
-114.287
-108.953
-102.448
-94.6707
-85.9407
-76.9825
267.044
258.331
241.142
220.526
199.834
180.787
164.118
150.036
138.421
128.768
120.476
113.008
105.917
98.8372
91.4811
83.6732
75.4131
66.8661
58.2347
49.7106
41.4292
33.4793
25.8963
18.6795
11.7953
5.20864
-1.08638
-7.07177
-12.7029
-17.9313
-22.7185
-27.0765
-31.0655
-34.7711
-38.2921
-41.746
-45.2735
-49.0246
-53.0851
-57.3608
-61.6868
-65.8866
-69.8003
-73.2797
-76.2083
-78.5262
-80.2894
-81.66
-82.8262
-83.975
-85.2942
-86.9888
-89.2645
-92.2244
-95.6977
-99.4128
-103.093
-106.497
-109.411
-111.671
-113.193
-114.053
-114.469
-114.693
-114.972
-115.552
-116.702
-118.691
-121.654
-125.362
-129.451
-133.539
-137.28
-140.341
-142.43
-143.341
-143.072
-141.803
-139.75
-137.104
-134.04
-130.744
-127.395
-123.971
-119.948
-114.724
-107.701
-98.2549
-86.8333
-75.0289
320.339
300.299
268.666
235.96
206.711
182.051
161.954
146.172
134.468
125.577
118.353
111.99
105.908
99.6167
92.687
84.7868
75.9484
66.6215
57.1761
47.9501
39.1068
30.7669
22.9364
15.5962
8.63375
1.94283
-4.48419
-10.6269
-16.3848
-21.6604
-26.3292
-30.4032
-33.997
-37.2391
-40.2495
-43.1746
-46.2318
-49.755
-54.0536
-58.8215
-63.7305
-68.4902
-72.8925
-76.7014
-79.7128
-81.7424
-82.8794
-83.4718
-83.8151
-84.1515
-84.6998
-85.7705
-87.8242
-91.2857
-95.6412
-100.354
-104.98
-109.208
-112.713
-115.218
-116.481
-116.629
-116.14
-115.412
-114.769
-114.496
-115.004
-116.902
-120.757
-125.9
-131.629
-137.358
-142.665
-147.069
-150.115
-151.344
-150.799
-148.994
-146.331
-143.073
-139.41
-135.656
-132.398
-130.1
-127.339
-123.084
-116.439
-104.683
-88.2758
-71.4253
411.801
358.954
297.731
246.406
206.974
176.737
153.573
136.43
126.463
119.98
114.989
110.566
106.196
101.313
95.2879
87.2491
77.1849
66.5458
55.7999
45.6374
36.0586
27.3201
19.2699
11.9687
5.08117
-1.70287
-8.29101
-14.7359
-20.7603
-26.2628
-30.7954
-34.4206
-37.4337
-40.0397
-42.3283
-44.4118
-46.5173
-49.3675
-54.3447
-60.0772
-65.9875
-71.6064
-76.8373
-81.2692
-84.6289
-86.2419
-86.2512
-85.6402
-84.8114
-84.0208
-83.351
-83.1344
-84.3546
-89.057
-95.0676
-101.42
-107.436
-112.956
-117.452
-120.55
-121.375
-120.12
-118.153
-116.008
-114.03
-112.313
-111.301
-112.292
-118.004
-125.59
-133.804
-141.785
-149.347
-155.749
-160.417
-161.896
-160.338
-157.418
-153.765
-149.622
-144.907
-139.853
-136.015
-136.892
-136.878
-134.884
-132.535
-117.809
-90.3547
-63.8085
590.507
429.666
312.538
239.722
193.993
161.236
136.516
116.351
113.438
112.232
110.803
109.063
107.22
104.653
100.786
92.626
79.2476
66.6226
53.5823
42.4834
31.7996
22.8818
14.5245
7.74554
1.37962
-5.63036
-12.3036
-19.45
-25.8865
-32.2608
-36.5672
-39.3184
-41.4555
-43.2963
-44.7012
-45.616
-45.7292
-45.9158
-53.5468
-61.0752
-68.6623
-75.2794
-81.9305
-87.3787
-92.0582
-93.0486
-90.5141
-88.1201
-85.7506
-83.7139
-81.3475
-78.4275
-75.8685
-84.9423
-94
-102.966
-110.605
-118.176
-124.204
-129.152
-129.26
-124.634
-120.418
-116.362
-112.911
-109.113
-104.712
-100.882
-112.549
-124.373
-136.315
-146.812
-157.698
-166.923
-175.31
-176.819
-171.835
-166.897
-161.902
-156.994
-150.889
-142.299
-132.84
-144.966
-149.268
-147.195
-166.451
-149.263
-91.1244
-45.5253
996.633
437.422
263.531
194.026
162.328
134.158
112.898
71.4251
97.954
104.8
107.064
107.707
109.28
109.865
112.461
105.515
80.2232
67.2957
48.5679
38.7306
24.9968
17.636
7.50615
2.92757
-1.39428
-10.0424
-15.6343
-25.1856
-31.1012
-41.2355
-44.5775
-45.099
-45.9028
-47.1791
-47.7784
-47.9732
-44.8341
-31.7426
-52.895
-61.9869
-72.7317
-78.9013
-88.7539
-94.5924
-104.797
-104.929
-94.5721
-90.5624
-86.2082
-83.8795
-80.139
-73.199
-50.629
-80.8488
-93.0618
-106.422
-113.869
-125.615
-132.508
-144.721
-143.958
-128.557
-122.45
-115.844
-112.29
-106.779
-97.299
-67.1562
-106.864
-122.987
-140.902
-151.277
-168.437
-179.303
-200.105
-201.09
-183.265
-176.456
-169.91
-166.09
-160.447
-145.993
-98.5832
-164.303
-170.834
-128.791
-252.842
-239.683
-73.836
1.46813
-76.6242
-72.4985
-68.5415
-64.8099
-61.3477
-58.1862
-55.3454
-52.8351
-50.6579
-48.811
-47.2883
-46.0823
-45.1857
-44.5919
-44.2962
-76.5216
-72.3286
-68.3151
-64.5395
-61.0459
-57.8648
-55.014
-52.5013
-50.3269
-48.486
-46.9708
-45.7723
-44.8822
-44.2931
-43.9999
-76.3086
-71.9779
-67.8498
-63.986
-60.4308
-57.2121
-54.3436
-51.8283
-49.6617
-47.8346
-46.3357
-45.1534
-44.277
-43.6978
-43.4097
-75.9691
-71.4235
-67.1192
-63.123
-59.4784
-56.2083
-53.3191
-50.8058
-48.6562
-46.8543
-45.3835
-44.2279
-43.3738
-42.8106
-42.5309
-75.4756
-70.6266
-66.0795
-61.9073
-58.1505
-54.8226
-51.918
-49.419
-47.3021
-45.5423
-44.1153
-43.0001
-42.1792
-41.6393
-41.3716
-74.7847
-69.5266
-64.6639
-60.2754
-56.3928
-53.0129
-50.1104
-47.6493
-45.5904
-43.8966
-42.5347
-41.4774
-40.7029
-40.1953
-39.9441
-73.828
-68.0303
-62.7731
-58.1365
-54.1317
-50.725
-47.8607
-45.4765
-43.513
-41.9182
-40.649
-39.6713
-38.9592
-38.4943
-38.2647
-72.4953
-65.9926
-60.2607
-55.3652
-51.2717
-47.894
-45.1301
-42.8823
-41.0662
-39.6136
-38.4711
-37.5989
-36.9677
-36.5573
-36.3552
-70.6007
-63.1831
-56.911
-51.7911
-47.695
-44.4485
-41.8829
-39.8558
-38.2555
-36.9981
-36.0225
-35.2849
-34.7547
-34.4116
-34.243
-67.8122
-59.2269
-52.4081
-47.1924
-43.2679
-40.3215
-38.0967
-36.4019
-35.1012
-34.1004
-33.3354
-32.7629
-32.3542
-32.0909
-31.9617
-63.499
-53.5034
-46.3011
-41.302
-37.8619
-35.4723
-33.7797
-32.5534
-31.6464
-30.9664
-30.4552
-30.0766
-29.808
-29.6354
-29.5508
-56.3895
-44.9861
-37.9903
-33.8519
-31.405
-29.9254
-28.9961
-28.3852
-27.9643
-27.6629
-27.442
-27.28
-27.1652
-27.0913
-27.055
-43.805
-32.0601
-26.8217
-24.7096
-23.9805
-23.8275
-23.8939
-24.0264
-24.1623
-24.2786
-24.3694
-24.4358
-24.4812
-24.5092
-24.5225
-19.9975
-12.6274
-12.5262
-14.1841
-15.9795
-17.51
-18.7251
-19.6639
-20.3796
-20.9194
-21.3209
-21.6122
-21.8143
-21.9414
-22.0028
27.2346
14.0743
3.52851
-3.52072
-8.24327
-11.5077
-13.8322
-15.5241
-16.7725
-17.6984
-18.382
-18.8776
-19.2219
-19.4392
-19.5443
27.3413
27.2327
27.004
26.6303
26.068
25.2456
24.0434
22.2541
19.4914
14.955
6.71938
-10.8411
-58.065
-223.799
-954.28
18.7199
18.42
17.792
16.7747
15.2605
13.072
9.91407
5.28056
-1.74316
-12.9267
-31.9756
-67.2717
-138.657
-290.129
-572.531
10.3059
9.83412
8.84958
7.26309
4.92046
1.57083
-3.19142
-10.034
-20.0899
-35.3473
-59.3881
-98.6399
-163.631
-265.533
-386.89
2.21855
1.60342
0.324291
-1.7242
-4.72108
-8.9501
-14.8529
-23.1179
-34.8252
-51.6689
-76.238
-112.134
-162.971
-227.424
-285.52
-5.44244
-6.16697
-7.6675
-10.0536
-13.5076
-18.3093
-24.8746
-33.8119
-45.9937
-62.6252
-85.2219
-115.252
-152.855
-193.726
-224.493
-12.601
-13.3992
-15.045
-17.642
-21.3588
-26.4442
-33.2498
-42.2532
-54.0728
-69.4389
-89.0431
-113.11
-140.468
-167.044
-184.83
-19.206
-20.0435
-21.7624
-24.4535
-28.2599
-33.385
-40.099
-48.7393
-59.6896
-73.3095
-89.7641
-108.684
-128.622
-146.465
-157.517
-25.2299
-26.0763
-27.8053
-30.4908
-34.2456
-39.2225
-45.6106
-53.6214
-63.4528
-75.2117
-88.7724
-103.551
-118.231
-130.602
-137.877
-30.6666
-31.4966
-33.1845
-35.786
-39.3831
-44.0804
-49.9956
-57.2395
-65.8774
-75.8629
-86.9348
-98.4853
-109.442
-118.275
-123.29
-35.5274
-36.3215
-37.9297
-40.3902
-43.7568
-48.0926
-53.4579
-59.8894
-67.3663
-75.7595
-84.7644
-93.8316
-102.129
-108.6
-112.184
-39.837
-40.5816
-42.0833
-44.3654
-47.4578
-51.3901
-56.1799
-61.8134
-68.2189
-75.2312
-82.5508
-89.7121
-96.083
-100.93
-103.566
-43.6299
-44.3163
-45.6954
-47.7781
-50.5756
-54.0924
-58.316
-63.2012
-68.6502
-74.4894
-80.4468
-86.1411
-91.0955
-94.7934
-96.7786
-46.9464
-47.5701
-48.8192
-50.6948
-53.1941
-56.3041
-59.9928
-64.1974
-68.8104
-73.6653
-78.5255
-83.0838
-86.9803
-89.8462
-91.3696
-49.8299
-50.39
-51.5081
-53.1785
-55.3887
-58.1141
-61.3114
-64.91
-68.8027
-72.8375
-76.8137
-80.4857
-83.5807
-85.831
-87.0181
-52.3247
-52.8225
-53.8136
-55.2875
-57.2256
-59.5964
-62.3514
-65.4184
-68.6962
-72.0504
-75.3129
-78.2881
-80.7675
-82.5539
-83.4907
-54.4741
-54.9127
-55.7839
-57.0744
-58.762
-60.8121
-63.1748
-65.7804
-68.5367
-71.3269
-74.0115
-76.4346
-78.4355
-79.8667
-80.6137
-56.3189
-56.7026
-57.4631
-58.5858
-60.0467
-61.8109
-63.8295
-66.0378
-68.3536
-70.6767
-72.8918
-74.8741
-76.499
-77.6544
-78.2552
-57.8974
-58.231
-58.891
-59.8623
-61.121
-62.633
-64.3525
-66.2207
-68.1653
-70.1013
-71.9335
-73.5618
-74.8883
-75.8271
-76.3138
-59.2444
-59.5329
-60.1028
-60.9393
-62.0194
-63.311
-64.7722
-66.3505
-67.9831
-69.5981
-71.1169
-72.4589
-73.5467
-74.3137
-74.7104
-60.391
-60.6395
-61.1295
-61.8472
-62.7709
-63.8713
-65.1106
-66.4425
-67.8131
-69.1615
-70.4231
-71.5324
-72.4279
-73.0574
-73.3822
-61.3652
-61.5783
-61.9982
-62.612
-63.3998
-64.3353
-65.3847
-66.5078
-67.6583
-68.7852
-69.8349
-70.7542
-71.4939
-72.0124
-72.2796
-62.1914
-62.3737
-62.7325
-63.2559
-63.9263
-64.72
-65.6076
-66.5541
-67.52
-68.4625
-69.3372
-70.1008
-70.7134
-71.142
-71.3625
-62.8911
-63.0466
-63.3523
-63.7978
-64.3672
-65.0397
-65.7896
-66.5869
-67.398
-68.1868
-68.9168
-69.5521
-70.0608
-70.4159
-70.5984
-63.4829
-63.6152
-63.8752
-64.2536
-64.7365
-65.3056
-65.9388
-66.6102
-67.2913
-67.9521
-68.5619
-69.0915
-69.5146
-69.8096
-69.9611
-63.9827
-64.0952
-64.316
-64.6369
-65.0459
-65.5271
-66.0613
-66.6266
-67.1989
-67.7527
-68.2627
-68.7048
-69.0574
-69.3029
-69.429
-64.4046
-64.5
-64.6872
-64.9591
-65.3051
-65.7117
-66.1624
-66.6383
-67.1192
-67.5836
-68.0106
-68.3802
-68.6745
-68.8793
-68.9843
-64.7602
-64.841
-64.9996
-65.2298
-65.5224
-65.8658
-66.2458
-66.6466
-67.0508
-67.4407
-67.7985
-68.1078
-68.3538
-68.5248
-68.6125
-65.0596
-65.1281
-65.2624
-65.4571
-65.7045
-65.9944
-66.3149
-66.6524
-66.9924
-67.3199
-67.6201
-67.8792
-68.0852
-68.2283
-68.3016
-65.3116
-65.3695
-65.4832
-65.6479
-65.857
-66.1018
-66.3722
-66.6566
-66.9427
-67.218
-67.4702
-67.6876
-67.8603
-67.9801
-68.0415
-65.5232
-65.5723
-65.6685
-65.8078
-65.9846
-66.1915
-66.4197
-66.6595
-66.9006
-67.1323
-67.3443
-67.527
-67.672
-67.7726
-67.8241
-65.7008
-65.7424
-65.8239
-65.9418
-66.0914
-66.2663
-66.4591
-66.6616
-66.865
-67.0603
-67.2388
-67.3926
-67.5145
-67.5991
-67.6424
-65.8496
-65.8849
-65.9539
-66.0539
-66.1806
-66.3287
-66.4919
-66.6631
-66.8349
-66.9998
-67.1505
-67.2802
-67.383
-67.4543
-67.4908
-65.9739
-66.0038
-66.0625
-66.1474
-66.255
-66.3806
-66.519
-66.6641
-66.8097
-66.9493
-67.0768
-67.1865
-67.2734
-67.3336
-67.3645
-66.0773
-66.1029
-66.1528
-66.2252
-66.3168
-66.4237
-66.5415
-66.6649
-66.7886
-66.9072
-67.0155
-67.1085
-67.1823
-67.2334
-67.2595
-66.1631
-66.1849
-66.2277
-66.2896
-66.3679
-66.4593
-66.56
-66.6654
-66.771
-66.8723
-66.9646
-67.044
-67.1069
-67.1505
-67.1728
-66.2336
-66.2524
-66.2893
-66.3425
-66.4099
-66.4886
-66.5751
-66.6658
-66.7565
-66.8435
-66.9228
-66.991
-67.045
-67.0824
-67.1015
-66.2912
-66.3075
-66.3394
-66.3857
-66.4442
-66.5124
-66.5874
-66.666
-66.7447
-66.8201
-66.8888
-66.9478
-66.9945
-67.0269
-67.0434
-66.3373
-66.3517
-66.3797
-66.4203
-66.4716
-66.5315
-66.5973
-66.6662
-66.7352
-66.8012
-66.8614
-66.9131
-66.9541
-66.9824
-66.9969
-66.3736
-66.3863
-66.4113
-66.4474
-66.4931
-66.5464
-66.605
-66.6663
-66.7277
-66.7864
-66.84
-66.886
-66.9223
-66.9475
-66.9604
-66.4009
-66.4125
-66.4352
-66.4679
-66.5094
-66.5577
-66.6108
-66.6664
-66.722
-66.7753
-66.8238
-66.8654
-66.8984
-66.9212
-66.9329
-66.4203
-66.431
-66.452
-66.4824
-66.5209
-66.5657
-66.6149
-66.6665
-66.718
-66.7674
-66.8123
-66.8509
-66.8815
-66.9026
-66.9134
-66.4321
-66.4424
-66.4624
-66.4913
-66.5279
-66.5706
-66.6175
-66.6665
-66.7156
-66.7625
-66.8053
-66.8421
-66.8711
-66.8912
-66.9015
-66.4369
-66.4469
-66.4665
-66.4949
-66.5307
-66.5725
-66.6185
-66.6665
-66.7146
-66.7606
-66.8025
-66.8385
-66.8669
-66.8866
-66.8967
-66.4347
-66.4448
-66.4646
-66.4932
-66.5294
-66.5717
-66.618
-66.6665
-66.7151
-66.7615
-66.8038
-66.8401
-66.8688
-66.8887
-66.8989
-66.4255
-66.436
-66.4566
-66.4863
-66.524
-66.5679
-66.6161
-66.6665
-66.717
-66.7653
-66.8093
-66.847
-66.8769
-66.8976
-66.9082
-66.409
-66.4202
-66.4422
-66.474
-66.5142
-66.5611
-66.6126
-66.6665
-66.7204
-66.772
-66.819
-66.8594
-66.8913
-66.9134
-66.9247
-66.3846
-66.3969
-66.421
-66.4558
-66.4998
-66.5511
-66.6074
-66.6664
-66.7255
-66.7819
-66.8334
-66.8776
-66.9126
-66.9368
-66.9492
-66.3518
-66.3655
-66.3923
-66.4312
-66.4803
-66.5375
-66.6005
-66.6663
-66.7323
-66.7954
-66.8529
-66.9022
-66.9413
-66.9684
-66.9822
-66.3094
-66.3249
-66.3554
-66.3994
-66.4551
-66.5201
-66.5915
-66.6662
-66.741
-66.8127
-66.8779
-66.934
-66.9784
-67.0091
-67.0248
-66.2562
-66.2741
-66.309
-66.3596
-66.4235
-66.4981
-66.5801
-66.666
-66.752
-66.8344
-66.9094
-66.9739
-67.025
-67.0603
-67.0784
-66.1906
-66.2113
-66.2518
-66.3104
-66.3845
-66.471
-66.5662
-66.6658
-66.7656
-66.8611
-66.9483
-67.0231
-67.0824
-67.1235
-67.1445
-66.1107
-66.1348
-66.1821
-66.2504
-66.337
-66.4379
-66.549
-66.6654
-66.782
-66.8937
-66.9956
-67.0832
-67.1525
-67.2005
-67.2251
-66.014
-66.0423
-66.0977
-66.1778
-66.2793
-66.3978
-66.5282
-66.6649
-66.8019
-66.9331
-67.0529
-67.1559
-67.2374
-67.2939
-67.3228
-65.8976
-65.9309
-65.9961
-66.0905
-66.2099
-66.3495
-66.5031
-66.6642
-66.8257
-66.9805
-67.1218
-67.2434
-67.3397
-67.4065
-67.4406
-65.7582
-65.7974
-65.8743
-65.9856
-66.1266
-66.2914
-66.4728
-66.6631
-66.8541
-67.0373
-67.2045
-67.3485
-67.4625
-67.5416
-67.5821
-65.5914
-65.6378
-65.7286
-65.8601
-66.0268
-66.2216
-66.4363
-66.6617
-66.8879
-67.105
-67.3035
-67.4742
-67.6097
-67.7036
-67.7516
-65.3925
-65.4473
-65.5547
-65.7102
-65.9075
-66.1381
-66.3925
-66.6596
-66.928
-67.1858
-67.4215
-67.6246
-67.7856
-67.8974
-67.9546
-65.1556
-65.2204
-65.3474
-65.5314
-65.7649
-66.0382
-66.3397
-66.6568
-66.9755
-67.2819
-67.5623
-67.804
-67.9959
-68.129
-68.1972
-64.8736
-64.9502
-65.1004
-65.3182
-65.5947
-65.9186
-66.2763
-66.6527
-67.0315
-67.3961
-67.73
-68.018
-68.2469
-68.4057
-68.4871
-64.5384
-64.629
-64.8066
-65.0643
-65.3916
-65.7754
-66.1998
-66.6469
-67.0974
-67.5315
-67.9295
-68.2732
-68.5464
-68.7363
-68.8335
-64.1404
-64.2474
-64.4573
-64.7619
-65.1494
-65.6041
-66.1076
-66.6388
-67.1748
-67.6919
-68.1667
-68.5772
-68.9039
-69.131
-69.2475
-63.6681
-63.7944
-64.0421
-64.4021
-64.8604
-65.399
-65.9963
-66.6273
-67.2652
-67.8817
-68.4486
-68.9394
-69.3305
-69.6027
-69.7422
-63.1081
-63.2569
-63.5491
-63.974
-64.5156
-65.1532
-65.8614
-66.6111
-67.3705
-68.1058
-68.7833
-69.3709
-69.8397
-70.1663
-70.3339
-62.4449
-62.62
-62.9641
-63.4649
-64.1043
-64.8583
-65.6977
-66.5883
-67.4924
-68.3701
-69.1805
-69.8848
-70.4477
-70.8402
-71.0419
-61.6601
-61.8658
-62.2701
-62.8596
-63.6134
-64.5043
-65.4984
-66.556
-67.6328
-68.6809
-69.6514
-70.4968
-71.1738
-71.6467
-71.8899
-60.7326
-60.9735
-61.4478
-62.1401
-63.0273
-64.0785
-65.2549
-66.5105
-67.7931
-69.0457
-70.2092
-71.2256
-72.0417
-72.6127
-72.9067
-59.6378
-59.9194
-60.4741
-61.2853
-62.3275
-63.5658
-64.9565
-66.4463
-67.9742
-69.4722
-70.8691
-72.0936
-73.0796
-73.7711
-74.1276
-58.3477
-58.6755
-59.3224
-60.2703
-61.4914
-62.9475
-64.5892
-66.3558
-68.1759
-69.969
-71.6486
-73.1271
-74.3218
-75.1621
-75.5959
-56.8299
-57.2102
-57.9617
-59.0655
-60.4922
-62.2002
-64.1351
-66.2281
-68.3964
-70.5445
-72.5677
-74.3576
-75.8102
-76.8351
-77.3655
-55.0481
-55.4873
-56.3565
-57.6367
-59.2976
-61.2956
-63.5713
-66.0481
-68.6309
-71.2068
-73.6488
-75.8223
-77.5954
-78.8515
-79.5032
-52.9616
-53.4659
-54.4659
-55.9436
-57.8691
-60.1981
-62.8679
-65.7945
-68.8701
-71.962
-74.9162
-77.5649
-79.7394
-81.2876
-82.0932
-50.5249
-51.1003
-52.2438
-53.9397
-56.1606
-58.8639
-61.9861
-65.4376
-69.0979
-72.8127
-76.3957
-79.6368
-82.3183
-84.2391
-85.2426
-47.689
-48.3404
-49.6383
-51.5712
-54.1173
-57.2389
-60.8757
-64.9357
-69.2879
-73.7549
-78.1125
-82.097
-85.4253
-87.8275
-89.0886
-44.4009
-45.1317
-46.592
-48.7771
-51.6744
-55.2564
-59.4713
-64.2311
-69.398
-74.7729
-80.0882
-85.0127
-89.1751
-92.208
-93.8101
-40.6056
-41.4167
-43.0427
-45.4887
-48.7562
-52.8344
-57.6887
-63.2436
-69.3638
-75.8323
-82.335
-88.4576
-93.7092
-97.5818
-99.6439
-36.2473
-37.1361
-38.9242
-41.6301
-45.2751
-49.8738
-55.4196
-61.8638
-69.0875
-76.8678
-84.8456
-92.507
-99.2004
-104.213
-106.909
-31.2721
-32.2313
-34.1686
-37.1197
-41.1321
-46.2556
-52.5266
-59.9427
-68.4246
-77.7661
-87.5758
-97.2282
-105.859
-112.451
-116.047
-25.6313
-26.6477
-28.7094
-31.8726
-36.2177
-41.8408
-48.8387
-57.2814
-67.1646
-78.3392
-90.4151
-102.659
-113.932
-122.77
-127.681
-19.2851
-20.3387
-22.4856
-25.8053
-30.4162
-36.4714
-44.1478
-53.6198
-65.0079
-78.2862
-93.1376
-108.762
-123.697
-135.815
-142.724
-12.2078
-13.271
-15.4479
-18.8418
-23.612
-29.9765
-38.2101
-48.6278
-61.5385
-77.1406
-95.323
-115.343
-135.419
-152.475
-162.566
-4.39287
-5.43051
-7.56574
-10.9232
-15.7011
-22.1841
-30.756
-41.9047
-56.2002
-74.203
-96.2322
-121.884
-149.237
-173.972
-189.413
4.14191
3.17149
1.1645
-2.01869
-6.60667
-12.9415
-21.5127
-32.9967
-48.2873
-68.4694
-94.6254
-127.243
-164.874
-201.921
-226.982
13.3498
12.4925
10.7108
7.86061
3.70018
-2.14649
-10.247
-21.4456
-36.9777
-58.5871
-88.5315
-129.119
-180.913
-238.194
-281.952
23.152
22.4546
20.9981
18.649
15.1773
10.213
3.1696
-6.8857
-21.4483
-42.9168
-75.046
-123.214
-193.142
-283.855
-367.307
33.4376
32.9427
31.9044
30.216
27.6901
24.0155
18.677
10.8036
-1.12361
-19.8436
-50.423
-102.196
-190.934
-334.556
-510.611
44.0656
43.8071
43.2611
42.3635
40.9995
38.9726
35.9439
31.307
23.9173
11.4644
-11.0828
-55.5063
-150.612
-362.732
-776.169
54.872
54.8698
54.8607
54.8338
54.7682
54.6244
54.3264
53.7207
52.4731
49.7812
43.4483
26.379
-29.0284
-251.1
-1328.83
65.6785
65.9359
66.4713
67.3298
68.5899
70.3818
72.9211
76.5785
82.03
90.625
105.434
134.887
208.294
454.74
1557.34
76.3048
76.8075
77.8561
79.5453
82.041
85.6186
90.7377
98.1883
109.402
127.152
157.249
212.869
325.446
566.025
1021.99
86.5803
87.2985
88.7946
91.1993
94.739
99.7834
106.933
117.183
132.233
155.101
191.337
251.296
353.701
527.723
803.334
88.797
36.1541
15.0401
4.12129
-2.4882
-6.86698
-9.92676
-12.1357
-13.7613
-14.9676
-15.8603
-16.5094
-16.9617
-17.2479
-17.3866
56.1136
34.3311
18.4252
8.07593
1.1946
-3.56405
-6.96711
-9.4604
-11.3149
-12.7027
-13.7368
-14.4929
-15.0222
-15.3581
-15.5213
38.5563
28.4269
17.9512
9.6222
3.40329
-1.20246
-4.63918
-7.22856
-9.1925
-10.6833
-11.8061
-12.6338
-13.2167
-13.5882
-13.7691
28.033
22.7627
15.9864
9.70301
4.49169
0.347325
-2.89964
-5.43099
-7.39859
-8.91934
-10.0802
-10.9446
-11.5578
-11.9506
-12.1424
21.1694
18.1441
13.6792
9.03922
4.8391
1.27391
-1.65702
-4.02485
-5.91491
-7.40521
-8.5601
-9.42979
-10.0518
-10.4525
-10.6488
16.4066
14.5249
11.4934
8.06988
4.74553
1.76001
-0.805428
-2.95045
-4.70878
-6.12393
-7.23795
-8.08689
-8.69931
-9.09622
-9.29129
12.9502
11.7041
9.57976
7.03158
4.41661
1.95437
-0.245783
-2.14456
-3.74093
-5.05171
-6.09982
-6.90814
-7.49643
-7.88001
-8.06921
10.3591
9.49295
7.96037
6.03958
3.9816
1.96672
0.104572
-1.54865
-2.97137
-4.16184
-5.12816
-5.88212
-6.43563
-6.7987
-6.97842
8.36944
7.74451
6.6105
5.14279
3.5166
1.87297
0.309841
-1.1128
-2.36307
-3.42758
-4.3039
-4.99525
-5.50702
-5.84466
-6.01236
6.81365
6.34952
5.49228
4.35601
3.06368
1.72329
0.417545
-0.796637
-1.88374
-2.82398
-3.60806
-4.23302
-4.69928
-5.00857
-5.16269
5.5801
5.22745
4.56778
3.67755
2.64411
1.54955
0.461655
-0.568715
-1.50638
-2.3288
-3.02267
-3.58096
-4.00048
-4.28019
-4.41999
4.59138
4.31855
3.80335
3.0985
2.26696
1.37115
0.465814
-0.405164
-1.20904
-1.92286
-2.53141
-3.02522
-3.39874
-3.64893
-3.77433
3.79208
3.5779
3.17059
2.60739
1.93441
1.19935
0.446108
-0.288206
-0.97423
-1.58999
-2.11981
-2.553
-2.88259
-3.1043
-3.2157
3.14147
2.97135
2.64604
2.19249
1.64496
1.04017
0.41325
-0.20478
-0.788204
-1.31679
-1.77528
-2.15268
-2.44134
-2.63625
-2.7344
2.60896
2.47253
2.21052
1.84282
1.39527
0.896349
0.374211
-0.145383
-0.640255
-1.09224
-1.48706
-1.81397
-2.06517
-2.23535
-2.32123