/*--------------------------------*- C++ -*----------------------------------*\
| =========                 |                                                 |
| \\      /  F ield         | OpenFOAM: The Open Source CFD Toolbox           |
|  \\    /   O peration     | Version:  5.x                                   |
|   \\  /    A nd           | Web:      www.OpenFOAM.org                      |
|    \\/     M anipulation  |                                                 |
\*---------------------------------------------------------------------------*/
FoamFile
{
    version     2.0;
    format      ascii;
    class       volScalarField;
    location    "18.7";
    object      gradTy;
}
// * * * * * * * * * * * * * * * * * * * * * * * * * * * * * * * * * * * * * //

dimensions      [0 -1 0 1 0 0 0];

internalField   nonuniform List<scalar> 
6300
(
993.571
980.828
968.426
956.587
945.528
935.454
926.557
919.005
912.942
908.476
905.673
904.552
905.078
907.164
910.669
-0.170846
-0.510684
-0.844749
-1.16847
-1.47625
-1.76116
-2.01482
-2.2275
-2.38855
-2.48731
-2.51437
-2.46328
-2.33234
-2.12592
-1.85501
-0.286808
-0.85758
-1.41944
-1.96521
-2.48586
-2.97001
-3.40358
-3.76984
-4.05009
-4.22507
-4.27726
-4.19399
-3.97087
-3.6147
-3.14471
-0.405608
-1.21338
-2.01024
-2.78706
-3.53198
-4.22946
-4.85964
-5.39818
-5.81689
-6.08561
-6.17562
-6.06456
-5.74245
-5.2173
-4.51803
-0.527856
-1.58007
-2.62106
-3.64079
-4.6255
-5.55617
-6.40733
-7.14633
-7.73365
-8.12484
-8.27501
-8.14613
-7.71705
-6.99396
-6.01739
-0.653599
-1.95801
-3.25312
-4.52955
-5.77305
-6.96238
-8.06716
-9.04615
-9.84651
-10.4051
-10.6534
-10.5279
-9.98565
-9.0241
-7.69702
-0.782125
-2.34523
-3.90383
-5.45121
-6.97476
-8.4531
-9.85273
-11.1246
-12.2011
-12.9955
-13.4057
-13.3263
-12.6735
-11.4197
-9.63084
-0.911788
-2.73695
-4.56576
-6.39666
-8.22165
-10.0225
-11.766
-13.3983
-14.8378
-15.9701
-16.6473
-16.6983
-15.9622
-14.3503
-11.928
-1.03985
-3.12503
-5.22556
-7.34801
-9.49264
-11.6492
-13.7906
-15.8646
-17.7815
-19.3999
-20.515
-20.8572
-20.1266
-18.0912
-14.7642
-1.16245
-3.49773
-5.86342
-8.27716
-10.7517
-13.2908
-15.8826
-18.4881
-21.0234
-23.3331
-25.1554
-26.0887
-25.5958
-23.1237
-18.4559
-1.27467
-3.84002
-6.45321
-9.14546
-11.9461
-14.8798
-17.9609
-21.1816
-24.4908
-27.7537
-30.6846
-32.7464
-33.0441
-30.3519
-23.661
-1.37089
-4.13443
-6.96392
-9.90534
-13.0074
-16.3214
-19.8993
-23.7867
-28.0044
-32.506
-37.0828
-41.168
-43.4823
-41.5787
-32.0279
-1.44533
-4.36288
-7.36266
-10.5046
-13.8566
-17.4989
-21.5281
-26.0612
-31.234
-37.1831
-43.9723
-51.3603
-58.1383
-60.4525
-48.6704
-1.49285
-4.5091
-7.61923
-10.8936
-14.4155
-18.2895
-22.6531
-27.6957
-33.6871
-41.02
-50.2629
-62.1623
-77.2578
-93.4224
-93.0252
-1.50981
-4.5614
-7.71153
-11.035
-14.6224
-18.5903
-23.0989
-28.3814
-34.7983
-42.9467
-53.8969
-69.7678
-95.3079
-142.953
-251.86
915.017
919.692
924.956
930.67
936.7
942.915
949.195
955.431
961.528
967.403
972.986
978.219
983.054
987.452
991.382
994.82
997.748
1000.15
1002.02
1003.35
1004.13
1004.36
1004.05
1003.19
1001.8
999.863
997.398
994.408
990.901
986.885
982.367
977.355
971.857
965.881
959.434
952.523
945.155
937.337
929.075
920.377
911.248
901.696
891.729
881.354
870.579
859.413
847.863
835.937
823.642
810.983
797.968
784.602
770.89
756.838
742.453
727.74
712.707
697.363
681.717
665.781
649.565
633.084
616.349
599.374
582.175
564.765
547.162
529.383
511.448
493.378
475.2
456.943
438.637
420.32
402.031
383.813
365.711
347.771
330.043
312.574
295.412
278.602
262.189
246.212
230.708
215.709
201.239
187.32
173.962
161.173
-1.56285
-1.27694
-0.982812
-0.691792
-0.413487
-0.155206
0.0782221
0.284296
0.462479
0.61372
0.739971
0.843759
0.927833
0.994922
1.04757
1.08805
1.11834
1.1401
1.15473
1.16337
1.16696
1.16627
1.16195
1.15453
1.14447
1.13222
1.11819
1.10278
1.0864
1.06947
1.05236
1.03542
1.0189
1.00297
0.987655
0.972889
0.95849
0.944203
0.929752
0.914884
0.899428
0.883329
0.866671
0.84967
0.832644
0.81596
0.799972
0.784947
0.771011
0.758102
0.745966
0.734168
0.722149
0.709291
0.695008
0.678819
0.660413
0.639678
0.616694
0.591686
0.56495
0.536754
0.507236
0.476323
0.44367
0.408644
0.370359
0.327755
0.27971
0.225179
0.163337
0.0936934
0.0161816
-0.068807
-0.160434
-0.257473
-0.358393
-0.461465
-0.564861
-0.666726
-0.765228
-0.85857
-0.944989
-1.02274
-1.0901
-1.14541
-1.18719
-1.21424
-1.2258
-1.2217
-2.63726
-2.14144
-1.63316
-1.1328
-0.657291
-0.219092
0.173972
0.518319
0.813802
1.06278
1.26918
1.43778
1.57355
1.6813
1.76541
1.82973
1.87754
1.91158
1.93412
1.94701
1.95176
1.9496
1.94153
1.9284
1.91096
1.88988
1.86583
1.83948
1.81154
1.78271
1.75367
1.72502
1.69723
1.67061
1.64521
1.62089
1.59729
1.57392
1.55023
1.52573
1.50005
1.47309
1.44498
1.41614
1.38718
1.35882
1.33175
1.30651
1.28338
1.26227
1.24274
1.22397
1.20492
1.18442
1.16138
1.13489
1.1044
1.06971
1.03105
0.988909
0.943928
0.896717
0.847644
0.796677
0.743263
0.686298
0.624182
0.55496
0.476545
0.386975
0.284682
0.168715
0.0389043
-0.10408
-0.25875
-0.422919
-0.593876
-0.768585
-0.943874
-1.11658
-1.28362
-1.44201
-1.58883
-1.72116
-1.83606
-1.93063
-2.00217
-2.04844
-2.068
-2.06042
-3.76142
-3.02396
-2.2722
-1.53814
-0.847466
-0.218098
0.339759
0.82258
1.23197
1.57299
1.85269
2.07892
2.25947
2.40156
2.5116
2.59503
2.65641
2.69946
2.72724
2.74221
2.74634
2.74125
2.72821
2.70832
2.6825
2.65163
2.61659
2.57831
2.53779
2.49609
2.45423
2.41319
2.37373
2.3363
2.30104
2.26767
2.23559
2.20393
2.17173
2.13809
2.10237
2.06433
2.02419
1.98264
1.94071
1.89966
1.86073
1.82489
1.79268
1.76404
1.73826
1.71403
1.68962
1.66309
1.63258
1.59661
1.55428
1.50536
1.4503
1.3901
1.326
1.25925
1.19067
1.12045
1.04787
0.971274
0.888142
0.795313
0.689356
0.567011
0.425637
0.2636
0.0805257
-0.12259
-0.343448
-0.578649
-0.824011
-1.07492
-1.32665
-1.57463
-1.81449
-2.04214
-2.25357
-2.44471
-2.61133
-2.74904
-2.85355
-2.92114
-2.94926
-2.93707
-4.95696
-3.92697
-2.88563
-1.88089
-0.949235
-0.113996
0.61373
1.23272
1.74871
2.17164
2.51334
2.78597
3.00088
3.16813
3.29624
3.39223
3.46179
3.50948
3.53897
3.55315
3.55438
3.54448
3.52494
3.49693
3.46148
3.41955
3.37218
3.32053
3.26592
3.20983
3.15379
3.09927
3.04744
2.99905
2.9543
2.91277
2.87345
2.83489
2.79545
2.7536
2.70819
2.65876
2.6056
2.54981
2.49312
2.43761
2.3854
2.33819
2.297
2.26184
2.23168
2.2045
2.17752
2.14761
2.11178
2.06764
2.01378
1.94996
1.8771
1.797
1.71203
1.62451
1.53618
1.44772
1.35835
1.26576
1.16616
1.05467
0.92586
0.774538
0.596437
0.388862
0.15109
-0.115471
-0.407412
-0.719672
-1.04609
-1.37999
-1.71478
-2.04428
-2.3629
-2.66558
-2.94746
-3.20352
-3.42817
-3.6152
-3.75804
-3.85063
-3.88854
-3.87004
-6.24748
-4.84632
-3.44635
-2.1184
-0.912128
0.144965
1.04433
1.79123
2.39953
2.88729
3.27352
3.57617
3.81098
3.9911
4.12717
4.22753
4.29871
4.34579
4.37277
4.38283
4.37848
4.36168
4.33391
4.29632
4.24985
4.19539
4.13402
4.06707
3.99624
3.92356
3.85126
3.78155
3.71627
3.65664
3.60302
3.55477
3.51028
3.46719
3.42275
3.37431
3.3199
3.25863
3.19089
3.11838
3.04391
2.97091
2.90294
2.84293
2.79271
2.75252
2.7209
2.69476
2.66971
2.64074
2.60302
2.55273
2.4877
2.40768
2.31437
2.21102
2.10181
1.99101
1.88197
1.77636
1.67356
1.57042
1.46139
1.33901
1.19485
1.02069
0.809747
0.55767
0.263179
-0.0717431
-0.442051
-0.840248
-1.25731
-1.68374
-2.11047
-2.52953
-2.93421
-3.3189
-3.67848
-4.00749
-4.29916
-4.54493
-4.73483
-4.85882
-4.90898
-4.88184
-7.65798
-5.76386
-3.90326
-2.18055
-0.660066
0.631231
1.69469
2.54956
3.22418
3.74938
4.15432
4.46432
4.70007
4.8778
5.00978
5.10514
5.17061
5.21131
5.23123
5.23355
5.22082
5.19497
5.15734
5.10883
5.05002
4.98152
4.90422
4.81954
4.72956
4.63708
4.54535
4.45778
4.37729
4.30592
4.24434
4.19168
4.14544
4.1018
4.05612
4.00394
3.94183
3.86814
3.78336
3.69012
3.59288
3.49731
3.40932
3.3339
3.27427
3.23116
3.20255
3.18374
3.16784
3.14676
3.11263
3.05934
2.98347
2.88482
2.76636
2.63371
2.49416
2.35522
2.22306
2.10119
1.98948
1.88378
1.77604
1.65493
1.50726
1.32002
1.08248
0.787748
0.433675
0.0231216
-0.436351
-0.933488
-1.45488
-1.98687
-2.51706
-3.03535
-3.53418
-4.00823
-4.4534
-4.86511
-5.23612
-5.55501
-5.80643
-5.97322
-6.04067
-6.00165
-9.21327
-6.63307
-4.16151
-1.95141
-0.0779014
1.4457
2.64555
3.56765
4.26421
4.78489
5.1721
5.45964
5.673
5.83065
5.94542
6.02605
6.07848
6.10707
6.11533
6.10627
6.08238
6.04553
5.9968
5.93649
5.86449
5.78068
5.68541
5.57998
5.46685
5.34985
5.23384
5.12415
5.02556
4.94146
4.8732
4.8197
4.77724
4.73968
4.69924
4.64823
4.58079
4.494
4.3884
4.26795
4.1398
4.01317
3.89794
3.8025
3.7324
3.68925
3.67043
3.66888
3.67378
3.67187
3.65017
3.59878
3.51235
3.3908
3.23908
3.06666
2.8859
2.70993
2.54964
2.41168
2.29699
2.20037
2.11021
2.00934
1.87688
1.692
1.4378
1.10349
0.685719
0.188641
-0.376207
-0.991595
-1.637
-2.29239
-2.94061
-3.56902
-4.16964
-4.73897
-5.27635
-5.7812
-6.24797
-6.6621
-6.99977
-7.23057
-7.32555
-7.26995
-10.9302
-7.34583
-4.04327
-1.23762
1.008
2.72623
3.99623
4.91043
5.55747
6.01254
6.33337
6.56175
6.72615
6.84523
6.93022
6.98756
7.02067
7.0321
7.02438
7.00033
6.9626
6.9132
6.85291
6.78102
6.69598
6.59633
6.48126
6.35152
6.20975
6.06122
5.91324
5.77459
5.65299
5.55424
5.48082
5.43186
5.40203
5.38175
5.35765
5.3162
5.24767
5.147
5.01485
4.85694
4.68459
4.51269
4.3581
4.23466
4.15178
4.11239
4.11348
4.14479
4.1896
4.22553
4.23051
4.18873
4.09186
3.94027
3.74165
3.51168
3.27082
3.04214
2.84412
2.68871
2.57855
2.50771
2.45985
2.40929
2.32205
2.16386
1.90852
1.53949
1.05201
0.451802
-0.243229
-1.00641
-1.80467
-2.60817
-3.39258
-4.14262
-4.85007
-5.51562
-6.14606
-6.75202
-7.33554
-7.87917
-8.34692
-8.68338
-8.82717
-8.74696
-12.7898
-7.65286
-3.2096
0.282404
2.85296
4.65169
5.85869
6.6373
7.12655
7.43292
7.62717
7.75543
7.84397
7.90831
7.95423
7.98338
7.99345
7.98408
7.95633
7.91342
7.85898
7.79591
7.72505
7.64382
7.54787
7.43352
7.29757
7.13972
6.96174
6.77113
6.57854
6.39981
6.24687
6.12989
6.05258
6.01584
6.0124
6.0287
6.04039
6.02253
5.96021
5.84469
5.67779
5.4661
5.22815
4.98667
4.77281
4.60786
4.50799
4.47669
4.51247
4.60073
4.71766
4.82327
4.87765
4.85753
4.74969
4.55697
4.28891
3.9719
3.63774
3.32975
3.07681
2.90019
2.80311
2.78157
2.81301
2.86173
2.86903
2.77529
2.54264
2.14573
1.58032
0.851221
-0.0123841
-0.970974
-1.965
-2.95165
-3.89423
-4.77769
-5.59098
-6.34294
-7.05111
-7.75521
-8.48059
-9.20553
-9.88314
-10.4136
-10.6513
-10.529
-14.6292
-6.9613
-1.00643
3.12912
5.80907
7.42881
8.33741
8.78015
8.95819
9.01398
9.01518
9.0055
8.99582
8.99709
9.00158
9.0058
8.99339
8.96165
8.90923
8.84221
8.76691
8.68891
8.61123
8.52687
8.4253
8.3009
8.14448
7.95599
7.73097
7.48294
7.22296
6.98697
6.78803
6.64747
6.56497
6.55095
6.59343
6.68137
6.76476
6.79196
6.74848
6.61547
6.40432
6.1122
5.77591
5.42003
5.11625
4.88652
4.76462
4.74357
4.83512
5.01459
5.26124
5.49404
5.63129
5.65192
5.529
5.28145
4.90596
4.45612
3.96632
3.53745
3.19896
2.99653
2.91828
2.97856
3.14071
3.37327
3.56097
3.58624
3.41279
2.99414
2.34388
1.4439
0.354824
-0.884896
-2.13631
-3.35894
-4.48131
-5.51407
-6.42043
-7.23351
-7.96217
-8.72793
-9.62636
-10.6001
-11.6312
-12.5655
-12.994
-12.7809
-15.6873
-3.80325
3.81611
8.07181
10.2921
11.2304
11.4875
11.3047
10.9664
10.6742
10.4194
10.2561
10.1324
10.0818
10.0499
10.0528
10.0218
9.96962
9.8838
9.78358
9.67942
9.58216
9.50772
9.43546
9.33636
9.21511
9.03834
8.8256
8.53411
8.21275
7.8336
7.52156
7.2459
7.08226
6.97954
7.00548
7.1098
7.34136
7.57086
7.66395
7.66644
7.49956
7.24826
6.82271
6.35265
5.77916
5.35384
5.01068
4.8768
4.84905
5.03189
5.33245
5.82548
6.30307
6.55357
6.65371
6.48846
6.19085
5.63073
4.99857
4.2078
3.61566
3.12581
2.91466
2.83458
3.02941
3.36755
3.94995
4.48731
4.68385
4.63651
4.17654
3.46753
2.30934
0.93944
-0.7815
-2.34863
-3.91013
-5.19702
-6.43205
-7.38382
-8.2453
-8.81947
-9.50927
-10.6633
-11.9119
-13.5185
-15.4454
-16.2601
-15.8011
-12.4671
5.4961
13.4821
15.945
16.6209
16.0125
15.2706
14.0529
12.9082
12.2802
11.6916
11.4497
11.1637
11.1393
11.048
11.1484
11.0805
11.0259
10.879
10.7305
10.5818
10.4424
10.4009
10.3825
10.2792
10.2092
9.98384
9.80851
9.38014
9.02565
8.34748
8.00365
7.54235
7.42922
7.20874
7.34703
7.44283
8.00424
8.5733
8.6663
8.82823
8.5051
8.34305
7.59723
7.07826
5.92488
5.47304
4.83343
4.8361
4.65124
5.05908
5.3731
6.41193
7.43905
7.69232
8.03761
7.63847
7.47822
6.4592
5.76937
4.16324
3.54653
2.65135
2.64402
2.355
2.87388
3.24265
4.59148
5.90439
6.13265
6.45437
5.71753
5.23799
3.47964
2.02957
-0.899566
-2.56903
-4.85671
-5.98732
-7.75784
-8.47715
-9.6707
-9.51015
-9.622
-11.5638
-12.7083
-14.944
-19.927
-21.36
-20.1459
12.2797
29.1628
31.1015
26.3912
24.7985
20.9866
19.7384
16.6955
14.1052
13.8291
12.4641
12.7061
11.818
12.2926
11.7694
12.486
12.1193
12.2147
11.8758
11.677
11.4704
11.161
11.2603
11.4514
11.1735
11.4263
10.8568
11.1553
10.1192
10.3041
8.37936
8.65431
7.33688
7.93022
6.92076
7.74923
7.10482
8.65554
10.2607
9.56884
10.688
9.27814
10.2779
8.04457
8.71692
5.05986
5.86217
3.73079
5.06498
3.59947
5.22093
4.36959
7.01478
9.68891
8.69809
10.4931
8.44401
10.0018
6.8132
7.85926
2.69352
3.87802
0.898014
2.77869
0.711677
2.93421
1.70615
5.2844
8.88304
7.44657
9.79626
6.88768
8.84967
4.20572
5.2493
-2.83179
-1.89937
-7.46964
-5.85631
-10.5975
-8.88765
-13.0461
-9.80861
-7.09963
-13.6125
-11.9332
-12.4135
-29.5206
-30.2715
-26.8497
150.568
74.3486
58.2949
32.3479
36.1715
22.2688
26.7907
18.6863
11.9699
16.9463
10.9228
15.5898
10.5102
14.8828
10.7057
15.3836
12.4928
14.0292
12.6708
12.635
12.5073
11.2913
11.9877
13.196
11.3037
13.8277
10.4801
14.4239
9.10041
14.6206
5.24395
11.5983
4.38018
10.7395
3.98641
10.2727
3.60608
9.22871
15.2562
7.86378
16.1897
6.58161
16.8688
4.308
16.5902
-2.22634
10.4761
-2.36193
9.32574
-1.89725
8.94393
-1.66863
7.57621
17.2165
5.69254
18.4842
4.05595
19.3604
1.06955
18.8944
-7.92027
10.2067
-7.85441
8.59831
-7.10832
7.96366
-6.75122
5.94819
19.1124
3.30856
20.7102
1.04438
21.9741
-3.25806
21.6087
-17.7432
8.1344
-20.4267
3.42541
-22.7263
-0.84762
-27.0713
-9.34582
8.70234
-27.4576
-8.04825
14.0599
-62.6668
-45.1914
-38.0768
147.727
133.861
120.766
108.402
96.7196
85.6623
75.1695
65.1783
55.6251
46.4473
37.583
28.9722
20.5565
12.279
4.08387
-1.20046
-1.1571
-1.09648
-1.02219
-0.937967
-0.847333
-0.753313
-0.65829
-0.563971
-0.471436
-0.381223
-0.293435
-0.207842
-0.123973
-0.0411994
-2.02313
-1.94762
-1.84266
-1.71469
-1.5704
-1.41599
-1.25665
-1.09638
-0.93798
-0.783154
-0.632684
-0.486625
-0.34449
-0.205407
-0.06825
-2.8806
-2.76761
-2.61182
-2.42348
-2.21296
-1.98957
-1.7609
-1.53259
-1.30841
-1.09051
-0.879728
-0.675886
-0.478084
-0.284914
-0.0946427
-3.78945
-3.63036
-3.4135
-3.15443
-2.86837
-2.56841
-2.26477
-1.96465
-1.67255
-1.39075
-1.11982
-0.859101
-0.607041
-0.361518
-0.120049
-4.76941
-4.55085
-4.25735
-3.91236
-3.53764
-3.15091
-2.7651
-2.38867
-2.02637
-1.68009
-1.3497
-1.03365
-0.729453
-0.434067
-0.144082
-5.84522
-5.54622
-5.15263
-4.69997
-4.2189
-3.73246
-3.25602
-2.79855
-2.36414
-1.95353
-1.56523
-1.19632
-0.843054
-0.501208
-0.166295
-7.04928
-6.6361
-6.10691
-5.51594
-4.90547
-4.30395
-3.72795
-3.18532
-2.67809
-2.20466
-1.76135
-1.34333
-0.945227
-0.561413
-0.186184
-8.42571
-7.84188
-7.1229
-6.35132
-5.58304
-4.84988
-4.16648
-3.53668
-2.95821
-2.42565
-1.93215
-1.47042
-1.0331
-0.613028
-0.203209
-10.0354
-9.18276
-8.1914
-7.18335
-6.22542
-5.346
-4.55135
-3.83666
-3.19239
-2.60754
-2.07118
-1.57307
-1.10372
-0.654384
-0.216831
-11.9594
-10.6623
-9.27653
-7.9652
-6.78922
-5.75728
-4.85622
-4.0662
-3.36712
-2.7409
-2.17196
-1.64694
-1.15432
-0.683948
-0.226559
-14.2843
-12.2303
-10.2872
-8.61161
-7.20894
-6.03762
-5.04999
-4.20475
-3.46895
-2.81697
-2.22878
-1.68838
-1.18268
-0.700517
-0.232014
-17.0082
-13.6872
-11.0301
-8.98504
-7.39723
-6.13421
-5.10135
-4.2338
-3.48692
-2.82924
-2.23777
-1.69511
-1.18748
-0.703423
-0.232989
-19.6302
-14.4801
-11.1609
-8.90113
-7.26064
-6.00057
-4.98733
-4.14214
-3.41567
-2.77525
-2.19794
-1.66681
-1.16868
-0.692702
-0.229508
-19.5262
-13.4419
-10.2323
-8.19781
-6.74357
-5.62003
-4.70522
-3.9317
-3.25836
-2.65811
-2.11191
-1.6055
-1.1277
-0.669195
-0.221847
-1.49848
-4.52655
-7.65048
-10.9431
-14.4924
-18.4122
-22.8587
-28.06
-34.3703
-42.3814
-53.1681
-68.8963
-94.4922
-142.706
-250.583
-1.46435
-4.42143
-7.46572
-10.6627
-14.0902
-17.8463
-22.061
-26.9155
-32.6723
-39.7241
-48.6639
-60.3236
-75.405
-91.4966
-85.3674
-1.41052
-4.25573
-7.1749
-10.2222
-13.4598
-16.9618
-20.819
-25.1445
-30.0747
-35.7556
-42.2705
-49.3744
-55.6156
-55.7181
-34.4608
-1.33988
-4.03864
-6.79504
-9.64961
-12.6458
-15.8304
-19.2517
-22.9534
-26.9558
-31.2078
-35.4681
-39.0242
-40.0888
-34.7725
-16.6542
-1.25606
-3.78152
-6.34697
-8.97857
-11.701
-14.5346
-17.4897
-20.5534
-23.6633
-26.6542
-29.1545
-30.4043
-28.9932
-22.7167
-9.39642
-1.16295
-3.49662
-5.85293
-8.24444
-10.6788
-13.1545
-15.6522
-18.1212
-20.4535
-22.4409
-23.7093
-23.632
-21.2763
-15.5524
-5.93895
-1.06444
-3.19598
-5.33443
-7.4805
-9.62804
-11.7589
-13.8346
-15.784
-17.4829
-18.7271
-19.1983
-18.4417
-15.8986
-11.0891
-4.054
-0.964081
-2.89054
-4.81061
-6.71551
-8.5888
-10.4015
-12.1048
-13.6206
-14.8282
-15.5499
-15.5398
-14.4919
-12.0946
-8.17117
-2.91413
-0.864899
-2.58952
-4.2973
-5.97243
-7.59164
-9.11992
-10.5051
-11.6712
-12.511
-12.8809
-12.602
-11.4791
-9.35041
-6.17938
-2.17094
-0.769309
-2.30019
-3.80664
-5.26817
-6.6576
-7.93773
-9.05755
-9.94823
-10.5201
-10.6623
-10.2504
-9.16484
-7.33
-4.76911
-1.6593
-0.679086
-2.02782
-3.34717
-4.61395
-5.79942
-6.86684
-7.76908
-8.44668
-8.82736
-8.82869
-8.36638
-7.37087
-5.81377
-3.74001
-1.29265
-0.595415
-1.77584
-2.92419
-4.01617
-5.02318
-5.91062
-6.63658
-7.15129
-7.39806
-7.31698
-6.85264
-5.96688
-4.6563
-2.97035
-1.02179
-0.518968
-1.54613
-2.54033
-3.47739
-4.32997
-5.06652
-5.65076
-6.04193
-6.19639
-6.07141
-5.63151
-4.85788
-3.75948
-2.38305
-0.8169
-0.449996
-1.33931
-2.19614
-2.99727
-3.7173
-4.32816
-4.799
-5.09691
-5.18877
-5.04449
-4.64213
-3.97441
-3.05571
-1.92748
-0.65899
-0.388433
-1.15505
-1.89063
-2.57344
-3.18044
-3.68702
-4.06729
-4.29498
-4.34509
-4.19677
-3.83701
-3.2652
-2.49744
-1.56932
-0.535443
-0.333982
-0.992349
-1.62174
-2.20226
-2.7133
-3.13357
-3.44154
-3.61633
-3.63921
-3.49586
-3.17913
-2.69205
-2.05051
-1.28459
-0.437595
-0.286194
-0.849762
-1.38679
-1.87932
-2.30917
-2.65809
-2.90827
-3.04315
-3.04875
-2.91535
-2.63953
-2.22615
-1.68997
-1.05616
-0.359323
-0.244529
-0.725606
-1.18272
-1.5999
-1.96123
-2.25118
-2.45505
-2.55974
-2.5548
-2.43374
-2.19544
-1.84552
-1.3972
-0.871494
-0.296195
-0.208406
-0.618083
-1.0064
-1.35925
-1.66286
-1.90404
-2.0707
-2.15245
-2.14148
-2.03352
-1.82886
-1.5332
-1.15818
-0.721264
-0.244934
-0.177235
-0.525394
-0.85469
-1.1528
-1.40783
-1.60865
-1.7453
-1.80954
-1.7955
-1.70045
-1.52547
-1.276
-0.962132
-0.598401
-0.203075
-0.150446
-0.445803
-0.724639
-0.976249
-1.19044
-1.35782
-1.47018
-1.52097
-1.50577
-1.42289
-1.2738
-1.06351
-0.800709
-0.497475
-0.168732
-0.127502
-0.377682
-0.613492
-0.825685
-1.00555
-1.14518
-1.23782
-1.27822
-1.26305
-1.1913
-1.06461
-0.887495
-0.667357
-0.414263
-0.140445
-0.107905
-0.319539
-0.518744
-0.697569
-0.848594
-0.965175
-1.04173
-1.07405
-1.05961
-0.997854
-0.890437
-0.741351
-0.55689
-0.345441
-0.117069
-0.0912086
-0.270027
-0.438146
-0.588757
-0.715554
-0.812958
-0.876357
-0.902358
-0.889027
-0.836113
-0.745198
-0.619768
-0.465161
-0.288369
-0.0976975
-0.0770106
-0.227944
-0.369704
-0.496479
-0.602924
-0.684353
-0.736951
-0.757971
-0.745928
-0.700758
-0.623924
-0.518446
-0.388838
-0.240933
-0.0816059
-0.0649568
-0.19223
-0.311666
-0.418318
-0.507662
-0.575768
-0.619471
-0.636542
-0.625831
-0.58739
-0.522539
-0.433878
-0.325218
-0.20143
-0.0682112
-0.0547362
-0.161958
-0.262504
-0.352175
-0.427148
-0.484125
-0.520483
-0.534402
-0.524989
-0.492359
-0.437686
-0.363197
-0.272104
-0.168474
-0.0570411
-0.046078
-0.136321
-0.220894
-0.296238
-0.359128
-0.406801
-0.437075
-0.448464
-0.440267
-0.412633
-0.366593
-0.304045
-0.227693
-0.140937
-0.0477105
-0.0387478
-0.114622
-0.185692
-0.248948
-0.301675
-0.341556
-0.366779
-0.376125
-0.36904
-0.345688
-0.306963
-0.254478
-0.190508
-0.117891
-0.0399042
-0.0325434
-0.0962593
-0.155914
-0.20897
-0.253141
-0.28649
-0.307508
-0.315194
-0.30911
-0.289417
-0.256887
-0.212887
-0.159325
-0.0985747
-0.0333624
-0.0272909
-0.0807165
-0.130718
-0.175159
-0.212122
-0.239985
-0.257494
-0.263825
-0.258629
-0.242058
-0.214775
-0.177934
-0.133134
-0.0823564
-0.027871
-0.0228412
-0.0675512
-0.109382
-0.146542
-0.177422
-0.200669
-0.215241
-0.22046
-0.216045
-0.202138
-0.179301
-0.148507
-0.111094
-0.0687126
-0.023252
-0.0190665
-0.0563847
-0.0912909
-0.122284
-0.148022
-0.167377
-0.179484
-0.183784
-0.180053
-0.168417
-0.149353
-0.123676
-0.0925026
-0.0572071
-0.0193574
-0.0158577
-0.046893
-0.075916
-0.101676
-0.123055
-0.139117
-0.149146
-0.152684
-0.149549
-0.139853
-0.123997
-0.102661
-0.0767738
-0.0474752
-0.0160636
-0.0131209
-0.0387986
-0.0628069
-0.0841091
-0.10178
-0.115045
-0.123317
-0.126217
-0.123602
-0.115566
-0.102446
-0.0848059
-0.0634137
-0.0392105
-0.0132666
-0.0107759
-0.0318634
-0.0515768
-0.0690636
-0.0835636
-0.0944418
-0.101216
-0.10358
-0.101418
-0.0948097
-0.0840344
-0.069556
-0.0520056
-0.0321544
-0.0108788
-0.00875335
-0.0258821
-0.0418928
-0.056092
-0.067862
-0.0766875
-0.0821782
-0.0840866
-0.0823201
-0.0769468
-0.0681939
-0.056439
-0.042195
-0.0260872
-0.00882589
-0.00699319
-0.0206772
-0.0334667
-0.0448072
-0.054205
-0.0612488
-0.0656275
-0.0671445
-0.065727
-0.0614306
-0.0544377
-0.0450505
-0.0336786
-0.020821
-0.00704405
-0.00544298
-0.0160933
-0.0260467
-0.0348712
-0.0421825
-0.0476606
-0.0510639
-0.05224
-0.051133
-0.0477868
-0.0423439
-0.03504
-0.0261937
-0.0161931
-0.00547827
-0.00405638
-0.0119934
-0.0194106
-0.0259859
-0.0314328
-0.0355131
-0.0380468
-0.0389207
-0.0380937
-0.0355987
-0.0315424
-0.0261005
-0.0195104
-0.0120611
-0.00408034
-0.00279181
-0.0082544
-0.0133591
-0.017884
-0.0216321
-0.0244394
-0.0261821
-0.0267825
-0.0262125
-0.0244948
-0.0217031
-0.0179582
-0.0134236
-0.00829824
-0.00280731
-0.00161126
-0.00476394
-0.00771003
-0.0103215
-0.0124847
-0.0141049
-0.0151106
-0.0154571
-0.0151281
-0.0141367
-0.0125255
-0.0103642
-0.00774716
-0.00478914
-0.00162018
-0.000479219
-0.00141693
-0.00229333
-0.00307041
-0.00371435
-0.00419695
-0.00449691
-0.00460077
-0.00450355
-0.00420908
-0.00372987
-0.00308664
-0.00230747
-0.00142652
-0.000482612
0.000638432
0.00188751
0.0030544
0.00408826
0.00494398
0.00558413
0.00598062
0.00611595
0.00598399
0.00559028
0.00495185
0.00409649
0.00306157
0.00189237
0.000640153
0.00177538
0.005249
0.00849449
0.0113706
0.013752
0.0155344
0.0166395
0.0170182
0.0166532
0.0155595
0.0137842
0.0114043
0.00852382
0.0052689
0.00178242
0.00296589
0.00876888
0.014191
0.0189965
0.0229758
0.0259549
0.0278026
0.028437
0.0278285
0.0260021
0.0230362
0.0190597
0.014246
0.00880621
0.00297909
0.0042458
0.0125532
0.0203158
0.027196
0.0328942
0.0371609
0.0398083
0.0407186
0.0398493
0.0372358
0.03299
0.0272963
0.020403
0.0126124
0.00426676
0.00565363
0.0167158
0.0270531
0.0362164
0.0438064
0.0494912
0.0530201
0.0542358
0.0530812
0.0496028
0.0439493
0.0363657
0.0271831
0.0168041
0.00568485
0.00723162
0.0213817
0.0346055
0.046329
0.0560417
0.0633183
0.0678382
0.0693989
0.0679266
0.06348
0.0562486
0.0465454
0.0347939
0.0215096
0.00727686
0.00902705
0.0266908
0.0431997
0.0578379
0.0699682
0.0790596
0.0847107
0.0866679
0.0848373
0.0792908
0.0702641
0.0581473
0.0434691
0.0268736
0.00909173
0.0110935
0.0328017
0.0530928
0.0710881
0.0860048
0.0971897
0.104148
0.106567
0.104328
0.0975181
0.0864251
0.0715276
0.0534756
0.0330614
0.0111854
0.0134926
0.0398964
0.06458
0.0864759
0.104632
0.118254
0.126738
0.129699
0.126993
0.118719
0.105228
0.0870984
0.065122
0.0402643
0.0136227
0.0162953
0.0481855
0.0780029
0.10446
0.126409
0.142886
0.153162
0.156768
0.153522
0.143544
0.12725
0.10534
0.0787692
0.0487056
0.0164793
0.0195844
0.0579137
0.0937587
0.125575
0.151983
0.171825
0.184218
0.188593
0.184726
0.172754
0.153172
0.126819
0.0948415
0.0586486
0.0198443
0.0234563
0.0693669
0.112312
0.150446
0.182116
0.205936
0.22084
0.22614
0.221558
0.207248
0.183796
0.152202
0.113841
0.0704048
0.0238234
0.0280238
0.0828793
0.134205
0.179803
0.217701
0.246237
0.264131
0.270549
0.265145
0.24809
0.220072
0.182283
0.136365
0.0843448
0.0285422
0.0334189
0.0988424
0.160076
0.214507
0.259787
0.293927
0.315391
0.323167
0.316822
0.296542
0.263134
0.218008
0.163125
0.100911
0.0341508
0.0397962
0.117714
0.190671
0.255566
0.309606
0.350418
0.376155
0.385588
0.378176
0.35411
0.314332
0.260508
0.194975
0.120635
0.0408295
0.0473362
0.140031
0.226863
0.304162
0.36861
0.417375
0.448239
0.459706
0.451092
0.422588
0.375281
0.311139
0.232939
0.144155
0.048795
0.0562494
0.166418
0.269674
0.361681
0.438503
0.496763
0.533792
0.547766
0.537819
0.504121
0.447921
0.371531
0.278252
0.17224
0.0583091
0.066781
0.197603
0.320297
0.429744
0.521284
0.590891
0.635352
0.652437
0.641037
0.601278
0.534579
0.443649
0.332407
0.205824
0.0696889
0.0792149
0.234433
0.380116
0.510241
0.619295
0.702478
0.755922
0.776885
0.763945
0.71714
0.638062
0.529871
0.397213
0.246039
0.0833207
0.0938788
0.277883
0.450736
0.605369
0.735267
0.834715
0.899043
0.924874
0.910367
0.855411
0.76176
0.633081
0.474876
0.294271
0.0996761
0.111149
0.329076
0.534009
0.71767
0.872383
0.991338
1.06889
1.10087
1.08488
1.02055
0.909779
0.756793
0.568091
0.352216
0.119335
0.131452
0.389291
0.63205
0.850072
1.03433
1.17671
1.27039
1.31018
1.29294
1.21793
1.08711
0.905304
0.680174
0.421969
0.143014
0.155273
0.459978
0.747267
1.00592
1.22534
1.39589
1.5093
1.55909
1.54112
1.45407
1.29985
1.0839
0.815223
0.506129
0.171604
0.183151
0.542756
0.882367
1.18901
1.45029
1.65476
1.79237
1.85504
1.83727
1.73684
1.55544
1.29909
0.978337
0.607949
0.206222
0.215679
0.639416
1.04036
1.40359
1.71467
1.96004
2.12749
2.20685
2.19081
2.07584
1.86307
1.55902
1.17591
0.731528
0.248283
0.2535
0.751901
1.22454
1.65437
2.02469
2.31943
2.52377
2.62489
2.61304
2.48275
2.23409
1.87383
1.41604
0.882091
0.299593
0.29729
0.882274
1.43843
1.94649
2.38718
2.74159
2.99171
3.12137
3.11751
2.97184
2.68261
2.25635
1.70905
1.06636
0.362489
0.347744
1.03266
1.68573
2.28537
2.80957
3.23616
3.5433
3.71056
3.72045
3.5606
3.22627
2.72292
2.06828
1.29313
0.440037
0.405538
1.20515
1.97014
2.67662
3.29974
3.81366
4.19202
4.40901
4.44125
4.27053
3.88729
3.29454
2.5112
1.574
0.536324
0.471288
1.40169
2.29516
3.12575
3.86573
4.48528
4.95277
5.23573
5.30297
5.12801
4.6938
3.99848
3.06097
1.92464
0.656895
0.54549
1.62387
2.66383
3.63779
4.51532
5.26249
5.84165
6.21223
6.33287
6.16549
5.6816
4.87059
3.74879
2.36653
0.809436
0.62844
1.87272
3.07834
4.21677
5.25542
6.15634
6.87535
7.36227
7.56275
7.42275
6.89654
5.95851
4.61747
2.92983
1.00487
0.720142
2.1484
3.53949
4.86502
6.09115
7.17648
8.07019
8.7112
9.02903
8.94816
8.39745
7.32627
5.72682
3.65793
1.25919
0.820194
2.44988
4.04614
5.58227
7.02464
8.32965
9.44049
10.2845
10.7721
10.7998
10.2598
9.06084
7.16214
4.61508
1.59657
0.927675
2.77456
4.59455
6.3646
8.05349
9.61761
10.996
12.1052
12.8346
13.0457
12.5796
11.2813
9.04769
5.8996
2.05522
1.04103
3.1179
5.1776
7.20326
9.16895
11.0345
12.7385
14.1897
15.257
15.7617
15.4773
14.1513
11.5682
7.66764
2.69861
1.15799
3.47314
5.78429
8.08352
10.3539
12.5635
14.6565
16.5406
18.0701
19.0257
19.0981
17.8943
15.0037
10.1776
3.63935
1.27553
3.83115
6.39922
8.98377
11.581
14.1734
16.7194
19.1377
21.2817
22.9029
23.6052
22.8086
19.7832
13.8765
5.09429
1.38991
4.18048
7.00268
9.87515
12.8115
15.8155
18.871
21.9252
24.8563
27.4183
29.1529
29.2707
26.5634
19.5723
7.52584
1.4968
4.50782
7.57121
10.7221
13.9951
17.4216
21.0235
24.7982
28.687
32.5081
35.8233
37.6946
36.3185
28.7785
12.0443
1.5916
4.79877
8.07893
11.4842
15.0719
18.9058
23.0558
27.5919
32.5648
37.949
43.4962
48.3734
50.354
44.3693
21.6701
1.66974
5.03902
8.49971
12.1196
15.9778
20.1706
24.8198
30.0822
36.1567
43.2766
51.6342
61.0635
69.9205
71.5672
45.6299
1.72717
5.21577
8.80989
12.5895
16.6511
21.1182
26.1581
32.0084
39.0225
47.7445
59.0277
74.1508
94.4938
117.92
114.952
1.76082
5.31923
8.99117
12.8636
17.0429
21.6681
26.9333
33.1263
40.702
50.4338
63.7541
83.6128
116.925
182.603
341.869
1.76891
5.34382
9.03319
12.9246
17.1248
21.7734
27.0642
33.2839
40.8842
50.6306
63.9397
83.7316
116.88
182.293
341.432
1.75124
5.2889
8.93488
12.771
16.8954
21.4326
26.55
32.4827
39.5758
48.3531
59.623
74.5743
94.4301
116.893
112.95
1.70912
5.15873
8.70448
12.4173
16.3791
20.6888
25.4694
30.8756
37.0976
44.3445
52.7496
62.0107
70.1688
69.8305
38.6048
-12.3752
-10.0957
-8.38452
-7.05786
-5.98703
-5.09306
-4.32623
-3.65354
-3.05201
-2.50486
-1.99926
-1.52505
-1.07378
-0.638188
-0.211729
-4.64363
-6.44029
-6.36408
-5.81048
-5.15762
-4.51365
-3.90795
-3.34521
-2.82219
-2.33332
-1.87257
-1.43417
-1.01265
-0.602946
-0.200213
-2.1138
-4.0854
-4.67512
-4.63199
-4.32201
-3.90762
-3.45981
-3.00927
-2.56865
-2.14222
-1.73036
-1.33154
-0.943321
-0.562856
-0.187094
-1.15061
-2.69012
-3.42559
-3.63879
-3.55886
-3.32478
-3.01354
-2.66644
-2.30521
-1.941
-1.57908
-1.22154
-0.8686
-0.519497
-0.17288
-0.716378
-1.85319
-2.53875
-2.84911
-2.90274
-2.7955
-2.59215
-2.33338
-2.04385
-1.73816
-1.42476
-1.10832
-0.791211
-0.474407
-0.158069
-0.487661
-1.3296
-1.91243
-2.23769
-2.35833
-2.33293
-2.20923
-2.02168
-1.79368
-1.54067
-1.27254
-0.995564
-0.713604
-0.42899
-0.143119
-0.351567
-0.985949
-1.46497
-1.76837
-1.91531
-1.93862
-1.87065
-1.73804
-1.56089
-1.35365
-1.12646
-0.886263
-0.637834
-0.384443
-0.128421
-0.263216
-0.75018
-1.13945
-1.40767
-1.55815
-1.60768
-1.57694
-1.48532
-1.34897
-1.18049
-0.989389
-0.782674
-0.565505
-0.34172
-0.114294
-0.202272
-0.582248
-0.897986
-1.12875
-1.27106
-1.33247
-1.32549
-1.26365
-1.15934
-1.02303
-0.863157
-0.68634
-0.497765
-0.301525
-0.100972
-0.158386
-0.458922
-0.715529
-0.911228
-1.04016
-1.10474
-1.11214
-1.07147
-0.991937
-0.881939
-0.748681
-0.598168
-0.435345
-0.264322
-0.0886148
-0.125775
-0.366098
-0.575365
-0.740072
-0.853934
-0.916701
-0.932164
-0.906261
-0.84568
-0.756989
-0.646184
-0.518539
-0.378615
-0.23037
-0.0773143
-0.100958
-0.294838
-0.466141
-0.604218
-0.703187
-0.76151
-0.780907
-0.765129
-0.71894