/*--------------------------------*- C++ -*----------------------------------*\
| =========                 |                                                 |
| \\      /  F ield         | OpenFOAM: The Open Source CFD Toolbox           |
|  \\    /   O peration     | Version:  5.x                                   |
|   \\  /    A nd           | Web:      www.OpenFOAM.org                      |
|    \\/     M anipulation  |                                                 |
\*---------------------------------------------------------------------------*/
FoamFile
{
    version     2.0;
    format      ascii;
    class       volScalarField;
    location    "0.9";
    object      T;
}
// * * * * * * * * * * * * * * * * * * * * * * * * * * * * * * * * * * * * * //

dimensions      [0 0 0 1 0 0 0];

internalField   nonuniform List<scalar> 
2048
(
9.80148
9.80172
9.80217
9.80284
9.8037
9.80472
9.80589
9.80718
9.80856
9.81001
9.81151
9.81303
9.81457
9.81611
9.81764
9.81914
9.82062
9.82205
9.82345
9.8248
9.8261
9.82735
9.82855
9.82971
9.83081
9.83187
9.83288
9.83385
9.83477
9.83565
9.83648
9.83727
9.83801
9.8387
9.83936
9.83996
9.84052
9.84103
9.84149
9.8419
9.84225
9.84256
9.84281
9.84301
9.84314
9.84322
9.84324
9.8432
9.84309
9.84292
9.8427
9.84242
9.84208
9.84171
9.8413
9.84087
9.84044
9.84001
9.8396
9.83924
9.83892
9.83868
9.83851
9.83842
9.41294
9.41364
9.415
9.41699
9.41954
9.4226
9.42608
9.4299
9.434
9.4383
9.44274
9.44726
9.45183
9.45639
9.46091
9.46536
9.46972
9.47398
9.4781
9.48209
9.48594
9.48964
9.4932
9.49661
9.49988
9.50301
9.506
9.50886
9.51158
9.51417
9.51663
9.51895
9.52115
9.52321
9.52514
9.52692
9.52857
9.53008
9.53144
9.53265
9.53371
9.53461
9.53536
9.53594
9.53634
9.53658
9.53663
9.5365
9.53619
9.5357
9.53502
9.53419
9.5332
9.53208
9.53087
9.52959
9.52829
9.52701
9.5258
9.5247
9.52377
9.52303
9.52252
9.52226
9.04087
9.04202
9.04428
9.04758
9.05181
9.05686
9.06261
9.06892
9.07566
9.08273
9.09003
9.09746
9.10495
9.11243
9.11984
9.12713
9.13427
9.14122
9.14796
9.15448
9.16077
9.16682
9.17262
9.1782
9.18354
9.18865
9.19353
9.19819
9.20263
9.20686
9.21088
9.21467
9.21826
9.22162
9.22477
9.22769
9.23039
9.23285
9.23508
9.23706
9.23879
9.24027
9.24149
9.24244
9.24311
9.24349
9.24358
9.24338
9.24286
9.24205
9.24095
9.23957
9.23794
9.23609
9.23408
9.23196
9.22979
9.22766
9.22565
9.22383
9.22227
9.22104
9.22019
9.21975
8.68429
8.6859
8.68906
8.69368
8.6996
8.70665
8.71465
8.72342
8.73278
8.74257
8.75266
8.76293
8.77326
8.78356
8.79377
8.8038
8.81362
8.82317
8.83243
8.84137
8.84999
8.85828
8.86624
8.87388
8.88119
8.88819
8.89488
8.90127
8.90736
8.91315
8.91865
8.92386
8.92878
8.9334
8.93771
8.94173
8.94542
8.9488
8.95186
8.95458
8.95696
8.959
8.96068
8.96199
8.96292
8.96345
8.96358
8.9633
8.9626
8.96148
8.95995
8.95803
8.95576
8.95318
8.95037
8.94739
8.94435
8.94136
8.93852
8.93595
8.93375
8.93201
8.93081
8.9302
8.34228
8.34437
8.34847
8.35444
8.36208
8.37116
8.38143
8.39266
8.40462
8.41711
8.42995
8.44298
8.45609
8.46915
8.48207
8.49476
8.50716
8.51922
8.5309
8.54217
8.55303
8.56346
8.57348
8.58309
8.59229
8.60109
8.60951
8.61754
8.6252
8.63249
8.63942
8.64597
8.65216
8.65798
8.66342
8.66848
8.67314
8.67741
8.68126
8.6847
8.68771
8.69028
8.69241
8.69407
8.69525
8.69594
8.69611
8.69576
8.69488
8.69346
8.69151
8.68906
8.68615
8.68283
8.67919
8.67534
8.6714
8.6675
8.66381
8.66045
8.65759
8.65532
8.65376
8.65296
8.01402
8.01661
8.02169
8.02907
8.03849
8.04965
8.06224
8.07595
8.09051
8.10568
8.12123
8.137
8.15283
8.16858
8.18414
8.19941
8.21432
8.2288
8.24281
8.25631
8.26931
8.28179
8.29377
8.30526
8.31626
8.32678
8.33685
8.34645
8.35561
8.36434
8.37262
8.38047
8.38788
8.39485
8.40137
8.40744
8.41303
8.41814
8.42276
8.42689
8.4305
8.4336
8.43616
8.43817
8.43961
8.44045
8.44068
8.44027
8.43921
8.4375
8.43514
8.43215
8.42859
8.42452
8.42004
8.41528
8.41039
8.40555
8.40095
8.39677
8.39319
8.39036
8.38841
8.38741
7.69875
7.70188
7.708
7.71686
7.72814
7.74146
7.75641
7.77265
7.78983
7.80767
7.82592
7.84438
7.86288
7.88126
7.8994
7.91719
7.93452
7.95134
7.96758
7.98323
7.99828
8.01272
8.02657
8.03985
8.05256
8.06473
8.07637
8.08748
8.09807
8.10816
8.11774
8.12683
8.13542
8.14349
8.15105
8.15808
8.16457
8.1705
8.17586
8.18065
8.18485
8.18846
8.19145
8.1938
8.19549
8.1965
8.19678
8.19633
8.19511
8.19311
8.19035
8.18683
8.18261
8.17776
8.17241
8.16669
8.16081
8.15497
8.1494
8.14434
8.14
8.13657
8.1342
8.133
7.39577
7.39947
7.4067
7.41715
7.43039
7.44595
7.46335
7.48216
7.50199
7.52249
7.54342
7.56454
7.58567
7.60664
7.6273
7.64753
7.66722
7.6863
7.7047
7.7224
7.73941
7.75572
7.77135
7.78633
7.80069
7.81442
7.82755
7.84009
7.85205
7.86344
7.87427
7.88455
7.89426
7.9034
7.91196
7.91992
7.92727
7.93398
7.94006
7.9455
7.95027
7.95437
7.95778
7.96047
7.96242
7.96359
7.96395
7.96346
7.96209
7.95983
7.95666
7.95261
7.94772
7.94208
7.93582
7.92911
7.92217
7.91526
7.90865
7.90264
7.89749
7.89341
7.8906
7.88916
7.1044
7.10873
7.11716
7.12931
7.14463
7.16255
7.18249
7.20394
7.22643
7.24962
7.2732
7.29695
7.32066
7.34417
7.3673
7.38991
7.41189
7.43315
7.45363
7.47331
7.49218
7.51026
7.5276
7.5442
7.56011
7.57534
7.5899
7.60381
7.61707
7.62971
7.64172
7.65313
7.66393
7.67409
7.68362
7.69248
7.70065
7.70813
7.7149
7.72095
7.72627
7.73085
7.73467
7.73771
7.73992
7.74127
7.74171
7.7412
7.7397
7.73718
7.73362
7.72904
7.72348
7.71703
7.70982
7.70205
7.69399
7.68594
7.67822
7.67118
7.66515
7.66038
7.65709
7.65541
6.82403
6.82904
6.83879
6.85277
6.87033
6.89074
6.91332
6.93746
6.96266
6.98852
7.01474
7.04108
7.06734
7.09333
7.11888
7.14383
7.16804
7.19141
7.21389
7.23544
7.25609
7.27586
7.29481
7.31296
7.33036
7.347
7.36293
7.37813
7.39264
7.40646
7.41962
7.43211
7.44395
7.4551
7.46555
7.47528
7.48426
7.49247
7.4999
7.50655
7.5124
7.51745
7.52168
7.52506
7.52754
7.52907
7.52962
7.5291
7.52749
7.52473
7.5208
7.51569
7.50945
7.50216
7.49397
7.4851
7.47584
7.46655
7.45763
7.44949
7.4425
7.43698
7.43318
7.43124
6.55407
6.55984
6.57104
6.58702
6.60697
6.63002
6.65534
6.68225
6.71018
6.73871
6.76755
6.79645
6.82521
6.85364
6.88156
6.90879
6.93517
6.96058
6.98498
7.00833
7.03066
7.05204
7.07251
7.09213
7.11094
7.12894
7.14616
7.16261
7.17829
7.19325
7.20749
7.22103
7.23386
7.24597
7.25733
7.26789
7.27764
7.28656
7.29463
7.30185
7.30821
7.31372
7.31835
7.32207
7.32483
7.32656
7.32722
7.32673
7.32502
7.32204
7.31775
7.31213
7.30521
7.29707
7.28785
7.27782
7.26728
7.25667
7.24645
7.2371
7.22909
7.22277
7.21842
7.21621
6.29396
6.30058
6.31338
6.33155
6.35408
6.37993
6.40812
6.43786
6.46854
6.49974
6.53115
6.56256
6.59378
6.62462
6.65487
6.68433
6.71282
6.74021
6.76644
6.7915
6.81543
6.83832
6.86024
6.88125
6.9014
6.9207
6.93916
6.95678
6.97359
6.98962
7.0049
7.01944
7.03324
7.04627
7.0585
7.06988
7.08037
7.08997
7.09865
7.10642
7.11328
7.11924
7.12426
7.12832
7.13136
7.13331
7.13411
7.13365
7.13188
7.12871
7.12408
7.11796
7.11036
7.10135
7.09108
7.07981
7.06792
7.05588
7.04425
7.03361
7.02448
7.01731
7.01238
7.00988
6.04319
6.05076
6.06533
6.08591
6.11124
6.14006
6.17124
6.20388
6.23732
6.27115
6.3051
6.33897
6.3726
6.4058
6.43834
6.46999
6.50054
6.52985
6.55784
6.58452
6.60996
6.63426
6.65755
6.67988
6.70131
6.72185
6.74149
6.76023
6.77811
6.79515
6.81142
6.82692
6.84165
6.85557
6.86865
6.88082
6.89204
6.90229
6.91155
6.91985
6.92719
6.93357
6.93899
6.94339
6.94673
6.94891
6.94986
6.94947
6.94765
6.94431
6.93937
6.93278
6.92451
6.91462
6.90326
6.8907
6.87736
6.86379
6.85064
6.83858
6.82826
6.82018
6.81465
6.81185
5.80126
5.80989
5.82644
5.84966
5.87803
5.91002
5.94431
5.9799
6.01611
6.05254
6.08895
6.12524
6.16123
6.19674
6.23154
6.26534
6.29791
6.32907
6.35874
6.38695
6.4138
6.43943
6.464
6.48759
6.51024
6.53196
6.55273
6.57254
6.59142
6.60943
6.62664
6.64305
6.65868
6.67349
6.68739
6.70033
6.71225
6.72312
6.73294
6.74174
6.74953
6.75634
6.76214
6.76689
6.77053
6.77296
6.77408
6.77378
6.77195
6.76848
6.76326
6.75621
6.74728
6.73651
6.72403
6.71012
6.69525
6.68003
6.66522
6.65164
6.64004
6.63099
6.62483
6.62173
5.56767
5.5775
5.59627
5.62243
5.6541
5.68945
5.72697
5.76557
5.80453
5.84349
5.88231
5.92093
5.95923
5.99702
6.03405
6.06998
6.10452
6.13746
6.16874
6.19838
6.22654
6.25342
6.27918
6.30396
6.32778
6.35064
6.37249
6.39332
6.41315
6.43207
6.45016
6.46746
6.48396
6.49962
6.51433
6.52802
6.54062
6.55209
6.56244
6.57171
6.57994
6.58714
6.59332
6.59843
6.60238
6.60507
6.60639
6.6062
6.60439
6.60082
6.59535
6.58788
6.57832
6.56667
6.55305
6.53773
6.52123
6.50424
6.48764
6.47241
6.45944
6.44938
6.44257
6.43916
5.34198
5.35317
5.37443
5.40383
5.43909
5.47801
5.51889
5.56053
5.6022
5.64362
5.68476
5.72564
5.76619
5.80623
5.84546
5.8835
5.91997
5.95464
5.98745
6.01843
6.04779
6.07581
6.1027
6.1286
6.15354
6.1775
6.2004
6.22219
6.24291
6.26268
6.28161
6.29976
6.31711
6.3336
6.34911
6.36353
6.37678
6.38883
6.39968
6.40939
6.41802
6.42562
6.43218
6.43764
6.44192
6.44489
6.44642
6.44638
6.44461
6.44097
6.4353
6.42745
6.41729
6.40477
6.38998
6.3732
6.35497
6.33609
6.31755
6.30052
6.28608
6.27498
6.26753
6.26381
5.12374
5.13648
5.16052
5.19353
5.23269
5.2754
5.31975
5.36446
5.40879
5.45256
5.4959
5.53897
5.58172
5.62396
5.66539
5.70552
5.74388
5.78024
5.81449
5.8467
5.87717
5.90622
5.93417
5.96113
5.98715
6.01218
6.03609
6.05878
6.08033
6.10089
6.12062
6.13958
6.15775
6.17507
6.19138
6.20652
6.2204
6.23299
6.24431
6.25443
6.26345
6.27142
6.27835
6.28417
6.28878
6.29206
6.29383
6.29395
6.29226
6.28859
6.28276
6.27457
6.26384
6.25048
6.23452
6.21622
6.19617
6.17526
6.15461
6.13562
6.11963
6.10746
6.09937
6.09537
4.91254
4.92703
4.95421
4.99122
5.03463
5.08133
5.12926
5.17705
5.22394
5.26994
5.31537
5.36053
5.40542
5.44983
5.49346
5.53568
5.57591
5.61388
5.6495
5.68285
5.71429
5.74428
5.77321
5.80119
5.82825
5.85433
5.87922
5.90277
5.92508
5.94636
5.96684
5.98658
6.00556
6.0237
6.0408
6.05664
6.07113
6.08424
6.09599
6.10649
6.11586
6.1242
6.13149
6.13767
6.14264
6.14623
6.14826
6.14857
6.14699
6.14334
6.13739
6.12891
6.11765
6.10348
6.08635
6.06649
6.04452
6.02144
5.99851
5.97738
5.95974
5.94649
5.9378
5.93354
4.70795
4.72446
4.75513
4.79661
4.84464
4.89552
4.94712
4.99799
5.04735
5.09542
5.14278
5.18996
5.23692
5.28346
5.3293
5.37364
5.4157
5.45523
5.49215
5.52651
5.55881
5.58963
5.61947
5.64842
5.67649
5.70361
5.72947
5.75383
5.77682
5.79876
5.81994
5.84043
5.86019
5.87916
5.89705
5.91358
5.92867
5.94227
5.95442
5.96525
5.97494
5.98363
5.99129
5.99783
6.00317
6.0071
6.00941
6.00993
6.00848
6.00488
5.99887
5.99015
5.97843
5.96348
5.9452
5.92372
5.89974
5.87437
5.84894
5.82547
5.80608
5.79177
5.78254
5.77805
4.50958
4.52841
4.56298
4.60942
4.66248
4.71773
4.77308
4.82702
4.8787
4.92865
4.97777
5.02688
5.07587
5.12449
5.17258
5.21907
5.26292
5.30397
5.34211
5.37737
5.41039
5.44192
5.47261
5.5025
5.53153
5.5597
5.58654
5.61163
5.63523
5.65775
5.6796
5.70081
5.72133
5.74113
5.75984
5.77704
5.7927
5.80678
5.81927
5.83039
5.84038
5.8494
5.85742
5.86434
5.87006
5.87435
5.87695
5.8777
5.87642
5.87291
5.86688
5.85799
5.84585
5.83019
5.81078
5.78764
5.76155
5.73377
5.70562
5.67955
5.65835
5.64302
5.63331
5.62866
4.31704
4.33855
4.37745
4.42942
4.48797
4.5477
4.60686
4.66387
4.71769
4.76931
4.81999
4.87096
4.92192
4.97256
5.02296
5.07167
5.11724
5.15976
5.19908
5.23509
5.26868
5.30081
5.3323
5.36309
5.39305
5.4223
5.45013
5.4759
5.50001
5.52302
5.54551
5.56742
5.58867
5.60933
5.62887
5.64672
5.66294
5.67747
5.69026
5.70163
5.71187
5.72122
5.7296
5.73688
5.74301
5.74768
5.75059
5.75158
5.7505
5.74712
5.74113
5.73212
5.71964
5.70332
5.68283
5.65798
5.6297
5.5994
5.56829
5.53932
5.51621
5.49995
5.48989
5.48512
4.12994
4.15459
4.19822
4.25638
4.32093
4.38519
4.44821
4.50831
4.56403
4.61707
4.66908
4.72186
4.77476
4.82731
4.88013
4.93116
4.97837
5.02232
5.06277
5.09937
5.13339
5.16596
5.19824
5.22991
5.26075
5.29112
5.31998
5.34635
5.37087
5.39427
5.41738
5.43997
5.46191
5.48347
5.50388
5.52235
5.5391
5.55407
5.56712
5.57868
5.58913
5.59881
5.60755
5.61519
5.62174
5.62683
5.63004
5.6313
5.63043
5.62722
5.62132
5.61228
5.59951
5.58261
5.56111
5.5345
5.50392
5.47105
5.4367
5.40445
5.37938
5.36232
5.35203
5.34724
3.94792
3.97628
4.025
4.09011
4.16123
4.22995
4.29687
4.3601
4.41743
4.47163
4.52467
4.57927
4.63408
4.68839
4.74377
4.79728
4.846
4.89133
4.93292
4.96993
5.00421
5.03706
5.07012
5.10267
5.13429
5.16588
5.19585
5.22271
5.24754
5.27121
5.29493
5.31819
5.34075
5.36327
5.38462
5.40365
5.42093
5.43634
5.44957
5.46127
5.47187
5.48188
5.491
5.49897
5.50599
5.51151
5.51504
5.51657
5.51594
5.51292
5.50717
5.49817
5.48517
5.46778
5.44538
5.41696
5.38396
5.34854
5.31063
5.27459
5.24755
5.22988
5.21954
5.21481
3.77058
3.80341
3.85746
3.93041
4.0088
4.08171
4.15257
4.21906
4.2776
4.33268
4.38639
4.4429
4.49962
4.55542
4.6136
4.66981
4.7198
4.76651
4.80928
4.84647
4.88085
4.91378
4.94768
4.98111
5.01338
5.04632
5.07752
5.10472
5.12974
5.15353
5.1779
5.20184
5.22491
5.24849
5.27085
5.29036
5.30816
5.32402
5.33735
5.34914
5.35982
5.3702
5.37969
5.38797
5.39549
5.4015
5.40532
5.40712
5.40675
5.40397
5.39841
5.38953
5.37638
5.35859
5.33544
5.30511
5.26956
5.23169
5.18989
5.1494
5.12043
5.10241
5.09222
5.08765
3.59753
3.63586
3.69526
3.77712
3.86362
3.94018
4.01505
4.08503
4.14426
4.19996
4.25388
4.31247
4.37114
4.42801
4.48933
4.54859
4.59949
4.64757
4.69165
4.72871
4.76305
4.79579
4.83065
4.865
4.89769
4.93218
4.9648
4.99214
5.01724
5.04095
5.06605
5.09068
5.1141
5.13886
5.16238
5.18222
5.20054
5.2169
5.23022
5.24204
5.25273
5.26351
5.2734
5.28193
5.29
5.29654
5.30064
5.30272
5.30261
5.30009
5.29479
5.28612
5.27285
5.25475
5.23108
5.19872
5.16043
5.1204
5.07432
5.02849
4.99774
4.97971
4.96991
4.9656
3.42834
3.47361
3.53797
3.6301
3.72574
3.80499
3.88403
3.95791
4.0171
4.07322
4.12671
4.18774
4.24846
4.30576
4.37071
4.43348
4.4847
4.53422
4.57984
4.61637
4.65056
4.68276
4.7188
4.75413
4.7869
4.82322
4.85752
4.8847
4.9098
4.93317
4.95914
4.98451
5.00802
5.03416
5.05903
5.07897
5.09782
5.11478
5.12794
5.13976
5.15033
5.16159
5.17191
5.18058
5.18929
5.19644
5.20074
5.20311
5.20328
5.20105
5.19604
5.1877
5.17434
5.15602
5.13216
5.09758
5.05626
5.01457
4.9638
4.91143
4.87921
4.86161
4.85244
4.84849
3.26255
3.31677
3.38512
3.48919
3.59535
3.67574
3.75919
3.83764
3.89577
3.95225
4.00443
4.06849
4.13145
4.18817
4.25746
4.32442
4.3751
4.42619
4.47373
4.50916
4.54318
4.57434
4.61191
4.64835
4.68065
4.71921
4.75558
4.78216
4.80722
4.82988
4.85698
4.88315
4.90636
4.93417
4.96064
4.98035
4.99979
5.01747
5.03026
5.04208
5.05236
5.06422
5.07502
5.08368
5.09314
5.10098
5.1054
5.10807
5.10853
5.1066
5.10192
5.09405
5.08059
5.06212
5.03853
5.00149
4.95671
4.91421
4.85827
4.79774
4.76459
4.74795
4.73966
4.73617
3.09963
3.16564
3.23606
3.35428
3.47275
3.5519
3.64021
3.72429
3.77989
3.83693
3.88655
3.95455
4.02006
4.07472
4.14936
4.22146
4.27026
4.32317
4.37325
4.40676
4.44072
4.47016
4.50979
4.54753
4.57854
4.61994
4.65889
4.68423
4.70934
4.73076
4.75937
4.78648
4.80878
4.83866
4.86711
4.88608
4.90619
4.92482
4.93695
4.9488
4.95856
4.97121
4.98256
4.99097
5.00134
5.00998
5.01439
5.01739
5.01813
5.01652
5.0122
5.00497
4.99137
4.97276
4.95009
4.91024
4.86134
4.81933
4.75776
4.68682
4.65367
4.63861
4.63145
4.6285
2.93895
3.0208
3.08998
3.22525
3.35842
3.4328
3.52676
3.61799
3.66896
3.72719
3.77247
3.84579
3.91435
3.96476
4.04618
4.12472
4.16971
4.22486
4.27839
4.30881
4.34309
4.36978
4.41229
4.45163
4.48014
4.52519
4.56745
4.59061
4.61601
4.63546
4.66614
4.6944
4.71491
4.74745
4.77838
4.79586
4.81681
4.83672
4.84775
4.85977
4.86866
4.88238
4.89436
4.90219
4.9137
4.92329
4.92748
4.93085
4.93188
4.93059
4.92663
4.92026
4.90643
4.88762
4.86681
4.82367
4.76965
4.73008
4.66234
4.57798
4.54628
4.53348
4.52769
4.52534
2.77977
2.88314
2.94583
3.102
3.25306
3.31758
3.41845
3.51907
3.5624
3.62314
3.66148
3.7421
3.81449
3.85751
3.94772
4.03449
4.07287
4.13097
4.18925
4.21488
4.25024
4.27273
4.31926
4.36066
4.38493
4.43478
4.48131
4.50094
4.52718
4.54357
4.57717
4.60688
4.62435
4.66035
4.69446
4.70935
4.73142
4.75309
4.76239
4.77486
4.78238
4.79756
4.81032
4.81705
4.83004
4.84078
4.84444
4.84827
4.84956
4.84862
4.84498
4.83979
4.82557
4.80636
4.7887
4.74163
4.68101
4.64664
4.57225
4.47035
4.44233
4.43249
4.42825
4.42655
2.62116
2.75403
2.80221
2.98446
3.15766
3.20516
3.31489
3.42802
3.45943
3.52502
3.55274
3.64346
3.72081
3.75203
3.85377
3.9512
3.97904
4.04118
4.10603
4.12446
4.16226
4.17843
4.23063
4.27473
4.29231
4.34854
4.4006
4.41479
4.44284
4.45464
4.49233
4.52396
4.53661
4.57718
4.6154
4.6262
4.6498
4.67388
4.68059
4.69398
4.69941
4.71662
4.73034
4.73525
4.75019
4.76232
4.76504
4.76946
4.771
4.77041
4.76701
4.7634
4.74856
4.72857
4.71584
4.66404
4.59464
4.56935
4.48781
4.36289
4.34182
4.33559
4.33301
4.332
2.46198
2.63535
2.65729
2.87258
3.07355
3.09413
3.21568
3.34557
3.35903
3.43334
3.44519
3.54989
3.63385
3.64719
3.76418
3.87549
3.88739
3.95517
4.02907
4.03691
4.07935
4.08623
4.14634
4.19406
4.20156
4.26631
4.32557
4.33163
4.36312
4.36815
4.41155
4.44574
4.45114
4.4978
4.54136
4.54597
4.57173
4.59914
4.60199
4.61709
4.61942
4.63942
4.65437
4.65648
4.674
4.68784
4.68903
4.69429
4.69601
4.6958
4.69248
4.691
4.67523
4.65378
4.6484
4.59085
4.50957
4.49863
4.40953
4.25426
4.24489
4.24274
4.24188
4.24154
)
;

boundaryField
{
    left
    {
        type            zeroGradient;
    }
    right
    {
        type            zeroGradient;
    }
    interface
    {
        type            fixedValue;
        value           nonuniform List<scalar> 
64
(
2.3796
2.58136
2.58136
2.81829
3.03722
3.03722
3.16699
3.30838
3.30838
3.39021
3.39021
3.50474
3.59325
3.59325
3.72059
3.84118
3.84118
3.91304
3.99329
3.99329
4.03986
4.03986
4.10557
4.15581
4.15581
4.22639
4.29045
4.29045
4.32501
4.32501
4.37248
4.40845
4.40845
4.45927
4.50641
4.50641
4.53374
4.56348
4.56348
4.58009
4.58009
4.60207
4.61783
4.61783
4.63712
4.65205
4.65205
4.65792
4.65971
4.65971
4.6563
4.6563
4.63984
4.61712
4.61712
4.55604
4.46647
4.46647
4.37337
4.19768
4.19768
4.19768
4.19768
4.19768
)
;
    }
    bottom
    {
        type            fixedValue;
        value           uniform 10;
    }
    defaultFaces
    {
        type            empty;
    }
}


// ************************************************************************* //
