/*--------------------------------*- C++ -*----------------------------------*\
| =========                 |                                                 |
| \\      /  F ield         | OpenFOAM: The Open Source CFD Toolbox           |
|  \\    /   O peration     | Version:  5.x                                   |
|   \\  /    A nd           | Web:      www.OpenFOAM.org                      |
|    \\/     M anipulation  |                                                 |
\*---------------------------------------------------------------------------*/
FoamFile
{
    version     2.0;
    format      ascii;
    class       volScalarField;
    location    "0.4";
    object      gradTy;
}
// * * * * * * * * * * * * * * * * * * * * * * * * * * * * * * * * * * * * * //

dimensions      [0 -1 0 1 0 0 0];

internalField   nonuniform List<scalar> 
3200
(
7.47412
-5.68556
-0.069784
-1.31527
-0.115134
-0.219961
-0.0216308
-0.0344051
0.000325089
-0.00536194
-0.00544576
-0.00126664
-0.00174249
-0.00662236
0.00216484
-0.016543
0.00902404
-0.0331119
0.0208563
-0.059562
0.0404107
-0.0999593
0.0713199
-0.158892
0.117991
-0.240813
0.185196
-0.3489
0.277127
-0.483833
0.396229
-0.642613
0.541845
-0.818048
0.709201
-0.999485
0.889363
-1.17493
1.07063
-1.33405
1.24124
-1.47076
1.3924
-1.58431
1.52016
-1.6787
1.62179
-1.77445
1.6309
-2.18272
-0.0819521
2.19877
-1.85985
1.92708
-2.0007
1.96743
-2.0945
2.04404
-2.20374
2.14791
-2.30468
2.26141
-2.36003
2.34817
-2.34755
2.375
-2.27511
2.33352
-2.17565
2.2434
-2.09486
2.14364
-2.07995
2.0932
-2.14676
2.7999
0.562569
0.132711
0.0343624
0.0119885
5.34669
-3.78278
-0.259113
-0.949329
-0.131905
-0.163124
-0.0239323
-0.0255609
-0.00113418
-0.00404332
-0.0040835
-0.00115204
-0.0014967
-0.0047147
0.000805282
-0.0114421
0.00484987
-0.0226549
0.0119115
-0.0405027
0.0237167
-0.0676773
0.0425782
-0.107189
0.0713481
-0.161912
0.113183
-0.233822
0.170947
-0.323186
0.246454
-0.427808
0.339563
-0.542739
0.447441
-0.660831
0.564445
-0.774209
0.682957
-0.87626
0.795109
-0.963329
0.894859
-1.03528
0.979276
-1.09523
1.04544
-1.16073
1.03309
-1.49682
-0.0574623
1.49698
-1.18992
1.2511
-1.30034
1.27159
-1.3636
1.31969
-1.43559
1.38701
-1.50044
1.46289
-1.53336
1.52337
-1.52077
1.54525
-1.46963
1.52125
-1.40305
1.46282
-1.3517
1.39482
-1.34589
1.35884
-1.36727
1.93948
0.489901
0.119101
0.0309897
0.0107949
3.58442
-2.38613
-0.279896
-0.643702
-0.114734
-0.113105
-0.0206017
-0.0177591
-0.00150007
-0.00283958
-0.00284047
-0.000907149
-0.00113731
-0.00315869
0.000153283
-0.00748714
0.00242138
-0.014689
0.00643479
-0.0261233
0.0132285
-0.0434853
0.0242073
-0.068655
0.0411307
-0.103402
0.0659857
-0.148896
0.100626
-0.205202
0.146306
-0.270817
0.2031
-0.342517
0.26941
-0.415749
0.341835
-0.485589
0.415645
-0.548005
0.485847
-0.6009
0.548504
-0.644401
0.60159
-0.680732
0.642593
-0.723393
0.623848
-0.970076
-0.0379631
0.964454
-0.725499
0.774421
-0.805318
0.783631
-0.845872
0.812438
-0.891016
0.854027
-0.930722
0.902249
-0.94934
0.942054
-0.938961
0.95817
-0.904958
0.945012
-0.862623
0.908921
-0.831503
0.864987
-0.830133
0.841278
-0.829498
1.26894
0.373728
0.0938454
0.0245806
0.00853679
2.06097
-1.31256
-0.201884
-0.37379
-0.0764718
-0.0667225
-0.0136852
-0.0104941
-0.00116207
-0.00168951
-0.00167518
-0.000576467
-0.000707536
-0.00181798
-6.35199e-05
-0.00423828
0.00106799
-0.00826017
0.00309523
-0.0146336
0.00656587
-0.0242912
0.0122313
-0.0382609
0.0210446
-0.0574991
0.0340984
-0.0826178
0.0524339
-0.11361
0.0767877
-0.149598
0.10727
-0.188764
0.143078
-0.228579
0.182404
-0.26635
0.222676
-0.299916
0.261128
-0.328208
0.29554
-0.351384
0.32472
-0.370784
0.346988
-0.394911
0.331919
-0.544705
-0.0216107
0.539288
-0.389012
0.420584
-0.437396
0.424047
-0.460022
0.439278
-0.484778
0.461828
-0.506144
0.488543
-0.515495
0.511168
-0.508756
0.521015
-0.489295
0.514596
-0.465837
0.49503
-0.449236
0.470391
-0.449437
0.457025
-0.442847
0.717814
0.232638
0.0598762
0.0157713
0.00544566
0.672448
-0.418364
-0.0725729
-0.12265
-0.0267084
-0.0220723
-0.00477525
-0.00347488
-0.000429709
-0.000561211
-0.000553532
-0.000197133
-0.000239495
-0.000593255
-4.51816e-05
-0.00137151
0.00029606
-0.00266394
0.000912079
-0.00470998
0.00197386
-0.00780706
0.00371744
-0.0122817
0.00644417
-0.018436
0.0105025
-0.0264597
0.0162281
-0.0363432
0.0238638
-0.047798
0.0334562
-0.0602368
0.0447626
-0.0728498
0.0572172
-0.0847808
0.0700043
-0.0953504
0.082239
-0.104232
0.0932039
-0.111493
0.102505
-0.117579
0.109555
-0.125394
0.103909
-0.175541
-0.00699098
0.173468
-0.122266
0.133222
-0.138483
0.134046
-0.145752
0.1388
-0.153629
0.145938
-0.160357
0.154492
-0.163183
0.161833
-0.160856
0.165142
-0.154522
0.163233
-0.147017
0.157038
-0.14182
0.149092
-0.142055
0.144781
-0.138844
0.232316
0.0788547
0.020572
0.00543539
0.00183066
-0.672441
0.418365
0.0725714
0.122648
0.0267068
0.0220712
0.0047746
0.00347459
0.000429708
0.000561456
0.000554017
0.000197887
0.00024058
0.000594763
4.72268e-05
0.00137424
-0.000292479
0.00266858
-0.000906146
0.00471748
-0.00196449
0.00781864
-0.0037033
0.0122988
-0.00642375
0.0184602
-0.0104743
0.0264923
-0.0161908
0.0363853
-0.0238166
0.0478501
-0.0333993
0.0602984
-0.0446968
0.0729194
-0.0571444
0.0848563
-0.0699266
0.0954297
-0.0821587
0.104313
-0.093123
0.111573
-0.102425
0.117658
-0.109476
0.125472
-0.103831
0.17562
0.00707001
-0.173388
0.122348
-0.133137
0.138573
-0.133952
0.145852
-0.138695
0.15374
-0.145822
0.160476
-0.15437
0.163306
-0.161711
0.160976
-0.165025
0.154634
-0.163128
0.147114
-0.15695
0.141898
-0.149025
0.142113
-0.144732
0.138888
-0.232272
-0.0788072
-0.0205264
-0.00542267
-0.00195106
-2.06096
1.31256
0.201883
0.373789
0.0764707
0.0667217
0.0136848
0.0104939
0.00116207
0.00168968
0.00167551
0.000576995
0.000708299
0.00181904
6.49631e-05
0.00424021
-0.00106546
0.00826346
-0.00309103
0.0146389
-0.00655921
0.0242994
-0.0122213
0.0382731
-0.02103
0.0575164
-0.0340782
0.0826412
-0.0524072
0.11364
-0.0767538
0.149636
-0.107229
0.188808
-0.14303
0.22863
-0.182351
0.266405
-0.222619
0.299974
-0.261069
0.328267
-0.295481
0.351443
-0.324661
0.370843
-0.346929
0.394969
-0.33186
0.544763
0.0216695
-0.539228
0.389074
-0.42052
0.437463
-0.423977
0.460096
-0.439201
0.484859
-0.461743
0.506232
-0.488453
0.515586
-0.511078
0.508845
-0.520928
0.489378
-0.514518
0.46591
-0.494963
0.449296
-0.470338
0.449482
-0.456987
0.442882
-0.71778
-0.232601
-0.0598409
-0.015758
-0.00552821
-3.58442
2.38613
0.279896
0.643702
0.114734
0.113105
0.0206016
0.0177591
0.00150008
0.00283961
0.00284054
0.000907255
0.00113746
0.00315891
-0.000152976
0.00748756
-0.00242083
0.0146897
-0.00643386
0.0261245
-0.013227
0.0434872
-0.024205
0.0686578
-0.0411274
0.103406
-0.0659809
0.148901
-0.10062
0.205209
-0.146297
0.270826
-0.20309
0.342528
-0.269398
0.415762
-0.341821
0.485603
-0.41563
0.54802
-0.485831
0.600916
-0.548488
0.644417
-0.601573
0.680749
-0.642576
0.72341
-0.623831
0.970093
0.0379804
-0.964437
0.725517
-0.774402
0.805337
-0.783611
0.845892
-0.812416
0.891039
-0.854004
0.930747
-0.902224
0.949365
-0.942029
0.938987
-0.958144
0.904982
-0.944988
0.862645
-0.908899
0.831523
-0.864969
0.83015
-0.841264
0.829512
-1.26892
-0.373715
-0.093833
-0.0245711
-0.00855042
-5.34669
3.78278
0.259114
0.949331
0.131906
0.163124
0.0239327
0.025561
0.00113419
0.00404318
0.00408322
0.00115159
0.00149606
0.00471383
-0.00080647
0.0114405
-0.00485194
0.0226522
-0.0119149
0.0404984
-0.0237221
0.0676707
-0.0425864
0.107179
-0.0713598
0.161899
-0.113199
0.233803
-0.170968
0.323162
-0.246481
0.427779
-0.339596
0.542704
-0.447478
0.660792
-0.564486
0.774167
-0.683
0.876216
-0.795154
0.963285
-0.894904
1.03524
-0.97932
1.09519
-1.04549
1.16069
-1.03314
1.49678
0.0574192
-1.49702
1.18988
-1.25115
1.30029
-1.27165
1.36355
-1.31974
1.43553
-1.38707
1.50037
-1.46296
1.53329
-1.52343
1.52071
-1.54531
1.46957
-1.5213
1.403
-1.46287
1.35166
-1.39485
1.34587
-1.35887
1.36724
-1.9395
-0.489926
-0.119125
-0.0309935
-0.0107214
-7.47413
5.68556
0.0697854
1.31527
0.115136
0.219962
0.0216316
0.0344054
-0.000325094
0.00536163
0.00544515
0.0012657
0.00174112
0.00662044
-0.00216745
0.0165395
-0.00902864
0.033106
-0.020864
0.0595523
-0.0404228
0.0999443
-0.0713383
0.15887
-0.118018
0.240782
-0.185233
0.348857
-0.277177
0.483778
-0.396291
0.642544
-0.541921
0.817965
-0.70929
0.999391
-0.889462
1.17483
-1.07074
1.33394
-1.24135
1.47065
-1.39251
1.5842
-1.52027
1.67859
-1.62191
1.77434
-1.63101
2.18261
0.0818401
-2.19888
1.85974
-1.9272
2.00057
-1.96756
2.09436
-2.04418
2.20358
-2.14807
2.30451
-2.26158
2.35986
-2.34834
2.34738
-2.37516
2.27495
-2.33367
2.17551
-2.24353
2.09474
-2.14374
2.07986
-2.09328
2.14669
-2.79997
-0.562642
-0.132781
-0.0343941
-0.0118454
2.36196
-1.87533
-0.344448
-0.108466
-0.0206558
-0.00944966
0.00048
-0.00272967
0.00134175
-0.00174693
-0.00144928
-0.00302096
0.00067006
-0.00812756
0.00414857
-0.0170152
0.0103516
-0.0315949
0.0209143
-0.0544323
0.0380714
-0.088562
0.0646505
-0.137121
0.10386
-0.202705
0.158806
-0.286495
0.231722
-0.387323
0.323011
-0.501005
0.430341
-0.62031
0.548194
-0.735805
0.668194
-0.83749
0.780374
-0.91671
0.875022
-0.967656
0.944464
-0.988144
0.984099
-0.98025
0.991284
-0.957246
0.936861
-1.07069
0.0644276
1.06688
-0.782527
0.856198
-0.811816
0.821153
-0.840815
0.82294
-0.916058
0.863688
-1.05968
0.955611
-1.31261
1.12195
-1.75929
1.42658
-2.50762
1.97884
-3.61597
2.87539
-5.03212
4.0004
-7.15432
6.75812
-5.72092
7.74666
1.55352
0.362396
0.0901404
0.0287821
1.68633
-1.26094
-0.303145
-0.0920467
-0.0193546
-0.00763503
-0.000109885
-0.00190452
0.000803363
-0.00125378
-0.00117812
-0.00218531
0.000121659
-0.00564469
0.00215564
-0.0116706
0.00582878
-0.0215263
0.0121642
-0.0369152
0.0225761
-0.0598363
0.0388826
-0.0923293
0.063187
-0.13604
0.0975821
-0.191634
0.14366
-0.258194
0.201876
-0.332799
0.270935
-0.41055
0.347437
-0.485173
0.426034
-0.550137
0.50022
-0.599909
0.563538
-0.630912
0.610771
-0.641987
0.638639
-0.634867
0.644681
-0.62037
0.601752
-0.726476
0.0462946
0.733579
-0.494212
0.560024
-0.524321
0.532794
-0.546173
0.530724
-0.59847
0.552772
-0.696648
0.605605
-0.868797
0.701808
-1.17228
0.880744
-1.67831
1.21492
-2.42182
1.7726
-3.36704
2.46399
-4.74694
4.40252
-3.60066
5.3739
1.35295
0.325182
0.0812671
0.0259367
1.12859
-0.802747
-0.231974
-0.0700917
-0.0156143
-0.00565219
-0.000326509
-0.00125907
0.000455849
-0.000845898
-0.000863914
-0.00148293
-0.00010506
-0.00370646
0.00102486
-0.00758312
0.00309439
-0.0139072
0.00671481
-0.0237542
0.0127401
-0.0383773
0.0222852
-0.0590403
0.0366632
-0.0867373
0.0572132
-0.121823
0.0850009
-0.163637
0.120422
-0.210254
0.162798
-0.258524
0.210132
-0.304481
0.259167
-0.344061
0.305856
-0.373894
0.346116
-0.391876
0.376586
-0.397442
0.395062
-0.391891
0.399576
-0.383268
0.36837
-0.466587
0.0312922
0.47659
-0.297471
0.349098
-0.322785
0.329572
-0.33808
0.326426
-0.372437
0.337532
-0.436049
0.366281
-0.547184
0.419026
-0.742795
0.518914
-1.0676
0.711663
-1.54146
1.0426
-2.14137
1.44868
-2.99455
2.73247
-2.16005
3.52046
1.0322
0.25617
0.0644315
0.0205419
0.648099
-0.444643
-0.144449
-0.0438406
-0.010093
-0.00348352
-0.000292404
-0.000719172
0.000229202
-0.000489372
-0.000525965
-0.000861104
-0.000133793
-0.00210339
0.000424939
-0.0042709
0.00146196
-0.00779998
0.00329986
-0.0132836
0.00639324
-0.0214088
0.0113431
-0.0328621
0.0188673
-0.048173
0.0297112
-0.0675092
0.0444881
-0.0904719
0.0634604
-0.115966
0.0863138
-0.142233
0.112008
-0.167083
0.138798
-0.188301
0.164478
-0.20408
0.186794
-0.213327
0.203865
-0.215797
0.214422
-0.212297
0.217195
-0.207794
0.198203
-0.260261
0.0181437
0.268124
-0.157807
0.190655
-0.174479
0.178885
-0.183546
0.176381
-0.20305
0.181329
-0.238805
0.195253
-0.301111
0.220995
-0.410647
0.270601
-0.591954
0.369247
-0.855065
0.542819
-1.18717
0.754193
-1.64948
1.48673
-1.1428
1.99335
0.642552
0.163408
0.0413263
0.0131412
0.211319
-0.142256
-0.0489404
-0.014915
-0.0034861
-0.00117785
-0.000113323
-0.000234072
6.93479e-05
-0.000160156
-0.000176307
-0.000282272
-5.54948e-05
-0.000681536
0.0001121
-0.00137848
0.000425702
-0.00251209
0.000985894
-0.00427161
0.00193509
-0.00687571
0.00346287
-0.0105417
0.0057974
-0.0154354
0.00917795
-0.0216056
0.0138046
-0.0289192
0.0197687
-0.037021
0.0269798
-0.0453454
0.0351163
-0.0531933
0.0436293
-0.0598622
0.0518193
-0.0647837
0.0589659
-0.0676204
0.0644635
-0.0683061
0.0678976
-0.067113
0.0688315
-0.065722
0.0624512
-0.0835733
0.00596791
0.0865299
-0.0492855
0.0605865
-0.0550839
0.0566538
-0.0580874
0.055724
-0.0644094
0.0571036
-0.0759412
0.0612203
-0.0960109
0.0688664
-0.131274
0.0837653
-0.189547
0.113948
-0.273876
0.167829
-0.380156
0.233172
-0.526327
0.471301
-0.356482
0.645441
0.217783
0.0561161
0.0142356
0.00446785
-0.211318
0.142255
0.0489398
0.0149145
0.00348577
0.00117767
0.000113263
0.000234125
-6.91716e-05
0.000160479
0.00017681
0.000283003
5.65198e-05
0.000682941
-0.000110211
0.00138098
-0.000422442
0.00251629
-0.000980565
0.0042783
-0.00192679
0.00688589
-0.00345052
0.0105565
-0.00577983
0.015456
-0.00915405
0.0216331
-0.0137735
0.0289541
-0.01973
0.0370635
-0.0269338
0.0453947
-0.0350639
0.0532483
-0.0435721
0.0599212
-0.051759
0.0648448
-0.0589045
0.0676818
-0.0644024
0.0683666
-0.0678379
0.0671718
-0.0687734
0.0657795
-0.062394
0.0836306
-0.00590999
-0.0864708
0.0493464
-0.0605233
0.05515
-0.0565845
0.0581606
-0.0556466
0.0644914
-0.0570166
0.0760336
-0.0611221
0.0961152
-0.0687557
0.131391
-0.0836419
0.189676
-0.113815
0.274011
-0.167697
0.380281
-0.23306
0.526422
-0.471223
0.356547
-0.645381
-0.21772
-0.056057
-0.0142194
-0.00462565
-0.648099
0.444642
0.144449
0.0438403
0.0100928
0.00348339
0.000292358
0.000719203
-0.000229084
0.000489594
0.000526315
0.000861616
0.000134513
0.00210438
-0.000423606
0.00427267
-0.00145965
0.00780296
-0.00329608
0.0132883
-0.00638734
0.0214161
-0.0113343
0.0328727
-0.0188547
0.0481877
-0.0296941
0.0675288
-0.0444658
0.090497
-0.0634326
0.115997
-0.0862806
0.142269
-0.11197
0.167123
-0.138756
0.188344
-0.164434
0.204125
-0.186749
0.213372
-0.20382
0.215842
-0.214377
0.21234
-0.217152
0.207836
-0.198161
0.260304
-0.0181006
-0.26808
0.157852
-0.190608
0.174528
-0.178834
0.1836
-0.176324
0.20311
-0.181265
0.238873
-0.195181
0.301188
-0.220914
0.410733
-0.270511
0.592048
-0.369149
0.855164
-0.542722
1.18726
-0.75411
1.64955
-1.48667
1.14285
-1.9933
-0.642504
-0.163362
-0.0413093
-0.0132494
-1.12859
0.802747
0.231974
0.0700917
0.0156142
0.00565216
0.000326494
0.00125906
-0.000455833
0.000845936
0.000863979
0.00148303
0.000105208
0.00370667
-0.00102457
0.0075835
-0.00309389
0.0139078
-0.00671398
0.0237552
-0.0127387
0.038379
-0.0222831
0.0590427
-0.0366603
0.0867407
-0.0572091
0.121828
-0.0849955
0.163643
-0.120415
0.210261
-0.16279
0.258533
-0.210122
0.304491
-0.259156
0.344073
-0.305844
0.373906
-0.346104
0.391889
-0.376573
0.397455
-0.39505
0.391903
-0.399563
0.383281
-0.368358
0.4666
-0.0312795
-0.476577
0.297484
-0.349085
0.322799
-0.329558
0.338095
-0.32641
0.372454
-0.337515
0.436067
-0.366261
0.547205
-0.419004
0.742818
-0.51889
1.06763
-0.711636
1.54149
-1.04257
2.1414
-1.44866
2.99458
-2.73245
2.16007
-3.52044
-1.03218
-0.256154
-0.0644191
-0.0205598
-1.68633
1.26094
0.303145
0.092047
0.0193548
0.00763513
0.000109916
0.00190449
-0.000803471
0.00125359
0.00117782
0.00218488
-0.000122257
0.00564387
-0.00215674
0.0116691
-0.00583066
0.0215239
-0.0121673
0.0369114
-0.0225809
0.0598305
-0.0388897
0.0923208
-0.063197
0.136028
-0.0975958
0.191619
-0.143677
0.258174
-0.201898
0.332775
-0.270961
0.410522
-0.347466
0.485142
-0.426066
0.550104
-0.500254
0.599875
-0.563572
0.630878
-0.610805
0.641954
-0.638671
0.634835
-0.644713
0.620339
-0.601784
0.726445
-0.0463261
-0.733611
0.494179
-0.560059
0.524285
-0.532832
0.546132
-0.530766
0.598425
-0.55282
0.696597
-0.60566
0.868739
-0.701869
1.17221
-0.880812
1.67824
-1.21499
2.42174
-1.77267
3.36697
-2.46405
4.74689
-4.40256
3.60063
-5.37393
-1.35299
-0.325212
-0.0812718
-0.0258404
-2.36196
1.87533
0.344448
0.108466
0.0206562
0.00944989
-0.000479909
0.00272962
-0.00134195
0.00174654
0.00144865
0.00302004
-0.000671353
0.00812577
-0.00415098
0.017012
-0.0103558
0.0315895
-0.0209211
0.0544237
-0.0380821
0.0885488
-0.0646666
0.137101
-0.103883
0.202678
-0.158837
0.286459
-0.231763
0.387277
-0.323062
0.500949
-0.430403
0.620244
-0.548264
0.735731
-0.668272
0.83741
-0.780456
0.916626
-0.875107
0.96757
-0.94455
0.98806
-0.984183
0.980167
-0.991366
0.957164
-0.936942
1.07061
-0.0645099
-1.06697
0.782441
-0.856287
0.811723
-0.82125
0.840713
-0.823047
0.915944
-0.863808
1.05955
-0.955746
1.31247
-1.1221
1.75913
-1.42675
2.50744
-1.97903
3.61579
-2.87558
5.03195
-4.00056
7.15418
-6.75823
5.72082
-7.74675
-1.55361
-0.362486
-0.0901813
-0.0285945
2.36637
-1.8784
-0.343306
-0.109948
-0.0190577
-0.0109773
0.00225889
-0.00432201
0.00357708
-0.00162396
-0.00369571
-0.00109593
-0.00131879
-0.0060946
0.00212751
-0.0149776
0.00830913
-0.0295978
0.0188843
-0.0525292
0.0360997
-0.0868194
0.0627962
-0.135616
0.102195
-0.201517
0.157412
-0.285691
0.230677
-0.38694
0.322371
-0.501042
0.430128
-0.62073
0.548389
-0.736551
0.668753
-0.838495
0.781238
-0.917894
0.876119
-0.968928
0.945706
-0.989415
0.985391
-0.981452
0.992541
-0.958355
0.937988
-1.07189
0.0645074
1.06808
-0.78347
0.857193
-0.812871
0.822184
-0.841956
0.824052
-0.917257
0.864879
-1.06088
0.956843
-1.31372
1.12315
-1.76021
1.42747
-2.50901
1.97996
-3.61803
2.87702
-5.03501
4.00222
-7.16038
6.76452
-5.72136
7.74875
1.55394
0.362494
0.0901629
0.0287878
1.6895
-1.26293
-0.302469
-0.0930182
-0.0183128
-0.00861544
0.00105882
-0.00290757
0.0023406
-0.00116625
-0.00270487
-0.000951903
-0.00116966
-0.0043245
0.000845782
-0.0103486
0.00450255
-0.0202335
0.0108427
-0.0356872
0.021288
-0.058717
0.0376654
-0.0913695
0.0620873
-0.135291
0.096653
-0.191139
0.142953
-0.257975
0.201431
-0.332852
0.270769
-0.410849
0.347539
-0.48568
0.426377
-0.550807
0.500767
-0.600689
0.564242
-0.631743
0.611576
-0.64281
0.639481
-0.635641
0.645503
-0.621083
0.602481
-0.727286
0.0463525
0.734402
-0.494812
0.560671
-0.525008
0.53346
-0.546916
0.531442
-0.59925
0.553545
-0.697423
0.60641
-0.869508
0.702597
-1.17287
0.881305
-1.67924
1.2156
-2.42319
1.7736
-3.36899
2.46502
-4.75098
4.40687
-3.60071
5.37539
1.35333
0.325269
0.0812873
0.0259418
1.13072
-0.803974
-0.231592
-0.0706986
-0.0149673
-0.00625229
0.000404816
-0.00186133
0.00145457
-0.000787248
-0.00184599
-0.000729777
-0.00090434
-0.00288942
0.000215667
-0.00676564
0.00227368
-0.0131094
0.00589501
-0.0229986
0.0119384
-0.0376917
0.0215244
-0.0584563
0.0359719
-0.0862869
0.0566244
-0.121532
0.0845477
-0.163518
0.12013
-0.210303
0.16268
-0.258724
0.210181
-0.304807
0.259368
-0.344486
0.306186
-0.374383
0.346547
-0.392393
0.377082
-0.39795
0.395586
-0.392365
0.400088
-0.383706
0.368819
-0.467106
0.0313316
0.477123
-0.297834
0.349499
-0.323211
0.329982
-0.338541
0.326869
-0.37292
0.33801
-0.436527
0.366782
-0.547619
0.419521
-0.743156
0.519253
-1.06819
0.712067
-1.54233
1.04318
-2.14263
1.44922
-2.99711
2.73526
-2.15994
3.52146
1.03248
0.256239
0.0644475
0.020546
0.649328
-0.445306
-0.144256
-0.0441726
-0.0097409
-0.00380646
0.000108123
-0.00103805
0.000791031
-0.000455605
-0.00107443
-0.00045673
-0.000567819
-0.00165984
-1.37373e-05
-0.00382739
0.00101644
-0.00736785
0.00285398
-0.0128753
0.00595613
-0.0210396
0.0109269
-0.0325494
0.0184874
-0.047934
0.0293858
-0.0673578
0.0442354
-0.0904145
0.063295
-0.116
0.0862427
-0.142348
0.112029
-0.167265
0.138902
-0.188536
0.164653
-0.204348
0.187026
-0.213608
0.204134
-0.216073
0.214707
-0.212553
0.217475
-0.20803
0.198446
-0.260549
0.0181667
0.268424
-0.158001
0.190873
-0.17471
0.179107
-0.183797
0.176621
-0.203312
0.181588
-0.239064
0.195527
-0.301345
0.221266
-0.410841
0.270781
-0.592277
0.369457
-0.85555
0.543124
-1.18787
0.754449
-1.65089
1.48829
-1.14269
1.99393
0.642731
0.163452
0.0413366
0.0131438
0.211721
-0.142465
-0.0488818
-0.0150206
-0.00337446
-0.0012796
1.41082e-05
-0.000333592
0.000250615
-0.000149123
-0.000352577
-0.000155049
-0.000192929
-0.000541104
-2.66703e-05
-0.00123811
0.000284664
-0.00237544
0.000844596
-0.00414266
0.00179638
-0.00675931
0.00333056
-0.0104434
0.00567636
-0.0153607
0.00907391
-0.0215588
0.0137234
-0.0289023
0.0197151
-0.0370329
0.0269562
-0.0453828
0.0351219
-0.0532519
0.0436616
-0.059937
0.0518743
-0.064869
0.0590391
-0.0677096
0.0645487
-0.0683932
0.0679881
-0.0671937
0.0689205
-0.0657964
0.062528
-0.0836658
0.0059755
0.0866267
-0.049346
0.0606556
-0.055157
0.0567239
-0.0581669
0.0557998
-0.0644923
0.0571859
-0.0760228
0.0613073
-0.0960845
0.068953
-0.131335
0.0838218
-0.189651
0.114013
-0.274031
0.167923
-0.380381
0.233246
-0.526777
0.471801
-0.356436
0.645631
0.217843
0.0561312
0.0142391
0.00446878
-0.21172
0.142465
0.0488813
0.0150201
0.00337414
0.00127942
-1.41621e-05
0.000333652
-0.000250431
0.000149455
0.000353091
0.000155792
0.000193967
0.000542524
2.85775e-05
0.00124063
-0.000281378
0.00237967
-0.000839231
0.00414939
-0.00178803
0.00676955
-0.00331814
0.0104583
-0.0056587
0.0153814
-0.0090499
0.0215864
-0.0136922
0.0289373
-0.0196763
0.0370755
-0.02691
0.0454323
-0.0350694
0.0533071
-0.0436041
0.0599962
-0.0518139
0.0649302
-0.0589775
0.0677711
-0.0644875
0.0684538
-0.0679283
0.0672527
-0.0688623
0.065854
-0.0624707
0.0837232
-0.00591747
-0.0865675
0.0494071
-0.0605922
0.0552232
-0.0566544
0.0582402
-0.0557223
0.0645745
-0.0570987
0.0761154
-0.0612089
0.0961889
-0.0688422
0.131452
-0.0836982
0.18978
-0.11388
0.274166
-0.167791
0.380505
-0.233134
0.526872
-0.471724
0.356501
-0.645571
-0.217781
-0.0560721
-0.0142229
-0.00462653
-0.649328
0.445305
0.144256
0.0441723
0.00974068
0.00380634
-0.000108165
0.00103809
-0.000790907
0.000455833
0.00107478
0.00045725
0.000568548
0.00166084
1.50836e-05
0.00382917
-0.00101411
0.00737085
-0.00285017
0.0128801
-0.00595019
0.0210469
-0.010918
0.03256
-0.0184748
0.0479488
-0.0293686
0.0673775
-0.044213
0.0904397
-0.0632671
0.116031
-0.0862093
0.142384
-0.111991
0.167305
-0.13886
0.188579
-0.164609
0.204393
-0.186981
0.213653
-0.204089
0.216118
-0.214662
0.212596
-0.217432
0.208072
-0.198403
0.260592
-0.0181234
-0.26838
0.158046
-0.190826
0.174759
-0.179055
0.183851
-0.176564
0.203373
-0.181524
0.239132
-0.195455
0.301421
-0.221185
0.410926
-0.270691
0.592372
-0.369359
0.855649
-0.543026
1.18796
-0.754365
1.65096
-1.48823
1.14274
-1.99388
-0.642682
-0.163406
-0.0413196
-0.013252
-1.13072
0.803974
0.231592
0.0706986
0.0149672
0.00625226
-0.000404831
0.00186133
-0.00145456
0.000787288
0.00184605
0.00072988
0.000904489
0.00288963
-0.00021538
0.00676603
-0.00227317
0.01311
-0.00589416
0.0229997
-0.0119371
0.0376933
-0.0215223
0.0584587
-0.035969
0.0862904
-0.0566203
0.121537
-0.0845424
0.163524
-0.120123
0.210311
-0.162671
0.258733
-0.210172
0.304817
-0.259357
0.344497
-0.306174
0.374395
-0.346535
0.392405
-0.37707
0.397963
-0.395573
0.392378
-0.400076
0.383718
-0.368807
0.467118
-0.0313188
-0.477111
0.297847
-0.349485
0.323225
-0.329968
0.338556
-0.326853
0.372936
-0.337993
0.436545
-0.366763
0.54764
-0.419499
0.743179
-0.519229
1.06821
-0.71204
1.54236
-1.04316
2.14265
-1.4492
2.99713
-2.73524
2.15996
-3.52145
-1.03247
-0.256223
-0.0644351
-0.0205639
-1.6895
1.26293
0.302469
0.0930184
0.018313
0.00861554
-0.00105879
0.00290753
-0.00234072
0.00116605
0.00270456
0.000951468
0.00116905
0.00432367
-0.000846889
0.0103471
-0.00450445
0.020231
-0.0108458
0.0356833
-0.0212928
0.0587111
-0.0376726
0.0913609
-0.0620974
0.135279
-0.0966667
0.191123
-0.142971
0.257955
-0.201453
0.332828
-0.270795
0.410821
-0.347568
0.485649
-0.426409
0.550773
-0.5008
0.600655
-0.564276
0.631709
-0.611609
0.642777
-0.639514
0.635609
-0.645535
0.621052
-0.602512
0.727255
-0.046384
-0.734434
0.494778
-0.560705
0.524971
-0.533498
0.546876
-0.531485
0.599204
-0.553593
0.697372
-0.606465
0.86945
-0.702659
1.1728
-0.881374
1.67917
-1.21568
2.42312
-1.77367
3.36893
-2.46508
4.75093
-4.40691
3.60068
-5.37542
-1.35336
-0.3253
-0.081292
-0.0258456
-2.36637
1.8784
0.343306
0.109949
0.0190581
0.0109775
-0.00225881
0.00432196
-0.00357729
0.00162356
0.00369508
0.001095
0.00131747
0.00609279
-0.00212994
0.0149743
-0.00831335
0.0295923
-0.0188913
0.0525205
-0.0361105
0.0868061
-0.0628124
0.135596
-0.102218
0.20149
-0.157443
0.285655
-0.230718
0.386894
-0.322422
0.500985
-0.430189
0.620663
-0.54846
0.736476
-0.668831
0.838415
-0.781321
0.91781
-0.876204
0.968843
-0.945792
0.98933
-0.985475
0.981368
-0.992623
0.958273
-0.938069
1.07181
-0.0645899
-1.06816
0.783383
-0.857282
0.812779
-0.822281
0.841854
-0.82416
0.917143
-0.864999
1.06075
-0.956979
1.31358
-1.1233
1.76005
-1.42764
2.50883
-1.98014
3.61784
-2.8772
5.03484
-4.00238
7.16024
-6.76464
5.72126
-7.74884
-1.55404
-0.362584
-0.0902037
-0.0286003
7.47138
-5.68406
-0.0721393
-1.31308
-0.117265
-0.217824
-0.0237834
-0.0323848
-0.00228883
-0.00544607
-0.00281965
-0.00349699
0.000558874
-0.00901706
0.00451888
-0.0190141
0.0114512
-0.0356457
0.0233535
-0.0621392
0.0429666
-0.102545
0.0739107
-0.161428
0.120573
-0.243213
0.1877
-0.351056
0.279456
-0.485627
0.39827
-0.643924
0.543474
-0.818777
0.710299
-0.999588
0.88985
-1.17444
1.07049
-1.33305
1.24053
-1.46942
1.39124
-1.58281
1.51873
-1.67723
1.62028
-1.77315
1.62952
-2.1815
-0.0820093
2.19747
-1.85892
1.92605
-1.99973
1.96646
-2.09344
2.04303
-2.20252
2.14677
-2.30334
2.26012
-2.35863
2.34681
-2.34604
2.37356
-2.27339
2.33194
-2.17365
2.2415
-2.09281
2.14167
-2.07766
2.09103
-2.14424
2.79669
0.561924
0.132559
0.0343228
0.0119745
5.3447
-3.78188
-0.260675
-0.947913
-0.133286
-0.161738
-0.0253343
-0.0242772
-0.00292485
-0.00410302
-0.00229614
-0.00258033
-3.78006e-06
-0.00627199
0.00232707
-0.01305
0.00641923
-0.0243029
0.0135274
-0.0421775
0.0253728
-0.0693549
0.0442605
-0.10883
0.0730303
-0.163459
0.114821
-0.235203
0.17248
-0.324324
0.247809
-0.428624
0.340658
-0.543171
0.448197
-0.660854
0.564805
-0.773846
0.682904
-0.875579
0.794677
-0.962436
0.894124
-1.0343
0.978351
-1.09427
1.04445
-1.1599
1.03219
-1.496
-0.0575068
1.49609
-1.18933
1.25043
-1.29972
1.27097
-1.36291
1.31904
-1.43479
1.38627
-1.49956
1.46207
-1.53244
1.52249
-1.51979
1.54433
-1.46851
1.52024
-1.40174
1.4616
-1.35036
1.39356
-1.34439
1.35745
-1.36565
1.93726
0.489339
0.118964
0.0309539
0.0107823
3.58307
-2.38562
-0.280881
-0.64283
-0.115587
-0.112249
-0.0214722
-0.0169817
-0.00265968
-0.00287947
-0.00168934
-0.00177885
-0.000213977
-0.00412373
0.00109118
-0.00848415
0.00338877
-0.0157105
0.00743156
-0.0271605
0.0142513
-0.0445228
0.0252484
-0.0696674
0.0421749
-0.104353
0.0670067
-0.14974
0.101587
-0.20589
0.147161
-0.271302
0.203799
-0.342761
0.269902
-0.415738
0.342081
-0.48534
0.415634
-0.547563
0.485596
-0.600333
0.548059
-0.643786
0.60102
-0.680143
0.641976
-0.722881
0.623287
-0.969555
-0.0379952
0.963874
-0.725146
0.774
-0.804935
0.783247
-0.845441
0.812044
-0.890517
0.853577
-0.930178
0.901741
-0.948769
0.941516
-0.938346
0.957606
-0.904256
0.944397
-0.8618
0.908169
-0.830672
0.864215
-0.829197
0.840421
-0.828511
1.26748
0.373299
0.0937376
0.0245522
0.00852683
2.06019
-1.3123
-0.202427
-0.373318
-0.076934
-0.0662583
-0.0141591
-0.0100795
-0.00181286
-0.00171242
-0.00103172
-0.00104429
-0.000206451
-0.00234241
0.00044399
-0.00478036
0.00159153
-0.00881537
0.00363498
-0.0151969
0.00712027
-0.0248541
0.0127965
-0.0388092
0.0216128
-0.0580124
0.0346558
-0.0830714
0.0529605
-0.113977
0.0772594
-0.149853
0.107659
-0.188886
0.143355
-0.228563
0.182549
-0.266205
0.22268
-0.299668
0.260999
-0.327894
0.295303
-0.351048
0.324411
-0.370464
0.346651
-0.394635
0.331613
-0.544416
-0.0216301
0.538962
-0.388825
0.420354
-0.437189
0.423839
-0.459787
0.439067
-0.484505
0.461585
-0.505847
0.488269
-0.515185
0.510877
-0.508421
0.520712
-0.488911
0.514266
-0.465387
0.494624
-0.448784
0.469975
-0.448926
0.456563
-0.442317
0.716992
0.232372
0.0598075
0.015753
0.00543932
0.672192
-0.418286
-0.0727462
-0.122501
-0.0268547
-0.0219255
-0.0049255
-0.00334495
-0.000639417
-0.000568689
-0.000346625
-0.000344276
-8.08726e-05
-0.000759382
0.000115207
-0.00154328
0.000461528
-0.00283983
0.00108272
-0.00488841
0.00214923
-0.00798521
0.00389638
-0.0124551
0.00662428
-0.018598
0.0106795
-0.0266025
0.0163957
-0.0364583
0.0240143
-0.0478773
0.0335809
-0.0602739
0.0448522
-0.0728427
0.0572648
-0.084733
0.070007
-0.0952704
0.0821993
-0.104132
0.0931293
-0.111386
0.102408
-0.117478
0.109448
-0.125307
0.103813
-0.175449
-0.0069975
0.173363
-0.122207
0.133149
-0.138418
0.13398
-0.145677
0.138733
-0.153542
0.145861
-0.160263
0.154405
-0.163085
0.161742
-0.16075
0.165046
-0.1544
0.163129
-0.146874
0.15691
-0.141677
0.148961
-0.141893
0.144635
-0.138677
0.23205
0.0787643
0.0205484
0.00542911
0.00182853
-0.672186
0.418287
0.0727448
0.122499
0.0268531
0.0219244
0.00492485
0.00334466
0.000639416
0.000568934
0.00034711
0.000345032
8.196e-05
0.000760892
-0.000113159
0.00154601
-0.000457943
0.00284447
-0.00107679
0.00489591
-0.00213986
0.00799679
-0.00388224
0.0124722
-0.00660387
0.0186222
-0.0106513
0.0266351
-0.0163585
0.0365004
-0.0239673
0.0479293
-0.0335241
0.0603353
-0.0447866
0.0729122
-0.0571921
0.0848084
-0.0699295
0.0953495
-0.0821192
0.104213
-0.0930486
0.111466
-0.102328
0.117557
-0.109369
0.125385
-0.103734
0.175528
0.00707648
-0.173282
0.12229
-0.133064
0.138507
-0.133886
0.145777
-0.138628
0.153653
-0.145746
0.160382
-0.154284
0.163208
-0.161619
0.16087
-0.16493
0.154512
-0.163025
0.146971
-0.156822
0.141755
-0.148894
0.14195
-0.144586
0.138721
-0.232007
-0.0787169
-0.0205029
-0.00541642
-0.00194878
-2.06018
1.3123
0.202426
0.373317
0.076933
0.0662576
0.0141586
0.0100794
0.00181287
0.0017126
0.00103205
0.00104482
0.000207214
0.00234348
-0.000442545
0.00478229
-0.001589
0.00881866
-0.00363077
0.0152023
-0.00711361
0.0248623
-0.0127865
0.0388214
-0.0215982
0.0580297
-0.0346356
0.0830948
-0.0529338
0.114008
-0.0772255
0.149891
-0.107618
0.188931
-0.143308
0.228613
-0.182496
0.26626
-0.222623
0.299726
-0.26094
0.327954
-0.295243
0.351107
-0.324352
0.370523
-0.346592
0.394693
-0.331555
0.544475
0.0216889
-0.538902
0.388886
-0.42029
0.437255
-0.42377
0.459861
-0.438989
0.484586
-0.4615
0.505935
-0.488179
0.515276
-0.510787
0.50851
-0.520625
0.488994
-0.514188
0.46546
-0.494557
0.448843
-0.469922