/*--------------------------------*- C++ -*----------------------------------*\
| =========                 |                                                 |
| \\      /  F ield         | OpenFOAM: The Open Source CFD Toolbox           |
|  \\    /   O peration     | Version:  5.x                                   |
|   \\  /    A nd           | Web:      www.OpenFOAM.org                      |
|    \\/     M anipulation  |                                                 |
\*---------------------------------------------------------------------------*/
FoamFile
{
    version     2.0;
    format      ascii;
    class       volScalarField;
    location    "0.4";
    object      T;
}
// * * * * * * * * * * * * * * * * * * * * * * * * * * * * * * * * * * * * * //

dimensions      [0 0 0 1 0 0 0];

internalField   nonuniform List<scalar> 
3200
(
5.24853
5.8348
5.86914
5.97711
5.98421
6.00068
6.00184
6.00443
6.00463
6.00536
6.00574
6.00577
6.00578
6.00575
6.00519
6.00508
6.00352
6.00326
6.00001
5.99953
5.99356
5.99272
5.98256
5.98117
5.96484
5.96268
5.93767
5.93444
5.89784
5.89324
5.84196
5.83569
5.76687
5.75867
5.67014
5.65983
5.55053
5.53807
5.40827
5.39375
5.24497
5.2286
5.06318
5.04521
4.86579
4.84648
4.65544
4.63495
4.43402
4.41122
4.19289
3.96763
3.94334
3.72022
3.69652
3.46633
3.44181
3.20196
3.17632
2.92444
2.89756
2.63374
2.60584
2.33415
2.3058
2.03328
2.0052
1.73891
1.71169
1.45579
1.42961
1.18351
1.15802
0.915615
0.889931
0.632574
0.619061
0.616817
0.616312
0.616197
5.31155
5.78899
5.86697
5.96597
5.98287
5.99879
6.0016
6.00413
6.00462
6.00531
6.0057
6.00575
6.00577
6.0057
6.0052
6.00494
6.00358
6.00299
6.00017
5.99904
5.99386
5.9919
5.9831
5.97988
5.96574
5.96073
5.93908
5.93162
5.89997
5.88934
5.84502
5.83052
5.77108
5.75209
5.67567
5.65181
5.55749
5.52866
5.41667
5.3831
5.25474
5.21687
5.07416
5.0326
4.87779
4.83312
4.66825
4.62082
4.44677
4.3933
4.19221
3.9856
3.92872
3.7355
3.68064
3.48189
3.42517
3.21811
3.1588
2.94142
2.87925
2.65164
2.58711
2.35276
2.2872
2.05214
1.98721
1.75747
1.69451
1.47363
1.41306
1.20053
1.14155
0.932211
0.873096
0.655695
0.624461
0.618108
0.616647
0.616314
5.35546
5.75915
5.86396
5.95812
5.98157
5.99742
6.00136
6.00391
6.00461
6.00528
6.00566
6.00574
6.00575
6.00566
6.00521
6.00485
6.00361
6.00281
6.00025
5.99872
5.99404
5.99136
5.98341
5.97903
5.96627
5.95944
5.93993
5.92977
5.90126
5.88678
5.84689
5.82714
5.77367
5.74781
5.67909
5.64661
5.56182
5.52258
5.42193
5.37623
5.26088
5.20933
5.08108
5.02451
4.88538
4.82457
4.67635
4.61174
4.45468
4.38128
4.19174
3.99757
3.91954
3.74524
3.67051
3.49176
3.41454
3.22835
3.1476
2.95218
2.86755
2.663
2.57517
2.36462
2.27538
2.06418
1.97581
1.76934
1.68363
1.48505
1.40257
1.21141
1.1311
0.942792
0.862586
0.671364
0.628859
0.619199
0.616931
0.616413
5.38323
5.74126
5.86137
5.9531
5.98058
5.99653
6.00118
6.00377
6.00459
6.00526
6.00564
6.00574
6.00574
6.00563
6.00521
6.00479
6.00363
6.0027
6.00029
5.99852
5.99413
5.99103
5.98358
5.97851
5.96656
5.95866
5.9404
5.92864
5.90198
5.88524
5.84795
5.8251
5.77514
5.74524
5.68106
5.64349
5.56432
5.51895
5.42499
5.37214
5.26445
5.20485
5.08513
5.01971
4.88982
4.81951
4.6811
4.60635
4.45924
4.3739
4.19145
4.00489
3.91421
3.75099
3.66453
3.49756
3.40825
3.23436
3.14098
2.9585
2.86063
2.66968
2.56813
2.37161
2.26842
2.0713
1.96911
1.77637
1.67725
1.49181
1.39643
1.21783
1.12495
0.949037
0.856506
0.681074
0.631935
0.619985
0.617138
0.616484
5.39668
5.7329
5.85992
5.95065
5.98004
5.99608
6.00109
6.0037
6.00458
6.00524
6.00563
6.00573
6.00574
6.00562
6.00521
6.00477
6.00363
6.00264
6.00031
5.99843
5.99417
5.99088
5.98366
5.97826
5.96669
5.95829
5.94061
5.92811
5.9023
5.88451
5.84843
5.82414
5.77581
5.74404
5.68195
5.64204
5.56547
5.51726
5.42639
5.37023
5.2661
5.20277
5.08699
5.01748
4.89187
4.81716
4.68329
4.60384
4.46132
4.37039
4.19131
4.00836
3.91176
3.75365
3.66176
3.50024
3.40534
3.23714
3.13791
2.96142
2.85743
2.67277
2.56486
2.37484
2.26521
2.0746
1.96602
1.77963
1.67431
1.49495
1.39359
1.22081
1.12211
0.951932
0.853729
0.68572
0.633512
0.620396
0.617247
0.616522
5.39668
5.7329
5.85992
5.95065
5.98004
5.99608
6.00109
6.0037
6.00458
6.00524
6.00563
6.00573
6.00574
6.00562
6.00521
6.00477
6.00363
6.00264
6.00031
5.99843
5.99417
5.99088
5.98366
5.97826
5.96669
5.95829
5.94061
5.92811
5.9023
5.88451
5.84843
5.82414
5.77581
5.74404
5.68195
5.64204
5.56547
5.51726
5.42639
5.37023
5.2661
5.20277
5.08699
5.01748
4.89187
4.81716
4.68329
4.60384
4.46132
4.37039
4.19131
4.00836
3.91176
3.75365
3.66177
3.50024
3.40534
3.23714
3.13791
2.96142
2.85743
2.67277
2.56486
2.37484
2.26521
2.0746
1.96602
1.77963
1.67431
1.49495
1.39359
1.22082
1.12211
0.951933
0.853729
0.68572
0.633512
0.620397
0.617247
0.616521
5.38323
5.74126
5.86137
5.9531
5.98058
5.99653
6.00118
6.00377
6.00459
6.00526
6.00564
6.00574
6.00574
6.00563
6.00521
6.00479
6.00363
6.0027
6.00029
5.99852
5.99413
5.99103
5.98358
5.97851
5.96656
5.95866
5.9404
5.92864
5.90198
5.88524
5.84795
5.8251
5.77514
5.74524
5.68106
5.6435
5.56432
5.51895
5.42499
5.37214
5.26446
5.20485
5.08513
5.01971
4.88982
4.81951
4.6811
4.60635
4.45925
4.3739
4.19145
4.00489
3.91421
3.75099
3.66454
3.49756
3.40825
3.23436
3.14098
2.9585
2.86063
2.66968
2.56813
2.37161
2.26843
2.0713
1.96911
1.77637
1.67726
1.49181
1.39643
1.21783
1.12495
0.949038
0.856507
0.681074
0.631936
0.619986
0.617138
0.616483
5.35546
5.75915
5.86396
5.95812
5.98157
5.99742
6.00136
6.00391
6.00461
6.00528
6.00566
6.00574
6.00575
6.00566
6.00521
6.00485
6.00361
6.00281
6.00025
5.99872
5.99404
5.99136
5.98341
5.97903
5.96627
5.95944
5.93993
5.92977
5.90126
5.88678
5.84689
5.82714
5.77367
5.74781
5.67909
5.64661
5.56182
5.52258
5.42193
5.37623
5.26088
5.20933
5.08108
5.02451
4.88538
4.82457
4.67635
4.61174
4.45469
4.38128
4.19174
3.99757
3.91954
3.74524
3.67051
3.49176
3.41454
3.22836
3.14761
2.95218
2.86755
2.663
2.57517
2.36462
2.27538
2.06418
1.97581
1.76934
1.68363
1.48505
1.40258
1.21141
1.1311
0.942793
0.862587
0.671364
0.62886
0.6192
0.616932
0.616411
5.31155
5.78899
5.86697
5.96597
5.98287
5.99879
6.0016
6.00413
6.00462
6.00531
6.0057
6.00575
6.00577
6.0057
6.0052
6.00494
6.00358
6.00299
6.00017
5.99904
5.99386
5.9919
5.9831
5.97988
5.96574
5.96073
5.93908
5.93162
5.89997
5.88934
5.84502
5.83052
5.77108
5.75209
5.67567
5.65181
5.55749
5.52867
5.41667
5.3831
5.25474
5.21687
5.07416
5.0326
4.87779
4.83313
4.66825
4.62082
4.44677
4.3933
4.19221
3.9856
3.92872
3.7355
3.68064
3.48189
3.42517
3.21812
3.1588
2.94142
2.87925
2.65164
2.58711
2.35277
2.28721
2.05214
1.98721
1.75747
1.69451
1.47363
1.41306
1.20053
1.14156
0.932212
0.873097
0.655696
0.624462
0.618109
0.616647
0.616312
5.24853
5.8348
5.86914
5.97711
5.98421
6.00068
6.00184
6.00443
6.00463
6.00536
6.00574
6.00577
6.00578
6.00575
6.00519
6.00508
6.00352
6.00326
6.00001
5.99953
5.99356
5.99272
5.98256
5.98117
5.96484
5.96268
5.93767
5.93444
5.89784
5.89324
5.84196
5.83569
5.76687
5.75867
5.67014
5.65983
5.55053
5.53807
5.40827
5.39376
5.24497
5.2286
5.06319
5.04521
4.86579
4.84648
4.65545
4.63495
4.43402
4.41122
4.19289
3.96763
3.94334
3.72022
3.69652
3.46633
3.44181
3.20196
3.17632
2.92444
2.89756
2.63374
2.60584
2.33415
2.3058
2.03328
2.0052
1.73892
1.71169
1.4558
1.42961
1.18351
1.15802
0.915615
0.889932
0.632574
0.619062
0.616817
0.616312
0.616196
5.80355
5.99001
5.99938
6.0032
6.00367
6.00417
6.00422
6.00448
6.00451
6.00469
6.00474
6.00474
6.0045
6.00444
6.00369
6.00356
6.0019
6.00165
5.9985
5.99805
5.99255
5.99179
5.98273
5.98151
5.96734
5.96549
5.94431
5.94163
5.91139
5.90765
5.86634
5.86137
5.80736
5.80102
5.7334
5.72565
5.64453
5.63544
5.54208
5.53183
5.42849
5.41736
5.3071
5.29543
5.18167
5.16981
5.05593
5.04418
4.93291
4.9209
4.81005
4.70419
4.69314
4.59603
4.58597
4.49087
4.48084
4.3839
4.3734
4.26949
4.25789
4.13983
4.12615
3.98279
3.96542
3.77716
3.75344
3.48893
3.45518
3.07489
3.02719
2.496
2.42857
1.65942
1.58375
0.874479
0.837106
0.830887
0.829488
0.829174
5.82344
5.9748
5.99604
6.00218
6.00347
6.00408
6.00422
6.00446
6.00452
6.00468
6.00473
6.00471
6.0045
6.00438
6.00371
6.00342
6.00198
6.00139
5.99866
5.99761
5.99284
5.99107
5.98322
5.9804
5.96813
5.96385
5.94553
5.93931
5.91318
5.90453
5.86885
5.85734
5.81071
5.79604
5.73768
5.71976
5.64978
5.62875
5.54822
5.52452
5.4354
5.40967
5.31457
5.28759
5.18948
5.16205
5.0638
5.03659
4.9403
4.91216
4.8106
4.71297
4.68703
4.60285
4.57955
4.49738
4.47417
4.3904
4.36611
4.27628
4.24942
4.1473
4.11562
3.99149
3.95124
3.78814
3.73318
3.5041
3.42595
3.09699
2.98654
2.52673
2.37106
1.71313
1.53922
0.938507
0.852017
0.834413
0.830367
0.829454
5.83727
5.96479
5.99331
6.00136
6.00329
6.00401
6.00422
6.00444
6.00452
6.00467
6.00472
6.00469
6.0045
6.00433
6.00373
6.00333
6.00202
6.00122
5.99875
5.99731
5.993
5.99059
5.98351
5.97966
5.9686
5.96277
5.94626
5.93779
5.91426
5.90249
5.87038
5.85471
5.81278
5.7928
5.74035
5.71594
5.65306
5.62444
5.55208
5.51983
5.43976
5.40475
5.31932
5.28259
5.19445
5.15712
5.06883
5.03177
4.94495
4.90637
4.81098
4.71887
4.68325
4.60723
4.57548
4.50153
4.46992
4.39451
4.36143
4.28054
4.24395
4.15194
4.10877
3.99683
3.94197
3.79478
3.71987
3.51323
3.40674
3.11034
2.95985
2.54528
2.33364
1.74747
1.51174
0.981957
0.864165
0.837391
0.831114
0.829693
5.84601
5.95874
5.9914
6.00078
6.00315
6.00397
6.00422
6.00443
6.00452
6.00466
6.00471
6.00468
6.0045
6.0043
6.00374
6.00327
6.00204
6.00111
5.99879
5.99713
5.99309
5.9903
5.98366
5.97922
5.96886
5.96211
5.94668
5.93688
5.91488
5.90126
5.87126
5.85314
5.81396
5.79087
5.74189
5.71367
5.65496
5.62187
5.55434
5.51705
5.44232
5.40183
5.32211
5.27964
5.19738
5.15421
5.0718
5.02893
4.94766
4.90283
4.81122
4.7225
4.68108
4.60983
4.57309
4.50397
4.46741
4.39693
4.35866
4.28303
4.2407
4.15462
4.10467
3.99987
3.93639
3.79852
3.71183
3.51833
3.39512
3.11784
2.94371
2.5557
2.31117
1.76778
1.49602
1.00892
0.872661
0.839537
0.831656
0.829865
5.85024
5.9559
5.99042
6.00048
6.00309
6.00394
6.00421
6.00443
6.00453
6.00466
6.00471
6.00467
6.0045
6.00429
6.00374
6.00324
6.00205
6.00106
5.99881
5.99705
5.99313
5.99016
5.98373
5.97901
5.96898
5.9618
5.94686
5.93644
5.91515
5.90068
5.87165
5.8524
5.8145
5.78996
5.74259
5.7126
5.65583
5.62067
5.55537
5.51575
5.4435
5.40048
5.32339
5.27828
5.19873
5.15287
5.07317
5.02761
4.94891
4.90116
4.81134
4.72423
4.6801
4.61104
4.57199
4.50511
4.46625
4.39804
4.35737
4.28417
4.23918
4.15585
4.10275
4.00125
3.93376
3.80019
3.70803
3.52061
3.38964
3.1212
2.9361
2.56037
2.30065
1.77721
1.48889
1.02182
0.877016
0.840659
0.83194
0.829955
5.85024
5.9559
5.99042
6.00048
6.00309
6.00394
6.00421
6.00443
6.00453
6.00466
6.00471
6.00467
6.0045
6.00429
6.00374
6.00324
6.00205
6.00106
5.99881
5.99705
5.99313
5.99016
5.98373
5.97901
5.96898
5.9618
5.94686
5.93644
5.91515
5.90068
5.87165
5.8524
5.8145
5.78996
5.74259
5.7126
5.65583
5.62067
5.55537
5.51575
5.4435
5.40048
5.32339
5.27828
5.19874
5.15287
5.07317
5.02761
4.94891
4.90116
4.81134
4.72423
4.6801
4.61104
4.57199
4.50511
4.46625
4.39804
4.35737
4.28417
4.23918
4.15585
4.10275
4.00125
3.93376
3.80019
3.70803
3.52061
3.38964
3.1212
2.9361
2.56037
2.30065
1.77721
1.48889
1.02182
0.877017
0.840659
0.83194
0.829955
5.84601
5.95874
5.9914
6.00078
6.00315
6.00397
6.00422
6.00443
6.00452
6.00466
6.00471
6.00468
6.0045
6.0043
6.00374
6.00327
6.00204
6.00111
5.99879
5.99713
5.99309
5.9903
5.98366
5.97922
5.96886
5.96211
5.94668
5.93688
5.91488
5.90126
5.87126
5.85314
5.81396
5.79087
5.74189
5.71367
5.65496
5.62187
5.55434
5.51705
5.44232
5.40183
5.32211
5.27964
5.19738
5.15421
5.0718
5.02893
4.94767
4.90283
4.81122
4.7225
4.68109
4.60983
4.57309
4.50398
4.46741
4.39693
4.35866
4.28303
4.2407
4.15463
4.10467
3.99987
3.93639
3.79852
3.71183
3.51833
3.39512
3.11784
2.94371
2.5557
2.31117
1.76778
1.49602
1.00892
0.872662
0.839538
0.831656
0.829863
5.83727
5.96479
5.99331
6.00136
6.00329
6.00401
6.00422
6.00444
6.00452
6.00467
6.00472
6.00469
6.0045
6.00433
6.00373
6.00333
6.00202
6.00122
5.99875
5.99731
5.993
5.99059
5.98351
5.97967
5.9686
5.96277
5.94626
5.93779
5.91426
5.90249
5.87038
5.85472
5.81278
5.79281
5.74035
5.71594
5.65306
5.62444
5.55208
5.51983
5.43976
5.40475
5.31932
5.28259
5.19445
5.15712
5.06883
5.03177
4.94495
4.90637
4.81098
4.71887
4.68326
4.60723
4.57548
4.50153
4.46992
4.39451
4.36144
4.28055
4.24395
4.15195
4.10878
3.99683
3.94198
3.79478
3.71988
3.51323
3.40675
3.11034
2.95985
2.54528
2.33364
1.74747
1.51174
0.981958
0.864166
0.837392
0.831114
0.82969
5.82344
5.9748
5.99604
6.00218
6.00347
6.00408
6.00422
6.00446
6.00452
6.00468
6.00473
6.00471
6.0045
6.00438
6.00371
6.00342
6.00198
6.00139
5.99866
5.99761
5.99284
5.99107
5.98322
5.9804
5.96813
5.96385
5.94553
5.93931
5.91318
5.90453
5.86885
5.85734
5.81071
5.79604
5.73768
5.71976
5.64978
5.62875
5.54822
5.52453
5.4354
5.40967
5.31457
5.28759
5.18948
5.16205
5.0638
5.03659
4.9403
4.91217
4.8106
4.71297
4.68704
4.60285
4.57955
4.49738
4.47417
4.3904
4.36611
4.27628
4.24942
4.1473
4.11562
3.99149
3.95124
3.78814
3.73318
3.5041
3.42595
3.09699
2.98654
2.52673
2.37107
1.71313
1.53922
0.938508
0.852018
0.834415
0.830368
0.829452
5.80355
5.99001
5.99938
6.0032
6.00367
6.00417
6.00422
6.00448
6.00451
6.00469
6.00474
6.00474
6.0045
6.00444
6.00369
6.00356
6.0019
6.00165
5.9985
5.99805
5.99255
5.99179
5.98273
5.98151
5.96734
5.96549
5.94431
5.94163
5.91139
5.90765
5.86634
5.86137
5.80736
5.80102
5.7334
5.72565
5.64454
5.63544
5.54208
5.53183
5.42849
5.41737
5.3071
5.29543
5.18167
5.16981
5.05593
5.04418
4.93291
4.9209
4.81005
4.7042
4.69314
4.59603
4.58597
4.49087
4.48084
4.3839
4.3734
4.26949
4.25789
4.13983
4.12615
3.98279
3.96542
3.77716
3.75344
3.48893
3.45518
3.07489
3.02719
2.496
2.42857
1.65942
1.58376
0.87448
0.837107
0.830888
0.829489
0.829173
5.80354
5.99034
5.99974
6.00373
6.00422
6.0049
6.00497
6.00543
6.00548
6.00589
6.00617
6.00619
6.00618
6.00615
6.00563
6.00552
6.0041
6.00387
6.00096
6.00053
5.99525
5.99451
5.98566
5.98447
5.97047
5.96864
5.94762
5.94494
5.91481
5.91108
5.86983
5.86486
5.81086
5.80452
5.73687
5.72911
5.64792
5.63882
5.54535
5.53509
5.43162
5.42048
5.31007
5.29839
5.18448
5.1726
5.05858
5.04681
4.93542
4.92339
4.81242
4.70644
4.69537
4.59815
4.58807
4.49286
4.48281
4.38574
4.37523
4.27118
4.25956
4.14137
4.12767
3.98418
3.96679
3.77843
3.75469
3.49003
3.45626
3.07575
3.02803
2.49654
2.42907
1.65928
1.58357
0.87412
0.836737
0.830516
0.829117
0.828803
5.82347
5.97511
5.99641
6.0027
6.00403
6.0048
6.00499
6.0054
6.00551
6.00587
6.00614
6.00618
6.00616
6.0061
6.00564
6.0054
6.00416
6.00363
6.0011
6.0001
5.99552
5.99381
5.98614
5.98337
5.97125
5.96701
5.94882
5.94263
5.91659
5.90797
5.87233
5.86083
5.81421
5.79954
5.74115
5.72321
5.65317
5.63212
5.5515
5.52777
5.43853
5.41277
5.31755
5.29054
5.19229
5.16483
5.06646
5.03922
4.94281
4.91464
4.81296
4.71522
4.68926
4.60497
4.58165
4.49937
4.47613
4.39225
4.36793
4.27798
4.25108
4.14884
4.11713
3.99289
3.95261
3.78941
3.73442
3.50521
3.42701
3.09787
2.98735
2.52728
2.37151
1.71304
1.53903
0.938165
0.851652
0.834044
0.829996
0.829083
5.83733
5.96509
5.99369
6.00187
6.00386
6.00473
6.005
6.00537
6.00553
6.00587
6.00612
6.00617
6.00615
6.00606
6.00564
6.00532
6.00419
6.00347
6.00118
5.99982
5.99568
5.99334
5.98642
5.98264
5.97171
5.96593
5.94955
5.94112
5.91767
5.90593
5.87386
5.85821
5.81628
5.7963
5.74382
5.7194
5.65645
5.62781
5.55536
5.52308
5.4429
5.40784
5.3223
5.28553
5.19727
5.15989
5.07149
5.03439
4.94747
4.90884
4.81335
4.72113
4.68548
4.60936
4.57757
4.50353
4.47188
4.39637
4.36325
4.28225
4.24561
4.15349
4.11028
3.99823
3.94334
3.79605
3.7211
3.51434
3.4078
3.11122
2.96065
2.54584
2.33405
1.74742
1.51156
0.981628
0.863804
0.837022
0.830743
0.829322
5.84609
5.95903
5.99178
6.00129
6.00373
6.00468
6.005
6.00536
6.00554
6.00586
6.0061
6.00616
6.00615
6.00604
6.00564
6.00526
6.00421
6.00337
6.00122
5.99964
5.99576
5.99305
5.98657
5.9822
5.97197
5.96528
5.94995
5.9402
5.91828
5.9047
5.87474
5.85663
5.81746
5.79436
5.74536
5.71712
5.65836
5.62523
5.55762
5.52029
5.44546
5.40493
5.32509
5.28258
5.20021
5.15699
5.07447
5.03155
4.95019
4.9053
4.81359
4.72476
4.6833
4.61196
4.57518
4.50597
4.46936
4.39878
4.36047
4.28474
4.24235
4.15618
4.10618
4.00128
3.93775
3.79979
3.71305
3.51945
3.39617
3.11873
2.9445
2.55627
2.31157
1.76775
1.49583
1.00859
0.872302
0.839169
0.831285
0.829494
5.85032
5.95618
5.9908
6.00099
6.00366
6.00465
6.005
6.00535
6.00554
6.00586
6.0061
6.00616
6.00614
6.00603
6.00564
6.00524
6.00421
6.00332
6.00124
5.99956
5.9958
5.99292
5.98663
5.98199
5.97208
5.96498
5.95014
5.93977
5.91856
5.90412
5.87513
5.85589
5.818
5.79345
5.74606
5.71605
5.65923
5.62404
5.55866
5.51899
5.44665
5.40357
5.32639
5.28121
5.20156
5.15564
5.07584
5.03023
4.95144
4.90363
4.81371
4.7265
4.68232
4.61318
4.57408
4.50711
4.4682
4.3999
4.35918
4.28588
4.24083
4.1574
4.10425
4.00266
3.93512
3.80147
3.70926
3.52173
3.39069
3.12209
2.93689
2.56093
2.30103
1.77718
1.4887
1.02151
0.876658
0.840291
0.83157
0.829584
5.85032
5.95618
5.9908
6.00099
6.00366
6.00465
6.005
6.00535
6.00554
6.00586
6.0061
6.00616
6.00614
6.00603
6.00564
6.00524
6.00421
6.00332
6.00124
5.99956
5.9958
5.99292
5.98663
5.98199
5.97208
5.96498
5.95014
5.93977
5.91856
5.90412
5.87513
5.85589
5.818
5.79346
5.74606
5.71605
5.65923
5.62404
5.55866
5.51899
5.44665
5.40357
5.32639
5.28121
5.20156
5.15564
5.07584
5.03023
4.95144
4.90363
4.81371
4.7265
4.68232
4.61318
4.57408
4.50711
4.4682
4.3999
4.35918
4.28588
4.24083
4.15741
4.10425
4.00266
3.93512
3.80147
3.70926
3.52173
3.39069
3.12209
2.93689
2.56093
2.30103
1.77718
1.4887
1.02151
0.876659
0.840291
0.83157
0.829584
5.84609
5.95903
5.99178
6.00129
6.00373
6.00468
6.005
6.00536
6.00554
6.00586
6.0061
6.00616
6.00615
6.00604
6.00564
6.00526
6.00421
6.00337
6.00122
5.99964
5.99576
5.99305
5.98657
5.9822
5.97197
5.96528
5.94996
5.9402
5.91828
5.9047
5.87474
5.85663
5.81746
5.79436
5.74536
5.71712
5.65836
5.62524
5.55762
5.52029
5.44547
5.40493
5.3251
5.28258
5.20021
5.15699
5.07447
5.03155
4.95019
4.9053
4.81359
4.72476
4.6833
4.61196
4.57518
4.50597
4.46936
4.39878
4.36047
4.28474
4.24235
4.15618
4.10618
4.00128
3.93775
3.79979
3.71305
3.51945
3.39617
3.11873
2.9445
2.55627
2.31157
1.76775
1.49583
1.0086
0.872303
0.839169
0.831285
0.829492
5.83733
5.96509
5.99369
6.00187
6.00386
6.00473
6.005
6.00537
6.00553
6.00587
6.00612
6.00617
6.00615
6.00606
6.00564
6.00532
6.00419
6.00347
6.00118
5.99982
5.99568
5.99334
5.98642
5.98264
5.97171
5.96594
5.94955
5.94112
5.91767
5.90593
5.87386
5.85821
5.81628
5.7963
5.74382
5.7194
5.65645
5.62781
5.55537
5.52308
5.44291
5.40784
5.3223
5.28553
5.19727
5.15989
5.0715
5.03439
4.94747
4.90884
4.81335
4.72113
4.68548
4.60936
4.57757
4.50353
4.47188
4.39637
4.36325
4.28225
4.24561
4.1535
4.11028
3.99824
3.94334
3.79606
3.72111
3.51434
3.4078
3.11123
2.96065
2.54585
2.33405
1.74742
1.51156
0.981629
0.863805
0.837023
0.830744
0.829319
5.82347
5.97511
5.99641
6.0027
6.00403
6.0048
6.00499
6.0054
6.00551
6.00587
6.00614
6.00618
6.00617
6.0061
6.00564
6.0054
6.00416
6.00363
6.0011
6.0001
5.99552
5.99381
5.98614
5.98337
5.97125
5.96701
5.94882
5.94263
5.91659
5.90797
5.87233
5.86084
5.81421
5.79954
5.74115
5.72321
5.65317
5.63213
5.5515
5.52777
5.43853
5.41278
5.31755
5.29054
5.19229
5.16483
5.06647
5.03922
4.94281
4.91465
4.81296
4.71522
4.68926
4.60498
4.58165
4.49938
4.47614
4.39225
4.36793
4.27798
4.25108
4.14885
4.11713
3.99289
3.95261
3.78941
3.73442
3.50521
3.42702
3.09787
2.98735
2.52729
2.37151
1.71304
1.53903
0.938166
0.851653
0.834045
0.829997
0.829081
5.80354
5.99034
5.99974
6.00373
6.00422
6.0049
6.00497
6.00543
6.00548
6.00589
6.00617
6.00619
6.00618
6.00615
6.00563
6.00552
6.0041
6.00387
6.00096
6.00053
5.99525
5.99451
5.98566
5.98447
5.97047
5.96864
5.94762
5.94494
5.91481
5.91108
5.86984
5.86486
5.81086
5.80452
5.73687
5.72911
5.64792
5.63882
5.54535
5.53509
5.43162
5.42048
5.31007
5.29839
5.18448
5.17261
5.05859
5.04681
4.93542
4.92339
4.81242
4.70644
4.69537
4.59815
4.58807
4.49286
4.48281
4.38574
4.37523
4.27118
4.25956
4.14137
4.12767
3.98418
3.9668
3.77843
3.75469
3.49003
3.45626
3.07575
3.02803
2.49654
2.42907
1.65928
1.58357
0.874121
0.836738
0.830517
0.829118
0.828802
5.24919
5.83526
5.86957
5.97729
5.98436
6.00059
6.00172
6.00406
6.00423
6.0047
6.00481
6.00481
6.00456
6.0045
6.00366
6.00352
6.00168
6.00139
5.99785
5.99734
5.99107
5.9902
5.97974
5.97832
5.9617
5.9595
5.93421
5.93096
5.89409
5.88948
5.83797
5.83168
5.7627
5.75447
5.66584
5.65552
5.54619
5.53373
5.40397
5.38946
5.24078
5.22441
5.05914
5.04118
4.86193
4.84263
4.65177
4.6313
4.43052
4.40773
4.18954
3.96441
3.94013
3.71712
3.69344
3.46336
3.43885
3.19912
3.17349
2.92175
2.89489
2.63122
2.60334
2.33181
2.30347
2.03112
2.00307
1.73697
1.70977
1.4541
1.42793
1.18207
1.1566
0.91446
0.888804
0.631743
0.618246
0.616004
0.6155
0.615385
5.31219
5.78945
5.86738
5.96617
5.98301
5.99871
6.00146
6.00378
6.0042
6.00465
6.00479
6.00478
6.00456
6.00443
6.0037
6.00337
6.00176
6.0011
5.99802
5.99683
5.99139
5.98936
5.9803
5.97701
5.96261
5.95753
5.93564
5.92812
5.89624
5.88556
5.84105
5.8265
5.76692
5.74789
5.67138
5.64751
5.55315
5.52433
5.41237
5.37881
5.25053
5.2127
5.07011
5.02858
4.87392
4.82929
4.66457
4.61717
4.44326
4.38983
4.18885
3.98236
3.92551
3.7324
3.67757
3.47891
3.42222
3.21527
3.15599
2.93872
2.87659
2.64911
2.58462
2.35041
2.28489
2.04997
1.98509
1.75551
1.6926
1.47192
1.4114
1.19908
1.14016
0.931039
0.871989
0.654838
0.623639
0.617294
0.615834
0.615502
5.35609
5.75962
5.86436
5.95833
5.9817
5.99735
6.00121
6.00357
6.00417
6.00462
6.00477
6.00476
6.00456
6.00437
6.00371
6.00326
6.0018
6.00091
5.99812
5.99649
5.99158
5.98881
5.98063
5.97615
5.96316
5.95623
5.93651
5.92625
5.89754
5.88299
5.84293
5.82311
5.76951
5.74361
5.67481
5.6423
5.55749
5.51825
5.41763
5.37195
5.25667
5.20516
5.07702
5.0205
4.8815
4.82075
4.67266
4.6081
4.45117
4.37781
4.18839
3.99433
3.91634
3.74213
3.66744
3.48878
3.41159
3.2255
3.1448
2.94948
2.8649
2.66046
2.57269
2.36226
2.27308
2.06201
1.9737
1.76738
1.68174
1.48333
1.40093
1.20994
1.12972
0.941609
0.861491
0.670488
0.628033
0.618384
0.616119
0.615601
5.38385
5.74174
5.86176
5.95331
5.9807
5.99646
6.00103
6.00344
6.00415
6.0046
6.00475
6.00474
6.00456
6.00434
6.00372
6.0032
6.00183
6.00079
5.99817
5.99629
5.99168
5.98847
5.9808
5.97562
5.96346
5.95544
5.93698
5.92513
5.89827
5.88144
5.84399
5.82107
5.77099
5.74104
5.67678
5.63919
5.55999
5.51462
5.42068
5.36786
5.26025
5.20069
5.08107
5.01571
4.88594
4.81569
4.67741
4.60271
4.45572
4.37043
4.18809
4.00164
3.91101
3.74788
3.66147
3.49458
3.40531
3.23151
3.13818
2.95579
2.85798
2.66714
2.56565
2.36924
2.26612
2.06912
1.96701
1.7744
1.67537
1.49008
1.39479
1.21636
1.12358
0.947847
0.855419
0.680187
0.631105
0.619169
0.616325
0.615672
5.39729
5.73338
5.86031
5.95086
5.98016
5.99603
6.00093
6.00337
6.00414
6.00458
6.00475
6.00474
6.00455
6.00433
6.00372
6.00317
6.00184
6.00073
5.99819
5.99619
5.99172
5.98831
5.98088
5.97537
5.96359
5.95507
5.9372
5.92459
5.8986
5.88071
5.84447
5.82011
5.77166
5.73983
5.67768
5.63773
5.56114
5.51293
5.42208
5.36595
5.26189
5.19861
5.08293
5.01348
4.88798
4.81334
4.67959
4.60021
4.4578
4.36692
4.18795
4.00511
3.90857
3.75054
3.6587
3.49726
3.4024
3.23429
3.13511
2.95871
2.85478
2.67023
2.56238
2.37248
2.26291
2.07242
1.96392
1.77766
1.67243
1.49322
1.39195
1.21934
1.12074
0.95074
0.852645
0.684828
0.63268
0.61958
0.616434
0.615709
5.39729
5.73338
5.86031
5.95086
5.98016
5.99603
6.00093
6.00337
6.00414
6.00458
6.00475
6.00474
6.00455
6.00433
6.00372
6.00317
6.00184
6.00073
5.99819
5.99619
5.99172
5.98831
5.98088
5.97537
5.96359
5.95507
5.9372
5.92459
5.8986
5.88071
5.84448
5.82011
5.77166
5.73983
5.67768
5.63773
5.56114
5.51293
5.42208
5.36595
5.26189
5.19861
5.08293
5.01348
4.88798
4.81334
4.67959
4.60021
4.4578
4.36693
4.18795
4.00511
3.90857
3.75054
3.6587
3.49726
3.4024
3.23429
3.13511
2.95871
2.85478
2.67023
2.56238
2.37248
2.26291
2.07242
1.96392
1.77766
1.67243
1.49322
1.39195
1.21934
1.12074
0.95074
0.852645
0.684828
0.632681
0.61958
0.616434
0.615709
5.38385
5.74174
5.86176
5.95331
5.9807
5.99646
6.00103
6.00344
6.00415
6.0046
6.00475
6.00474
6.00456
6.00434
6.00372
6.0032
6.00183
6.00079
5.99817
5.99629
5.99168
5.98847
5.9808
5.97562
5.96346
5.95545
5.93699
5.92513
5.89828
5.88144
5.844
5.82107
5.77099
5.74104
5.67678
5.63919
5.56
5.51462
5.42068
5.36786
5.26025
5.20069
5.08107
5.01571
4.88594
4.81569
4.67741
4.60271
4.45572
4.37044
4.1881
4.00164
3.91101
3.74788
3.66147
3.49458
3.40531
3.23151
3.13818
2.9558
2.85799
2.66714
2.56565
2.36924
2.26613
2.06913
1.96701
1.7744
1.67537
1.49009
1.39479
1.21636
1.12358
0.947848
0.855419
0.680188
0.631106
0.61917
0.616325
0.61567
5.35609
5.75962
5.86436
5.95833
5.9817
5.99735
6.00121
6.00357
6.00417
6.00462
6.00477
6.00476
6.00456
6.00437
6.00371
6.00326
6.0018
6.00091
5.99812
5.99649
5.99158
5.98881
5.98063
5.97615
5.96316
5.95623
5.93651
5.92625
5.89754
5.88299
5.84293
5.82311
5.76951
5.74361
5.67481
5.64231
5.55749
5.51825
5.41763
5.37195
5.25667
5.20517
5.07702
5.0205
4.8815
4.82075
4.67266
4.6081
4.45117
4.37781
4.18839
3.99433
3.91634
3.74213
3.66745
3.48878
3.4116
3.22551
3.1448
2.94948
2.8649
2.66047
2.57269
2.36226
2.27308
2.06201
1.9737
1.76738
1.68174
1.48333
1.40093
1.20994
1.12972
0.94161
0.861492
0.670489
0.628034
0.618384
0.616119
0.615598
5.31219
5.78945
5.86738
5.96617
5.98301
5.99871
6.00146
6.00378
6.0042
6.00465
6.00479
6.00478
6.00456
6.00443
6.0037
6.00337
6.00176
6.0011
5.99802
5.99683
5.9914
5.98936
5.9803
5.97701
5.96261
5.95753
5.93565
5.92812
5.89624
5.88556
5.84105
5.8265
5.76692
5.7479
5.67138
5.64751
5.55315
5.52433
5.41237
5.37881
5.25053
5.2127
5.07011
5.02858
4.87392
4.82929
4.66457
4.61717
4.44326
4.38983
4.18886
3.98237
3.92552
3.7324
3.67757
3.47891
3.42222
3.21527
3.15599
2.93872
2.87659
2.64911
2.58462
2.35041
2.28489
2.04997
1.98509
1.75551
1.6926
1.47192
1.4114
1.19908
1.14016
0.93104
0.87199
0.654839
0.62364
0.617295
0.615835
0.6155
5.24919
5.83526
5.86957
5.97729
5.98436
6.00059
6.00172
6.00406
6.00423
6.0047
6.00481
6.00481
6.00456
6.0045
6.00366
6.00352
6.00168
6.00139
5.99785
5.99734
5.99107
5.9902
5.97974
5.97832
5.9617
5.9595
5.93421
5.93096
5.89409
5.88948
5.83797
5.83168
5.7627
5.75447
5.66584
5.65552
5.54619
5.53373
5.40397
5.38946
5.24078
5.22441
5.05914
5.04119
4.86193
4.84263
4.65177
4.6313
4.43052
4.40773
4.18954
3.96441
3.94013
3.71712
3.69344
3.46336
3.43885
3.19912
3.17349
2.92175
2.89489
2.63122
2.60334
2.33181
2.30347
2.03112
2.00307
1.73697
1.70977
1.4541
1.42793
1.18207
1.1566
0.91446
0.888805
0.631744
0.618247
0.616005
0.6155
0.615384
)
;

boundaryField
{
    F1_1
    {
        type            fixedValue;
        value           nonuniform List<scalar> 
80
(
5.2053
5.86875
5.86875
5.98469
5.98469
6.00193
6.00193
6.00462
6.00462
6.00539
6.00577
6.00577
6.00579
6.00579
6.00518
6.00518
6.00346
6.00346
5.99988
5.99988
5.99331
5.99331
5.98212
5.98212
5.96411
5.96411
5.93652
5.93652
5.89613
5.89613
5.83953
5.83953
5.76356
5.76356
5.66581
5.66581
5.54512
5.54512
5.40177
5.40177
5.23744
5.23744
5.05475
5.05475
4.85659
4.85659
4.64563
4.64563
4.42409
4.42409
4.19337
3.95463
3.95463
3.70859
3.70859
3.45443
3.45443
3.1896
3.1896
2.91145
2.91145
2.62008
2.62008
2.31998
2.31998
2.01896
2.01896
1.72486
1.72486
1.44228
1.44228
1.17059
1.17059
0.902981
0.902981
0.616135
0.616135
0.616135
0.616135
0.616135
)
;
    }
    F1_2
    {
        type            fixedValue;
        value           nonuniform List<scalar> 
80
(
5.78987
6.00115
6.00115
6.00378
6.00378
6.00422
6.00422
6.0045
6.0045
6.0047
6.00475
6.00475
6.00449
6.00449
6.00366
6.00366
6.00184
6.00184
5.99837
5.99837
5.99231
5.99231
5.98233
5.98233
5.96669
5.96669
5.94333
5.94333
5.90997
5.90997
5.86437
5.86437
5.80473
5.80473
5.73006
5.73006
5.64047
5.64047
5.53734
5.53734
5.42319
5.42319
5.30139
5.30139
5.17573
5.17573
5.04996
5.04996
4.92724
4.92724
4.80968
4.69791
4.69791
4.59088
4.59088
4.48592
4.48592
4.37892
4.37892
4.26425
4.26425
4.13401
4.13401
3.97592
3.97592
3.76838
3.76838
3.47672
3.47672
3.05718
3.05718
2.47136
2.47136
1.61869
1.61869
0.829026
0.829026
0.829026
0.829026
0.829026
)
;
    }
    F1_3
    {
        type            fixedValue;
        value           nonuniform List<scalar> 
80
(
5.78984
6.00151
6.00151
6.00432
6.00432
6.00496
6.00496
6.00546
6.00546
6.0059
6.00619
6.00619
6.00618
6.00618
6.00561
6.00561
6.00405
6.00405
6.00084
6.00084
5.99503
5.99503
5.98527
5.98527
5.96984
5.96984
5.94664
5.94664
5.91339
5.91339
5.86786
5.86786
5.80824
5.80824
5.73353
5.73353
5.64386
5.64386
5.54061
5.54061
5.42632
5.42632
5.30435
5.30435
5.17853
5.17853
5.0526
5.0526
4.92973
4.92973
4.81205
4.70015
4.70015
4.59299
4.59299
4.48789
4.48789
4.38075
4.38075
4.26593
4.26593
4.13554
4.13554
3.9773
3.9773
3.76964
3.76964
3.47782
3.47782
3.05804
3.05804
2.47189
2.47189
1.61851
1.61851
0.828655
0.828655
0.828655
0.828655
0.828655
)
;
    }
    F1_4
    {
        type            fixedValue;
        value           nonuniform List<scalar> 
80
(
5.20598
5.8692
5.8692
5.98486
5.98486
6.00183
6.00183
6.00424
6.00424
6.00473
6.00483
6.00483
6.00455
6.00455
6.00364
6.00364
6.0016
6.0016
5.9977
5.9977
5.9908
5.9908
5.97928
5.97928
5.96095
5.96095
5.93305
5.93305
5.89237
5.89237
5.83553
5.83553
5.75937
5.75937
5.66151
5.66151
5.54077
5.54077
5.39747
5.39747
5.23325
5.23325
5.05071
5.05071
4.85274
4.85274
4.64197
4.64197
4.42059
4.42059
4.19002
3.95141
3.95141
3.7055
3.7055
3.45147
3.45147
3.18677
3.18677
2.90877
2.90877
2.61756
2.61756
2.31764
2.31764
2.01681
2.01681
1.72292
1.72292
1.44059
1.44059
1.16916
1.16916
0.901839
0.901839
0.615324
0.615324
0.615324
0.615324
0.615324
)
;
    }
    F2_1
    {
        type            fixedValue;
        value           nonuniform List<scalar> 
80
(
5.2053
5.86875
5.86875
5.98469
5.98469
6.00193
6.00193
6.00462
6.00462
6.00539
6.00577
6.00577
6.00579
6.00579
6.00518
6.00518
6.00346
6.00346
5.99988
5.99988
5.99331
5.99331
5.98212
5.98212
5.96411
5.96411
5.93652
5.93652
5.89613
5.89613
5.83953
5.83953
5.76356
5.76356
5.66581
5.66581
5.54512
5.54512
5.40177
5.40177
5.23744
5.23744
5.05475
5.05475
4.85659
4.85659
4.64563
4.64563
4.42409
4.42409
4.19337
3.95463
3.95463
3.70859
3.70859
3.45443
3.45443
3.1896
3.1896
2.91145
2.91145
2.62008
2.62008
2.31998
2.31998