/*--------------------------------*- C++ -*----------------------------------*\
| =========                 |                                                 |
| \\      /  F ield         | OpenFOAM: The Open Source CFD Toolbox           |
|  \\    /   O peration     | Version:  5.x                                   |
|   \\  /    A nd           | Web:      www.OpenFOAM.org                      |
|    \\/     M anipulation  |                                                 |
\*---------------------------------------------------------------------------*/
FoamFile
{
    version     2.0;
    format      ascii;
    class       volScalarField;
    location    "4";
    object      gradTx;
}
// * * * * * * * * * * * * * * * * * * * * * * * * * * * * * * * * * * * * * //

dimensions      [0 -1 0 1 0 0 0];

internalField   nonuniform List<scalar> 
3200
(
1.3921e-10
-6.50114e-11
-1.40393e-11
-1.15674e-11
-1.04891e-11
-1.00788e-11
-4.35709e-12
-4.01353e-12
-2.93453e-12
-4.36698e-12
-1.94112e-12
-1.36551e-12
-1.30745e-12
-9.83975e-13
-9.54612e-13
-7.30748e-13
-7.10469e-13
-5.47932e-13
-5.33132e-13
-4.12914e-13
-4.01917e-13
-3.1192e-13
-3.03665e-13
-2.35806e-13
-2.29571e-13
-1.78183e-13
-1.73458e-13
-1.34456e-13
-1.30868e-13
-1.01242e-13
-9.85164e-14
-7.60151e-14
-7.39463e-14
-5.68727e-14
-5.53039e-14
-4.23689e-14
-4.11815e-14
-3.14024e-14
-3.05056e-14
-2.31317e-14
-2.24564e-14
-1.69138e-14
-1.6407e-14
-1.22572e-14
-1.18786e-14
-8.78683e-15
-8.50628e-15
-6.22043e-15
-6.0291e-15
-4.45606e-15
-6.7341e-15
-3.03955e-15
-2.00201e-15
-1.89919e-15
-1.28044e-15
-1.22509e-15
-8.056e-16
-7.69033e-16
-4.91431e-16
-4.67583e-16
-2.90296e-16
-2.7527e-16
-1.66233e-16
-1.57105e-16
-9.24205e-17
-8.70624e-17
-4.99006e-17
-4.6848e-17
-2.60601e-17
-2.43623e-17
-1.29665e-17
-1.20167e-17
-5.40347e-18
-4.868e-18
-1.28958e-18
-1.04835e-18
-6.82785e-20
-1.25173e-20
-2.83329e-21
6.48262e-19
1.37424e-10
-5.81403e-11
-1.79186e-11
-1.23872e-11
-1.06413e-11
-9.6497e-12
-4.84342e-12
-4.05728e-12
-3.1441e-12
-4.03379e-12
-2.08689e-12
-1.4416e-12
-1.29874e-12
-1.01092e-12
-9.42376e-13
-7.48024e-13
-7.01019e-13
-5.60319e-13
-5.26044e-13
-4.22034e-13
-3.96572e-13
-3.1873e-13
-2.99618e-13
-2.40933e-13
-2.26498e-13
-1.82063e-13
-1.71123e-13
-1.37399e-13
-1.29094e-13
-1.03477e-13
-9.71688e-14
-7.77132e-14
-7.29242e-14
-5.81617e-14
-5.45303e-14
-4.3346e-14
-4.05973e-14
-3.21416e-14
-3.00657e-14
-2.36896e-14
-2.21263e-14
-1.73336e-14
-1.61605e-14
-1.25719e-14
-1.16955e-14
-9.02221e-15
-8.37324e-15
-6.40367e-15
-5.96874e-15
-4.75045e-15
-6.2087e-15
-3.24357e-15
-2.12834e-15
-1.87791e-15
-1.33125e-15
-1.20232e-15
-8.38562e-16
-7.5382e-16
-5.13347e-16
-4.58091e-16
-3.04422e-16
-2.69597e-16
-1.75002e-16
-1.53838e-16
-9.76665e-17
-8.52373e-17
-5.2936e-17
-4.58522e-17
-2.77673e-17
-2.38254e-17
-1.38969e-17
-1.16917e-17
-5.9469e-18
-4.70533e-18
-1.60558e-18
-1.04496e-18
-1.6786e-19
-3.57074e-20
-8.20453e-21
6.46499e-19
1.35961e-10
-5.32024e-11
-2.04101e-11
-1.30555e-11
-1.07633e-11
-9.37311e-12
-5.16891e-12
-4.10609e-12
-3.28152e-12
-3.81403e-12
-2.18058e-12
-1.49758e-12
-1.29582e-12
-1.02908e-12
-9.35165e-13
-7.59399e-13
-6.95312e-13
-5.68444e-13
-5.21741e-13
-4.28008e-13
-3.9332e-13
-3.23188e-13
-2.97152e-13
-2.44287e-13
-2.24625e-13
-1.846e-13
-1.69698e-13
-1.39324e-13
-1.28011e-13
-1.04939e-13
-9.63464e-14
-7.88241e-14
-7.23006e-14
-5.9005e-14
-5.40584e-14
-4.39854e-14
-4.0241e-14
-3.26254e-14
-2.97976e-14
-2.40548e-14
-2.19253e-14
-1.76084e-14
-1.60104e-14
-1.27781e-14
-1.15842e-14
-9.17655e-15
-8.29295e-15
-6.52548e-15
-5.93966e-15
-4.93774e-15
-5.8602e-15
-3.37356e-15
-2.22005e-15
-1.86846e-15
-1.36535e-15
-1.18894e-15
-8.60355e-16
-7.4483e-16
-5.2785e-16
-4.52531e-16
-3.13791e-16
-2.66312e-16
-1.80832e-16
-1.51969e-16
-1.01162e-16
-8.42065e-17
-5.49622e-17
-4.5296e-17
-2.89084e-17
-2.35278e-17
-1.45181e-17
-1.15081e-17
-6.31014e-18
-4.61695e-18
-1.82e-18
-1.05421e-18
-2.37635e-19
-5.47072e-20
-1.27421e-20
6.45001e-19
1.34934e-10
-5.00126e-11
-2.18841e-11
-1.35212e-11
-1.0849e-11
-9.209e-12
-5.36866e-12
-4.1453e-12
-3.36461e-12
-3.68088e-12
-2.23623e-12
-1.53429e-12
-1.29548e-12
-1.04032e-12
-9.31216e-13
-7.66298e-13
-6.92107e-13
-5.73355e-13
-5.19314e-13
-4.31616e-13
-3.9148e-13
-3.25878e-13
-2.95755e-13
-2.46311e-13
-2.23562e-13
-1.86131e-13
-1.6889e-13
-1.40485e-13
-1.27397e-13
-1.05821e-13
-9.58799e-14
-7.9494e-14
-7.1947e-14
-5.95136e-14
-5.37908e-14
-4.4371e-14
-4.00392e-14
-3.29172e-14
-2.96458e-14
-2.42751e-14
-2.18115e-14
-1.77743e-14
-1.59255e-14
-1.29025e-14
-1.15213e-14
-9.2698e-15
-8.24792e-15
-6.59993e-15
-5.92715e-15
-5.04798e-15
-5.648e-15
-3.45019e-15
-2.27966e-15
-1.86505e-15
-1.38635e-15
-1.18163e-15
-8.73614e-16
-7.39889e-16
-5.36678e-16
-4.49502e-16
-3.19506e-16
-2.64543e-16
-1.84395e-16
-1.50976e-16
-1.03302e-16
-8.3666e-17
-5.62044e-17
-4.5008e-17
-2.96088e-17
-2.33749e-17
-1.48992e-17
-1.1412e-17
-6.53307e-18
-4.57265e-18
-1.95312e-18
-1.06547e-18
-2.8205e-19
-6.8062e-20
-1.6015e-20
6.43913e-19
1.34406e-10
-4.84482e-11
-2.25672e-11
-1.37591e-11
-1.08934e-11
-9.13278e-12
-5.46365e-12
-4.16674e-12
-3.40377e-12
-3.61812e-12
-2.26212e-12
-1.55245e-12
-1.29577e-12
-1.04569e-12
-9.29484e-13
-7.69554e-13
-6.90675e-13
-5.75668e-13
-5.18224e-13
-4.33314e-13
-3.90653e-13
-3.27144e-13
-2.95126e-13
-2.47263e-13
-2.23084e-13
-1.8685e-13
-1.68526e-13
-1.41031e-13
-1.2712e-13
-1.06236e-13
-9.56698e-14
-7.9809e-14
-7.17877e-14
-5.97528e-14
-5.36703e-14
-4.45523e-14
-3.99483e-14
-3.30545e-14
-2.95774e-14
-2.43788e-14
-2.17603e-14
-1.78524e-14
-1.58874e-14
-1.29611e-14
-1.14931e-14
-9.31371e-15
-8.2278e-15
-6.63525e-15
-5.92281e-15
-5.09897e-15
-5.54765e-15
-3.48566e-15
-2.30898e-15
-1.86417e-15
-1.39638e-15
-1.17842e-15
-8.79886e-16
-7.37714e-16
-5.40856e-16
-4.48179e-16
-3.22213e-16
-2.63778e-16
-1.86085e-16
-1.50551e-16
-1.04318e-16
-8.34371e-17
-5.6795e-17
-4.48874e-17
-2.9942e-17
-2.33114e-17
-1.50804e-17
-1.13713e-17
-6.63913e-18
-4.55462e-18
-2.01691e-18
-1.07252e-18
-3.03671e-19
-7.49312e-20
-1.77263e-20
6.43342e-19
1.34406e-10
-4.84483e-11
-2.25672e-11
-1.37591e-11
-1.08934e-11
-9.13278e-12
-5.46365e-12
-4.16674e-12
-3.40377e-12
-3.61812e-12
-2.26212e-12
-1.55244e-12
-1.29577e-12
-1.04569e-12
-9.29484e-13
-7.69554e-13
-6.90675e-13
-5.75668e-13
-5.18224e-13
-4.33314e-13
-3.90653e-13
-3.27144e-13
-2.95126e-13
-2.47263e-13
-2.23084e-13
-1.8685e-13
-1.68526e-13
-1.41031e-13
-1.2712e-13
-1.06236e-13
-9.56698e-14
-7.9809e-14
-7.17877e-14
-5.97528e-14
-5.36703e-14
-4.45523e-14
-3.99483e-14
-3.30545e-14
-2.95774e-14
-2.43788e-14
-2.17603e-14
-1.78524e-14
-1.58874e-14
-1.29611e-14
-1.14931e-14
-9.31371e-15
-8.2278e-15
-6.63526e-15
-5.92281e-15
-5.09897e-15
-5.54765e-15
-3.48566e-15
-2.30898e-15
-1.86417e-15
-1.39638e-15
-1.17842e-15
-8.79885e-16
-7.37714e-16
-5.40856e-16
-4.48179e-16
-3.22213e-16
-2.63778e-16
-1.86085e-16
-1.50551e-16
-1.04318e-16
-8.34371e-17
-5.6795e-17
-4.48873e-17
-2.9942e-17
-2.33114e-17
-1.50803e-17
-1.13713e-17
-6.63912e-18
-4.55461e-18
-2.01691e-18
-1.07252e-18
-3.0367e-19
-7.49303e-20
-1.77255e-20
6.43342e-19
1.34934e-10
-5.00128e-11
-2.18841e-11
-1.35212e-11
-1.0849e-11
-9.209e-12
-5.36866e-12
-4.1453e-12
-3.36461e-12
-3.68088e-12
-2.23622e-12
-1.53429e-12
-1.29548e-12
-1.04032e-12
-9.31216e-13
-7.66298e-13
-6.92108e-13
-5.73355e-13
-5.19314e-13
-4.31616e-13
-3.9148e-13
-3.25878e-13
-2.95755e-13
-2.46311e-13
-2.23562e-13
-1.86131e-13
-1.6889e-13
-1.40485e-13
-1.27397e-13
-1.05821e-13
-9.588e-14
-7.9494e-14
-7.1947e-14
-5.95136e-14
-5.37908e-14
-4.4371e-14
-4.00392e-14
-3.29172e-14
-2.96458e-14
-2.42751e-14
-2.18115e-14
-1.77743e-14
-1.59255e-14
-1.29026e-14
-1.15213e-14
-9.2698e-15
-8.24792e-15
-6.59993e-15
-5.92716e-15
-5.04798e-15
-5.648e-15
-3.45019e-15
-2.27966e-15
-1.86505e-15
-1.38635e-15
-1.18163e-15
-8.73613e-16
-7.39888e-16
-5.36678e-16
-4.49502e-16
-3.19506e-16
-2.64543e-16
-1.84395e-16
-1.50976e-16
-1.03301e-16
-8.36659e-17
-5.62044e-17
-4.5008e-17
-2.96088e-17
-2.33749e-17
-1.48991e-17
-1.1412e-17
-6.53306e-18
-4.57264e-18
-1.95311e-18
-1.06546e-18
-2.82046e-19
-6.80596e-20
-1.60128e-20
6.43913e-19
1.35961e-10
-5.32026e-11
-2.04102e-11
-1.30555e-11
-1.07633e-11
-9.37311e-12
-5.1689e-12
-4.10608e-12
-3.28152e-12
-3.81403e-12
-2.18058e-12
-1.49758e-12
-1.29582e-12
-1.02908e-12
-9.35165e-13
-7.59399e-13
-6.95312e-13
-5.68444e-13
-5.21741e-13
-4.28009e-13
-3.9332e-13
-3.23188e-13
-2.97152e-13
-2.44288e-13
-2.24625e-13
-1.846e-13
-1.69698e-13
-1.39324e-13
-1.28011e-13
-1.04939e-13
-9.63464e-14
-7.88241e-14
-7.23006e-14
-5.9005e-14
-5.40584e-14
-4.39854e-14
-4.0241e-14
-3.26254e-14
-2.97976e-14
-2.40548e-14
-2.19253e-14
-1.76084e-14
-1.60104e-14
-1.27781e-14
-1.15842e-14
-9.17655e-15
-8.29295e-15
-6.52548e-15
-5.93966e-15
-4.93774e-15
-5.8602e-15
-3.37356e-15
-2.22005e-15
-1.86846e-15
-1.36535e-15
-1.18894e-15
-8.60354e-16
-7.44829e-16
-5.2785e-16
-4.52531e-16
-3.13791e-16
-2.66311e-16
-1.80832e-16
-1.51969e-16
-1.01162e-16
-8.42064e-17
-5.49621e-17
-4.52959e-17
-2.89084e-17
-2.35277e-17
-1.45181e-17
-1.15081e-17
-6.31012e-18
-4.61694e-18
-1.81999e-18
-1.0542e-18
-2.3763e-19
-5.47041e-20
-1.27392e-20
6.45001e-19
1.37424e-10
-5.81405e-11
-1.79186e-11
-1.23872e-11
-1.06413e-11
-9.6497e-12
-4.84342e-12
-4.05728e-12
-3.1441e-12
-4.03379e-12
-2.08689e-12
-1.4416e-12
-1.29874e-12
-1.01092e-12
-9.42376e-13
-7.48024e-13
-7.01019e-13
-5.60319e-13
-5.26044e-13
-4.22034e-13
-3.96572e-13
-3.1873e-13
-2.99618e-13
-2.40933e-13
-2.26499e-13
-1.82063e-13
-1.71123e-13
-1.37399e-13
-1.29094e-13
-1.03477e-13
-9.71689e-14
-7.77133e-14
-7.29243e-14
-5.81617e-14
-5.45303e-14
-4.3346e-14
-4.05973e-14
-3.21416e-14
-3.00657e-14
-2.36896e-14
-2.21264e-14
-1.73336e-14
-1.61605e-14
-1.2572e-14
-1.16955e-14
-9.02221e-15
-8.37324e-15
-6.40368e-15
-5.96874e-15
-4.75045e-15
-6.2087e-15
-3.24357e-15
-2.12834e-15
-1.87791e-15
-1.33125e-15
-1.20232e-15
-8.38561e-16
-7.53819e-16
-5.13347e-16
-4.5809e-16
-3.04422e-16
-2.69596e-16
-1.75002e-16
-1.53838e-16
-9.76664e-17
-8.52373e-17
-5.2936e-17
-4.58521e-17
-2.77672e-17
-2.38254e-17
-1.38968e-17
-1.16916e-17
-5.94689e-18
-4.70532e-18
-1.60557e-18
-1.04495e-18
-1.67856e-19
-3.57047e-20
-8.20195e-21
6.46499e-19
1.3921e-10
-6.50115e-11
-1.40393e-11
-1.15674e-11
-1.04891e-11
-1.00788e-11
-4.35709e-12
-4.01353e-12
-2.93453e-12
-4.36698e-12
-1.94112e-12
-1.36551e-12
-1.30745e-12
-9.83975e-13
-9.54612e-13
-7.30748e-13
-7.10469e-13
-5.47932e-13
-5.33132e-13
-4.12914e-13
-4.01917e-13
-3.11921e-13
-3.03665e-13
-2.35806e-13
-2.29571e-13
-1.78184e-13
-1.73458e-13
-1.34456e-13
-1.30868e-13
-1.01242e-13
-9.85165e-14
-7.60151e-14
-7.39463e-14
-5.68727e-14
-5.53039e-14
-4.23689e-14
-4.11815e-14
-3.14024e-14
-3.05056e-14
-2.31317e-14
-2.24564e-14
-1.69138e-14
-1.6407e-14
-1.22572e-14
-1.18786e-14
-8.78683e-15
-8.50628e-15
-6.22043e-15
-6.0291e-15
-4.45607e-15
-6.7341e-15
-3.03955e-15
-2.002e-15
-1.89919e-15
-1.28044e-15
-1.22509e-15
-8.056e-16
-7.69033e-16
-4.91431e-16
-4.67583e-16
-2.90295e-16
-2.7527e-16
-1.66233e-16
-1.57105e-16
-9.24205e-17
-8.70624e-17
-4.99006e-17
-4.6848e-17
-2.60601e-17
-2.43623e-17
-1.29665e-17
-1.20166e-17
-5.40346e-18
-4.86799e-18
-1.28957e-18
-1.04835e-18
-6.82768e-20
-1.25163e-20
-2.83221e-21
6.48262e-19
1.46842e-06
-1.30951e-06
-1.03588e-07
-4.41133e-08
-6.92908e-09
-3.34686e-09
-5.48913e-10
-2.67673e-10
-5.23152e-11
-3.4058e-11
-7.41483e-12
-3.01737e-12
-2.44773e-12
-1.79619e-12
-1.72626e-12
-1.42781e-12
-1.39869e-12
-1.16701e-12
-1.14466e-12
-9.50232e-13
-9.31599e-13
-7.69134e-13
-7.53656e-13
-6.19583e-13
-6.06866e-13
-4.97348e-13
-4.86993e-13
-3.98196e-13
-3.8982e-13
-3.18203e-13
-3.11458e-13
-2.53913e-13
-2.48499e-13
-2.02383e-13
-1.98047e-13
-1.6116e-13
-1.57695e-13
-1.28232e-13
-1.25465e-13
-1.01961e-13
-9.97548e-14
-8.1025e-14
-7.9268e-14
-6.43615e-14
-6.29645e-14
-5.11202e-14
-5.00181e-14
-4.06538e-14
-3.99194e-14
-3.34425e-14
-5.41713e-14
-2.66495e-14
-2.081e-14
-2.01934e-14
-1.65348e-14
-1.61887e-14
-1.33646e-14
-1.31022e-14
-1.09129e-14
-1.07103e-14
-9.02322e-15
-8.86757e-15
-7.57648e-15
-7.45716e-15
-6.46885e-15
-6.37187e-15
-5.51251e-15
-5.4183e-15
-4.47699e-15
-4.37582e-15
-3.37067e-15
-3.2744e-15
-2.44481e-15
-2.33387e-15
-1.02709e-15
-9.16073e-16
-5.58507e-17
-9.95624e-18
-2.24376e-18
-1.62055e-16
1.43679e-06
-1.15549e-06
-1.96885e-07
-6.34256e-08
-1.4359e-08
-4.92511e-09
-1.13992e-09
-3.94252e-10
-9.90225e-11
-4.27831e-11
-1.16631e-11
-4.2453e-12
-2.69288e-12
-1.90517e-12
-1.7278e-12
-1.45404e-12
-1.38555e-12
-1.18426e-12
-1.13248e-12
-9.64494e-13
-9.21383e-13
-7.8108e-13
-7.45271e-13
-6.29473e-13
-6.00051e-13
-5.05447e-13
-4.81488e-13
-4.04775e-13
-3.85392e-13
-3.23516e-13
-3.07907e-13
-2.58186e-13
-2.45657e-13
-2.05809e-13
-1.95776e-13
-1.63902e-13
-1.55882e-13
-1.30423e-13
-1.2402e-13
-1.03709e-13
-9.86039e-14
-8.24188e-14
-7.83527e-14
-6.54715e-14
-6.22387e-14
-5.20071e-14
-4.9461e-14
-4.14337e-14
-3.98053e-14
-3.54707e-14
-4.98602e-14
-2.8266e-14
-2.15948e-14
-2.00756e-14
-1.68299e-14
-1.60231e-14
-1.35776e-14
-1.29701e-14
-1.10775e-14
-1.06086e-14
-9.15032e-15
-8.79003e-15
-7.67371e-15
-7.39738e-15
-6.5409e-15
-6.31614e-15
-5.57041e-15
-5.35227e-15
-4.54014e-15
-4.30641e-15
-3.44273e-15
-3.21962e-15
-2.49262e-15
-2.23639e-15
-1.12522e-15
-8.69954e-16
-1.34977e-16
-2.83405e-17
-6.4957e-18
-1.63481e-16
1.41091e-06
-1.04556e-06
-2.57174e-07
-7.93613e-08
-2.0203e-08
-6.27715e-09
-1.60923e-09
-5.0277e-10
-1.36155e-10
-5.04983e-11
-1.49616e-11
-5.23809e-12
-2.90728e-12
-1.98967e-12
-1.73318e-12
-1.47204e-12
-1.37771e-12
-1.19552e-12
-1.12493e-12
-9.73755e-13
-9.15047e-13
-7.8884e-13
-7.4008e-13
-6.35904e-13
-5.95839e-13
-5.10717e-13
-4.7809e-13
-4.09058e-13
-3.82661e-13
-3.26976e-13
-3.05718e-13
-2.60969e-13
-2.43906e-13
-2.08041e-13
-1.94377e-13
-1.65688e-13
-1.54766e-13
-1.3185e-13
-1.2313e-13
-1.04849e-13
-9.78955e-14
-8.33271e-14
-7.77895e-14
-6.61951e-14
-6.17925e-14
-5.25861e-14
-4.91227e-14
-4.19572e-14
-3.97992e-14
-3.67496e-14
-4.69882e-14
-2.92854e-14
-2.21733e-14
-2.00268e-14
-1.70273e-14
-1.5923e-14
-1.3717e-14
-1.28892e-14
-1.11851e-14
-1.05465e-14
-9.23342e-15
-8.74267e-15
-7.73728e-15
-7.36076e-15
-6.58763e-15
-6.28119e-15
-5.60716e-15
-5.30996e-15
-4.58011e-15
-4.26216e-15
-3.48913e-15
-3.18498e-15
-2.52158e-15
-2.17309e-15
-1.18909e-15
-8.43015e-16
-1.88966e-16
-4.33306e-17
-1.00849e-17
-1.64692e-16
1.39275e-06
-9.74883e-07
-2.93039e-07
-9.05495e-08
-2.42371e-08
-7.2585e-09
-1.93591e-09
-5.8163e-10
-1.62025e-10
-5.62008e-11
-1.72251e-11
-5.93439e-12
-3.06491e-12
-2.04765e-12
-1.7387e-12
-1.48335e-12
-1.37337e-12
-1.2023e-12
-1.12059e-12
-9.79305e-13
-9.11401e-13
-7.93493e-13
-7.37097e-13
-6.39762e-13
-5.93422e-13
-5.13881e-13
-4.76142e-13
-4.1163e-13
-3.81096e-13
-3.29054e-13
-3.04465e-13
-2.62641e-13
-2.42904e-13
-2.09382e-13
-1.93577e-13
-1.66762e-13
-1.54128e-13
-1.32708e-13
-1.22622e-13
-1.05534e-13
-9.74906e-14
-8.38732e-14
-7.74676e-14
-6.66301e-14
-6.15376e-14
-5.29348e-14
-4.8932e-14
-4.22799e-14
-3.98282e-14
-3.74965e-14
-4.52334e-14
-2.98807e-14
-2.2553e-14
-2.00118e-14
-1.71487e-14
-1.58668e-14
-1.38011e-14
-1.28433e-14
-1.12499e-14
-1.05111e-14
-9.28352e-15
-8.71579e-15
-7.7756e-15
-7.33991e-15
-6.61562e-15
-6.26087e-15
-5.62876e-15
-5.2849e-15
-4.60356e-15
-4.23606e-15
-3.51674e-15
-3.16466e-15
-2.53791e-15
-2.13518e-15
-1.22743e-15
-8.28384e-16
-2.22611e-16
-5.38213e-17
-1.26717e-17
-1.65571e-16
1.38341e-06
-9.40318e-07
-3.09727e-07
-9.62891e-08
-2.62968e-08
-7.77313e-09
-2.10366e-09
-6.23022e-10
-1.75316e-10
-5.92198e-11
-1.83782e-11
-6.29289e-12
-3.14814e-12
-2.07718e-12
-1.74202e-12
-1.48882e-12
-1.37145e-12
-1.20548e-12
-1.11861e-12
-9.81904e-13
-9.0974e-13
-7.95672e-13
-7.35741e-13
-6.41571e-13
-5.92324e-13
-5.15364e-13
-4.75258e-13
-4.12836e-13
-3.80387e-13
-3.30029e-13
-3.03897e-13
-2.63425e-13
-2.4245e-13
-2.10012e-13
-1.93215e-13
-1.67266e-13
-1.53838e-13
-1.33111e-13
-1.22391e-13
-1.05855e-13
-9.73071e-14
-8.41295e-14
-7.73217e-14
-6.68344e-14
-6.14222e-14
-5.30986e-14
-4.88464e-14
-4.24339e-14
-3.98517e-14
-3.78401e-14
-4.44017e-14
-3.01546e-14
-2.27407e-14
-2.00093e-14
-1.72065e-14
-1.58416e-14
-1.38407e-14
-1.28225e-14
-1.12804e-14
-1.04952e-14
-9.30708e-15
-8.70368e-15
-7.79361e-15
-7.33049e-15
-6.62872e-15
-6.25156e-15
-5.63875e-15
-5.27325e-15
-4.61438e-15
-4.22397e-15
-3.52961e-15
-3.15529e-15
-2.54525e-15
-2.11745e-15
-1.2454e-15
-8.22006e-16
-2.38767e-16
-5.92016e-17
-1.40237e-17
-1.66033e-16
1.38341e-06
-9.40319e-07
-3.09728e-07
-9.6289e-08
-2.62967e-08
-7.77308e-09
-2.10364e-09
-6.23012e-10
-1.75312e-10
-5.92184e-11
-1.83777e-11
-6.29274e-12
-3.1481e-12
-2.07717e-12
-1.74202e-12
-1.48882e-12
-1.37145e-12
-1.20548e-12
-1.11861e-12
-9.81904e-13
-9.0974e-13
-7.95673e-13
-7.35741e-13
-6.41571e-13
-5.92324e-13
-5.15364e-13
-4.75258e-13
-4.12836e-13
-3.80387e-13
-3.30029e-13
-3.03897e-13
-2.63425e-13
-2.4245e-13
-2.10012e-13
-1.93215e-13
-1.67266e-13
-1.53838e-13
-1.33111e-13
-1.22391e-13
-1.05855e-13
-9.73071e-14
-8.41296e-14
-7.73217e-14
-6.68344e-14
-6.14222e-14
-5.30986e-14
-4.88464e-14
-4.24339e-14
-3.98517e-14
-3.78402e-14
-4.44017e-14
-3.01546e-14
-2.27407e-14
-2.00093e-14
-1.72065e-14
-1.58416e-14
-1.38407e-14
-1.28225e-14
-1.12804e-14
-1.04952e-14
-9.30708e-15
-8.70368e-15
-7.79362e-15
-7.33049e-15
-6.62872e-15
-6.25156e-15
-5.63876e-15
-5.27325e-15
-4.61438e-15
-4.22397e-15
-3.52961e-15
-3.15529e-15
-2.54525e-15
-2.11745e-15
-1.2454e-15
-8.22005e-16
-2.38766e-16
-5.92012e-17
-1.40236e-17
-1.66033e-16
1.39275e-06
-9.74884e-07
-2.93039e-07
-9.05493e-08
-2.42369e-08
-7.25837e-09
-1.93585e-09
-5.81602e-10
-1.62015e-10
-5.61969e-11
-1.72239e-11
-5.93399e-12
-3.06479e-12
-2.04761e-12
-1.73869e-12
-1.48335e-12
-1.37337e-12
-1.2023e-12
-1.12059e-12
-9.79305e-13
-9.11401e-13
-7.93493e-13
-7.37098e-13
-6.39763e-13
-5.93422e-13
-5.13881e-13
-4.76142e-13
-4.1163e-13
-3.81097e-13
-3.29054e-13
-3.04465e-13
-2.62641e-13
-2.42904e-13
-2.09382e-13
-1.93577e-13
-1.66762e-13
-1.54128e-13
-1.32708e-13
-1.22622e-13
-1.05534e-13
-9.74906e-14
-8.38733e-14
-7.74676e-14
-6.66302e-14
-6.15376e-14
-5.29348e-14
-4.8932e-14
-4.228e-14
-3.98282e-14
-3.74966e-14
-4.52334e-14
-2.98807e-14
-2.2553e-14
-2.00118e-14
-1.71487e-14
-1.58668e-14
-1.38011e-14
-1.28433e-14
-1.12499e-14
-1.05111e-14
-9.28353e-15
-8.7158e-15
-7.7756e-15
-7.33991e-15
-6.61562e-15
-6.26088e-15
-5.62877e-15
-5.2849e-15
-4.60356e-15
-4.23606e-15
-3.51674e-15
-3.16466e-15
-2.53791e-15
-2.13518e-15
-1.22743e-15
-8.28382e-16
-2.22609e-16
-5.38202e-17
-1.26714e-17
-1.65571e-16
1.41092e-06
-1.04556e-06
-2.57174e-07
-7.9361e-08
-2.02028e-08
-6.27699e-09
-1.60915e-09
-5.02734e-10
-1.36141e-10
-5.04933e-11
-1.496e-11
-5.23757e-12
-2.90713e-12
-1.98963e-12
-1.73316e-12
-1.47204e-12
-1.37771e-12
-1.19552e-12
-1.12493e-12
-9.73756e-13
-9.15048e-13
-7.88841e-13
-7.40081e-13
-6.35904e-13
-5.95839e-13
-5.10717e-13
-4.7809e-13
-4.09058e-13
-3.82661e-13
-3.26976e-13
-3.05718e-13
-2.60969e-13
-2.43906e-13
-2.08041e-13
-1.94378e-13
-1.65689e-13
-1.54766e-13
-1.3185e-13
-1.23131e-13
-1.04849e-13
-9.78956e-14
-8.33272e-14
-7.77895e-14
-6.61951e-14
-6.17925e-14
-5.25862e-14
-4.91228e-14
-4.19573e-14
-3.97992e-14
-3.67497e-14
-4.69882e-14
-2.92854e-14
-2.21733e-14
-2.00268e-14
-1.70273e-14
-1.5923e-14
-1.3717e-14
-1.28892e-14
-1.11851e-14
-1.05465e-14
-9.23343e-15
-8.74268e-15
-7.73729e-15
-7.36076e-15
-6.58764e-15
-6.2812e-15
-5.60716e-15
-5.30997e-15
-4.58011e-15
-4.26216e-15
-3.48913e-15
-3.18498e-15
-2.52158e-15
-2.17309e-15
-1.18909e-15
-8.43013e-16
-1.88964e-16
-4.33292e-17
-1.00845e-17
-1.64691e-16
1.43679e-06
-1.15549e-06
-1.96885e-07
-6.34253e-08
-1.43588e-08
-4.92497e-09
-1.13984e-09
-3.9422e-10
-9.90104e-11
-4.27788e-11
-1.16617e-11
-4.24485e-12
-2.69275e-12
-1.90513e-12
-1.72779e-12
-1.45404e-12
-1.38555e-12
-1.18426e-12
-1.13248e-12
-9.64495e-13
-9.21383e-13
-7.8108e-13
-7.45272e-13
-6.29474e-13
-6.00052e-13
-5.05448e-13
-4.81489e-13
-4.04776e-13
-3.85392e-13
-3.23516e-13
-3.07907e-13
-2.58186e-13
-2.45657e-13
-2.05809e-13
-1.95776e-13
-1.63902e-13
-1.55882e-13
-1.30423e-13
-1.2402e-13
-1.03709e-13
-9.8604e-14
-8.24188e-14
-7.83528e-14
-6.54716e-14
-6.22388e-14
-5.20071e-14
-4.9461e-14
-4.14337e-14
-3.98054e-14
-3.54707e-14
-4.98603e-14
-2.8266e-14
-2.15948e-14
-2.00756e-14
-1.68299e-14
-1.60231e-14
-1.35776e-14
-1.29701e-14
-1.10775e-14
-1.06086e-14
-9.15033e-15
-8.79004e-15
-7.67371e-15
-7.39739e-15
-6.54091e-15
-6.31614e-15
-5.57041e-15
-5.35228e-15
-4.54014e-15
-4.30641e-15
-3.44273e-15
-3.21962e-15
-2.49262e-15
-2.23639e-15
-1.12522e-15
-8.69952e-16
-1.34976e-16
-2.83393e-17
-6.4954e-18
-1.6348e-16
1.46842e-06
-1.30951e-06
-1.03588e-07
-4.41132e-08
-6.929e-09
-3.34681e-09
-5.48885e-10
-2.6766e-10
-5.23104e-11
-3.40563e-11
-7.41426e-12
-3.01719e-12
-2.44767e-12
-1.79617e-12
-1.72626e-12
-1.42781e-12
-1.39869e-12
-1.16701e-12
-1.14466e-12
-9.50232e-13
-9.316e-13
-7.69134e-13
-7.53656e-13
-6.19583e-13
-6.06867e-13
-4.97348e-13
-4.86994e-13
-3.98197e-13
-3.8982e-13
-3.18203e-13
-3.11458e-13
-2.53913e-13
-2.48499e-13
-2.02383e-13
-1.98047e-13
-1.6116e-13
-1.57695e-13
-1.28232e-13
-1.25465e-13
-1.01961e-13
-9.97548e-14
-8.1025e-14
-7.9268e-14
-6.43615e-14
-6.29645e-14
-5.11202e-14
-5.00181e-14
-4.06539e-14
-3.99194e-14
-3.34425e-14
-5.41714e-14
-2.66495e-14
-2.081e-14
-2.01934e-14
-1.65348e-14
-1.61887e-14
-1.33646e-14
-1.31022e-14
-1.09129e-14
-1.07103e-14
-9.02323e-15
-8.86757e-15
-7.57648e-15
-7.45716e-15
-6.46885e-15
-6.37188e-15
-5.51251e-15
-5.41831e-15
-4.47699e-15
-4.37582e-15
-3.37067e-15
-3.27441e-15
-2.44481e-15
-2.33387e-15
-1.02709e-15
-9.16072e-16
-5.585e-17
-9.95576e-18
-2.24365e-18
-1.62055e-16
1.46906e-06
-1.31003e-06
-1.03654e-07
-4.41555e-08
-6.93531e-09
-3.35053e-09
-5.49422e-10
-2.67929e-10
-5.23112e-11
-3.39886e-11
-7.36462e-12
-2.97077e-12
-2.40151e-12
-1.75581e-12
-1.68648e-12
-1.39379e-12
-1.36524e-12
-1.13876e-12
-1.11691e-12
-9.26991e-13
-9.08794e-13
-7.50158e-13
-7.35047e-13
-6.04175e-13
-5.91763e-13
-4.84889e-13
-4.74786e-13
-3.88156e-13
-3.79985e-13
-3.10133e-13
-3.03555e-13
-2.47441e-13
-2.42162e-13
-1.97201e-13
-1.92975e-13
-1.5702e-13
-1.53642e-13
-1.24928e-13
-1.22232e-13
-9.93286e-14
-9.7179e-14
-7.89303e-14
-7.72186e-14
-6.26965e-14
-6.13355e-14
-4.97976e-14
-4.8724e-14
-3.96025e-14
-3.88872e-14
-3.25786e-14
-5.27727e-14
-2.5962e-14
-2.02741e-14
-1.96735e-14
-1.61101e-14
-1.5773e-14
-1.30225e-14
-1.27669e-14
-1.06348e-14
-1.04375e-14
-8.79481e-15
-8.64328e-15
-7.38666e-15
-7.27057e-15
-6.3094e-15
-6.21514e-15
-5.38037e-15
-5.28878e-15
-4.37306e-15
-4.27452e-15
-3.29429e-15
-3.20042e-15
-2.39174e-15
-2.28337e-15
-1.00502e-15
-8.96404e-16
-5.46506e-17
-9.74222e-18
-2.19552e-18
-1.58507e-16
1.43742e-06
-1.15595e-06
-1.96985e-07
-6.34731e-08
-1.43698e-08
-4.92963e-09
-1.14091e-09
-3.94604e-10
-9.90604e-11
-4.27305e-11
-1.16144e-11
-4.1988e-12
-2.64719e-12
-1.86441e-12
-1.68842e-12
-1.41961e-12
-1.35244e-12
-1.15563e-12
-1.10501e-12
-9.40926e-13
-8.9882e-13
-7.61824e-13
-7.26864e-13
-6.1383e-13
-5.85114e-13
-4.92794e-13
-4.69416e-13
-3.94575e-13
-3.75666e-13
-3.15315e-13
-3.00092e-13
-2.51607e-13
-2.39391e-13
-2.00542e-13
-1.90762e-13
-1.59692e-13
-1.51875e-13
-1.27063e-13
-1.20824e-13
-1.01032e-13
-9.60578e-14
-8.02884e-14
-7.63269e-14
-6.37779e-14
-6.06286e-14
-5.06616e-14
-4.81814e-14
-4.03621e-14
-3.87761e-14
-3.45543e-14
-4.85729e-14
-2.75368e-14
-2.10386e-14
-1.95588e-14
-1.63976e-14
-1.56118e-14
-1.32299e-14
-1.26382e-14
-1.07951e-14
-1.03385e-14
-8.91858e-15
-8.56783e-15
-7.48132e-15
-7.21246e-15
-6.3795e-15
-6.16102e-15
-5.43658e-15
-5.22451e-15
-4.43443e-15
-4.20677e-15
-3.36455e-15
-3.14701e-15
-2.43825e-15
-2.18794e-15
-1.10099e-15
-8.51264e-16
-1.32076e-16
-2.77313e-17
-6.35607e-18
-1.59902e-16
1.41153e-06
-1.04598e-06
-2.57297e-07
-7.94135e-08
-2.02173e-08
-6.28243e-09
-1.61059e-09
-5.03205e-10
-1.36226e-10
-5.04586e-11
-1.49146e-11
-5.19175e-12
-2.86195e-12
-1.94868e-12
-1.69404e-12
-1.43736e-12
-1.34482e-12
-1.16665e-12
-1.09765e-12
-9.49974e-13
-8.92636e-13
-7.69402e-13
-7.21798e-13
-6.20108e-13
-5.81004e-13
-4.97937e-13
-4.66101e-13
-3.98753e-13
-3.73003e-13
-3.1869e-13
-2.97958e-13
-2.54321e-13
-2.37684e-13
-2.02718e-13
-1.89398e-13
-1.61434e-13
-1.50788e-13
-1.28455e-13
-1.19957e-13
-1.02143e-13
-9.53677e-14
-8.11735e-14
-7.57783e-14
-6.44828e-14
-6.01939e-14
-5.12257e-14
-4.78519e-14
-4.08721e-14
-3.87701e-14
-3.58002e-14
-4.57751e-14
-2.85298e-14
-2.16022e-14
-1.95113e-14
-1.65898e-14
-1.55142e-14
-1.33657e-14
-1.25595e-14
-1.08999e-14
-1.0278e-14
-8.99951e-15
-8.52175e-15
-7.54321e-15
-7.17686e-15
-6.42497e-15
-6.12709e-15
-5.47226e-15
-5.18332e-15
-4.47328e-15
-4.16358e-15
-3.4098e-15
-3.11323e-15
-2.4664e-15
-2.12596e-15
-1.16346e-15
-8.24895e-16
-1.84904e-16
-4.23992e-17
-9.86812e-18
-1.61087e-16
1.39336e-06
-9.75276e-07
-2.93175e-07
-9.06052e-08
-2.42536e-08
-7.26433e-09
-1.93753e-09
-5.82125e-10
-1.62119e-10
-5.617e-11
-1.71794e-11
-5.8882e-12
-3.0198e-12
-2.00652e-12
-1.69971e-12
-1.44851e-12
-1.3406e-12
-1.17328e-12
-1.09341e-12
-9.55396e-13
-8.89076e-13
-7.73946e-13
-7.18887e-13
-6.23875e-13
-5.78646e-13
-5.01025e-13
-4.64201e-13
-4.01263e-13
-3.71478e-13
-3.20717e-13
-2.96736e-13
-2.55952e-13
-2.36708e-13
-2.04026e-13
-1.88619e-13
-1.62481e-13
-1.50166e-13
-1.29291e-13
-1.19462e-13
-1.0281e-13
-9.49731e-14
-8.17056e-14
-7.54647e-14
-6.49067e-14
-5.99456e-14
-5.15653e-14
-4.76661e-14
-4.11865e-14
-3.87984e-14
-3.65278e-14
-4.40656e-14
-2.91098e-14
-2.19719e-14
-1.94967e-14
-1.6708e-14
-1.54595e-14
-1.34476e-14
-1.25148e-14
-1.09631e-14
-1.02436e-14
-9.04829e-15
-8.4956e-15
-7.58051e-15
-7.1566e-15
-6.4522e-15
-6.10737e-15
-5.49324e-15
-5.15892e-15
-4.49605e-15
-4.13811e-15
-3.43672e-15
-3.09342e-15
-2.48227e-15
-2.08885e-15
-1.20096e-15
-8.10571e-16
-2.17825e-16
-5.26643e-17
-1.23993e-17
-1.61947e-16
1.38402e-06
-9.40698e-07
-3.09869e-07
-9.63466e-08
-2.63145e-08
-7.77925e-09
-2.10541e-09
-6.2355e-10
-1.75422e-10
-5.91935e-11
-1.83331e-11
-6.24678e-12
-3.10314e-12
-2.03599e-12
-1.7031e-12
-1.4539e-12
-1.33874e-12
-1.1764e-12
-1.09148e-12
-9.57936e-13
-8.87456e-13
-7.76075e-13
-7.17563e-13
-6.2564e-13
-5.77574e-13
-5.02472e-13
-4.63339e-13
-4.0244e-13
-3.70785e-13
-3.21668e-13
-2.96182e-13
-2.56717e-13
-2.36265e-13
-2.0464e-13
-1.88265e-13
-1.62972e-13
-1.49884e-13
-1.29684e-13
-1.19237e-13
-1.03123e-13
-9.47944e-14
-8.19553e-14
-7.53226e-14
-6.51057e-14
-5.98332e-14
-5.17249e-14
-4.75828e-14
-4.13365e-14
-3.88214e-14
-3.68625e-14
-4.32553e-14
-2.93766e-14
-2.21548e-14
-1.94943e-14
-1.67644e-14
-1.5435e-14
-1.34862e-14
-1.24946e-14
-1.09927e-14
-1.02281e-14
-9.07123e-15
-8.48382e-15
-7.59806e-15
-7.14745e-15
-6.46495e-15
-6.09832e-15
-5.50293e-15
-5.14758e-15
-4.50656e-15
-4.1263e-15
-3.44926e-15
-3.08427e-15
-2.48939e-15
-2.07148e-15
-1.21853e-15
-8.04327e-16
-2.33634e-16
-5.79289e-17
-1.37223e-17
-1.62399e-16
1.38402e-06
-9.40698e-07
-3.09869e-07
-9.63465e-08
-2.63144e-08
-7.7792e-09
-2.10538e-09
-6.23539e-10
-1.75417e-10
-5.91921e-11
-1.83327e-11
-6.24664e-12
-3.10309e-12
-2.03598e-12
-1.7031e-12
-1.4539e-12
-1.33874e-12
-1.1764e-12
-1.09148e-12
-9.57936e-13
-8.87456e-13
-7.76075e-13
-7.17563e-13
-6.2564e-13
-5.77574e-13
-5.02472e-13
-4.63339e-13
-4.0244e-13
-3.70786e-13
-3.21668e-13
-2.96182e-13
-2.56717e-13
-2.36265e-13
-2.0464e-13
-1.88265e-13
-1.62972e-13
-1.49884e-13
-1.29684e-13
-1.19237e-13
-1.03123e-13
-9.47944e-14
-8.19553e-14
-7.53226e-14
-6.51057e-14
-5.98333e-14
-5.17249e-14
-4.75828e-14
-4.13365e-14
-3.88214e-14
-3.68626e-14
-4.32553e-14
-2.93766e-14
-2.21548e-14
-1.94943e-14
-1.67644e-14
-1.5435e-14
-1.34862e-14
-1.24946e-14
-1.09927e-14
-1.02281e-14
-9.07124e-15
-8.48382e-15
-7.59806e-15
-7.14745e-15
-6.46496e-15
-6.09832e-15
-5.50293e-15
-5.14758e-15
-4.50656e-15
-4.1263e-15
-3.44926e-15
-3.08427e-15
-2.48939e-15
-2.07148e-15
-1.21853e-15
-8.04326e-16
-2.33633e-16
-5.79285e-17
-1.37222e-17
-1.62398e-16
1.39336e-06
-9.75277e-07
-2.93175e-07
-9.0605e-08
-2.42534e-08
-7.2642e-09
-1.93747e-09
-5.82097e-10
-1.62108e-10
-5.61662e-11
-1.71781e-11
-5.8878e-12
-3.01968e-12
-2.00648e-12
-1.6997e-12
-1.44851e-12
-1.3406e-12
-1.17328e-12
-1.09341e-12
-9.55397e-13
-8.89077e-13
-7.73946e-13
-7.18887e-13
-6.23875e-13
-5.78646e-13
-5.01025e-13
-4.64201e-13
-4.01263e-13
-3.71478e-13
-3.20717e-13
-2.96736e-13
-2.55952e-13
-2.36708e-13
-2.04026e-13
-1.88619e-13
-1.62481e-13
-1.50166e-13
-1.29291e-13
-1.19462e-13
-1.0281e-13
-9.49732e-14
-8.17056e-14
-7.54647e-14
-6.49067e-14
-5.99457e-14
-5.15653e-14
-4.76662e-14
-4.11865e-14
-3.87984e-14
-3.65279e-14
-4.40656e-14
-2.91098e-14
-2.19719e-14
-1.94967e-14
-1.6708e-14
-1.54595e-14
-1.34476e-14
-1.25148e-14
-1.09631e-14
-1.02436e-14
-9.0483e-15
-8.49561e-15
-7.58052e-15
-7.15661e-15
-6.45221e-15
-6.10737e-15
-5.49324e-15
-5.15892e-15
-4.49605e-15
-4.13811e-15
-3.43672e-15
-3.09342e-15
-2.48227e-15
-2.08885e-15
-1.20095e-15
-8.10569e-16
-2.17823e-16
-5.26632e-17
-1.2399e-17
-1.61946e-16
1.41153e-06
-1.04598e-06
-2.57297e-07
-7.94133e-08
-2.02171e-08
-6.28227e-09
-1.61051e-09
-5.03169e-10
-1.36212e-10
-5.04536e-11
-1.49129e-11
-5.19124e-12
-2.86179e-12
-1.94864e-12
-1.69403e-12
-1.43735e-12
-1.34482e-12
-1.16665e-12
-1.09765e-12
-9.49974e-13
-8.92636e-13
-7.69403e-13
-7.21799e-13
-6.20108e-13
-5.81004e-13
-4.97937e-13
-4.66101e-13
-3.98754e-13
-3.73003e-13
-3.1869e-13
-2.97958e-13
-2.54321e-13
-2.37684e-13
-2.02718e-13
-1.89399e-13
-1.61434e-13
-1.50788e-13
-1.28455e-13
-1.19957e-13
-1.02143e-13
-9.53677e-14
-8.11735e-14
-7.57783e-14
-6.44829e-14
-6.01939e-14
-5.12257e-14
-4.7852e-14
-4.08722e-14
-3.87702e-14
-3.58002e-14
-4.57751e-14
-2.85299e-14
-2.16022e-14
-1.95113e-14
-1.65898e-14
-1.55143e-14
-1.33657e-14
-1.25595e-14
-1.08999e-14
-1.0278e-14
-8.99951e-15
-8.52176e-15
-7.54321e-15
-7.17687e-15
-6.42498e-15
-6.1271e-15
-5.47226e-15
-5.18333e-15
-4.47328e-15
-4.16358e-15
-3.4098e-15
-3.11323e-15
-2.4664e-15
-2.12596e-15
-1.16346e-15
-8.24893e-16
-1.84902e-16
-4.23978e-17
-9.86775e-18
-1.61086e-16
1.43742e-06
-1.15595e-06
-1.96985e-07
-6.34729e-08
-1.43696e-08
-4.9295e-09
-1.14084e-09
-3.94573e-10
-9.90482e-11
-4.27261e-11
-1.1613e-11
-4.19835e-12
-2.64705e-12
-1.86437e-12
-1.68841e-12
-1.41961e-12
-1.35244e-12
-1.15563e-12
-1.10501e-12
-9.40926e-13
-8.98821e-13
-7.61824e-13
-7.26864e-13
-6.1383e-13