/*--------------------------------*- C++ -*----------------------------------*\
| =========                 |                                                 |
| \\      /  F ield         | OpenFOAM: The Open Source CFD Toolbox           |
|  \\    /   O peration     | Version:  5.x                                   |
|   \\  /    A nd           | Web:      www.OpenFOAM.org                      |
|    \\/     M anipulation  |                                                 |
\*---------------------------------------------------------------------------*/
FoamFile
{
    version     2.0;
    format      ascii;
    class       volScalarField;
    location    "4";
    object      T;
}
// * * * * * * * * * * * * * * * * * * * * * * * * * * * * * * * * * * * * * //

dimensions      [0 0 0 1 0 0 0];

internalField   nonuniform List<scalar> 
3200
(
1.00327e-11
3.88829e-12
3.53159e-12
2.48436e-12
2.37484e-12
1.43546e-12
1.36696e-12
9.99748e-13
9.6561e-13
7.06295e-13
5.28912e-13
5.12183e-13
3.92361e-13
3.81438e-13
2.93964e-13
2.85977e-13
2.20889e-13
2.1493e-13
1.66095e-13
1.61617e-13
1.24804e-13
1.21425e-13
9.36121e-14
9.10586e-14
7.00315e-14
6.81015e-14
5.22131e-14
5.07557e-14
3.87675e-14
3.76689e-14
2.86434e-14
2.78173e-14
2.10419e-14
2.04226e-14
1.53546e-14
1.48922e-14
1.11177e-14
1.07741e-14
7.97747e-15
7.72353e-15
5.6643e-15
5.47789e-15
3.97292e-15
3.83719e-15
2.7472e-15
2.64933e-15
1.86852e-15
1.7987e-15
1.24648e-15
1.19579e-15
8.00872e-16
5.22379e-16
4.96916e-16
3.22178e-16
3.06998e-16
1.94135e-16
1.84489e-16
1.13575e-16
1.07585e-16
6.44316e-17
6.0827e-17
3.54021e-17
3.33e-17
1.87788e-17
1.75894e-17
9.5367e-18
8.8832e-18
4.54664e-18
4.1984e-18
1.94063e-18
1.76217e-18
6.43976e-19
5.605e-19
1.0363e-19
7.36998e-20
-2.53278e-20
-3.11355e-20
-3.21557e-20
-3.23872e-20
-3.2439e-20
9.3727e-12
4.36967e-12
3.55868e-12
2.57781e-12
2.31995e-12
1.51368e-12
1.35498e-12
1.02934e-12
9.49255e-13
7.14929e-13
5.45877e-13
5.0624e-13
4.01716e-13
3.76365e-13
3.00624e-13
2.82128e-13
2.25822e-13
2.12026e-13
1.6979e-13
1.59422e-13
1.27587e-13
1.19764e-13
9.57136e-14
8.98025e-14
7.16204e-14
6.71527e-14
5.34141e-14
5.00404e-14
3.96742e-14
3.7131e-14
2.93265e-14
2.74141e-14
2.15552e-14
2.01217e-14
1.5739e-14
1.46687e-14
1.14044e-14
1.06089e-14
8.19027e-15
7.60236e-15
5.82131e-15
5.38973e-15
4.08795e-15
3.77368e-15
2.83076e-15
2.60413e-15
1.92853e-15
1.7668e-15
1.28817e-15
1.16993e-15
8.13122e-16
5.49059e-16
4.88765e-16
3.36226e-16
3.00974e-16
2.031e-16
1.80741e-16
1.19244e-16
1.0536e-16
6.79095e-17
5.95504e-17
3.74673e-17
3.25908e-17
1.99671e-17
1.7207e-17
1.02005e-17
8.68328e-18
4.90687e-18
4.09806e-18
2.13014e-18
1.71552e-18
7.40455e-19
5.4635e-19
1.45765e-19
7.58169e-20
-1.47935e-20
-2.86792e-20
-3.15795e-20
-3.22499e-20
-3.24e-20
8.91278e-12
4.68333e-12
3.59253e-12
2.64232e-12
2.28698e-12
1.56599e-12
1.34967e-12
1.0491e-12
9.39063e-13
7.20946e-13
5.5766e-13
5.02888e-13
4.07901e-13
3.73306e-13
3.04993e-13
2.79789e-13
2.29053e-13
2.10258e-13
1.72209e-13
1.58084e-13
1.29408e-13
1.18752e-13
9.70888e-14
8.90366e-14
7.26601e-14
6.65742e-14
5.42001e-14
4.96043e-14
4.02677e-14
3.68033e-14
2.97737e-14
2.71686e-14
2.18913e-14
1.99386e-14
1.59908e-14
1.45327e-14
1.15923e-14
1.05086e-14
8.32976e-15
7.52886e-15
5.92428e-15
5.33633e-15
4.16344e-15
3.73529e-15
2.88563e-15
2.57686e-15
1.96798e-15
1.74757e-15
1.31543e-15
1.1536e-15
8.21655e-16
5.67584e-16
4.84299e-16
3.45578e-16
2.97452e-16
2.09044e-16
1.78558e-16
1.23008e-16
1.04075e-16
7.02231e-17
5.88224e-17
3.88439e-17
3.21912e-17
2.07607e-17
1.69943e-17
1.06446e-17
8.57364e-18
5.14834e-18
4.04404e-18
2.2575e-18
1.69127e-18
8.05685e-19
5.40454e-19
1.7467e-19
7.87585e-20
-7.32915e-21
-2.66625e-20
-3.10926e-20
-3.21332e-20
-3.23668e-20
8.62199e-12
4.8714e-12
3.62073e-12
2.68299e-12
2.26861e-12
1.59809e-12
1.34771e-12
1.06122e-12
9.33182e-13
7.2476e-13
5.65094e-13
5.01138e-13
4.11665e-13
3.7159e-13
3.07633e-13
2.78468e-13
2.31003e-13
2.09257e-13
1.73668e-13
1.57326e-13
1.30506e-13
1.18178e-13
9.79184e-14
8.86026e-14
7.32873e-14
6.62464e-14
5.46742e-14
4.93573e-14
4.06257e-14
3.66177e-14
3.00436e-14
2.70297e-14
2.20942e-14
1.9835e-14
1.61428e-14
1.44559e-14
1.17057e-14
1.0452e-14
8.41403e-15
7.48741e-15
5.98652e-15
5.30626e-15
4.20909e-15
3.71371e-15
2.91883e-15
2.56158e-15
1.99185e-15
1.73678e-15
1.33186e-15
1.14407e-15
8.27062e-16
5.79268e-16
4.82043e-16
3.51302e-16
2.95538e-16
2.12667e-16
1.77376e-16
1.25305e-16
1.03387e-16
7.16375e-17
5.84366e-17
3.9687e-17
3.19823e-17
2.12475e-17
1.68847e-17
1.09173e-17
8.51806e-18
5.29688e-18
4.01726e-18
2.336e-18
1.67977e-18
8.46083e-19
5.38569e-19
1.92776e-19
8.13042e-20
-2.53624e-21
-2.52424e-20
-3.07412e-20
-3.20486e-20
-3.23427e-20
8.48118e-12
4.95941e-12
3.63636e-12
2.7027e-12
2.26045e-12
1.61335e-12
1.34718e-12
1.06699e-12
9.30503e-13
7.26612e-13
5.6869e-13
5.004e-13
4.13446e-13
3.70823e-13
3.08876e-13
2.77875e-13
2.31921e-13
2.08808e-13
1.74354e-13
1.56985e-13
1.31023e-13
1.1792e-13
9.83086e-14
8.84072e-14
7.35823e-14
6.60988e-14
5.48972e-14
4.92462e-14
4.07941e-14
3.65342e-14
3.01706e-14
2.69672e-14
2.21897e-14
1.97884e-14
1.62144e-14
1.44214e-14
1.17592e-14
1.04266e-14
8.4537e-15
7.46882e-15
6.01583e-15
5.29279e-15
4.23059e-15
3.70405e-15
2.93448e-15
2.55474e-15
2.00311e-15
1.73196e-15
1.33958e-15
1.13968e-15
8.29687e-16
5.84919e-16
4.81121e-16
3.54021e-16
2.94704e-16
2.14383e-16
1.76861e-16
1.26394e-16
1.0309e-16
7.23088e-17
5.82718e-17
4.00874e-17
3.1894e-17
2.14789e-17
1.68389e-17
1.10472e-17
8.4952e-18
5.36765e-18
4.00647e-18
2.37345e-18
1.67533e-18
8.65413e-19
5.38202e-19
2.01501e-19
8.2741e-20
-1.90312e-22
-2.4511e-20
-3.05574e-20
-3.20042e-20
-3.233e-20
8.48119e-12
4.95941e-12
3.63636e-12
2.70269e-12
2.26045e-12
1.61335e-12
1.34718e-12
1.06699e-12
9.30502e-13
7.26612e-13
5.6869e-13
5.004e-13
4.13446e-13
3.70823e-13
3.08876e-13
2.77875e-13
2.31921e-13
2.08808e-13
1.74354e-13
1.56985e-13
1.31023e-13
1.1792e-13
9.83086e-14
8.84072e-14
7.35823e-14
6.60988e-14
5.48972e-14
4.92462e-14
4.07941e-14
3.65342e-14
3.01706e-14
2.69672e-14
2.21897e-14
1.97884e-14
1.62144e-14
1.44214e-14
1.17592e-14
1.04266e-14
8.4537e-15
7.46882e-15
6.01583e-15
5.29279e-15
4.23059e-15
3.70405e-15
2.93448e-15
2.55474e-15
2.00311e-15
1.73196e-15
1.33958e-15
1.13968e-15
8.29687e-16
5.84919e-16
4.8112e-16
3.5402e-16
2.94704e-16
2.14383e-16
1.76861e-16
1.26394e-16
1.0309e-16
7.23087e-17
5.82718e-17
4.00874e-17
3.1894e-17
2.14789e-17
1.68389e-17
1.10471e-17
8.4952e-18
5.36765e-18
4.00646e-18
2.37345e-18
1.67533e-18
8.65412e-19
5.38202e-19
2.015e-19
8.27406e-20
-1.90519e-22
-2.45112e-20
-3.05575e-20
-3.20042e-20
-3.233e-20
8.62201e-12
4.8714e-12
3.62073e-12
2.68299e-12
2.26861e-12
1.59809e-12
1.34771e-12
1.06122e-12
9.33182e-13
7.2476e-13
5.65094e-13
5.01138e-13
4.11665e-13
3.7159e-13
3.07633e-13
2.78468e-13
2.31003e-13
2.09257e-13
1.73668e-13
1.57326e-13
1.30506e-13
1.18178e-13
9.79184e-14
8.86026e-14
7.32873e-14
6.62464e-14
5.46742e-14
4.93573e-14
4.06257e-14
3.66177e-14
3.00436e-14
2.70297e-14
2.20942e-14
1.9835e-14
1.61428e-14
1.44559e-14
1.17057e-14
1.0452e-14
8.41403e-15
7.48741e-15
5.98652e-15
5.30626e-15
4.20909e-15
3.71371e-15
2.91883e-15
2.56158e-15
1.99185e-15
1.73678e-15
1.33186e-15
1.14407e-15
8.27062e-16
5.79268e-16
4.82043e-16
3.51302e-16
2.95538e-16
2.12667e-16
1.77376e-16
1.25305e-16
1.03387e-16
7.16375e-17
5.84366e-17
3.96869e-17
3.19823e-17
2.12475e-17
1.68846e-17
1.09173e-17
8.51805e-18
5.29687e-18
4.01725e-18
2.33599e-18
1.67976e-18
8.4608e-19
5.38567e-19
1.92774e-19
8.13033e-20
-2.5368e-21
-2.52427e-20
-3.07414e-20
-3.20487e-20
-3.23427e-20
8.9128e-12
4.68333e-12
3.59253e-12
2.64231e-12
2.28698e-12
1.56599e-12
1.34967e-12
1.0491e-12
9.39063e-13
7.20946e-13
5.57659e-13
5.02888e-13
4.07901e-13
3.73306e-13
3.04993e-13
2.79789e-13
2.29053e-13
2.10258e-13
1.72209e-13
1.58084e-13
1.29408e-13
1.18752e-13
9.70889e-14
8.90366e-14
7.26601e-14
6.65742e-14
5.42001e-14
4.96044e-14
4.02677e-14
3.68033e-14
2.97738e-14
2.71686e-14
2.18913e-14
1.99386e-14
1.59908e-14
1.45327e-14
1.15923e-14
1.05086e-14
8.32976e-15
7.52886e-15
5.92429e-15
5.33633e-15
4.16344e-15
3.73529e-15
2.88563e-15
2.57686e-15
1.96798e-15
1.74757e-15
1.31543e-15
1.1536e-15
8.21655e-16
5.67583e-16
4.84298e-16
3.45578e-16
2.97452e-16
2.09043e-16
1.78558e-16
1.23008e-16
1.04075e-16
7.0223e-17
5.88223e-17
3.88439e-17
3.21912e-17
2.07607e-17
1.69943e-17
1.06445e-17
8.57363e-18
5.14833e-18
4.04404e-18
2.25749e-18
1.69126e-18
8.05681e-19
5.40451e-19
1.74669e-19
7.87573e-20
-7.32987e-21
-2.66629e-20
-3.10928e-20
-3.21333e-20
-3.23668e-20
9.37272e-12
4.36967e-12
3.55868e-12
2.57781e-12
2.31995e-12
1.51368e-12
1.35498e-12
1.02934e-12
9.49255e-13
7.14929e-13
5.45877e-13
5.0624e-13
4.01716e-13
3.76366e-13
3.00624e-13
2.82128e-13
2.25822e-13
2.12026e-13
1.6979e-13
1.59422e-13
1.27587e-13
1.19764e-13
9.57137e-14
8.98025e-14
7.16204e-14
6.71527e-14
5.34141e-14
5.00404e-14
3.96742e-14
3.7131e-14
2.93265e-14
2.74141e-14
2.15552e-14
2.01217e-14
1.5739e-14
1.46687e-14
1.14044e-14
1.06089e-14
8.19027e-15
7.60236e-15
5.82131e-15
5.38973e-15
4.08795e-15
3.77368e-15
2.83076e-15
2.60413e-15
1.92853e-15
1.7668e-15
1.28817e-15
1.16993e-15
8.13121e-16
5.49059e-16
4.88764e-16
3.36225e-16
3.00974e-16
2.031e-16
1.80741e-16
1.19244e-16
1.05359e-16
6.79094e-17
5.95504e-17
3.74673e-17
3.25908e-17
1.99671e-17
1.7207e-17
1.02005e-17
8.68326e-18
4.90686e-18
4.09805e-18
2.13014e-18
1.71551e-18
7.40452e-19
5.46348e-19
1.45763e-19
7.58158e-20
-1.47942e-20
-2.86795e-20
-3.15797e-20
-3.225e-20
-3.23999e-20
1.00327e-11
3.8883e-12
3.53159e-12
2.48437e-12
2.37484e-12
1.43546e-12
1.36696e-12
9.99748e-13
9.6561e-13
7.06295e-13
5.28912e-13
5.12183e-13
3.92361e-13
3.81438e-13
2.93964e-13
2.85977e-13
2.20889e-13
2.1493e-13
1.66096e-13
1.61617e-13
1.24804e-13
1.21425e-13
9.36121e-14
9.10586e-14
7.00315e-14
6.81015e-14
5.22131e-14
5.07557e-14
3.87675e-14
3.76689e-14
2.86434e-14
2.78173e-14
2.10419e-14
2.04226e-14
1.53546e-14
1.48922e-14
1.11177e-14
1.07741e-14
7.97748e-15
7.72353e-15
5.66431e-15
5.47789e-15
3.97293e-15
3.83719e-15
2.7472e-15
2.64933e-15
1.86852e-15
1.7987e-15
1.24648e-15
1.19579e-15
8.00871e-16
5.22379e-16
4.96916e-16
3.22178e-16
3.06998e-16
1.94135e-16
1.84489e-16
1.13575e-16
1.07585e-16
6.44316e-17
6.0827e-17
3.54021e-17
3.33e-17
1.87787e-17
1.75894e-17
9.5367e-18
8.8832e-18
4.54664e-18
4.1984e-18
1.94063e-18
1.76216e-18
6.43975e-19
5.60499e-19
1.03629e-19
7.36994e-20
-2.53281e-20
-3.11356e-20
-3.21557e-20
-3.23873e-20
-3.2439e-20
1.35728e-07
1.11137e-08
4.77741e-09
7.54914e-10
3.6608e-10
6.20059e-11
3.13936e-11
7.11453e-12
4.62633e-12
1.883e-12
1.22053e-12
1.14152e-12
9.18791e-13
8.96747e-13
7.39172e-13
7.24121e-13
5.96391e-13
5.84252e-13
4.7969e-13
4.69786e-13
3.84667e-13
3.76626e-13
3.07753e-13
3.0126e-13
2.45795e-13
2.40573e-13
1.9606e-13
1.91874e-13
1.56241e-13
1.52892e-13
1.2442e-13
1.21746e-13
9.90289e-14
9.68965e-14
7.87906e-14
7.70918e-14
6.26746e-14
6.13223e-14
4.98514e-14
4.87758e-14
3.96553e-14
3.88003e-14
3.15528e-14
3.08735e-14
2.51167e-14
2.45771e-14
2.00047e-14
1.95753e-14
1.59393e-14
1.55833e-14
1.2595e-14
1.01662e-14
9.93009e-15
8.08518e-15
7.91075e-15
6.4317e-15
6.29188e-15
5.09524e-15
4.98166e-15
4.00395e-15
3.91063e-15
3.10163e-15
3.02387e-15
2.34398e-15
2.27815e-15
1.6971e-15
1.64097e-15
1.14585e-15
1.09914e-15
6.98149e-16
6.61554e-16
3.61082e-16
3.34114e-16
1.16601e-16
1.00726e-16
1.38917e-17
9.11889e-18
8.30665e-18
8.12327e-18
8.08227e-18
1.22429e-07
2.12506e-08
6.88014e-09
1.56211e-09
5.3758e-10
1.26219e-10
4.50698e-11
1.22269e-11
5.64461e-12
2.32468e-12
1.36629e-12
1.15837e-12
9.41762e-13
8.89082e-13
7.51246e-13
7.16301e-13
6.05842e-13
5.77746e-13
4.87416e-13
4.64499e-13
3.90966e-13
3.7236e-13
3.12858e-13
2.97833e-13
2.49911e-13
2.37828e-13
1.99366e-13
1.89679e-13
1.58889e-13
1.5114e-13
1.26537e-13
1.2035e-13
1.00719e-13
9.57839e-14
8.01378e-14
7.62062e-14
6.37476e-14
6.0618e-14
5.07053e-14
4.8216e-14
4.03344e-14
3.83556e-14
3.20925e-14
3.05204e-14
2.55454e-14
2.42965e-14
2.03447e-14
1.93504e-14
1.62013e-14
1.53699e-14
1.26542e-14
1.03838e-14
9.82763e-15
8.22437e-15
7.82007e-15
6.54138e-15
6.21776e-15
5.18361e-15
4.92075e-15
4.07586e-15
3.85989e-15
3.16083e-15
2.98088e-15
2.39346e-15
2.24115e-15
1.73937e-15
1.60953e-15
1.18233e-15
1.0743e-15
7.28318e-16
6.43664e-16
3.84046e-16
3.21702e-16
1.34784e-16
9.8063e-17
2.22619e-17
1.10676e-17
8.76415e-18
8.23352e-18
8.11458e-18
1.13176e-07
2.79149e-08
8.62065e-09
2.19751e-09
6.84524e-10
1.7721e-10
5.68088e-11
1.62872e-11
6.5318e-12
2.67171e-12
1.48197e-12
1.17554e-12
9.58165e-13
8.84815e-13
7.59198e-13
7.11497e-13
6.11994e-13
5.73726e-13
4.92442e-13
4.61233e-13
3.95066e-13
3.69728e-13
3.16182e-13
2.9572e-13
2.52592e-13
2.36136e-13
2.0152e-13
1.88327e-13
1.60614e-13
1.50061e-13
1.27917e-13
1.1949e-13
1.0182e-13
9.5099e-14
8.10158e-14
7.56612e-14
6.44469e-14
6.01847e-14
5.12619e-14
4.78716e-14
4.0777e-14
3.80821e-14
3.24443e-14
3.03031e-14
2.58248e-14
2.41239e-14
2.05662e-14
1.92116e-14
1.63705e-14
1.52317e-14
1.26955e-14
1.05329e-14
9.76699e-15
8.31553e-15
7.76431e-15
6.6128e-15
6.17201e-15
5.2411e-15
4.88309e-15
4.12259e-15
3.82844e-15
3.19925e-15
2.95417e-15
2.42552e-15
2.2181e-15
1.76675e-15
1.58998e-15
1.20604e-15
1.05898e-15
7.48028e-16
6.32768e-16
3.99114e-16
3.14271e-16
1.46956e-16
9.69618e-17
2.80471e-17
1.26602e-17
9.15055e-18
8.32718e-18
8.14206e-18
1.07334e-07
3.19403e-08
9.84615e-09
2.63641e-09
7.91195e-10
2.12706e-10
6.53453e-11
1.91142e-11
7.18231e-12
2.91163e-12
1.56223e-12
1.18912e-12
9.68788e-13
8.82626e-13
7.64024e-13
7.08756e-13
6.15688e-13
5.71419e-13
4.95458e-13
4.5936e-13
3.97528e-13
3.6822e-13
3.18179e-13
2.9451e-13
2.54202e-13
2.35168e-13
2.02814e-13
1.87554e-13
1.61651e-13
1.49444e-13
1.28746e-13
1.18998e-13
1.02482e-13
9.47075e-14
8.15436e-14
7.53497e-14
6.48674e-14
5.9937e-14
5.15965e-14
4.76748e-14
4.10432e-14
3.79257e-14
3.26559e-14
3.0179e-14
2.59928e-14
2.40252e-14
2.06994e-14
1.9132e-14
1.64714e-14
1.51492e-14
1.27217e-14
1.06259e-14
9.73364e-15
8.37058e-15
7.73247e-15
6.65571e-15
6.14579e-15
5.2756e-15
4.86147e-15
4.1506e-15
3.81035e-15
3.22225e-15
2.93877e-15
2.44469e-15
2.20478e-15
1.78313e-15
1.5787e-15
1.22025e-15
1.05021e-15
7.59899e-16
6.266e-16
4.08225e-16
3.10134e-16
1.54434e-16
9.66156e-17
3.16902e-17
1.37773e-17
9.42918e-18
8.39512e-18
8.16201e-18
1.04508e-07
3.38334e-08
1.0476e-08
2.86061e-09
8.47141e-10
2.30932e-10
6.98275e-11
2.0566e-11
7.52529e-12
3.03435e-12
1.60331e-12
1.19653e-12
9.74021e-13
8.81719e-13
7.66303e-13
7.07516e-13
6.17421e-13
5.70371e-13
4.96873e-13
4.5851e-13
3.98682e-13
3.67535e-13
3.19115e-13
2.93961e-13
2.54958e-13
2.34729e-13
2.03421e-13
1.87203e-13
1.62138e-13
1.49165e-13
1.29135e-13
1.18775e-13
1.02792e-13
9.45301e-14
8.17913e-14
7.52086e-14
6.50647e-14
5.98248e-14
5.17536e-14
4.75856e-14
4.11681e-14
3.78549e-14
3.27551e-14
3.01228e-14
2.60717e-14
2.39805e-14
2.07618e-14
1.90959e-14
1.65185e-14
1.51107e-14
1.27344e-14
1.06706e-14
9.71898e-15
8.39649e-15
7.71805e-15
6.67584e-15
6.13389e-15
5.29177e-15
4.85164e-15
4.16373e-15
3.80212e-15
3.23302e-15
2.93175e-15
2.45366e-15
2.1987e-15
1.79079e-15
1.57355e-15
1.22691e-15
1.04622e-15
7.65477e-16
6.23825e-16
4.12516e-16
3.08296e-16
1.57992e-16
9.65515e-17
3.34515e-17
1.4351e-17
9.57486e-18
8.4308e-18
8.17248e-18
1.04508e-07
3.38334e-08
1.0476e-08
2.8606e-09
8.47135e-10
2.3093e-10
6.98263e-11
2.05655e-11
7.52513e-12
3.0343e-12
1.60329e-12
1.19653e-12
9.7402e-13
8.81718e-13
7.66303e-13
7.07516e-13
6.17421e-13
5.70371e-13
4.96873e-13
4.5851e-13
3.98682e-13
3.67536e-13
3.19115e-13
2.93961e-13
2.54958e-13
2.34729e-13
2.03422e-13
1.87203e-13
1.62138e-13
1.49165e-13
1.29135e-13
1.18775e-13
1.02793e-13
9.45301e-14
8.17913e-14
7.52086e-14
6.50647e-14
5.98248e-14
5.17536e-14
4.75857e-14
4.11681e-14
3.78549e-14
3.27551e-14
3.01228e-14
2.60717e-14
2.39806e-14
2.07618e-14
1.90959e-14
1.65185e-14
1.51107e-14
1.27344e-14
1.06706e-14
9.71898e-15
8.3965e-15
7.71805e-15
6.67584e-15
6.13389e-15
5.29177e-15
4.85164e-15
4.16373e-15
3.80212e-15
3.23302e-15
2.93175e-15
2.45366e-15
2.1987e-15
1.79079e-15
1.57355e-15
1.22691e-15
1.04622e-15
7.65477e-16
6.23824e-16
4.12516e-16
3.08296e-16
1.57992e-16
9.65514e-17
3.34514e-17
1.43509e-17
9.57483e-18
8.43079e-18
8.17247e-18
1.07335e-07
3.19403e-08
9.84611e-09
2.63639e-09
7.91179e-10
2.12698e-10
6.53421e-11
1.9113e-11
7.18188e-12
2.91149e-12
1.56218e-12
1.1891e-12
9.68785e-13
8.82625e-13
7.64024e-13
7.08756e-13
6.15689e-13
5.71419e-13
4.95459e-13
4.5936e-13
3.97528e-13
3.6822e-13
3.18179e-13
2.9451e-13
2.54202e-13
2.35168e-13
2.02814e-13
1.87554e-13
1.61651e-13
1.49444e-13
1.28746e-13
1.18998e-13
1.02482e-13
9.47075e-14
8.15436e-14
7.53498e-14
6.48674e-14
5.9937e-14
5.15966e-14
4.76748e-14
4.10432e-14
3.79258e-14
3.26559e-14
3.0179e-14
2.59929e-14
2.40252e-14
2.06994e-14
1.9132e-14
1.64714e-14
1.51492e-14
1.27217e-14
1.06259e-14
9.73365e-15
8.37058e-15
7.73247e-15
6.65571e-15
6.1458e-15
5.2756e-15
4.86147e-15
4.15061e-15
3.81035e-15
3.22225e-15
2.93877e-15
2.44469e-15
2.20478e-15
1.78313e-15
1.5787e-15
1.22025e-15
1.05021e-15
7.59899e-16
6.26599e-16
4.08224e-16
3.10133e-16
1.54433e-16
9.66153e-17
3.169e-17
1.37771e-17
9.42911e-18
8.39509e-18
8.16197e-18
1.13177e-07
2.79149e-08
8.62061e-09
2.19748e-09
6.84504e-10
1.772e-10
5.68046e-11
1.62856e-11
6.53125e-12
2.67153e-12
1.48192e-12
1.17553e-12
9.58161e-13
8.84814e-13
7.59198e-13
7.11497e-13
6.11994e-13
5.73726e-13
4.92442e-13
4.61233e-13
3.95066e-13
3.69729e-13
3.16182e-13
2.9572e-13
2.52592e-13
2.36137e-13
2.0152e-13
1.88328e-13
1.60614e-13
1.50061e-13
1.27917e-13
1.1949e-13
1.0182e-13
9.50991e-14
8.10158e-14
7.56613e-14
6.4447e-14
6.01847e-14
5.12619e-14
4.78717e-14
4.07771e-14
3.80821e-14
3.24444e-14
3.03031e-14
2.58248e-14
2.41239e-14
2.05662e-14
1.92116e-14
1.63705e-14
1.52317e-14
1.26955e-14
1.05329e-14
9.76699e-15
8.31554e-15
7.76432e-15
6.6128e-15
6.17201e-15
5.2411e-15
4.88309e-15
4.12259e-15
3.82844e-15
3.19925e-15
2.95418e-15
2.42552e-15
2.2181e-15
1.76675e-15
1.58998e-15
1.20604e-15
1.05898e-15
7.48027e-16
6.32768e-16
3.99114e-16
3.1427e-16
1.46956e-16
9.69613e-17
2.80468e-17
1.26601e-17
9.15046e-18
8.32714e-18
8.14201e-18
1.22429e-07
2.12506e-08
6.8801e-09
1.56209e-09
5.37563e-10
1.2621e-10
4.50662e-11
1.22256e-11
5.64413e-12
2.32452e-12
1.36624e-12
1.15836e-12
9.41759e-13
8.89081e-13
7.51246e-13
7.16302e-13
6.05842e-13
5.77747e-13
4.87416e-13
4.64499e-13
3.90967e-13
3.72361e-13
3.12859e-13
2.97834e-13
2.49911e-13
2.37828e-13
1.99367e-13
1.8968e-13
1.58889e-13
1.5114e-13
1.26537e-13
1.2035e-13
1.00719e-13
9.57839e-14
8.01379e-14
7.62063e-14
6.37477e-14
6.06181e-14
5.07054e-14
4.82161e-14
4.03344e-14
3.83557e-14
3.20926e-14
3.05204e-14
2.55454e-14
2.42965e-14
2.03447e-14
1.93504e-14
1.62013e-14
1.53699e-14
1.26542e-14
1.03839e-14
9.82764e-15
8.22438e-15
7.82008e-15
6.54138e-15
6.21776e-15
5.18362e-15
4.92075e-15
4.07587e-15
3.85989e-15
3.16083e-15
2.98089e-15
2.39346e-15
2.24115e-15
1.73937e-15
1.60953e-15
1.18233e-15
1.0743e-15
7.28318e-16
6.43664e-16
3.84045e-16
3.21701e-16
1.34783e-16
9.80626e-17
2.22616e-17
1.10674e-17
8.76408e-18
8.23349e-18
8.11454e-18
1.35728e-07
1.11137e-08
4.7774e-09
7.54902e-10
3.66073e-10
6.20025e-11
3.13922e-11
7.11398e-12
4.62614e-12
1.88294e-12
1.22051e-12
1.14151e-12
9.18789e-13
8.96747e-13
7.39172e-13
7.24121e-13
5.96391e-13
5.84252e-13
4.7969e-13
4.69786e-13
3.84667e-13
3.76626e-13
3.07753e-13
3.0126e-13
2.45795e-13
2.40574e-13
1.9606e-13
1.91874e-13
1.56241e-13
1.52892e-13
1.2442e-13
1.21746e-13
9.90289e-14
9.68965e-14
7.87907e-14
7.70918e-14
6.26746e-14
6.13223e-14
4.98514e-14
4.87758e-14
3.96554e-14
3.88003e-14
3.15529e-14
3.08735e-14
2.51167e-14
2.45771e-14
2.00047e-14
1.95753e-14
1.59393e-14
1.55833e-14
1.2595e-14
1.01662e-14
9.93009e-15
8.08519e-15
7.91075e-15
6.4317e-15
6.29188e-15
5.09524e-15
4.98166e-15
4.00396e-15
3.91063e-15
3.10163e-15
3.02387e-15
2.34398e-15
2.27815e-15
1.6971e-15
1.64097e-15
1.14585e-15
1.09914e-15
6.98149e-16
6.61554e-16
3.61082e-16
3.34113e-16
1.16601e-16
1.00726e-16
1.38916e-17
9.11884e-18
8.30662e-18
8.12326e-18
8.08225e-18
1.35785e-07
1.1121e-08
4.78198e-09
7.55556e-10
3.66438e-10
6.20248e-11
3.13853e-11
7.08261e-12
4.59245e-12
1.85149e-12
1.19359e-12
1.11503e-12
8.96516e-13
8.74881e-13
7.20935e-13
7.06232e-13
5.81556e-13
5.69708e-13
4.6768e-13
4.58017e-13
3.74981e-13
3.67138e-13
2.99965e-13
2.93633e-13
2.39548e-13
2.34457e-13
1.91059e-13
1.86978e-13
1.52243e-13
1.48979e-13
1.2123e-13
1.18624e-13
9.64858e-14
9.44079e-14
7.67657e-14
7.51104e-14
6.10637e-14
5.97462e-14
4.85709e-14
4.7523e-14
3.8638e-14
3.78051e-14
3.0745e-14
3.00832e-14
2.44753e-14
2.39497e-14
1.94956e-14
1.90773e-14
1.55353e-14
1.51885e-14
1.22775e-14
9.91127e-15
9.68126e-15
7.88386e-15
7.71391e-15
6.27285e-15
6.13661e-15
4.9706e-15
4.85992e-15
3.90712e-15
3.81617e-15
3.02764e-15
2.95184e-15
2.28898e-15
2.22478e-15
1.65804e-15
1.60327e-15
1.12e-15
1.07439e-15
6.82694e-16
6.46939e-16
3.53266e-16
3.26897e-16
1.14092e-16
9.856e-17
1.35899e-17
8.91962e-18
8.12483e-18
7.9454e-18
7.90528e-18
1.2248e-07
2.12618e-08
6.88534e-09
1.56327e-09
5.38036e-10
1.26291e-10
4.50725e-11
1.21996e-11
5.61211e-12
2.29361e-12
1.33907e-12
1.13217e-12
9.19185e-13
8.67447e-13
7.32744e-13
6.98606e-13
5.90783e-13
5.63362e-13
4.7522e-13
4.5286e-13
3.81127e-13
3.62978e-13
3.04945e-13
2.90292e-13
2.43562e-13
2.3178e-13
1.94282e-13
1.84839e-13
1.54825e-13
1.47272e-13
1.23293e-13
1.17263e-13
9.81326e-14
9.33238e-14
7.80784e-14
7.42476e-14
6.21091e-14
5.90601e-14
4.94028e-14
4.69777e-14
3.92996e-14
3.73719e-14
3.12707e-14
2.97392e-14
2.48929e-14
2.36764e-14
1.98268e-14
1.88582e-14
1.57906e-14
1.49806e-14
1.23351e-14
1.01233e-14
9.58144e-15
8.01946e-15
7.62556e-15
6.3797e-15
6.06438e-15
5.05671e-15
4.80056e-15
3.9772e-15
3.76671e-15
3.08534e-15
2.90992e-15
2.33721e-15
2.18868e-15
1.69926e-15
1.57258e-15
1.1556e-15
1.05013e-15
7.12159e-16
6.29448e-16
3.75704e-16
3.14747e-16
1.31879e-16
9.59528e-17
2.17801e-17
1.08264e-17
8.5725e-18
8.05327e-18
7.93689e-18
1.13224e-07
2.79287e-08
8.62642e-09
2.19906e-09
6.85064e-10
1.77323e-10
5.6821e-11
1.62635e-11
6.50043e-12
2.64098e-12
1.45457e-12
1.14952e-12
9.35392e-13
8.63325e-13
7.40524e-13
6.93921e-13
5.96789e-13
5.59439e-13
4.80124e-13
4.49675e-13
3.85127e-13
3.60411e-13
3.08187e-13
2.88232e-13
2.46176e-13
2.30131e-13
1.96382e-13
1.83521e-13
1.56507e-13
1.46221e-13
1.24638e-13
1.16425e-13
9.92057e-14
9.26565e-14
7.89339e-14
7.37167e-14
6.27905e-14
5.86379e-14
4.9945e-14
4.66422e-14
3.97308e-14
3.71054e-14
3.16134e-14
2.95276e-14
2.51651e-14
2.35082e-14
2.00426e-14
1.8723e-14
1.59554e-14
1.4846e-14
1.23753e-14
1.02685e-14
9.52236e-15
8.10827e-15
7.57123e-15
6.44929e-15
6.0198e-15
5.11272e-15
4.76385e-15
4.02273e-15
3.73605e-15
3.12278e-15
2.88388e-15
2.36846e-15
2.16619e-15
1.72596e-15
1.55348e-15
1.17874e-15
1.03515e-15
7.31408e-16
6.18794e-16
3.90428e-16
3.07471e-16
1.43787e-16
9.48744e-17
2.7441e-17
1.23848e-17
8.95059e-18
8.14492e-18
7.96378e-18
1.0738e-07
3.19557e-08
9.85232e-09
2.63821e-09
7.91797e-10
2.12846e-10
6.53643e-11
1.9093e-11
7.15172e-12
2.88114e-12
1.53472e-12
1.1632e-12
9.45899e-13
8.6122e-13
7.45247e-13
6.91249e-13
6.00396e-13
5.57189e-13
4.83068e-13
4.47848e-13
3.87529e-13
3.58941e-13
3.10134e-13
2.87052e-13
2.47747e-13
2.29187e-13
1.97644e-13
1.82767e-13
1.57518e-13
1.45619e-13
1.25446e-13
1.15946e-13
9.98508e-14
9.22751e-14
7.94482e-14
7.34132e-14
6.32002e-14
5.83966e-14
5.02711e-14
4.64505e-14
3.999e-14
3.69531e-14
3.18195e-14
2.94067e-14
2.53288e-14
2.34121e-14
2.01723e-14
1.86455e-14
1.60536e-14
1.47657e-14
1.24009e-14
1.03591e-14
9.48987e-15
8.1619e-15
7.5402e-15
6.4911e-15
5.99426e-15
5.14634e-15
4.74278e-15
4.05003e-15
3.71842e-15
3.1452e-15
2.86886e-15
2.38715e-15
2.1532e-15
1.74193e-15
1.54246e-15
1.19261e-15
1.02657e-15
7.43001e-16
6.12761e-16
3.99329e-16
3.0342e-16
1.51101e-16
9.4535e-17
3.10057e-17
1.34778e-17
9.22323e-18
8.2114e-18
7.9833e-18
1.04552e-07
3.38495e-08
1.04824e-08
2.86253e-09
8.47775e-10
2.31087e-10
6.98501e-11
2.05461e-11
7.49511e-12
3.00398e-12
1.57576e-12
1.17067e-12
9.51078e-13
8.60351e-13
7.47479e-13
6.90041e-13
6.02088e-13
5.56167e-13
4.84448e-13
4.47019e-13
3.88655e-13
3.58273e-13
3.11047e-13
2.86517e-13
2.48483e-13
2.28759e-13
1.98236e-13
1.82425e-13
1.57992e-13
1.45347e-13
1.25825e-13
1.15729e-13
1.00154e-13
9.21022e-14
7.96896e-14
7.32757e-14
6.33924e-14
5.82873e-14
5.04241e-14
4.63636e-14
4.01117e-14
3.68842e-14
3.19162e-14
2.93519e-14
2.54056e-14
2.33686e-14
2.02331e-14
1.86103e-14
1.60995e-14
1.47282e-14
1.24132e-14
1.04026e-14
9.47558e-15
8.18715e-15
7.52616e-15
6.51071e-15
5.98266e-15
5.1621e-15
4.7332e-15
4.06282e-15
3.71039e-15
3.1557e-15
2.86201e-15
2.39589e-15
2.14727e-15
1.7494e-15
1.53744e-15
1.1991e-15
1.02268e-15
7.48448e-16
6.10047e-16
4.03521e-16
3.0162e-16
1.54582e-16
9.44719e-17
3.27291e-17
1.40392e-17
9.36578e-18
8.24631e-18
7.99355e-18
1.04552e-07
3.38495e-08
1.04824e-08
2.86252e-09
8.47769e-10
2.31084e-10
6.98489e-11
2.05457e-11
7.49495e-12
3.00393e-12
1.57574e-12
1.17066e-12
9.51076e-13
8.60351e-13
7.47479e-13
6.90041e-13
6.02088e-13
5.56167e-13
4.84448e-13
4.47019e-13
3.88655e-13
3.58273e-13
3.11047e-13
2.86517e-13
2.48483e-13
2.28759e-13
1.98236e-13
1.82425e-13
1.57992e-13
1.45347e-13
1.25825e-13
1.15729e-13
1.00154e-13
9.21022e-14
7.96896e-14
7.32757e-14
6.33924e-14
5.82873e-14
5.04241e-14
4.63636e-14
4.01117e-14
3.68842e-14
3.19162e-14
2.93519e-14
2.54056e-14
2.33686e-14
2.02332e-14
1.86103e-14
1.60995e-14
1.47282e-14
1.24132e-14
1.04026e-14
9.47558e-15
8.18715e-15
7.52616e-15
6.51071e-15
5.98266e-15
5.1621e-15
4.7332e-15
4.06282e-15
3.71039e-15
3.1557e-15
2.86201e-15
2.39589e-15
2.14727e-15
1.7494e-15
1.53744e-15
1.1991e-15
1.02268e-15
7.48448e-16
6.10047e-16
4.03521e-16
3.0162e-16
1.54582e-16
9.44718e-17
3.2729e-17
1.40392e-17
9.36575e-18
8.2463e-18
7.99354e-18
1.0738e-07
3.19557e-08
9.85228e-09
2.63818e-09
7.91781e-10
2.12838e-10
6.5361e-11
1.90918e-11
7.15129e-12
2.881e-12
1.53468e-12
1.16319e-12
9.45896e-13
8.61219e-13
7.45247e-13
6.91249e-13
6.00397e-13
5.57189e-13
4.83068e-13
4.47848e-13
3.87529e-13
3.58941e-13
3.10134e-13
2.87052e-13
2.47747e-13
2.29187e-13
1.97644e-13
1.82767e-13
1.57518e-13
1.4562e-13
1.25446e-13
1.15946e-13
9.98509e-14
9.22751e-14
7.94483e-14
7.34132e-14
6.32002e-14
5.83966e-14
5.02711e-14
4.64505e-14
3.99901e-14
3.69532e-14
3.18195e-14
2.94067e-14
2.53288e-14
2.34121e-14
2.01723e-14
1.86455e-14
1.60536e-14
1.47657e-14
1.24009e-14
1.03591e-14
9.48987e-15
8.16191e-15
7.54021e-15
6.4911e-15
5.99426e-15
5.14634e-15
4.74278e-15
4.05003e-15
3.71842e-15
3.1452e-15
2.86886e-15
2.38715e-15
2.1532e-15
1.74193e-15
1.54246e-15
1.19261e-15
1.02657e-15
7.43e-16
6.12761e-16
3.99328e-16
3.03419e-16
1.51101e-16
9.45346e-17
3.10055e-17
1.34777e-17
9.22316e-18
8.21138e-18
7.98326e-18
1.13224e-07
2.79287e-08
8.62637e-09
2.19902e-09
6.85044e-10
1.77313e-10
5.68168e-11
1.6262e-11
6.49988e-12
2.6408e-12
1.45451e-12
1.1495e-12
9.35388e-13
8.63324e-13
7.40525e-13
6.93921e-13
5.96789e-13
5.5944e-13
4.80125e-13
4.49675e-13
3.85127e-13
3.60412e-13
3.08187e-13
2.88232e-13
2.46176e-13
2.30131e-13
1.96382e-13
1.83521e-13
1.56507e-13
1.46221e-13
1.24638e-13
1.16425e-13
9.92058e-14
9.26566e-14
7.8934e-14
7.37167e-14
6.27906e-14
5.86379e-14
4.99451e-14
4.66422e-14
3.97308e-14
3.71054e-14
3.16134e-14
2.95276e-14
2.51652e-14
2.35082e-14
2.00426e-14
1.8723e-14
1.59554e-14
1.4846e-14
1.23753e-14
1.02685e-14
9.52236e-15
8.10828e-15
7.57123e-15
6.44929e-15
6.01981e-15
5.11272e-15
4.76386e-15
4.02273e-15
3.73606e-15
3.12278e-15
2.88388e-15
2.36846e-15
2.16619e-15
1.72596e-15
1.55348e-15
1.17874e-15
1.03515e-15
7.31407e-16
6.18793e-16
3.90427e-16
3.0747e-16
1.43786e-16
9.48739e-17
2.74407e-17
1.23847e-17
8.9505e-18
8.14488e-18
7.96373e-18
1.2248e-07
2.12617e-08
6.88531e-09
1.56324e-09
5.38018e-10
1.26282e-10
4.50689e-11
1.21983e-11
5.61163e-12
2.29345e-12
1.33902e-12
1.13215e-12
9.19181e-13
8.67447e-13
7.32744e-13
6.98606e-13
5.90783e-13
5.63362e-13
4.7522e-13
4.5286e-13
3.81127e-13
3.62978e-13
3.04945e-13
2.90292e-13
2.43562e-13
2.31781e-13
1.94282e-13
1.84839e-13
1.54825e-13
1.47272e-13
1.23293e-13
1.17263e-13
9.81327e-14
9.33239e-14
7.80784e-14
7.42477e-14
6.21092e-14
5.90601e-14
4.94028e-14
4.69777e-14
3.92996e-14
3.73719e-14
3.12707e-14
2.97392e-14
2.48929e-14
2.36764e-14
1.98268e-14
1.88582e-14
1.57906e-14
1.49806e-14
1.23351e-14
1.01233e-14
9.58145e-15
8.01946e-15
7.62556e-15
6.37971e-15
6.06439e-15
5.05671e-15
4.80056e-15
3.9772e-15
3.76671e-15
3.08534e-15
2.90993e-15
2.33721e-15
2.18868e-15
1.69926e-15
1.57258e-15
1.1556e-15
1.05013e-15
7.12159e-16
6.29448e-16
3.75704e-16
3.14746e-16
1.31879e-16
9.59525e-17
2.17799e-17
1.08263e-17
8.57243e-18
8.05324e-18
7.93685e-18
1.35785e-07
1.1121e-08
4.78197e-09
7.55544e-10
3.66431e-10
6.20214e-11
3.13839e-11
7.08206e-12
4.59226e-12
1.85143e-12
1.19357e-12
1.11503e-12
8.96515e-13
8.7488e-13
7.20935e-13
7.06233e-13
5.81556e-13
5.69709e-13
4.6768e-13
4.58017e-13
3.74981e-13
3.67138e-13
2.99965e-13
2.93633e-13
2.39548e-13
2.34457e-13
1.91059e-13
1.86978e-13
1.52243e-13
1.4898e-13
1.2123e-13
1.18624e-13
9.64858e-14
9.44079e-14
7.67657e-14
7.51104e-14
6.10637e-14
5.97462e-14
4.85709e-14
4.7523e-14
3.8638e-14
3.78051e-14
3.0745e-14
3.00832e-14
2.44753e-14
2.39497e-14
1.94956e-14
1.90773e-14
1.55353e-14
1.51885e-14
1.22775e-14
9.91127e-15
9.68126e-15
7.88386e-15
7.71391e-15
6.27285e-15
6.13661e-15
4.9706e-15
4.85992e-15
3.90713e-15
3.81617e-15
3.02764e-15
2.95184e-15
2.28898e-15
2.22478e-15
1.65804e-15
1.60327e-15
1.12e-15
1.07439e-15
6.82694e-16
6.46939e-16
3.53266e-16
3.26897e-16
1.14092e-16
9.85599e-17
1.35898e-17
8.91956e-18
8.1248e-18
7.94538e-18
7.90526e-18
9.98139e-12
3.83785e-12
3.48179e-12
2.44619e-12
2.33775e-12
1.40776e-12
1.34011e-12
9.79769e-13
9.4626e-13
6.91809e-13
5.17981e-13
5.01587e-13
3.842e-13
3.735e-13
2.87822e-13
2.79999e-13
2.16256e-13
2.1042e-13
1.626e-13
1.58214e-13
1.22169e-13
1.1886e-13
9.16293e-14
8.91293e-14
6.85437e-14
6.66543e-14
5.11006e-14
4.9674e-14
3.79391e-14
3.68637e-14
2.80295e-14
2.72209e-14
2.05896e-14
1.99835e-14
1.50236e-14
1.45711e-14
1.08774e-14
1.05411e-14
7.80454e-15
7.55606e-15
5.54118e-15
5.35878e-15
3.88633e-15
3.75353e-15
2.68717e-15
2.59141e-15
1.82758e-15
1.75927e-15
1.21909e-15