/*--------------------------------*- C++ -*----------------------------------*\
| =========                 |                                                 |
| \\      /  F ield         | OpenFOAM: The Open Source CFD Toolbox           |
|  \\    /   O peration     | Version:  5.x                                   |
|   \\  /    A nd           | Web:      www.OpenFOAM.org                      |
|    \\/     M anipulation  |                                                 |
\*---------------------------------------------------------------------------*/
FoamFile
{
    version     2.0;
    format      ascii;
    class       volScalarField;
    location    "19";
    object      gradTx;
}
// * * * * * * * * * * * * * * * * * * * * * * * * * * * * * * * * * * * * * //

dimensions      [0 -1 0 1 0 0 0];

internalField   nonuniform List<scalar> 
6300
(
-13.5066
-13.2832
-12.8392
-12.1798
-11.3138
-10.2541
-9.01875
-7.63135
-6.12221
-4.52834
-2.89305
-1.2645
0.30674
1.77108
3.08382
-13.7301
-13.5043
-13.0548
-12.3866
-11.5077
-10.4302
-9.17105
-7.75339
-6.20723
-4.57008
-2.88663
-1.2075
0.413323
1.92234
3.27109
-14.1799
-13.9491
-13.4894
-12.8044
-11.9006
-10.7881
-9.48216
-8.0042
-6.38356
-4.65841
-2.87618
-1.09253
0.631399
2.23357
3.65721
-14.8606
-14.6233
-14.1495
-13.4412
-12.5023
-11.3398
-9.96556
-8.39802
-6.66468
-4.80414
-2.86749
-0.91815
0.970879
2.72295
4.26662
-15.7789
-15.5342
-15.0444
-14.3089
-13.3279
-12.1036
-10.6425
-8.95791
-7.07331
-5.0263
-2.87181
-0.683772
1.447
3.4204
5.14043
-16.9421
-16.6906
-16.1853
-15.4225
-14.397
-13.1045
-11.5433
-9.71808
-7.64467
-5.35623
-2.90999
-0.392462
2.08017
4.3709
6.34259
-18.3571
-18.1008
-17.5841
-16.7988
-15.7334
-14.3743
-12.7084
-10.7267
-8.43134
-5.84428
-3.01978
-0.0565833
2.89492
5.64009
7.9714
-20.0286
-19.7718
-19.2518
-18.4555
-17.3637
-15.9513
-14.1895
-12.0495
-9.50998
-6.57006
-3.26858
0.290667
3.91567
7.32283
10.1801
-21.957
-21.7063
-21.196
-20.4081
-19.3148
-17.8779
-16.049
-13.7719
-10.9894
-7.65772
-3.77544
0.571838
5.15394
9.55516
13.2156
-24.1364
-23.9005
-23.418
-22.6664
-21.6098
-20.1967
-18.3569
-16.0002
-13.0181
-9.2963
-4.7476
0.617862
6.57274
12.5279
17.4976
-26.5519
-26.3417
-25.9093
-25.2297
-24.2615
-22.9424
-21.1821
-18.8541
-15.7868
-11.7621
-6.53682
0.0741378
7.99085
16.4858
23.7914
-29.1779
-29.0052
-28.6481
-28.0819
-27.2645
-26.1295
-24.5752
-22.4474
-19.5132
-15.4286
-9.71206
-1.77569
8.83026
21.6327
33.6313
-31.9768
-31.8531
-31.5963
-31.1856
-30.5852
-29.7359
-28.5422
-26.8474
-24.3901
-20.7275
-15.1074
-6.29546
7.47274
27.5828
50.5006
-34.8997
-34.8344
-34.6984
-34.4793
-34.1549
-33.6871
-33.0106
-32.01
-30.4725
-27.9842
-23.6949
-15.7719
-0.227122
30.7245
83.6764
-37.8879
-37.8867
-37.8839
-37.8785
-37.868
-37.847
-37.8032
-37.7098
-37.5057
-37.0423
-35.9163
-32.8704
-23.3343
11.865
163.04
4.13069
4.92168
5.5581
6.03805
6.36516
6.5476
6.59682
6.52636
6.35074
6.08448
5.74149
5.33456
4.87515
4.37327
3.83758
3.27542
2.69297
2.09544
1.48718
0.871827
0.252452
-0.368361
-0.988422
-1.60587
-2.21911
-2.82683
-3.42791
-4.0215
-4.60693
-5.18379
-5.75185
-6.31109
-6.86164
-7.40376
-7.93775
-8.46389
-8.98243
-9.49349
-9.99706
-10.493
-10.9811
-11.461
-11.9325
-12.3952
-12.8492
-13.2945
-13.7314
-14.1603
-14.5816
-14.9959
-15.4036
-15.805
-16.2001
-16.5885
-16.9697
-17.3427
-17.7065
-18.0599
-18.4017
-18.7307
-19.0459
-19.3463
-19.6313
-19.8999
-20.1512
-20.3841
-20.597
-20.7877
-20.9536
-21.0916
-21.1979
-21.2687
-21.2996
-21.2868
-21.2264
-21.1154
-20.9513
-20.7325
-20.4583
-20.1291
-19.7463
-19.312
-18.8296
-18.3033
-17.7382
-17.1403
-16.5165
-15.8743
-15.2218
-14.5671
4.34139
5.14393
5.78307
6.2578
6.57319
6.73913
6.76885
6.67752
6.48097
6.19473
5.83332
5.40991
4.93606
4.42176
3.87551
3.30444
2.71452
2.11074
1.49724
0.877487
0.2544
-0.369557
-0.992289
-1.612
-2.22715
-2.83644
-3.43877
-4.03328
-4.61932
-5.19648
-5.76456
-6.3236
-6.87379
-7.41546
-7.94901
-8.47481
-8.99315
-9.50421
-10.008
-10.5043
-10.9928
-11.4731
-11.9449
-12.4078
-12.8616
-13.3066
-13.7429
-14.171
-14.5916
-15.0052
-15.4126
-15.814
-16.2095
-16.5988
-16.9812
-17.3558
-17.7214
-18.0765
-18.4199
-18.7504
-19.0669
-19.3685
-19.6546
-19.9245
-20.1776
-20.4128
-20.6286
-20.8231
-20.9937
-21.1369
-21.249
-21.3257
-21.3624
-21.355
-21.2992
-21.1917
-21.0299
-20.812
-20.5373
-20.2062
-19.8201
-19.3811
-18.8927
-18.359
-17.7852
-17.1775
-16.5428
-15.8891
-15.2247
-14.5582
4.77572
5.60116
6.24449
6.70671
6.99614
7.1265
7.1149
6.97992
6.74011
6.41295
6.01422
5.55767
5.05501
4.51608
3.94899
3.36043
2.75588
2.13988
1.51616
0.88782
0.257485
-0.372626
-1.0006
-1.62478
-2.24371
-2.85613
-3.46095
-4.0573
-4.64454
-5.22225
-5.79032
-6.34885
-6.89819
-7.43885
-7.9714
-8.49642
-9.01433
-9.5254
-10.0296
-10.5267
-11.0162
-11.4975
-11.97
-12.4332
-12.8868
-13.331
-13.7659
-14.1924
-14.6113
-15.0236
-15.43
-15.8313
-16.2277
-16.6188
-17.0039
-17.3818
-17.751
-18.1098
-18.4566
-18.7901
-19.109
-19.4128
-19.701
-19.9733
-20.2295
-20.4691
-20.6908
-20.8929
-21.0728
-21.2269
-21.3509
-21.4399
-21.4888
-21.4924
-21.4462
-21.346
-21.1889
-20.973
-20.6974
-20.3625
-19.9696
-19.5213
-19.0207
-18.4721
-17.8809
-17.2532
-16.5965
-15.9191
-15.2303
-14.5397
5.46098
6.3203
6.96637
7.4041
7.6478
7.71798
7.63832
7.43296
7.12473
6.73399
6.27812
5.77157
5.22599
4.65073
4.05319
3.43924
2.81357
2.17998
1.54157
0.900893
0.260124
-0.37888
-1.01448
-1.64521
-2.26973
-2.88682
-3.49538
-4.09449
-4.68349
-5.26195
-5.82981
-6.38734
-6.9351
-7.47389
-8.00463
-8.52821
-9.04533
-9.5564
-10.0614
-10.56
-11.0513
-11.5344
-12.0084
-12.4723
-12.9256
-13.3684
-13.8011
-14.2247
-14.6405
-15.0501
-15.4548
-15.8557
-16.2533
-16.6473
-17.0368
-17.4202
-17.7954
-18.1602
-18.5124
-18.8504
-19.1729
-19.4794
-19.77
-20.0451
-20.3053
-20.5507
-20.781
-20.9946
-21.1889
-21.36
-21.503
-21.6118
-21.6801
-21.7016
-21.6705
-21.5821
-21.4325
-21.2196
-20.9426
-20.6019
-20.199
-19.7364
-19.2176
-18.6466
-18.0288
-17.3706
-16.6797
-15.9654
-15.2383
-14.5096
6.44323
7.3462
7.98791
8.38059
8.54899
8.52494
8.34242
8.03385
7.62791
7.14853
6.61479
6.04142
5.4395
4.81727
4.18082
3.53474
2.88251
2.22688
1.57009
0.913971
0.260099
-0.390141
-1.03548
-1.67468
-2.30654
-2.92985
-3.54345
-4.14631
-4.73763
-5.31694
-5.88421
-6.43989
-6.9849
-7.5205
-8.04815
-8.56927
-9.08502
-9.59607
-10.1025
-10.6035
-11.0981
-11.5845
-12.0611
-12.5265
-12.9796
-13.4202
-13.8492
-14.2679
-14.6785
-15.0834
-15.4848
-15.8846
-16.2838
-16.6821
-17.0783
-17.4702
-17.8546
-18.2284
-18.5886
-18.9327
-19.2595
-19.5687
-19.8611
-20.1383
-20.4021
-20.654
-20.8948
-21.1237
-21.3381
-21.5336
-21.704
-21.8417
-21.9385
-21.9862
-21.9774
-21.9058
-21.767
-21.5585
-21.2794
-20.9306
-20.514
-20.0324
-19.4892
-18.8884
-18.2348
-17.5348
-16.7964
-16.03
-15.2483
-14.4652
7.79445
8.74798
9.36772
9.67972
9.727
9.55981
9.22771
8.77465
8.23656
7.64107
7.00827
6.35215
5.68205
5.00406
4.32215
3.6389
2.95616
2.27531
1.5975
0.923683
0.254725
-0.408575
-1.06539
-1.7148
-2.35573
-2.98692
-3.60704
-4.2148
-4.80909
-5.38928
-5.9553
-6.50782
-7.04825
-7.57855
-8.10104
-8.61803
-9.13143
-9.6424
-10.1511
-10.6565
-11.1566
-11.6487
-12.1301
-12.5981
-13.0512
-13.4889
-13.912
-14.3228
-14.7247
-15.1215
-15.5171
-15.9144
-16.3153
-16.7198
-17.1261
-17.5306
-17.929
-18.3161
-18.6876
-19.0399
-19.3713
-19.682
-19.9739
-20.2505
-20.5157
-20.7732
-21.0257
-21.2735
-21.5144
-21.7431
-21.9517
-22.1302
-22.2674
-22.3521
-22.3744
-22.3261
-22.2018
-21.9987
-21.7164
-21.3568
-20.9225
-20.417
-19.8437
-19.2059
-18.5076
-17.754
-16.9531
-16.1166
-15.2601
-14.4021
9.62589
10.6301
11.1904
11.3597
11.2136
10.8318
10.2869
9.63759
8.9276
8.18707
7.4351
6.68276
5.93572
5.19633
4.4652
3.74217
3.02692
2.31922
1.61901
0.926276
0.241089
-0.436445
-1.10607
-1.76724
-2.419
-3.05999
-3.6885
-4.30269
-4.90091
-5.48204
-6.04583
-6.59318
-7.12616
-7.64783
-8.16183
-8.67191
-9.18128
-9.69199
-10.2044
-10.7169
-11.2264
-11.7283
-12.2181
-12.6913
-13.1451
-13.5783
-13.9923
-14.3904
-14.7781
-15.1614
-15.5466
-15.9389
-16.3415
-16.7548
-17.176
-17.5999
-18.0192
-18.4263
-18.8139
-19.1769
-19.5127
-19.8221
-20.1087
-20.3789
-20.6401
-20.8996
-21.163
-21.433
-21.7079
-21.9814
-22.2427
-22.478
-22.6715
-22.8077
-22.8727
-22.8557
-22.7498
-22.5525
-22.2648
-21.8901
-21.4333
-20.8989
-20.2907
-19.6105
-18.8599
-18.0412
-17.1609
-16.2318
-15.2742
-14.3137
12.1124
13.1511
13.5757
13.4938
13.0391
12.3386
11.4963
10.5876
9.66237
8.74928
7.86222
7.00554
6.17815
5.37651
4.59641
3.83407
3.08665
2.35223
1.6296
0.917889
0.216326
-0.475804
-1.15901
-1.83329
-2.49786
-3.15109
-3.79061
-4.41363
-5.01738
-5.59978
-6.16004
-6.69923
-7.22037
-7.72812
-8.22824
-8.72678
-9.22918
-9.73909
-10.2574
-10.7818
-11.3069
-11.8254
-12.3297
-12.8124
-13.2683
-13.6954
-14.0952
-14.4731
-14.8376
-15.1984
-15.5658
-15.9484
-16.3522
-16.7781
-17.2221
-17.6756
-18.1271
-18.5642
-18.9756
-19.353
-19.6921
-19.9946
-20.2671
-20.5202
-20.7668
-21.02
-21.2906
-21.5852
-21.9033
-22.237
-22.5711
-22.8856
-23.1579
-23.3657
-23.489
-23.513
-23.4293
-23.2364
-22.9381
-22.5416
-22.0555
-21.4872
-20.8409
-20.1165
-19.3099
-18.4169
-17.4388
-16.388
-15.292
-14.19
15.5388
16.5561
16.6902
16.1645
15.2181
14.0495
12.8008
11.5614
10.3794
9.27376
8.2454
7.2859
6.38331
5.52548
4.70185
3.90434
3.12749
2.36812
1.62435
0.894777
0.177881
-0.528105
-1.22488
-1.91338
-2.59311
-3.26199
-3.91655
-4.55234
-5.16462
-5.7494
-6.30461
-6.83129
-7.33383
-7.81937
-8.29688
-8.77609
-9.2662
-9.77402
-10.3017
-10.8456
-11.3966
-11.9431
-12.4722
-12.972
-13.4332
-13.8516
-14.2294
-14.5752
-14.9021
-15.2258
-15.5627
-15.9276
-16.3308
-16.7752
-17.2544
-17.7539
-18.2554
-18.7389
-19.1863
-19.5837
-19.9242
-20.2102
-20.4531
-20.6706
-20.8839
-21.1151
-21.3837
-21.7032
-22.0762
-22.4918
-22.9275
-23.3536
-23.7371
-24.0451
-24.2482
-24.3252
-24.266
-24.0718
-23.7524
-23.322
-22.7959
-22.1874
-21.5036
-20.7408
-19.8841
-18.9149
-17.821
-16.6094
-15.3184
-14.014
20.3962
21.2326
20.7542
19.4408
17.7166
15.8756
14.0919
12.4522
10.9862
9.68677
8.52921
7.48411
6.5238
5.625
4.76953
3.94468
3.14303
2.36141
1.59853
0.853297
0.123624
-0.593757
-1.30275
-2.00617
-2.70403
-3.39356
-4.06954
-4.72492
-5.35151
-5.9416
-6.49026
-6.9981
-7.47176
-7.92217
-8.36303
-8.80965
-9.27767
-9.78022
-10.3228
-10.8988
-11.4929
-12.0858
-12.657
-13.1869
-13.6595
-14.0661
-14.4097
-14.7043
-14.971
-15.2342
-15.5194
-15.8513
-16.2498
-16.7223
-17.257
-17.8295
-18.4093
-18.9655
-19.4689
-19.8962
-20.2346
-20.4878
-20.6754
-20.8267
-20.9752
-21.156
-21.4033
-21.7439
-22.1876
-22.7174
-23.2975
-23.8828
-24.425
-24.8751
-25.1888
-25.3333
-25.2967
-25.0875
-24.7265
-24.2398
-23.6547
-22.996
-22.2797
-21.5001
-20.6203
-19.5922
-18.3727
-16.9449
-15.364
-13.7548
27.5979
27.8019
26.0201
23.308
20.3825
17.6189
15.1753
13.0928
11.3529
9.89526
8.65086
7.56001
6.57553
5.66192
4.79292
3.95141
3.12956
2.32756
1.54714
0.789284
0.0515513
-0.671593
-1.38871
-2.10705
-2.82701
-3.54469
-4.25222
-4.93902
-5.59098
-6.19349
-6.73467
-7.21413
-7.64314
-8.03871
-8.42087
-8.81235
-9.23936
-9.72868
-10.2958
-10.9258
-11.5909
-12.2596
-12.9012
-13.4842
-13.9806
-14.3714
-14.6604
-14.8736
-15.0449
-15.2108
-15.4085
-15.679
-16.0621
-16.5795
-17.2053
-17.8941
-18.5971
-19.268
-19.861
-20.3364
-20.6673
-20.8596
-20.9501
-20.9865
-21.0195
-21.1012
-21.2881
-21.6359
-22.175
-22.8703
-23.6596
-24.474
-25.2452
-25.9013
-26.3726
-26.602
-26.5757
-26.3214
-25.8812
-25.2993
-24.6192
-23.8873
-23.1468
-22.4032
-21.5701
-20.5447
-19.2243
-17.5006
-15.45
-13.3471
39.016
37.2301
32.6254
27.4823
22.8147
18.9007
15.7382
13.2397
11.313
9.79636
8.55116
7.4825
6.525
5.63439
4.7765
3.92966
3.08731
2.26249
1.46312
0.69615
-0.0416536
-0.758216
-1.47301
-2.20567
-2.95335
-3.7105
-4.46479
-5.2033
-5.90166
-6.53371
-7.06796
-7.50281
-7.86265
-8.17452
-8.46524
-8.76386
-9.11127
-9.56504
-10.1782
-10.9022
-11.6835
-12.4724
-13.2297
-13.9061
-14.4537
-14.823
-15.02
-15.1029
-15.1266
-15.1412
-15.1929
-15.3442
-15.6807
-16.2806
-17.0625
-17.9382
-18.831
-19.6823
-20.4225
-20.9842
-21.2995
-21.3776
-21.3024
-21.151
-20.9937
-20.8946
-20.9412
-21.252
-21.9372
-22.8878
-23.9854
-25.1269
-26.2309
-27.1935
-27.9043
-28.2389
-28.1826
-27.8227
-27.2396
-26.5001
-25.6578
-24.7908
-24.0181
-23.4349
-22.7964
-21.922
-20.6562
-18.527
-15.6113
-12.6349
58.9671
50.7168
40.006
30.972
24.1617
19.1001
15.3447
12.5632
10.6823
9.30642
8.19705
7.24475
6.37795
5.55956
4.74403
3.90129
3.01969
2.16065
1.33234
0.560935
-0.165517
-0.847441
-1.53165
-2.28272
-3.06606
-3.88047
-4.70012
-5.52542
-6.30783
-7.01477
-7.54438
-7.8995
-8.15121
-8.34075
-8.4982
-8.64507
-8.82998
-9.17186
-9.90068
-10.7962
-11.7651
-12.7305
-13.6745
-14.5135
-15.1833
-15.5227
-15.5437
-15.4175
-15.2213
-15.0181
-14.8335
-14.7428
-14.9199
-15.7195
-16.7845
-17.9576
-19.1244
-20.2563
-21.2407
-21.9868
-22.2731
-22.1164
-21.7642
-21.3237
-20.8839
-20.4782
-20.2134
-20.3289
-21.3171
-22.6933
-24.2477
-25.8337
-27.42
-28.8482
-29.9774
-30.4382
-30.2267
-29.6452
-28.8229
-27.8488
-26.7317
-25.5584
-24.6163
-24.5461
-24.3624
-23.8628
-23.331
-20.686
-15.8596
-11.2048
98.731
67.7458
44.971
31.2588
22.99
17.418
13.5487
10.5895
9.32391
8.43257
7.61652
6.88365
6.16098
5.48038
4.75056
3.92867
2.91939
2.01439
1.11945
0.360858
-0.353615
-0.933469
-1.4941
-2.31338
-3.13408
-4.04295
-4.92735
-5.90933
-6.82268
-7.75121
-8.27205
-8.44508
-8.52927
-8.55314
-8.54637
-8.47145
-8.3226
-8.22144
-9.3831
-10.5843
-11.8517
-13.0194
-14.2703
-15.3642
-16.3886
-16.6809
-16.2792
-15.8326
-15.3258
-14.8682
-14.3385
-13.7558
-13.2627
-14.7758
-16.3508
-17.9859
-19.4679
-21.0426
-22.4019
-23.6513
-23.8842
-23.1366
-22.3527
-21.4953
-20.7247
-19.8586
-18.938
-18.1488
-20.1378
-22.2422
-24.4641
-26.54
-28.8364
-30.933
-33.0127
-33.6056
-32.8031
-31.814
-30.6245
-29.4031
-27.8862
-25.9929
-23.9585
-25.8204
-26.3829
-25.8496
-29.0488
-25.9858
-15.8609
-7.89883
191.229
72.9514
36.885
23.707
17.9345
13.2836
10.4421
6.17692
7.42644
7.45008
6.91604
6.50769
5.88324
5.47192
4.88946
4.22574
2.66876
1.85352
0.710126
0.0971452
-0.735648
-1.04725
-1.08413
-2.34206
-3.07515
-4.24073
-5.01406
-6.39209
-7.31568
-9.07472
-9.50054
-9.11859
-8.99417
-8.80961
-8.69263
-8.40424
-7.7465
-5.45251
-8.80855
-10.2768
-12.0819
-13.1886
-15.0918
-16.3152
-18.6479
-18.8382
-17.0795
-16.3341
-15.3594
-14.822
-13.92
-12.6393
-8.71652
-13.7429
-15.8304
-18.2343
-19.6777
-22.1387
-23.7214
-26.7791
-26.9069
-24.2092
-23.0466
-21.5418
-20.7028
-19.3173
-17.4731
-11.9679
-18.7922
-21.6218
-24.8905
-26.9285
-30.5403
-33.0418
-38.1885
-38.7822
-35.6477
-34.2712
-32.4719
-31.3827
-29.5826
-26.6303
-17.6899
-28.9657
-29.9811
-22.4612
-43.7841
-41.4547
-12.7472
0.418019
-13.8547
-13.0973
-12.3728
-11.6911
-11.0597
-10.4842
-9.96775
-9.5119
-9.1169
-8.78208
-8.5062
-8.28783
-8.12552
-8.01806
-7.96456
-13.8337
-13.0643
-12.3299
-11.6405
-11.0039
-10.425
-9.90702
-9.45095
-9.05663
-8.72304
-8.44862
-8.23168
-8.0706
-7.96402
-7.91098
-13.79
-12.9963
-12.2418
-11.5371
-10.89
-10.305
-9.78426
-9.32813
-8.93556
-8.60473
-8.33347
-8.11958
-7.96108
-7.85636
-7.80429
-13.7206
-12.8889
-12.1036
-11.3762
-10.7139
-10.1205
-9.59681
-9.14167
-8.75266
-8.42677
-8.16087
-7.95202
-7.79772
-7.69598
-7.64545
-13.6202
-12.7351
-11.9075
-11.1499
-10.4688
-9.86617
-9.34073
-8.88899
-8.50655
-8.18873
-7.93113
-7.72985
-7.58171
-7.4843
-7.436
-13.4803
-12.5237
-11.6414
-10.8469
-10.145
-9.53461
-9.01083
-8.56693
-8.19573
-7.89041
-7.64498
-7.45445
-7.3149
-7.22344
-7.17817
-13.2883
-12.2376
-11.2875
-10.4511
-9.72962
-9.11635
-8.60097
-8.17209
-7.81894
-7.53211
-7.30385
-7.128
-6.99993
-6.91631
-6.87502
-13.0237
-11.8509
-10.8197
-9.94045
-9.2059
-8.60011
-8.1045
-7.70143
-7.37574
-7.11518
-6.91022
-6.75371
-6.64043
-6.56678
-6.5305
-12.6527
-11.3224
-10.2
-9.28495
-8.55333
-7.9736
-7.51543
-7.15332
-6.86734
-6.64257
-6.46808
-6.33612
-6.24124
-6.17982
-6.14964
-12.1159
-10.5859
-9.37283
-8.44593
-7.74879
-7.22546
-6.83021
-6.52899
-6.29768
-6.11959
-5.98337
-5.88137
-5.80852
-5.76156
-5.73853
-11.3015
-9.53223
-8.25945
-7.37706
-6.77038
-6.34917
-6.05088
-5.83471
-5.67473
-5.55468
-5.46437
-5.39742
-5.34987
-5.3193
-5.30433
-9.98635
-7.98197
-6.75556
-6.03238
-5.60643
-5.34988
-5.18939
-5.08417
-5.0118
-4.95997
-4.92194
-4.89401
-4.87419
-4.8614
-4.85511
-7.70208
-5.6537
-4.74838
-4.39044
-4.27302
-4.2545
-4.27258
-4.30073
-4.32827
-4.35142
-4.36937
-4.38246
-4.39141
-4.39694
-4.39956
-3.44333
-2.18228
-2.19378
-2.50793
-2.84065
-3.12248
-3.34564
-3.51786
-3.64909
-3.74803
-3.8216
-3.875
-3.91203
-3.93533
-3.94658
4.93309
2.56171
0.663519
-0.606843
-1.45916
-2.04909
-2.46962
-2.77596
-3.00214
-3.16999
-3.29396
-3.38386
-3.44632
-3.48575
-3.50482
-40.6284
-40.6862
-40.8064
-40.9991
-41.2816
-41.6813
-42.242
-43.0361
-44.1907
-45.9531
-48.8793
-54.4936
-68.0407
-111.734
-295.347
-43.0797
-43.1879
-43.4129
-43.7739
-44.3036
-45.0554
-46.1154
-47.6278
-49.8459
-53.2457
-58.7974
-68.6424
-87.7474
-126.931
-198.233
-45.4561
-45.6085
-45.9251
-46.4315
-47.1715
-48.2154
-49.6746
-51.7296
-54.6806
-59.0441
-65.7341
-76.3606
-93.5109
-119.823
-150.635
-47.7267
-47.9151
-48.3055
-48.927
-49.8286
-51.087
-52.8202
-55.2093
-58.5343
-63.227
-69.9369
-79.5483
-92.9123
-109.589
-124.433
-49.8666
-50.0816
-50.5256
-51.2281
-52.2378
-53.6289
-55.5103
-58.0392
-61.4382
-66.0092
-72.1247
-80.1298
-90.0135
-100.626
-108.54
-51.8572
-52.0892
-52.5662
-53.3158
-54.3822
-55.8303
-57.7507
-60.265
-63.5281
-67.719
-73.0003
-79.4067
-86.6083
-93.5381
-98.1428
-53.6867
-53.9266
-54.4177
-55.1837
-56.2617
-57.7038
-59.5787
-61.9708
-64.9737
-68.6716
-73.0945
-78.1312
-83.3919
-88.0645
-90.943
-55.3498
-55.5895
-56.0782
-56.8349
-57.8883
-59.2768
-61.0477
-63.2523
-65.9366
-69.1208
-72.7626
-76.7002
-80.5836
-83.8367
-85.7421
-56.8465
-57.0795
-57.5528
-58.2801
-59.2821
-60.5844
-62.2155
-64.2007
-66.5523
-69.2521
-72.2252
-75.3068
-78.2131
-80.5448
-81.8643
-58.1813
-58.4029
-58.8509
-59.5347
-60.4674
-61.6637
-63.1373
-64.8946
-66.9262
-69.1936
-71.6125
-74.0351
-76.2415
-77.9557
-78.9027
-59.3623
-59.569
-59.9852
-60.6165
-61.4695
-62.5506
-63.8622
-65.3981
-67.1363
-69.0299
-70.9972
-72.9135
-74.6116
-75.8995
-76.5986
-60.3999
-60.5896
-60.9703
-61.5442
-62.3133
-63.2774
-64.4313
-65.761
-67.2384
-68.8151
-70.4174
-71.9433
-73.2667
-74.252
-74.7801
-61.3057
-61.4775
-61.8212
-62.3365
-63.0218
-63.8724
-64.8784
-66.0215
-67.2714
-68.5825
-69.8906
-71.1137
-72.1565
-72.922
-73.3283
-62.0923
-62.2461
-62.5529
-63.0107
-63.6154
-64.3595
-65.2303
-66.2077
-67.2621
-68.3519
-69.4228
-70.4093
-71.239
-71.8413
-72.1586
-62.7721
-62.9085
-63.1798
-63.583
-64.1123
-64.7586
-65.5081
-66.3406
-67.2282
-68.1343
-69.0136
-69.8138
-70.4794
-70.9584
-71.2093
-63.3572
-63.4772
-63.7153
-64.0676
-64.5278
-65.0861
-65.7283
-66.4352
-67.1814
-67.9354
-68.6594
-69.3117
-69.8495
-70.2338
-70.4342
-63.859
-63.9638
-64.1713
-64.4774
-64.8754
-65.3553
-65.9036
-66.5024
-67.1294
-67.7572
-68.3549
-68.889
-69.3262
-69.6369
-69.7983
-64.2881
-64.379
-64.5589
-64.8234
-65.1659
-65.5769
-66.0437
-66.5502
-67.0766
-67.6
-68.0946
-68.5336
-68.8909
-69.1436
-69.2745
-64.654
-64.7326
-64.8877
-65.1153
-65.409
-65.7598
-66.1563
-66.5841
-67.026
-67.4627
-67.8729
-68.2349
-68.5282
-68.7348
-68.8416
-64.9654
-65.033
-65.1662
-65.3614
-65.6123
-65.9111
-66.2472
-66.6081
-66.9791
-67.3438
-67.6846
-67.984
-68.2256
-68.3953
-68.4829
-65.2298
-65.2877
-65.4018
-65.5686
-65.7825
-66.0363
-66.3209
-66.6252
-66.9366
-67.2414
-67.5251
-67.7733
-67.973
-68.1128
-68.1849
-65.4539
-65.5035
-65.6009
-65.743
-65.925
-66.1403
-66.3809
-66.6373
-66.8987
-67.1537
-67.3901
-67.5964
-67.7618
-67.8775
-67.937
-65.6437
-65.6859
-65.7689
-65.8898
-66.0443
-66.2267
-66.4299
-66.6458
-66.8654
-67.0788
-67.2761
-67.4478
-67.5852
-67.6811
-67.7304
-65.8042
-65.8401
-65.9107
-66.0133
-66.1443
-66.2985
-66.4701
-66.6519
-66.8363
-67.015
-67.1799
-67.3231
-67.4374
-67.5171
-67.558
-65.9397
-65.9702
-66.0301
-66.1171
-66.228
-66.3584
-66.5031
-66.6562
-66.8111
-66.9609
-67.0989
-67.2184
-67.3137
-67.38
-67.4141
-66.0541
-66.0799
-66.1307
-66.2044
-66.2982
-66.4083
-66.5304
-66.6593
-66.7894
-66.9151
-67.0306
-67.1305
-67.21
-67.2654
-67.2938
-66.1505
-66.1724
-66.2154
-66.2777
-66.357
-66.45
-66.5529
-66.6614
-66.7708
-66.8763
-66.9731
-67.0567
-67.1232
-67.1694
-67.1931
-66.2316
-66.2502
-66.2866
-66.3393
-66.4063
-66.4848
-66.5716
-66.663
-66.7549
-66.8435
-66.9247
-66.9948
-67.0505
-67.0892
-67.109
-66.2999
-66.3156
-66.3464
-66.391
-66.4476
-66.5139
-66.5871
-66.664
-66.7415
-66.8159
-66.8841
-66.9429
-66.9896
-67.022
-67.0386
-66.3573
-66.3706
-66.3966
-66.4344
-66.4822
-66.5382
-66.5999
-66.6648
-66.73
-66.7927
-66.85
-66.8994
-66.9386
-66.9658
-66.9797
-66.4055
-66.4167
-66.4388
-66.4707
-66.5111
-66.5584
-66.6106
-66.6653
-66.7203
-66.7731
-66.8214
-66.8629
-66.8959
-66.9188
-66.9304
-66.4458
-66.4553
-66.474
-66.5011
-66.5353
-66.5753
-66.6195
-66.6657
-66.7122
-66.7567
-66.7974
-66.8325
-66.8602
-66.8795
-66.8894
-66.4795
-66.4876
-66.5035
-66.5264
-66.5555
-66.5894
-66.6268
-66.666
-66.7053
-66.743
-66.7774
-66.807
-66.8305
-66.8468
-66.8551
-66.5076
-66.5145
-66.528
-66.5475
-66.5723
-66.6011
-66.6329
-66.6662
-66.6996
-66.7316
-66.7608
-66.7859
-66.8058
-66.8196
-66.8266
-66.531
-66.5369
-66.5484
-66.5651
-66.5862
-66.6108
-66.6379
-66.6663
-66.6948
-66.7221
-66.747
-66.7683
-66.7853
-66.797
-66.803
-66.5502
-66.5553
-66.5652
-66.5795
-66.5976
-66.6188
-66.6421
-66.6664
-66.6908
-66.7142
-66.7356
-66.7539
-66.7684
-66.7785
-66.7836
-66.5659
-66.5703
-66.5789
-66.5913
-66.607
-66.6253
-66.6454
-66.6665
-66.6876
-66.7078
-66.7263
-66.7421
-66.7546
-66.7633
-66.7678
-66.5786
-66.5824
-66.5899
-66.6008
-66.6145
-66.6305
-66.6481
-66.6665
-66.685
-66.7027
-66.7188
-66.7326
-66.7435
-66.7511
-66.755
-66.5886
-66.592
-66.5986
-66.6083
-66.6204
-66.6346
-66.6502
-66.6666
-66.6829
-66.6986
-66.7128
-66.7251
-66.7348
-66.7415
-66.7449
-66.5962
-66.5993
-66.6053
-66.614
-66.625
-66.6378
-66.6519
-66.6666
-66.6813
-66.6955
-66.7083
-66.7193
-66.7281
-66.7341
-66.7372
-66.6018
-66.6046
-66.6101
-66.6181
-66.6283
-66.6401
-66.653
-66.6666
-66.6802
-66.6932
-66.705
-66.7152
-66.7233
-66.7288
-66.7317
-66.6053
-66.608
-66.6132
-66.6208
-66.6304
-66.6415
-66.6538
-66.6666
-66.6795
-66.6918
-66.7029
-66.7126
-66.7202
-66.7254
-66.7281
-66.607
-66.6096
-66.6147
-66.6221
-66.6314
-66.6422
-66.6542
-66.6666
-66.6791
-66.6911
-66.7019
-66.7113
-66.7187
-66.7238
-66.7264
-66.6069
-66.6095
-66.6146
-66.622
-66.6313
-66.6422
-66.6541
-66.6666
-66.6791
-66.6911
-66.702
-66.7114
-66.7188
-66.7239
-66.7265
-66.605
-66.6076
-66.6129
-66.6205
-66.6302
-66.6414
-66.6537
-66.6666
-66.6795
-66.6919
-66.7032
-66.7128
-66.7205
-66.7257
-66.7285
-66.6012
-66.604
-66.6096
-66.6177
-66.6279
-66.6398
-66.6529
-66.6666
-66.6803
-66.6934
-66.7054
-66.7157
-66.7238
-66.7294
-66.7323
-66.5954
-66.5985
-66.6046
-66.6134
-66.6245
-66.6374
-66.6517
-66.6666
-66.6815
-66.6958
-66.7088
-66.72
-66.7288
-66.7349
-66.7381
-66.5874
-66.5909
-66.5976
-66.6074
-66.6198
-66.6342
-66.65
-66.6666
-66.6832
-66.699
-66.7135
-66.7259
-66.7358
-66.7426
-66.7461
-66.5771
-66.581
-66.5886
-66.5997
-66.6136
-66.6299
-66.6478
-66.6666
-66.6853
-66.7033
-66.7196
-66.7337
-66.7448
-66.7525
-66.7564
-66.5641
-66.5685
-66.5773
-66.5899
-66.6059
-66.6245
-66.645
-66.6665
-66.688
-66.7086
-66.7274
-66.7435
-66.7562
-66.7651
-66.7696
-66.5479
-66.5531
-66.5632
-66.5778
-66.5963
-66.6179
-66.6416
-66.6665
-66.6913
-66.7152
-66.7369
-66.7556
-66.7704
-66.7806
-66.7858
-66.5282
-66.5342
-66.546
-66.563
-66.5846
-66.6097
-66.6374
-66.6664
-66.6954
-66.7232
-66.7486
-66.7704
-66.7877
-66.7996
-66.8057
-66.5043
-66.5113
-66.5251
-66.5451
-66.5703
-66.5998
-66.6322
-66.6662
-66.7003
-66.733
-66.7628
-66.7884
-66.8087
-66.8227
-66.8299
-66.4755
-66.4837
-66.5
-66.5234
-66.5531
-66.5878
-66.626
-66.6661
-66.7062
-66.7447
-66.7798
-66.81
-66.834
-66.8505
-66.859
-66.4409
-66.4507
-66.4698
-66.4975
-66.5325
-66.5735
-66.6185
-66.6658
-66.7133
-66.7588
-66.8003
-66.8361
-66.8644
-66.884
-66.8941
-66.3996
-66.4111
-66.4337
-66.4664
-66.5078
-66.5562
-66.6095
-66.6655
-66.7217
-66.7756
-66.8248
-66.8672
-66.9008
-66.9241
-66.9361
-66.3503
-66.3639
-66.3906
-66.4292
-66.4782
-66.5355
-66.5987
-66.665
-66.7316
-66.7956
-66.8541
-66.9045
-66.9444
-66.9721
-66.9863
-66.2915
-66.3076
-66.3391
-66.3849
-66.4429
-66.5107
-66.5856
-66.6643
-66.7434
-66.8195
-66.889
-66.949
-66.9966
-67.0296
-67.0465
-66.2215
-66.2405
-66.2779
-66.332
-66.4007
-66.4811
-66.5699
-66.6634
-66.7574
-66.8478
-66.9306
-67.0021
-67.0588
-67.0982
-67.1183
-66.1383
-66.1608
-66.205
-66.269
-66.3503
-66.4456
-66.551
-66.662
-66.7738
-66.8814
-66.9801
-67.0653
-67.1331
-67.1801
-67.2042
-66.0395
-66.0661
-66.1182
-66.194
-66.2902
-66.4032
-66.5282
-66.6601
-66.793
-66.9213
-67.039
-67.1408
-67.2217
-67.278
-67.3068
-65.9221
-65.9536
-66.0152
-66.1047
-66.2186
-66.3524
-66.5007
-66.6573
-66.8156
-66.9685
-67.109
-67.2306
-67.3275
-67.3949
-67.4294
-65.783
-65.8201
-65.8928
-65.9984
-66.1331
-66.2915
-66.4674
-66.6535
-66.8419
-67.0242
-67.1921
-67.3376
-67.4537
-67.5346
-67.576
-65.6182
-65.6618
-65.7474
-65.8721
-66.0311
-66.2185
-66.427
-66.6481
-66.8724
-67.09
-67.2908
-67.4651
-67.6045
-67.7016
-67.7515
-65.4231
-65.4744
-65.5751
-65.7218
-65.9094
-66.1309
-66.3779
-66.6405
-66.9076
-67.1674
-67.4077
-67.617
-67.7845
-67.9014
-67.9615
-65.1925
-65.2526
-65.3707
-65.5432
-65.7641
-66.0255
-66.3179
-66.6297
-66.9478
-67.2582
-67.5463
-67.7978
-67.9996
-68.1407
-68.2133
-64.9201
-64.9904
-65.1288
-65.331
-65.5906
-65.8988
-66.2445
-66.6145
-66.9935
-67.3646
-67.7104
-68.0132
-68.2568
-68.4275
-68.5155
-64.599
-64.6809
-64.8424
-65.0789
-65.3833
-65.7459
-66.1542
-66.593
-67.0445
-67.4887
-67.9042
-68.2696
-68.5646
-68.7719
-68.8789
-64.221
-64.3162
-64.504
-64.7797
-65.1357
-65.5613
-66.0428
-66.5628
-67.1006
-67.6326
-68.1329
-68.5749
-68.9332
-69.1858
-69.3165
-63.777
-63.887
-64.1046
-64.4248
-64.8396
-65.338
-65.9046
-66.5201
-67.1608
-67.7985
-68.402
-68.9384
-69.3753
-69.6845
-69.8448
-63.2566
-63.3832
-63.634
-64.0041
-64.4857
-65.0672
-65.7324
-66.46
-67.223
-67.9882
-68.7179
-69.3708
-69.906
-70.2866
-70.4844
-62.6484
-62.7931
-63.0804
-63.506
-64.0624
-64.7382
-65.5169
-66.3755
-67.2835
-68.2026
-69.0869
-69.885
-70.5441
-71.0155
-71.2615
-61.9397
-62.104
-62.4309
-62.9171
-63.5562
-64.3378
-65.2459
-66.2565
-67.3364
-68.4413
-69.5158
-70.4958
-71.3124
-71.9008
-72.2094
-61.117
-61.3018
-61.6708
-62.222
-62.951
-63.8497
-64.9036
-66.0895
-67.3719
-68.7009
-70.0105
-71.2199
-72.2393
-72.9805
-73.3715
-60.1659
-60.3719
-60.7843
-61.4034
-62.2281
-63.2538
-64.4698
-65.8554
-67.3751
-68.9741
-70.5747
-72.0759
-73.3593
-74.3033
-74.8052
-59.0718
-59.2986
-59.7543
-60.4421
-61.3655
-62.5257
-63.9183
-65.5281
-67.3231
-69.2461
-71.2079
-73.0831
-74.7149
-75.9332
-76.5874
-57.8202
-58.0665
-58.563
-59.3172
-60.3385
-61.6363
-63.2158
-65.0724
-67.1823
-69.4913
-71.9012
-74.2593
-76.3578
-77.9547
-78.8238
-56.3976
-56.6606
-57.1929
-58.0068
-59.1195
-60.5512
-62.321
-64.4407
-66.9032
-69.6663
-72.6305
-75.6157
-78.3489
-80.4818
-81.6636
-54.7923
-55.0677
-55.6273
-56.489
-57.6791
-59.2312
-61.1832
-63.5709
-66.4153
-69.7017
-73.345
-77.1472
-80.7567
-83.6692
-85.324
-52.996
-53.2774
-53.852
-54.7432
-55.9874
-57.6337
-59.743
-62.3838
-65.6207
-69.489
-73.9493
-78.8125
-83.6485
-87.7298
-90.1337
-51.0042
-51.2837
-51.8567
-52.7523
-54.0165
-55.7145
-57.9336
-60.783
-64.3874
-68.8654
-74.2737
-80.4966
-87.0644
-92.9553
-96.6125
-48.8185
-49.0862
-49.6375
-50.5056
-51.7443
-53.4336
-55.6867
-58.6577
-62.5476
-67.5956
-74.0323
-81.941
-90.9504
-99.7318
-105.631
-46.4469
-46.6919
-47.1985
-48.0015
-49.1593
-50.7613
-52.9411
-55.8944
-59.9035
-65.3615
-72.7687
-82.6211
-94.9946
-108.51
-118.746
-43.9052
-44.1161
-44.5536
-45.2512
-46.2658
-47.6879
-49.6585
-52.3978
-56.2533
-61.7738
-69.807
-81.5503
-98.2459
-119.564
-138.969
-41.2171
-41.3831
-41.7282
-42.2807
-43.0894
-44.2337
-45.8421
-48.1262
-51.4468
-56.4411
-64.269
-77.0405
-98.2867
-131.948
-172.668
-38.4138
-38.5259
-38.759
-39.1324
-39.68
-40.4573
-41.5564
-43.1349
-45.478
-49.1409
-55.2979
-66.6453
-89.706
-139.429
-234.643
-35.5328
-35.5847
-35.6923
-35.8633
-36.1112
-36.4576
-36.938
-37.6126
-38.5927
-40.1088
-42.7223
-48.1161
-62.6097
-115.318
-362.74
-32.6158
-32.6051
-32.5818
-32.541
-32.474
-32.3649
-32.1847
-31.8783
-31.3355
-30.3146
-28.2163
-23.2676
-8.97543
44.0099
292.176
-29.7064
-29.6345
-29.4834
-29.237
-28.8662
-28.3218
-27.5191
-26.3084
-24.4104
-21.269
-15.6899
-4.90787
17.7885
67.7953
164.601
-26.8471
-26.719
-26.4515
-26.0195
-25.3792
-24.4581
-23.1371
-21.216
-18.3489
-13.9164
-6.77707
5.17791
25.5864
59.0808
104.255
15.8511
6.47657
2.70719
0.75262
-0.433295
-1.22042
-1.77124
-2.16934
-2.46256
-2.6803
-2.84151
-2.95877
-3.04051
-3.09225
-3.11732
10.0237
6.14302
3.30478
1.4547
0.222371
-0.631173
-1.24239
-1.69069
-2.02443
-2.27436
-2.46068
-2.59698
-2.69241
-2.75301
-2.78244
6.89109
5.08553
3.21611
1.72778
0.614989
-0.210208
-0.826663
-1.29158
-1.6445
-1.91257
-2.11457
-2.26355
-2.36849
-2.4354
-2.46798
5.01231
4.07235
2.86278
1.74005
0.807885
0.0657971
-0.516164
-0.970253
-1.32347
-1.59664
-1.80527
-1.96068
-2.07095
-2.14162
-2.17612
3.78623
3.24637
2.44913
1.61997
0.868779
0.230602
-0.294463
-0.718962
-1.05803
-1.32553
-1.53291
-1.68915
-1.80091
-1.87293
-1.90821
2.93504
2.5991
2.05762
1.44574
0.851182
0.316856
-0.142597
-0.526996
-0.842275
-1.09614
-1.29607
-1.44848
-1.55845
-1.62974
-1.66478
2.31713
2.09455
1.71498
1.25946
0.791754
0.351112
-0.0428497
-0.383026
-0.669164
-0.904211
-1.09223
-1.23727
-1.34285
-1.41171
-1.44567
1.85377
1.69899
1.42508
1.08164
0.713525
0.352947
0.0195468
-0.276581
-0.531527
-0.744933
-0.918213
-1.05345
-1.15275
-1.2179
-1.25015
1.49787
1.38617
1.18343
0.920965
0.630052
0.335907
0.0560595
-0.198733
-0.422733
-0.613515
-0.770612
-0.894577
-0.986361
-1.04692
-1.077
1.21954
1.13655
0.983264
0.78003
0.548819
0.308934
0.0751726
-0.142266
-0.337006
-0.505484
-0.646013
-0.758048
-0.841645
-0.897107
-0.924744
0.99882
0.935756
0.81777
0.658519
0.473607
0.277708
0.0829495
-0.10156
-0.269513
-0.416858
-0.541198
-0.64126
-0.716462
-0.766607