/*--------------------------------*- C++ -*----------------------------------*\
| =========                 |                                                 |
| \\      /  F ield         | OpenFOAM: The Open Source CFD Toolbox           |
|  \\    /   O peration     | Version:  5.x                                   |
|   \\  /    A nd           | Web:      www.OpenFOAM.org                      |
|    \\/     M anipulation  |                                                 |
\*---------------------------------------------------------------------------*/
FoamFile
{
    version     2.0;
    format      ascii;
    class       volScalarField;
    location    "19";
    object      gradTy;
}
// * * * * * * * * * * * * * * * * * * * * * * * * * * * * * * * * * * * * * //

dimensions      [0 -1 0 1 0 0 0];

internalField   nonuniform List<scalar> 
6300
(
993.163
979.601
966.375
953.707
941.809
930.885
921.124
912.695
905.74
900.366
896.641
894.586
894.169
895.306
897.863
-0.168779
-0.504537
-0.83468
-1.15476
-1.4593
-1.74154
-1.99327
-2.20494
-2.36612
-2.46629
-2.49619
-2.44942
-2.32422
-2.12476
-1.86172
-0.283307
-0.847158
-1.40235
-1.94189
-2.45698
-2.93649
-3.36663
-3.731
-4.01126
-4.18845
-4.24533
-4.16932
-3.95597
-3.61177
-3.15536
-0.400589
-1.19843
-1.98568
-2.75348
-3.49025
-4.18082
-4.80575
-5.34119
-5.75946
-6.03094
-6.12734
-6.02657
-5.71859
-5.21096
-4.53175
-0.521213
-1.56027
-2.58846
-3.59608
-4.5697
-5.49076
-6.33435
-7.06849
-7.65442
-8.04848
-8.20651
-8.09098
-7.68082
-6.98169
-6.03287
-0.645213
-1.93297
-3.21181
-4.47266
-5.70169
-6.87815
-7.97239
-8.94401
-9.74122
-10.302
-10.5592
-10.45
-9.93201
-9.0021
-7.71232
-0.771874
-2.31458
-3.85312
-5.38106
-6.88621
-8.34775
-9.73299
-10.9939
-12.0644
-12.8592
-13.2782
-13.2178
-12.5951
-11.3823
-9.64313
-0.899568
-2.70036
-4.50501
-6.31221
-8.11431
-9.89363
-11.6179
-13.2342
-14.663
-15.7922
-16.4765
-16.5479
-15.8481
-14.2889
-11.933
-1.0256
-3.08227
-5.15433
-7.24846
-9.36514
-11.4946
-13.6106
-15.662
-17.5613
-19.1701
-20.2875
-20.6492
-19.9603
-17.9921
-14.7552
-1.14616
-3.44877
-5.78158
-8.16212
-10.6032
-13.1089
-15.6677
-18.242
-20.7499
-23.0394
-24.8542
-25.8008
-25.3519
-22.9639
-18.4212
-1.25642
-3.78508
-6.36105
-9.01521
-11.7766
-14.6699
-17.7094
-20.8882
-24.1566
-27.3833
-30.289
-32.3478
-32.6825
-30.0903
-23.5778
-1.35086
-4.07405
-6.8623
-9.761
-12.8182
-16.0846
-19.6117
-23.4448
-27.6051
-32.0481
-36.5705
-40.6187
-42.9401
-41.1368
-31.8432
-1.42381
-4.29794
-7.25307
-10.3482
-13.6504
-17.2386
-21.208
-25.6739
-30.7706
-36.6332
-43.3262
-50.6161
-57.3224
-59.6734
-48.2306
-1.47025
-4.44081
-7.50378
-10.7284
-14.1966
-18.0113
-22.3077
-27.2722
-33.1701
-40.3878
-49.4849
-61.1967
-76.0598
-92.0037
-91.7775
-1.4866
-4.49126
-7.59282
-10.8649
-14.3964
-18.302
-22.7392
-27.937
-34.2495
-42.2629
-53.0284
-68.6259
-93.7159
-140.504
-247.411
901.345
905.239
909.733
914.69
919.979
925.472
931.052
936.61
942.055
947.303
952.287
956.949
961.241
965.125
968.57
971.553
974.054
976.059
977.559
978.546
979.016
978.968
978.402
977.318
975.72
973.613
971.001
967.89
964.288
960.202
955.638
950.605
945.109
939.159
932.76
925.92
918.644
910.94
902.813
894.269
885.315
875.957
866.203
856.06
845.534
834.634
823.367
811.739
799.757
787.428
774.756
761.748
748.407
734.74
720.751
706.447
691.835
676.924
661.722
646.239
630.487
614.479
598.225
581.74
565.038
548.133
531.041
513.778
496.365
478.822
461.174
443.45
425.679
407.898
390.144
372.46
354.889
337.476
320.268
303.313
286.655
270.341
254.411
238.905
223.859
209.303
195.261
181.753
168.791
156.381
-1.57724
-1.29834
-1.01101
-0.726344
-0.453787
-0.200533
0.0286322
0.231203
0.406593
0.555676
0.680316
0.782946
0.866234
0.932836
0.985239
1.02567
1.05608
1.0781
1.09311
1.10225
1.10644
1.10644
1.10288
1.09629
1.08712
1.07579
1.0627
1.04826
1.03287
1.01693
1.00081
0.984868
0.969347
0.954411
0.940107
0.926362
0.913001
0.899775
0.886412
0.872662
0.858355
0.843432
0.827969
0.812171
0.796344
0.780841
0.766003
0.752088
0.739216
0.727326
0.71617
0.705326
0.694247
0.682333
0.669012
0.653815
0.636439
0.616773
0.594892
0.571015
0.545426
0.518387
0.490033
0.460293
0.428832
0.395041
0.358059
0.316858
0.270351
0.217524
0.157579
0.0900398
0.0148445
-0.0676247
-0.156551
-0.250738
-0.348697
-0.448745
-0.549103
-0.647965
-0.74355
-0.834114
-0.917944
-0.993344
-1.05865
-1.11225
-1.15272
-1.17888
-1.19001
-1.18594
-2.66116
-2.17744
-1.68085
-1.19136
-0.725602
-0.29586
0.0901118
0.428697
0.719646
0.965165
1.16903
1.33583
1.47041
1.57744
1.66121
1.7255
1.77354
1.80804
1.83125
1.84499
1.85075
1.84976
1.84298
1.83126
1.8153
1.79578
1.77332
1.74861
1.72231
1.69514
1.66775
1.64076
1.61463
1.58967
1.56594
1.54332
1.52144
1.49983
1.47795
1.45531
1.43156
1.40656
1.38047
1.35365
1.32671
1.30034
1.2752
1.25182
1.23046
1.21104
1.19312
1.17592
1.15841
1.13946
1.118
1.09316
1.06438
1.03149
0.994674
0.954428
0.911373
0.866095
0.818956
0.769925
0.718468
0.663517
0.60352
0.536583
0.46068
0.373911
0.274753
0.162288
0.0363515
-0.102399
-0.252516
-0.411869
-0.577819
-0.747409
-0.917552
-1.08517
-1.24727
-1.40095
-1.54337
-1.6717
-1.7831
-1.87474
-1.94402
-1.98877
-2.0076
-2.0001
-3.79475
-3.07516
-2.34055
-1.62231
-0.945654
-0.328264
0.219715
0.694667
1.09799
1.4345
1.71097
1.93498
2.1141
2.25539
2.36509
2.44858
2.51035
2.5541
2.58285
2.59904
2.60464
2.60122
2.59005
2.57216
2.54847
2.51981
2.48703
2.45106
2.41286
2.37348
2.33395
2.29524
2.25808
2.22298
2.19004
2.15902
2.12933
2.10012
2.07043
2.0394
2.00639
1.97113
1.93384
1.89517
1.85612
1.8179
1.78171
1.74849
1.71877
1.69247
1.66891
1.64681
1.6245
1.60008
1.57175
1.53806
1.49812
1.45172
1.39929
1.34178
1.28041
1.21638
1.1505
1.08295
1.01304
0.939167
0.858885
0.769131
0.666576
0.548058
0.411015
0.253863
0.0762446
-0.12087
-0.335241
-0.563558
-0.801749
-1.04532
-1.28968
-1.53036
-1.76314
-1.98403
-2.18912
-2.37448
-2.53601
-2.66945
-2.77065
-2.83602
-2.86309
-2.85105
-4.99965
-3.99439
-2.97659
-1.99326
-1.08025
-0.260593
0.454606
1.06391
1.57268
1.99043
2.32858
2.59889
2.8124
2.97893
3.10685
3.20307
3.27323
3.32189
3.35267
3.3685
3.37166
3.364
3.34692
3.32157
3.28893
3.24991
3.20551
3.15686
3.10526
3.05218
2.99915
2.94761
2.89875
2.85332
2.81153
2.77298
2.73668
2.70123
2.66501
2.62651
2.58459
2.53878
2.48936
2.43737
2.38448
2.3327
2.28408
2.24029
2.20228
2.17009
2.14271
2.11816
2.09376
2.06646
2.03333
1.99207
1.9413
1.88076
1.81133
1.73479
1.6534
1.56942
1.48456
1.39947
1.31342
1.22414
1.12798
1.0202
0.895547
0.748965
0.576319
0.374993
0.144291
-0.114416
-0.397806
-0.700955
-1.01786
-1.34203
-1.66704
-1.98687
-2.29609
-2.58978
-2.86321
-3.11153
-3.32931
-3.51053
-3.64884
-3.73838
-3.77486
-3.75663
-6.29956
-4.93167
-3.56299
-2.26294
-1.08037
-0.0424678
0.842042
1.57796
2.1785
2.66103
3.04395
3.34463
3.5784
3.75814
3.89429
3.99512
4.06715
4.11547
4.1441
4.15623
4.15435
4.14039
4.11577
4.08156
4.03863
3.98784
3.93018
3.86697
3.79986
3.73089
3.66228
3.59621
3.53454
3.47849
3.42843
3.38376
3.3429
3.30354
3.26297
3.2186
3.16848
3.11172
3.04867
2.98096
2.9113
2.84304
2.77959
2.72382
2.6775
2.64087
2.6125
2.58939
2.56727
2.54128
2.50672
2.45987
2.3986
2.32267
2.2337
2.13485
2.03018
1.92382
1.81903
1.71745
1.61849
1.5191
1.41389
1.29564
1.15616
0.987468
0.782984
0.538487
0.252729
-0.0723566
-0.431859
-0.818483
-1.22344
-1.63749
-2.0518
-2.4586
-2.85137
-3.22463
-3.57344
-3.89249
-4.17521
-4.41334
-4.59721
-4.71711
-4.76538
-4.73866
-7.7197
-5.87001
-4.05044
-2.36334
-0.872019
0.396707
1.44365
2.28716
2.95447
3.47533
3.87797
4.18696
4.42246
4.60038
4.73283
4.82893
4.89547
4.93767
4.95957
4.96442
4.95474
4.93242
4.89872
4.85441
4.79998
4.73596
4.66317
4.58299
4.49748
4.40941
4.32206
4.23879
4.16255
4.09536
4.03792
3.98937
3.94728
3.90791
3.86671
3.81928
3.76227
3.69402
3.61498
3.52767
3.43643
3.34674
3.26433
3.19407
3.13906
3.10003
3.07502
3.05946
3.04665
3.02873
2.99807
2.9487
2.87728
2.78362
2.67055
2.54354
2.40965
2.27617
2.14912
2.0319
1.9244
1.82264
1.71878
1.60184
1.45903
1.27771
1.04746
0.761576
0.417976
0.0194366
-0.426687
-0.909444
-1.41578
-1.9324
-2.44723
-2.95041
-3.43458
-3.89458
-4.32641
-4.72563
-5.08523
-5.39418
-5.6376
-5.79889
-5.8638
-5.82545
-9.28538
-6.76489
-4.34705
-2.18175
-0.343058
1.15535
2.33836
3.25028
3.94152
4.4601
4.8471
5.13535
5.34971
5.50834
5.624
5.70555
5.75914
5.78936
5.79989
5.79382
5.77364
5.74115
5.69726
5.64214
5.57548
5.49705
5.40714
5.30701
5.19911
5.08725
4.97631
4.8716
4.77789
4.69855
4.63493
4.58601
4.54812
4.51525
4.47977
4.43412
4.37257
4.29222
4.19355
4.0804
3.95966
3.84031
3.73192
3.64268
3.57796
3.53933
3.52426
3.52589
3.53371
3.53484
3.51667
3.46957
3.38831
3.27278
3.12777
2.96244
2.78879
2.61955
2.46533
2.33261
2.22232
2.12945
2.04274
1.94554
1.81758
1.63862
1.39226
1.06799
0.66254
0.179953
-0.368566
-0.966254
-1.59314
-2.22971
-2.85924
-3.46941
-4.05245
-4.60492
-5.12618
-5.61568
-6.06806
-6.46923
-6.79615
-7.01935
-7.1108
-7.05622
-11.0146
-7.51193
-4.28001
-1.52989
0.675789
2.36803
3.62331
4.53109
5.17716
5.63429
5.9584
6.19011
6.35722
6.47816
6.56429
6.62243
6.65646
6.66941
6.66412
6.64352
6.61029
6.56627
6.512
6.44649
6.36792
6.27468
6.16587
6.04224
5.90646
5.7638
5.6216
5.48862
5.37255
5.27913
5.21083
5.1668
5.14178
5.12639
5.10751
5.07189
5.01
4.91685
4.79303
4.64407
4.48096
4.31814
4.17201
4.05603
3.97934
3.94479
3.94949
3.98345
4.03046
4.06879
4.07698
4.03968
3.94873
3.80446
3.61429
3.39338
3.16161
2.94137
2.75064
2.60106
2.49523
2.42744
2.38186
2.33359
2.24961
2.09667
1.84928
1.49135
1.01823
0.435461
-0.239584
-0.980962
-1.75648
-2.53708
-3.29903
-4.02743
-4.71424
-5.36011
-5.97161
-6.55908
-7.12454
-7.65112
-8.10397
-8.42942
-8.568
-8.48938
-12.8908
-7.86922
-3.5193
-0.0942521
2.43363
4.20945
5.4081
6.18817
6.6843
6.99947
7.20221
7.33735
7.43064
7.49753
7.54434
7.57342
7.58356
7.57514
7.54976
7.5108
7.46185
7.40552
7.34228
7.269
7.18089
7.07408
6.9453
6.79435
6.62307
6.43906
6.25299
6.08067
5.93396
5.82291
5.75118
5.71959
5.72095
5.74195
5.75873
5.7469
5.69186
5.58502
5.42813
5.22755
5.00127
4.77136
4.56812
4.41226
4.31949
4.29323
4.33205
4.42174
4.53922
4.64566
4.70231
4.68655
4.58548
4.40178
4.14461
3.83953
3.5174
3.22029
2.97628
2.80612
2.71299
2.69308
2.72453
2.77271
2.78063
2.69039
2.46517
2.08028
1.53154
0.823563
-0.0153447
-0.946749
-1.91271
-2.8715
-3.78732
-4.64546
-5.43513
-6.16487
-6.85171
-7.53423
-8.23704
-8.93919
-9.59525
-10.1086
-10.3379
-10.2182
-14.7584
-7.25961
-1.42708
2.63313
5.27418
6.88156
7.79504
8.25346
8.45129
8.52577
8.54262
8.54407
8.54128
8.54506
8.5491
8.55087
8.53659
8.50444
8.45415
8.39159
8.32319
8.25386
8.18614
8.11197
8.01989
7.90421
7.75577
7.57483
7.35712
7.11637
6.8637
6.63495
6.4431
6.30921
6.23282
6.22403
6.27097
6.3627
6.45029
6.48326
6.44743
6.32443
6.12529
5.84722
5.52595
5.18538
4.89521
4.67683
4.56307
4.54719
4.64059
4.81929
5.06312
5.2935
5.43117
5.45559
5.34053
5.1042
4.74325
4.30958
3.83654
3.42211
3.09499
2.89967
2.82474
2.88421
3.04258
3.2693
3.45248
3.478
3.31049
2.90472
2.27373
1.39978
0.341695
-0.86315
-2.0796
-3.2681
-4.35896
-5.36236
-6.24252
-7.03161
-7.73821
-8.48028
-9.3506
-10.2937
-11.2921
-12.1966
-12.6106
-12.4027
-15.8789
-4.2509
3.21685
7.404
9.60346
10.5533
10.8378
10.6945
10.3964
10.1356
9.90571
9.7574
9.64299
9.59275
9.55769
9.55202
9.51592
9.46045
9.37682
9.28145
9.18653
9.10056
9.03999
8.98144
8.89359
8.78223
8.61377
8.40898
8.1251
7.8116
7.4407
7.13684
6.86956
6.71345
6.61786
6.64901
6.75726
6.99015
7.22127
7.31942
7.3293
7.17423
6.93687
6.52985
6.07916
5.52759
5.11969
4.79147
4.66644
4.64452
4.82698
5.12372
5.60708
6.07549
6.32378
6.42612
6.27088
5.9867
5.44726
4.83697
4.07189
3.49883
3.02451
2.82043
2.74351
2.93349
3.2627
3.82907
4.35186
4.54402
4.49936
4.05396
3.36621
2.24163
0.910516
-0.762382
-2.28633
-3.80487
-5.05615
-6.25631
-7.18072
-8.01677
-8.57332
-9.24133
-10.3591
-11.5682
-13.1241
-14.9905
-15.7786
-15.3319
-12.8451
4.74876
12.5846
15.0367
15.7317
15.1828
14.4962
13.3582
12.2877
11.7007
11.1512
10.9218
10.6521
10.6184
10.5238
10.5968
10.523
10.4569
10.3162
10.1705
10.0368
9.91054
9.89077
9.89297
9.80101
9.74236
9.52397
9.3569
8.93561
8.58938
7.92103
7.58598
7.1358
7.03046
6.82029
6.96285
7.06396
7.62007
8.18362
8.28262
8.44859
8.14244
7.9927
7.27528
6.77759
5.66286
5.22936
4.61347
4.62131
4.44747
4.84878
5.15939
6.17252
7.1744
7.42653
7.7675
7.38684
7.23676
6.25325
5.58721
4.03072
3.43332
2.56488
2.55809
2.27794
2.78226
3.1413
4.45157
5.72732
5.95107
6.26528
5.55214
5.08771
3.3809
1.97151
-0.876088
-2.50078
-4.72645
-5.82689
-7.54726
-8.24607
-9.4043
-9.24782
-9.35466
-11.2357
-12.3434
-14.5087
-19.3373
-20.7244
-19.5453
11.1764
27.8001
29.7052
25.1993
23.6511
20.01
18.804
15.9244
13.4821
13.2112
11.9352
12.1437
11.321
11.7315
11.2479
11.8527
11.5183
11.5602
11.2624
11.0417
10.8759
10.5666
10.7094
10.9395
10.6599
10.932
10.3597
10.6704
9.63749
9.83048
7.92087
8.20034
6.90497
7.49788
6.51425
7.33586
6.71495
8.23876
9.81441
9.14886
10.2472
8.88489
9.86548
7.70381
8.36406
4.81667
5.6012
3.53686
4.83733
3.42175
5.00077
4.18299
6.75374
9.35252
8.4009
10.1476
8.17033
9.68653
6.6017
7.61931
2.60808
3.75777
0.864131
2.68905
0.682413
2.83991
1.64984
5.12348
8.61736
7.22753
9.51028
6.69189
8.59797
4.09163
5.10327
-2.75099
-1.85002
-7.26853
-5.70506
-10.3094
-8.64995
-12.6851
-9.54317
-6.91315
-13.2262
-11.5954
-12.0581
-28.6396
-29.3654
-26.0459
146.035
72.0458
56.0571
31.1026
34.5839
21.3306
25.5219
17.8609
11.5499
16.1694
10.5814
14.8509
10.214
14.1321
10.4051
14.4609
11.9719
13.153
12.0975
11.8341
11.9217
10.5719
11.4023
12.7204
10.7247
13.3376
9.92431
13.9187
8.57438
14.0995
4.76869
11.0827
3.95525
10.2358
3.60894
9.78634
3.2778
8.78305
14.6728
7.47532
15.5895
6.25378
16.2634
4.06906
16.0098
-2.2672
10.0757
-2.38476
8.96477
-1.91591
8.60445
-1.6726
7.29485
16.6434
5.4899
17.8906
3.92344
18.762
1.0429
18.3332
-7.68599
9.90486
-7.63105
8.33769
-6.9092
7.71828
-6.55711
5.76643
18.5401
3.21565
20.1011
1.02855
21.3422
-3.14334
21.0021
-17.2332
7.90103
-19.8644
3.29857
-22.0909
-0.853468
-26.3006
-9.10117
8.40647
-26.6553
-7.83275
13.6036
-60.7738
-43.8311
-36.9337
143.334
129.879
117.173
105.176
93.841
83.1125
72.9318
63.2378
53.9689
45.0642
36.4638
28.1094
19.9443
11.9133
3.96224
-1.16524
-1.12308
-1.0642
-0.992048
-0.910272
-0.822287
-0.731026
-0.6388
-0.547264
-0.457464
-0.36992
-0.284733
-0.201677
-0.120295
-0.039977
-1.96376
-1.89036
-1.78838
-1.6641
-1.52402
-1.37413
-1.21946
-1.06391
-0.910189
-0.75994
-0.613923
-0.472191
-0.33427
-0.199313
-0.0662248
-2.79604
-2.68619
-2.53485
-2.35196
-2.14757
-1.93072
-1.70877
-1.48719
-1.26963
-1.05818
-0.853635
-0.655834
-0.463897
-0.276458
-0.0918338
-3.67813
-3.52349
-3.31284
-3.06128
-2.78357
-2.49241
-2.1977
-1.90643
-1.62296
-1.3495
-1.0866
-0.833605
-0.589022
-0.350787
-0.116485
-4.62919
-4.41677
-4.1317
-3.79674
-3.43298
-3.05761
-2.68317
-2.31785
-1.96626
-1.63024
-1.30964
-1.00296
-0.707795
-0.421177
-0.139804
-5.67318
-5.38264
-5.00041
-4.56095
-4.09398
-3.62186
-3.15948
-2.71553
-2.29398
-1.89554
-1.51875
-1.16079
-0.818013
-0.48632
-0.161355
-6.84152
-6.44012
-5.92629
-5.35261
-4.76009
-4.17631
-3.61734
-3.09077
-2.59857
-2.13918
-1.70902
-1.30342
-0.91714
-0.54473
-0.180651
-8.17697
-7.60994
-6.91194
-6.16303
-5.41741
-4.70592
-4.04276
-3.43163
-2.87032
-2.35356
-1.87473
-1.42671
-1.00239
-0.594804
-0.197168
-9.73857
-8.91066
-7.94841
-6.97011
-6.04052
-5.18716
-4.41609
-3.72262
-3.09748
-2.53001
-2.0096
-1.52629
-1.0709
-0.634922
-0.210382
-11.6048
-10.3457
-9.00089
-7.72842
-6.58735
-5.58606
-4.71178
-3.94524
-3.26695
-2.65936
-2.10734
-1.59794
-1.11998
-0.663598
-0.219818
-13.8595
-11.8663
-9.98095
-8.35525
-6.99434
-5.85789
-4.89967
-4.07958
-3.36569
-2.73312
-2.16243
-1.63812
-1.14747
-0.679666
-0.225107
-16.5009
-13.279
-10.7012
-8.71722
-7.17678
-5.95144
-4.94938
-4.10769
-3.38307
-2.74498
-2.17113
-1.64464
-1.15211
-0.682477
-0.226052
-19.0431
-14.0474
-10.8277
-8.6355
-7.04407
-5.82165
-4.83866
-4.01869
-3.31389
-2.69256
-2.13246
-1.61716
-1.13386
-0.672067
-0.222672
-18.9412
-13.0397
-9.92642
-7.95297
-6.54228
-5.45236
-4.56489
-3.81446
-3.16122
-2.57888
-2.04896
-1.55766
-1.0941
-0.649253
-0.215237
-1.47517
-4.45608
-7.5312
-10.7721
-14.2653
-18.1224
-22.497
-27.6128
-33.8176
-41.6918
-52.2897
-67.735
-92.8571
-140.154
-245.929
-1.44134
-4.3519
-7.34814
-10.4944
-13.867
-17.5623
-21.7078
-26.4814
-32.1401
-39.0692
-47.8494
-59.2949
-74.0897
-89.8591
-83.7956
-1.38816
-4.18822
-7.06089
-10.0594
-13.2446
-16.6893
-20.4826
-24.7351
-29.5804
-35.1611
-41.5579
-48.5284
-54.645
-54.7263
-33.834
-1.31848
-3.97409
-6.68624
-9.49471
-12.4421
-15.5742
-18.9383
-22.577
-26.5098
-30.6861
-34.8679
-38.3548
-39.391
-34.158
-16.3555
-1.23586
-3.72068
-6.24468
-8.8335
-11.5113
-14.2979
-17.2033
-20.2146
-23.2701
-26.2071
-28.6605
-29.8832
-28.4905
-22.3185
-9.23006
-1.14414
-3.44004
-5.75807
-8.1105
-10.5048
-12.9392
-15.3947
-17.8213
-20.1125
-22.0639
-23.3074
-23.2277
-20.9091
-15.2817
-5.83494
-1.04714
-3.14401
-5.24755
-7.3584
-9.47041
-11.5656
-13.6062
-15.522
-17.1909
-18.4122
-18.8731
-18.1269
-15.6253
-10.8973
-3.9836
-0.948347
-2.84333
-4.73194
-6.60546
-8.44768
-10.23
-11.9044
-13.394
-14.5803
-15.2884
-15.2768
-14.2452
-11.8875
-8.03064
-2.86387
-0.850732
-2.54708
-4.22678
-5.87424
-7.46653
-8.96916
-10.3308
-11.4767
-12.3016
-12.6642
-12.389
-11.2842
-9.19088
-6.07359
-2.1337
-0.756668
-2.26237
-3.74399
-5.18132
-6.5476
-7.80623
-8.90702
-9.7823
-10.3439
-10.4831
-10.0773
-9.0095
-7.20532
-4.68777
-1.63096
-0.667897
-1.99439
-3.29194
-4.5377
-5.7034
-6.75288
-7.6398
-8.30568
-8.67952
-8.68032
-8.22529
-7.24617
-5.71513
-3.67643
-1.27065
-0.585582
-1.7465
-2.87583
-3.94968
-4.93988
-5.8124
-6.52603
-7.03184
-7.27414
-7.19407
-6.7372
-5.8661
-4.57747
-2.91998
-1.00445
-0.51038
-1.52054
-2.49825
-3.41972
-4.25805
-4.98222
-5.55655
-5.94097
-6.09261
-5.96947
-5.53674
-4.77595
-3.69595
-2.34273
-0.803069
-0.442537
-1.31711
-2.15971
-2.94749
-3.65549
-4.25608
-4.71893
-5.01172
-5.10186
-4.95983
-4.56407
-3.90746
-3.00416
-1.89493
-0.647855
-0.381985
-1.13588
-1.85922
-2.53065
-3.1275
-3.62557
-3.9994
-4.22317
-4.27232
-4.12636
-3.77253
-3.21025
-2.45536
-1.54286
-0.52641
-0.328432
-0.975854
-1.59477
-2.16561
-2.6681
-3.08131
-3.38407
-3.55586
-3.57827
-3.43724
-3.12574
-2.64679
-2.01601
-1.26296
-0.430223
-0.281433
-0.835623
-1.3637
-1.84802
-2.27068
-2.61374
-2.85969
-2.99226
-2.9977
-2.86648
-2.59523
-2.18875
-1.66155
-1.03839
-0.353276
-0.240458
-0.713522
-1.16302
-1.57323
-1.92852
-2.2136
-2.41403
-2.51693
-2.51202
-2.39295
-2.15861
-1.81453
-1.37373
-0.856846
-0.291215
-0.204933
-0.607783
-0.98962
-1.33658
-1.63511
-1.87225
-2.03609
-2.11644
-2.10563
-1.99945
-1.79819
-1.50748
-1.13873
-0.70915
-0.24082
-0.17428
-0.516633
-0.840434
-1.13356
-1.38433
-1.58178
-1.71613
-1.77927
-1.76544
-1.67197
-1.4999
-1.2546
-0.945988
-0.588356
-0.199666
-0.147937
-0.438365
-0.712547
-0.959953
-1.17056
-1.33513
-1.4456
-1.49553
-1.48057
-1.39906
-1.25245
-1.04568
-0.787279
-0.48913
-0.165901
-0.125374
-0.371379
-0.603251
-0.811898
-0.988751
-1.12604
-1.21712
-1.25684
-1.24191
-1.17135
-1.04677
-0.872621
-0.656169
-0.407316
-0.13809
-0.106104
-0.314204
-0.510082
-0.685918
-0.834415
-0.949042
-1.02431
-1.05609
-1.04188
-0.981147
-0.875523
-0.728929
-0.547557
-0.33965
-0.115107
-0.0896854
-0.265517
-0.430827
-0.578921
-0.703597
-0.799369
-0.861703
-0.887263
-0.87415
-0.822117
-0.732719
-0.609387
-0.457368
-0.283537
-0.0960603
-0.0757243
-0.224136
-0.363527
-0.488183
-0.592847
-0.672913
-0.724628
-0.745292
-0.733447
-0.689029
-0.613478
-0.509764
-0.382325
-0.236897
-0.0802387
-0.0638716
-0.189019
-0.306459
-0.411328
-0.499177
-0.566142
-0.609112
-0.625895
-0.615361
-0.57756
-0.513792
-0.426614
-0.319773
-0.198057
-0.0670688
-0.0538217
-0.159252
-0.258118
-0.34629
-0.420009
-0.476032
-0.51178
-0.525465
-0.516207
-0.484121
-0.430362
-0.357118
-0.267549
-0.165654
-0.0560861
-0.0453082
-0.134044
-0.217203
-0.291288
-0.353126
-0.400001
-0.429767
-0.440965
-0.432903
-0.405731
-0.36046
-0.298958
-0.223883
-0.138578
-0.046912
-0.0381006
-0.112707
-0.182589
-0.244789
-0.296634
-0.335848
-0.360648
-0.369837
-0.36287
-0.339907
-0.301829
-0.250222
-0.187321
-0.115919
-0.0392365
-0.0319999
-0.0946517
-0.15331
-0.205479
-0.248912
-0.281703
-0.30237
-0.309927
-0.303943
-0.284579
-0.252592
-0.209327
-0.156661
-0.0969263
-0.0328045
-0.0268353
-0.079369
-0.128536
-0.172235
-0.20858
-0.235978
-0.253194
-0.259418
-0.254308
-0.238014
-0.211187
-0.174961
-0.130909
-0.08098
-0.0274052
-0.0224601
-0.0664242
-0.107558
-0.144097
-0.174462
-0.197321
-0.211649
-0.21678
-0.212439
-0.198763
-0.176308
-0.146027
-0.109239
-0.0675652
-0.0228637
-0.0187488
-0.055445
-0.0897694
-0.120246
-0.145555
-0.164587
-0.176492
-0.18072
-0.177051
-0.165608
-0.146862
-0.121613
-0.0909598
-0.056253
-0.0190346
-0.0155938
-0.0461127
-0.0746527
-0.0999839
-0.121007
-0.136802
-0.146664
-0.150142
-0.14706
-0.137525
-0.121933
-0.100952
-0.0754954
-0.0466847
-0.0157961
-0.0129031
-0.0381545
-0.0617642
-0.0827126
-0.10009
-0.113135
-0.121269
-0.124121
-0.121549
-0.113647
-0.100745
-0.0833972
-0.0623603
-0.0385591
-0.0130462
-0.0105976
-0.0313362
-0.0507235
-0.0679209
-0.0821809
-0.092879
-0.0995413
-0.101866
-0.0997391
-0.0932404
-0.0826434
-0.0684046
-0.0511447
-0.0316221
-0.0106988
-0.00860927
-0.0254561
-0.0412033
-0.0551687
-0.0667449
-0.0754251
-0.0808253
-0.0827022
-0.0809647
-0.0756798
-0.0670709
-0.0555096
-0.0415002
-0.0256576
-0.00868054
-0.00687901
-0.0203396
-0.0329203
-0.0440756
-0.0533199
-0.0602486
-0.0645558
-0.066048
-0.0646536
-0.0604273
-0.0535485
-0.0443146
-0.0331284
-0.0204809
-0.00692898
-0.00535527
-0.015834
-0.025627
-0.0343092
-0.0415027
-0.0468925
-0.0502409
-0.051398
-0.0503088
-0.0470165
-0.0416613
-0.0344751
-0.0257714
-0.015932
-0.00538995
-0.00399251
-0.0118046
-0.019105
-0.0255767
-0.0309378
-0.0349538
-0.0374476
-0.0383077
-0.0374937
-0.035038
-0.0310456
-0.0256893
-0.019203
-0.0118711
-0.00401606
-0.00274986
-0.00813037
-0.0131583
-0.0176153
-0.021307
-0.0240721
-0.0257886
-0.02638
-0.0258184
-0.0241266
-0.0213768
-0.0176882
-0.0132218
-0.00817346
-0.0027651
-0.00158997
-0.004701
-0.00760816
-0.0101852
-0.0123197
-0.0139184
-0.0149109
-0.0152528
-0.014928
-0.0139498
-0.0123598
-0.0102271
-0.00764468
-0.00472579
-0.00159874
-0.000477951
-0.00141318
-0.00228725
-0.00306226
-0.00370446
-0.00418575
-0.00448488
-0.00458842
-0.00449143
-0.00419772
-0.00371978
-0.00307828
-0.0023012
-0.00142264
-0.000481299
0.000619717
0.00183217
0.00296486
0.00396842
0.00479905
0.00542043
0.0058053
0.00593666
0.00580857
0.0054264
0.00480668
0.0039764
0.00297181
0.00183689
0.000621387
0.00173611
0.00513291
0.00830663
0.0111192
0.0134478
0.0151908
0.0162715
0.0166419
0.016285
0.0152154
0.0134793
0.0111521
0.00833531
0.00515238
0.001743
0.00290489
0.00858854
0.0138992
0.0186058
0.0225033
0.0254211
0.0272308
0.0278521
0.0272561
0.0254673
0.0225624
0.0186677
0.013953
0.0086251
0.00291782
0.00416123
0.0123032
0.0199111
0.0266543
0.032239
0.0364207
0.0390154
0.0399075
0.0390555
0.036494
0.0323329
0.0267525
0.0199966
0.0123612
0.00418176
0.00554294
0.0163885
0.0265234
0.0355073
0.0429488
0.0485222
0.051982
0.0531739
0.0520419
0.0486315
0.0430887
0.0356536
0.0266508
0.016475
0.00557353
0.00709149
0.0209674
0.0339349
0.0454312
0.0549556
0.0620912
0.0665234
0.0680539
0.0666101
0.0622496
0.0551583
0.0456432
0.0341195
0.0210927
0.00713581
0.00885326
0.0261769
0.042368
0.0567243
0.068621
0.0775374
0.0830796
0.084999
0.0832036
0.0777639
0.0689109
0.0570275
0.042632
0.0263561
0.00891663
0.0108809
0.0321728
0.052075
0.0697252
0.0843559
0.0953263
0.102151
0.104523
0.102327
0.0956481
0.0847677
0.0701559
0.05245
0.0324274
0.0109709
0.0132347
0.0391337
0.0633455
0.0848228
0.102632
0.115993
0.124315
0.127219
0.124564
0.116449
0.103215
0.0854327
0.0638766
0.0394942
0.0133622
0.0159844
0.0472662
0.0765147
0.102467
0.123997
0.14016
0.15024
0.153776
0.150592
0.140804
0.124821
0.10333
0.0772657
0.0477759
0.0161647
0.0192113
0.0568104
0.0919725
0.123183
0.149087
0.168551
0.180707
0.184999
0.181206
0.169461
0.150252
0.124401
0.0930335
0.0575305
0.019466
0.0230099
0.0680467
0.110174
0.147582
0.17865
0.202016
0.216636
0.221835
0.21734
0.203301
0.180295
0.149303
0.111673
0.0690638
0.0233696
0.0274908
0.0813032
0.131653
0.176384
0.21356
0.241553
0.259106
0.265401
0.2601
0.243368
0.215884
0.178813
0.133769
0.0827392
0.0279988
0.0327838
0.0969637
0.157034
0.21043
0.254848
0.288338
0.309393
0.317021
0.310796
0.290901
0.258128
0.21386
0.160021
0.0989912
0.033501
0.0390402
0.115478
0.187048
0.25071
0.303722
0.343758
0.369005
0.378257
0.370985
0.347376
0.308353
0.255553
0.191266
0.11834
0.0400527
0.0464372
0.137371
0.222554
0.298385
0.361607
0.409445
0.439721
0.450968
0.442517
0.414553
0.368145
0.305221
0.228508
0.141413
0.0478668
0.0551816
0.163258
0.264554
0.354813
0.430175
0.487326
0.52365
0.537357
0.527596
0.494537
0.439404
0.364465
0.27296
0.168964
0.0571998
0.0655136
0.193853
0.314217
0.421586
0.511386
0.579669
0.623283
0.64004
0.628853
0.589847
0.524414
0.435211
0.326084
0.201908
0.0683631
0.077712
0.229985
0.372902
0.500557
0.607538
0.689139
0.741564
0.762125
0.749426
0.703507
0.625929
0.519793
0.389657
0.241358
0.0817353
0.0920982
0.272612
0.442186
0.593883
0.721313
0.818869
0.881969
0.907304
0.893066
0.839148
0.747273
0.621038
0.46584
0.288671
0.0977792
0.109041
0.322836
0.523882
0.704057
0.85583
0.972521
1.0486
1.07996
1.06426
1.00115
0.892475
0.742394
0.55728
0.345512
0.117063
0.128961
0.381913
0.620068
0.833952
1.0147
1.15438
1.24627
1.28529
1.26837
1.19477
1.06643
0.888076
0.667226
0.413934
0.140291
0.152332
0.451264
0.733107
0.986852
1.2021
1.36941
1.48064
1.52947
1.51183
1.42642
1.27511
1.06326
0.799698
0.496489
0.168335
0.179684
0.532479
0.865655
1.16648
1.42279
1.62337
1.75835
1.81981
1.80235
1.70381
1.52584
1.27436
0.959699
0.596363
0.202292
0.211599
0.627316
1.02067
1.37701
1.68218
1.92288
2.08712
2.16493
2.14917
2.03635
1.8276
1.52932
1.1535
0.717579
0.243548
0.248707
0.737683
1.20138
1.62306
1.98634
2.27547
2.47589
2.57504
2.56337
2.4355
2.19154
1.83811
1.38903
0.865259
0.293874
0.291675
0.865606
1.41125
1.90967
2.34199
2.68965
2.93497
3.0621
3.05824
2.91527
2.63149
2.21331
1.67643
1.046
0.355564
0.341182
1.01317
1.6539
2.24218
2.75643
3.17487
3.47612
3.6401
3.64971
3.49281
3.16476
2.67095
2.02877
1.26841
0.431622
0.397895
1.18243
1.93298
2.62609
3.23737
3.74148
4.11256
4.3253
4.35679
4.18918
3.81313
3.2316
2.46318
1.54387
0.526055
0.462419
1.3753
2.25192
3.06681
3.79273
4.40046
4.85894
5.13635
5.20211
5.03028
4.60418
3.92201
3.00236
1.88775
0.644297
0.535242
1.59335
2.61373
3.56928
4.43016
5.16306
5.73105
6.09434
6.21241
6.04794
5.57304
4.77734
3.6769
2.3211
0.793885
0.616658
1.83759
3.02054
4.13749
5.15645
6.04015
6.74527
7.22261
7.41888
7.28115
6.76464
5.84427
4.52876
2.87346
0.985525
0.706673
2.10819
3.47318
4.77374
5.97663
7.04122
7.91766
8.54603
8.85727
8.77738
8.23666
7.18557
5.61656
3.58738
1.23488
0.804897
2.40416
3.97054
5.47778
6.89284
8.17291
9.26227
10.0896
10.5672
10.5936
10.0631
8.8865
7.02392
4.52581
1.56565
0.91043
2.72294
4.50896
6.2458
7.90276
9.43702
10.7888
11.8761
12.5906
12.7964
12.3381
11.0638
8.87258
5.78509
2.01526
1.02176
3.06012
5.08151
7.06926
8.99786
10.8278
12.4989
13.9214
14.967
15.4604
15.1797
13.8778
11.3436
7.5182
2.64591
1.13665
3.40907
5.6774
7.93376
10.1614
12.3289
14.3815
16.2284
17.7269
18.6619
18.7305
17.5476
14.7112
9.97829
3.56788
1.25215
3.76085
6.28158
8.81814
11.3667
13.9098
16.4067
18.7774
20.8781
22.4651
23.1502
22.3655
19.3959
13.6032
4.99357
1.36459
4.10425
6.87474
9.69415
12.5757
15.5228
18.5196
21.5138
24.3859
26.8945
28.5905
28.7005
26.0411
19.1843
7.37582
1.46974
4.42624
7.43388
10.527
13.7392
17.1012
20.6341
24.335
28.1459
31.8882
35.1322
36.9585
35.601
28.204
11.8019
1.56308
4.71268
7.93365
11.277
14.7986
18.5609
22.6318
27.0797
31.9536
37.2278
42.658
47.4275
49.3548
43.477
21.2291
1.64012
4.94955
8.34843
11.9031
15.6909
19.8061
24.3676
29.5286
35.4832
42.4589
50.6426
59.8699
68.5286
70.1178
44.6912
1.69691
5.12426
8.65496
12.3674
16.3558
20.7412
25.6871
31.4261
38.3034
46.851
57.9023
72.7069
92.6115
115.519
112.567
1.73038
5.2272
8.83528
12.6398
16.745
21.287
26.4558
32.5331
39.9637
49.504
62.5552
82.0019
114.608
178.879
334.735
1.73882
5.25284
8.87912
12.7035
16.8307
21.3974
26.5937
32.7
40.1587
49.7189
62.7664
82.1578
114.616
178.636
334.353
1.72199
5.2005
8.78535
12.5568
16.6112
21.0707
26.0993
31.9278
38.8941
47.5116
58.572
73.2387
92.7066
114.713
110.792
1.68116
5.07431
8.56193
12.2137
16.1102
20.3485
25.0495
30.3652
36.4827
43.6078
51.8728
60.9852
69.0338
68.7948
38.3847
-12.0043
-9.79353
-8.13379
-6.84697
-5.80824
-4.94105
-4.19714
-3.54456
-2.961
-2.43017
-1.93966
-1.47959
-1.04177
-0.619165
-0.205418
-4.5045
-6.24753
-6.17376
-5.63683
-5.00357
-4.37889
-3.79131
-3.2454
-2.73801
-2.26372
-1.81673
-1.3914
-0.98246
-0.584969
-0.194244
-2.0505
-3.96316
-4.53531
-4.49355
-4.19289
-3.79093
-3.35653
-2.91947
-2.492
-2.07831
-1.67875
-1.29182
-0.915189
-0.546071
-0.181515
-1.11618
-2.60965
-3.32317
-3.53003
-3.45254
-3.22549
-2.92357
-2.58685
-2.23642
-1.88308
-1.53197
-1.1851
-0.84269
-0.504001
-0.167723
-0.694949
-1.79777
-2.46285
-2.76396
-2.81602
-2.71201
-2.51475
-2.26372
-1.98284
-1.68629
-1.38225
-1.07525
-0.767606
-0.460254
-0.153354
-0.473079
-1.28985
-1.85527
-2.17083
-2.28788
-2.26325
-2.14326
-1.96132
-1.74014
-1.49468
-1.23456
-0.965856
-0.692311
-0.41619
-0.138848
-0.341057
-0.956477
-1.42118
-1.71553
-1.85809
-1.88072
-1.81479
-1.68614
-1.51429
-1.31325
-1.09283
-0.859813
-0.618799
-0.372971
-0.124589
-0.255349
-0.727759
-1.1054
-1.36561
-1.5116
-1.55966
-1.52984
-1.44097
-1.30869
-1.14525
-0.959855
-0.759313
-0.548626
-0.331522
-0.110883
-0.196227
-0.564848
-0.871154
-1.09502
-1.23309
-1.29267
-1.28591
-1.22592
-1.12473
-0.992492
-0.837389
-0.665853
-0.482907
-0.292525
-0.097958
-0.153653
-0.445209
-0.69415
-0.884005
-1.00909
-1.07174
-1.07892
-1.03947
-0.962318
-0.855607
-0.726329
-0.580311
-0.422349
-0.256431
-0.0859695
-0.122017
-0.355159
-0.558175
-0.717962
-0.828425
-0.88932
-0.904323
-0.879196
-0.820427
-0.734386
-0.626891
-0.503058
-0.367312
-0.223492
-0.0750062
-0.097942
-0.286029
-0.452214
-0.586168
-0.682181
-0.738764