/*--------------------------------*- C++ -*----------------------------------*\
| =========                 |                                                 |
| \\      /  F ield         | OpenFOAM: The Open Source CFD Toolbox           |
|  \\    /   O peration     | Version:  5.x                                   |
|   \\  /    A nd           | Web:      www.OpenFOAM.org                      |
|    \\/     M anipulation  |                                                 |
\*---------------------------------------------------------------------------*/
FoamFile
{
    version     2.0;
    format      ascii;
    class       volScalarField;
    location    "17.8";
    object      gradTx;
}
// * * * * * * * * * * * * * * * * * * * * * * * * * * * * * * * * * * * * * //

dimensions      [0 -1 0 1 0 0 0];

internalField   nonuniform List<scalar> 
6300
(
-9.99649
-9.76159
-9.29467
-8.60178
-7.69269
-6.58172
-5.28865
-3.8396
-2.26776
-0.613576
1.07584
2.74826
4.3491
5.8251
7.12865
-10.2317
-9.99394
-9.52098
-8.81831
-7.8949
-6.76417
-5.44496
-3.96274
-2.35047
-0.649173
1.09246
2.81947
4.47355
5.99717
7.33864
-10.705
-10.4618
-9.97732
-9.25588
-8.30477
-7.13541
-5.76464
-4.21626
-2.52258
-0.725463
1.12331
2.96323
4.72808
6.35105
7.77145
-11.4218
-11.1712
-10.671
-9.92344
-8.93324
-7.70841
-6.26226
-4.61546
-2.79848
-0.85379
1.16264
3.18167
5.12406
6.90705
8.45405
-12.3896
-12.1306
-11.6122
-10.834
-9.79664
-8.50306
-6.96086
-5.1852
-3.20244
-1.05423
1.199
3.47638
5.67906
7.69864
9.43189
-13.6166
-13.3496
-12.8135
-12.0041
-10.9166
-9.54666
-7.89327
-5.96237
-3.77224
-1.36006
1.21082
3.84538
6.41676
8.77616
10.7757
-15.1109
-14.8382
-14.2883
-13.4527
-12.3193
-10.874
-9.10351
-6.99915
-4.56443
-1.82495
1.15859
4.27718
7.36605
10.2132
12.594
-16.8783
-16.6042
-16.0492
-15.1993
-14.0341
-12.5271
-10.6479
-8.36662
-5.66172
-2.53428
0.970924
4.73832
8.55667
12.1162
15.0563
-18.9199
-18.6515
-18.1051
-17.2616
-16.091
-14.5526
-12.5948
-10.158
-7.1819
-3.62173
0.520705
5.14811
10.0058
14.6381
18.4355
-21.2303
-20.977
-20.4586
-19.6511
-18.516
-16.9977
-15.021
-12.4891
-9.28645
-5.2918
-0.414847
5.32726
11.6798
17.9946
23.1953
-23.7944
-23.5677
-23.1015
-22.3687
-21.3244
-19.9015
-18.0026
-15.4914
-12.1833
-7.84449
-2.21591
4.89558
13.3911
22.4646
30.1806
-26.5853
-26.3982
-26.0113
-25.3978
-24.5118
-23.2816
-21.597
-19.2907
-16.1112
-11.6873
-5.50026
3.07944
14.524
28.2916
41.0846
-29.5637
-29.4286
-29.1481
-28.6996
-28.0438
-27.1164
-25.8131
-23.9635
-21.2838
-17.2935
-11.1776
-1.60199
13.3332
35.0924
59.7494
-32.6774
-32.6047
-32.4531
-32.2089
-31.8476
-31.3272
-30.5758
-29.4668
-27.7673
-25.0256
-20.3152
-11.6435
5.31789
38.9949
96.405
-35.864
-35.8598
-35.8508
-35.8355
-35.8106
-35.7691
-35.6963
-35.5608
-35.2931
-34.7265
-33.4143
-29.9751
-19.4136
19.1633
184.01
8.14796
8.89592
9.47312
9.87841
10.1166
10.1974
10.134
9.94158
9.63647
9.23474
8.75169
8.2013
7.59602
6.94668
6.26257
5.55157
4.82032
4.07439
3.31844
2.55641
1.79162
1.02686
0.264542
-0.493323
-1.24501
-1.98909
-2.72438
-3.44995
-4.16512
-4.86942
-5.56264
-6.24474
-6.91584
-7.57619
-8.22608
-8.86577
-9.49547
-10.1153
-10.7251
-11.3247
-11.9138
-12.492
-13.0591
-13.6146
-14.1587
-14.6912
-15.2127
-15.7234
-16.2241
-16.7153
-17.1976
-17.6713
-18.1363
-18.5924
-19.039
-19.4751
-19.8995
-20.311
-20.7082
-21.09
-21.4551
-21.8028
-22.1321
-22.4422
-22.7322
-23.0007
-23.246
-23.4658
-23.6573
-23.8168
-23.9402
-24.0232
-24.061
-24.0493
-23.9837
-23.8608
-23.6778
-23.4329
-23.1255
-22.7558
-22.3253
-21.8367
-21.2935
-20.7004
-20.0634
-19.3891
-18.6852
-17.9603
-17.2235
-16.4841
8.38215
9.14139
9.72026
10.1186
10.3429
10.4048
10.3193
10.1036
9.77526
9.35154
8.84837
8.28007
7.6592
6.99649
6.30105
5.58052
4.84127
4.08861
3.32702
2.56023
1.7914
1.02323
0.258002
-0.502322
-1.25607
-2.00183
-2.73845
-3.465
-4.1808
-4.88542
-5.57867
-6.26057
-6.93132
-7.59125
-8.24073
-8.88013
-9.5097
-10.1296
-10.7397
-11.3397
-11.9293
-12.5081
-13.0755
-13.6312
-14.175
-14.7072
-15.2279
-15.7378
-16.2376
-16.7281
-17.2099
-17.6835
-18.1489
-18.606
-19.0539
-19.4917
-19.918
-20.3313
-20.7303
-21.1136
-21.4801
-21.829
-22.1595
-22.471
-22.7628
-23.0338
-23.2824
-23.5065
-23.703
-23.8684
-23.9983
-24.0879
-24.1322
-24.1264
-24.066
-23.947
-23.7666
-23.5228
-23.2148
-22.843
-22.4089
-21.9149
-21.3649
-20.7636
-20.1168
-19.4314
-18.7153
-17.9773
-17.2271
-16.4743
8.8647
9.64622
10.227
10.6091
10.8028
10.8239
10.6918
10.4273
10.0511
9.58246
9.03854
8.4343
7.78236
7.0932
6.37545
5.63622
4.88131
4.11554
3.34292
2.56682
1.79011
1.01522
0.244282
-0.520893
-1.27872
-2.02783
-2.76708
-3.49557
-4.21262
-4.91783
-5.61107
-6.29247
-6.96239
-7.62133
-8.26988
-8.90859
-9.53787
-10.1579
-10.7686
-11.3697
-11.9605
-12.5404
-13.1086
-13.6646
-14.2082
-14.7393
-15.2585
-15.7665
-16.2643
-16.7531
-17.2338
-17.7072
-18.1735
-18.6325
-19.0833
-19.5246
-19.9548
-20.3721
-20.7747
-21.1612
-21.5303
-21.8814
-22.214
-22.528
-22.8232
-23.0989
-23.354
-23.5865
-23.7934
-23.9709
-24.1141
-24.2175
-24.2754
-24.2821
-24.2323
-24.1215
-23.9465
-23.7049
-23.3959
-23.0198
-22.5782
-22.0737
-21.5101
-20.8921
-20.2256
-19.5176
-18.7766
-18.0119
-17.234
-16.4539
9.62559
10.4398
11.0192
11.3706
11.5108
11.4633
11.2545
10.9117
10.4598
9.92141
9.31527
8.65694
7.95884
7.23081
6.48057
5.71426
4.93677
4.15212
3.36364
2.57413
1.78602
1.00141
0.222135
-0.55016
-1.314
-2.06809
-2.81129
-3.54266
-4.26153
-4.9675
-5.66053
-6.34091
-7.00925
-7.66636
-8.31318
-8.95059
-9.57929
-10.1996
-10.8115
-11.4143
-12.0073
-12.5893
-13.1592
-13.716
-14.2591
-14.7886
-15.3051
-15.8097
-16.304
-16.7896
-17.2682
-17.7409
-18.2085
-18.6705
-19.1261
-19.5734
-20.0101
-20.4338
-20.8422
-21.2334
-21.6062
-21.9601
-22.2951
-22.612
-22.9113
-23.1933
-23.4578
-23.703
-23.926
-24.1225
-24.2868
-24.4124
-24.492
-24.5188
-24.486
-24.3884
-24.2218
-23.9837
-23.6732
-23.2906
-22.8378
-22.3175
-21.7334
-21.0902
-20.3938
-19.6514
-18.8717
-18.0653
-17.2441
-16.4208
10.7153
11.5709
12.1394
12.4359
12.4889
12.3343
12.0101
11.5525
10.9929
10.3575
9.66687
8.93657
8.17818
7.40015
6.60861
5.80817
5.00236
4.19405
3.38566
2.57928
1.77676
0.979772
0.189815
-0.591699
-1.36343
-2.12412
-2.87259
-3.60782
-4.32904
-5.03584
-5.72823
-6.40671
-7.07226
-7.72619
-8.36999
-9.00512
-9.63273
-10.2534
-10.8672
-11.4731
-12.0699
-12.6556
-13.2285
-13.7868
-14.3295
-14.8566
-15.3687
-15.8677
-16.3559
-16.836
-17.3107
-17.782
-18.2511
-18.7178
-19.1806
-19.6371
-20.0839
-20.5174
-20.9343
-21.332
-21.7092
-22.0655
-22.4022
-22.7209
-23.0239
-23.313
-23.589
-23.8511
-24.0965
-24.3202
-24.5152
-24.6731
-24.7847
-24.8408
-24.833
-24.7543
-24.5998
-24.3667
-24.0539
-23.6625
-23.1944
-22.6528
-22.0414
-21.3647
-20.628
-19.8385
-19.0051
-18.1398
-17.2568
-16.3718
12.2128
13.115
13.6511
13.8515
13.7654
13.449
12.9576
12.3397
11.6349
10.8729
10.0753
9.25635
8.42556
7.58867
6.74926
5.90959
5.07134
4.23591
3.4046
2.5787
1.75941
0.947873
0.145219
-0.647424
-1.42886
-2.19783
-2.95302
-3.69321
-4.41737
-5.12495
-5.81596
-6.49115
-7.15201
-7.80058
-8.43927
-9.07044
-9.69606
-10.3172
-10.934
-11.5451
-12.1482
-12.7405
-13.3186
-13.8799
-14.4225
-14.9459
-15.4512
-15.941
-16.4192
-16.8901
-17.3579
-17.8262
-18.297
-18.7703
-19.2442
-19.7146
-20.1766
-20.6247
-21.0537
-21.46
-21.8418
-22.1992
-22.5348
-22.8523
-23.1564
-23.4513
-23.74
-24.0231
-24.298
-24.5588
-24.7966
-25.0002
-25.157
-25.2546
-25.2816
-25.2291
-25.0909
-24.8639
-24.5478
-24.1443
-23.6566
-23.0883
-22.4433
-21.7252
-20.9383
-20.0883
-19.1844
-18.2398
-17.2721
-16.3021
14.2403
15.186
15.6455
15.6796
15.3731
14.8154
14.0868
13.2519
12.3587
11.4394
10.5139
9.59297
8.68144
7.7806
6.89003
6.00877
5.13607
4.27163
3.41561
2.56845
1.73073
0.903061
0.0860935
-0.719384
-1.51234
-2.29145
-3.05513
-3.8017
-4.52964
-5.23794
-5.92648
-6.59625
-7.24942
-7.88918
-8.51933
-9.14374
-9.76573
-10.3874
-11.0088
-11.6283
-12.2422
-12.8455
-13.4329
-13.9998
-14.5429
-15.0611
-15.5558
-16.0311
-16.4929
-16.9483
-17.4042
-17.8666
-18.3391
-18.822
-19.3123
-19.8041
-20.2892
-20.759
-21.2056
-21.6232
-22.0091
-22.3643
-22.6931
-23.0028
-23.3017
-23.5983
-23.8989
-24.2066
-24.5195
-24.8304
-25.1272
-25.3944
-25.6144
-25.7696
-25.8446
-25.8271
-25.7097
-25.4893
-25.1672
-24.7472
-24.2345
-23.6342
-22.9502
-22.1847
-21.3389
-20.4157
-19.4221
-18.3727
-17.2903
-16.2043
16.9894
17.9566
18.2522
17.9976
17.3424
16.4277
15.3685
14.2479
13.1198
12.0146
10.9457
9.91579
8.92167
7.95751
7.01716
6.09543
5.18872
4.29507
3.4137
2.54447
1.68746
0.84272
0.0103161
-0.809467
-1.61584
-2.40736
-3.18195
-3.93707
-4.67021
-5.37942
-6.06405
-6.72525
-7.36615
-7.99161
-8.60762
-9.22049
-9.8359
-10.4576
-11.0865
-11.7197
-12.3513
-12.9732
-13.5767
-14.1539
-14.6991
-15.2098
-15.6882
-16.1404
-16.5758
-17.0055
-17.4411
-17.8924
-18.3659
-18.8627
-19.3783
-19.9029
-20.4237
-20.9266
-21.3991
-21.8319
-22.2206
-22.567
-22.8789
-23.1684
-23.4502
-23.7391
-24.0474
-24.3823
-24.7435
-25.1219
-25.5003
-25.8563
-26.1646
-26.4
-26.5403
-26.5688
-26.4763
-26.261
-25.9273
-25.4833
-24.9382
-24.3004
-23.5743
-22.7595
-21.851
-20.8441
-19.74
-18.5529
-17.3137
-16.0671
20.7727
21.694
21.6506
20.8924
19.6849
18.248
16.7384
15.2544
13.8477
12.5372
11.321
10.1868
9.1185
8.09992
7.11728
6.16025
5.2224
4.30067
3.39414
2.50275
1.62639
0.764512
-0.0837327
-0.918943
-1.7408
-2.54773
-3.33684
-4.10415
-4.84526
-5.55633
-6.23537
-6.88347
-7.50511
-8.10764
-8.70038
-9.29356
-9.89689
-10.5176
-11.1578
-11.8133
-12.4742
-13.1273
-13.7583
-14.3541
-14.9046
-15.4051
-15.8583
-16.2738
-16.6666
-17.0543
-17.4553
-17.8862
-18.3588
-18.8763
-19.4311
-20.0072
-20.5835
-21.1378
-21.6497
-22.1038
-22.4926
-22.8192
-23.0965
-23.3449
-23.5884
-23.8519
-24.1573
-24.52
-24.9427
-25.413
-25.9055
-26.3867
-26.8196
-27.1671
-27.3967
-27.4845
-27.4194
-27.203
-26.8461
-26.3645
-25.7754
-25.0934
-24.326
-23.4688
-22.5047
-21.4121
-20.1773
-18.808
-17.3477
-15.8714
26.1285
26.8202
26.0778
24.4338
22.3572
20.1725
18.0714
16.1492
14.4369
12.9237
11.5779
10.3628
9.24346
8.19036
7.1803
6.19726
5.23267
4.28422
3.35263
2.43925
1.54433
0.666568
-0.196645
-1.04773
-1.88733
-2.71384
-3.52315
-4.309
-5.06361
-5.77937
-6.45126
-7.07979
-7.67156
-8.23773
-8.79248
-9.35195
-9.93283
-10.5493
-11.2072
-11.8991
-12.6082
-13.3129
-13.9906
-14.6195
-15.1819
-15.6684
-16.0824
-16.4399
-16.7645
-17.0837
-17.4262
-17.8198
-18.2869
-18.8359
-19.4532
-20.1109
-20.7748
-21.4099
-21.9834
-22.4695
-22.8541
-23.142
-23.3557
-23.5282
-23.6977
-23.9038
-24.1848
-24.5709
-25.0731
-25.6718
-26.3265
-26.9865
-27.5972
-28.1039
-28.457
-28.6201
-28.5802
-28.3471
-27.9441
-27.4004
-26.7462
-26.0091
-25.2067
-24.332
-23.3431
-22.1847
-20.8081
-19.1938
-17.4046
-15.5823
34.0574
34.011
31.8027
28.5975
25.1845
21.9761
19.1465
16.7414
14.7394
13.0687
11.6466
10.4006
9.27278
8.21856
7.2042
6.20748
5.2195
4.2433
3.2847
2.34902
1.43744
0.547545
-0.327129
-1.19314
-2.05278
-2.90479
-3.74328
-4.55889
-5.33791
-6.06561
-6.72959
-7.32903
-7.87487
-8.38425
-8.87777
-9.37945
-9.9175
-10.5212
-11.2075
-11.9602
-12.7484
-13.5374
-14.2931
-14.9805
-15.5684
-16.036
-16.3878
-16.6531
-16.87
-17.0793
-17.3232
-17.6474
-18.0971
-18.6968
-19.4168
-20.2054
-21.0074
-21.7703
-22.443
-22.9808
-23.3546
-23.5716
-23.6738
-23.7156
-23.754
-23.8477
-24.0604
-24.4545
-25.0643
-25.8496
-26.7398
-27.657
-28.5244
-29.2615
-29.7903
-30.0478
-30.019
-29.7355
-29.2445
-28.5952
-27.8359
-27.0185
-26.1912
-25.3596
-24.4252
-23.2714
-21.781
-19.8313
-17.5089
-15.1259
46.6084
44.3142
38.9629
33.06
27.7162
23.2336
19.6099
16.7526
14.5643
12.8555
11.4613
10.2679
9.1959
8.1891
7.20244
6.20489
5.18914
4.17684
3.18359
2.2239
1.29919
0.406465
-0.47021
-1.3478
-2.22933
-3.11526
-3.9964
-4.86153
-5.68614
-6.44363
-7.10088
-7.65544
-8.13065
-8.55357
-8.95126
-9.35453
-9.80759
-10.374
-11.1124
-11.9698
-12.8873
-13.8098
-14.6939
-15.4845
-16.1282
-16.5702
-16.8175
-16.9357
-16.9863
-17.0252
-17.1043
-17.294
-17.6912
-18.3845
-19.2812
-20.2807
-21.2959
-22.2605
-23.0963
-23.7282
-24.0808
-24.1659
-24.0789
-23.9074
-23.7305
-23.6201
-23.6744
-24.0272
-24.8025
-25.8762
-27.1138
-28.3988
-29.6391
-30.7186
-31.5141
-31.8876
-31.824
-31.4222
-30.7724
-29.9482
-29.0088
-28.0419
-27.1815
-26.5346
-25.8232
-24.8423
-23.4149
-21.0052
-17.7004
-14.3253
68.5
59.0189
46.9171
36.7175
29.0079
23.2539
18.9695
15.8001
13.6988
12.1888
10.9868
9.96
9.02495
8.13044
7.21617
6.22833
5.15364
4.08281
3.03405
2.04831
1.1148
0.242192
-0.612042
-1.49684
-2.39962
-3.33266
-4.27263
-5.22252
-6.13105
-6.96601
-7.62003
-8.09609
-8.46173
-8.75921
-9.01665
-9.25788
-9.53441
-9.97905
-10.8458
-11.8928
-13.0188
-14.1374
-15.2292
-16.1998
-16.9782
-17.3845
-17.433
-17.3157
-17.1192
-16.9131
-16.7258
-16.6418
-16.8586
-17.7792
-18.9972
-20.3332
-21.657
-22.9359
-24.0432
-24.8775
-25.1921
-25.0077
-24.6055
-24.1067
-23.611
-23.1551
-22.8585
-22.9913
-24.1107
-25.6663
-27.4196
-29.2044
-30.9851
-32.5844
-33.8452
-34.3565
-34.1159
-33.4659
-32.5511
-31.4667
-30.2213
-28.9118
-27.864
-27.8024
-27.6092
-27.0557
-26.4632
-23.4679
-17.993
-12.7116
112.042
77.4964
52.131
36.7885
27.4831
21.1576
16.723
13.309
11.9817
11.0784
10.2596
9.51981
8.79535
8.09997
7.33562
6.37658
5.11238
3.95679
2.79357
1.79733
0.84256
0.0513476
-0.70997
-1.62006
-2.52638
-3.54014
-4.53461
-5.64311
-6.68193
-7.74895
-8.39543
-8.69573
-8.89092
-9.02247
-9.10534
-9.11036
-9.01908
-8.97617
-10.3197
-11.7019
-13.1608
-14.5037
-15.9388
-17.1919
-18.3639
-18.7138
-18.2872
-17.8094
-17.2658
-16.7736
-16.1984
-15.5563
-15.0125
-16.7456
-18.543
-20.4032
-22.0824
-23.8581
-25.383
-26.7748
-27.0217
-26.163
-25.2707
-24.3015
-23.4337
-22.4605
-21.4238
-20.5346
-22.7903
-25.1716
-27.6797
-30.0157
-32.592
-34.937
-37.2554
-37.9078
-36.9967
-35.8905
-34.5735
-33.217
-31.5254
-29.4047
-27.126
-29.2593
-29.9138
-29.3248
-32.9714
-29.5009
-18.0067
-8.96988
213.082
82.7534
42.9111
28.1655
21.6668
16.3379
13.0068
7.81296
9.65365
9.8461
9.41851
9.0573
8.52365
8.16858
7.73521
6.96405
4.91453
3.8416
2.31251
1.48653
0.334695
-0.182628
-0.59373
-1.74877
-2.4985
-3.77546
-4.63241
-6.16406
-7.19222
-9.13747
-9.6693
-9.44672
-9.41172
-9.35579
-9.30608
-9.10145
-8.43404
-5.97679
-9.7377
-11.4005
-13.4696
-14.737
-16.9104
-18.3005
-20.9332
-21.1609
-19.2151
-18.3978
-17.3382
-16.7535
-15.7674
-14.3289
-9.88735
-15.6191
-17.9983
-20.7338
-22.3684
-25.1415
-26.9141
-30.3203
-30.4431
-27.3667
-26.0461
-24.3502
-23.4077
-21.8574
-19.7764
-13.5491
-21.289
-24.4939
-28.1871
-30.4809
-34.5317
-37.3275
-43.0644
-43.7103
-40.158
-38.6185
-36.6523
-35.4496
-33.4469
-30.1248
-20.0346
-32.8454
-34.0089
-25.4943
-49.7281
-47.0875
-14.4815
0.459257
-15.6792
-14.8232
-14.0042
-13.2334
-12.5195
-11.8686
-11.2844
-10.7687
-10.3218
-9.943
-9.63086
-9.38376
-9.20011
-9.0785
-9.01796
-15.6556
-14.7861
-13.9558
-13.1764
-12.4564
-11.8017
-11.2157
-10.6998
-10.2537
-9.87622
-9.56571
-9.32023
-9.13795
-9.01735
-8.95733
-15.6068
-14.7096
-13.8565
-13.0597
-12.3278
-11.666
-11.077
-10.5609
-10.1167
-9.74238
-9.43543
-9.19339
-9.01402
-8.89551
-8.83658
-15.5291
-14.5888
-13.7008
-12.878
-12.1289
-11.4575
-10.865
-10.35
-9.90984
-9.54105
-9.24013
-9.00378
-8.82914
-8.71399
-8.65681
-15.4165
-14.4157
-13.4797
-12.6226
-11.8519
-11.1701
-10.5755
-10.0643
-9.63144
-9.27173
-8.98017
-8.75235
-8.58468
-8.47442
-8.41975
-15.2598
-14.1777
-13.1795
-12.2805
-11.4861
-10.7953
-10.2024
-9.69999
-9.2798
-8.93419
-8.65636
-8.44068
-8.28271
-8.17918
-8.12794
-15.0444
-13.8555
-12.7802
-11.8335
-11.0167
-10.3224
-9.73889
-9.25333
-8.85349
-8.52875
-8.27031
-8.07122
-7.92622
-7.83155
-7.7848
-14.7472
-13.4196
-12.2521
-11.2564
-10.4246
-9.73857
-9.1773
-8.72083
-8.352
-8.05692
-7.82482
-7.64759
-7.51931
-7.43592
-7.39483
-14.3301
-12.8234
-11.5521
-10.5155
-9.68663
-9.02986
-8.51081
-8.1006
-7.77665
-7.52203
-7.32439
-7.17491
-7.06745
-6.99788
-6.9637
-13.7256
-11.9919
-10.6172
-9.56664
-8.7765
-8.18335
-7.73539
-7.39402
-7.13188
-6.93007
-6.77571
-6.66015
-6.57761
-6.5244
-6.49831
-12.8071
-10.8012
-9.35796
-8.35732
-7.66929
-7.19158
-6.85329
-6.60813
-6.42671
-6.29058
-6.18818
-6.11228
-6.05837
-6.02372
-6.00675
-11.3214
-9.04758
-7.65604
-6.83527
-6.35167
-6.06032
-5.87799
-5.75843
-5.67618
-5.61729
-5.57408
-5.54235
-5.51982
-5.5053
-5.49816
-8.73688
-6.41172
-5.38328
-4.97598
-4.84176
-4.81996
-4.83986
-4.87135
-4.90225
-4.92826
-4.94843
-4.96315
-4.97322
-4.97943
-4.98238
-3.91275
-2.47903
-2.48932
-2.84355
-3.21937
-3.53786
-3.79011
-3.98479
-4.13314
-4.24501
-4.32818
-4.38855
-4.43041
-4.45676
-4.46948
5.58229
2.8977
0.748617
-0.689511
-1.65427
-2.32196
-2.79787
-3.14454
-3.40048
-3.59041
-3.73069
-3.8324
-3.90308
-3.94768
-3.96926
-38.7891
-38.8482
-38.9713
-39.1689
-39.4589
-39.8699
-40.4477
-41.2683
-42.466
-44.3028
-47.3718
-53.3081
-67.7652
-114.763
-313.2
-41.4074
-41.5207
-41.7566
-42.1352
-42.6915
-43.482
-44.5986
-46.1952
-48.543
-52.153
-58.0694
-68.6028
-89.1231
-131.349
-208.373
-43.9471
-44.1081
-44.4427
-44.9783
-45.7616
-46.8677
-48.4162
-50.6006
-53.7435
-58.4016
-65.561
-76.9623
-95.408
-123.767
-157.034
-46.3751
-46.5751
-46.9895
-47.6495
-48.6077
-49.9464
-51.7923
-54.3403
-57.8919
-62.9134
-70.1065
-80.4296
-94.8084
-112.779
-128.796
-48.6644
-48.8932
-49.3657
-50.1137
-51.1895
-52.6728
-54.6809
-57.3832
-61.0197
-65.917
-72.4786
-81.0801
-91.7145
-103.147
-111.68
-50.7948
-51.0421
-51.5508
-52.3503
-53.4884
-55.0349
-57.0874
-59.7772
-63.2718
-67.7652
-73.4341
-80.3187
-88.0662
-95.5281
-100.49
-52.7536
-53.0096
-53.5339
-54.3519
-55.5037
-57.0455
-59.0514
-61.6124
-64.8304
-68.7969
-73.5455
-78.9581
-84.6162
-89.6455
-92.7454
-54.5347
-54.7908
-55.313
-56.1219
-57.2483
-58.734
-60.6298
-62.9915
-65.8692
-69.2854
-73.1958
-77.4269
-81.6027
-85.1027
-87.1535
-56.138
-56.3872
-56.8933
-57.6713
-58.7435
-60.1377
-61.8846
-64.0121
-66.5339
-69.4309
-72.6233
-75.9341
-79.0584
-81.5661
-82.9857
-57.5682
-57.8053
-58.2846
-59.0165
-60.0151
-61.2964
-62.8753
-64.759
-66.938
-69.3712
-71.9684
-74.5709
-76.9422
-78.7852
-79.8036
-58.8339
-59.0551
-59.5007
-60.1766
-61.0903
-62.2485
-63.6542
-65.301
-67.1655
-69.1977
-71.3099
-73.3681
-75.1928
-76.577
-77.3286
-59.946
-60.1492
-60.5569
-61.1716
-61.9956
-63.0288
-64.2658
-65.6917
-67.2765
-68.9686
-70.6888
-72.3276
-73.7493
-74.808
-75.3756
-60.9171
-61.1011
-61.4693
-62.0214
-62.7558
-63.6675
-64.7461
-65.9721
-67.3131
-68.72
-70.1243
-71.4377
-72.5578
-73.38
-73.8166
-61.7605
-61.9253
-62.254
-62.7446
-63.3928
-64.1904
-65.1242
-66.1726
-67.3038
-68.4732
-69.6228
-70.682
-71.5731
-72.2199
-72.5608
-62.4894
-62.6355
-62.9264
-63.3585
-63.9259
-64.6189
-65.4227
-66.3156
-67.2679
-68.2403
-69.1841
-70.0431
-70.7579
-71.2722
-71.5417
-63.1168
-63.2454
-63.5006
-63.8784
-64.3718
-64.9704
-65.6592
-66.4174
-67.2181
-68.0271
-68.8042
-69.5044
-70.0819
-70.4945
-70.7097
-63.655
-63.7673
-63.9898
-64.318
-64.7447
-65.2593
-65.8474
-66.4898
-67.1625
-67.8362
-68.4777
-69.051
-69.5204
-69.8539
-70.0272
-64.1151
-64.2127
-64.4055
-64.6892
-65.0565
-65.4972
-65.9979
-66.5413
-67.1061
-67.6677
-68.1985
-68.6697
-69.0532
-69.3245
-69.465
-64.5076
-64.5919
-64.7582
-65.0023
-65.3173
-65.6936
-66.1189
-66.5778
-67.0519
-67.5205
-67.9607
-68.3492
-68.664
-68.8858
-69.0004
-64.8416
-64.9141
-65.057
-65.2662
-65.5354
-65.8559
-66.2165
-66.6037
-67.0017
-67.393
-67.7587
-68.0801
-68.3393
-68.5215
-68.6154
-65.1252
-65.1873
-65.3097
-65.4886
-65.718
-65.9903
-66.2956
-66.622
-66.9562
-67.2832
-67.5876
-67.854
-68.0683
-68.2184
-68.2957
-65.3656
-65.4188
-65.5233
-65.6757
-65.8709
-66.1018
-66.36
-66.635
-66.9155
-67.1891
-67.4428
-67.6642
-67.8417
-67.9658
-68.0297
-65.5692
-65.6145
-65.7035
-65.8332
-65.9989
-66.1945
-66.4126
-66.6442
-66.8798
-67.1088
-67.3205
-67.5048
-67.6522
-67.7551
-67.808
-65.7414
-65.7799
-65.8556
-65.9657
-66.1062
-66.2717
-66.4557
-66.6508
-66.8486
-67.0404
-67.2173
-67.371
-67.4936
-67.5792
-67.6231
-65.8868
-65.9195
-65.9837
-66.0771
-66.196
-66.3359
-66.4912
-66.6554
-66.8216
-66.9824
-67.1304
-67.2586
-67.3609
-67.4321
-67.4686
-66.0094
-66.0372
-66.0916
-66.1707
-66.2713
-66.3895
-66.5204
-66.6587
-66.7983
-66.9332
-67.0571
-67.1643
-67.2497
-67.309
-67.3395
-66.1128
-66.1364
-66.1825
-66.2494
-66.3344
-66.4342
-66.5446
-66.661
-66.7784
-66.8916
-66.9954
-67.0851
-67.1565
-67.2061
-67.2315
-66.1999
-66.2198
-66.2589
-66.3154
-66.3873
-66.4716
-66.5646
-66.6627
-66.7614
-66.8564
-66.9435
-67.0187
-67.0785
-67.12
-67.1412
-66.2732
-66.29
-66.323
-66.3709
-66.4316
-66.5027
-66.5813
-66.6638
-66.7469
-66.8268
-66.9
-66.963
-67.0131
-67.0479
-67.0657
-66.3347
-66.349
-66.3769
-66.4174
-66.4687
-66.5288
-66.595
-66.6647
-66.7346
-66.8019
-66.8634
-66.9164
-66.9584
-66.9876
-67.0025
-66.3864
-66.3985
-66.4221
-66.4564
-66.4998
-66.5505
-66.6065
-66.6652
-66.7242
-66.7809
-66.8327
-66.8773
-66.9126
-66.9372
-66.9497
-66.4297
-66.4399
-66.4599
-66.489
-66.5257
-66.5687
-66.616
-66.6657
-66.7155
-66.7633
-66.807
-66.8446
-66.8744
-66.8951
-66.9056
-66.4659
-66.4745
-66.4915
-66.5162
-66.5474
-66.5838
-66.6239
-66.666
-66.7081
-66.7486
-66.7855
-66.8173
-66.8425
-66.86
-66.8689
-66.496
-66.5034
-66.5179
-66.5388
-66.5653
-66.5963
-66.6304
-66.6662
-66.702
-66.7363
-66.7677
-66.7946
-66.816
-66.8308
-66.8383
-66.521
-66.5273
-66.5397
-66.5576
-66.5803
-66.6067
-66.6358
-66.6663
-66.6969
-66.7261
-66.7529
-66.7758
-66.794
-66.8066
-66.813
-66.5416
-66.5471
-66.5577
-66.5731
-66.5925
-66.6153
-66.6402
-66.6664
-66.6926
-66.7177
-66.7406
-66.7603
-66.7759
-66.7867
-66.7922
-66.5585
-66.5632
-66.5724
-66.5857
-66.6026
-66.6222
-66.6438
-66.6665
-66.6892
-66.7109
-66.7307
-66.7477
-66.7611
-66.7705
-66.7752
-66.572
-66.5762
-66.5842
-66.5959
-66.6106
-66.6278
-66.6467
-66.6665
-66.6864
-66.7053
-66.7226
-66.7375
-66.7492
-66.7574
-66.7615
-66.5828
-66.5864
-66.5936
-66.6039
-66.617
-66.6322
-66.649
-66.6666
-66.6841
-66.701
-66.7163
-66.7294
-66.7399
-66.7471
-66.7508
-66.5909
-66.5942
-66.6007
-66.61
-66.6218
-66.6356
-66.6508
-66.6666
-66.6824
-66.6976
-66.7114
-66.7233
-66.7327
-66.7392
-66.7425
-66.5968
-66.5999
-66.6058
-66.6144
-66.6253
-66.638
-66.652
-66.6666
-66.6812
-66.6952
-66.708
-66.7189
-66.7276
-66.7335
-66.7366
-66.6006
-66.6035
-66.6091
-66.6173
-66.6276
-66.6396
-66.6528
-66.6666
-66.6804
-66.6937
-66.7057
-66.7161
-66.7243
-66.7299
-66.7328
-66.6024
-66.6052
-66.6107
-66.6186
-66.6286
-66.6403
-66.6532
-66.6666
-66.6801
-66.693
-66.7047
-66.7147
-66.7227
-66.7282
-66.731
-66.6022
-66.605
-66.6105
-66.6185
-66.6285
-66.6403
-66.6531
-66.6666
-66.6801
-66.693
-66.7048
-66.7149
-66.7229
-66.7284
-66.7312
-66.6001
-66.603
-66.6087
-66.6169
-66.6273
-66.6394
-66.6527
-66.6666
-66.6806
-66.6939
-66.706
-66.7165
-66.7247
-66.7304
-66.7334
-66.5959
-66.599
-66.605
-66.6138
-66.6248
-66.6377
-66.6518
-66.6666
-66.6814
-66.6956
-66.7085
-66.7196
-66.7283
-66.7344
-66.7375
-66.5896
-66.593
-66.5996
-66.6091
-66.6211
-66.6351
-66.6505
-66.6666
-66.6827
-66.6982
-66.7122
-66.7243
-66.7338
-66.7405
-66.7438
-66.581
-66.5847
-66.592
-66.6026
-66.616
-66.6315
-66.6487
-66.6666
-66.6845
-66.7017
-66.7173
-66.7308
-66.7414
-66.7487
-66.7525
-66.5698
-66.574
-66.5823
-66.5942
-66.6093
-66.6269
-66.6463
-66.6665
-66.6868
-66.7063
-66.724
-66.7392
-66.7512
-66.7595
-66.7638
-66.5556
-66.5605
-66.5699
-66.5836
-66.6009
-66.6211
-66.6433
-66.6665
-66.6898
-66.712
-66.7323
-66.7498
-66.7636
-66.7731
-66.778
-66.5381
-66.5437
-66.5547
-66.5705
-66.5905
-66.6139
-66.6395
-66.6664
-66.6934
-66.7192
-66.7427
-66.7629
-66.7789
-66.79
-66.7956
-66.5168
-66.5233
-66.536
-66.5544
-66.5778
-66.605
-66.635
-66.6663
-66.6978
-66.7279
-66.7554
-66.779
-66.7976
-66.8106
-66.8172
-66.4909
-66.4985
-66.5134
-66.535
-66.5624
-66.5943
-66.6294
-66.6662
-66.7031
-66.7384
-66.7707
-66.7984
-66.8204
-66.8356
-66.8434
-66.4597
-66.4686
-66.4862
-66.5116
-66.5437
-66.5813
-66.6227
-66.666
-66.7095
-66.7512
-66.7892
-66.8219
-66.8478
-66.8658
-66.8749
-66.4222
-66.4328
-66.4535
-66.4835
-66.5214
-66.5657
-66.6146
-66.6658
-66.7171
-66.7664
-66.8114
-66.8501
-66.8807
-66.902
-66.9129
-66.3775
-66.3899
-66.4144
-66.4498
-66.4946
-66.547
-66.6048
-66.6654
-66.7262
-66.7846
-66.8379
-66.8838
-66.9202
-66.9455
-66.9584
-66.324
-66.3388
-66.3677
-66.4095
-66.4626
-66.5246
-66.593
-66.6649
-66.737
-66.8063
-66.8696
-66.9242
-66.9675
-66.9975
-67.0128
-66.2604
-66.2778
-66.312
-66.3615
-66.4243
-66.4978
-66.5789
-66.6641
-66.7498
-66.8321
-66.9075
-66.9724
-67.0239
-67.0597
-67.078
-66.1846
-66.2052
-66.2456
-66.3042
-66.3786
-66.4657
-66.5619
-66.6631
-66.7649
-66.8628
-66.9525
-67.0299
-67.0913
-67.1339
-67.1558
-66.0945
-66.1189
-66.1667
-66.236
-66.3241
-66.4273
-66.5414
-66.6616
-66.7826
-66.8992
-67.0061
-67.0984
-67.1717
-67.2227
-67.2488
-65.9875
-66.0163
-66.0728
-66.1548
-66.259
-66.3813
-66.5167
-66.6595
-66.8035
-66.9424
-67.0699
-67.1801
-67.2677
-67.3287
-67.3599
-65.8604
-65.8944
-65.9612
-66.0581
-66.1814
-66.3263
-66.4869
-66.6565
-66.8279
-66.9935
-67.1457
-67.2774
-67.3823
-67.4553
-67.4927
-65.7098
-65.7499
-65.8286
-65.943
-66.0888
-66.2604
-66.4508
-66.6524
-66.8564
-67.0538
-67.2357
-67.3933
-67.519
-67.6066
-67.6515
-65.5314
-65.5785
-65.6713
-65.8062
-65.9783
-66.1813
-66.4071
-66.6465
-66.8894
-67.125
-67.3425
-67.5314
-67.6823
-67.7875
-67.8415
-65.3201
-65.3756
-65.4846
-65.6435
-65.8465
-66.0864
-66.3538
-66.6382
-66.9274
-67.2088
-67.4692
-67.6958
-67.8772
-68.0039
-68.069
-65.0704
-65.1354
-65.2634
-65.45
-65.6892
-65.9723
-66.2888
-66.6264
-66.971
-67.3072
-67.6192
-67.8916
-68.1102
-68.2631
-68.3418
-64.7755
-64.8516
-65.0013
-65.2202
-65.5012
-65.8349
-66.2092
-66.6099
-67.0203
-67.4223
-67.7968
-68.1249
-68.3888
-68.5738
-68.6691
-64.4279
-64.5165
-64.6913
-64.9473
-65.2768
-65.6693
-66.1114
-66.5866
-67.0755
-67.5566
-68.0067
-68.4026
-68.7221
-68.9468
-69.0627
-64.0187
-64.1216
-64.3249
-64.6233
-65.0086
-65.4693
-65.9906
-66.5536
-67.1361
-67.7123
-68.2543
-68.7332
-69.1215
-69.3952
-69.5368
-63.538
-63.657
-63.8925
-64.2389
-64.688
-65.2273
-65.8408
-66.5073
-67.2011
-67.8919
-68.5457
-69.1268
-69.6003
-69.9354
-70.1091
-62.9747
-63.1116
-63.3829
-63.7834
-64.3046
-64.9339
-65.6541
-66.4419
-67.2681
-68.0971
-68.8876
-69.5951
-70.1751
-70.5876
-70.8022
-62.3164
-62.4729
-62.7837
-63.2441
-63.8461
-64.5775
-65.4203
-66.3499
-67.3333
-68.3289
-69.2871
-70.152
-70.8663
-71.3774
-71.6441
-61.5494
-61.727
-62.0806
-62.6065
-63.2978
-64.1436
-65.1264
-66.2205
-67.39
-68.5869
-69.7513
-70.8134
-71.6987
-72.3367
-72.6713
-60.6591
-60.859
-61.2579
-61.8539
-62.6424
-63.6146
-64.7551
-66.0388
-67.4276
-68.8674
-70.2865
-71.5975
-72.7028
-73.5067
-73.9308
-59.6301
-59.8527
-60.2984
-60.9676
-61.8593
-62.9687
-64.2844
-65.7842
-67.4299
-69.1621
-70.8968
-72.5244
-73.9162
-74.9403
-75.4848
-58.4465
-58.6915
-59.1838
-59.927
-60.925
-62.1796
-63.686
-65.4283
-67.3719
-69.4552
-71.5815
-73.6149
-75.385
-76.7069
-77.4169
-57.0928
-57.3587
-57.8948
-58.7093
-59.8128
-61.2155
-62.9237
-64.9326
-67.217
-69.7184
-72.3307
-74.8882
-77.1651
-78.8985
-79.8419
-55.5545
-55.8382
-56.4126
-57.2911
-58.4926
-60.0393
-61.9526
-64.2456
-66.9113
-69.9046
-73.118
-76.3562
-79.3226
-81.6385
-82.9221
-53.8192
-54.116
-54.7193
-55.6487
-56.9328
-58.6087
-60.7178
-63.2997
-66.3782
-69.938
-73.8879
-78.013
-81.9317
-85.0954
-86.8936
-51.8779
-52.1809
-52.7996
-53.7598
-55.1011
-56.8771
-59.1547
-62.009
-65.5109
-69.7005
-74.536
-79.8132
-85.0652
-89.5003
-92.1137
-49.7263
-50.0267
-50.6429
-51.6064
-52.9675
-54.7974
-57.1912
-60.2685
-64.1661
-69.0144
-74.8772
-81.6308
-88.7657
-95.1703
-99.1486
-47.3661
-47.6533
-48.2449
-49.1771
-50.5084
-52.326
-54.7531
-57.9583
-62.1612
-67.6238
-74.5999
-83.1834
-92.9734
-102.525
-108.946
-44.8065
-45.0686
-45.6106
-46.4706
-47.7117
-49.4314
-51.7748
-54.9553
-59.2813
-65.1823
-73.2062
-83.8981
-97.3465
-112.054
-123.202
-42.065
-42.2896
-42.7557
-43.4995
-44.5828
-46.1037
-48.2152
-51.157
-55.3077
-61.2665
-69.9598
-82.6984
-100.845
-124.053
-145.2
-39.1676
-39.3431
-39.708
-40.2928
-41.1502
-42.3659
-44.079
-46.5191
-50.0785
-55.4517
-63.9043
-77.7427
-100.83
-137.484
-181.883
-36.1485
-36.2651
-36.5077
-36.8969
-37.4688
-38.2829
-39.438
-41.104
-43.5898
-47.4984
-54.1088
-66.3643
-91.3922
-145.536
-249.399
-33.0487
-33.0998
-33.2057
-33.3743
-33.6193
-33.9631
-34.4423
-35.1198
-36.1133
-37.669
-40.3933
-46.1163
-61.7355
-119.059
-389.041
-29.9135
-29.8966
-29.8602
-29.7987
-29.7015
-29.5495
-29.3089
-28.9163
-28.2464
-27.0281
-24.5956
-18.9961
-3.11766
55.0978
326.445
-26.7902
-26.707
-26.5325
-26.2482
-25.8217
-25.1975
-24.2811
-22.9056
-20.7607
-17.2309
-10.9975
0.985935
26.0992
81.2454
187.756
-23.7249
-23.5812
-23.2811
-22.7967
-22.0793
-21.0486
-19.5724
-17.4293
-14.237
-9.31147
-1.39282
11.8498
34.4594
71.7219
123.038
17.9583
7.33545
3.06501
0.85111
-0.491896
-1.38315
-2.00677
-2.45744
-2.78936
-3.03582
-3.21829
-3.35102
-3.44354
-3.50209
-3.53047
11.3556
6.95831
3.74266
1.64688
0.251094
-0.715541
-1.40766
-1.91526
-2.29313
-2.57607
-2.78701
-2.9413
-3.04934
-3.11794
-3.15125
7.80639
5.76057
3.64258
1.95653
0.696058
-0.238559
-0.93669
-1.46317
-1.86278
-2.16631
-2.39502
-2.56369
-2.6825
-2.75826
-2.79514
5.67788
4.61289
3.24252
1.97064
0.914726
0.0741967
-0.584913
-1.09916
-1.49916
-1.80848
-2.04472
-2.22069
-2.34555
-2.42555
-2.46462
4.2889
3.67725
2.77404
1.83474
0.983818
0.260966
-0.333729
-0.814493
-1.19848
-1.5014
-1.73625
-1.91316
-2.03972
-2.12126
-2.16121
3.32464
2.94404
2.33061
1.63746
0.963965
0.358734
-0.16166
-0.597024
-0.954088
-1.24159
-1.468
-1.64059
-1.76512
-1.84585
-1.88553
2.62467
2.37251
1.94252
1.4265
0.896703
0.397584
-0.0486392
-0.433926
-0.757995
-1.02419
-1.23712
-1.40137
-1.52094
-1.59892
-1.63738
2.09979
1.92445
1.61415
1.22512
0.808127
0.399697
0.0220653
-0.313337
-0.602086
-0.84378
-1.04002
-1.19318
-1.30564
-1.37941
-1.41593
1.69665
1.57011
1.34045
1.04313
0.7136
0.380419
0.0634438
-0.225144
-0.478849
-0.694923
-0.872844
-1.01324
-1.11719
-1.18577
-1.21984
1.38137
1.28736
1.11372
0.883504
0.621604
0.349884
0.085108
-0.161173
-0.381739
-0.572557
-0.731717
-0.858602
-0.953279
-1.01609
-1.04739
1.13135
1.05992
0.926268
0.745876
0.536421
0.314526
0.0939276
-0.115058
-0.305287
-0.47217
-0.612997
-0.726324
-0.811495
-0.868286
-0.896672
0.930943
0.875664
0.771269