/*--------------------------------*- C++ -*----------------------------------*\
| =========                 |                                                 |
| \\      /  F ield         | OpenFOAM: The Open Source CFD Toolbox           |
|  \\    /   O peration     | Version:  5.x                                   |
|   \\  /    A nd           | Web:      www.OpenFOAM.org                      |
|    \\/     M anipulation  |                                                 |
\*---------------------------------------------------------------------------*/
FoamFile
{
    version     2.0;
    format      ascii;
    class       volScalarField;
    location    "6.9";
    object      gradTx;
}
// * * * * * * * * * * * * * * * * * * * * * * * * * * * * * * * * * * * * * //

dimensions      [0 -1 0 1 0 0 0];

internalField   nonuniform List<scalar> 
6300
(
99.0913
99.6847
100.859
102.588
104.831
107.53
110.606
113.958
117.462
120.97
124.316
127.319
129.798
131.584
132.536
98.4953
99.1012
100.301
102.071
104.373
107.15
110.327
113.803
117.455
121.13
124.655
127.839
130.488
132.416
133.468
97.2909
97.9207
99.1707
101.02
103.436
106.368
109.745
113.471
117.421
121.437
125.332
128.893
131.894
134.119
135.382
95.4541
96.1176
97.438
99.4008
101.981
105.138
108.811
112.911
117.317
121.863
126.341
130.503
134.075
136.782
138.384
92.9511
93.6548
95.0602
97.1614
99.9458
103.389
107.446
112.045
117.07
122.353
127.662
132.7
137.118
140.546
142.654
89.7418
90.4879
91.9839
94.2361
97.2495
101.023
105.538
110.748
116.561
122.814
129.252
135.516
141.146
145.626
148.47
85.7839
86.5685
88.149
90.5469
93.7909
97.9115
102.931
108.848
115.611
123.086
131.012
138.961
146.322
152.34
156.259
81.039
81.8507
83.4942
86.0091
89.4533
93.8989
99.4243
106.097
113.945
122.904
132.746
142.993
152.836
161.15
166.69
75.48
76.2988
77.9656
80.5397
84.1116
88.8039
94.7674
102.17
111.165
121.835
134.074
147.425
160.875
172.729
180.836
69.0998
69.8965
71.5274
74.07
77.6473
82.4352
88.6691
96.646
106.709
119.193
134.286
151.757
170.505
188.053
200.517
61.9207
62.6579
64.1753
66.5632
69.9701
74.6181
80.8254
89.0336
99.8297
113.938
132.116
154.807
181.333
208.456
229.041
54.0023
54.6372
55.9504
58.0354
61.0497
65.2393
70.9786
78.8309
89.6353
104.612
125.429
154.019
191.559
235.391
273.009
45.4471
45.9361
46.9518
48.5764
50.9518
54.3087
59.0165
65.6737
75.266
89.4427
110.965
144.277
195.49
268.536
347.358
36.401
36.7064
37.3425
38.3646
39.8708
42.0251
45.103
49.5792
56.31
66.9245
84.7099
116.63
177.582
295.899
491.821
27.0477
27.1445
27.3454
27.6671
28.1399
28.8164
29.7892
31.2284
33.4681
37.2331
44.317
59.9482
102.305
245.653
834.706
132.625
131.955
130.596
128.568
125.912
122.684
118.947
114.771
110.227
105.377
100.284
94.9975
89.5647
84.0237
78.4078
72.7452
67.0607
61.376
55.7109
50.0832
44.5092
39.0039
33.5806
28.251
23.0255
17.9126
12.9191
8.05021
3.30946
-1.30126
-5.78149
-10.1321
-14.3549
-18.4527
-22.4286
-26.2861
-30.0284
-33.6587
-37.1795
-40.5932
-43.9017
-47.1069
-50.211
-53.2164
-56.1263
-58.9448
-61.6762
-64.326
-66.8994
-69.4017
-71.8375
-74.2102
-76.5222
-78.7739
-80.9646
-83.0921
-85.1532
-87.1441
-89.0612
-90.9006
-92.6593
-94.3344
-95.9232
-97.4229
-98.8295
-100.138
-101.34
-102.426
-103.384
-104.198
-104.851
-105.323
-105.596
-105.65
-105.467
-105.033
-104.335
-103.366
-102.122
-100.603
-98.8141
-96.7652
-94.4702
-91.948
-89.2223
-86.3216
-83.279
-80.1316
-76.9194
-73.6843
133.608
132.943
131.555
129.47
126.735
123.412
119.576
115.301
110.662
105.728
100.558
95.207
89.7184
84.13
78.4734
72.7754
67.0595
61.3467
55.656
50.0049
44.4097
38.8853
33.445
28.1009
22.8632
17.7405
12.7397
7.86585
3.12244
-1.48883
-5.96776
-10.3155
-14.5344
-18.6274
-22.5984
-26.451
-30.1889
-33.8153
-37.3328
-40.7436
-44.0493
-47.2514
-50.3518
-53.3526
-56.2569
-59.0686
-61.7926
-64.4345
-67.0004
-69.4961
-71.9267
-74.2963
-76.6073
-78.8603
-81.0541
-83.1862
-85.2526
-87.249
-89.1712
-91.0153
-92.778
-94.457
-96.0501
-97.5552
-98.9695
-100.288
-101.505
-102.61
-103.59
-104.429
-105.109
-105.61
-105.91
-105.988
-105.827
-105.41
-104.724
-103.761
-102.516
-100.99
-99.1874
-97.1181
-94.7959
-92.2396
-89.4729
-86.5246
-83.4287
-80.2236
-76.9514
-73.6562
135.625
134.969
133.516
131.305
128.399
124.878
120.833
116.352
111.521
106.413
101.093
95.612
90.0139
84.3328
78.5969
72.8299
67.0527
61.2844
55.5429
49.8453
44.2076
38.6448
33.1706
27.7971
22.535
17.3928
12.3774
7.49389
2.74542
-1.8666
-6.34246
-10.684
-14.8943
-18.9773
-22.9378
-26.7803
-30.509
-34.1276
-37.6387
-41.0441
-44.3447
-47.5413
-50.6347
-53.6265
-56.5193
-59.3172
-62.0256
-64.6511
-67.201
-69.6826
-72.1023
-74.4653
-76.7744
-79.0302
-81.231
-83.373
-85.451
-87.4592
-89.3922
-91.2454
-93.0157
-94.7014
-96.3018
-97.8167
-99.2452
-100.585
-101.83
-102.971
-103.996
-104.887
-105.624
-106.183
-106.54
-106.671
-106.555
-106.173
-105.511
-104.559
-103.313
-101.773
-99.9434
-97.8336
-95.4573
-92.8328
-89.9836
-86.9389
-83.7343
-80.411
-77.0153
-73.5963
138.79
138.137
136.567
134.139
130.945
127.097
122.714
117.907
112.775
107.402
101.855
96.184
90.4271
84.6129
78.7636
72.8976
67.0317
61.1823
55.3658
49.5985
43.8968
38.2761
32.7506
27.3329
22.0339
16.8624
11.8253
6.92759
2.17215
-2.44009
-6.91015
-11.2409
-15.4367
-19.5031
-23.4463
-27.2724
-30.9868
-34.5937
-38.0958
-41.4943
-44.7888
-47.9785
-51.0627
-54.0416
-56.9172
-59.6934
-62.3766
-64.9752
-67.4986
-69.9566
-72.3582
-74.7102
-77.0166
-79.2779
-81.4911
-83.6505
-85.7483
-87.7761
-89.7264
-91.5933
-93.3736
-95.067
-96.6751
-98.201
-99.6474
-101.015
-102.302
-103.499
-104.594
-105.567
-106.393
-107.045
-107.493
-107.708
-107.664
-107.338
-106.713
-105.78
-104.532
-102.971
-101.101
-98.9315
-96.4748
-93.7482
-90.7743
-87.5823
-84.2095
-80.7015
-77.1115
-73.4973
143.291
142.622
140.85
138.071
134.429
130.086
125.203
119.925
114.374
108.641
102.794
96.8776
90.9208
84.9418
78.9526
72.9637
66.9858
61.0318
55.1166
49.2566
43.4688
37.7698
32.1748
26.6974
21.3489
16.1383
11.0726
6.1566
1.39296
-3.21792
-7.67801
-11.9915
-16.1648
-20.2056
-24.1227
-27.9245
-31.6184
-35.2097
-38.7013
-42.093
-45.3826
-48.5665
-51.6411
-54.6043
-57.4567
-60.2021
-62.8482
-65.406
-67.8888
-70.3105
-72.6839
-75.0193
-77.3222
-79.5931
-81.8272
-84.0151
-86.1447
-88.2031
-90.1789
-92.0641
-93.8552
-95.5536
-97.1651
-98.698
-100.161
-101.561
-102.9
-104.173
-105.365
-106.455
-107.411
-108.199
-108.781
-109.118
-109.177
-108.931
-108.359
-107.451
-106.202
-104.613
-102.689
-100.441
-97.8793
-95.0183
-91.8776
-88.4848
-84.8781
-81.109
-77.2413
-73.347
149.424
148.694
146.578
143.245
138.92
133.849
128.257
122.336
116.231
110.042
103.83
97.6273
91.4448
85.2834
79.1398
73.0124
66.9043
60.8244
54.787
48.8098
42.9122
37.113
31.4294
25.8762
20.4651
15.2055
10.1044
5.16639
0.3941
-4.21254
-8.65644
-12.9436
-17.083
-21.0857
-24.9643
-28.7311
-32.3967
-35.9685
-39.4494
-42.8377
-46.1274
-49.3106
-52.3787
-55.3255
-58.1489
-60.8523
-63.4455
-65.9436
-68.3656
-70.7323
-73.0632
-75.3736
-77.6723
-79.9599
-82.2282
-84.4622
-86.6421
-88.7474
-90.7604
-92.6688
-94.4686
-96.1639
-97.7667
-99.2938
-100.764
-102.194
-103.593
-104.96
-106.283
-107.533
-108.671
-109.65
-110.418
-110.925
-111.127
-110.99
-110.489
-109.613
-108.359
-106.734
-104.744
-102.401
-99.7131
-96.6897
-93.3428
-89.6938
-85.7794
-81.6575
-77.408
-73.1265
157.644
156.757
154.058
149.842
144.485
138.358
131.783
125.01
118.207
111.473
104.852
98.3454
91.9366
85.5976
79.3021
73.0319
66.7808
60.5548
54.3697
48.2478
42.2132
36.2892
30.4961
24.85
19.3631
14.0446
8.90125
3.93779
-0.842991
-5.44107
-9.86007
-14.108
-18.1972
-22.1438
-25.966
-29.6825
-33.3092
-36.8571
-40.3299
-43.723
-47.0247
-50.2191
-53.2896
-56.223
-59.0124
-61.6601
-64.1785
-66.5892
-68.9207
-71.2044
-73.4704
-75.7432
-78.037
-80.3528
-82.6773
-84.9855
-87.2452
-89.4232
-91.4906
-93.4285
-95.2308
-96.906
-98.4754
-99.9699
-101.424
-102.869
-104.329
-105.811
-107.303
-108.77
-110.158
-111.402
-112.43
-113.171
-113.566
-113.57
-113.157
-112.315
-111.051
-109.377
-107.307
-104.856
-102.029
-98.8253
-95.242
-91.2837
-86.9781
-82.3888
-77.6199
-72.8069
168.669
167.428
163.716
158.082
151.154
143.508
135.593
127.724
120.082
112.742
105.704
98.9215
92.3261
85.8476
79.4264
73.0226
66.62
60.225
53.8607
47.5592
41.3542
35.2766
29.3507
23.5942
18.0186
12.6316
7.43921
2.44639
-2.34281
-6.927
-11.3095
-15.5002
-19.5161
-23.3801
-27.1193
-30.7622
-34.334
-37.8529
-41.3242
-44.7389
-48.0754
-51.3047
-54.3969
-57.3266
-60.0786
-62.6527
-65.065
-67.3475
-69.5432
-71.7004
-73.8665
-76.081
-78.3686
-80.7317
-83.1485
-85.5771
-87.9646
-90.2564
-92.406
-94.3819
-96.1746
-97.7986
-99.2906
-100.703
-102.094
-103.522
-105.032
-106.646
-108.357
-110.118
-111.853
-113.465
-114.852
-115.913
-116.566
-116.751
-116.438
-115.626
-114.332
-112.587
-110.419
-107.85
-104.885
-101.507
-97.6798
-93.3723
-88.5842
-83.3774
-77.8941
-72.342
183.662
181.653
176.139
168.18
158.856
149.039
139.336
130.108
121.518
113.574
106.188
99.2261
92.5454
86.0133
79.5242
73.0101
66.4469
59.8499
53.2604
46.7306
40.3114
34.0449
27.9611
22.0777
16.4024
10.9387
5.68995
0.662102
-4.13739
-8.70277
-13.0345
-17.1436
-21.0528
-24.7951
-28.4106
-31.943
-35.4343
-38.916
-42.3989
-45.8662
-49.279
-52.5866
-55.7368
-58.6845
-61.3998
-63.8767
-66.1371
-68.2294
-70.2196
-72.1821
-74.1912
-76.3123
-78.5898
-81.0317
-83.601
-86.2264
-88.82
-91.2931
-93.5696
-95.5975
-97.3595
-98.8797
-100.219
-101.464
-102.71
-104.055
-105.582
-107.342
-109.336
-111.501
-113.721
-115.852
-117.74
-119.242
-120.238
-120.646
-120.438
-119.628
-118.263
-116.403
-114.106
-111.413
-108.335
-104.833
-100.808
-96.1515
-90.7922
-84.7629
-78.2662
-71.6521
204.625
200.923
192.076
180.241
167.264
154.403
142.388
131.571
122.022
113.599
106.057
99.1242
92.5487
86.1153
79.6562
73.0669
66.321
59.4628
52.5732
45.7421
39.048
32.5498
26.2828
20.2612
14.4817
8.93625
3.62295
-1.45059
-6.26854
-10.8143
-15.0794
-19.074
-22.8291
-26.3918
-29.8204
-33.1821
-36.5471
-39.9761
-43.4949
-47.0707
-50.6328
-54.0938
-57.3671
-60.3753
-63.063
-65.4108
-67.4495
-69.2566
-70.9344
-72.5952
-74.3529
-76.3168
-78.5727
-81.1465
-83.9709
-86.9201
-89.8473
-92.6112
-95.0894
-97.1941
-98.8912
-100.219
-101.282
-102.22
-103.183
-104.326
-105.793
-107.698
-110.069
-112.804
-115.717
-118.585
-121.184
-123.299
-124.753
-125.429
-125.3
-124.426
-122.906
-120.849
-118.359
-115.527
-112.397
-108.908
-104.845
-99.9411
-93.9634
-86.8204
-78.806
-70.5845
235.253
227.595
212.312
193.944
175.504
158.542
143.715
131.204
120.899
112.355
105.047
98.5054
92.3457
86.2524
79.974
73.3477
66.3557
59.12
51.8005
44.5557
37.502
30.7212
24.2509
18.096
12.2243
6.59972
1.21108
-3.9308
-8.79098
-13.3295
-17.5129
-21.3483
-24.8814
-28.1804
-31.3258
-34.4152
-37.5664
-40.906
-44.5072
-48.2939
-52.1305
-55.8699
-59.3775
-62.526
-65.2143
-67.3884
-69.0941
-70.4683
-71.6722
-72.8671
-74.2163
-75.8992
-78.0962
-80.8987
-84.1598
-87.6436
-91.1079
-94.3393
-97.1453
-99.376
-100.953
-101.938
-102.525
-102.937
-103.397
-104.127
-105.373
-107.381
-110.275
-113.85
-117.776
-121.706
-125.32
-128.306
-130.388
-131.368
-131.235
-130.153
-128.32
-125.915
-123.105
-120.068
-116.974
-113.808
-110.092
-105.275
-98.8114
-90.1311
-79.6432
-68.8081
283.068
265.244
236.983
207.747
181.615
159.607
141.702
127.658
117.238
109.33
102.931
97.3346
92.0454
86.6543
80.7914
74.1538
66.7402
58.8969
50.9198
43.0934
35.5629
28.4453
21.7648
15.523
9.61107
3.92384
-1.55563
-6.81608
-11.776
-16.355
-20.447
-24.0568
-27.2702
-30.1891
-32.9108
-35.5581
-38.3135
-41.4579
-45.2512
-49.4439
-53.767
-57.9786
-61.9033
-65.3379
-68.1045
-70.0392
-71.2143
-71.9241
-72.4214
-72.9154
-73.5975
-74.74
-76.7464
-79.9893
-84.0263
-88.3937
-92.7022
-96.6781
-100.028
-102.498
-103.864
-104.229
-104.018
-103.584
-103.219
-103.184
-103.854
-105.786
-109.498
-114.389
-119.827
-125.28
-130.358
-134.612
-137.61
-138.907
-138.536
-136.96
-134.553
-131.564
-128.176
-124.691
-121.653
-119.499
-116.922
-112.979
-106.85
-96.0435
-80.9791
-65.5146
365.221
317.92
263.052
217.073
181.78
154.761
134.126
118.887
109.96
104.13
99.6551
95.7198
91.8897
87.7337
82.7228
76.0758
67.742
58.8652
49.8212
41.2042
33.0287
25.5395
18.6467
12.4753
6.67453
0.949231
-4.63713
-10.1335
-15.3086
-20.0811
-24.0742
-27.335
-30.0818
-32.4807
-34.6018
-36.5442
-38.4992
-41.0739
-45.4186
-50.4049
-55.5626
-60.4986
-65.1335
-69.1099
-72.1909
-73.7822
-74.0027
-73.6841
-73.1736
-72.691
-72.3144
-72.3348
-73.6146
-77.9346
-83.4154
-89.2268
-94.7737
-99.9168
-104.176
-107.21
-108.212
-107.35
-105.829
-104.131
-102.564
-101.224
-100.516
-101.627
-107.021
-114.136
-121.855
-129.393
-136.582
-142.724
-147.277
-148.849
-147.567
-144.964
-141.623
-137.785
-133.387
-128.666
-125.059
-125.795
-125.72
-123.828
-121.623
-108.086
-82.8901
-58.5356
525.92
381.487
276.316
211.007
170.028
140.721
118.775
101.027
98.2178
96.9749
95.601
93.9514
92.2015
90.0423
87.0085
80.4252
69.5247
59.0734
48.107
38.6788
29.5062
21.7747
14.4901
8.89416
3.62964
-2.22489
-7.84761
-13.9125
-19.42
-24.9284
-28.755
-31.3521
-33.3934
-35.1713
-36.5488
-37.5109
-37.7913
-38.1401
-44.6608
-51.1175
-57.676
-63.4506
-69.3104
-74.1696
-78.4207
-79.4976
-77.5657
-75.7191
-73.8839
-72.3125
-70.4582
-68.1148
-66.1035
-74.2067
-82.3271
-90.439
-97.4251
-104.427
-110.086
-114.844
-115.245
-111.416
-107.893
-104.487
-101.582
-98.3518
-94.5595
-91.2962
-102.066
-113.013
-124.143
-134.005
-144.311
-153.125
-161.233
-162.898
-158.498
-154.027
-149.406
-144.813
-139.059
-131.034
-122.208
-133.259
-137.13
-135.127
-152.713
-136.915
-83.5886
-41.7697
891.578
388.51
232.173
169.902
141.465
116.075
97.3766
61.6539
84.2178
90.0063
91.9419
92.3253
93.1008
93.6081
96.4038
90.9898
70.659
60.0222
44.1774
35.7849
23.9081
17.3666
7.90167
4.83613
1.43486
-5.73212
-10.4205
-18.4931
-23.5292
-32.1959
-35.2051
-36.1682
-37.0829
-38.437
-39.0925
-39.4583
-36.9835
-26.3177
-43.9937
-51.6821
-60.9166
-66.2781
-74.9262
-80.1031
-89.2194
-89.5438
-81.0039
-77.7357
-74.2129
-72.3397
-69.305
-63.415
-44.0261
-70.4526
-81.2494
-93.2707
-100.052
-110.87
-117.289
-128.754
-128.366
-115.039
-109.789
-104.12
-101.067
-96.2871
-87.8392
-60.7571
-96.8516
-111.626
-128.256
-137.976
-154.187
-164.537
-184.468
-185.677
-169.528
-163.305
-157.148
-153.509
-148.001
-134.555
-90.7308
-151.062
-156.997
-118.215
-231.874
-219.781
-67.7154
1.32533
-70.1507
-66.3813
-62.7642
-59.3518
-56.1849
-53.2923
-50.6926
-48.3951
-46.4022
-44.7114
-43.3173
-42.2132
-41.3923
-40.8486
-40.5778
-70.0595
-66.2279
-62.5586
-59.1056
-55.9096
-52.9987
-50.3897
-48.0898
-46.0993
-44.414
-43.0267
-41.9294
-41.1144
-40.575
-40.3065
-69.87
-65.9111
-62.1359
-58.6013
-55.3482
-52.4025
-49.7768
-47.4743
-45.4907
-43.8179
-42.4455
-41.3628
-40.5603
-40.0299
-39.7662
-69.5671
-65.4097
-61.4717
-57.8147
-54.4788
-51.4853
-48.8402
-46.5391
-44.5707
-42.9207
-41.5738
-40.5155
-39.7334
-39.2176
-38.9614
-69.1254
-64.6879
-60.5257
-56.706
-53.2662
-50.2189
-47.5589
-45.2703
-43.3317
-41.7198
-40.4129
-39.3915
-38.6396
-38.1452
-37.9
-68.5046
-63.6897
-59.2362
-55.2167
-51.6604
-48.5643
-45.9056
-43.6511
-41.7651
-40.2134
-38.9659
-37.9974
-37.2879
-36.8229
-36.5928
-67.6417
-62.3293
-57.512
-53.2633
-49.5935
-46.4719
-43.8473
-41.6626
-39.8635
-38.4023
-37.2394
-36.3436
-35.6912
-35.2652
-35.0549
-66.4348
-60.4731
-55.2182
-50.7304
-46.9778
-43.8817
-41.3483
-39.2881
-37.6236
-36.2922
-35.2452
-34.4459
-33.8674
-33.4914
-33.3062
-64.7127
-57.9091
-52.1567
-47.4613
-43.705
-40.7281
-38.3757
-36.5171
-35.0499
-33.8973
-33.0029
-32.3267
-31.8408
-31.5263
-31.3717
-62.1699
-54.293
-48.0372
-43.2524
-39.6523
-36.9495
-34.9087
-33.3543
-32.1613
-31.2435
-30.5419
-30.0169
-29.6422
-29.4007
-29.2823
-58.2271
-49.0549
-42.4458
-37.8584
-34.7014
-32.5083
-30.9549
-29.8295
-28.9971
-28.3729
-27.9039
-27.5565
-27.31
-27.1516
-27.0741
-51.7175
-41.2531
-34.8325
-31.0332
-28.7862
-27.4268
-26.5728
-26.0111
-25.6241
-25.3469
-25.1437
-24.9948
-24.8892
-24.8212
-24.7879
-40.184
-29.4067
-24.5971
-22.6554
-21.983
-21.8396
-21.8981
-22.0177
-22.141
-22.2465
-22.329
-22.3893
-22.4305
-22.4559
-22.468
-18.357
-11.5924
-11.4933
-13.0082
-14.6502
-16.0502
-17.1617
-18.0205
-18.6752
-19.169
-19.5361
-19.8026
-19.9873
-20.1036
-20.1598
24.9479
12.8876
3.22461
-3.2335
-7.55938
-10.5492
-12.6779
-14.2271
-15.37
-16.2177
-16.8436
-17.2972
-17.6123
-17.8112
-17.9074
18.3839
18.2825
18.0693
17.7212
17.1985
16.4354
15.3228
13.6714
11.1299
6.97182
-0.546726
-16.5105
-59.2772
-208.974
-867.878
10.577
10.3029
9.72907
8.79986
7.41784
5.42187
2.54458
-1.67223
-8.05592
-18.2057
-35.4677
-67.4054
-131.913
-268.655
-523.418
2.95965
2.53043
1.63485
0.192142
-1.93728
-4.98043
-9.30414
-15.512
-24.6273
-38.4451
-60.1974
-95.6812
-154.387
-246.374
-355.871
-4.36044
-4.91895
-6.08017
-7.93941
-10.6586
-14.4941
-19.8451
-27.3332
-37.9336
-53.1748
-75.3919
-107.831
-153.747
-211.932
-264.36
-11.2934
-11.9505
-13.3112
-15.4745
-18.6051
-22.9559
-28.9024
-36.9937
-48.0173
-63.0599
-83.4876
-110.622
-144.584
-181.486
-209.256
-17.7707
-18.4941
-19.9853
-22.3383
-25.7048
-30.31
-36.4709
-44.6185
-55.3106
-69.2052
-86.9252
-108.671
-133.381
-157.379
-173.436
-23.7464
-24.5049
-26.0617
-28.4986
-31.9449
-36.584
-42.6599
-50.4767
-60.3802
-72.6942
-87.5662
-104.662
-122.671
-138.785
-148.764
-29.1957
-29.962
-31.5274
-33.9583
-37.3568
-41.8606
-47.6401
-54.886
-63.7762
-74.4068
-86.6629
-100.016
-113.278
-124.451
-131.022
-34.1133
-34.8646
-36.3923
-38.7466
-42.0016
-46.2514
-51.6021
-58.1534
-65.9638
-74.9906
-84.9974
-95.4346
-105.334
-113.313
-117.842
-38.5097
-39.2284
-40.6836
-42.9098
-45.9557
-49.8778
-54.7305
-60.5465
-67.3067
-74.8939
-83.0326
-91.2262
-98.723
-104.569
-107.806
-42.4073
-43.081
-44.4397
-46.5042
-49.3015
-52.8583
-57.19
-62.284
-68.0753
-74.4141
-81.0297
-87.5013
-93.2581
-97.6369
-100.019
-45.8373
-46.4583
-47.7059
-49.5898
-52.1201
-55.3007
-59.1201
-63.5372
-68.4636
-73.742
-79.1266
-84.2727
-88.7498
-92.0911
-93.8848
-48.8364
-49.4006
-50.5304
-52.2269
-54.4873
-57.2998
-60.6353
-64.4369
-68.6073
-72.996
-77.3889
-81.5086
-85.0299
-87.6196
-88.9962
-51.4439
-51.9505
-52.9617
-54.4724
-56.4712
-58.9357
-61.8268
-65.0804
-68.5996
-72.2469
-75.8409
-79.1597
-81.9569
-83.9904
-85.0632
-53.6998
-54.15
-55.0462
-56.3792
-58.1317
-60.2756
-62.7666
-65.5395
-68.5028
-71.5349
-74.4838
-77.1729
-79.4139
-81.0283
-81.8749
-55.6432
-56.0399
-56.8277
-57.9947
-59.5207
-61.3744
-63.5106
-65.8664
-68.3582
-70.8804
-73.3071
-75.4973
-77.3058
-78.5993
-79.2744
-57.3113
-57.6582
-58.3459
-59.3611
-60.6821
-62.2772
-64.1023
-66.0988
-68.1923
-70.2924
-72.2947
-74.0865
-75.5552
-76.5995
-77.1425
-58.7385
-59.0401
-59.6369
-60.5151
-61.6532
-63.0203
-64.5749
-66.2639
-68.022
-69.7721
-71.4283
-72.9001
-74.0991
-74.9477
-75.3876
-59.9563
-60.2172
-60.7325
-61.4888
-62.4654
-63.6332
-64.9543
-66.3811
-67.8571
-69.317
-70.69
-71.903
-72.8864
-73.5796
-73.9382
-60.993
-61.2176
-61.6607
-62.3096
-63.1448
-64.1397
-65.2601
-66.4643
-67.7033
-68.9223
-70.0627
-71.0655
-71.875
-72.4439
-72.7376
-61.8738
-62.0665
-62.4461
-63.001
-63.7133
-64.5591
-65.5079
-66.5232
-67.5633
-68.582
-69.5309
-70.362
-71.0306
-71.4993
-71.7408
-62.6208
-62.7856
-63.1099
-63.5832
-64.1893
-64.9069
-65.7093
-66.565
-67.4382
-68.2903
-69.081
-69.7713
-70.3251
-70.7124
-70.9118
-63.2533
-63.3939
-63.6703
-64.0731
-64.5879
-65.1959
-65.8739
-66.5947
-67.3279
-68.041
-68.7009
-69.2752
-69.735
-70.056
-70.2211
-63.7883
-63.908
-64.1431
-64.4852
-64.9217
-65.4363
-66.0087
-66.6156
-67.2314
-67.8288
-68.38
-68.8588
-69.2413
-69.508
-69.6449
-64.2403
-64.3419
-64.5415
-64.8317
-65.2014
-65.6365
-66.1195
-66.6305
-67.1478
-67.6485
-68.1095
-68.5092
-68.828
-69.0499
-69.1638
-64.6216
-64.7079
-64.8771
-65.1229
-65.4358
-65.8034
-66.2108
-66.6411
-67.0758
-67.4957
-67.8817
-68.2157
-68.4818
-68.6669
-68.7618
-64.9431
-65.0162
-65.1596
-65.3677
-65.6322
-65.9427
-66.2862
-66.6485
-67.014
-67.3664
-67.6899
-67.9695
-68.1919
-68.3465
-68.4257
-65.2138
-65.2757
-65.3971
-65.5732
-65.7968
-66.0589
-66.3487
-66.6538
-66.9612
-67.2572
-67.5286
-67.7628
-67.9491
-68.0784
-68.1446
-65.4416
-65.494
-65.5967
-65.7456
-65.9347
-66.156
-66.4004
-66.6576
-66.9163
-67.1651
-67.393
-67.5896
-67.7457
-67.8541
-67.9096
-65.633
-65.6773
-65.7643
-65.8903
-66.0501
-66.2371
-66.4434
-66.6602
-66.8782
-67.0876
-67.2793
-67.4444
-67.5755
-67.6664
-67.713
-65.7935
-65.8311
-65.9048
-66.0114
-66.1466
-66.3047
-66.479
-66.6621
-66.8459
-67.0225
-67.1839
-67.3229
-67.4331
-67.5096
-67.5487
-65.928
-65.9599
-66.0223
-66.1127
-66.2273
-66.3611
-66.5086
-66.6634
-66.8188
-66.9679
-67.1041
-67.2213
-67.3142
-67.3787
-67.4117
-66.0404
-66.0674
-66.1205
-66.1972
-66.2945
-66.4081
-66.5332
-66.6644
-66.796
-66.9222
-67.0374
-67.1366
-67.2151
-67.2696
-67.2975
-66.1339
-66.157
-66.2022
-66.2675
-66.3504
-66.447
-66.5535
-66.665
-66.7769
-66.8841
-66.982
-67.0661
-67.1328
-67.179
-67.2026
-66.2114
-66.2312
-66.2698
-66.3258
-66.3966
-66.4793
-66.5702
-66.6655
-66.761
-66.8525
-66.936
-67.0078
-67.0647
-67.104
-67.1242
-66.2752
-66.2922
-66.3255
-66.3737
-66.4346
-66.5057
-66.5839
-66.6658
-66.7479
-66.8265
-66.8982
-66.9599
-67.0086
-67.0424
-67.0597
-66.3272
-66.342
-66.3709
-66.4127
-66.4655
-66.5272
-66.5951
-66.6661
-66.7372
-66.8053
-66.8674
-66.9208
-66.963
-66.9923
-67.0072
-66.369
-66.3819
-66.4073
-66.444
-66.4904
-66.5445
-66.604
-66.6662
-66.7286
-66.7883
-66.8427
-66.8895
-66.9265
-66.9521
-66.9652
-66.4017
-66.4133
-66.4359
-66.4685
-66.5098
-66.558
-66.6109
-66.6664
-66.7218
-66.7749
-66.8233
-66.8649
-66.8978
-66.9205
-66.9322
-66.4265
-66.437
-66.4574
-66.4871
-66.5245
-66.5682
-66.6162
-66.6664
-66.7167
-66.7648
-66.8087
-66.8463
-66.8761
-66.8967
-66.9073
-66.444
-66.4537
-66.4727
-66.5002
-66.5349
-66.5754
-66.6199
-66.6665
-66.7131
-66.7577
-66.7983
-66.8332
-66.8608
-66.8799
-66.8897
-66.4547
-66.464
-66.4821
-66.5082
-66.5413
-66.5798
-66.6222
-66.6665
-66.7109
-66.7533
-66.792
-66.8252
-66.8514
-66.8696
-66.8789
-66.459
-66.4681
-66.4858
-66.5114
-66.5438
-66.5816
-66.6231
-66.6665
-66.71
-66.7515
-66.7894
-66.8219
-66.8476
-66.8654
-66.8745
-66.4571
-66.4662
-66.4841
-66.51
-66.5427
-66.5808
-66.6227
-66.6665
-66.7104
-66.7524
-66.7906
-66.8234
-66.8493
-66.8673
-66.8765
-66.4488
-66.4583
-66.4769
-66.5038
-66.5378
-66.5774
-66.621
-66.6665
-66.7121
-66.7557
-66.7955
-66.8296
-66.8566
-66.8753
-66.8848
-66.4339
-66.444
-66.4639
-66.4926
-66.5289
-66.5713
-66.6178
-66.6665
-66.7152
-66.7618
-66.8043
-66.8408
-66.8696
-66.8896
-66.8998
-66.4119
-66.423
-66.4447
-66.4762
-66.5159
-66.5622
-66.6132
-66.6664
-66.7198
-66.7708
-66.8173
-66.8572
-66.8888
-66.9107
-66.9219
-66.3822
-66.3946
-66.4189
-66.4539
-66.4983
-66.55
-66.6069
-66.6664
-66.7259
-66.7829
-66.8349
-66.8795
-66.9148
-66.9392
-66.9517
-66.344
-66.358
-66.3855
-66.4253
-66.4756
-66.5342
-66.5987
-66.6663
-66.7338
-66.7985
-66.8575
-66.9082
-66.9482
-66.976
-66.9902
-66.2959
-66.3121
-66.3436
-66.3893
-66.447
-66.5144
-66.5885
-66.6661
-66.7438
-66.8181
-66.8859
-66.9442
-66.9903
-67.0222
-67.0385
-66.2367
-66.2554
-66.292
-66.3449
-66.4118
-66.49
-66.5759
-66.6659
-66.756
-66.8423
-66.921
-66.9886
-67.0422
-67.0792
-67.0982
-66.1645
-66.1863
-66.229
-66.2907
-66.3689
-66.4601
-66.5604
-66.6655
-66.7708
-66.8717
-66.9638
-67.0428
-67.1055
-67.1489
-67.171
-66.0772
-66.1027
-66.1528
-66.2252
-66.3169
-66.4239
-66.5416
-66.6651
-66.7888
-66.9073
-67.0155
-67.1085
-67.1822
-67.2332
-67.2593
-65.9721
-66.0022
-66.061
-66.1463
-66.2542
-66.3802
-66.519
-66.6644
-66.8103
-66.9501
-67.0778
-67.1876
-67.2745
-67.3348
-67.3656
-65.8461
-65.8816
-65.951
-66.0516
-66.1789
-66.3277
-66.4916
-66.6635
-66.8359
-67.0014
-67.1525
-67.2824
-67.3855
-67.4569
-67.4934
-65.6956
-65.7374
-65.8195
-65.9382
-66.0888
-66.2647
-66.4587
-66.6622
-66.8665
-67.0626
-67.2418
-67.396
-67.5183
-67.6031
-67.6465
-65.5159
-65.5654
-65.6624
-65.8029
-65.981
-66.1893
-66.4191
-66.6603
-66.9027
-67.1355
-67.3484
-67.5318
-67.6773
-67.7782
-67.8298
-65.3019
-65.3604
-65.4751
-65.6413
-65.8522
-66.099
-66.3714
-66.6577
-66.9456
-67.2223
-67.4756
-67.6939
-67.8671
-67.9874
-68.0489
-65.0472
-65.1164
-65.2521
-65.4488
-65.6985
-65.991
-66.3141
-66.6541
-66.9962
-67.3254
-67.627
-67.8872
-68.0938
-68.2373
-68.3108
-64.7445
-64.8263
-64.9868
-65.2195
-65.5151
-65.8618
-66.2451
-66.6489
-67.0557
-67.4477
-67.8072
-68.1176
-68.3644
-68.5358
-68.6236
-64.385
-64.4817
-64.6712
-64.9464
-65.2963
-65.7071
-66.1618
-66.6416
-67.1256
-67.5926
-68.0215
-68.3922
-68.6872
-68.8923
-68.9975
-63.9584
-64.0725
-64.2963
-64.6214
-65.0354
-65.5218
-66.0613
-66.6312
-67.2073
-67.764
-68.276
-68.7193
-69.0725
-69.3182
-69.4443
-63.4527
-63.5871
-63.851
-64.2348
-64.724
-65.2999
-65.9395
-66.6166
-67.3024
-67.9665
-68.5784
-69.109
-69.5323
-69.8272
-69.9786
-62.8537
-63.0118
-63.3226
-63.775
-64.3525
-65.0336
-65.7917
-66.596
-67.4126
-68.2052
-68.9371
-69.5731
-70.0814
-70.4359
-70.618
-62.1448
-62.3306
-62.6959
-63.2283
-63.9092
-64.7138
-65.6117
-66.567
-67.5394
-68.486
-69.3624
-70.1258
-70.7372
-71.1642
-71.3838
-61.3071
-61.5247
-61.9531
-62.5785
-63.3799
-64.3294
-65.3919
-66.526
-67.6843
-68.8155
-69.8662
-70.784
-71.5209
-72.0366
-72.302
-60.3182
-60.5725
-61.0737
-61.8065
-62.7479
-63.8665
-65.1225
-66.4681
-67.8479
-69.2008
-70.4622
-71.5679
-72.4582
-73.0826
-73.4045
-59.1528
-59.449
-60.0334
-60.8897
-61.9928
-63.3081
-64.7909
-66.3865
-68.0303
-69.6496
-71.1663
-72.5013
-73.5801
-74.3387
-74.7304
-57.7818
-58.1255
-58.8044
-59.8016
-61.0904
-62.6334
-64.3811
-66.2715
-68.2297
-70.1696
-71.9965
-73.6126
-74.9241
-75.8495
-76.3283
-56.1723
-56.5691
-57.3545
-58.5111
-60.0117
-61.8166
-63.8722
-66.1093
-68.4418
-70.768
-72.973
-74.9354
-76.5362
-77.6703
-78.2585
-54.2874
-54.7431
-55.6468
-56.982
-58.7217
-60.8256
-63.2373
-65.8808
-68.6584
-71.4504
-74.1179
-76.5093
-78.4724
-79.8699
-80.5972
-52.0862
-52.6061
-53.6395
-55.172
-57.1788
-59.6211
-62.4416
-65.5591
-68.8649
-72.2193
-75.4544
-78.3804
-80.8011
-82.5349
-83.4407
-49.524
-50.1128
-51.2859
-53.0327
-55.3335
-58.154
-61.4395
-65.1069
-69.0374
-73.0711
-77.0054
-80.6024
-83.6066
-85.7748
-86.9129
-46.5532
-47.2139
-48.5339
-50.509
-53.1274
-56.3642
-60.1723
-64.4719
-69.1384
-73.9918
-78.7905
-83.2358
-86.9926
-89.7296
-91.1754
-43.1239
-43.8573
-45.3274
-47.5387
-50.4921
-54.1778
-58.5639
-63.5821
-69.1095
-74.9504
-80.8209
-86.3471
-91.0865
-94.581
-96.4415
-39.1855
-39.9894
-41.6064
-44.0532
-47.3485
-51.5051
-56.5167
-62.3386
-68.863
-75.8883
-83.0901
-90.0047
-96.0445
-100.567
-102.999
-34.6893
-35.557
-37.3095
-39.9787
-43.607
-48.239
-53.9068
-60.6073
-68.2685
-76.7036
-85.5587
-94.2693
-102.056
-108.003
-111.246
-29.5908
-30.5107
-32.3764
-35.2384
-39.1688
-44.2537
-50.5798
-58.209
-67.1367
-77.227
-88.1272
-99.1752
-109.345
-117.316
-121.745
-23.8539
-24.808
-26.7517
-29.7567
-33.9292
-39.4067
-46.348
-54.9092
-65.1974
-77.1878
-90.593
-104.69
-118.162
-129.088
-135.318
-17.455
-18.4184
-20.3907
-23.4646
-27.7836
-33.5436
-40.9915
-50.41
-62.076
-76.166
-92.5777
-110.639
-128.745
-144.122
-153.217
-10.3878
-11.3289
-13.265
-16.3085
-20.6377
-26.5087
-34.2668
-44.3504
-57.2711
-73.5318
-93.4165
-116.558
-141.222
-163.516
-177.431
-2.66762
-3.54891
-5.3711
-8.26003
-12.4216
-18.1639
-25.9274
-36.3207
-50.147
-68.381
-91.9934
-121.418
-155.344
-188.73
-211.306
5.66378
4.8837
3.26293
0.671574
-3.10843
-8.41594
-15.7622
-25.9072
-39.9622
-59.495
-86.5341
-123.151
-169.841
-221.448
-260.857
14.536
13.8993
12.5702
10.4279
7.26486
2.7472
-3.65391
-12.7788
-25.9738
-45.3967
-74.4237
-117.887
-180.923
-262.636
-337.772
23.8496
23.3948
22.4412
20.8922
18.5781
15.2176
10.3452
3.17526
-7.66088
-24.6293
-52.2881
-99.0304
-179.033
-308.389
-466.862
33.4778
33.2356
32.7248
31.8868
30.6171
28.737
25.939
21.6744
14.9096
3.56137
-16.9005
-57.0758
-142.869
-333.92
-705.998
43.2732
43.2618
43.2344
43.1802
43.0789
42.8927
42.5502
41.9088
40.6619
38.0798
32.1762
16.558
-33.6078
-233.733
-1203.51
53.0752
53.2979
53.7614
54.5053
55.5985
57.1558
59.3676
62.5621
67.3399
74.9035
87.9981
114.182
179.792
400.938
1392.25
62.7211
63.1655
64.0924
65.5863
67.7947
70.9631
75.501
82.114
92.0814
107.884
134.728
184.426
285.176
500.762
909.734
72.0571
72.6964
74.0284
76.1698
79.3227
83.8176
90.1916
99.3344
112.768
133.196
165.587
219.213
310.81
466.282
711.257
81.383
33.1298
13.7782
3.7721
-2.28405
-6.29572
-9.09865
-11.122
-12.6108
-13.7155
-14.533
-15.1274
-15.5416
-15.8037
-15.9307
51.4266
31.4608
16.8824
7.39776
1.09193
-3.26829
-6.38612
-8.67023
-10.369
-11.6402
-12.5873
-13.2798
-13.7646
-14.0723
-14.2217
35.3348
26.0504
16.4491
8.81581
3.11678
-1.10359
-4.2525
-6.62486
-8.42409
-9.78976
-10.8183
-11.5765
-12.1103
-12.4507
-12.6164
25.6902
20.8596
14.6491
8.8905
4.11477
0.317057
-2.65812
-4.97745
-6.78014
-8.17337
-9.23684
-10.0287
-10.5904
-10.9502
-11.1259
19.3998
16.627
12.5349
8.28259
4.43353
1.16649
-1.51918
-3.68875
-5.42049
-6.78589
-7.84394
-8.64069
-9.21049
-9.57758
-9.75738
15.0349
13.3103
10.532
7.39453
4.34805
1.61219
-0.738608
-2.70409
-4.31517
-5.61177
-6.63243
-7.41019
-7.97127
-8.33489
-8.5136
11.8674
10.7253
8.77845
6.4432
4.04682
1.79048
-0.225622
-1.96549
-3.42821
-4.62921
-5.58952
-6.3301
-6.86909
-7.22051
-7.39384
9.49285
8.69903
7.29451
5.53424
3.6483
1.80191
0.0955382
-1.41934
-2.72297
-3.81376
-4.69915
-5.38995
-5.89708
-6.22973
-6.39438
7.66949
7.09678
6.05753
4.71251
3.22227
1.71609
0.283717
-1.01989
-2.16551
-3.14091
-3.94385
-4.57729
-5.04619
-5.35555
-5.50919
6.24377
5.81843
5.03284
3.99156
2.80729
1.57899
0.38247
-0.730122
-1.72625
-2.58778
-3.30621
-3.87884
-4.30605
-4.58944
-4.73065
5.11336
4.7902
4.18567
3.36987
2.42284
1.41982
0.422931
-0.52123
-1.38043
-2.13401
-2.7698
-3.28134
-3.66574
-3.92203
-4.05011
4.20732
3.9573
3.48518
2.83926
2.07726
1.25637
0.426771
-0.371335
-1.10794
-1.76202
-2.31963
-2.77211
-3.11435
-3.3436
-3.45849
3.47487
3.2786
2.90534
2.38924
1.77255
1.09897
0.408734
-0.264143
-0.892762
-1.45699
-1.94246
-2.33939
-2.6414
-2.84454
-2.94661
2.87867
2.72278
2.42467
2.00905
1.50732
0.953117
0.378639
-0.187682
-0.722288
-1.20663
-1.62676
-1.97257
-2.23707
-2.41566
-2.50559
2.3907
2.26568
2.02558
1.68863
1.27852
0.821334
0.342877
-0.133244
-0.586708