/*--------------------------------*- C++ -*----------------------------------*\
| =========                 |                                                 |
| \\      /  F ield         | OpenFOAM: The Open Source CFD Toolbox           |
|  \\    /   O peration     | Version:  5.x                                   |
|   \\  /    A nd           | Web:      www.OpenFOAM.org                      |
|    \\/     M anipulation  |                                                 |
\*---------------------------------------------------------------------------*/
FoamFile
{
    version     2.0;
    format      ascii;
    class       volScalarField;
    location    "8.4";
    object      gradTx;
}
// * * * * * * * * * * * * * * * * * * * * * * * * * * * * * * * * * * * * * //

dimensions      [0 -1 0 1 0 0 0];

internalField   nonuniform List<scalar> 
2048
(
0.0077344
0.022967
0.0375132
0.0509864
0.0630931
0.0736477
0.0825708
0.0898746
0.09564
0.099992
0.103077
0.105046
0.106046
0.106213
0.105675
0.104553
0.102964
0.101015
0.0988095
0.0964357
0.0939689
0.091467
0.0889704
0.0865038
0.0840791
0.0816984
0.0793569
0.0770452
0.0747496
0.0724531
0.070136
0.0677776
0.0653578
0.0628594
0.0602698
0.0575814
0.0547907
0.0518963
0.0488967
0.0457878
0.0425617
0.0392072
0.0357112
0.0320625
0.0282551
0.0242922
0.02019
0.0159801
0.0117117
0.0074517
0.00328507
-0.000687242
-0.00435147
-0.00758636
-0.0102707
-0.0122931
-0.0135623
-0.0140185
-0.0136418
-0.012458
-0.0105393
-0.00800109
-0.00499453
-0.00169752
0.0230604
0.0684644
0.111787
0.151859
0.187804
0.219072
0.245441
0.266966
0.283906
0.296651
0.305646
0.311347
0.314189
0.314576
0.312886
0.309475
0.304685
0.298842
0.292246
0.285167
0.277826
0.270396
0.262996
0.255694
0.248524
0.24149
0.234576
0.227753
0.220981
0.214208
0.207375
0.20042
0.19328
0.185905
0.178256
0.170311
0.162062
0.153507
0.144643
0.135458
0.125931
0.116024
0.105699
0.0949173
0.0836588
0.0719301
0.0597767
0.0472908
0.0346166
0.0219528
0.00955167
-0.00228564
-0.0132184
-0.0228818
-0.0309098
-0.0369637
-0.0407654
-0.0421305
-0.0409958
-0.0374365
-0.031669
-0.0240404
-0.0150052
-0.0050993
0.0382588
0.113547
0.18527
0.251444
0.310597
0.361841
0.404852
0.439779
0.467113
0.487545
0.501848
0.510789
0.515086
0.515398
0.512336
0.506478
0.498382
0.488585
0.477589
0.465841
0.453711
0.441479
0.429335
0.417386
0.405675
0.394203
0.382938
0.371832
0.360818
0.349809
0.338707
0.327401
0.315788
0.303777
0.291307
0.278342
0.264875
0.250909
0.236445
0.221469
0.205941
0.189801
0.172972
0.155386
0.136997
0.117808
0.0978856
0.0773765
0.0565141
0.0356233
0.0151199
-0.00449614
-0.0226553
-0.0387431
-0.0521373
-0.0622569
-0.06862
-0.0709022
-0.0689859
-0.0629913
-0.0532814
-0.0404413
-0.0252376
-0.00857523
0.0536433
0.159123
0.259377
0.351529
0.433491
0.504062
0.562884
0.610287
0.647081
0.674331
0.693178
0.70472
0.709953
0.709772
0.704998
0.696414
0.684785
0.67086
0.655347
0.638879
0.621974
0.60502
0.588266
0.571842
0.55579
0.540093
0.524704
0.509549
0.494536
0.479547
0.464436
0.449044
0.433214
0.416815
0.399757
0.381998
0.363538
0.344397
0.324589
0.304101
0.282879
0.260829
0.237831
0.213768
0.188559
0.162189
0.134737
0.106394
0.0774768
0.0484314
0.0198344
-0.00761417
-0.0331089
-0.0557705
-0.074698
-0.0890389
-0.0980761
-0.101317
-0.0985703
-0.0899962
-0.0761118
-0.0577586
-0.036037
-0.0122427
0.069498
0.206013
0.335368
0.453682
0.558215
0.647494
0.721225
0.780049
0.825215
0.858262
0.880762
0.894161
0.899723
0.898551
0.891645
0.879969
0.864488
0.846168
0.825937
0.804625
0.782911
0.761284
0.740038
0.719309
0.699115
0.679411
0.660121
0.641154
0.622394
0.603688
0.584846
0.565645
0.545867
0.525328
0.503909
0.481567
0.458321
0.434221
0.409311
0.383587
0.35698
0.329354
0.300529
0.270325
0.238604
0.205318
0.170544
0.13451
0.0976081
0.0603999
0.0236209
-0.0118272
-0.0448926
-0.0744107
-0.0991686
-0.118
-0.129906
-0.134185
-0.130544
-0.119176
-0.100768
-0.0764475
-0.0476839
-0.0161964
0.0860948
0.254993
0.414422
0.559339
0.686307
0.793645
0.881265
0.950287
1.00257
1.04025
1.06541
1.07985
1.08509
1.08239
1.07289
1.0577
1.03798
1.01492
0.989692
0.963357
0.936761
0.910493
0.884875
0.860018
0.835891
0.812398
0.789432
0.766886
0.744629
0.722482
0.700199
0.677483
0.654035
0.629606
0.604043
0.577307
0.549454
0.520589
0.490802
0.460111
0.428433
0.395578
0.361288
0.325291
0.28737
0.247426
0.205519
0.161904
0.117041
0.0716021
0.0264772
-0.0172288
-0.0582074
-0.0949837
-0.125992
-0.149695
-0.164751
-0.170191
-0.165584
-0.151148
-0.127763
-0.096887
-0.0604088
-0.0205134
0.103707
0.306839
0.497694
0.669868
0.81918
0.943835
1.04414
1.12193
1.17989
1.2209
1.24764
1.26228
1.26655
1.26179
1.24921
1.23005
1.20564
1.17743
1.14687
1.11529
1.08371
1.05283
1.02298
0.99419
0.96635
0.939291
0.912868
0.886967
0.861463
0.836156
0.810738
0.78482
0.757994
0.729926
0.700421
0.669454
0.637141
0.603671
0.56921
0.533815
0.497388
0.45967
0.420296
0.378874
0.335079
0.288735
0.239873
0.188766
0.135934
0.0821541
0.0284639
-0.0238307
-0.0731564
-0.117702
-0.155499
-0.184573
-0.203154
-0.209931
-0.204286
-0.186452
-0.157536
-0.119393
-0.0743992
-0.0252555
0.122621
0.362355
0.586361
0.78662
0.958166
1.09923
1.21078
1.29567
1.35765
1.40057
1.42775
1.44176
1.44443
1.43712
1.42102
1.39741
1.36781
1.33397
1.29768
1.26057
1.2239
1.18845
1.15453
1.12204
1.09073
1.06033
1.03065
1.00161
0.973095
0.944913
0.916688
0.887903
0.858011
0.826558
0.793295
0.758224
0.721556
0.683603
0.644644
0.6048
0.563956
0.521765
0.47772
0.431267
0.38194
0.32946
0.273817
0.215293
0.154465
0.0922076
0.0296953
-0.0315732
-0.089757
-0.142684
-0.187929
-0.222993
-0.24558
-0.253936
-0.247186
-0.225568
-0.190467
-0.144226
-0.0898015
-0.0304692
0.143146
0.422399
0.681651
0.910966
1.10455
1.26089
1.38193
1.47193
1.53606
1.57933
1.60582
1.61841
1.61896
1.60868
1.58863
1.56009
1.52477
1.48475
1.44225
1.3993
1.35741
1.31748
1.27968
1.24377
1.20927
1.17576
1.14301
1.111
1.0797
1.04894
1.01825
0.986972
0.954347
0.919766
0.88291
0.843823
0.802852
0.760489
0.717176
0.673126
0.628212
0.58197
0.533701
0.482646
0.428151
0.36981
0.307557
0.241685
0.172825
0.101941
0.0303295
-0.0403345
-0.10795
-0.169964
-0.223436
-0.265245
-0.292437
-0.302691
-0.294781
-0.268931
-0.22688
-0.171591
-0.106719
-0.0361849
0.165619
0.487907
0.784881
1.04432
1.25961
1.42974
1.55816
1.65095
1.71511
1.75706
1.78171
1.7922
1.79022
1.77668
1.75234
1.7184
1.67676
1.62995
1.58069
1.53152
1.48431
1.43999
1.39861
1.35961
1.32222
1.28583
1.25017
1.21532
1.18143
1.14838
1.11562
1.08225
1.04726
1.00982
0.969512
0.926444
0.881159
0.8344
0.786837
0.738818
0.690201
0.640366
0.588367
0.533176
0.473901
0.409983
0.341292
0.268137
0.191208
0.111549
0.0305601
-0.0499383
-0.127605
-0.199497
-0.262101
-0.311553
-0.34409
-0.356654
-0.347545
-0.316944
-0.267051
-0.201631
-0.125207
-0.0424146
0.19042
0.559912
0.897478
1.18818
1.42458
1.60664
1.73985
1.83273
1.89454
1.93342
1.95515
1.963
1.95828
1.94133
1.91245
1.87263
1.82403
1.76969
1.71305
1.65725
1.60458
1.55606
1.51146
1.46979
1.42987
1.39081
1.35233
1.31472
1.2784
1.24337
1.20896
1.17397
1.13703
1.097
1.05335
1.00627
0.956591
0.905379
0.853626
0.801863
0.749935
0.697013
0.641829
0.583011
0.519375
0.45017
0.375209
0.294834
0.209804
0.121236
0.0306064
-0.0601619
-0.148528
-0.231167
-0.30393
-0.362084
-0.400863
-0.416267
-0.405944
-0.369988
-0.311203
-0.234425
-0.145264
-0.0491478
0.217974
0.639566
1.021
1.3441
1.60072
1.79233
1.92723
2.01706
2.07389
2.10786
2.12571
2.13058
2.12312
2.10282
2.06925
2.02309
1.96679
1.90411
1.83933
1.77642
1.71819
1.66572
1.61838
1.57456
1.53252
1.49102
1.44974
1.40934
1.3707
1.334
1.29842
1.26234
1.22391
1.1816
1.13468
1.0835
1.02924
0.973443
0.917501
0.86221
0.807398
0.751952
0.694187
0.632302
0.564749
0.490552
0.409481
0.321944
0.22879
0.131205
0.030705
-0.070743
-0.170466
-0.264784
-0.348864
-0.41695
-0.463051
-0.481966
-0.470451
-0.428428
-0.359505
-0.269969
-0.166819
-0.0563475
0.248764
0.728156
1.15716
1.51377
1.78925
1.98743
2.12036
2.20354
2.25245
2.27966
2.29281
2.29465
2.28473
2.26136
2.22308
2.17011
2.10528
2.03329
1.9595
1.88892
1.82506
1.76901
1.71954
1.67421
1.63052
1.58677
1.54262
1.49929
1.45835
1.42033
1.38413
1.34757
1.3082
1.26393
1.21378
1.1583
1.0992
1.03858
0.978387
0.919776
0.862549
0.805212
0.745535
0.681196
0.6102
0.531301
0.44426
0.349613
0.248324
0.141646
0.0311
-0.0813871
-0.193108
-0.300088
-0.396771
-0.476207
-0.53092
-0.554194
-0.541566
-0.492627
-0.412064
-0.308165
-0.189719
-0.0639449
0.283336
0.827122
1.30783
1.69896
1.99141
2.19245
2.31911
2.39155
2.42935
2.44792
2.45581
2.45488
2.44307
2.41718
2.37434
2.31406
2.23974
2.15734
2.07352
1.99461
1.92505
1.86592
1.81511
1.76902
1.72426
1.67844
1.63121
1.58463
1.54136
1.50236
1.46618
1.42987
1.39019
1.34433
1.29092
1.23087
1.16654
1.10074
1.03617
0.974436
0.915325
0.85681
0.795961
0.729841
0.655905
0.572577
0.479676
0.377958
0.268534
0.152731
0.0320342
-0.0917746
-0.216092
-0.336752
-0.447452
-0.539856
-0.604703
-0.63341
-0.619832
-0.562955
-0.46892
-0.348802
-0.213713
-0.071834
0.322316
0.93807
1.47509
1.90158
2.20835
2.40774
2.52319
2.5803
2.60349
2.61159
2.61395
2.61091
2.59813
2.57057
2.52349
2.45534
2.37041
2.27634
2.18128
2.09326
2.01797
1.95643
1.90528
1.85935
1.81418
1.76648
1.71576
1.66538
1.61962
1.58008
1.54469
1.50945
1.4702
1.42316
1.36642
1.30136
1.23131
1.15988
1.09069
1.02603
0.965642
0.906759
0.845551
0.778385
0.702045
0.614529
0.515829
0.407062
0.289517
0.164604
0.0337399
-0.101568
-0.239009
-0.374381
-0.500639
-0.607841
-0.684598
-0.72009
-0.705867
-0.63981
-0.530029
-0.39153
-0.238439
-0.0798667
0.36642
1.06279
1.66116
2.12364
2.44121
2.63346
2.73214
2.76881
2.77358
2.76946
2.76646
2.76242
2.74991
2.72186
2.6711
2.59441
2.49753
2.39037
2.28267
2.18459
2.10357
2.04054
1.99027
1.94556
1.90075
1.85137
1.79653
1.74151
1.693
1.65342
1.61974
1.58649
1.54855
1.50084
1.44058
1.36996
1.29357
1.21591
1.14176
1.07437
1.01341
0.955079
0.894387
0.82698
0.748816
0.657298
0.552789
0.436976
0.311332
0.177372
0.0364292
-0.110422
-0.261405
-0.412511
-0.555999
-0.680043
-0.770748
-0.814728
-0.800389
-0.723638
-0.595253
-0.435837
-0.263404
-0.087849
0.416484
1.20324
1.86848
2.36732
2.69098
2.86954
2.94537
2.95598
2.93815
2.92019
2.91252
2.90913
2.89841
2.87145
2.81787
2.73176
2.62131
2.49952
2.37754
2.26823
2.18154
2.11821
2.07034
2.02801
1.98454
1.93374
1.87382
1.8129
1.76125
1.72228
1.69141
1.66118
1.62559
1.57785
1.51374
1.43682
1.35339
1.26873
1.18913
1.11921
1.05852
1.0018
0.942545
0.875782
0.796435
0.701012
0.590583
0.467713
0.333999
0.191099
0.0402857
-0.117988
-0.282788
-0.450613
-0.613134
-0.756288
-0.863227
-0.91783
-0.904268
-0.81496
-0.66433
-0.481018
-0.287978
-0.0955393
0.473495
1.36158
2.09964
2.63499
2.95853
3.11561
3.16217
3.14059
3.09555
3.06228
3.05134
3.05089
3.04362
3.01976
2.96465
2.86793
2.74191
2.60395
2.46575
2.34375
2.25149
2.18942
2.14581
2.10709
2.0661
2.01431
1.94792
1.87934
1.824
1.78653
1.75983
1.73367
1.70167
1.65473
1.58623
1.50204
1.41084
1.31825
1.23252
1.16027
1.10088
1.04699
0.990086
0.924944
0.845156
0.745787
0.62919
0.499257
0.357496
0.205798
0.0454557
-0.123924
-0.302629
-0.48809
-0.671591
-0.836352
-0.962003
-1.02989
-1.01857
-0.914409
-0.736844
-0.526143
-0.311384
-0.102651
0.538666
1.54013
2.35735
2.92925
3.24447
3.3709
3.3818
3.32137
3.24393
3.19413
3.1822
3.18767
3.18549
3.16724
3.11253
3.00344
2.85941
2.70384
2.54718
2.41059
2.31291
2.25419
2.2171
2.18313
2.14606
2.09401
2.01918
1.94048
1.88077
1.84602
1.82516
1.80405
1.77712
1.73215
1.6584
1.56568
1.46602
1.36437
1.27159
1.1972
1.14039
1.09074
1.03704
0.97461
0.895293
0.791725
0.668527
0.531567
0.38177
0.221423
0.0520407
-0.127908
-0.320373
-0.524274
-0.730873
-0.919978
-1.0669
-1.15137
-1.14466
-1.02277
-0.812174
-0.570026
-0.332701
-0.108856
0.613532
1.74133
2.64435
3.25309
3.54913
3.63413
3.60363
3.49706
3.38126
3.31395
3.30446
3.31974
3.3238
3.3143
3.26294
3.13879
2.97367
2.79956
2.62172
2.46807
2.3652
2.31255
2.28476
2.25635
2.225
2.17398
2.08796
1.9958
1.93094
1.90062
1.88767
1.87231
1.85226
1.81094
1.73054
1.62769
1.51913
1.40701
1.3059
1.22962
1.177
1.13326
1.0834
1.0249
0.947252
0.838905
0.708424
0.564591
0.406732
0.237865
0.0600914
-0.129641
-0.335443
-0.558421
-0.790446
-1.00691
-1.17752
-1.28261
-1.28428
-1.14106
-0.889421
-0.611189
-0.350881
-0.113803
0.700135
1.96772
2.9633
3.61005
3.87237
3.90331
3.82726
3.66646
3.50524
3.41979
3.41762
3.44773
3.45812
3.46126
3.41778
3.27443
3.0843
2.89165
2.68935
2.51537
2.40762
2.36459
2.34955
2.32682
2.30346
2.25575
2.15467
2.04458
1.9737
1.95021
1.94781
1.9383
1.92734
1.8922
1.80293
1.68786
1.57046
1.44612
1.33497
1.25705
1.21067
1.17485
1.12903
1.07589
1.00159
0.887375
0.748601
0.598299
0.432273
0.25494
0.0696047
-0.128862
-0.34725
-0.5897
-0.849759
-1.09698
-1.2932
-1.42374
-1.43969
-1.27057
-0.967306
-0.647838
-0.364778
-0.117126
0.801298
2.22181
3.31653
4.00455
4.21347
4.17552
4.05282
3.82851
3.61333
3.50949
3.52137
3.57285
3.58757
3.60824
3.57966
3.4106
3.19045
2.98105
2.75011
2.55143
2.43924
2.41049
2.41257
2.39429
2.38186
2.34132
2.21971
2.08581
2.00803
1.99472
2.00631
2.0016
2.00248
1.9774
1.87573
1.74572
1.6205
1.4817
1.35817
1.27892
1.24141
1.21601
1.17369
1.12759
1.05907
0.937125
0.788621
0.632711
0.458266
0.272381
0.0805235
-0.125356
-0.355206
-0.617168
-0.908245
-1.19014
-1.41289
-1.57454
-1.61388
-1.41295
-1.04402
-0.677846
-0.373195
-0.118477
0.921059
2.50599
3.70574
4.44238
4.57086
4.44654
4.28137
3.98232
3.70261
3.58063
3.61558
3.69715
3.7106
3.75501
3.75222
3.54727
3.29059
3.06926
2.80413
2.57499
2.45892
2.45049
2.47541
2.45808
2.46038
2.4334
2.28345
2.11814
2.03272
2.03413
2.06432
2.06143
2.07762
2.06855
1.94893
1.80044
1.67008
1.51379
1.37477
1.29456
1.26928
1.25751
1.21687
1.17986
1.1208
0.988064
0.827832
0.667968
0.484573
0.28982
0.0927433
-0.118966
-0.358747
-0.639747
-0.965327
-1.2867
-1.53507
-1.73419
-1.81083
-1.57035
-1.11703
-0.698761
-0.374954
-0.117547
1.06532
2.82228
4.13147
4.93138
4.94186
4.71042
4.51541
4.12717
3.76976
3.63051
3.70028
3.82388
3.82468
3.90082
3.94061
3.68396
3.38226
3.15867
2.85163
2.58444
2.46529
2.48488
2.54039
2.5168
2.53885
2.53568
2.34619
2.13982
2.04628
2.0685
2.12361
2.11644
2.15239
2.16851
2.02226
1.85067
1.72049
1.54248
1.38384
1.30317
1.29437
1.30053
1.25775
1.2324
1.18835
1.03996
0.86529
0.704408
0.511049
0.30677
0.106126
-0.109604
-0.357361
-0.656177
-1.02039
-1.38748
-1.65759
-1.90102
-2.03582
-1.74546
-1.18279
-0.707836
-0.368982
-0.114101
1.24278
3.17208
4.59243
5.48246
5.32221
4.95891
4.75964
4.26242
3.8109
3.65611
3.77558
3.95806
3.9258
4.04411
4.15211
3.81942
3.46167
3.253
2.89284
2.57783
2.45672
2.51397
2.61089
2.56814
2.61657
2.65318
2.40797
2.14862
2.04702
2.09788
2.1869
2.16448
2.22599
2.28126
2.09508
1.89434
1.77375
1.56788
1.38427
1.30381
1.31678
1.34685
1.29501
1.28462
1.26398
1.09237
0.899658
0.742694
0.537526
0.3226
0.120523
-0.0972601
-0.350631
-0.664967
-1.07274
-1.49409
-1.77757
-2.07204
-2.29591
-1.94171
-1.23639
-0.702123
-0.354415
-0.108008
1.46627
3.55579
5.0845
6.11099
5.70555
5.18068
5.022
4.38735
3.82154
3.65408
3.8415
4.10714
4.00793
4.18212
4.39697
3.95139
3.52319
3.35786
2.92788
2.55276
2.43128
2.53796
2.69182
2.60841
2.69202
2.7928
2.46842
2.14178
2.03298
2.12229
2.2582
2.20231
2.29698
2.41243
2.16611
1.92835
1.83293
1.59001
1.37472
1.29539
1.33656
1.39907
1.32663
1.33555
1.3509
1.14453
0.92907
0.78397
0.563792
0.336499
0.135814
-0.0820099
-0.338295
-0.664333
-1.12147
-1.60936
-1.89123
-2.24239
-2.60052
-2.16331
-1.2711
-0.678619
-0.330712
-0.0992658
1.75451
3.9723
5.59946
6.83864
6.08269
5.36038
5.31496
4.50072
3.79651
3.62075
3.89762
4.28195
4.06231
4.3105
4.68951
4.07604
3.55878
3.48153
2.95654
2.50637
2.38678
2.55672
2.79018
2.63216
2.76266
2.9639
2.52642
2.11599
2.00205
2.14151
2.34333
2.22518
2.36303
2.56985
2.23329
1.94829
1.90257
1.60874
1.35356
1.27668
1.35359
1.46095
1.34968
1.3837
1.45363
1.19522
0.950979
0.830083
0.589544
0.347442
0.151956
-0.0640214
-0.320326
-0.65213
-1.16535
-1.73779
-1.99378
-2.40467
-2.96212
-2.41545
-1.27779
-0.634518
-0.29777
-0.0880176
2.13454
4.41834
6.12326
7.69576
6.44061
5.47749
5.65727
4.60024
3.72985
3.55229
3.9426
4.49795
4.07648
4.42269
5.04949
4.18747
3.55724
3.63598
2.9779
2.43527
2.32081
2.56953
2.9159
2.63154
2.82449
3.17916
2.5797
2.06735
1.95198
2.15486
2.45062
2.22636
2.42061
2.76432
2.29336
1.94801
1.98922
1.62352
1.31892
1.24637
1.36742
1.53779
1.35997
1.42683
1.57842
1.24255
0.961962
0.883856
0.614299
0.354141
0.169053
-0.0435546
-0.297033
-0.625787
-1.20251
-1.88619
-2.07932
-2.54799
-3.39716
-2.70433
-1.24422
-0.567561
-0.256022
-0.0745562
2.64474
4.88768
6.63394
8.72446
6.76129
5.50498
6.07605
4.6816
3.61487
3.44484
3.97341
4.77672
4.03328
4.50923
5.50381
4.27689
3.50335
3.83816
2.98979
2.33563
2.23088
2.57456
3.08274
2.59566
2.87166
3.45554
2.62421
1.99149
1.88058
2.16075
2.59166
2.19654
2.46463
3.01052
2.34152
1.91916
2.10217
1.63315
1.26863
1.20306
1.37699
1.63702
1.35173
1.46182
1.7338
1.28373
0.957499
0.949436
0.637281
0.355001
0.18744
-0.0209569
-0.269189
-0.582257
-1.23014
-2.06436
-2.14074
-2.65691
-3.92718
-3.0373
-1.15419
-0.476537
-0.206503
-0.0593118
3.33858
5.37007
7.09902
9.98222
7.02016
5.40772
6.6094
4.73725
3.44431
3.29487
3.9843
5.14787
3.90953
4.55692
6.08844
4.33174
3.37689
4.11149
2.98802
2.20321
2.11457
2.56825
3.30958
2.50977
2.89596
3.81552
2.65335
1.88367
1.78585
2.1562
2.78238
2.12319
2.48794
3.32809
2.3709
1.85066
2.25427
1.63529
1.20034
1.14546
1.38033
1.76878
1.31713
1.48434
1.93119
1.31474
0.931724
1.03271
0.657241
0.348071
0.207786
0.00334956
-0.238174
-0.51799
-1.24395
-2.28596
-2.16973
-2.71007
-4.58005
-3.42285
-0.986594
-0.361935
-0.150863
-0.0428221
4.28929
5.85007
7.4724
11.5463
7.18427
5.14074
7.30945
4.75466
3.21051
3.09958
3.9654
5.65128
3.67461
4.54787
6.85079
4.33463
3.15151
4.48774
2.9654
2.03354
1.96982
2.54443
3.62178
2.35431
2.88622
4.28845
2.65695
1.73903
1.66633
2.13603
3.04422
1.98975
2.48084
3.74288
2.37198
1.72803
2.46293
1.62595
1.11153
1.07247
1.37404
1.94672
1.24578
1.48859
2.1857
1.32997
0.877157
1.1418
0.672233
0.331005
0.231212
0.0288895
-0.206144
-0.428946
-1.23762
-2.56947
-2.15686
-2.6787
-5.3915
-3.87061
-0.714328
-0.226775
-0.0913056
-0.0256875
5.59516
6.3056
7.69085
13.519
7.21013
4.64731
8.24593
4.71418
2.90591
2.85762
3.90096
6.33974
3.28885
4.45839
7.85225
4.26203
2.79355
5.00914
2.91039
1.8222
1.79531
2.49324
4.05288
2.10392
2.8277
4.91221
2.62005
1.55294
1.52137
2.09195
3.40557
1.77476
2.43048
4.28839
2.33193
1.53282
2.75134
1.5988
0.999743
0.983419
1.35269
2.18888
1.1242
1.46697
2.51686
1.32175
0.784419
1.28763
0.679317
0.301039
0.259413
0.0551651
-0.176203
-0.31067
-1.20198
-2.93919
-2.09171
-2.52483
-6.40681
-4.39123
-0.303095
-0.0776209
-0.0304213
-0.00851471
)
;

boundaryField
{
    left
    {
        type            calculated;
        value           uniform 0;
    }
    right
    {
        type            calculated;
        value           uniform 0;
    }
    interface
    {
        type            calculated;
        value           nonuniform List<scalar> 
64
(
5.59516
6.3056
7.69085
13.519
7.21013
4.64731
8.24593
4.71418
2.90591
2.85762
3.90096
6.33974
3.28885
4.45839
7.85225
4.26203
2.79355
5.00914
2.91039
1.8222
1.79531
2.49324
4.05288
2.10392
2.8277
4.91221
2.62005
1.55294
1.52137
2.09195
3.40557
1.77476
2.43048
4.28839
2.33193
1.53282
2.75134
1.5988
0.999743
0.983419
1.35269
2.18888
1.1242
1.46697
2.51686
1.32175
0.784419
1.28763
0.679317
0.301039
0.259413
0.0551651
-0.176203
-0.31067
-1.20198
-2.93919
-2.09171
-2.52483
-6.40681
-4.39123
-0.303095
-0.0776209
-0.0304213
-0.00851471
)
;
    }
    bottom
    {
        type            calculated;
        value           nonuniform List<scalar> 
64
(
0.0077344
0.022967
0.0375132
0.0509864
0.0630931
0.0736477
0.0825708
0.0898746
0.09564
0.099992
0.103077
0.105046
0.106046
0.106213
0.105675
0.104553
0.102964
0.101015
0.0988095
0.0964357
0.0939689
0.091467
0.0889704
0.0865038
0.0840791
0.0816984
0.0793569
0.0770452
0.0747496
0.0724531
0.070136
0.0677776
0.0653578
0.0628594
0.0602698
0.0575814
0.0547907
0.0518963
0.0488967
0.0457878
0.0425617
0.0392072
0.0357112
0.0320625
0.0282551
0.0242922
0.02019
0.0159801
0.0117117
0.0074517
0.00328507
-0.000687242
-0.00435147
-0.00758636
-0.0102707
-0.0122931
-0.0135623
-0.0140185
-0.0136418
-0.012458
-0.0105393
-0.00800109
-0.00499453
-0.00169752
)
;
    }
    defaultFaces
    {
        type            empty;
    }
}


// ************************************************************************* //
