/*--------------------------------*- C++ -*----------------------------------*\
| =========                 |                                                 |
| \\      /  F ield         | OpenFOAM: The Open Source CFD Toolbox           |
|  \\    /   O peration     | Version:  5.x                                   |
|   \\  /    A nd           | Web:      www.OpenFOAM.org                      |
|    \\/     M anipulation  |                                                 |
\*---------------------------------------------------------------------------*/
FoamFile
{
    version     2.0;
    format      ascii;
    class       volScalarField;
    location    "15.7";
    object      gradTx;
}
// * * * * * * * * * * * * * * * * * * * * * * * * * * * * * * * * * * * * * //

dimensions      [0 -1 0 1 0 0 0];

internalField   nonuniform List<scalar> 
6300
(
-2.02661
-1.76551
-1.24687
-0.478187
0.528481
1.75561
3.17915
4.76753
6.48094
8.27117
10.0824
11.8531
13.5197
15.0206
16.3014
-2.28817
-2.0235
-1.49738
-0.716641
0.307551
1.55872
3.01382
4.64201
6.40363
8.24966
10.1223
11.9568
13.6849
15.2401
16.5632
-2.81483
-2.54336
-2.00293
-1.199
-0.140804
1.15743
2.67492
4.38259
6.24139
8.20103
10.1998
12.1663
14.0226
15.6911
17.1023
-3.61343
-3.33264
-2.77243
-1.93608
-0.829664
0.536403
2.14535
3.97154
5.97778
8.1127
10.3093
12.4853
14.5474
16.3989
17.9515
-4.69325
-4.40175
-3.81853
-2.94368
-1.77863
-0.327963
1.39804
3.37996
5.58498
7.96221
10.4387
12.9177
15.2822
17.4049
19.1662
-6.06501
-5.76302
-5.15672
-4.24191
-3.01365
-1.46813
0.394332
2.56479
5.01947
7.71195
10.565
13.4642
16.2583
18.7719
20.8324
-7.73918
-7.42904
-6.80383
-5.85402
-4.5664
-2.92571
-0.917846
1.46492
4.21563
7.30065
10.6446
14.115
17.5145
20.5914
23.0823
-9.7239
-9.41055
-8.77595
-7.80439
-6.47263
-4.75092
-2.6054
-0.00336401
3.07698
6.6299
10.5972
14.8364
19.0926
22.9962
26.1221
-12.0224
-11.7137
-11.0854
-10.1154
-8.76926
-7.00036
-4.74992
-1.95043
1.46526
5.5443
10.2773
15.5403
21.0227
26.1782
30.284
-14.6299
-14.3368
-13.7371
-12.8028
-11.4891
-9.73178
-7.44392
-4.51416
-0.810294
3.80428
9.42684
16.0242
23.2793
30.4092
36.1317
-17.531
-17.2669
-16.7239
-15.8699
-14.6529
-12.9942
-10.7802
-7.85244
-3.997
1.05578
7.60107
15.85
25.6603
36.0469
44.6921
-20.6964
-20.4764
-20.0218
-19.3006
-18.2589
-16.8121
-14.8308
-12.1188
-8.38148
-3.18569
4.07118
14.1137
27.4645
43.4251
58.0203
-24.082
-23.921
-23.5867
-23.052
-22.2703
-21.1649
-19.6124
-17.4108
-14.2249
-9.48869
-2.24484
9.0683
26.6582
52.1677
80.7761
-27.629
-27.5392
-27.3521
-27.0509
-26.6056
-25.9653
-25.0433
-23.6874
-21.6188
-18.2998
-12.6306
-2.25449
17.9314
57.8105
125.362
-31.2661
-31.2551
-31.2319
-31.1941
-31.1361
-31.0478
-30.9085
-30.6768
-30.2637
-29.4613
-27.7239
-23.3876
-10.4894
35.7796
231.749
17.2564
17.9049
18.3459
18.5799
18.6144
18.4625
18.1415
17.6705
17.0697
16.3588
15.5563
14.6789
13.7413
12.7563
11.7345
10.6852
9.61596
8.53325
7.4425
6.3483
5.25456
4.16462
3.08132
2.00708
0.943927
-0.106442
-1.14266
-2.16366
-3.16869
-4.15723
-5.12905
-6.08412
-7.02259
-7.94473
-8.85085
-9.74122
-10.616
-11.4754
-12.319
-13.1469
-13.9584
-14.7533
-15.5311
-16.2916
-17.0348
-17.7609
-18.4703
-19.1638
-19.8423
-20.5064
-21.1571
-21.7947
-22.4193
-23.0307
-23.6281
-24.2105
-24.7764
-25.3243
-25.8528
-26.3603
-26.8457
-27.3077
-27.7455
-28.1581
-28.5442
-28.9023
-29.2303
-29.5252
-29.7836
-30.0007
-30.1717
-30.2908
-30.3522
-30.3503
-30.2798
-30.1363
-29.9163
-29.6175
-29.2391
-28.7813
-28.246
-27.6365
-26.9572
-26.2141
-25.4144
-24.5667
-23.6807
-22.7673
-21.838
-20.9045
17.544
18.2032
18.6434
18.8665
18.8821
18.7058
18.3569
17.8569
17.2277
16.4903
15.6637
14.7652
13.8093
12.8087
11.7739
10.7136
9.63508
8.54457
7.44722
6.34741
5.24889
4.15487
3.06811
1.99096
0.925392
-0.126927
-1.16466
-2.18675
-3.19247
-4.18135
-5.15318
-6.10802
-7.0461
-7.96779
-8.87348
-9.76356
-10.6383
-11.4978
-12.3418
-13.1702
-13.9823
-14.7777
-15.5559
-16.3164
-17.0593
-17.7846
-18.4931
-19.1854
-19.8626
-20.5257
-21.1756
-21.813
-22.4381
-23.0505
-23.6495
-24.2339
-24.802
-25.3521
-25.8826
-26.392
-26.8789
-27.3423
-27.7815
-28.1958
-28.5841
-28.9453
-29.2774
-29.5777
-29.8424
-30.067
-30.246
-30.3734
-30.443
-30.4486
-30.3846
-30.2461
-30.0293
-29.732
-29.3529
-28.8925
-28.3527
-27.7366
-27.0487
-26.2952
-25.4832
-24.6215
-23.72
-22.79
-21.8435
-20.8931
18.1363
18.8163
19.2531
19.4515
19.4259
19.1969
18.7893
18.229
17.5413
16.7496
15.8745
14.9336
13.9415
12.9102
11.8496
10.7678
9.67124
8.56551
7.45525
6.34445
5.23654
4.1345
3.04092
1.95801
0.887659
-0.168527
-1.20925
-2.2335
-3.24057
-4.23004
-5.20182
-6.15607
-7.09322
-8.01384
-8.91855
-9.80796
-10.6825
-11.5423
-12.3871
-13.2167
-14.0302
-14.8268
-15.6058
-16.3665
-17.1087
-17.8326
-18.5388
-19.2285
-19.903
-20.5637
-21.2121
-21.849
-22.4749
-23.0895
-23.6918
-24.2803
-24.8531
-25.4079
-25.9427
-26.4557
-26.9456
-27.4116
-27.8532
-28.2704
-28.6629
-29.0299
-29.3701
-29.6809
-29.9587
-30.1985
-30.3942
-30.539
-30.6256
-30.6469
-30.5963
-30.4681
-30.2582
-29.9637
-29.5834
-29.1178
-28.5688
-27.9395
-27.2347
-26.4601
-25.6233
-24.7331
-23.8
-22.8361
-21.8545
-20.8692
19.0693
19.7791
20.2053
20.3587
20.2618
19.9448
19.441
18.7839
18.0042
17.1287
16.1797
15.1753
14.1295
13.0535
11.9557
10.8429
9.72033
8.59269
7.46381
6.33709
5.21552
4.10178
2.99819
1.90681
0.829407
-0.232501
-1.27766
-2.30507
-3.31405
-4.30426
-5.2757
-6.22876
-7.16413
-8.08275
-8.98563
-9.87374
-10.7478
-11.6081
-12.4545
-13.2862
-14.1023
-14.9013
-15.6819
-16.4431
-17.1844
-17.9058
-18.6082
-19.2933
-19.9629
-20.6193
-21.2647
-21.9005
-22.5277
-23.1458
-23.7537
-24.3493
-24.9298
-25.4922
-26.0338
-26.5523
-27.0463
-27.5154
-27.9598
-28.3804
-28.7779
-29.1528
-29.5047
-29.8314
-30.1294
-30.3931
-30.6154
-30.788
-30.9019
-30.9484
-30.9192
-30.8076
-30.6084
-30.3184
-29.9365
-29.463
-28.9
-28.251
-27.5205
-26.7144
-25.84
-24.9062
-23.9242
-22.9073
-21.8706
-20.8303
20.4036
21.1496
21.5498
21.6257
21.4142
20.9609
20.3131
19.5149
18.6046
17.613
16.5643
15.476
14.3609
13.2279
12.0832
10.9315
9.77653
8.62141
7.46903
6.32207
5.18305
4.05424
2.93773
1.83534
0.748718
-0.320708
-1.3717
-2.40324
-3.41463
-4.40553
-5.37608
-6.32692
-7.25916
-8.17428
-9.07394
-9.95972
-10.8328
-11.6939
-12.5427
-13.3782
-14.1987
-15.002
-15.7858
-16.5484
-17.2885
-18.0061
-18.7026
-19.38
-20.0415
-20.6907
-21.3308
-21.9645
-22.5931
-23.2166
-23.8331
-24.4397
-25.0322
-25.6062
-26.1578
-26.6838
-27.1828
-27.6545
-28.1005
-28.5231
-28.925
-29.3087
-29.675
-30.023
-30.3491
-30.6469
-30.9077
-31.121
-31.275
-31.3584
-31.3605
-31.2728
-31.0889
-30.8054
-30.4209
-29.9366
-29.3548
-28.6794
-27.915
-27.0668
-26.1417
-25.1484
-24.0984
-23.0067
-21.8913
-20.7725
22.234
23.0174
23.361
23.3059
22.9143
22.2568
21.4013
20.407
19.3213
18.1793
17.0054
15.8151
14.6178
13.4186
12.2204
11.0246
9.83265
8.64592
7.46619
6.29543
5.13566
3.98884
2.85676
1.74104
0.643142
-0.435569
-1.49383
-2.53051
-3.54475
-4.53614
-5.50486
-6.45186
-7.37882
-8.28805
-9.1822
-10.0639
-10.9352
-11.7973
-12.65
-13.4918
-14.3199
-15.1306
-15.9203
-16.6857
-17.4247
-18.1369
-18.824
-19.4894
-20.1378
-20.7749
-21.4059
-22.0354
-22.6657
-23.297
-23.9267
-24.5501
-25.1608
-25.7522
-26.3182
-26.8541
-27.358
-27.8305
-28.2745
-28.6951
-29.0982
-29.4891
-29.8715
-30.2459
-30.6091
-30.9537
-31.2683
-31.5388
-31.7495
-31.8849
-31.9308
-31.876
-31.7127
-31.4372
-31.0489
-30.55
-29.9441
-29.2358
-28.4296
-27.5297
-26.5414
-25.4718
-24.3324
-23.1399
-21.9168
-20.6896
24.7075
25.5178
25.7458
25.4701
24.797
23.8371
22.6887
21.4302
20.1187
18.7913
17.4695
16.1638
14.8769
13.6078
12.3537
11.112
9.88095
8.66011
7.45022
6.25274
5.06943
3.90203
2.75208
1.62093
0.509819
-0.579982
-1.64711
-2.69015
-3.70784
-4.69941
-5.66494
-6.60565
-7.524
-8.4235
-9.30838
-10.1829
-11.0507
-11.914
-12.7729
-13.625
-14.4658
-15.2895
-16.0896
-16.8608
-17.5992
-18.3037
-18.9766
-19.623
-20.2503
-20.8675
-21.4832
-22.1048
-22.7367
-23.3794
-24.0292
-24.6784
-25.3171
-25.9347
-26.5214
-27.0703
-27.5783
-28.0469
-28.4818
-28.8922
-29.2886
-29.6815
-30.0789
-30.4844
-30.8956
-31.3032
-31.692
-32.0424
-32.3323
-32.5399
-32.6458
-32.6349
-32.4979
-32.2311
-31.8359
-31.3169
-30.6806
-29.933
-29.0785
-28.1196
-27.0576
-25.8956
-24.6426
-23.317
-21.9478
-20.5725
28.0542
28.8561
28.8555
28.206
27.0924
25.6885
24.1341
22.5296
20.9384
19.3945
17.9104
16.4849
15.1101
13.7749
12.4689
11.1838
9.91426
8.6583
7.41617
6.18945
4.98012
3.78993
2.62019
1.47184
0.345702
-0.757143
-1.83515
-2.88634
-3.90858
-4.90021
-5.86078
-6.79165
-7.69629
-8.58
-9.4494
-10.3115
-11.1727
-12.0371
-12.9055
-13.7744
-14.6364
-15.482
-16.3006
-17.0829
-17.8222
-18.516
-19.1672
-19.7837
-20.3773
-20.9619
-21.5518
-22.1591
-22.7919
-23.4515
-24.1321
-24.8215
-25.5036
-26.1612
-26.7788
-27.3451
-27.8551
-28.3116
-28.7243
-29.1089
-29.4837
-29.8671
-30.2745
-30.7146
-31.1868
-31.6794
-32.1708
-32.6326
-33.0332
-33.341
-33.5285
-33.5751
-33.4695
-33.2095
-32.8006
-32.2526
-31.577
-30.7836
-29.8776
-28.8578
-27.7175
-26.4501
-25.0572
-23.5564
-21.9873
-20.407
32.6496
33.3495
32.8993
31.6095
29.8056
27.7561
25.6514
23.6092
21.6898
19.9115
18.2662
16.7329
15.2858
13.8998
12.5539
11.2328
9.92779
8.63635
7.35972
6.10095
4.86307
3.64822
2.45737
1.29063
0.147948
-0.970145
-2.0619
-3.12428
-4.15344
-5.14577
-6.09938
-7.01543
-7.89869
-8.75709
-9.60086
-10.4414
-11.2899
-12.1544
-13.0374
-13.9334
-14.8306
-15.7131
-16.5638
-17.3669
-18.1105
-18.7895
-19.4077
-19.9773
-20.5169
-21.0486
-21.595
-22.1767
-22.8082
-23.4932
-24.2222
-24.9749
-25.725
-26.4451
-27.1099
-27.7007
-28.2088
-28.6387
-29.0071
-29.3395
-29.6661
-30.018
-30.4224
-30.8981
-31.4484
-32.057
-32.6918
-33.3108
-33.8672
-34.315
-34.6138
-34.7343
-34.663
-34.4021
-33.9652
-33.3718
-32.6428
-31.796
-30.8403
-29.7692
-28.5601
-27.1852
-25.6266
-23.894
-22.0429
-20.1692
39.1397
39.4984
38.1516
35.7524
32.8717
29.903
27.0783
24.5118
22.2378
20.2363
18.4605
16.8564
15.373
13.9667
12.6029
11.2582
9.92158
8.59283
7.27736
5.98217
4.71269
3.47183
2.2597
1.07469
-0.0853147
-1.22116
-2.331
-3.41011
-4.45135
-5.44713
-6.39207
-7.28642
-8.13687
-8.95519
-9.75685
-10.56
-11.3839
-12.245
-13.1503
-14.0907
-15.0458
-15.9898
-16.8954
-17.7363
-18.4916
-19.1506
-19.7179
-20.2138
-20.6678
-21.1137
-21.5871
-22.1224
-22.7471
-23.4713
-24.2779
-25.1316
-25.9896
-26.8082
-27.5472
-28.1749
-28.675
-29.0542
-29.3413
-29.578
-29.812
-30.0927
-30.4675
-30.9741
-31.6255
-32.3964
-33.2355
-34.0785
-34.8572
-35.5032
-35.9554
-36.1692
-36.1291
-35.8479
-35.3548
-34.6858
-33.8778
-32.965
-31.9687
-30.8789
-29.6411
-28.1846
-26.4465
-24.4018
-22.1308
-19.8149
48.7237
48.1022
44.9188
40.588
36.0634
31.8418
28.133
24.9927
22.393
20.2359
18.4072
16.8056
15.3489
13.9719
12.624
11.2717
9.90377
8.52991
7.16557
5.82615
4.5209
3.25388
2.02287
0.822601
-0.353467
-1.50969
-2.6444
-3.75053
-4.81475
-5.8217
-6.7576
-7.62063
-8.42128
-9.17723
-9.91063
-10.6486
-11.4241
-12.2719
-13.2126
-14.2266
-15.277
-16.3218
-17.3198
-18.2287
-19.0114
-19.6432
-20.1307
-20.5106
-20.83
-21.1392
-21.4899
-21.939
-22.5425
-23.3306
-24.2654
-25.2819
-26.3104
-27.2857
-28.1446
-28.8325
-29.3148
-29.6019
-29.7477
-29.8201
-29.8904
-30.0315
-30.3224
-30.8412
-31.6301
-32.6373
-33.773
-34.9387
-36.0378
-36.9702
-37.6397
-37.9693
-37.942
-37.5984
-36.9974
-36.1993
-35.2633
-34.254
-33.2313
-32.2011
-31.0369
-29.589
-27.7074
-25.2352
-22.2831
-19.2502
63.8533
60.3945
53.3376
45.7018
38.8177
33.041
28.3682
24.6944
21.9104
19.7622
18.0265
16.5459
15.2098
13.9347
12.6513
11.3074
9.89416
8.45302
7.01766
5.62069
4.27387
2.98389
1.74162
0.535533
-0.650299
-1.82931
-2.99901
-4.15135
-5.26066
-6.29862
-7.22804
-8.04465
-8.77002
-9.43169
-10.0577
-10.6832
-11.36
-12.165
-13.1694
-14.3099
-15.5161
-16.7211
-17.8723
-18.9028
-19.7483
-20.3435
-20.6983
-20.8941
-21.0067
-21.1044
-21.2508
-21.533
-22.0719
-22.9784
-24.135
-25.4147
-26.7075
-27.9308
-28.9875
-29.786
-30.2354
-30.3529
-30.2594
-30.0646
-29.8665
-29.754
-29.8489
-30.319
-31.3198
-32.6929
-34.267
-35.894
-37.4583
-38.8152
-39.813
-40.283
-40.2097
-39.7191
-38.9234
-37.911
-36.7538
-35.5618
-34.5043
-33.7159
-32.8409
-31.6173
-29.8186
-26.7594
-22.5514
-18.2499
90.1622
77.8668
62.5899
49.7336
39.9775
32.6503
27.1647
23.1147
20.5117
18.6943
17.2782
16.0778
14.9823
13.9094
12.7653
11.4427
9.92451
8.36761
6.8143
5.34286
3.94491
2.64507
1.40819
0.219221
-0.957017
-2.16238
-3.37869
-4.61413
-5.80931
-6.93182
-7.86092
-8.60003
-9.21044
-9.73738
-10.2055
-10.644
-11.1112
-11.7707
-12.9301
-14.2985
-15.7566
-17.1976
-18.5985
-19.8429
-20.8457
-21.3895
-21.4946
-21.3974
-21.2047
-20.9994
-20.816
-20.7572
-21.0717
-22.266
-23.8269
-25.5282
-27.2046
-28.8152
-30.2022
-31.2418
-31.6337
-31.4072
-30.9167
-30.3137
-29.7192
-29.1776
-28.8348
-29.0321
-30.4733
-32.4587
-34.6846
-36.9391
-39.177
-41.177
-42.7459
-43.3786
-43.0777
-42.279
-41.1612
-39.8306
-38.2942
-36.6755
-35.3896
-35.3551
-35.1464
-34.4733
-33.7448
-29.9373
-22.9542
-16.2153
142.309
99.6309
68.3549
49.2997
37.639
29.6069
23.8933
19.4507
17.9814
17.048
16.219
15.4581
14.7222
13.9862
13.136
11.8595
10.0102
8.27674
6.49281
4.95898
3.47447
2.21543
1.00565
-0.115535
-1.22188
-2.47977
-3.73084
-5.13495
-6.46261
-7.84354
-8.76738
-9.34067
-9.77103
-10.1277
-10.396
-10.5633
-10.5855
-10.6563
-12.3895
-14.158
-16.0216
-17.7317
-19.5498
-21.1308
-22.6037
-23.0671
-22.582
-22.0378
-21.4206
-20.8626
-20.2016
-19.4437
-18.8042
-21.0255
-23.3163
-25.6773
-27.7961
-30.0211
-31.9168
-33.63
-33.922
-32.8415
-31.7355
-30.5502
-29.4955
-28.3144
-27.0425
-25.9536
-28.8429
-31.8776
-35.0606
-38.0078
-41.2379
-44.1588
-47.0266
-47.8179
-46.6622
-45.2978
-43.7047
-42.0461
-39.9527
-37.3095
-34.4722
-37.2448
-38.1202
-37.4086
-42.1042
-37.6878
-23.0051
-11.4669
262.809
104.975
56.5208
38.2174
30.0744
23.2247
18.7911
11.5048
14.6792
15.2513
15.0613
14.802
14.4617
14.2271
14.1204
13.1005
9.92911
8.25828
5.81098
4.50392
2.67922
1.71473
0.475449
-0.471724
-1.2686
-2.80702
-3.86264
-5.76587
-7.03921
-9.41345
-10.1786
-10.2871
-10.4377
-10.6451
-10.7317
-10.6916
-9.98966
-7.14805
-11.7979
-13.8807
-16.5072
-18.1103
-20.8424
-22.5741
-25.8151
-26.1106
-23.7542
-22.7829
-21.5512
-20.8737
-19.7266
-17.9595
-12.417
-19.6847
-22.7041
-26.1751
-28.2344
-31.701
-33.8937
-38.0643
-38.1865
-34.312
-32.6682
-30.5983
-29.4536
-27.5815
-24.9866
-17.1461
-27.003
-31.0824
-35.7757
-38.669
-43.7433
-47.2167
-54.297
-55.0602
-50.5467
-48.6453
-46.3421
-44.8874
-42.4023
-38.2226
-25.4762
-41.8661
-43.3787
-32.5572
-63.5846
-60.2213
-18.5274
0.543624
-19.8877
-18.8056
-17.7696
-16.794
-15.8901
-15.0656
-14.3254
-13.6719
-13.1055
-12.6252
-12.2294
-11.9161
-11.6832
-11.529
-11.4522
-19.8587
-18.7593
-17.7089
-16.7222
-15.8104
-14.9811
-14.2386
-13.5847
-13.0191
-12.5406
-12.1468
-11.8355
-11.6043
-11.4514
-11.3753
-19.7985
-18.6638
-17.5842
-16.5753
-15.6481
-14.8096
-14.063
-13.4088
-12.8457
-12.3709
-11.9817
-11.6747
-11.4472
-11.2968
-11.2221
-19.7027
-18.513
-17.3886
-16.3464
-15.397
-14.5461
-13.7949
-13.1418
-12.5835
-12.1158
-11.734
-11.4342
-11.2127
-11.0666
-10.994
-19.5637
-18.2965
-17.1107
-16.0243
-15.0473
-14.1826
-13.4284
-12.7799
-12.2308
-11.7744
-11.4044
-11.1153
-10.9026
-10.7627
-10.6933
-19.3697
-17.9985
-16.733
-15.5928
-14.585
-13.7085
-12.9561
-12.3184
-11.7851
-11.3464
-10.9938
-10.72
-10.5195
-10.3881
-10.323
-19.1023
-17.5945
-16.2301
-15.0284
-13.9915
-13.1099
-12.369
-11.7524
-11.2447
-10.8323
-10.5041
-10.2513
-10.0672
-9.94696
-9.8876
-18.7324
-17.0469
-15.5641
-14.2992
-13.2423
-12.3706
-11.6574
-11.0774
-10.6087
-10.2338
-9.93896
-9.7138
-9.55084
-9.44489
-9.3927
-18.2113
-16.2964
-14.68
-13.3618
-12.3078
-11.4725
-10.8125
-10.2908
-9.87894
-9.55522
-9.30397
-9.11397
-8.97737
-8.88895
-8.84551
-17.4534
-15.2473
-13.4976
-12.1602
-11.1543
-10.3992
-9.82897
-9.39446
-9.06084
-8.80403
-8.60764
-8.46061
-8.35562
-8.28794
-8.25475
-16.2972
-13.7417
-11.9025
-10.6271
-9.74998
-9.14093
-8.70962
-8.39707
-8.16581
-7.99231
-7.86182
-7.76513
-7.69646
-7.65233
-7.63071
-14.4197
-11.5194
-9.74356
-8.69544
-8.07743
-7.70478
-7.47141
-7.31829
-7.21293
-7.13748
-7.08213
-7.04151
-7.01268
-6.9941
-6.98497
-11.1425
-8.17267
-6.85675
-6.33359
-6.15942
-6.12928
-6.15287
-6.19166
-6.23004
-6.26246
-6.28763
-6.30601
-6.31858
-6.32633
-6.33001
-5.00941
-3.17185
-3.17709
-3.62268
-4.0973
-4.49998
-4.81905
-5.06536
-5.25306
-5.39461
-5.49985
-5.57624
-5.62921
-5.66255
-5.67865
7.08015
3.67182
0.942955
-0.882707
-2.10708
-2.95423
-3.55792
-3.9976
-4.32217
-4.56299
-4.74085
-4.86981
-4.95941
-5.01596
-5.04332
-34.6105
-34.6727
-34.8022
-35.0106
-35.3173
-35.7535
-36.3699
-37.2504
-38.5452
-40.5501
-43.9421
-50.6084
-67.132
-121.641
-353.794
-37.6079
-37.7329
-37.9933
-38.4121
-39.0284
-39.9066
-41.1514
-42.9389
-45.5808
-49.6678
-56.4123
-68.5094
-92.246
-141.388
-231.425
-40.5186
-40.6992
-41.0747
-41.6764
-42.5579
-43.8052
-45.5562
-48.0341
-51.613
-56.94
-65.1656
-78.3275
-99.7179
-132.733
-171.58
-43.3041
-43.5302
-43.9991
-44.7467
-45.8333
-47.3543
-49.4561
-52.3649
-56.4313
-62.1994
-70.4908
-82.4311
-99.1168
-120.03
-138.712
-45.9327
-46.1928
-46.7302
-47.5815
-48.8073
-50.5
-52.7958
-55.8917
-60.068
-65.7068
-73.2821
-83.239
-95.5798
-108.876
-118.817
-48.3809
-48.6629
-49.2433
-50.1563
-51.4572
-53.2271
-55.5798
-58.6684
-62.689
-67.8695
-74.4195
-82.3911
-91.3793
-100.051
-105.825
-50.6332
-50.9259
-51.5256
-52.462
-53.7814
-55.5495
-57.8527
-60.7979
-64.5045
-69.0812
-74.57
-80.837
-87.3985
-93.2388
-96.842
-52.6824
-52.9758
-53.5743
-54.5016
-55.7941
-57.5003
-59.6799
-62.3985
-65.7158
-69.6594
-74.18
-79.0782
-83.9186
-87.9799
-90.3613
-54.528
-54.8139
-55.3946
-56.2878
-57.5195
-59.1224
-61.1327
-63.5836
-66.4919
-69.8371
-73.5277
-77.3597
-80.9795
-83.8874
-85.5344
-56.175
-56.4473
-56.998
-57.839
-58.9872
-60.4615
-62.2797
-64.4509
-66.9647
-69.7748
-72.7772
-75.7885
-78.5346
-80.6705
-81.8511
-57.6331
-57.8874
-58.3997
-59.1771
-60.2284
-61.5619
-63.1815
-65.0803
-67.2319
-69.5789
-72.0204
-74.4014
-76.5136
-78.1168
-78.9876
-58.9147
-59.1483
-59.6174
-60.325
-61.2737
-62.4638
-63.8895
-65.5341
-67.3632
-69.3175
-71.3056
-73.2008
-74.846
-76.0716
-76.7288
-60.034
-60.2458
-60.6697
-61.3054
-62.1513
-63.202
-64.4456
-65.8598
-67.4076
-69.0325
-70.6553
-72.1739
-73.4696
-74.4211
-74.9264
-61.0063
-61.1961
-61.5747
-62.1399
-62.8867
-63.8063
-64.8831
-66.0927
-67.3985
-68.7491
-70.0774
-71.3018
-72.3322
-73.0804
-73.4749
-61.8468
-62.0152
-62.3503
-62.8483
-63.5023
-64.3013
-65.2284
-66.2588
-67.3581
-68.4811
-69.5715
-70.5644
-71.3907
-71.9855
-72.2972
-62.5705
-62.7186
-63.0128
-63.4483
-64.0172
-64.7075
-65.5021
-66.3771
-67.3014
-68.2357
-69.1334
-69.9425
-70.61
-71.087
-71.3359
-63.1912
-63.3207
-63.5772
-63.9556
-64.4477
-65.0413
-65.7198
-66.4612
-67.2377
-68.0157
-68.7567
-69.4191
-69.9615
-70.347
-70.5474
-63.7221
-63.8346
-64.0569
-64.384
-64.8077
-65.3162
-65.8939
-66.521
-67.173
-67.8215
-68.4346
-68.9789
-69.4221
-69.7355
-69.898
-64.1749
-64.2721
-64.464
-64.7455
-65.1088
-65.5429
-66.0337
-66.5634
-67.1108
-67.6518
-68.1602
-68.609
-68.9727
-69.2289
-69.3614
-64.5602
-64.6438
-64.8087
-65.0501
-65.3607
-65.7304
-66.1465
-66.5935
-67.053
-67.5048
-67.9271
-68.2983
-68.5978
-68.8082
-68.9168
-64.8875
-64.9592
-65.1004
-65.3067
-65.5715
-65.8857
-66.238
-66.6148
-67.0005
-67.3781
-67.7296
-68.0373
-68.2848
-68.4582
-68.5476
-65.165
-65.2263
-65.3469
-65.5228
-65.748
-66.0145
-66.3124
-66.6299
-66.9538
-67.2696
-67.5626
-67.8182
-68.0232
-68.1666
-68.2404
-65.3999
-65.4522
-65.5549
-65.7045
-65.8958
-66.1215
-66.3732
-66.6406
-66.9125
-67.1769
-67.4214
-67.6342
-67.8045
-67.9233
-67.9844
-65.5986
-65.6431
-65.7304
-65.8575
-66.0196
-66.2106
-66.423
-66.6482
-66.8766
-67.098
-67.3023
-67.4797
-67.6214
-67.7201
-67.7709
-65.7664
-65.8042
-65.8783
-65.986
-66.1233
-66.2848
-66.464
-66.6536
-66.8454
-67.031
-67.2019
-67.35
-67.4681
-67.5503
-67.5925
-65.908
-65.94
-66.0029
-66.0941
-66.2102
-66.3467
-66.4978
-66.6574
-66.8186
-66.9743
-67.1174
-67.2411
-67.3397
-67.4083
-67.4435
-66.0273
-66.0545
-66.1077
-66.1849
-66.2831
-66.3983
-66.5257
-66.6601
-66.7956
-66.9263
-67.0462
-67.1498
-67.2322
-67.2895
-67.3188
-66.1278
-66.1508
-66.1959
-66.2612
-66.3442
-66.4414
-66.5489
-66.662
-66.776
-66.8857
-66.9863
-67.0731
-67.1421
-67.19
-67.2146
-66.2124
-66.2318
-66.2699
-66.3252
-66.3953
-66.4774
-66.568
-66.6634
-66.7593
-66.8515
-66.936
-67.0088
-67.0667
-67.1068
-67.1274
-66.2834
-66.2999
-66.3321
-66.3789
-66.4381
-66.5075
-66.584
-66.6643
-66.7451
-66.8227
-66.8938
-66.955
-67.0035
-67.0372
-67.0545
-66.3431
-66.357
-66.3843
-66.4238
-66.474
-66.5326
-66.5972
-66.665
-66.7331
-66.7986
-66.8584
-66.9098
-66.9507
-66.979
-66.9935
-66.393
-66.4048
-66.428
-66.4614
-66.5039
-66.5535
-66.6082
-66.6655
-66.723
-66.7783
-66.8287
-66.8721
-66.9066
-66.9304
-66.9426
-66.4347
-66.4448
-66.4644
-66.4928
-66.5289
-66.5709
-66.6173
-66.6658
-66.7146
-66.7613
-66.804
-66.8407
-66.8697
-66.8899
-66.9002
-66.4695
-66.4781
-66.4948
-66.519
-66.5496
-66.5854
-66.6248
-66.6661
-66.7075
-66.7471
-66.7833
-66.8145
-66.8391
-66.8562
-66.865
-66.4984
-66.5057
-66.52
-66.5406
-66.5668
-66.5974
-66.631
-66.6662
-66.7016
-66.7354
-66.7663
-66.7928
-66.8138
-66.8283
-66.8358
-66.5221
-66.5284
-66.5407
-66.5585
-66.581
-66.6072
-66.6361
-66.6664
-66.6967
-66.7257
-66.7522
-66.7749
-66.7929
-66.8054
-66.8118
-66.5415
-66.547
-66.5576
-66.573
-66.5925
-66.6153
-66.6403
-66.6665
-66.6927
-66.7178
-66.7407
-66.7603
-66.7759
-66.7867
-66.7922
-66.5572
-66.5619
-66.5713
-66.5848
-66.6018
-66.6217
-66.6436
-66.6665
-66.6894
-66.7114
-66.7314
-66.7486
-66.7622
-66.7716
-66.7765
-66.5695
-66.5737
-66.582
-66.594
-66.6091
-66.6268
-66.6462
-66.6666
-66.6869
-66.7064
-66.7241
-66.7394
-66.7514
-66.7598
-66.764
-66.5789
-66.5827
-66.5902
-66.601
-66.6147
-66.6307
-66.6482
-66.6666
-66.685
-66.7025
-66.7186
-66.7323
-66.7432
-66.7507
-66.7546
-66.5856
-66.5892
-66.5961
-66.6061
-66.6187
-66.6335
-66.6497
-66.6666
-66.6836
-66.6998
-66.7146
-66.7273
-66.7373
-66.7443
-66.7478
-66.5899
-66.5932
-66.5998
-66.6093
-66.6212
-66.6352
-66.6506
-66.6666
-66.6827
-66.6981
-66.7121
-66.7241
-66.7336
-66.7402
-66.7435
-66.5918
-66.5951
-66.6015
-66.6107
-66.6224
-66.636
-66.651
-66.6666
-66.6823
-66.6973
-66.7109
-66.7226
-66.7319
-66.7383
-66.7416
-66.5915
-66.5948
-66.6012
-66.6105
-66.6222
-66.6359
-66.6509
-66.6666
-66.6823
-66.6974
-66.7111
-66.7229
-66.7322
-66.7386
-66.7419
-66.5889
-66.5923
-66.599
-66.6085
-66.6207
-66.6348
-66.6504
-66.6666
-66.6829
-66.6984
-66.7126
-66.7248
-66.7344
-66.7411
-66.7445
-66.584
-66.5876
-66.5946
-66.6048
-66.6177
-66.6328
-66.6493
-66.6666
-66.6839
-66.7005
-66.7156
-66.7285
-66.7387
-66.7458
-66.7495
-66.5765
-66.5805
-66.5881
-66.5993
-66.6133
-66.6297
-66.6477
-66.6666
-66.6855
-66.7035
-66.72
-66.7341
-66.7453
-66.753
-66.757
-66.5663
-66.5707
-66.5793
-66.5916
-66.6073
-66.6255
-66.6456
-66.6666
-66.6876
-66.7077
-66.726
-66.7417
-66.7542
-66.7628
-66.7672
-66.5531
-66.5581
-66.5677
-66.5817
-66.5994
-66.6201
-66.6428
-66.6665
-66.6903
-66.7131
-66.7338
-66.7516
-66.7657
-66.7755
-66.7805
-66.5365
-66.5421
-66.5532
-66.5693
-66.5896
-66.6132
-66.6392
-66.6665
-66.6937
-66.7199
-66.7437
-66.7641
-66.7803
-66.7915
-66.7972
-66.5159
-66.5225
-66.5353
-66.5538
-66.5773
-66.6047
-66.6348
-66.6664
-66.698
-66.7283
-66.7558
-66.7796
-66.7983
-66.8113
-66.818
-66.4908
-66.4984
-66.5134
-66.535
-66.5624
-66.5943
-66.6295
-66.6663
-66.7032
-66.7385
-66.7707
-66.7984
-66.8204
-66.8356
-66.8433
-66.4603
-66.4693
-66.4868
-66.5121
-66.5442
-66.5817
-66.6229
-66.6661
-66.7094
-66.7509
-66.7888
-66.8213
-66.8471
-66.8649
-66.8741
-66.4237
-66.4342
-66.4548
-66.4846
-66.5224
-66.5665
-66.615
-66.6659
-66.7169
-66.7658
-66.8105
-66.8489
-66.8793
-66.9004
-66.9112
-66.3797
-66.3921
-66.4164
-66.4516
-66.4961
-66.5482
-66.6055
-66.6656
-66.7259
-66.7837
-66.8365
-66.882
-66.918
-66.943
-66.9557
-66.3271
-66.3418
-66.3705
-66.412
-66.4647
-66.5262
-66.594
-66.6652
-66.7366
-66.8051
-66.8677
-66.9216
-66.9644
-66.994
-67.0092
-66.2644
-66.2817
-66.3156
-66.3647
-66.427
-66.4999
-66.5802
-66.6645
-66.7492
-66.8306
-66.905
-66.969
-67.0199
-67.0551
-67.0731
-66.1896
-66.2101
-66.2502
-66.3083
-66.3821
-66.4684
-66.5636
-66.6636
-66.7642
-66.8609
-66.9494
-67.0256
-67.0861
-67.1281
-67.1496
-66.1006
-66.1248
-66.1723
-66.2411
-66.3284
-66.4307
-66.5436
-66.6624
-66.7819
-66.897
-67.0023
-67.0931
-67.1653
-67.2154
-67.2411
-65.9948
-66.0235
-66.0796
-66.161
-66.2643
-66.3855
-66.5195
-66.6606
-66.8028
-66.9397
-67.0653
-67.1736
-67.2598
-67.3196
-67.3503
-65.8692
-65.903
-65.9693
-66.0656
-66.1879
-66.3316
-66.4905
-66.6582
-66.8273
-66.9904
-67.1401
-67.2696
-67.3725
-67.4441
-67.4808
-65.72
-65.7599
-65.8383
-65.952
-66.0968
-66.2669
-66.4555
-66.6547
-66.8559
-67.0504
-67.2291
-67.3838
-67.5071
-67.5928
-67.6368
-65.5432
-65.5902
-65.6826
-65.8169
-65.9881
-66.1895
-66.4131
-66.6497
-66.8893
-67.1212
-67.3348
-67.52
-67.6677
-67.7705
-67.8233
-65.3337
-65.389
-65.4979
-65.6562
-65.8583
-66.0966
-66.3616
-66.6428
-66.928
-67.2048
-67.4602
-67.6821
-67.8594
-67.983
-68.0465
-65.0857
-65.1508
-65.2787
-65.4651
-65.7035
-65.985
-66.299
-66.6329
-66.9726
-67.3031
-67.6089
-67.8752
-68.0884
-68.2372
-68.3137
-64.7925
-64.8688
-65.0189
-65.238
-65.5187
-65.851
-66.2226
-66.619
-67.0237
-67.4186
-67.7851
-68.1052
-68.362
-68.5417
-68.6341
-64.4464
-64.5356
-64.7113
-64.9682
-65.298
-65.6896
-66.1291
-66.5995
-67.0815
-67.5537
-67.9936
-68.3791
-68.6892
-68.9067
-69.0187
-64.0384
-64.1423
-64.3474
-64.6477
-65.0343
-65.495
-66.014
-66.5718
-67.146
-67.7112
-68.24
-68.7052
-69.0808
-69.3448
-69.4811
-63.5581
-63.6788
-63.9173
-64.2673
-64.7193
-65.26
-65.8718
-66.5329
-67.2169
-67.8938
-68.5306
-69.0935
-69.5498
-69.8717
-70.0381
-62.9941
-63.1336
-63.4097
-63.816
-64.3427
-64.9756
-65.6955
-66.478
-67.2928
-68.1043
-68.8726
-69.5557
-70.1123
-70.5064
-70.7107
-62.3332
-62.4936
-62.8117
-63.2812
-63.8924
-64.6307
-65.4758
-66.4006
-67.3709
-68.3448
-69.2738
-70.1056
-70.7877
-71.2728
-71.5252
-61.5609
-61.7442
-62.1084
-62.6481
-63.3539
-64.2117
-65.2006
-66.2917
-67.4466
-68.6164
-69.7425
-70.7595
-71.5997
-72.201
-72.5148
-60.6613
-60.8693
-61.2834
-61.8995
-62.7099
-63.7015
-64.8544
-66.1386
-67.5119
-68.9182
-70.287
-71.5361
-72.5777
-73.3286
-73.7224
-59.6172
-59.8512
-60.3182
-61.0162
-61.9399
-63.0795
-64.4171
-65.9236
-67.5544
-69.2461
-70.9146
-72.4568
-73.7577
-74.7041
-75.2035
-58.4108
-58.6712
-59.1927
-59.976
-61.0201
-62.32
-63.8626
-65.6223
-67.5545
-69.5901
-71.6299
-73.545
-75.1837
-76.3899
-77.0314
-57.0236
-57.31
-57.8855
-58.7547
-59.9227
-61.3918
-63.1573
-65.2011
-67.4829
-69.931
-72.4318
-74.8251
-76.91
-78.4678
-79.3047
-55.4376
-55.748
-56.3742
-57.3261
-58.6163
-60.2579
-62.2589
-64.6145
-67.296
-70.2354
-73.3082
-76.3193
-79.0024
-81.0462
-82.1591
-53.636
-53.9669
-54.637
-55.6624
-57.066
-58.8745
-61.1142
-63.8016
-66.9299
-70.447
-74.2274
-78.0414
-81.5386
-84.271
-85.7862
-51.6047
-51.9502
-52.653
-53.7362
-55.2345
-57.1918
-59.6586
-62.6826
-66.2937
-70.4758
-75.1231
-79.9834
-84.6058
-88.341
-90.4655
-49.3336
-49.6856
-50.4049
-51.522
-53.0841
-55.1555
-57.8159
-61.1558
-65.2611
-70.1816
-75.871
-82.0904
-88.289
-93.5296
-96.6199
-46.8181
-47.1662
-47.8805
-48.9988
-50.5803
-52.7101
-55.5016
-59.0975
-63.6624
-69.3535
-76.2506
-84.2117
-92.6374
-100.211
-104.92
-44.0609
-44.3925
-45.0759
-46.1539
-47.6959
-49.8052
-52.6285
-56.3665
-61.2815
-67.6878
-75.8913
-86.0105
-97.5772
-108.882
-116.491
-41.0736
-41.3746
-41.9974
-42.9868
-44.4176
-46.4047
-49.1204
-52.8181
-57.865
-64.774
-74.2015
-86.8038
-102.699
-120.119
-133.344
-37.8776
-38.1333
-38.6644
-39.5135
-40.753
-42.4984
-44.9304
-48.3328
-53.1553
-60.1114
-70.307
-85.3105
-106.761
-134.27
-159.382
-34.5041
-34.7009
-35.1108
-35.7691
-36.7372
-38.1153
-40.0665
-42.8615
-46.9641
-53.1991
-63.0736
-79.3399
-106.616
-150.083
-202.858
-30.9941
-31.1208
-31.3848
-31.8099
-32.4369
-33.3345
-34.6169
-36.482
-39.2923
-43.7595
-51.4016
-65.7233
-95.2283
-159.433
-282.982
-27.3963
-27.4454
-27.5474
-27.7104
-27.949
-28.2865
-28.7626
-29.4464
-30.4699
-32.1153
-35.0911
-41.5628
-59.7431
-127.57
-448.904
-23.7647
-23.7336
-23.6676
-23.5588
-23.3924
-23.1426
-22.7643
-22.1752
-21.2157
-19.5475
-16.3534
-9.27141
10.2186
80.3403
404.455
-20.155
-20.0461
-19.818
-19.4475
-18.8939
-18.088
-16.9125
-15.1614
-12.4542
-8.03967
-0.316
14.4031
45.0192
111.866
240.471
-16.6211
-16.4417
-16.0673
-15.4636
-14.5708
-13.2904
-11.4607
-8.81186
-4.87873
1.16958
10.863
27.0377
54.6591
100.502
165.802
22.8373
9.32231
3.89172
1.07777
-0.628492
-1.76042
-2.55221
-3.12431
-3.54558
-3.85834
-4.08988
-4.25829
-4.37567
-4.44995
-4.48596
14.4389
8.84487
4.75526
2.09079
0.31684
-0.911319
-1.79047
-2.43511
-2.9149
-3.27412
-3.54189
-3.73775
-3.87488
-3.96194
-4.00423
9.92502
7.32266
4.62909
2.48537
0.883148
-0.304579
-1.19158
-1.86037
-2.36793
-2.75339
-3.04381
-3.25798
-3.40882
-3.505
-3.55182
7.2183
5.86374
4.12104
2.50389
1.16161
0.0933265
-0.744223
-1.39759
-1.90572
-2.29863
-2.59867
-2.82214
-2.9807
-3.0823
-3.13191
5.45218
4.6743
3.52576
2.3315
1.24977
0.331002
-0.424762
-1.03565
-1.52351
-1.90834
-2.20666
-2.43137
-2.59211
-2.69568
-2.74642
4.22621
3.74222
2.96221
2.08094
1.22477
0.455475
-0.205902
-0.759148
-1.21284
-1.57812
-1.86576
-2.085
-2.24319
-2.34573
-2.39613
3.33632
3.01568
2.46896
1.81292
1.13943
0.505
-0.0621317
-0.551767
-0.963568
-1.3018
-1.57233
-1.78101
-1.93291
-2.03197
-2.08083
2.66905
2.44612
2.05161
1.55702
1.02694
0.507787
0.0278223
-0.398434
-0.76537
-1.07249
-1.32184
-1.51643
-1.65931
-1.75304
-1.79944
2.15658
1.9957
1.70372
1.32575
0.906859
0.483354
0.0804783
-0.286291
-0.608706
-0.883282
-1.10936
-1.28775
-1.41983
-1.50697
-1.55025
1.7558
1.6363
1.41554
1.12289
0.789971
0.444593
0.108059
-0.204947
-0.485257
-0.727746
-0.929997
-1.09123
-1.21153
-1.29134
-1.33111
1.438
1.34719
1.17729
0.947976
0.68173
0.399684
0.119301
-0.146309
-0.388067
-0.600148
-0.779108
-0.923117
-1.03134
-1.10351
-1.13957
1.18326
1.11299
0.980281
0.798701
0.584457
0.353617
0.120284
-0.104232
-0.311484
-0.495544
-0.652483
-0.779846
-0.87619
-0.94073
-0.973078
0.977306
0.922135