/*--------------------------------*- C++ -*----------------------------------*\
| =========                 |                                                 |
| \\      /  F ield         | OpenFOAM: The Open Source CFD Toolbox           |
|  \\    /   O peration     | Version:  5.x                                   |
|   \\  /    A nd           | Web:      www.OpenFOAM.org                      |
|    \\/     M anipulation  |                                                 |
\*---------------------------------------------------------------------------*/
FoamFile
{
    version     2.0;
    format      ascii;
    class       volScalarField;
    location    "15.7";
    object      gradTy;
}
// * * * * * * * * * * * * * * * * * * * * * * * * * * * * * * * * * * * * * //

dimensions      [0 -1 0 1 0 0 0];

internalField   nonuniform List<scalar> 
6300
(
998.888
996.797
995.099
994.053
993.905
994.889
997.219
1001.08
1006.63
1013.97
1023.15
1034.17
1046.96
1061.38
1077.22
-0.197687
-0.590534
-0.975537
-1.34659
-1.69635
-2.01588
-2.29453
-2.52011
-2.67947
-2.75967
-2.74961
-2.6422
-2.43649
-2.13937
-1.76599
-0.332297
-0.992971
-1.64144
-2.26803
-2.86088
-3.40524
-3.88319
-4.27372
-4.55366
-4.69956
-4.69062
-4.51261
-4.16213
-3.65016
-3.00333
-0.470812
-1.4076
-2.32921
-3.22321
-4.07388
-4.86103
-5.55927
-6.13791
-6.5619
-6.79431
-6.80072
-6.55548
-6.04926
-5.29581
-4.33541
-0.614159
-1.83742
-3.04455
-4.2217
-5.35037
-6.40569
-7.35491
-8.1567
-8.76166
-9.11501
-9.1624
-8.8593
-8.18354
-7.14834
-5.81051
-0.762575
-2.28336
-3.78986
-5.26865
-6.70021
-8.05642
-9.29796
-10.3723
-11.213
-11.7417
-11.8746
-11.5357
-10.6772
-9.30351
-7.49083
-0.91535
-2.74355
-4.56287
-6.36278
-8.12535
-9.82176
-11.4081
-12.8215
-13.9763
-14.764
-15.0583
-14.7318
-13.6861
-11.8975
-9.46179
-1.07062
-3.21258
-5.35528
-7.49419
-9.61663
-11.6971
-13.6913
-15.5291
-17.1066
-18.2795
-18.863
-18.6468
-17.4377
-15.1385
-11.8509
-1.22516
-3.68087
-6.15144
-8.64206
-11.1498
-13.6585
-16.1307
-18.497
-20.6415
-22.3843
-23.4671
-23.5546
-22.2793
-19.368
-14.8663
-1.37429
-4.13428
-6.92752
-9.7727
-12.6821
-15.6564
-18.6759
-21.6867
-24.5779
-27.1489
-29.0664
-29.8252
-28.7568
-25.1875
-18.8881
-1.51202
-4.55442
-7.65163
-10.8391
-14.1494
-17.6089
-21.2297
-24.9957
-28.8343
-32.5669
-35.8243
-37.9226
-37.7349
-33.7373
-24.719
-1.63138
-4.9197
-8.28546
-11.7825
-15.4675
-19.3998
-23.6383
-28.232
-33.1966
-38.4598
-43.7411
-48.3057
-50.5228
-47.3079
-34.4019
-1.72515
-5.20753
-8.78795
-12.5378
-16.5382
-20.8845
-25.6915
-31.0971
-37.2601
-44.3345
-52.3742
-61.0363
-68.7423
-70.5694
-54.3569
-1.78682
-5.39729
-9.12091
-13.0426
-17.263
-21.9084
-27.1458
-33.2046
-40.4119
-49.2434
-60.3845
-74.7225
-92.8404
-111.87
-109.229
-1.81167
-5.47385
-9.25577
-13.2485
-17.5624
-22.3403
-27.7785
-34.1633
-41.9391
-51.8426
-65.1975
-84.6284
-116.026
-174.841
-309.789
1092.82
1107.64
1122.91
1138.46
1154.12
1169.71
1185.09
1200.13
1214.7
1228.71
1242.07
1254.72
1266.61
1277.68
1287.91
1297.27
1305.74
1313.32
1319.98
1325.72
1330.56
1334.48
1337.49
1339.6
1340.82
1341.16
1340.63
1339.24
1337
1333.93
1330.05
1325.37
1319.89
1313.64
1306.63
1298.87
1290.38
1281.16
1271.23
1260.61
1249.3
1237.33
1224.69
1211.42
1197.52
1183.01
1167.9
1152.2
1135.94
1119.12
1101.75
1083.84
1065.41
1046.46
1027.01
1007.06
986.636
965.746
944.406
922.633
900.445
877.862
854.904
831.59
807.942
783.983
759.736
735.227
710.483
685.538
660.427
635.19
609.874
584.528
559.208
533.974
508.889
484.019
459.431
435.193
411.37
388.027
365.225
343.022
321.468
300.607
280.478
261.107
242.513
224.706
-1.37415
-0.997094
-0.614669
-0.241123
0.111717
0.435129
0.723678
0.974964
1.18909
1.36799
1.51478
1.63317
1.72701
1.79995
1.85529
1.89589
1.92412
1.94195
1.951
1.95258
1.94779
1.93756
1.92269
1.90389
1.88179
1.857
1.83006
1.8015
1.77186
1.7416
1.71118
1.68096
1.65122
1.62211
1.59364
1.56569
1.53802
1.51033
1.48227
1.45358
1.42407
1.39375
1.36277
1.33148
1.30034
1.26987
1.24057
1.21279
1.1867
1.16221
1.13897
1.11639
1.0937
1.07007
1.04471
1.01698
0.98647
0.953053
0.916847
0.878165
0.837407
0.794925
0.750888
0.705164
0.657246
0.606232
0.550876
0.489693
0.421123
0.343717
0.25633
0.158281
0.0494705
-0.0695753
-0.197721
-0.333302
-0.474243
-0.618198
-0.762679
-0.905158
-1.04313
-1.17411
-1.29566
-1.40534
-1.50072
-1.57945
-1.63941
-1.67887
-1.69673
-1.69268
-2.32361
-1.6705
-1.01041
-0.368957
0.233037
0.780756
1.26554
1.68423
2.03804
2.33127
2.57002
2.76122
2.91176
3.02806
3.11575
3.17959
3.22349
3.25064
3.26359
3.26446
3.25499
3.23666
3.21074
3.17839
3.14062
3.0984
3.05264
3.00424
2.95405
2.90292
2.85163
2.80082
2.75101
2.70247
2.65521
2.60901
2.5634
2.51776
2.47145
2.4239
2.37474
2.32394
2.27177
2.21888
2.16616
2.1146
2.06517
2.01861
1.97527
1.93503
1.89724
1.86082
1.82433
1.7862
1.74494
1.69937
1.64875
1.59287
1.53203
1.46693
1.39845
1.32738
1.2542
1.17881
1.10038
1.01735
0.927455
0.827968
0.715989
0.588802
0.444236
0.280981
0.0987895
-0.10143
-0.317661
-0.546937
-0.785582
-1.02948
-1.27432
-1.51579
-1.74969
-1.97192
-2.17841
-2.36508
-2.52778
-2.66239
-2.76507
-2.83259
-2.86282
-2.85511
-3.32383
-2.3541
-1.37946
-0.440135
0.43234
1.21683
1.90238
2.48671
2.97402
3.37275
3.69352
3.94756
4.14557
4.29711
4.4103
4.49174
4.54674
4.57948
4.59332
4.59097
4.57468
4.54639
4.5078
4.4604
4.40558
4.34462
4.27876
4.20925
4.13731
4.0642
3.99108
3.91898
3.84871
3.7807
3.715
3.65121
3.58853
3.5259
3.46215
3.39626
3.32753
3.25581
3.18155
3.10579
3.03003
2.95601
2.88541
2.81956
2.75915
2.70407
2.65332
2.60512
2.55709
2.50661
2.45118
2.38884
2.3184
2.23961
2.15315
2.06038
1.96301
1.8627
1.76053
1.65665
1.54999
1.43819
1.31769
1.18408
1.03261
0.858772
0.658926
0.430823
0.173951
-0.110338
-0.418919
-0.74718
-1.08945
-1.43948
-1.79087
-2.1374
-2.47314
-2.79244
-3.08974
-3.35936
-3.59532
-3.79137
-3.94138
-4.04002
-4.08356
-4.07069
-4.39605
-3.04462
-1.69747
-0.414861
0.758542
1.79558
2.6852
3.4291
4.03777
4.52671
4.91333
5.21478
5.4465
5.62163
5.75076
5.84219
5.90225
5.93579
5.94661
5.93778
5.91189
5.87122
5.81777
5.75336
5.67963
5.59814
5.51041
5.418
5.32254
5.22575
5.12931
5.03478
4.94339
4.85587
4.77231
4.69207
4.61386
4.53591
4.45621
4.37295
4.28488
4.19161
4.09375
3.99295
3.89165
3.79273
3.69905
3.61291
3.5356
3.46711
3.40597
3.3494
3.2936
3.23435
3.1676
3.09018
3.00027
2.89762
2.78356
2.66062
2.53202
2.40088
2.2695
2.13866
2.00718
1.87172
1.72695
1.56607
1.3816
1.16634
0.914446
0.622233
0.28873
-0.084136
-0.491711
-0.927126
-1.38203
-1.84741
-2.31433
-2.77444
-3.22015
-3.64453
-4.04084
-4.40204
-4.72023
-4.98653
-5.1916
-5.32671
-5.38546
-5.36524
-5.56269
-3.72896
-1.92252
-0.232311
1.28115
2.5867
3.67794
4.56632
5.27403
5.82808
6.25589
6.58247
6.82902
7.01245
7.14561
7.23789
7.29603
7.32491
7.32828
7.30923
7.2705
7.21455
7.14365
7.05984
6.96497
6.86076
6.74891
6.63125
6.50982
6.38691
6.26492
6.14619
6.03264
5.92549
5.82495
5.73013
5.63897
5.54856
5.45552
5.35672
5.24987
5.13414
5.01033
4.88097
4.74997
4.62205
4.50197
4.39367
4.29949
4.21969
4.15218
4.09269
4.03524
3.97301
3.89951
3.80965
3.7006
3.5722
3.42687
3.26916
3.10479
2.93952
2.7778
2.62172
2.47021
2.31875
2.15952
1.98216
1.77501
1.52676
1.22813
0.873206
0.460294
-0.00784712
-0.524312
-1.07891
-1.65941
-2.25301
-2.84749
-3.43212
-3.99781
-4.53693
-5.04242
-5.50657
-5.91977
-6.26981
-6.54245
-6.72331
-6.801
-6.77036
-6.84564
-4.37384
-1.98002
0.204952
2.10338
3.68669
4.96314
5.96406
6.73195
7.31166
7.74462
8.06582
8.30284
8.47608
8.59976
8.68321
8.73238
8.75122
8.7427
8.70953
8.65438
8.57991
8.48862
8.38277
8.26429
8.1349
7.99631
7.85046
7.69978
7.54727
7.39638
7.25067
7.11322
6.98611
6.86992
6.76344
6.66355
6.56552
6.46368
6.35259
6.22821
6.08881
5.93543
5.77189
5.60438
5.4406
5.28845
5.15459
5.04318
4.95506
4.88734
4.83353
4.78421
4.72837
4.65543
4.5572
4.42925
4.27158
4.08844
3.88769
3.67929
3.47344
3.27838
3.09858
2.93355
2.77732
2.61854
2.44149
2.22796
1.96007
1.62319
1.20799
0.711691
0.138324
-0.501715
-1.1931
-1.91768
-2.65706
-3.39461
-4.1168
-4.8135
-5.47755
-6.10331
-6.68427
-7.21006
-7.66438
-8.0253
-8.26832
-8.37237
-8.32712
-8.26306
-4.90631
-1.73663
1.05495
3.37951
5.22872
6.64537
7.69766
8.46118
9.00695
9.39468
9.67083
9.86894
10.0115
10.1123
10.1784
10.2129
10.2174
10.1931
10.142
10.0666
9.97
9.8551
9.72441
9.57985
9.42285
9.25472
9.0772
8.89294
8.70586
8.52097
8.34383
8.17949
8.03159
7.9015
7.78785
7.68605
7.58855
7.48575
7.36818
7.22876
7.0642
6.87575
6.66908
6.454
6.24297
6.04917
5.88374
5.75391
5.66159
5.603
5.56844
5.54309
5.50889
5.44828
5.34804
5.20121
5.00811
4.77587
4.51771
4.25059
3.9923
3.75742
3.55461
3.38466
3.23999
3.10429
2.95375
2.75955
2.4931
2.13139
1.65992
1.07441
0.380845
-0.404843
-1.25916
-2.15433
-3.06343
-3.96355
-4.8379
-5.67592
-6.47305
-7.22845
-7.94115
-8.60304
-9.19322
-9.67772
-10.0132
-10.1586
-10.0925
-9.81732
-5.16938
-0.948783
2.57736
5.33995
7.39342
8.85206
9.84693
10.5039
10.9297
11.2054
11.3882
11.5149
11.6073
11.6747
11.7189
11.7367
11.725
11.6821
11.6093
11.5094
11.3864
11.2443
11.086
10.9134
10.7269
10.5267
10.3137
10.0902
9.86136
9.63445
9.41862
9.22214
9.05147
8.90949
8.79526
8.70243
8.61928
8.52919
8.41529
8.26558
8.07409
7.84236
7.57847
7.29789
7.02061
6.76913
6.56173
6.41071
6.31964
6.28418
6.29019
6.3148
6.32751
6.2983
6.20604
6.03989
5.80106
5.50072
5.16074
4.80924
4.47754
4.19038
3.96341
3.79948
3.68982
3.61152
3.52896
3.39525
3.16339
2.79774
2.27615
1.5928
0.756108
-0.209062
-1.26628
-2.37079
-3.48263
-4.56946
-5.61117
-6.59708
-7.52848
-8.41493
-9.27105
-10.0991
-10.8741
-11.5445
-12.0318
-12.249
-12.1514
-11.4551
-4.81725
0.838845
5.19896
8.32093
10.4138
11.7256
12.4818
12.8785
13.0678
13.1489
13.1853
13.2095
13.2379
13.2696
13.2964
13.302
13.2764
13.2133
13.1146
12.9844
12.8294
12.6557
12.4674
12.2657
12.0495
11.8161
11.5641
11.2942
11.013
10.7309
10.4645
10.2266
10.029
9.87648
9.77085
9.70383
9.65902
9.6059
9.51296
9.36157
9.14096
8.8543
8.51095
8.13608
7.76017
7.42468
7.15766
6.98028
6.89675
6.90477
6.9843
7.10284
7.20566
7.23831
7.16964
6.98243
6.68181
6.28187
5.81959
5.33865
4.89793
4.53597
4.28075
4.1355
4.09388
4.12426
4.17723
4.17172
4.02579
3.68807
3.12479
2.33149
1.31589
0.118812
-1.20572
-2.57706
-3.9382
-5.24063
-6.46506
-7.59692
-8.64882
-9.64525
-10.6414
-11.6719
-12.7054
-13.675
-14.4394
-14.7927
-14.6396
-12.9213
-3.05183
4.49219
9.60318
12.7833
14.5582
15.3983
15.6332
15.5506
15.3603
15.1555
14.9987
14.8967
14.8626
14.8701
14.903
14.9111
14.8801
14.7946
14.6637
14.4934
14.298
14.0868
13.8663
13.6375
13.3955
13.1307
12.8388
12.513
12.1644
11.8034
11.4677
11.1716
10.9401
10.7745
10.6894
10.6718
10.7093
10.7385
10.6934
10.5558
10.3015
9.94646
9.48742
8.97439
8.44017
7.9803
7.62318
7.41339
7.34074
7.42114
7.62097
7.91227
8.18364
8.32302
8.30275
8.08713
7.70445
7.15168
6.50419
5.80909
5.20382
4.72685
4.43873
4.32133
4.39329
4.60356
4.9088
5.1495
5.1635
4.90241
4.30386
3.38953
2.13628
0.62953
-1.07841
-2.79862
-4.47887
-6.02464
-7.4527
-8.71231
-9.84939
-10.8763
-11.9624
-13.2405
-14.6289
-16.1011
-17.439
-18.0657
-17.7895
-13.1554
2.06171
11.6484
16.7877
19.2697
20.0494
19.9435
19.2425
18.3785
17.6747
17.0937
16.7339
16.4872
16.4284
16.4351
16.5461
16.5776
16.5634
16.4424
16.2707
16.0396
15.7907
15.5323
15.2784
15.0295
14.7755
14.4856
14.1636
13.7659
13.3348
12.8408
12.4153
12.0246
11.7577
11.5578
11.5119
11.5617
11.7727
11.9794
12.0082
11.9195
11.6085
11.1896
10.5429
9.84448
9.01437
8.38924
7.8778
7.65025
7.56555
7.7667
8.12711
8.75152
9.35282
9.63871
9.71827
9.43347
8.97312
8.15896
7.25841
6.15122
5.32602
4.64681
4.35185
4.23541
4.49447
4.94698
5.73417
6.45457
6.69813
6.60346
5.93848
4.93638
3.32251
1.43075
-0.932674
-3.07696
-5.21247
-6.97743
-8.68224
-10.0035
-11.208
-12.0214
-13.0066
-14.6498
-16.4311
-18.72
-21.4623
-22.6385
-22.0215
-7.48857
15.2833
25.2084
27.7977
28.2067
26.8154
25.345
23.0862
20.9752
19.8121
18.7133
18.3058
17.8068
17.8995
17.8497
18.3034
18.3097
18.4001
18.1628
17.9628
17.6114
17.2966
16.971
16.6833
16.4285
16.207
15.8864
15.5971
15.0668
14.5955
13.7793
13.3127
12.6993
12.4785
12.1193
12.1967
12.2192
12.8421
13.4764
13.492
13.603
13.0707
12.7608
11.6728
10.9041
9.29331
8.63433
7.72355
7.6813
7.37864
7.88285
8.253
9.62397
10.9761
11.2514
11.6583
11.0325
10.7512
9.29055
8.31013
6.08723
5.23795
4.01338
4.00786
3.60873
4.31704
4.8084
6.65566
8.44622
8.71977
9.12569
8.05849
7.36415
4.90886
2.91116
-1.10247
-3.3679
-6.47957
-8.01675
-10.464
-11.4627
-13.1297
-12.9191
-13.1029
-15.8599
-17.5023
-20.686
-27.7403
-29.793
-28.1184
26.7417
47.0047
49.3323
41.9471
39.7355
33.6945
31.8808
26.7165
22.2059
21.8561
19.3368
20.0086
18.2737
19.5748
18.5384
20.7041
19.9199
20.7079
19.8288
19.8718
19.1297
18.8171
18.3544
18.0398
17.7786
17.7802
17.2414
17.3769
16.2817
16.3519
14.2136
14.4205
12.8077
13.3978
12.0513
12.9593
12.0116
13.894
15.8638
14.8374
16.212
14.2119
15.4514
12.342
13.1755
8.20087
9.24125
6.31786
8.08661
6.02912
8.19136
6.93698
10.5228
14.1492
12.674
15.0849
12.1349
14.2267
9.73001
11.1504
4.04458
5.68969
1.62392
4.23013
1.38675
4.45151
2.71678
7.6583
12.6218
10.5503
13.7687
9.64105
12.3272
5.83584
7.29409
-3.79006
-2.44058
-10.0142
-7.74584
-14.3317
-11.9598
-17.755
-13.249
-9.49392
-18.6749
-16.3541
-17.0781
-41.2207
-42.3148
-37.5317
209.789
104.552
87.4417
48.6462
56.7783
34.4861
43.2416
29.4055
17.4454
27.0242
15.3652
25.1776
14.3687
24.6165
14.6164
27.3527
19.2664
25.4166
20.1672
22.9117
20.0298
20.554
19.5249
19.3197
18.7509
20.1317
17.6261
20.9291
15.8186
21.2892
11.2712
18.1492
9.74433
17.1065
8.73698
16.3949
7.72903
14.8204
22.566
12.7259
23.6809
10.6888
24.4048
7.33418
23.8108
-1.55257
15.5565
-1.84397
14.0022
-1.39628
13.4203
-1.34852
11.3638
24.6691
8.50083
26.2314
5.97751
27.1898
1.64938
26.2687
-10.5989
14.3656
-10.3727
12.3002
-9.3425
11.4976
-8.98823
8.62957
26.9281
4.76343
28.9904
1.412
30.5061
-4.68434
29.7384
-24.3817
11.3364
-27.721
5.27551
-31.098
-0.695901
-37.2138
-12.4974
12.7433
-38.0519
-10.8213
20.253
-87.8902
-63.299
-53.2798
205.979
186.662
168.415
151.183
134.898
119.483
104.852
90.9185
77.595
64.7939
52.4293
40.4176
28.6777
17.1301
5.69732
-1.66478
-1.60602
-1.52298
-1.42063
-1.30422
-1.17868
-1.04826
-0.916285
-0.785182
-0.656472
-0.530929
-0.408713
-0.289517
-0.1727
-0.057394
-2.80604
-2.70361
-2.55971
-2.38334
-2.18386
-1.96992
-1.74882
-1.52619
-1.30599
-1.09061
-0.881193
-0.677837
-0.47989
-0.286156
-0.0950826
-3.99617
-3.84266
-3.62889
-3.36914
-3.07793
-2.76829
-2.45089
-2.13367
-1.82195
-1.51879
-1.22538
-0.941546
-0.666046
-0.396949
-0.131862
-5.25846
-5.04194
-4.74399
-4.38638
-3.99038
-3.57439
-3.15276
-2.73562
-2.32934
-1.93718
-1.56
-1.19691
-0.84579
-0.503726
-0.167275
-6.62073
-6.32257
-5.9187
-5.44194
-4.92279
-4.3861
-3.85009
-3.32668
-2.82259
-2.34058
-1.8805
-1.44027
-1.01647
-0.604884
-0.200787
-8.11783
-7.70881
-7.16622
-6.53984
-5.87267
-5.19709
-4.53478
-3.89837
-3.29374
-2.722
-2.18115
-1.66719
-1.17494
-0.698543
-0.231772
-9.7955
-9.22846
-8.49743
-7.67843
-6.83087
-5.99476
-5.1935
-4.43824
-3.73195
-3.07251
-2.45488
-1.87237
-1.31754
-0.782567
-0.259529
-11.716
-10.912
-9.91646
-8.84546
-7.77751
-6.75751
-5.80617
-4.92909
-4.12325
-3.38119
-2.69344
-2.04987
-1.44026
-0.854648
-0.283305
-13.9656
-12.7868
-11.4109
-10.0093
-8.67612
-7.45149
-6.3445
-5.34864
-4.45073
-3.63551
-2.88781
-2.19336
-1.53897
-0.91245
-0.302343
-16.6588
-14.8587
-12.9309
-11.1047
-9.46606
-8.02774
-6.77162
-5.67018
-4.69545
-3.82227
-3.0289
-2.29677
-1.6098
-0.953827
-0.315958
-19.9182
-17.058
-14.3491
-12.0122
-10.0556
-8.42169
-7.04399
-5.86493
-4.83858
-3.92917
-3.10873
-2.35498
-1.64961
-0.97709
-0.323615
-23.7428
-19.1059
-15.3952
-12.5394
-10.3224
-8.55928
-7.11764
-5.90691
-4.86471
-3.94705
-3.12184
-2.36476
-1.65657
-0.981292
-0.325025
-27.4307
-20.2273
-15.5862
-12.4276
-10.1353
-8.37523
-6.9603
-5.78029
-4.76624
-3.87242
-3.06677
-2.32564
-1.63058
-0.966474
-0.320214
-27.3025
-18.786
-14.2947
-11.4491
-9.41602
-7.84591
-6.56793
-5.48764
-4.54749
-3.70956
-2.94717
-2.24041
-1.57362
-0.933799
-0.309565
-1.80181
-5.44345
-9.20232
-13.1676
-17.4476
-22.1823
-27.5648
-33.8779
-41.5622
-51.355
-64.6003
-84.0119
-115.777
-175.941
-311.204
-1.76371
-5.32601
-8.99555
-12.853
-16.9946
-21.5418
-26.6566
-32.5653
-39.597
-48.2467
-59.2649
-73.7149
-92.5279
-112.818
-105.838
-1.7014
-5.13408
-8.65822
-12.341
-16.2597
-20.5069
-25.197
-30.4726
-36.5081
-43.4932
-51.5461
-60.3874
-68.2522
-68.6323
-42.623
-1.61832
-4.87861
-8.21067
-11.6652
-15.2968
-19.1645
-23.3305
-27.8521
-32.7596
-37.998
-43.2797
-47.7377
-49.1735
-42.7721
-20.5441
-1.51882
-4.57326
-7.67804
-10.8663
-14.1697
-17.6149
-21.217
-24.9633
-28.7812
-32.4725
-35.5853
-37.187
-35.5372
-27.902
-11.5626
-1.40765
-4.23294
-7.08739
-9.98748
-12.9439
-15.9563
-19.0032
-22.0246
-24.8906
-27.3485
-28.9399
-28.8939
-26.0575
-19.0764
-7.29321
-1.28954
-3.87233
-6.465
-9.06945
-11.6793
-14.2737
-16.8072
-19.1938
-21.2833
-22.8259
-23.4312
-22.5385
-19.4559
-13.5855
-4.97047
-1.16883
-3.50486
-5.83438
-8.1476
-10.4254
-12.6333
-14.7129
-16.5694
-18.0557
-18.9543
-18.9628
-17.7035
-14.7901
-10.0007
-3.56844
-1.04927
-3.14187
-5.21506
-7.2503
-9.21997
-11.0821
-12.7735
-14.2018
-15.2363
-15.7006
-15.3747
-14.0172
-11.427
-7.55654
-2.65574
-0.933824
-2.79236
-4.62204
-6.3985
-8.08918
-9.64921
-11.0167
-12.1078
-12.8127
-12.9957
-12.503
-11.187
-8.95296
-5.82789
-2.02823
-0.824702
-2.46286
-4.06597
-5.60624
-7.04907
-8.35001
-9.45177
-10.2818
-10.7516
-10.76
-10.2029
-8.99409
-7.09766
-4.56768
-1.57904
-0.723387
-2.15769
-3.5535
-4.88161
-6.10745
-7.18908
-8.0755
-8.70592
-9.01091
-8.91682
-8.35524
-7.27873
-5.68231
-3.62594
-1.24751
-0.63073
-1.87923
-3.08803
-4.22797
-5.26595
-6.16367
-6.87695
-7.35598
-7.54728
-7.39828
-6.86517
-5.92438
-4.58632
-2.90786
-0.996929
-0.547068
-1.62833
-2.67037
-3.64512
-4.52181
-5.26632
-5.84105
-6.20579
-6.31992
-6.14644
-5.65819
-4.84586
-3.72671
-2.35119
-0.803932
-0.472345
-1.40465
-2.29941
-3.13034
-3.86945
-4.48683
-4.95093
-5.22961
-5.29225
-5.11317
-4.67622
-3.98039
-3.04512
-1.91377
-0.653019
-0.40622
-1.20704
-1.97278
-2.6793
-3.30159
-3.81376
-4.18955
-4.40342
-4.43243
-4.25893
-3.874
-3.28117
-2.49969
-1.56618
-0.533554
-0.34816
-1.03379
-1.68725
-2.28675
-2.81019
-3.23539
-3.54059
-3.70557
-3.7132
-3.5515
-3.21614
-2.71294
-2.05981
-1.28743
-0.438029
-0.297521
-0.882881
-1.43918
-1.94699
-2.38701
-2.74032
-2.98898
-3.11699
-3.11154
-2.96463
-2.67481
-2.24882
-1.70274
-1.06216
-0.361012
-0.253603
-0.752149
-1.22476
-1.65431
-2.02404
-2.3179
-2.52114
-2.62106
-2.60811
-2.477
-2.22803
-1.86807
-1.41128
-0.878944
-0.298492
-0.215696
-0.639425
-1.04024
-1.40316
-1.71374
-1.95841
-2.12502
-2.20352
-2.18671
-2.07122
-1.8583
-1.55456
-1.17227
-0.729139
-0.24745
-0.183112
-0.542609
-0.88203
-1.18836
-1.4492
-1.65311
-1.79009
-1.85213
-1.83383
-1.73307
-1.55163
-1.29559
-0.975508
-0.606106
-0.205583
-0.155197
-0.45973
-0.746795
-1.00515
-1.22418
-1.39428
-1.5072
-1.55653
-1.5382
-1.45095
-1.29676
-1.0811
-0.812986
-0.504683
-0.171103
-0.131353
-0.388981
-0.631495
-0.849226
-1.03314
-1.17515
-1.26846
-1.30791
-1.29043
-1.21531
-1.08456
-0.903026
-0.67837
-0.42081
-0.142614
-0.111034
-0.328725
-0.533403
-0.716785
-0.871196
-0.989841
-1.0671
-1.09883
-1.08267
-1.01829
-0.907623
-0.754893
-0.566601
-0.351264
-0.119008
-0.0937535
-0.277504
-0.450096
-0.604458
-0.734082
-0.833265
-0.897355
-0.923
-0.908386
-0.853424
-0.759888
-0.631451
-0.473609
-0.293466
-0.0994004
-0.0790812
-0.234032
-0.379446
-0.509307
-0.618105
-0.701055
-0.754301
-0.775123
-0.762117
-0.715337
-0.636386
-0.528428
-0.3961
-0.245337
-0.0830804
-0.0666391
-0.197179
-0.319596
-0.42878
-0.520075
-0.589468
-0.63376
-0.650734
-0.639297
-0.599585
-0.533025
-0.442324
-0.331392
-0.205186
-0.0694715
-0.0560981
-0.165967
-0.268935
-0.360672
-0.437252
-0.495309
-0.532187
-0.546072
-0.536109
-0.502476
-0.446425
-0.370266
-0.27729
-0.171638
-0.0581042
-0.0471729
-0.139546
-0.226071
-0.303088
-0.36729
-0.415855
-0.446577
-0.457969
-0.449355
-0.420932
-0.373788
-0.309884
-0.231989
-0.143563
-0.0485939
-0.0396177
-0.117185
-0.189809
-0.254403
-0.308183
-0.34879
-0.374388
-0.383755
-0.376356
-0.352387
-0.312786
-0.259216
-0.194001
-0.12003
-0.0406241
-0.0332208
-0.0982554
-0.159123
-0.213224
-0.258224
-0.292147
-0.313468
-0.321182
-0.314862
-0.294695
-0.261484
-0.216634
-0.162092
-0.100271
-0.0339336
-0.0278008
-0.0822194
-0.133135
-0.178365
-0.215955
-0.244254
-0.261996
-0.268353
-0.262983
-0.246058
-0.218264
-0.18078
-0.135238
-0.0836466
-0.0283057
-0.0232023
-0.0686155
-0.111094
-0.148812
-0.180136
-0.203692
-0.218428
-0.223665
-0.219128
-0.204969
-0.181771
-0.150522
-0.112583
-0.0696261
-0.0235598
-0.0192921
-0.0570491
-0.0923584
-0.123698
-0.14971
-0.169253
-0.181457
-0.185764
-0.181952
-0.170157
-0.150867
-0.124909
-0.0934124
-0.0577645
-0.0195451
-0.0159561
-0.0471823
-0.0763787
-0.102285
-0.123775
-0.139909
-0.149969
-0.153499
-0.15032
-0.140549
-0.124594
-0.103141
-0.0771243
-0.0476883
-0.0161351
-0.0130963
-0.0387247
-0.0626835
-0.0839365
-0.10156
-0.114782
-0.123017
-0.125891
-0.123264
-0.115234
-0.102138
-0.0845414
-0.0632103
-0.0390823
-0.0132228
-0.0106284
-0.0314264
-0.0508671
-0.0681084
-0.0824005
-0.0931175
-0.0997855
-0.102104
-0.0999599
-0.0934361
-0.0828081
-0.0685347
-0.0512383
-0.0316784
-0.0107175
-0.00847904
-0.0250705
-0.0405777
-0.0543281
-0.0657233
-0.0742645
-0.0795745
-0.0814146
-0.0796967
-0.0744878
-0.066009
-0.0546269
-0.0408379
-0.0252472
-0.00854151
-0.00658419
-0.0194676
-0.031508
-0.042183
-0.0510277
-0.057655
-0.0617726
-0.0631959
-0.0618573
-0.0578099
-0.0512259
-0.0423902
-0.0316885
-0.0195901
-0.00662751
-0.0048872
-0.0144499
-0.0233864
-0.0313087
-0.0378717
-0.0427881
-0.0458414
-0.0468948
-0.0458988
-0.0428931
-0.038006
-0.0314492
-0.0235088
-0.014533
-0.00491658
-0.00333721
-0.00986701
-0.015969
-0.0213782
-0.0258588
-0.029215
-0.0312986
-0.0320168
-0.0313357
-0.0292827
-0.0259456
-0.0214689
-0.016048
-0.0099206
-0.00335617
-0.00188765
-0.00558114
-0.00903267
-0.0120923
-0.0146268
-0.0165253
-0.017704
-0.0181103
-0.0177251
-0.0165639
-0.0146763
-0.0121441
-0.00907773
-0.00561172
-0.00189846
-0.00049488
-0.00146327
-0.00236842
-0.00317113
-0.00383648
-0.00433532
-0.00464561
-0.00475337
-0.00465339
-0.00434953
-0.00385466
-0.00319015
-0.00238498
-0.0014745
-0.000498855
0.000883046
0.0026107
0.00422469
0.00565468
0.00683827
0.0077237
0.00827211
0.0084593
0.00827678
0.00773223
0.00684919
0.0056661
0.00423463
0.00261745
0.000885435
0.00228766
0.00676358
0.0109455
0.0146515
0.01772
0.0200167
0.0214406
0.0219286
0.0214583
0.020049
0.0177613
0.0146948
0.0109832
0.00678913
0.0022967
0.00376128
0.0111205
0.0179968
0.0240911
0.0291376
0.0329156
0.0352589
0.0360634
0.0352917
0.0329755
0.0292143
0.0241713
0.0180667
0.011168
0.00377806
0.00534829
0.0158128
0.0255911
0.034258
0.0414359
0.0468106
0.0501456
0.0512924
0.0501975
0.0469054
0.0415572
0.0343849
0.0257016
0.0158878
0.00537481
0.00709641
0.0209816
0.033957
0.0454588
0.0549861
0.0621218
0.0665516
0.0680778
0.0666288
0.0622628
0.0551665
0.0456475
0.0341213
0.0210931
0.00713586
0.0090581
0.0267821
0.0433459
0.0580306
0.0701967
0.0793117
0.0849736
0.086929
0.0850853
0.0795158
0.070458
0.0583038
0.0435838
0.0269436
0.00911522
0.0112921
0.0333881
0.0540396
0.0723511
0.0875257
0.0988991
0.105969
0.108418
0.106129
0.0991909
0.0878991
0.0727416
0.0543796
0.0336188
0.0113738
0.0138651
0.0409969
0.0663579
0.0888497
0.107494
0.121474
0.130173
0.133197
0.1304
0.121889
0.108024
0.0894043
0.0668409
0.0413247
0.0139811
0.0168538
0.0498352
0.0806682
0.10802
0.1307
0.147717
0.158316
0.162017
0.158637
0.148304
0.131451
0.108805
0.0813522
0.0502994
0.017018
0.0203465
0.0601651
0.097396
0.130432
0.157839
0.178416
0.191249
0.195753
0.191703
0.179246
0.158901
0.131543
0.098363
0.0608214
0.0205787
0.0244464
0.0722916
0.117036
0.156753
0.18972
0.214491
0.229964
0.235429
0.230606
0.215663
0.19122
0.158322
0.118402
0.0732188
0.0247744
0.0292736
0.0865707
0.140167
0.187761
0.22729
0.257022
0.275629
0.282248
0.276535
0.258678
0.229409
0.189977
0.142097
0.0878802
0.0297368
0.0349687
0.103419
0.167467
0.224368
0.271663
0.307278
0.329615
0.337631
0.330894
0.309615
0.274655
0.227496
0.170191
0.105268
0.0356227
0.0416962
0.123324
0.199727
0.267645
0.324146
0.366752
0.393544
0.403257
0.39535
0.370052
0.32837
0.272061
0.203573
0.125935
0.0426196
0.0496485
0.146857
0.237879
0.318848
0.386277
0.437206
0.469331
0.481116
0.471881
0.441865
0.392239
0.325083
0.243309
0.150543
0.0509522
0.0590507
0.174686
0.283012
0.379451
0.459863
0.520717
0.559242
0.573568
0.562841
0.527293
0.46828
0.388253
0.290678
0.179889
0.0608913
0.070165
0.20759
0.336398
0.451181
0.547029
0.61973
0.665952
0.683416
0.671033
0.629014
0.558912
0.463608
0.347221
0.214936
0.0727637
0.0832967
0.246475
0.399522
0.536057
0.650267
0.737128
0.792631
0.813985
0.799803
0.750233
0.66704
0.5536
0.414801
0.256847
0.0869656
0.0987993
0.292396
0.474109
0.636434
0.772492
0.876298
0.943018
0.969228
0.953141
0.894796
0.796171
0.6612
0.495681
0.307039
0.10398
0.117081
0.346566
0.562159
0.755047
0.91711
1.04122
1.12153
1.15384
1.13582
1.06733
0.950535
0.790011
0.592615
0.367242
0.124395
0.138608
0.410383
0.665971
0.895062
1.08808
1.23654
1.33338
1.37339
1.35355
1.27339
1.13526
0.944422
0.708972
0.439578
0.148937
0.163915
0.485437
0.788182
1.06012
1.28999
1.4677
1.58469
1.63449
1.61315
1.51971
1.35659
1.12981
0.848899
0.526666
0.178502
0.1936
0.573529
0.931781
1.25438
1.52813
1.741
1.88265
1.94499
1.9228
1.8144
1.62213
1.35276
1.01752
0.631757
0.214204
0.228334
0.676669
1.10013
1.48256
1.80853
2.06376
2.23568
2.31417
2.29232
2.16732
1.9412
1.62146
1.22122
0.758923
0.257442
0.268852
0.79708
1.29697
1.74995
2.13805
2.44435
2.65358
2.75301
2.73347
2.59044
2.32528
1.94605
1.46799
0.913297
0.309988
0.315949
0.937165
1.52637
2.06238
2.52437
2.89233
3.14771
3.27447
3.26034
3.09837
2.78856
2.33925
1.76798
1.10142
0.374104
0.370462
1.09947
1.79271
2.42619
2.97598
3.41846
3.73114
3.89375
3.88985
3.70895
3.3487
2.81714
2.13414
1.33174
0.452724
0.433243
1.28663
2.10052
2.84812
3.50208
4.03472
4.41878
4.62862
4.64227
4.44404
4.0278
3.40017
2.58318
1.61526
0.549694
0.505123
1.50119
2.45437
3.33507
4.11239
4.75414
5.22737
5.49972
5.54178
5.33051
4.85366
4.11467
3.13704
1.96658
0.670146
0.586851
1.74551
2.85854
3.89379
4.81683
5.59056
6.17542
6.53071
6.61719
6.40138
5.86152
4.99488
3.82478
2.40536
0.821051
0.679018
2.02153
3.31669
4.5304
5.62495
6.5581
7.28285
7.74833
7.90249
7.69723
7.09629
6.08578
4.68564
2.95865
1.01208
0.781961
2.33041
3.83139
5.24973
6.5451
7.67033
8.57029
9.18208
9.43734
9.26782
8.61544
7.44723
5.77346
3.66439
1.257
0.895644
2.67225
4.40346
6.05441
7.58337
8.93894
10.0578
10.8634
11.2671
11.1737
10.4928
9.15971
7.16354
4.57727
1.57596
1.01951
3.0456
5.03122
6.94379
8.742
10.3719
11.7628
12.8237
13.4421
13.4874
12.8229
11.3326
8.96338
5.77836
1.99949
1.15236
3.44704
5.70969
7.91253
10.0175
11.9708
13.6968
15.0912
16.0151
16.2938
15.7265
14.1159
11.3297
7.39181
2.57586
1.29219
3.8707
6.42966
8.94921
11.3982
13.7274
15.8611
17.6853
19.036
19.6878
19.3544
17.7155
14.4956
9.61502
3.3854
1.43608
4.30791
7.17697
10.0349
12.862
15.6198
18.2401
20.6082
22.5421
23.7659
23.8889
22.4129
18.8149
12.775
4.57073
1.58017
4.74703
7.93198
11.1418
14.3737
17.6077
20.794
23.8326
26.5412
28.6082
29.5338
28.5838
24.8297
17.4379
6.40687
1.71974
5.17356
8.66967
12.2334
15.884
19.6287
23.4504
27.2861
30.9858
34.2429
36.4811
36.7018
33.3706
24.628
9.48092
1.84933
5.57069
9.36037
13.2645
17.3288
21.596
26.0971
30.8337
35.7375
40.5851
44.8292
47.2863
45.6691
36.2656
15.204
1.96316
5.92034
9.97155
14.1842
18.6328
23.4006
28.58
34.2653
40.528
47.3463
54.4179
60.6998
63.3746
55.9987
27.4177
2.05553
6.20465
10.4706
14.9401
19.7149
24.9194
30.7116
37.2956
44.9325
53.9313
64.5548
76.6178
88.0595
90.4572
57.8635
2.12147
6.40783
10.8281
15.484
20.4985
26.0299
32.2931
39.5946
48.3911
59.3877
73.6917
92.9667
119.024
149.215
146.04
2.15723
6.51801
11.0219
15.7787
20.9231
26.6321
33.1534
40.8552
50.3216
62.547
79.376
104.605
147.118
231.141
434.846
2.16081
6.5288
11.04
15.8041
20.9555
26.6702
33.1937
40.8903
50.3357
62.5091
79.2265
104.239
146.385
229.954
433.708
2.13217
6.44012
10.8823
15.5605
20.5966
26.1464
32.4192
39.7107
48.4553
59.3151
73.3157
91.9747
116.887
145.303
141.08
2.07324
6.25815
10.5608
15.0682
19.8809
25.1203
30.9373
37.5217
45.1055
53.9397
64.1696
75.3674
84.9531
83.3181
41.4635
-17.3066
-14.1118
-11.7154
-9.85876
-8.36106
-7.11136
-6.0398
-5.10013
-4.26008
-3.49612
-2.79031
-2.12839
-1.49855
-0.890631
-0.295478
-6.49295
-9.00176
-8.89253
-8.11691
-7.20341
-6.30294
-5.4564
-4.67019
-3.93969
-3.25702
-2.61374
-2.00174
-1.41337
-0.841525
-0.279433
-2.95499
-5.70968
-6.53235
-6.47076
-6.03664
-5.45704
-4.83106
-4.20154
-3.58604
-2.99052
-2.41545
-1.85865
-1.31671
-0.785636
-0.261144
-1.60816
-3.75925
-4.7862
-5.08324
-4.97085
-4.64329
-4.20815
-3.7231
-3.21849
-2.70981
-2.20443
-1.70522
-1.2125
-0.725168
-0.241322
-1.00108
-2.58942
-3.5469
-3.98001
-4.05444
-3.90421
-3.61986
-3.25822
-2.85373
-2.42677
-1.98912
-1.54728
-1.10455
-0.66227
-0.220662
-0.681381
-1.85766
-2.67172
-3.12582
-3.29401
-3.25823
-3.08521
-2.82308
-2.50455
-2.15114
-1.7767
-1.38994
-0.996262
-0.598903
-0.199803
-0.491177
-1.37742
-2.0465
-2.47015
-2.6752
-2.70754
-2.61242
-2.42707
-2.17957
-1.8901
-1.57281
-1.2374
-0.890524
-0.53674
-0.179294
-0.367714
-1.04797
-1.5917
-1.96626
-2.1763
-2.24534
-2.20228
-2.07421
-1.88371
-1.64838
-1.38148
-1.09282
-0.789576
-0.477114
-0.159577
-0.282558
-0.81334
-1.25435
-1.57661
-1.77531
-1.86098
-1.85114
-1.76469
-1.61896
-1.42856
-1.20527
-0.958346
-0.695023
-0.42101
-0.140983
-0.221244
-0.641042
-0.999455
-1.27276
-1.45279
-1.54292
-1.55319
-1.49633
-1.38521
-1.23156
-1.04545
-0.835257
-0.607887
-0.369078
-0.123734
-0.175684
-0.511366
-0.803654
-1.03368
-1.19268
-1.2803
-1.30185
-1.26563
-1.18099
-1.0571
-0.902348
-0.724088
-0.52869
-0.32168
-0.107958
-0.141017
-0.411821
-0.651081
-0.843922
-0.982127
-1.06356
-1.09061
-1.06855
-1.00401
-0.904071
-0.775561
-0.624813
-0.457552
-0.278942
-0.0937063
-0.114147
-0.334178
-0.530739
-0.692095
-0.810994
-0.884559
-0.913482
-0.900946
-0.85162
-0.770869
-0.66421
-0.537001
-0.394292