/*--------------------------------*- C++ -*----------------------------------*\
| =========                 |                                                 |
| \\      /  F ield         | OpenFOAM: The Open Source CFD Toolbox           |
|  \\    /   O peration     | Version:  5.x                                   |
|   \\  /    A nd           | Web:      www.OpenFOAM.org                      |
|    \\/     M anipulation  |                                                 |
\*---------------------------------------------------------------------------*/
FoamFile
{
    version     2.0;
    format      ascii;
    class       volScalarField;
    location    "7.8";
    object      gradTy;
}
// * * * * * * * * * * * * * * * * * * * * * * * * * * * * * * * * * * * * * //

dimensions      [0 -1 0 1 0 0 0];

internalField   nonuniform List<scalar> 
6300
(
1038.89
1116.95
1195.8
1275.96
1357.91
1442.11
1528.94
1618.71
1711.66
1807.86
1907.3
2009.78
2114.94
2222.27
2331.11
-0.400678
-1.19448
-1.96495
-2.69453
-3.36278
-3.94575
-4.41575
-4.74206
-4.89268
-4.8374
-4.55226
-4.02487
-3.2597
-2.28178
-1.13701
-0.676213
-2.01673
-3.32041
-4.5591
-5.69951
-6.70185
-7.51927
-8.09858
-8.38301
-8.31734
-7.85572
-6.97167
-5.66859
-3.98786
-2.01063
-0.963664
-2.87582
-4.74083
-6.52186
-8.1742
-9.64278
-10.8608
-11.7498
-12.2233
-12.1931
-11.5814
-10.3373
-8.45499
-5.99028
-3.06681
-1.26626
-3.78201
-6.2452
-8.61328
-10.8326
-12.8342
-14.5311
-15.8166
-16.5671
-16.6501
-15.9395
-14.341
-11.8237
-8.45145
-4.40091
-1.5856
-4.74069
-7.84456
-10.8534
-13.7084
-16.3302
-18.6125
-20.418
-21.5783
-21.9003
-21.1852
-19.2634
-16.047
-11.5906
-6.13634
-1.92105
-5.75057
-9.53893
-13.247
-16.8174
-20.1656
-23.1704
-25.6645
-27.4275
-28.1874
-27.6372
-25.48
-21.5101
-15.7275
-8.44798
-2.26905
-6.80152
-11.3134
-15.7782
-20.1484
-24.3442
-28.2388
-31.6415
-34.2794
-35.7841
-35.696
-33.5091
-28.7854
-21.3613
-11.6039
-2.62263
-7.87294
-13.1349
-18.4037
-23.6535
-28.8235
-33.7987
-38.383
-42.2641
-44.973
-45.8531
-44.0744
-38.761
-29.328
-16.0574
-2.9711
-8.93261
-14.9493
-21.0481
-27.2382
-33.4972
-39.7489
-45.8272
-51.4204
-55.9899
-58.6685
-58.1739
-52.8558
-41.1323
-22.6683
-3.30025
-9.93699
-16.6814
-23.6009
-30.7535
-38.1778
-45.8719
-53.7559
-61.5996
-68.8972
-74.6564
-77.0964
-73.3555
-59.6772
-33.3269
-3.5931
-10.8336
-18.2382
-25.9201
-33.9969
-42.5879
-51.8046
-61.7239
-72.3242
-83.342
-93.9627
-102.199
-103.792
-90.8935
-53.0267
-3.83162
-11.5659
-19.5174
-27.8442
-36.7255
-46.3717
-57.034
-69.0101
-82.6304
-98.1828
-115.652
-133.943
-148.72
-147.077
-97.9546
-3.99902
-12.081
-20.421
-29.2133
-38.6888
-49.1388
-60.9489
-74.6511
-91.0035
-111.105
-136.52
-169.199
-210.064
-250.737
-231.659
-4.08246
-12.3378
-20.8722
-29.8987
-39.677
-50.545
-62.9708
-77.641
-95.6263
-118.712
-150.121
-196.267
-271.599
-414.146
-744.217
2431.56
2522.85
2613.62
2703.36
2791.63
2877.97
2962.01
3043.4
3121.87
3197.17
3269.12
3337.57
3402.4
3463.51
3520.85
3574.37
3624.04
3669.85
3711.79
3749.88
3784.15
3814.61
3841.33
3864.33
3883.69
3899.45
3911.7
3920.5
3925.93
3928.05
3926.96
3922.72
3915.42
3905.13
3891.92
3875.87
3857.06
3835.54
3811.4
3784.7
3755.5
3723.89
3689.93
3653.68
3615.21
3574.59
3531.89
3487.15
3440.44
3391.81
3341.32
3289
3234.91
3179.09
3121.58
3062.44
3001.71
2939.44
2875.71
2810.55
2744.04
2676.24
2607.22
2537.04
2465.77
2393.49
2320.27
2246.2
2171.35
2095.85
2019.78
1943.29
1866.51
1789.59
1712.71
1636.05
1559.79
1484.14
1409.29
1335.46
1262.84
1191.63
1122.02
1054.18
988.278
924.444
862.799
803.436
746.415
691.769
0.00787659
1.07579
2.13025
3.13526
4.06236
4.89217
5.61454
6.22753
6.7356
7.14761
7.47478
7.72903
7.9217
8.06275
8.16041
8.22114
8.24981
8.25007
8.2247
8.17598
8.10593
8.01656
7.90991
7.78811
7.65337
7.50792
7.354
7.1938
7.02939
6.8627
6.69547
6.52916
6.3649
6.20342
6.04506
5.88973
5.73704
5.58636
5.43703
5.28849
5.1405
4.99321
4.84724
4.70361
4.56364
4.42873
4.30009
4.17855
4.06431
3.95683
3.85484
3.75641
3.6592
3.5607
3.45862
3.35115
3.23716
3.11633
2.98902
2.85611
2.71863
2.57744
2.43275
2.28389
2.12909
1.96545
1.78913
1.59569
1.38053
1.13948
0.869304
0.568165
0.235885
-0.125938
-0.514024
-0.923655
-1.34902
-1.7836
-2.22047
-2.65257
-3.07278
-3.47393
-3.84871
-4.18964
-4.48907
-4.73943
-4.93366
-5.06593
-5.13227
-5.13125
-0.0305571
1.81378
3.62851
5.34891
6.92502
8.32432
9.5315
10.5461
11.3788
12.0476
12.5739
12.9796
13.2847
13.5066
13.6591
13.7524
13.7943
13.7903
13.7443
13.6599
13.5399
13.3877
13.2065
13
12.7719
12.5259
12.2659
11.9955
11.7184
11.4379
11.1568
10.8778
10.6029
10.3332
10.0694
9.81119
9.55768
9.30763
9.05961
8.81246
8.56556
8.31911
8.07419
7.83273
7.59725
7.37045
7.15478
6.9519
6.76235
6.58527
6.41836
6.25807
6.10001
5.93952
5.77229
5.59497
5.40555
5.20359
4.99004
4.76689
4.53648
4.30081
4.06077
3.81553
3.56216
3.29556
3.00881
2.69371
2.34177
1.94517
1.49784
0.996229
0.439899
-0.16835
-0.822661
-1.51463
-2.23397
-2.96929
-3.70869
-4.44022
-5.15202
-5.83226
-6.46887
-7.04928
-7.56039
-7.98884
-8.32188
-8.5486
-8.66143
-8.65744
-0.132278
2.59495
5.26323
7.77101
10.043
12.0339
13.7266
15.1274
16.259
17.1538
17.8478
18.3758
18.7687
19.0516
19.2438
19.3588
19.4061
19.3919
19.3206
19.1959
19.0216
18.8017
18.5409
18.2442
17.9172
17.5652
17.1938
16.8082
16.4137
16.0149
15.6164
15.222
14.8345
14.4559
14.087
13.7271
13.3746
13.0272
12.6822
12.3373
11.9912
11.644
11.2973
10.9544
10.6195
10.2973
9.99217
9.70718
9.44356
9.20017
8.97343
8.75758
8.54539
8.32909
8.10152
7.85719
7.59297
7.30848
7.00585
6.68904
6.36279
6.03135
5.69714
5.35972
5.01508
4.65551
4.27006
3.84555
3.36805
2.82465
2.20522
1.50377
0.719333
-0.143793
-1.07646
-2.06557
-3.09533
-4.14854
-5.20772
-6.25577
-7.27623
-8.25295
-9.16948
-10.0083
-10.7503
-11.3753
-11.8628
-12.1949
-12.3585
-12.3481
-0.319734
3.46093
7.12897
10.5325
13.5658
16.1729
18.3422
20.0964
21.4803
22.5494
23.3608
23.9668
24.4112
24.7275
24.9397
25.0631
25.1068
25.076
24.974
24.8038
24.5691
24.2749
23.9271
23.5326
23.0988
22.633
22.1425
21.6343
21.1153
20.5921
20.0706
19.5564
19.0537
18.5652
18.0919
17.6327
17.1847
16.7437
16.305
15.8643
15.4189
14.9685
14.5155
14.065
13.6239
13.2001
12.801
12.4321
12.0961
11.7915
11.5132
11.2522
10.9971
10.7353
10.4553
10.1484
9.80998
9.4399
9.04245
8.62515
8.19697
7.76625
7.33851
6.91467
6.48984
6.05307
5.58792
5.07403
4.48954
3.81395
3.03105
2.13113
1.11241
-0.0187688
-1.24864
-2.55765
-3.92259
-5.31889
-6.72242
-8.11071
-9.46308
-10.76
-11.9817
-13.1063
-14.1086
-14.9593
-15.6274
-16.0836
-16.3058
-16.2838
-0.608336
4.48943
9.37597
13.8275
17.7027
20.9425
23.556
25.5993
27.1556
28.3168
29.1703
29.7914
30.2388
30.5544
30.7644
30.883
30.9157
30.8636
30.7266
30.5055
30.2034
29.8262
29.3816
28.8788
28.3276
27.7375
27.1178
26.4772
25.8243
25.1678
24.5157
23.8756
23.2536
22.6539
22.0777
21.5233
20.9859
20.4582
19.9319
19.3992
18.8549
18.2979
17.7314
17.1633
16.6046
16.0685
15.5673
15.1109
14.7043
14.3462
14.0292
13.7396
13.4594
13.1686
12.8488
12.4862
12.0735
11.6117
11.1086
10.5778
10.0357
9.49775
8.97516
8.47188
7.98263
7.49232
6.97675
6.40497
5.74296
4.95853
4.02608
2.93029
1.66812
0.249057
-1.30619
-2.96851
-4.70405
-6.47815
-8.25845
-10.0168
-11.7292
-13.3748
-14.9331
-16.3801
-17.6844
-18.8057
-19.6965
-20.3089
-20.6042
-20.5635
-1.00106
5.82203
12.2492
17.9523
22.7541
26.6137
29.59
31.8031
33.3997
34.5267
35.3143
35.8659
36.2563
36.533
36.7206
36.8263
36.8465
36.7735
36.6002
36.3236
35.9461
35.4746
34.9199
34.2948
33.6124
32.8848
32.1232
31.3378
30.5389
29.7372
28.9437
28.1688
27.4218
26.709
26.0325
25.3899
24.7735
24.1711
23.5683
22.951
22.3098
21.6413
20.9501
20.2481
19.5533
18.8868
18.2696
17.7185
17.2428
16.8422
16.506
16.2138
15.9372
15.6441
15.3045
14.8961
14.4082
13.8431
13.2148
12.5472
11.8687
11.2074
10.5843
10.0091
9.47723
8.96818
8.44679
7.86607
7.17292
6.3165
5.25658
3.96929
2.45
0.713266
-1.20928
-3.27363
-5.42966
-7.62811
-9.8258
-11.9885
-14.0909
-16.1149
-18.0445
-19.8589
-21.5234
-22.9834
-24.1662
-24.9904
-25.3859
-25.3165
-1.47046
7.72446
16.1645
23.3741
29.1615
33.5553
36.7217
38.8931
40.3179
41.224
41.7963
42.1708
42.4358
42.6385
42.7933
42.8913
42.9101
42.8261
42.6208
42.2857
41.8224
41.2412
40.5581
39.7919
38.9608
38.0798
37.1614
36.2164
35.2563
34.2937
33.3434
32.4208
31.5397
30.7104
29.9374
29.2177
28.5397
27.8837
27.2243
26.5365
25.8028
25.0164
24.1834
23.3218
22.4601
21.633
20.8758
20.2167
19.6724
19.2444
18.9186
18.6646
18.4378
18.1857
17.8582
17.4196
16.8533
16.1644
15.377
14.5313
13.6763
12.861
12.1234
11.4834
10.9381
10.4611
10.0016
9.48838
8.83732
7.96684
6.81386
5.34179
3.54442
1.44452
-0.908624
-3.44718
-6.09453
-8.77944
-11.4438
-14.0472
-16.5658
-18.991
-21.3217
-23.5534
-25.6566
-27.5603
-29.1518
-30.2889
-30.8365
-30.7233
-1.91536
10.7131
21.8507
30.8425
37.5744
42.2629
45.2839
47.0555
47.9805
48.3987
48.5601
48.6306
48.7018
48.8099
48.9448
49.0669
49.1189
49.0502
48.8251
48.4292
47.8654
47.1513
46.3128
45.3795
44.3778
43.3255
42.2347
41.1141
39.9741
38.8297
37.7005
36.6101
35.5803
34.6283
33.7628
32.9827
32.2717
31.5988
30.9186
30.1856
29.3691
28.4562
27.4554
26.3931
25.3148
24.2764
23.3384
22.5473
21.932
21.4973
21.2258
21.0738
20.9728
20.8335
20.5699
20.1248
19.473
18.6255
17.621
16.5269
15.4247
14.4009
13.5202
12.8194
12.299
11.9268
11.6318
11.3075
10.816
10.0223
8.82905
7.18119
5.07307
2.53907
-0.342275
-3.46524
-6.70641
-9.96141
-13.1504
-16.2286
-19.176
-22.0035
-24.742
-27.4333
-30.0774
-32.5869
-34.7917
-36.4361
-37.2387
-37.0531
-2.03272
15.8477
30.6253
41.5638
48.9288
53.371
55.6441
56.436
56.3713
55.9418
55.453
55.0877
54.9126
54.9409
55.1129
55.3416
55.4995
55.4979
55.2736
54.8129
54.123
53.2387
52.2022
51.0642
49.8657
48.6254
47.3491
46.0382
44.697
43.3423
42.0003
40.7111
39.5073
38.4202
37.4642
36.6468
35.9477
35.3232
34.6878
33.9539
33.0733
32.0214
30.8149
29.4863
28.1111
26.7743
25.5883
24.6236
23.9309
23.5138
23.3602
23.4083
23.5621
23.6594
23.5421
23.1266
22.3736
21.3116
19.993
18.5333
17.0592
15.7339
14.6568
13.895
13.4453
13.2807
13.3036
13.3665
13.229
12.6526
11.4981
9.6827
7.21436
4.13328
0.571535
-3.31351
-7.29871
-11.2388
-15.0166
-18.5986
-21.9588
-25.1442
-28.2302
-31.3808
-34.692
-38.052
-41.2383
-43.7949
-45.0634
-44.7364
-0.884691
25.4499
44.9273
57.4295
64.4912
67.6025
68.1382
67.0514
65.2887
63.5719
62.1695
61.2726
60.8323
60.8669
61.2011
61.7202
62.1116
62.2685
62.0645
61.5287
60.663
59.5477
58.2404
56.8385
55.4166
53.9797
52.5163
51.0086
49.4421
47.8396
46.2268
44.6918
43.2693
42.0263
40.9689
40.1436
39.5191
39.066
38.6017
37.9362
37.0269
35.812
34.3532
32.6495
30.8547
29.058
27.5222
26.3108
25.5356
25.1537
25.2066
25.5934
26.235
26.7968
26.9458
26.6171
25.7212
24.3697
22.5704
20.563
18.4815
16.7118
15.3417
14.5232
14.183
14.3669
14.9195
15.7159
16.2758
16.1171
15.1207
13.1262
10.2398
6.42146
1.95274
-3.01573
-7.95423
-12.7478
-17.1633
-21.2863
-24.9916
-28.4265
-31.6238
-35.0954
-39.2347
-43.7656
-48.5901
-53.0073
-55.1844
-54.5102
4.81095
44.9266
69.2741
81.1285
85.7402
85.5401
82.966
78.6375
74.1376
70.747
68.1557
66.7975
66.0659
66.3592
67.0207
68.2805
69.059
69.5564
69.331
68.7171
67.5601
66.1309
64.4123
62.6392
60.9871
59.37
57.7451
56.0618
54.2368
52.3501
50.3394
48.5087
46.7714
45.3633
44.1376
43.3497
42.8422
42.8236
42.8039
42.2681
41.419
39.9525
38.2424
35.9427
33.5995
30.9648
28.9874
27.3686
26.5728
26.166
26.571
27.4101
29.0216
30.5273
31.0362
30.9229
29.7238
28.0712
25.4462
22.6982
19.4533
17.1131
15.2313
14.4613
14.1647
14.9212
16.1832
18.4048
20.3563
20.7871
20.1793
17.8532
14.6063
9.64528
4.05279
-2.7618
-8.81906
-14.8018
-19.7314
-24.5756
-28.4138
-32.0511
-34.6224
-37.8485
-43.2131
-49.0559
-56.5281
-65.4449
-69.4107
-67.7082
28.4542
87.1083
111.61
115.257
113.917
106.895
100.318
90.4684
81.3871
76.7692
72.3642
71.4183
69.8216
71.3194
71.9767
75.5318
76.4095
77.883
77.155
76.6859
74.8474
73.1288
70.6612
68.2639
66.5057
64.7698
63.0566
61.3177
59.1189
57.038
54.1914
52.1901
49.798
48.4366
46.6751
46.1507
45.4605
46.5817
47.7482
47.05
46.6993
44.443
42.98
39.2973
36.7632
31.9243
29.9355
27.2405
27.0488
26.0084
27.3097
28.1136
31.9596
35.6925
36.0214
36.7915
34.3784
33.1719
28.4982
25.548
19.1217
16.8534
13.519
13.717
12.6291
14.7468
16.0643
21.4817
26.6257
26.9517
27.7116
23.9054
21.4404
13.7778
7.91213
-3.59882
-9.79156
-18.3725
-22.4227
-29.3138
-32.1251
-37.2108
-36.6777
-37.522
-46.5023
-51.9997
-62.3849
-85.0112
-91.7983
-86.8006
133.115
178.466
183.972
156.563
150.274
127.607
122.383
101.191
82.2086
82.4844
71.5912
76.9755
69.121
77.4895
72.7594
86.638
82.9017
89.3793
84.6059
86.6262
81.9619
81.2054
76.8089
72.9685
71.9925
70.1368
68.4057
67.2362
63.8316
62.8291
56.8268
56.4349
51.3414
52.087
47.4318
49.1915
45.471
50.2755
55.3783
51.3326
54.7244
47.7918
50.9145
40.9991
43.2466
28.7804
31.9015
23.5086
28.7477
22.4798
28.7652
24.4373
35.061
45.76
40.3721
47.2442
37.2963
43.2658
29.069
33.4041
12.8034
18.1295
6.72053
14.8251
6.47778
15.7254
10.0421
24.9529
39.8331
32.4917
41.8195
28.0264
35.7596
15.323
19.9012
-12.0933
-7.32432
-28.4664
-21.0222
-39.9258
-32.5601
-50.4604
-36.7487
-25.4785
-54.8059
-47.9039
-50.6132
-127.384
-131.154
-116.333
649.99
327.199
303.728
167.453
210.212
123.196
167.439
108.729
55.2947
104.28
47.3754
101.593
45.0564
102.519
46.7422
123.107
74.6823
117.074
82.2704
106.189
83.4462
94.5204
82.1529
73.5453
78.7432
75.3217
72.9434
76.3705
65.0828
75.8176
51.381
67.4477
44.4743
63.5124
38.9492
60.1217
33.204
53.5375
76.1805
44.903
77.6146
36.6592
77.6219
25.1846
73.7959
0.309233
50.4459
0.145103
47.0152
0.872704
45.502
-0.770702
38.0524
78.9905
27.0667
81.9158
17.2912
82.3974
2.95233
77.1658
-30.8512
43.5028
-28.1789
39.6227
-25.0116
38.2029
-25.6371
28.4667
85.038
14.0264
89.2199
1.14805
90.6419
-19.1543
84.554
-73.528
32.4541
-79.7248
18.3187
-88.3655
3.38762
-109.231
-33.304
45.0256
-115.279
-29.9673
67.8075
-274.876
-197.281
-165.604
634.271
574.917
518.82
465.818
415.705
368.248
323.191
280.27
239.218
199.766
161.653
124.623
88.427
52.8214
17.5681
-5.0576
-4.88897
-4.6442
-4.33845
-3.98784
-3.6077
-3.21123
-2.80894
-2.40843
-2.01458
-1.62993
-1.25509
-0.889245
-0.530516
-0.17632
-8.52725
-8.23274
-7.808
-7.28056
-6.67927
-6.03101
-5.35858
-4.67966
-4.00671
-3.34747
-2.70566
-2.08184
-1.47418
-0.879161
-0.292142
-12.1492
-11.7066
-11.0743
-10.2964
-9.41753
-8.4784
-7.51233
-6.5443
-5.59121
-4.66286
-3.76336
-2.8924
-2.04645
-1.21979
-0.405225
-15.9965
-15.3697
-14.4862
-13.4129
-12.2159
-10.9526
-9.66792
-8.39393
-7.15087
-5.94934
-4.79246
-3.67788
-2.59942
-1.54831
-0.514184
-20.1568
-19.2893
-18.0875
-16.6529
-15.0804
-13.4479
-11.8127
-10.2125
-8.66888
-7.19106
-5.77918
-4.4272
-3.12499
-1.85981
-0.617379
-24.7407
-23.5429
-21.9212
-20.0303
-18.0046
-15.9458
-13.9222
-11.9742
-10.121
-8.36674
-6.70591
-5.12669
-3.61348
-2.14852
-0.712897
-29.8936
-28.2201
-26.0238
-23.5422
-20.9616
-18.4081
-15.9559
-13.6411
-11.4739
-9.44886
-7.55094
-5.76008
-4.05365
-2.40788
-0.798572
-35.8146
-33.4198
-30.4113
-27.1527
-23.8911
-20.7687
-17.852
-15.1599
-12.6846
-10.4037
-8.28877
-6.30894
-4.43309
-2.63073
-0.872075
-42.7788
-39.2327
-35.0487
-30.7658
-26.6812
-22.9233
-19.523
-16.4619
-13.7005
-11.1924
-8.89138
-6.7537
-4.73899
-2.80982
-0.93106
-51.1524
-45.6825
-39.7842
-34.18
-29.1441
-24.72
-20.8545
-17.464
-14.4628
-11.7739
-9.33049
-7.07539
-4.95926
-2.93847
-0.973385
-61.332
-52.5602
-44.2248
-37.0254
-30.9947
-25.9578
-21.7108
-18.0763
-14.9127
-12.1098
-9.5811
-7.25801
-5.08409
-3.01138
-0.997379
-73.327
-59.0005
-47.529
-38.7014
-31.851
-26.4051
-21.9542
-18.2174
-15.0018
-12.1711
-9.62599
-7.29134
-5.10762
-3.02553
-1.00211
-84.9486
-62.5847
-48.1885
-38.3996
-31.3023
-25.8571
-21.4829
-17.8372
-14.7057
-11.9465
-9.46028
-7.17361
-5.02943
-2.98095
-0.987641
-84.6957
-58.2002
-44.2398
-35.4054
-29.1011
-24.2377
-20.2829
-16.9424
-14.0371
-11.4488
-9.09485
-6.91327
-4.85547
-2.88117
-0.955123
-4.08301
-12.339
-20.8726
-29.8961
-39.6687
-50.5284
-62.9446
-77.6096
-95.6096
-118.775
-150.462
-197.487
-275.47
-425.103
-765.298
-4.01462
-12.1275
-20.4977
-29.3201
-38.8283
-49.3202
-61.1962
-75.0207
-91.6223
-112.259
-138.861
-174.217
-220.971
-272.663
-259.211
-3.88814
-11.7371
-19.8086
-28.2675
-37.3043
-47.1502
-58.0942
-70.5026
-84.832
-101.599
-121.179
-143.032
-163.041
-165.461
-103.793
-3.71117
-11.1919
-18.8505
-26.8132
-35.2181
-44.2173
-53.9746
-64.6499
-76.3485
-88.9826
-101.918
-113.126
-117.324
-102.761
-49.7048
-3.49358
-10.5233
-17.6808
-25.0516
-32.7189
-40.7575
-49.2169
-58.0859
-67.2147
-76.1566
-83.856
-88.0868
-84.6331
-66.7939
-27.8059
-3.24641
-9.76574
-16.363
-23.0838
-29.9616
-37.0049
-44.1744
-51.3409
-58.2101
-64.1929
-68.202
-68.3831
-61.9312
-45.5126
-17.4509
-2.98081
-8.95401
-14.9591
-21.0069
-27.0892
-33.1644
-39.1334
-44.8018
-49.8202
-53.5992
-55.2057
-53.2853
-46.1497
-32.3163
-11.8459
-2.70712
-8.12004
-13.5255
-18.9057
-24.2214
-29.3973
-34.3009
-38.7136
-42.2902
-44.5135
-44.6581
-41.8088
-35.0188
-23.7288
-8.47793
-2.43431
-7.29121
-12.1092
-16.8492
-21.4506
-25.8189
-29.8092
-33.2057
-35.6997
-36.8708
-36.1892
-33.0684
-27.0126
-17.8917
-6.29384
-2.16962
-6.48934
-10.7469
-14.8886
-18.8415
-22.5029
-25.7294
-28.3243
-30.0276
-30.5143
-29.4136
-26.3658
-21.1347
-13.7744
-4.79708
-1.91848
-5.73056
-9.46492
-13.0592
-16.4346
-19.4887
-22.0881
-24.0619
-25.2
-25.2598
-23.99
-21.1793
-16.735
-10.7801
-3.7286
-1.68458
-5.0257
-8.28013
-11.3815
-14.2506
-16.7902
-18.881
-20.3797
-21.121
-20.9285
-19.6361
-17.1269
-13.3843
-8.54714
-2.94184
-1.47014
-4.38099
-7.20155
-9.86507
-12.2952
-14.403
-16.0849
-17.2231
-17.6905
-17.3607
-16.1272
-13.931
-10.7935
-6.84754
-2.34836
-1.27613
-3.79893
-6.23193
-8.51057
-10.5636
-12.3116
-13.6661
-14.5323
-14.8133
-14.4202
-13.2867
-11.3884
-8.76421
-5.53204
-1.89203
-1.10255
-3.27919
-5.36945
-7.31262
-9.04377
-10.4931
-11.5864
-12.2478
-12.4042
-11.9938
-10.9771
-9.34997
-7.15696
-4.4997
-1.53571
-0.948738
-2.81941
-4.60906
-6.26184
-7.71955
-8.92169
-9.80654
-10.3137
-10.3885
-9.98843
-9.09131
-7.70435
-5.87205
-3.68033
-1.25399
-0.813528
-2.41585
-3.94367
-5.34645
-6.57272
-7.57055
-8.28884
-8.67977
-8.70247
-8.32807
-7.54558
-6.36792
-4.83667
-3.02383
-1.02895
-0.695485
-2.064
-3.36508
-4.55359
-5.58447
-6.41345
-6.99839
-7.30145
-7.29211
-6.95103
-6.2742
-5.27697
-3.9968
-2.49372
-0.847675
-0.593028
-1.75897
-2.86462
-3.87013
-4.73636
-5.42576
-5.90363
-6.13999
-6.11206
-5.80706
-5.22524
-4.38245
-3.31167
-2.06288
-0.700625
-0.504536
-1.49577
-2.43368
-3.28335
-4.01101
-4.58491
-4.9765
-5.162
-5.12434
-4.85527
-4.35747
-3.64621
-2.75013
-1.71081
-0.580646
-0.428423
-1.2696
-2.064
-2.78126
-3.39239
-3.87062
-4.19245
-4.33894
-4.29727
-4.06227
-3.63789
-3.03827
-2.28804
-1.42179
-0.482282
-0.363188
-1.07589
-1.74786
-2.35283
-2.86603
-3.26491
-3.5301
-3.6465
-3.6044
-3.40073
-3.03998
-2.53488
-1.90651
-1.18364
-0.401311
-0.30744
-0.910471
-1.47823
-1.98812
-2.41903
-2.752
-2.97105
-3.06408
-3.02371
-2.84825
-2.54227
-2.11707
-1.59058
-0.986759
-0.334431
-0.259918
-0.769535
-1.24876
-1.67824
-2.04002
-2.31817
-2.4995
-2.57425
-2.53681
-2.38636
-2.12732
-1.76958
-1.32833
-0.823558
-0.279031
-0.219491
-0.649696
-1.05383
-1.41536
-1.71905
-1.95155
-2.10193
-2.16231
-2.12837
-1.99987
-1.7809
-1.48006
-1.11018
-0.687955
-0.233025
-0.185155
-0.547957
-0.888471
-1.19262
-1.44751
-1.64194
-1.76684
-1.81583
-1.78558
-1.67617
-1.49133
-1.23845
-0.928388
-0.575054
-0.19474
-0.156031
-0.461691
-0.748358
-1.00408
-1.21795
-1.38058
-1.48446
-1.52437
-1.49773
-1.40483
-1.24899
-1.03654
-0.776631
-0.480883
-0.16282
-0.131351
-0.388609
-0.629729
-0.844579
-1.02397
-1.16001
-1.24648
-1.27911
-1.25588
-1.17719
-1.04596
-0.867574
-0.649755
-0.402203
-0.136159
-0.110449
-0.326731
-0.529336
-0.709698
-0.860075
-0.973861
-1.04588
-1.07264
-1.05254
-0.98603
-0.875651
-0.725987
-0.543521
-0.33636
-0.113855
-0.0927502
-0.274348
-0.444384
-0.595633
-0.721583
-0.816704
-0.876693
-0.898683
-0.881411
-0.825325
-0.732616
-0.607171
-0.454432
-0.281168
-0.0951625
-0.0777607
-0.229991
-0.372475
-0.49913
-0.604492
-0.683937
-0.733887
-0.751986
-0.737229
-0.690043
-0.612307
-0.507303
-0.379592
-0.234822
-0.0794693
-0.0650558
-0.192401
-0.311553
-0.41741
-0.505393
-0.571644
-0.613193
-0.628099
-0.615559
-0.575969
-0.510928
-0.423198
-0.316594
-0.195822
-0.0662659
-0.0542716
-0.160497
-0.259862
-0.348097
-0.421381
-0.4765
-0.510993
-0.523264
-0.512669
-0.479563
-0.4253
-0.352196
-0.263431
-0.162919
-0.0551284
-0.0450962
-0.133356
-0.215897
-0.289164
-0.349978
-0.395675
-0.42422
-0.434303
-0.425407
-0.397843
-0.352752
-0.292065
-0.218424
-0.135071
-0.0457027
-0.0372623
-0.110186
-0.178371
-0.238874
-0.28907
-0.326758
-0.350264
-0.358518
-0.351104
-0.328291
-0.291032
-0.240927
-0.180158
-0.111398
-0.0376913
-0.0305398
-0.0903042
-0.146177
-0.195741
-0.236844
-0.267685
-0.286897
-0.293609
-0.28749
-0.268768
-0.23823
-0.197191
-0.147439
-0.0911609
-0.0308429
-0.0247306
-0.0731246
-0.118361
-0.158482
-0.191742
-0.216685
-0.232207
-0.237608
-0.232625
-0.217448
-0.192719
-0.159503
-0.119251
-0.0737281
-0.0249441
-0.0196622
-0.0581367
-0.0940976
-0.125986
-0.152414
-0.172225
-0.184544
-0.188816
-0.184836
-0.17276
-0.153098
-0.126701
-0.0947205
-0.0585595
-0.0198117
-0.0151836
-0.044894
-0.072661
-0.0972801
-0.11768
-0.132966
-0.142466
-0.145752
-0.142668
-0.133336
-0.118153
-0.0977755
-0.0730924
-0.0451868
-0.0152872
-0.0111612
-0.0330002
-0.0534098
-0.0715038
-0.0864943
-0.0977252
-0.104701
-0.10711
-0.104838
-0.0979755
-0.0868146
-0.0718387
-0.0537014
-0.0331982
-0.0112312
-0.00747424
-0.0220989
-0.0357659
-0.0478819
-0.0579189
-0.0654379
-0.0701073
-0.0717184
-0.0701951
-0.0655984
-0.0581243
-0.0480966
-0.0359529
-0.0222258
-0.00751912
-0.00401206
-0.0118624
-0.0191989
-0.0257031
-0.0310917
-0.0351288
-0.0376364
-0.0385024
-0.0376856
-0.0352187
-0.0312067
-0.0258234
-0.0193037
-0.0119335
-0.0040372
-0.000670487
-0.0019827
-0.00320978
-0.00429884
-0.00520262
-0.0058815
-0.00630528
-0.00645456
-0.00632176
-0.00591161
-0.00524115
-0.00433913
-0.00324487
-0.00200651
-0.000678907
0.00265111
0.00783794
0.0126835
0.0169768
0.0205303
0.0231887
0.0248353
0.0253974
0.0248495
0.0232147
0.0205636
0.0170116
0.0127139
0.00785855
0.0026584
0.00605282
0.0178955
0.0289603
0.0387659
0.0468845
0.0529612
0.0567287
0.0580199
0.0567754
0.0530465
0.0469937
0.0388801
0.0290597
0.0179629
0.00607669
0.00963709
0.0284929
0.0461113
0.061726
0.0746563
0.0843366
0.090341
0.0924026
0.0904258
0.0844915
0.0748545
0.0619332
0.0462917
0.0286154
0.00968042
0.0135118
0.0399493
0.0646531
0.0865496
0.104684
0.118264
0.12669
0.129589
0.126823
0.118507
0.104995
0.0868747
0.0649363
0.0401415
0.0135798
0.0177935
0.0526092
0.0851439
0.113984
0.137874
0.155768
0.166878
0.170706
0.167075
0.156128
0.138335
0.114467
0.0855637
0.0528941
0.0178942
0.0226104
0.0668525
0.108199
0.144856
0.175227
0.197982
0.212119
0.217003
0.212404
0.198503
0.175893
0.145553
0.108806
0.0672643
0.0227561
0.0281069
0.0831057
0.13451
0.180091
0.217866
0.24618
0.263783
0.269884
0.26419
0.246924
0.218818
0.181087
0.135377
0.083694
0.028315
0.0344469
0.101854
0.164863
0.220746
0.267072
0.301813
0.323431
0.330952
0.324009
0.302869
0.268424
0.222159
0.166094
0.102689
0.0347424
0.0418189
0.123656
0.200164
0.268035
0.324321
0.366555
0.392866
0.402061
0.393685
0.36805
0.326234
0.270036
0.201906
0.124838
0.0422372
0.0504411
0.149156
0.24146
0.323367
0.391324
0.442352
0.474184
0.485368
0.47534
0.444465
0.394029
0.326196
0.243923
0.150828
0.0510325
0.0605675
0.179108
0.289972
0.388384
0.470078
0.531474
0.569835
0.583399
0.571469
0.534459
0.4739
0.39238
0.293452
0.18147
0.0614029
0.0724946
0.21439
0.347128
0.465007
0.562924
0.636586
0.682699
0.699129
0.685007
0.640802
0.56832
0.47065
0.352042
0.217726
0.0736744
0.0865692
0.256029
0.414598
0.555487
0.672608
0.760822
0.816171
0.836066
0.819429
0.766775
0.680227
0.563455
0.421537
0.260739
0.0882351
0.103197
0.305229
0.494341
0.662468
0.802358
0.907872
0.974255
0.998365
0.978855
0.916277
0.813115
0.673717
0.504137
0.311879
0.105549
0.122853
0.363399
0.588651
0.78905
0.955972
1.08209
1.16168
1.19094
1.16818
1.09395
0.971158
0.804931
0.602482
0.372786
0.126174
0.146092
0.432184
0.700216
0.938871
1.13791
1.2886
1.38405
1.41964
1.39322
1.30535
1.15935
0.961291
0.719741
0.445437
0.15078
0.173561
0.513507
0.832172
1.11619
1.35342
1.53344
1.64799
1.69139
1.66093
1.55709
1.38369
1.14784
0.859737
0.532217
0.180179
0.206011
0.609602
0.988181
1.32599
1.60865
1.82374
1.9613
2.01441
1.97957
1.85712
1.65137
1.37067
1.0271
0.636018
0.215355
0.244312
0.723061
1.17249
1.57407
1.91079
2.16785
2.33325
2.39848
2.35904
2.21497
1.9711
1.63715
1.22743
0.760358
0.257506
0.289467
0.856874
1.39002
1.86716
2.26824
2.57559
2.77475
2.8552
2.81114
2.64209
2.35337
1.95621
1.46759
0.909534
0.308097
0.342625
1.01447
1.64643
2.21307
2.69074
3.05843
3.29865
3.39836
3.35
3.15229
2.81091
2.33878
1.75595
1.08883
0.368932
0.405091
1.19975
1.94818
2.62072
3.1896
3.62978
3.92008
4.04432
3.99255
3.76224
3.35921
2.7982
2.10282
1.30475
0.442243
0.478334
1.41712
2.3026
3.10035
3.77778
4.30516
4.65678
4.81245
4.75904
4.49209
4.01719
3.35091
2.52096
1.56543
0.53081
0.563987
1.6715
2.71792
3.66349
4.47014
5.10255
5.52952
5.72573
5.67377
5.3663
4.80802
4.01723
3.0263
1.88099
0.638125
0.663842
1.96829
3.20324
4.32305
5.28345
6.04255
6.56244
6.81128
6.76588
6.41461
5.76028
4.82248
3.63882
2.26429
0.768613
0.779822
2.31333
3.76848
5.09328
6.23649
7.14859
7.78352
8.1011
8.07034
7.67331
6.90931
5.79843
4.38385
2.7317
0.927945
0.913944
2.71276
4.4242
5.98957
7.34995
8.44704
9.2249
9.63273
9.62904
9.18678
8.29916
6.98522
5.29379
3.30435
1.12347
1.06824
3.17284
5.18131
7.02813
8.64616
9.9671
10.9231
11.45
11.4922
11.0094
9.98498
8.43408
6.41064
4.00992
1.36486
1.24467
3.69964
6.05062
8.2255
10.1486
11.7405
12.9192
13.6038
13.7198
13.2081
12.0363
10.211
7.78942
4.88511
1.66504
1.44496
4.29862
7.04216
9.59763
11.8809
13.8006
15.2584
16.1523
16.3831
15.8651
14.5412
12.4019
9.50335
5.97954
2.0416
1.67039
4.97403
8.16423
11.1587
13.8656
16.1813
17.9889
19.1612
19.5664
19.0815
17.6122
15.12
11.6514
7.36151
2.519
1.9216
5.72818
9.42213
12.9193
16.1219
18.9146
21.1606
22.7025
23.3675
22.9812
21.3935
18.516
14.3696
9.12718
3.13216
2.19822
6.56047
10.8166
14.8842
18.6628
22.0272
24.8209
26.8526
27.8984
27.7152
26.0702
22.793
17.8487
11.4154
3.93229
2.49857
7.46636
12.342
17.0496
21.4912
25.536
29.0102
31.687
33.2825
33.4639
31.88
28.2276
22.3617
14.4326
4.99727
2.81925
8.43621
13.9838
19.3995
24.5948
29.4409
33.753
37.2719
39.6484
40.4384
39.1258
35.1992
28.3072
18.4957
6.45051
3.15487
9.45414
15.7171
21.9024
27.9405
33.7162
39.0462
43.6498
47.1156
48.8724
48.1867
44.2298
36.2798
24.1099
8.49799
3.49774
10.4972
17.5041
24.5074
31.4682
38.3008
44.8435
50.8175
55.7693
59.0022
59.5186
56.0329
47.1825
32.114
11.5066
3.8378
11.535
19.2934
27.1415
35.0847
43.0863
51.0353
58.6945
65.6159
71.018
73.6293
71.5609
62.4027
43.9642
16.1857
4.16286
12.5301
21.0203
29.7094
38.6604
47.9077
57.428
67.0833
76.5171
84.9712
90.9889
92.0115
84.067
62.3001
24.054
4.45906
13.4396
22.6087
32.0952
42.0299
52.5392
63.7263
75.6252
88.0978
100.615
111.816
118.688
115.329
92.0793
38.7704
4.71183
14.2181
23.9766
34.1694
44.9999
56.6995
69.5299
83.7679
99.6462
117.173
135.649
152.468
160.403
142.732
70.3142
4.90718
14.8214
25.0426
35.8005
47.3659
60.0741
74.3552
90.7708
110.049
133.07
160.632
192.415
223.258
231.401
149.226
5.03311
15.2114
25.7356
36.8704
48.9378
62.356
77.6974
95.7848
117.851
145.811
182.681
233.014
301.872
382.791
378.328
5.08116
15.361
26.0044
37.2922
49.5714
63.3017
79.1319
98.0344
121.56
152.364
195.378
260.747
372.109
593.468
1129.78
5.04753
15.258
25.8255
37.0253
49.1967
62.7885
78.4322
97.0722
120.214
150.435
192.548
256.536
365.956
585.419
1123.19
4.93366
14.907
25.2073
36.0832
47.8353
60.8499
75.6508
92.9827
113.949
140.247
174.527
220.773
283.381
356.315
350.407
4.74611
14.3289
24.1891
34.5324
45.5966
57.6701
71.1111
86.368
103.982
124.514
148.194
173.646
193.631
181.96
60.1948
-53.712
-43.7391
-36.2741
-30.5014
-25.8521
-21.9777
-18.6593
-15.7519
-13.1545
-10.7937
-8.61354
-6.5696
-4.62521
-2.74877
-0.911922
-20.142
-27.8966
-27.5357
-25.117
-22.2779
-19.4844
-16.8615
-14.4279
-12.1684
-10.0581
-8.07052
-6.18019
-4.36336
-2.59783
-0.862605
-9.16156
-17.6896
-20.2259
-20.0242
-18.6719
-16.8724
-14.932
-12.9828
-11.0785
-9.23716
-7.45986
-5.73967
-4.06583
-2.42582
-0.80632
-4.98315
-11.6433
-14.8174
-15.7301
-15.3762
-14.358
-13.0086
-11.5063
-9.94478
-8.37163
-6.80945
-5.26688
-3.74476
-2.23954
-0.745259
-3.1006
-8.01782
-10.979
-12.3154
-12.5417
-12.0734
-11.1912
-10.0709
-8.819
-7.4984
-6.14535
-4.77984
-3.41192
-2.04565
-0.681574
-2.10967
-5.75063
-8.26872
-9.67157
-10.1893
-10.0762
-9.53895
-8.72676
-7.74081
-6.6476
-5.48984
-4.29442
-3.07789
-1.85019
-0.61724
-1.52037
-4.26313
-6.33286
-7.64229
-8.27495
-8.37327
-8.07758
-7.50319
-6.73703
-5.84156
-4.86042
-3.82361
-2.75158
-1.65838
-0.553958
-1.13798
-3.24297
-4.9249
-6.0829
-6.73155
-6.94392
-6.80964
-6.41271
-5.82297
-5.09494
-4.26961
-3.37721
-2.43994
-1.47432
-0.493099
-0.874314
-2.51656
-3.88072
-4.87715
-5.49105
-5.75523
-5.72404
-5.45603
-5.00489
-4.41584
-3.72532
-2.96192
-2.14797
-1.30109
-0.435687
-0.684509
-1.98325
-3.09188
-3.93699
-4.49336
-4.77158
-4.80281
-4.62649
-4.28251
-3.80716
-3.23159
-2.58171
-1.87884
-1.1407
-0.382417
-0.543502
-1.58193
-2.48599
-3.19731
-3.68878
-3.9594
-4.02566
-3.91331
-3.6513
-3.26803
-2.78943
-2.23826
-1.63419
-0.994294
-0.333688
-0.436223
-1.2739
-2.01392
-2.61026
-3.03751
-3.2891
-3.37251
-3.30402
-3.10426
-2.79507
-2.39763
-1.93151
-1.4144
-0.862255
-0.289658
-0.353086
-1.03367
-1.64161
-2.1406
-2.5082
-2.73554
-2.8248
-2.78586
-2.63318
-2.38337
-2.0535
-1.66015
-1.21893
-0.744407
-0.250291
-0.28771
-0.843883
-1.34495
-1.76215
-2.07625
-2.27785
-2.3661
-2.34665
-2.22951
-2.02723
-1.75344
-1.42202
-1.04656
-0.640157
-0.21541
-0.235699
-0.692349
-1.10652
-1.45529
-1.72241
-1.89885
-1.98215
-1.97524
-1.88496
-1.72072
-1.49337
-1.21446
-0.895678
-0.548636
-0.184744
-0.193925
-0.570306
-0.913491
-1.2051
-1.43153
-1.58449
-1.66082
-1.6617
-1.59175
-1.45801
-1.26909
-1.03456
-0.764409
-0.468811
-0.157963
-0.160113
-0.47131