/*--------------------------------*- C++ -*----------------------------------*\
| =========                 |                                                 |
| \\      /  F ield         | OpenFOAM: The Open Source CFD Toolbox           |
|  \\    /   O peration     | Version:  5.x                                   |
|   \\  /    A nd           | Web:      www.OpenFOAM.org                      |
|    \\/     M anipulation  |                                                 |
\*---------------------------------------------------------------------------*/
FoamFile
{
    version     2.0;
    format      ascii;
    class       volScalarField;
    location    "7.8";
    object      gradTx;
}
// * * * * * * * * * * * * * * * * * * * * * * * * * * * * * * * * * * * * * //

dimensions      [0 -1 0 1 0 0 0];

internalField   nonuniform List<scalar> 
6300
(
78.1842
78.7104
79.7522
81.2877
83.2822
85.6859
88.4321
91.4349
94.5877
97.7645
100.822
103.605
105.959
107.737
108.817
77.656
78.1927
79.2565
80.8267
82.8708
85.3413
88.1735
91.2826
94.5617
97.8817
101.093
104.033
106.533
108.433
109.601
76.589
77.1461
78.2521
79.8899
82.0309
84.6329
87.6358
90.9579
94.4924
98.1049
101.634
104.898
107.702
109.86
111.211
74.963
75.5485
76.7141
78.4476
80.7281
83.5216
86.7768
90.4188
94.3429
98.4089
102.439
106.22
109.516
112.091
113.738
72.7496
73.3689
74.6061
76.4565
78.91
81.9464
85.5288
89.5954
94.0492
98.7468
103.49
108.024
112.049
115.248
117.336
69.9148
70.5696
71.8828
73.8603
76.5071
79.8231
83.7944
88.3828
93.5094
99.0366
104.748
110.336
115.406
119.514
122.241
66.4233
67.11
68.4934
70.5926
73.4331
77.0423
81.441
86.6296
92.5669
99.1399
106.127
113.163
119.722
125.159
128.821
62.2432
62.9517
64.3864
66.5818
69.5885
73.4701
78.2956
84.1257
90.9865
98.8268
107.455
116.463
125.159
132.576
137.645
57.3527
58.0656
59.5167
61.7576
64.8672
68.9519
74.1437
80.589
88.4244
97.7233
108.402
120.073
131.87
142.34
149.633
51.7476
52.4394
53.8556
56.0631
59.1688
63.325
68.7361
75.6603
84.3965
95.2378
108.354
123.555
139.905
155.28
166.343
45.449
46.0874
47.4012
49.4688
52.4181
56.4412
61.8137
68.9175
78.2616
90.4752
106.218
125.886
148.912
172.528
190.608
38.5104
39.0583
40.1917
41.991
44.5918
48.2065
53.158
59.9326
69.2552
82.181
100.155
124.856
157.324
195.309
228.085
31.0223
31.4423
32.3147
33.7101
35.7503
38.6335
42.6776
48.3979
56.6435
68.8367
87.3612
116.056
160.217
223.293
291.571
23.1128
23.3725
23.9135
24.7828
26.0643
27.898
30.5196
34.3362
40.0825
49.1591
64.3946
91.7889
144.19
246.073
415.108
14.9423
15.0203
15.1825
15.4423
15.8247
16.3733
17.1653
18.3433
20.1898
23.3205
29.2672
42.5119
78.6784
201.699
708.584
109.149
108.817
107.904
106.425
104.414
101.918
98.9907
95.691
92.0771
88.2039
84.1211
79.8728
75.4965
71.0241
66.4825
61.8945
57.2798
52.6554
48.0366
43.4372
38.8698
34.3457
29.875
25.467
21.1293
16.8687
12.6905
8.59887
4.59685
0.686325
-3.13183
-6.85759
-10.4917
-14.0352
-17.4898
-20.8569
-24.1381
-27.3346
-30.4473
-33.4768
-36.4236
-39.2881
-42.0708
-44.773
-47.3963
-49.943
-52.4163
-54.8196
-57.1569
-59.4317
-61.6474
-63.8062
-65.9094
-67.9569
-69.9476
-71.879
-73.7479
-75.5508
-77.2842
-78.9447
-80.5295
-82.0362
-83.4625
-84.8061
-86.0638
-87.2312
-88.3023
-89.2686
-90.1193
-90.8413
-91.4198
-91.8383
-92.08
-92.1286
-91.9688
-91.5878
-90.9754
-90.1249
-89.0332
-87.7009
-86.1328
-84.3375
-82.3276
-80.12
-77.7356
-75.1994
-72.5405
-69.7912
-66.9867
-64.1632
109.978
109.652
108.716
107.189
105.111
102.536
99.525
96.1417
92.4487
88.5037
84.358
80.0556
75.6335
71.1224
66.5481
61.932
57.2926
52.6464
48.0078
43.3905
38.8068
34.2681
29.7845
25.3652
21.0181
16.7498
12.5656
8.46978
4.4651
0.553357
-3.26476
-6.98948
-10.6218
-14.1631
-17.6153
-20.9803
-24.2597
-27.4548
-30.5666
-33.5955
-36.5416
-39.4051
-42.1863
-44.886
-47.5058
-50.0481
-52.5162
-54.914
-57.2459
-59.5161
-61.7283
-63.8853
-65.9885
-68.0379
-70.032
-71.9678
-73.8419
-75.6499
-77.388
-79.0526
-80.6409
-82.1507
-83.5804
-84.9284
-86.1924
-87.3688
-88.4519
-89.4336
-90.3031
-91.0468
-91.6487
-92.0914
-92.3568
-92.4271
-92.286
-91.9195
-91.3169
-90.4709
-89.3781
-88.0391
-86.4586
-84.6451
-82.6111
-80.3733
-77.9528
-75.3749
-72.6693
-69.8697
-67.0129
-64.1371
111.68
111.364
110.375
108.743
106.522
103.78
100.593
97.0363
93.1812
89.0909
84.8189
80.4091
75.897
71.3105
66.6726
62.0018
57.3145
52.6252
47.9477
43.2947
38.6785
34.1104
29.6009
25.1591
20.7931
16.5094
12.3135
8.20933
4.19954
0.28563
-3.53207
-7.25428
-10.8825
-14.419
-17.8662
-21.2265
-24.5022
-27.6946
-30.8048
-33.8327
-36.7779
-39.64
-42.4184
-45.1133
-47.7262
-50.2593
-52.7165
-55.1026
-57.4229
-59.6831
-61.8879
-64.0409
-66.1442
-68.1976
-70.1991
-72.1447
-74.0297
-75.8486
-77.5965
-79.2692
-80.8639
-82.3792
-83.8147
-85.1704
-86.4459
-87.6392
-88.746
-89.7589
-90.6667
-91.4548
-92.1054
-92.5984
-92.9129
-93.0285
-92.9261
-92.5898
-92.0074
-91.1707
-90.076
-88.7237
-87.1184
-85.2686
-83.1865
-80.8884
-78.3953
-75.7329
-72.9323
-70.0296
-67.0651
-64.0816
114.351
114.043
112.958
111.145
108.682
105.664
102.191
98.3585
94.2506
89.9379
85.4764
80.9086
76.2659
71.5716
66.843
62.0943
57.3381
52.5864
47.8513
43.1452
38.4802
33.868
29.3192
24.8436
20.4491
16.1426
11.9292
7.81285
3.7959
-0.12057
-3.93678
-7.65419
-11.2753
-14.8033
-18.2418
-21.5944
-24.864
-28.0525
-31.1608
-34.1883
-37.1336
-39.9947
-42.7699
-45.4583
-48.0605
-50.5791
-53.0185
-55.385
-57.6859
-59.9289
-62.121
-64.2673
-66.3708
-68.4312
-70.4454
-72.4079
-74.3115
-76.1485
-77.9121
-79.5969
-81.2002
-82.7215
-84.1628
-85.5268
-86.8164
-88.0328
-89.1741
-90.2341
-91.2014
-92.0595
-92.7874
-93.3609
-93.7543
-93.9421
-93.9015
-93.6131
-93.0625
-92.2406
-91.1432
-89.7711
-88.1291
-86.2253
-84.0715
-81.6831
-79.0803
-76.2887
-73.341
-70.2772
-67.1435
-63.9903
118.154
117.839
116.586
114.479
111.638
108.201
104.305
100.075
95.6129
90.9974
86.2852
81.5142
76.708
71.8807
67.0412
62.1966
57.3542
52.5226
47.7125
42.9359
38.2054
33.5336
28.932
24.4107
19.9783
15.6414
11.4051
7.27317
3.24756
-0.671066
-4.48364
-8.1926
-11.8018
-15.3161
-18.7408
-22.0814
-25.342
-28.5256
-31.6326
-34.6618
-37.6099
-40.4726
-43.2458
-45.9267
-48.5147
-51.0121
-53.4247
-55.7609
-58.0314
-60.2472
-62.419
-64.5546
-66.6584
-68.7303
-70.7653
-72.755
-74.6881
-76.5532
-78.3398
-80.0408
-81.6531
-83.178
-84.6207
-85.9889
-87.2909
-88.5332
-89.718
-90.8413
-91.8918
-92.8502
-93.6904
-94.3815
-94.89
-95.1834
-95.2322
-95.0125
-94.507
-93.7055
-92.6046
-91.2059
-89.5151
-87.5405
-85.2929
-82.7854
-80.0357
-77.0679
-73.9158
-70.6243
-67.2489
-63.8521
123.34
122.981
121.444
118.869
115.45
111.396
106.899
102.124
97.1941
92.1944
87.1772
82.169
77.1788
72.2059
67.2457
62.2949
57.3536
52.427
47.5247
42.6594
37.8455
33.0976
28.4286
23.8496
19.3696
14.995
10.7308
6.58027
2.54519
-1.3742
-5.17955
-8.87451
-12.4647
-15.9575
-19.3609
-22.683
-25.9307
-29.1082
-32.2161
-35.2517
-38.2085
-41.0787
-43.8541
-46.5283
-49.0984
-51.5666
-53.9401
-56.2309
-58.4546
-60.6283
-62.7681
-64.8867
-66.9912
-69.0813
-71.1497
-73.1823
-75.1618
-77.0696
-78.8897
-80.6115
-82.2308
-83.7517
-85.1847
-86.5452
-87.8503
-89.1151
-90.3489
-91.5521
-92.7135
-93.8097
-94.8068
-95.6633
-96.3342
-96.7754
-96.9482
-96.8219
-96.376
-95.6004
-94.4934
-93.0599
-91.3082
-89.2476
-86.8871
-84.2354
-81.3038
-78.1112
-74.6902
-71.0913
-67.3837
-63.6505
130.302
129.82
127.792
124.471
120.176
115.225
109.893
104.395
98.8738
93.415
88.0548
82.7965
77.6235
72.5113
67.4355
62.3782
57.331
52.2957
47.2827
42.3081
37.3903
32.5474
27.7951
23.1459
18.6087
14.1896
9.89273
5.72107
1.67629
-2.24147
-6.03427
-9.70706
-13.2678
-16.7271
-20.0975
-23.3916
-26.6202
-29.7904
-32.9035
-35.9542
-38.9314
-41.8208
-44.6074
-47.2789
-49.8284
-52.2569
-54.5737
-56.7966
-58.949
-61.0573
-63.1469
-65.2384
-67.3436
-69.4629
-71.5843
-73.6854
-75.7375
-77.7111
-79.5804
-81.3283
-82.9493
-84.4507
-85.8518
-87.18
-88.4664
-89.7403
-91.0228
-92.3219
-93.6275
-94.9105
-96.1243
-97.211
-98.1075
-98.7526
-99.0933
-99.0899
-98.7185
-97.9708
-96.851
-95.3708
-93.5447
-91.3853
-88.8993
-86.087
-82.9463
-79.4824
-75.7197
-71.7135
-67.5544
-63.3597
139.652
138.882
136
131.475
125.844
119.599
113.127
106.696
100.462
94.4919
88.7842
83.2995
77.9794
72.7631
67.5977
62.4459
57.2902
52.1313
46.9848
41.8745
36.8267
31.8662
27.0129
22.2806
17.6775
13.2079
8.87436
4.67918
0.624537
-3.28852
-7.06164
-10.7007
-14.2166
-17.6247
-20.9437
-24.1939
-27.3933
-30.5544
-33.6803
-36.7618
-39.7802
-42.7103
-45.5259
-48.2045
-50.7321
-53.107
-55.3419
-57.463
-59.5062
-61.5125
-63.5222
-65.5693
-67.6748
-69.8406
-72.0472
-74.2578
-76.4254
-78.5016
-80.4448
-82.2268
-83.8387
-85.2931
-86.6225
-87.8736
-89.0994
-90.3516
-91.6715
-93.0808
-94.573
-96.1093
-97.6235
-99.0312
-100.241
-101.167
-101.732
-101.886
-101.601
-100.876
-99.7259
-98.1781
-96.2599
-93.9919
-91.3799
-88.41
-85.0532
-81.2825
-77.0985
-72.5549
-67.7751
-62.9391
152.39
150.982
146.572
140.068
132.393
124.297
116.299
108.71
101.671
95.189
89.191
83.5638
78.1847
72.9404
67.7388
62.5184
57.2528
51.9484
46.6342
41.3501
36.1369
31.0302
26.056
21.2291
16.5541
12.0303
7.65674
3.43498
-0.630971
-4.53689
-8.28179
-11.8715
-15.3202
-18.6499
-21.8889
-25.0688
-28.2209
-31.3689
-34.5202
-37.66
-40.7555
-43.7641
-46.641
-49.3468
-51.8549
-54.158
-56.2733
-58.2407
-60.1157
-61.9618
-63.8427
-65.8154
-67.9183
-70.1584
-72.5036
-74.8912
-77.2438
-79.4827
-81.5401
-83.3691
-84.9536
-86.3142
-87.5049
-88.6023
-89.6933
-90.8642
-92.19
-93.719
-95.4534
-97.3386
-99.2744
-101.134
-102.784
-104.096
-104.963
-105.313
-105.117
-104.39
-103.172
-101.517
-99.4773
-97.0924
-94.3742
-91.2889
-87.7546
-83.6766
-78.9939
-73.7352
-68.0757
-62.3187
170.234
167.401
160.155
150.343
139.548
128.85
118.878
109.932
102.074
95.1874
89.0624
83.4694
78.1946
73.0548
67.906
62.6548
57.2702
51.7788
46.2396
40.7228
35.2931
30.0031
24.8868
19.9586
15.2127
10.6362
6.22063
1.96656
-2.11674
-6.01689
-9.72512
-13.245
-16.5948
-19.8056
-22.9185
-25.9832
-29.0539
-32.1782
-35.3761
-38.6212
-41.8555
-45.0068
-48.0016
-50.7732
-53.2721
-55.4788
-57.4169
-59.1506
-60.7662
-62.3599
-64.0304
-65.873
-67.9631
-70.324
-72.8977
-75.5741
-78.2246
-80.724
-82.963
-84.8623
-86.3899
-87.5785
-88.5203
-89.3391
-90.1705
-91.1521
-92.4147
-94.0598
-96.1151
-98.4936
-101.033
-103.538
-105.812
-107.665
-108.938
-109.523
-109.397
-108.608
-107.247
-105.409
-103.19
-100.671
-97.8956
-94.8126
-91.2376
-86.9397
-81.7175
-75.4913
-68.5155
-61.3652
196.358
190.171
177.431
162.032
146.562
132.355
119.977
109.583
101.078
94.087
88.1661
82.9154
78.0086
73.1807
68.2196
62.9823
57.4404
51.6774
45.8122
39.9694
34.2479
28.7253
23.4466
18.4253
13.6275
9.01035
4.55208
0.252405
-3.86601
-7.77297
-11.4393
-14.863
-18.0692
-21.1017
-24.0169
-26.8886
-29.8093
-32.8808
-36.1634
-39.5974
-43.0745
-46.4741
-49.683
-52.5914
-55.1093
-57.1854
-58.8543
-60.2295
-61.4474
-62.6466
-63.9693
-65.5732
-67.617
-70.1824
-73.1429
-76.2934
-79.4218
-82.3394
-84.874
-86.8897
-88.3129
-89.197
-89.7116
-90.0562
-90.4303
-91.0342
-92.0872
-93.8085
-96.31
-99.4156
-102.838
-106.275
-109.444
-112.068
-113.899
-114.757
-114.628
-113.651
-112.004
-109.848
-107.332
-104.618
-101.858
-99.043
-95.76
-91.5321
-85.8855
-78.3254
-69.2055
-59.7907
237.227
222.375
198.531
173.82
151.756
133.226
118.217
106.512
97.8989
91.4444
86.3032
81.8649
77.7078
73.4973
68.93
63.7474
57.9281
51.7223
45.3519
39.041
32.9159
27.0959
21.6358
16.5701
11.7822
7.15578
2.65533
-1.72253
-5.91951
-9.87521
-13.5025
-16.7939
-19.7934
-22.5661
-25.1777
-27.7229
-30.347
-33.2791
-36.7319
-40.511
-44.4045
-48.2153
-51.7966
-54.9713
-57.5819
-59.4778
-60.7136
-61.5344
-62.1547
-62.7547
-63.5028
-64.6389
-66.519
-69.4711
-73.1134
-77.0436
-80.9215
-84.505
-87.531
-89.7691
-91.0113
-91.3462
-91.1467
-90.7296
-90.358
-90.2683
-90.796
-92.4322
-95.6336
-99.8798
-104.622
-109.395
-113.858
-117.609
-120.262
-121.412
-121.075
-119.659
-117.493
-114.803
-111.758
-108.63
-105.898
-103.946
-101.642
-98.1662
-92.8076
-83.4044
-70.319
-56.8931
307.593
267.527
220.873
181.791
151.856
129.026
111.694
98.9887
91.6092
86.9087
83.4267
80.4077
77.4827
74.3265
70.5252
65.4283
58.9714
52.0037
44.8051
37.8443
31.1444
24.9479
19.2566
14.3151
9.70444
5.11994
0.582297
-3.95761
-8.32006
-12.4499
-16.049
-19.1447
-21.8437
-24.2621
-26.4333
-28.4431
-30.4406
-32.9268
-36.83
-41.2592
-45.8532
-50.286
-54.4949
-58.163
-61.0827
-62.7199
-63.1697
-63.1271
-62.8906
-62.6487
-62.4764
-62.6325
-63.8763
-67.7649
-72.6682
-77.8683
-82.8439
-87.4725
-91.3215
-94.0811
-95.0151
-94.2635
-92.8938
-91.3361
-89.8784
-88.612
-87.9069
-88.8008
-93.4512
-99.6279
-106.359
-112.962
-119.293
-124.732
-128.788
-130.203
-129.076
-126.746
-123.733
-120.267
-116.303
-112.068
-108.815
-109.352
-109.209
-107.51
-105.552
-93.7845
-71.9214
-50.7919
445.512
322.162
232.309
176.588
141.722
116.908
98.5046
83.7947
81.4599
80.6169
79.882
78.8138
77.5892
76.0834
73.9848
69.0668
60.7496
52.6169
43.9153
36.2719
28.6475
22.0725
15.7979
11.5835
7.58919
3.01686
-1.48715
-6.44786
-11.0551
-15.7882
-19.32
-22.066
-24.2976
-26.3137
-27.9207
-29.1804
-29.8298
-30.5338
-36.1699
-41.7697
-47.533
-52.6785
-57.9713
-62.4314
-66.4295
-67.671
-66.3341
-64.9985
-63.6333
-62.4417
-60.9765
-59.059
-57.4243
-64.5968
-71.7946
-79.0153
-85.265
-91.5613
-96.6796
-101.021
-101.445
-98.0695
-94.9104
-91.7975
-89.1222
-86.146
-82.7141
-79.7586
-89.0697
-98.5766
-108.277
-116.921
-126.011
-133.843
-141.114
-142.656
-138.804
-134.817
-130.622
-126.446
-121.235
-114.093
-106.272
-115.735
-119.015
-117.225
-132.421
-118.701
-72.4663
-36.1974
759.949
328.556
194.589
141.353
117.108
95.5574
79.9948
50.7789
69.1609
74.1678
76.816
77.4435
78.0995
78.6924
81.5034
77.5991
62.261
54.0487
41.5012
34.6716
24.6395
18.7643
9.37234
8.5354
6.30645
0.815766
-2.8985
-9.44655
-13.6085
-20.8556
-23.7221
-25.7272
-27.0612
-28.9536
-29.9079
-30.796
-29.1398
-21.0381
-35.5615
-42.044
-50.1021
-54.8579
-62.6461
-67.3644
-75.7451
-76.334
-69.4958
-66.9116
-64.1252
-62.6278
-60.1273
-55.0775
-38.2892
-61.3916
-70.8871
-81.5593
-87.618
-97.3452
-103.156
-113.6
-113.345
-101.563
-96.859
-91.6274
-88.7982
-84.3348
-76.8338
-53.0515
-84.4047
-97.2443
-111.717
-120.234
-134.537
-143.762
-161.688
-162.874
-148.723
-143.184
-137.484
-134.112
-128.944
-117.095
-78.8365
-131.02
-136.119
-102.479
-200.928
-190.434
-58.6597
1.23125
-61.0803
-57.7929
-54.6394
-51.6651
-48.9054
-46.3854
-44.1208
-42.1197
-40.3841
-38.9118
-37.698
-36.7367
-36.0219
-35.5486
-35.3129
-60.9994
-57.658
-54.4592
-51.4497
-48.6649
-46.1291
-43.8565
-41.8535
-40.1202
-38.6527
-37.4448
-36.4895
-35.7799
-35.3103
-35.0766
-60.8313
-57.3795
-54.0889
-51.0088
-48.1747
-45.6087
-43.322
-41.3169
-39.5898
-38.1333
-36.9385
-35.996
-35.2973
-34.8356
-34.606
-60.5629
-56.9388
-53.5071
-50.321
-47.4154
-44.8084
-42.5052
-40.5016
-38.788
-37.3516
-36.1792
-35.258
-34.5772
-34.1283
-33.9053
-60.1717
-56.3046
-52.6787
-49.352
-46.3567
-43.7035
-41.3879
-39.3958
-37.7083
-36.3055
-35.168
-34.2791
-33.6247
-33.1944
-32.981
-59.6227
-55.4284
-51.5502
-48.0507
-44.9551
-42.2604
-39.9465
-37.9846
-36.3434
-34.9932
-33.9077
-33.065
-32.4476
-32.043
-31.8428
-58.8606
-54.2353
-50.0422
-46.3449
-43.1518
-40.4358
-38.1525
-36.252
-34.6869
-33.4158
-32.4041
-31.6249
-31.0573
-30.6868
-30.5038
-57.7968
-52.609
-48.0376
-44.1341
-40.8706
-38.178
-35.975
-34.1834
-32.7359
-31.5782
-30.6677
-29.9725
-29.4695
-29.1425
-28.9814
-56.282
-50.3655
-45.3643
-41.2827
-38.0177
-35.4302
-33.3855
-31.77
-30.4947
-29.4928
-28.7154
-28.1276
-27.7051
-27.4317
-27.2974
-54.0508
-47.2057
-41.7705
-37.6139
-34.4866
-32.1389
-30.3662
-29.016
-27.9797
-27.1824
-26.5729
-26.1168
-25.7913
-25.5814
-25.4786
-50.6003
-42.6354
-36.8974
-32.9152
-30.1752
-28.272
-26.9241
-25.9475
-25.2252
-24.6837
-24.2766
-23.9752
-23.7612
-23.6238
-23.5565
-44.9179
-35.8376
-30.268
-26.9738
-25.0266
-23.8493
-23.1102
-22.6243
-22.2896
-22.05
-21.8744
-21.7456
-21.6544
-21.5956
-21.5667
-34.8726
-25.5282
-21.3626
-19.6851
-19.1076
-18.9881
-19.0426
-19.1495
-19.2587
-19.352
-19.4249
-19.4782
-19.5146
-19.5371
-19.5477
-15.8929
-10.0396
-9.96893
-11.2958
-12.7303
-13.9524
-14.9225
-15.6719
-16.2433
-16.6742
-16.9946
-17.2272
-17.3885
-17.4901
-17.5391
21.7284
11.232
2.82251
-2.7989
-6.56514
-9.16868
-11.0227
-12.3722
-13.368
-14.1066
-14.652
-15.0473
-15.322
-15.4953
-15.5791
7.38001
7.28597
7.08841
6.76673
6.28515
5.58492
4.56881
3.06924
0.776202
-2.94756
-9.62413
-23.672
-60.9923
-190.858
-760.712
0.569795
0.325886
-0.184328
-1.00983
-2.23604
-4.00403
-6.54748
-10.266
-15.8797
-24.7778
-39.8613
-67.6779
-123.699
-242.179
-462.574
-6.07172
-6.44993
-7.23877
-8.50875
-10.3816
-13.0551
-16.8483
-22.2858
-30.2555
-42.3131
-61.2562
-92.0968
-143.031
-222.724
-317.483
-12.4512
-12.9412
-13.9597
-15.5896
-17.9717
-21.3289
-26.0078
-32.5475
-41.793
-55.0673
-74.3894
-102.562
-142.389
-192.805
-238.196
-18.491
-19.066
-20.2565
-22.1485
-24.885
-28.6854
-33.8755
-40.9307
-50.5328
-63.6214
-81.3759
-104.935
-134.393
-166.375
-190.428
-24.1319
-24.7639
-26.0666
-28.1213
-31.0599
-35.0773
-40.4482
-47.5457
-56.8519
-68.935
-84.3312
-103.21
-124.645
-145.449
-159.363
-29.3344
-29.9965
-31.3549
-33.4807
-36.4859
-40.5294
-45.8221
-52.6271
-61.2428
-71.9479
-84.8678
-99.709
-115.335
-129.308
-137.959
-34.0776
-34.7458
-36.1106
-38.2297
-41.1911
-45.1141
-50.146
-56.4513
-64.1831
-73.423
-84.0696
-95.663
-107.171
-116.863
-122.561
-38.3571
-39.0118
-40.3429
-42.394
-45.2289
-48.929
-53.5858
-59.2849
-66.0761
-73.9212
-82.6138
-91.6762
-100.268
-107.191
-111.12
-42.1822
-42.8082
-44.0756
-46.0142
-48.666
-52.0796
-56.3017
-61.3601
-67.2373
-73.8309
-80.9009
-88.0159
-94.5237
-99.5973
-102.406
-45.5729
-46.1595
-47.3424
-49.1395
-51.5741
-54.6689
-58.4369
-62.8667
-67.9011
-73.4096
-79.1567
-84.7771
-89.7752
-93.5761
-95.6434
-48.5564
-49.0969
-50.1828
-51.8223
-54.0239
-56.7909
-60.1127
-63.9533
-68.2356
-72.8225
-77.5005
-81.9701
-85.8577
-88.7586
-90.3158
-51.1648
-51.6558
-52.6389
-54.1149
-56.0813
-58.5276
-61.4282
-64.7334
-68.3584
-72.1722
-75.9888
-79.5672
-82.6254
-84.8741
-86.0693
-53.4323
-53.8731
-54.7528
-56.067
-57.8056
-59.9489
-62.4628
-65.2913
-68.3502
-71.5198
-74.6424
-77.5254
-79.9549
-81.721
-82.6525
-55.394
-55.7856
-56.5652
-57.7246
-59.2488
-61.113
-63.2788
-65.6894
-68.265
-70.9
-73.4623
-75.7984
-77.745
-79.1473
-79.8826
-57.0838
-57.4288
-58.114
-59.129
-60.4559
-62.0678
-63.925
-65.9728
-68.1386
-70.3305
-72.4391
-74.3419
-75.913
-77.0366
-77.623
-58.5341
-58.8359
-59.4339
-60.3167
-61.4653
-62.8522
-64.4389
-66.1744
-67.9939
-69.819
-71.5589
-73.1157
-74.3917
-75.2989
-75.7706
-59.7749
-60.0373
-60.5562
-61.3198
-62.3094
-63.4979
-64.8494
-66.3175
-67.8455
-69.3665
-70.8057
-72.0845
-73.1263
-73.8635
-74.2457
-60.8337
-61.0605
-61.5086
-62.1662
-63.0152
-64.0305
-65.1788
-66.4191
-67.7019
-68.9707
-70.1638
-71.2179
-72.0723
-72.6746
-72.9861
-61.7349
-61.9303
-62.3155
-62.8796
-63.6057
-64.4706
-65.4445
-66.4912
-67.5681
-68.6275
-69.6185
-70.4899
-71.1933
-71.6876
-71.9428
-62.5006
-62.6682
-62.9982
-63.4806
-64.0999
-64.835
-65.6598
-66.5423
-67.4463
-68.3316
-69.1563
-69.8784
-70.4595
-70.8667
-71.0766
-63.15
-63.2932
-63.5752
-63.9866
-64.5135
-65.1373
-65.8348
-66.5785
-67.3375
-68.078
-68.7652
-69.365
-69.8462
-70.1828
-70.3561
-63.6998
-63.8221
-64.0623
-64.4124
-64.8599
-65.3884
-65.9777
-66.6042
-67.2415
-67.8613
-68.4347
-68.9339
-69.3334
-69.6124
-69.7558
-64.1649
-64.2689
-64.4733
-64.7706
-65.1501
-65.5973
-66.0949
-66.6224
-67.1576
-67.6768
-68.1559
-68.5719
-68.9043
-69.1361
-69.2551
-64.5577
-64.6461
-64.8196
-65.0718
-65.3932
-65.7713
-66.1911
-66.6353
-67.0849
-67.52
-67.9207
-68.2681
-68.5451
-68.738
-68.837
-64.8892
-64.9642
-65.1113
-65.325
-65.5969
-65.9164
-66.2705
-66.6445
-67.0223
-67.3872
-67.7227
-68.013
-68.2442
-68.4051
-68.4876
-65.1686
-65.2322
-65.3568
-65.5377
-65.7676
-66.0374
-66.3361
-66.6509
-66.9685
-67.2748
-67.556
-67.7989
-67.9922
-68.1266
-68.1955
-65.404
-65.4578
-65.5633
-65.7163
-65.9107
-66.1385
-66.3903
-66.6555
-66.9227
-67.1799
-67.4158
-67.6194
-67.7812
-67.8936
-67.9512
-65.6019
-65.6475
-65.7368
-65.8662
-66.0305
-66.2229
-66.4353
-66.6588
-66.8836
-67.0999
-67.298
-67.4688
-67.6044
-67.6986
-67.7468
-65.7683
-65.8069
-65.8824
-65.9919
-66.1308
-66.2933
-66.4726
-66.6611
-66.8505
-67.0325
-67.1991
-67.3426
-67.4565
-67.5355
-67.576
-65.9079
-65.9405
-66.0045
-66.0972
-66.2147
-66.3521
-66.5036
-66.6627
-66.8225
-66.9759
-67.1162
-67.237
-67.3328
-67.3992
-67.4332
-66.0247
-66.0525
-66.1067
-66.1853
-66.2848
-66.4012
-66.5293
-66.6639
-66.7989
-66.9284
-67.0468
-67.1487
-67.2294
-67.2854
-67.3141
-66.1224
-66.1459
-66.192
-66.2587
-66.3432
-66.442
-66.5507
-66.6647
-66.779
-66.8887
-66.9889
-67.075
-67.1433
-67.1906
-67.2148
-66.2037
-66.2238
-66.263
-66.3199
-66.3918
-66.4758
-66.5683
-66.6653
-66.7624
-66.8556
-66.9406
-67.0138
-67.0717
-67.1118
-67.1324
-66.2711
-66.2883
-66.3219
-66.3705
-66.432
-66.5038
-66.5829
-66.6657
-66.7486
-66.8282
-66.9007
-66.9631
-67.0125
-67.0467
-67.0642
-66.3266
-66.3414
-66.3703
-66.4121
-66.4651
-66.5268
-66.5948
-66.666
-66.7373
-66.8056
-66.8678
-66.9214
-66.9638
-66.9931
-67.0081
-66.3718
-66.3846
-66.4097
-66.446
-66.492
-66.5455
-66.6045
-66.6662
-66.7279
-66.7871
-66.8411
-66.8874
-66.9241
-66.9495
-66.9625
-66.4081
-66.4194
-66.4414
-66.4733
-66.5136
-66.5605
-66.6122
-66.6663
-66.7205
-66.7723
-66.8196
-66.8601
-66.8923
-66.9145
-66.9259
-66.4367
-66.4467
-66.4663
-66.4946
-66.5305
-66.5723
-66.6183
-66.6664
-66.7146
-66.7607
-66.8027
-66.8388
-66.8673
-66.8871
-66.8972
-66.4582
-66.4673
-66.4851
-66.5108
-66.5433
-66.5812
-66.6229
-66.6665
-66.7101
-66.7519
-66.7899
-66.8226
-66.8485
-66.8664
-66.8755
-66.4735
-66.4819
-66.4984
-66.5222
-66.5523
-66.5875
-66.6261
-66.6665
-66.707
-66.7456
-66.7809
-66.8112
-66.8351
-66.8517
-66.8602
-66.4829
-66.4909
-66.5066
-66.5292
-66.5579
-66.5914
-66.6281
-66.6665
-66.705
-66.7418
-66.7753
-66.8041
-66.8269
-66.8427
-66.8507
-66.4867
-66.4945
-66.5099
-66.5321
-66.5602
-66.5929
-66.6289
-66.6666
-66.7042
-66.7402
-66.7731
-66.8012
-66.8235
-66.839
-66.8469
-66.4851
-66.493
-66.5085
-66.5309
-66.5592
-66.5923
-66.6286
-66.6666
-66.7046
-66.7409
-66.774
-66.8025
-66.825
-66.8405
-66.8485
-66.4779
-66.4862
-66.5023
-66.5256
-66.555
-66.5894
-66.6271
-66.6665
-66.706
-66.7438
-66.7782
-66.8078
-66.8312
-66.8474
-66.8556
-66.4651
-66.4739
-66.4911
-66.516
-66.5474
-66.5841
-66.6244
-66.6665
-66.7087
-66.7491
-66.7858
-66.8174
-66.8424
-66.8597
-66.8685
-66.4462
-66.4558
-66.4746
-66.5018
-66.5362
-66.5763
-66.6204
-66.6665
-66.7126
-66.7568
-66.797
-66.8316
-66.8589
-66.8779
-66.8875
-66.4206
-66.4313
-66.4523
-66.4826
-66.521
-66.5657
-66.6149
-66.6664
-66.7179
-66.7673
-66.8122
-66.8508
-66.8813
-66.9025
-66.9133
-66.3875
-66.3997
-66.4234
-66.4578
-66.5014
-66.5521
-66.6079
-66.6663
-66.7248
-66.7807
-66.8318
-66.8756
-66.9102
-66.9343
-66.9465
-66.346
-66.36
-66.3873
-66.4267
-66.4767
-66.535
-66.5991
-66.6662
-66.7334
-66.7977
-66.8563
-66.9067
-66.9466
-66.9742
-66.9883
-66.2948
-66.311
-66.3426
-66.3884
-66.4463
-66.5139
-66.5882
-66.666
-66.7439
-66.8186
-66.8866
-66.9451
-66.9914
-67.0235
-67.0399
-66.2324
-66.2513
-66.2882
-66.3416
-66.4092
-66.488
-66.5748
-66.6657
-66.7568
-66.844
-66.9236
-66.992
-67.0461
-67.0836
-67.1028
-66.1569
-66.179
-66.2223
-66.2849
-66.3642
-66.4567
-66.5586
-66.6653
-66.7723
-66.8748
-66.9683
-67.0487
-67.1124
-67.1565
-67.1791
-66.0661
-66.0921
-66.143
-66.2167
-66.31
-66.419
-66.5389
-66.6647
-66.7908
-66.9118
-67.0221
-67.1171
-67.1923
-67.2444
-67.271
-65.9572
-65.9879
-66.0479
-66.1348
-66.2449
-66.3736
-66.5153
-66.6639
-66.813
-66.9561
-67.0867
-67.1991
-67.2882
-67.3499
-67.3815
-65.827
-65.8632
-65.9342
-66.0369
-66.167
-66.3192
-66.4868
-66.6628
-66.8394
-67.009
-67.1639
-67.2973
-67.403
-67.4764
-67.5139
-65.6717
-65.7145
-65.7984
-65.9198
-66.0738
-66.254
-66.4526
-66.6612
-66.8708
-67.0721
-67.2561
-67.4147
-67.5404
-67.6277
-67.6723
-65.4867
-65.5373
-65.6365
-65.7802
-65.9625
-66.1759
-66.4114
-66.659
-66.9079
-67.1471
-67.3661
-67.5548
-67.7046
-67.8085
-67.8617
-65.2665
-65.3263
-65.4437
-65.6137
-65.8296
-66.0825
-66.3619
-66.6558
-66.9516
-67.2363
-67.497
-67.7219
-67.9005
-68.0246
-68.0881
-65.0048
-65.0755
-65.2142
-65.4154
-65.6711
-65.9708
-66.3022
-66.6513
-67.0031
-67.342
-67.6528
-67.9211
-68.1344
-68.2826
-68.3586
-64.6939
-64.7775
-64.9414
-65.1793
-65.4819
-65.8371
-66.2303
-66.645
-67.0635
-67.4673
-67.838
-68.1585
-68.4136
-68.5909
-68.6818
-64.3251
-64.4237
-64.6172
-64.8984
-65.2563
-65.6769
-66.1433
-66.6361
-67.1342
-67.6155
-68.0581
-68.4413
-68.7467
-68.9591
-69.0681
-63.8878
-64.004
-64.2322
-64.5641
-64.9871
-65.485
-66.0381
-66.6235
-67.2164
-67.7906
-68.3195
-68.7782
-69.1442
-69.3991
-69.53
-63.3698
-63.5066
-63.7753
-64.1665
-64.6659
-65.2548
-65.9103
-66.6058
-67.3118
-67.997
-68.6297
-69.1795
-69.6189
-69.9253
-70.0827
-62.7569
-62.9175
-63.2334
-63.6938
-64.2826
-64.9784
-65.7548
-66.5807
-67.4215
-68.2398
-68.9975
-69.6574
-70.1859
-70.555
-70.7448
-62.0324
-62.2207
-62.5912
-63.132
-63.8251
-64.6461
-65.5649
-66.5454
-67.5468
-68.5248
-69.4331
-70.2265
-70.8634
-71.3091
-71.5386
-61.1773
-61.3973
-61.8307
-62.4645
-63.2786
-64.2459
-65.3321
-66.4955
-67.6885
-68.858
-69.9485
-70.9042
-71.6738
-72.2135
-72.4916
-60.1695
-60.4257
-60.9312
-61.6718
-62.6258
-63.7633
-65.0455
-66.4252
-67.8464
-69.2462
-70.5573
-71.7113
-72.6436
-73.2993
-73.6378
-58.9839
-59.2811
-59.8684
-60.731
-61.8457
-63.1801
-64.6914
-66.326
-68.019
-69.696
-71.2752
-72.6721
-73.8056
-74.6053
-75.0191
-57.5919
-57.9352
-58.6146
-59.6151
-60.9131
-62.4741
-64.2518
-66.1862
-68.2028
-70.2137
-72.1197
-73.8158
-75.1992
-76.1792
-76.6875
-55.9616
-56.3559
-57.1378
-58.2929
-59.7978
-61.6176
-63.7034
-65.9892
-68.3907
-70.8043
-73.1099
-75.1766
-76.873
-78.0806
-78.7089
-54.0577
-54.5076
-55.4018
-56.7278
-58.4639
-60.5766
-63.016
-65.7119
-68.57
-71.4698
-74.2658
-76.7944
-78.886
-80.384
-81.1665
-51.8414
-52.351
-53.3662
-54.8779
-56.8687
-59.3088
-62.1506
-65.3221
-68.7204
-72.2072
-75.6074
-78.7156
-81.3112
-83.1842
-84.1674
-49.2713
-49.8433
-50.986
-52.6955
-54.9615
-57.7621
-61.0562
-64.7746
-68.8094
-73.0047
-77.1518
-80.9926
-84.238
-86.6022
-87.8508
-46.3043
-46.9394
-48.2123
-50.1267
-52.6832
-55.8727
-59.6673
-64.0075
-68.7868
-73.8357
-78.9087
-83.683
-87.7766
-90.7945
-92.4011
-42.8965
-43.5928
-44.9934
-47.1123
-49.9654
-53.5632
-57.8996
-62.9355
-68.5771
-74.6497
-80.8728
-86.8459
-92.062
-95.9667
-98.0669
-39.0054
-39.7574
-41.2759
-43.5882
-46.7306
-50.7409
-55.6462
-61.443
-68.068
-75.3592
-83.0104
-90.5342
-97.258
-102.392
-105.191
-34.5924
-35.39
-37.0074
-39.488
-42.8933
-47.2973
-52.7738
-59.3753
-67.0963
-75.8185
-85.2364
-94.7778
-103.558
-110.437
-114.259
-29.6259
-30.4536
-32.1398
-34.7458
-38.3629
-43.1091
-49.1203
-56.5301
-65.4293
-75.7947
-87.3764
-99.5497
-111.178
-120.605
-125.979
-24.0849
-24.9215
-26.6338
-29.3018
-33.0485
-38.0426
-44.4958
-52.6507
-62.7441
-74.926
-89.1053
-104.7
-120.324
-133.589
-141.432
-17.9634
-18.7817
-20.4647
-23.109
-26.8683
-31.963
-38.6898
-47.4253
-58.6087
-72.6702
-89.8509
-109.83
-131.11
-150.335
-162.33
-11.2743
-12.0418
-13.6283
-16.1423
-19.7613
-24.7504
-31.4889
-40.5002
-52.4745
-68.2482
-88.6529
-114.056
-143.322
-172.103
-191.557
-4.05267
-4.73383
-6.14852
-8.40888
-11.7031
-16.3234
-22.7102
-31.5178
-43.702
-60.6103
-83.984
-115.598
-155.869
-200.346
-234.292
3.6413
3.0829
1.91796
0.0419491
-2.72457
-6.67002
-12.2507
-20.1907
-31.6493
-48.4826
-73.5924
-111.128
-165.496
-235.902
-300.598
11.7223
11.3201
10.4775
9.11053
7.07203
4.1183
-0.153168
-6.42079
-15.8645
-30.6077
-54.5715
-94.97
-163.983
-275.42
-411.83
20.0818
19.8624
19.4005
18.6447
17.5035
15.821
13.3299
9.5541
3.5998
-6.33031
-24.1377
-58.9403
-133.007
-297.595
-617.788
28.5927
28.5722
28.5267
28.4457
28.3101
28.0846
27.7041
27.0409
25.8242
23.4166
18.0977
4.35642
-39.1692
-211.707
-1046.1
37.1169
37.2985
37.6765
38.2838
39.1781
40.4548
42.2738
44.9111
48.8743
55.1842
66.1812
88.336
144.261
333.8
1185.71
45.514
45.8872
46.666
47.9217
49.7794
52.4475
56.2738
61.859
70.2934
83.6955
106.515
148.863
234.9
419.321
769.604
53.6509
54.1932
55.3233
57.1405
59.817
63.6345
69.0511
76.8266
88.2612
105.665
133.286
179.048
257.212
389.655
596.776
70.7594
28.8176
11.9922
3.28946
-1.97944
-5.47049
-7.91017
-9.6716
-10.9679
-11.9299
-12.6418
-13.1595
-13.5202
-13.7485
-13.8592
44.7174
27.3622
14.6876
6.43964
0.954795
-2.83854
-5.55153
-7.53937
-9.01801
-10.1246
-10.9491
-11.5521
-11.9741
-12.2421
-12.3722
30.7272
22.6562
14.3086
7.67093
2.71436
-0.956817
-3.6964
-5.76066
-7.32641
-8.515
-9.41021
-10.0702
-10.5349
-10.8312
-10.9755
22.3415
18.1419
12.7421
7.73467
3.58127
0.277981
-2.3102
-4.32808
-5.89665
-7.10904
-8.03455
-8.72373
-9.21261
-9.52583
-9.67875
16.8718
14.461
10.903
7.20522
3.85777
1.01618
-1.32002
-3.20748
-4.71416
-5.90222
-6.82292
-7.51628
-8.01216
-8.33163
-8.48812
13.0761
11.5766
9.1608
6.43242
3.78294
1.40339
-0.641448
-2.35126
-3.7529
-4.88101
-5.76909
-6.44587
-6.93411
-7.25054
-7.40606
10.3216
9.32848
7.63554
5.60473
3.52062
1.55814
-0.195525
-1.70903
-2.98153
-4.02641
-4.86194
-5.50632
-5.9753
-6.28109
-6.43192
8.25652
7.56623
6.34484
4.81401
3.17379
1.56786
0.0836221
-1.23414
-2.3682
-3.31716
-4.08747
-4.6885
-5.12975
-5.41919
-5.56245
6.67076
6.17272
5.26894
4.09919
2.8031
1.49306
0.247157
-0.886803
-1.8834
-2.73194
-3.43049
-3.9816
-4.38956
-4.65872
-4.7924
5.43079
5.06089
4.37768
3.47207
2.44205
1.37371
0.33295
-0.634849
-1.50138
-2.25086
-2.87587
-3.37405
-3.74572
-3.99228
-4.11514
4.44763
4.16658
3.64082
2.93129
2.1076
1.23519
0.36807
-0.453215
-1.20062
-1.85618
-2.40928
-2.85431
-3.18873
-3.4117
-3.52314
3.6596
3.44215
3.03153
2.46974
1.80697
1.09297
0.371358
-0.32288
-0.963644
-1.53263
-2.01772
-2.41135
-2.70909
-2.90853
-3.00849
3.02253
2.85183
2.52719
2.0783
1.5419
0.95602
0.355632
-0.229675
-0.776499
-1.26732
-1.68965
-2.03495
-2.29768
-2.47441
-2.56321
2.50397
2.36838
2.10909
1.74759
1.31119
0.82913
0.329428
-0.163192
-0.628234
-1.04957
-1.41504
-1.71587
-1.94597
-2.10133
-2.17957
2.07953
1.97079
1.76196
1.46888
1.11216
0.714485
0.298302