/*--------------------------------*- C++ -*----------------------------------*\
| =========                 |                                                 |
| \\      /  F ield         | OpenFOAM: The Open Source CFD Toolbox           |
|  \\    /   O peration     | Version:  5.x                                   |
|   \\  /    A nd           | Web:      www.OpenFOAM.org                      |
|    \\/     M anipulation  |                                                 |
\*---------------------------------------------------------------------------*/
FoamFile
{
    version     2.0;
    format      ascii;
    class       volScalarField;
    location    "2.2";
    object      T;
}
// * * * * * * * * * * * * * * * * * * * * * * * * * * * * * * * * * * * * * //

dimensions      [0 0 0 1 0 0 0];

internalField   nonuniform List<scalar> 
3200
(
0.000209401
0.000190738
0.000187579
0.000144344
0.000140258
0.000104064
0.000100845
7.52956e-05
7.29496e-05
5.47082e-05
4.13654e-05
4.01069e-05
3.09335e-05
3.00934e-05
2.33079e-05
2.26864e-05
1.75958e-05
1.71285e-05
1.32828e-05
1.29293e-05
1.00137e-05
9.74554e-06
7.53204e-06
7.32849e-06
5.64814e-06
5.4937e-06
4.21955e-06
4.10253e-06
3.13829e-06
3.04983e-06
2.32205e-06
2.25538e-06
1.70787e-06
1.65779e-06
1.24752e-06
1.21007e-06
9.0405e-07
8.76178e-07
6.49157e-07
6.28535e-07
4.61198e-07
4.46044e-07
3.23641e-07
3.12599e-07
2.23883e-07
2.15915e-07
1.52326e-07
1.46639e-07
1.01644e-07
9.75135e-08
6.53225e-08
4.26149e-08
4.05387e-08
2.6287e-08
2.50488e-08
1.58416e-08
1.50547e-08
9.26871e-09
8.78001e-09
5.25857e-09
4.96442e-09
2.88949e-09
2.71793e-09
1.53277e-09
1.4357e-09
7.78432e-10
7.25093e-10
3.71129e-10
3.42705e-10
1.58414e-10
1.43847e-10
5.25728e-11
4.57589e-11
8.4649e-12
6.02171e-12
-2.06357e-12
-2.53771e-12
-2.62099e-12
-2.63989e-12
-2.64411e-12
0.000207198
0.00019134
0.000184087
0.000147364
0.000137957
0.000106807
9.93605e-05
7.72217e-05
7.17476e-05
5.52265e-05
4.26148e-05
3.96395e-05
3.16453e-05
2.96963e-05
2.38229e-05
2.23838e-05
1.79807e-05
1.68988e-05
1.35731e-05
1.27547e-05
1.02337e-05
9.61294e-06
7.69903e-06
7.22783e-06
5.77494e-06
5.41742e-06
4.31574e-06
4.04487e-06
3.21113e-06
3.00637e-06
2.37708e-06
2.22274e-06
1.74932e-06
1.6334e-06
1.27862e-06
1.19192e-06
9.27281e-07
8.62756e-07
6.66421e-07
6.18678e-07
4.7395e-07
4.38867e-07
3.32992e-07
3.07425e-07
2.30681e-07
2.12231e-07
1.57212e-07
1.44039e-07
1.0504e-07
9.54045e-08
6.63199e-08
4.47898e-08
3.98733e-08
2.74324e-08
2.45571e-08
1.65729e-08
1.47488e-08
9.7312e-09
8.5983e-09
5.54232e-09
4.8602e-09
3.058e-09
2.66003e-09
1.62974e-09
1.40447e-09
8.32601e-10
7.08769e-10
4.00528e-10
3.34511e-10
1.73881e-10
1.40038e-10
6.04472e-11
4.46034e-11
1.1904e-11
6.19421e-12
-1.20359e-12
-2.3372e-12
-2.57396e-12
-2.62867e-12
-2.64093e-12
0.000205629
0.000191596
0.000181773
0.000149291
0.000136525
0.000108602
9.84635e-05
7.84806e-05
7.09871e-05
5.5588e-05
4.34784e-05
3.93725e-05
3.2115e-05
2.94559e-05
2.41604e-05
2.21995e-05
1.82326e-05
1.67587e-05
1.3763e-05
1.26483e-05
1.03776e-05
9.53201e-06
7.80826e-06
7.1664e-06
5.85788e-06
5.37088e-06
4.37867e-06
4.0097e-06
3.2588e-06
2.97988e-06
2.4131e-06
2.20286e-06
1.77645e-06
1.61854e-06
1.29898e-06
1.18088e-06
9.425e-07
8.546e-07
6.77736e-07
6.12697e-07
4.82312e-07
4.34519e-07
3.39129e-07
3.04297e-07
2.35145e-07
2.10009e-07
1.60423e-07
1.4247e-07
1.0726e-07
9.40728e-08
6.70146e-08
4.62997e-08
3.95087e-08
2.81949e-08
2.42696e-08
1.70576e-08
1.45706e-08
1.00382e-08
8.49345e-09
5.73107e-09
4.80075e-09
3.17033e-09
2.6274e-09
1.6945e-09
1.3871e-09
8.68841e-10
6.99815e-10
4.20234e-10
3.301e-10
1.84275e-10
1.38057e-10
6.5771e-11
4.41215e-11
1.42633e-11
6.4341e-12
-5.94243e-13
-2.17258e-12
-2.53421e-12
-2.61915e-12
-2.63822e-12
0.000204619
0.000191683
0.000180364
0.000150428
0.000135697
0.000109683
9.79593e-05
7.92391e-05
7.0542e-05
5.58174e-05
4.40213e-05
3.92311e-05
3.24005e-05
2.93207e-05
2.43641e-05
2.20953e-05
1.83846e-05
1.66794e-05
1.38776e-05
1.25879e-05
1.04643e-05
9.48611e-06
7.87412e-06
7.13156e-06
5.9079e-06
5.34448e-06
4.41662e-06
3.98976e-06
3.28755e-06
2.96487e-06
2.43483e-06
2.1916e-06
1.79282e-06
1.61014e-06
1.31128e-06
1.17464e-06
9.51689e-07
8.49994e-07
6.84571e-07
6.09323e-07
4.87366e-07
4.3207e-07
3.42839e-07
3.02538e-07
2.37846e-07
2.08762e-07
1.62366e-07
1.4159e-07
1.08598e-07
9.32949e-08
6.74547e-08
4.7252e-08
3.93244e-08
2.86616e-08
2.41133e-08
1.7353e-08
1.4474e-08
1.02256e-08
8.43721e-09
5.84646e-09
4.76924e-09
3.23911e-09
2.61033e-09
1.73422e-09
1.37815e-09
8.911e-10
6.95275e-10
4.32356e-10
3.27912e-10
1.90681e-10
1.37118e-10
6.90681e-11
4.39673e-11
1.5741e-11
6.64175e-12
-2.02985e-13
-2.05665e-12
-2.50552e-12
-2.61223e-12
-2.63625e-12
0.000204125
0.000191702
0.000179697
0.000150955
0.00013532
0.000110192
9.77336e-05
7.95955e-05
7.0337e-05
5.59288e-05
4.42834e-05
3.91708e-05
3.25354e-05
2.92602e-05
2.44601e-05
2.20484e-05
1.8456e-05
1.66436e-05
1.39315e-05
1.25607e-05
1.05051e-05
9.46543e-06
7.90509e-06
7.11586e-06
5.93142e-06
5.33259e-06
4.43447e-06
3.98078e-06
3.30108e-06
2.95811e-06
2.44505e-06
2.18654e-06
1.80053e-06
1.60636e-06
1.31706e-06
1.17183e-06
9.56013e-07
8.47926e-07
6.87788e-07
6.07809e-07
4.89745e-07
4.30972e-07
3.44586e-07
3.01751e-07
2.39118e-07
2.08205e-07
1.63282e-07
1.41197e-07
1.09227e-07
9.29372e-08
6.76684e-08
4.77126e-08
3.9249e-08
2.88832e-08
2.40452e-08
1.7493e-08
1.4432e-08
1.03144e-08
8.41294e-09
5.90122e-09
4.75577e-09
3.27178e-09
2.60312e-09
1.7531e-09
1.37441e-09
9.01694e-10
6.93407e-10
4.38132e-10
3.2703e-10
1.93738e-10
1.36755e-10
7.06457e-11
4.39373e-11
1.64531e-11
6.75896e-12
-1.14794e-14
-1.99695e-12
-2.49052e-12
-2.6086e-12
-2.63521e-12
0.000204125
0.000191702
0.000179697
0.000150955
0.00013532
0.000110192
9.77336e-05
7.95955e-05
7.0337e-05
5.59288e-05
4.42834e-05
3.91708e-05
3.25354e-05
2.92602e-05
2.44601e-05
2.20484e-05
1.8456e-05
1.66436e-05
1.39315e-05
1.25607e-05
1.05051e-05
9.46543e-06
7.90509e-06
7.11586e-06
5.93142e-06
5.33259e-06
4.43447e-06
3.98078e-06
3.30108e-06
2.95811e-06
2.44505e-06
2.18654e-06
1.80053e-06
1.60636e-06
1.31706e-06
1.17183e-06
9.56013e-07
8.47926e-07
6.87788e-07
6.07809e-07
4.89745e-07
4.30972e-07
3.44586e-07
3.01751e-07
2.39118e-07
2.08205e-07
1.63282e-07
1.41197e-07
1.09227e-07
9.29372e-08
6.76684e-08
4.77126e-08
3.9249e-08
2.88832e-08
2.40452e-08
1.7493e-08
1.4432e-08
1.03144e-08
8.41294e-09
5.90122e-09
4.75577e-09
3.27178e-09
2.60312e-09
1.7531e-09
1.37441e-09
9.01693e-10
6.93407e-10
4.38132e-10
3.2703e-10
1.93737e-10
1.36755e-10
7.06456e-11
4.39372e-11
1.64531e-11
6.75894e-12
-1.14915e-14
-1.99696e-12
-2.49052e-12
-2.60861e-12
-2.63521e-12
0.00020462
0.000191683
0.000180364
0.000150428
0.000135697
0.000109683
9.79593e-05
7.92391e-05
7.0542e-05
5.58174e-05
4.40213e-05
3.92311e-05
3.24005e-05
2.93207e-05
2.43641e-05
2.20953e-05
1.83846e-05
1.66794e-05
1.38776e-05
1.25879e-05
1.04643e-05
9.48611e-06
7.87412e-06
7.13156e-06
5.9079e-06
5.34448e-06
4.41662e-06
3.98976e-06
3.28755e-06
2.96487e-06
2.43483e-06
2.1916e-06
1.79282e-06
1.61014e-06
1.31128e-06
1.17464e-06
9.51689e-07
8.49994e-07
6.84571e-07
6.09323e-07
4.87366e-07
4.3207e-07
3.42839e-07
3.02538e-07
2.37846e-07
2.08762e-07
1.62366e-07
1.4159e-07
1.08598e-07
9.32949e-08
6.74547e-08
4.7252e-08
3.93244e-08
2.86616e-08
2.41133e-08
1.7353e-08
1.4474e-08
1.02256e-08
8.43721e-09
5.84646e-09
4.76923e-09
3.23911e-09
2.61033e-09
1.73422e-09
1.37815e-09
8.91099e-10
6.95274e-10
4.32356e-10
3.27912e-10
1.90681e-10
1.37117e-10
6.90679e-11
4.39672e-11
1.57409e-11
6.6417e-12
-2.03017e-13
-2.05667e-12
-2.50553e-12
-2.61224e-12
-2.63624e-12
0.00020563
0.000191597
0.000181773
0.000149291
0.000136525
0.000108602
9.84635e-05
7.84806e-05
7.09871e-05
5.5588e-05
4.34784e-05
3.93725e-05
3.2115e-05
2.94559e-05
2.41604e-05
2.21995e-05
1.82326e-05
1.67587e-05
1.3763e-05
1.26483e-05
1.03776e-05
9.53202e-06
7.80826e-06
7.1664e-06
5.85788e-06
5.37088e-06
4.37867e-06
4.0097e-06
3.2588e-06
2.97988e-06
2.4131e-06
2.20286e-06
1.77645e-06
1.61854e-06
1.29898e-06
1.18088e-06
9.425e-07
8.54601e-07
6.77737e-07
6.12697e-07
4.82312e-07
4.34519e-07
3.39129e-07
3.04297e-07
2.35145e-07
2.10009e-07
1.60423e-07
1.4247e-07
1.0726e-07
9.40727e-08
6.70145e-08
4.62997e-08
3.95087e-08
2.81949e-08
2.42696e-08
1.70576e-08
1.45706e-08
1.00382e-08
8.49345e-09
5.73107e-09
4.80074e-09
3.17032e-09
2.6274e-09
1.6945e-09
1.3871e-09
8.6884e-10
6.99814e-10
4.20234e-10
3.301e-10
1.84274e-10
1.38057e-10
6.57707e-11
4.41214e-11
1.42632e-11
6.43403e-12
-5.94286e-13
-2.1726e-12
-2.53422e-12
-2.61915e-12
-2.63821e-12
0.000207199
0.00019134
0.000184087
0.000147364
0.000137957
0.000106807
9.93606e-05
7.72217e-05
7.17476e-05
5.52265e-05
4.26148e-05
3.96395e-05
3.16453e-05
2.96963e-05
2.38229e-05
2.23838e-05
1.79807e-05
1.68988e-05
1.35731e-05
1.27548e-05
1.02337e-05
9.61295e-06
7.69904e-06
7.22784e-06
5.77494e-06
5.41742e-06
4.31574e-06
4.04487e-06
3.21114e-06
3.00638e-06
2.37708e-06
2.22275e-06
1.74932e-06
1.6334e-06
1.27862e-06
1.19192e-06
9.27281e-07
8.62756e-07
6.66421e-07
6.18678e-07
4.7395e-07
4.38867e-07
3.32993e-07
3.07425e-07
2.30681e-07
2.12231e-07
1.57212e-07
1.44039e-07
1.0504e-07
9.54044e-08
6.63199e-08
4.47898e-08
3.98733e-08
2.74324e-08
2.45571e-08
1.65729e-08
1.47488e-08
9.73119e-09
8.5983e-09
5.54232e-09
4.8602e-09
3.058e-09
2.66003e-09
1.62974e-09
1.40447e-09
8.326e-10
7.08768e-10
4.00527e-10
3.34511e-10
1.7388e-10
1.40037e-10
6.0447e-11
4.46032e-11
1.19039e-11
6.19415e-12
-1.20363e-12
-2.33722e-12
-2.57397e-12
-2.62868e-12
-2.64092e-12
0.000209402
0.000190738
0.000187579
0.000144344
0.000140258
0.000104064
0.000100845
7.52957e-05
7.29496e-05
5.47082e-05
4.13654e-05
4.01069e-05
3.09335e-05
3.00934e-05
2.33079e-05
2.26864e-05
1.75958e-05
1.71285e-05
1.32828e-05
1.29293e-05
1.00137e-05
9.74554e-06
7.53205e-06
7.32849e-06
5.64815e-06
5.4937e-06
4.21955e-06
4.10253e-06
3.13829e-06
3.04983e-06
2.32205e-06
2.25538e-06
1.70787e-06
1.65779e-06
1.24752e-06
1.21007e-06
9.04051e-07
8.76178e-07
6.49157e-07
6.28535e-07
4.61198e-07
4.46045e-07
3.23641e-07
3.12599e-07
2.23883e-07
2.15915e-07
1.52327e-07
1.46639e-07
1.01644e-07
9.75135e-08
6.53225e-08
4.26149e-08
4.05387e-08
2.6287e-08
2.50488e-08
1.58416e-08
1.50547e-08
9.26871e-09
8.78001e-09
5.25857e-09
4.96442e-09
2.88949e-09
2.71793e-09
1.53277e-09
1.4357e-09
7.78432e-10
7.25093e-10
3.71129e-10
3.42704e-10
1.58413e-10
1.43847e-10
5.25727e-11
4.57589e-11
8.46486e-12
6.02168e-12
-2.06358e-12
-2.53772e-12
-2.62099e-12
-2.63989e-12
-2.64411e-12
0.0016791
0.000301392
0.000230468
0.000169325
0.000163227
0.000141553
0.000139313
0.000120862
0.0001189
0.000101187
8.51093e-05
8.3496e-05
7.00683e-05
6.87659e-05
5.73117e-05
5.62119e-05
4.65909e-05
4.56724e-05
3.76939e-05
3.69355e-05
3.0383e-05
2.9762e-05
2.44198e-05
2.39147e-05
1.95831e-05
1.91743e-05
1.56767e-05
1.5347e-05
1.25319e-05
1.22669e-05
1.00068e-05
9.79417e-06
7.9833e-06
7.81306e-06
6.36454e-06
6.22844e-06
5.07139e-06
4.96273e-06
4.03964e-06
3.95299e-06
3.21735e-06
3.14833e-06
2.5626e-06
2.50766e-06
2.04164e-06
1.99793e-06
1.62727e-06
1.59244e-06
1.29735e-06
1.26844e-06
1.02567e-06
8.28201e-07
8.09002e-07
6.58899e-07
6.44704e-07
5.24299e-07
5.12914e-07
4.15453e-07
4.062e-07
3.26538e-07
3.18932e-07
2.52993e-07
2.46654e-07
1.91221e-07
1.85853e-07
1.38466e-07
1.33887e-07
9.3499e-08
8.96883e-08
5.69722e-08
5.39863e-08
2.94677e-08
2.7267e-08
9.51609e-09
8.22056e-09
1.13374e-09
7.44226e-10
6.77943e-10
6.62981e-10
6.59638e-10
0.00153198
0.000413103
0.000252212
0.000179292
0.000163823
0.000143514
0.000138219
0.000122137
0.000117542
0.000101363
8.64866e-05
8.26977e-05
7.10566e-05
6.80407e-05
5.81492e-05
5.56048e-05
4.72969e-05
4.51719e-05
3.82813e-05
3.65264e-05
3.08666e-05
2.94297e-05
2.48148e-05
2.3646e-05
1.99038e-05
1.89578e-05
1.59359e-05
1.51731e-05
1.27408e-05
1.21274e-05
1.01746e-05
9.68253e-06
8.11779e-06
7.72384e-06
6.47217e-06
6.15722e-06
5.15739e-06
4.90595e-06
4.10828e-06
3.90777e-06
3.27207e-06
3.11233e-06
2.60618e-06
2.47904e-06
2.07631e-06
1.97516e-06
1.65481e-06
1.57417e-06
1.3186e-06
1.25109e-06
1.03046e-06
8.45887e-07
8.00656e-07
6.70217e-07
6.37316e-07
5.33223e-07
5.06873e-07
4.22647e-07
4.01234e-07
3.32394e-07
3.14794e-07
2.57816e-07
2.43147e-07
1.95254e-07
1.82834e-07
1.41912e-07
1.31322e-07
9.64743e-08
8.76616e-08
5.94332e-08
5.25261e-08
3.13412e-08
2.62538e-08
1.09998e-08
8.0031e-09
1.8168e-09
9.03232e-10
7.15264e-10
6.7197e-10
6.6227e-10
0.00142962
0.000486492
0.000270435
0.00018696
0.000164613
0.000144873
0.000137556
0.000122953
0.000116646
0.000101486
8.74198e-05
8.2213e-05
7.16995e-05
6.759e-05
5.86924e-05
5.52278e-05
4.77552e-05
4.48618e-05
3.8663e-05
3.62733e-05
3.1181e-05
2.92243e-05
2.50718e-05
2.34801e-05
2.01125e-05
1.88242e-05
1.61047e-05
1.50658e-05
1.28767e-05
1.20414e-05
1.02838e-05
9.61373e-06
8.2054e-06
7.66887e-06
6.54228e-06
6.11335e-06
5.21343e-06
4.87098e-06
4.153e-06
3.87992e-06
3.30772e-06
3.09018e-06
2.63458e-06
2.46142e-06
2.09891e-06
1.96114e-06
1.67275e-06
1.56289e-06
1.33231e-06
1.23985e-06
1.0338e-06
8.57993e-07
7.95714e-07
6.77629e-07
6.32772e-07
5.39033e-07
5.03143e-07
4.27326e-07
3.98163e-07
3.36199e-07
3.12229e-07
2.60945e-07
2.40968e-07
1.97866e-07
1.80953e-07
1.44144e-07
1.29726e-07
9.84074e-08
8.6411e-08
6.10408e-08
5.16366e-08
3.25706e-08
2.56472e-08
1.19931e-08
7.91314e-09
2.28891e-09
1.03319e-09
7.46784e-10
6.79606e-10
6.64509e-10
0.00136498
0.000530793
0.000283351
0.00019218
0.000165295
0.000145734
0.000137183
0.000123435
0.000116104
0.000101565
8.79977e-05
8.19397e-05
7.20854e-05
6.73301e-05
5.90177e-05
5.50107e-05
4.80299e-05
4.46834e-05
3.88918e-05
3.61279e-05
3.13697e-05
2.91065e-05
2.5226e-05
2.3385e-05
2.02379e-05
1.87476e-05
1.6206e-05
1.50043e-05
1.29584e-05
1.19922e-05
1.03495e-05
9.57435e-06
8.25804e-06
7.63742e-06
6.58442e-06
6.08826e-06
5.24711e-06
4.85099e-06
4.17988e-06
3.864e-06
3.32916e-06
3.07751e-06
2.65165e-06
2.45135e-06
2.11249e-06
1.95313e-06
1.68353e-06
1.55642e-06
1.34049e-06
1.23314e-06
1.03591e-06
8.65548e-07
7.92996e-07
6.82103e-07
6.30176e-07
5.42523e-07
5.01005e-07
4.30133e-07
3.96399e-07
3.3848e-07
3.10753e-07
2.62819e-07
2.39711e-07
1.99428e-07
1.79866e-07
1.45479e-07
1.28805e-07
9.95666e-08
8.56944e-08
6.2009e-08
5.1133e-08
3.33138e-08
2.53094e-08
1.26032e-08
7.88483e-09
2.5862e-09
1.12433e-09
7.69514e-10
6.85146e-10
6.66134e-10
0.00133371
0.000551618
0.000290013
0.000194825
0.000165683
0.000146152
0.000137016
0.000123659
0.000115848
0.000101603
8.8274e-05
8.18172e-05
7.22664e-05
6.72117e-05
5.917e-05
5.49117e-05
4.81585e-05
4.46022e-05
3.89991e-05
3.60618e-05
3.14581e-05
2.9053e-05
2.52983e-05
2.33418e-05
2.02966e-05
1.87129e-05
1.62536e-05
1.49765e-05
1.29967e-05
1.19699e-05
1.03803e-05
9.5565e-06
8.28274e-06
7.62316e-06
6.60419e-06
6.07689e-06
5.26291e-06
4.84192e-06
4.1925e-06
3.85679e-06
3.33921e-06
3.07177e-06
2.65966e-06
2.44678e-06
2.11887e-06
1.9495e-06
1.68859e-06
1.55348e-06
1.34431e-06
1.23e-06
1.03694e-06
8.69177e-07
7.918e-07
6.84209e-07
6.29001e-07
5.44161e-07
5.00035e-07
4.3145e-07
3.95597e-07
3.39549e-07
3.10081e-07
2.63697e-07
2.39138e-07
2.00159e-07
1.7937e-07
1.46103e-07
1.28385e-07
1.0011e-07
8.53691e-08
6.2464e-08
5.09064e-08
3.36639e-08
2.51594e-08
1.28935e-08
7.87957e-09
2.72993e-09
1.17115e-09
7.81398e-10
6.88054e-10
6.66988e-10
0.00133371
0.000551618
0.000290013
0.000194825
0.000165683
0.000146152
0.000137016
0.000123659
0.000115848
0.000101603
8.8274e-05
8.18172e-05
7.22664e-05
6.72117e-05
5.917e-05
5.49117e-05
4.81585e-05
4.46022e-05
3.89991e-05
3.60618e-05
3.14581e-05
2.9053e-05
2.52983e-05
2.33418e-05
2.02966e-05
1.87129e-05
1.62536e-05
1.49765e-05
1.29967e-05
1.19699e-05
1.03803e-05
9.5565e-06
8.28274e-06
7.62316e-06
6.60419e-06
6.07689e-06
5.26291e-06
4.84192e-06
4.1925e-06
3.85679e-06
3.33921e-06
3.07177e-06
2.65966e-06
2.44678e-06
2.11887e-06
1.9495e-06
1.68859e-06
1.55348e-06
1.34431e-06
1.23e-06
1.03694e-06
8.69177e-07
7.918e-07
6.8421e-07
6.29001e-07
5.44161e-07
5.00035e-07
4.3145e-07
3.95597e-07
3.39549e-07
3.10081e-07
2.63697e-07
2.39138e-07
2.00159e-07
1.7937e-07
1.46103e-07
1.28385e-07
1.0011e-07
8.53691e-08
6.2464e-08
5.09064e-08
3.36639e-08
2.51594e-08
1.28935e-08
7.87956e-09
2.72992e-09
1.17114e-09
7.81397e-10
6.88054e-10
6.66987e-10
0.00136499
0.000530793
0.000283351
0.00019218
0.000165295
0.000145734
0.000137183
0.000123435
0.000116104
0.000101565
8.79977e-05
8.19398e-05
7.20854e-05
6.73302e-05
5.90177e-05
5.50107e-05
4.80299e-05
4.46834e-05
3.88919e-05
3.61279e-05
3.13697e-05
2.91065e-05
2.5226e-05
2.3385e-05
2.02379e-05
1.87476e-05
1.62061e-05
1.50043e-05
1.29584e-05
1.19922e-05
1.03495e-05
9.57436e-06
8.25804e-06
7.63742e-06
6.58442e-06
6.08826e-06
5.24711e-06
4.85099e-06
4.17989e-06
3.864e-06
3.32916e-06
3.07751e-06
2.65165e-06
2.45135e-06
2.1125e-06
1.95313e-06
1.68353e-06
1.55642e-06
1.34049e-06
1.23314e-06
1.03591e-06
8.65548e-07
7.92996e-07
6.82103e-07
6.30176e-07
5.42524e-07
5.01005e-07
4.30134e-07
3.96399e-07
3.3848e-07
3.10753e-07
2.62819e-07
2.39711e-07
1.99428e-07
1.79866e-07
1.45479e-07
1.28805e-07
9.95665e-08
8.56943e-08
6.2009e-08
5.11329e-08
3.33138e-08
2.53094e-08
1.26032e-08
7.88481e-09
2.58618e-09
1.12432e-09
7.6951e-10
6.85144e-10
6.66132e-10
0.00142963
0.000486491
0.000270435
0.00018696
0.000164612
0.000144873
0.000137556
0.000122953
0.000116647
0.000101486
8.74199e-05
8.22131e-05
7.16995e-05
6.759e-05
5.86925e-05
5.52279e-05
4.77552e-05
4.48618e-05
3.8663e-05
3.62733e-05
3.1181e-05
2.92244e-05
2.50718e-05
2.34801e-05
2.01125e-05
1.88242e-05
1.61047e-05
1.50658e-05
1.28767e-05
1.20414e-05
1.02838e-05
9.61373e-06
8.2054e-06
7.66887e-06
6.54229e-06
6.11336e-06
5.21343e-06
4.87099e-06
4.153e-06
3.87992e-06
3.30772e-06
3.09018e-06
2.63458e-06
2.46142e-06
2.09891e-06
1.96114e-06
1.67275e-06
1.56289e-06
1.33231e-06
1.23985e-06
1.0338e-06
8.57993e-07
7.95715e-07
6.77629e-07
6.32772e-07
5.39033e-07
5.03144e-07
4.27326e-07
3.98163e-07
3.36199e-07
3.12229e-07
2.60945e-07
2.40968e-07
1.97866e-07
1.80953e-07
1.44144e-07
1.29726e-07
9.84074e-08
8.64109e-08
6.10408e-08
5.16365e-08
3.25705e-08
2.56471e-08
1.1993e-08
7.91312e-09
2.28889e-09
1.03318e-09
7.46779e-10
6.79604e-10
6.64505e-10
0.00153199
0.000413103
0.000252212
0.000179292
0.000163823
0.000143514
0.000138219
0.000122137
0.000117542
0.000101363
8.64867e-05
8.26978e-05
7.10567e-05
6.80407e-05
5.81493e-05
5.56048e-05
4.72969e-05
4.51719e-05
3.82813e-05
3.65264e-05
3.08666e-05
2.94297e-05
2.48148e-05
2.3646e-05
1.99038e-05
1.89578e-05
1.59359e-05
1.51731e-05
1.27408e-05
1.21274e-05
1.01746e-05
9.68253e-06
8.1178e-06
7.72384e-06
6.47217e-06
6.15722e-06
5.1574e-06
4.90595e-06
4.10828e-06
3.90777e-06
3.27207e-06
3.11233e-06
2.60618e-06
2.47904e-06
2.07631e-06
1.97516e-06
1.65481e-06
1.57417e-06
1.3186e-06
1.25109e-06
1.03046e-06
8.45887e-07
8.00657e-07
6.70217e-07
6.37317e-07
5.33223e-07
5.06873e-07
4.22647e-07
4.01234e-07
3.32394e-07
3.14794e-07
2.57816e-07
2.43147e-07
1.95254e-07
1.82834e-07
1.41912e-07
1.31322e-07
9.64743e-08
8.76616e-08
5.94331e-08
5.25261e-08
3.13412e-08
2.62538e-08
1.09998e-08
8.00308e-09
1.81678e-09
9.03223e-10
7.1526e-10
6.71968e-10
6.62267e-10
0.0016791
0.000301392
0.000230468
0.000169325
0.000163227
0.000141553
0.000139313
0.000120862
0.0001189
0.000101187
8.51094e-05
8.3496e-05
7.00683e-05
6.8766e-05
5.73117e-05
5.62119e-05
4.65909e-05
4.56724e-05
3.7694e-05
3.69355e-05
3.0383e-05
2.9762e-05
2.44198e-05
2.39147e-05
1.95831e-05
1.91743e-05
1.56767e-05
1.5347e-05
1.25319e-05
1.22669e-05
1.00068e-05
9.79417e-06
7.98331e-06
7.81307e-06
6.36454e-06
6.22844e-06
5.07139e-06
4.96273e-06
4.03964e-06
3.953e-06
3.21735e-06
3.14833e-06
2.5626e-06
2.50766e-06
2.04164e-06
1.99793e-06
1.62727e-06
1.59244e-06
1.29735e-06
1.26844e-06
1.02567e-06
8.28201e-07
8.09002e-07
6.589e-07
6.44704e-07
5.24299e-07
5.12915e-07
4.15453e-07
4.062e-07
3.26538e-07
3.18933e-07
2.52993e-07
2.46654e-07
1.91221e-07
1.85853e-07
1.38466e-07
1.33887e-07
9.3499e-08
8.96883e-08
5.69722e-08
5.39863e-08
2.94677e-08
2.7267e-08
9.51608e-09
8.22056e-09
1.13373e-09
7.44222e-10
6.77941e-10
6.62981e-10
6.59637e-10
0.00167762
0.000299534
0.000228598
0.00016757
0.000161487
0.000139985
0.000137763
0.000119491
0.000117549
0.000100016
8.41062e-05
8.25099e-05
6.92266e-05
6.79384e-05
5.66108e-05
5.55232e-05
4.60113e-05
4.51033e-05
3.72176e-05
3.6468e-05
2.99936e-05
2.938e-05
2.41028e-05
2.36039e-05
1.9326e-05
1.89223e-05
1.54689e-05
1.51434e-05
1.23645e-05
1.21029e-05
9.87225e-06
9.66242e-06
7.87547e-06
7.70748e-06
6.2783e-06
6.14402e-06
5.00256e-06
4.89537e-06
3.98481e-06
3.89934e-06
3.17374e-06
3.10566e-06
2.52797e-06
2.47378e-06
2.01416e-06
1.97106e-06
1.6055e-06
1.57115e-06
1.28012e-06
1.25161e-06
1.01218e-06
8.17418e-07
7.98482e-07
6.50434e-07
6.36432e-07
5.17668e-07
5.06438e-07
4.10296e-07
4.01168e-07
3.22576e-07
3.15072e-07
2.50007e-07
2.43751e-07
1.89039e-07
1.8374e-07
1.36948e-07
1.32426e-07
9.25177e-08
8.8751e-08
5.63985e-08
5.34451e-08
2.91855e-08
2.70072e-08
9.42618e-09
8.14303e-09
1.12279e-09
7.36944e-10
6.71285e-10
6.56465e-10
6.53153e-10
0.00153047
0.000411279
0.00025036
0.000177533
0.000162097
0.000141934
0.000136682
0.000120755
0.000116205
0.000100191
8.54693e-05
8.17204e-05
7.02044e-05
6.72213e-05
5.74391e-05
5.49231e-05
4.67093e-05
4.46087e-05
3.77982e-05
3.60639e-05
3.04714e-05
2.90518e-05
2.4493e-05
2.33385e-05
1.96427e-05
1.87085e-05
1.57249e-05
1.49717e-05
1.25707e-05
1.19652e-05
1.00378e-05
9.55226e-06
8.00819e-06
7.61945e-06
6.38449e-06
6.07377e-06
5.08741e-06
4.83936e-06
4.05252e-06
3.85474e-06
3.22771e-06
3.07016e-06
2.57095e-06
2.44555e-06
2.04836e-06
1.9486e-06
1.63266e-06
1.55313e-06
1.30107e-06
1.23449e-06
1.0169e-06
8.34861e-07
7.90251e-07
6.61596e-07
6.29145e-07
5.2647e-07
5.00478e-07
4.17393e-07
3.96269e-07
3.28353e-07
3.10988e-07
2.54766e-07
2.4029e-07
1.93018e-07
1.80757e-07
1.40351e-07
1.29891e-07
9.54569e-08
8.67461e-08
5.88317e-08
5.19998e-08
3.10388e-08
2.60032e-08
1.08956e-08
7.92751e-09
1.79942e-09
8.94452e-10
7.08255e-10
6.65368e-10
6.5576e-10
0.00142808
0.00048469
0.000268596
0.000185198
0.000162895
0.000143286
0.000136027
0.000121563
0.000115319
0.000100313
8.63929e-05
8.1241e-05
7.08405e-05
6.67757e-05
5.79764e-05
5.45505e-05
4.71625e-05
4.43023e-05
3.81755e-05
3.58138e-05
3.07821e-05
2.8849e-05
2.47468e-05
2.31747e-05
1.98489e-05
1.85767e-05
1.58915e-05
1.48658e-05
1.27049e-05
1.18804e-05
1.01457e-05
9.48438e-06
8.09464e-06
7.56522e-06
6.45368e-06
6.0305e-06
5.14269e-06
4.80488e-06
4.09664e-06
3.82727e-06
3.26288e-06
3.04831e-06
2.59896e-06
2.42817e-06
2.07065e-06
1.93477e-06
1.65035e-06
1.54201e-06
1.3146e-06
1.22341e-06
1.02019e-06
8.468e-07
7.85376e-07
6.68906e-07
6.24662e-07
5.32201e-07
4.96799e-07
4.22008e-07
3.93238e-07
3.32107e-07
3.08457e-07
2.57853e-07
2.38138e-07
1.95596e-07
1.789e-07
1.42554e-07
1.28313e-07
9.73666e-08
8.55087e-08
6.04211e-08
5.11193e-08
3.22548e-08
2.54019e-08
1.18792e-08
7.83832e-09
2.26707e-09
1.02318e-09
7.39478e-10
6.72932e-10
6.57977e-10
0.00136342
0.000529005
0.000281521
0.000190417
0.000163583
0.000144143
0.000135659
0.000122041
0.000114782
0.000100391
8.69649e-05
8.09708e-05
7.12223e-05
6.65188e-05
5.82981e-05
5.43358e-05
4.74341e-05
4.4126e-05
3.84017e-05
3.56702e-05
3.09686e-05
2.87326e-05
2.48992e-05
2.30808e-05
1.99727e-05
1.85011e-05
1.59916e-05
1.48052e-05
1.27855e-05
1.18318e-05
1.02105e-05
9.44553e-06
8.14659e-06
7.5342e-06
6.49525e-06
6.00575e-06
5.17592e-06
4.78515e-06
4.12316e-06
3.81157e-06
3.28402e-06
3.03582e-06
2.6158e-06
2.41824e-06
2.08405e-06
1.92687e-06
1.66099e-06
1.53562e-06
1.32267e-06
1.21679e-06
1.02228e-06
8.54251e-07
7.82694e-07
6.7332e-07
6.22102e-07
5.35643e-07
4.94689e-07
4.24777e-07
3.91498e-07
3.34357e-07
3.07e-07
2.59702e-07
2.36898e-07
1.97138e-07
1.77826e-07
1.43872e-07
1.27402e-07
9.85115e-08
8.47996e-08
6.13783e-08
5.06207e-08
3.29899e-08
2.50671e-08
1.24834e-08
7.81022e-09
2.56155e-09
1.11347e-09
7.61993e-10
6.7842e-10
6.59588e-10
0.00133214
0.000549837
0.000288187
0.000193062
0.000163973
0.000144559
0.000135494
0.000122262
0.000114529
0.000100429
8.72383e-05
8.08496e-05
7.14013e-05
6.64016e-05
5.84487e-05
5.4238e-05
4.75613e-05
4.40457e-05
3.85077e-05
3.56049e-05
3.1056e-05
2.86797e-05
2.49707e-05
2.30382e-05
2.00307e-05
1.84668e-05
1.60386e-05
1.47777e-05
1.28234e-05
1.18098e-05
1.02409e-05
9.42792e-06
8.17097e-06
7.52013e-06
6.51476e-06
5.99453e-06
5.19151e-06
4.77621e-06
4.1356e-06
3.80446e-06
3.29395e-06
3.03016e-06
2.6237e-06
2.41374e-06
2.09034e-06
1.92329e-06
1.66598e-06
1.53273e-06
1.32643e-06
1.2137e-06
1.02329e-06
8.57831e-07
7.81515e-07
6.75397e-07
6.20942e-07
5.37258e-07
4.93732e-07
4.26076e-07
3.90707e-07
3.35411e-07
3.06337e-07
2.60568e-07
2.36332e-07
1.97859e-07
1.77336e-07
1.44488e-07
1.26987e-07
9.90479e-08
8.44777e-08
6.1828e-08
5.03964e-08
3.33362e-08
2.49183e-08
1.27709e-08
7.80498e-09
2.70393e-09
1.15984e-09
7.73766e-10
6.81302e-10
6.60433e-10
0.00133214
0.000549837
0.000288187
0.000193062
0.000163973
0.000144559
0.000135494
0.000122262
0.000114529
0.000100429
8.72383e-05
8.08497e-05
7.14014e-05
6.64016e-05
5.84487e-05
5.4238e-05
4.75613e-05
4.40457e-05
3.85077e-05
3.56049e-05
3.1056e-05
2.86797e-05
2.49707e-05
2.30382e-05
2.00307e-05
1.84668e-05
1.60386e-05
1.47777e-05
1.28234e-05
1.18098e-05
1.02409e-05
9.42792e-06
8.17097e-06
7.52013e-06
6.51476e-06
5.99453e-06
5.19151e-06
4.77621e-06
4.1356e-06
3.80446e-06
3.29395e-06
3.03016e-06
2.6237e-06
2.41374e-06
2.09034e-06
1.92329e-06
1.66598e-06
1.53273e-06
1.32643e-06
1.2137e-06
1.02329e-06
8.57831e-07
7.81515e-07
6.75397e-07
6.20942e-07
5.37258e-07
4.93732e-07
4.26076e-07
3.90707e-07
3.35411e-07
3.06337e-07
2.60568e-07
2.36332e-07
1.97859e-07
1.77336e-07
1.44488e-07
1.26987e-07
9.90479e-08
8.44777e-08
6.1828e-08
5.03964e-08
3.33362e-08
2.49183e-08
1.27709e-08
7.80497e-09
2.70392e-09
1.15984e-09
7.73764e-10
6.81301e-10
6.60432e-10
0.00136342
0.000529005
0.000281521
0.000190417
0.000163583
0.000144143
0.000135659
0.000122041
0.000114782
0.000100391
8.69649e-05
8.09708e-05
7.12223e-05
6.65188e-05
5.82982e-05
5.43359e-05
4.74341e-05
4.4126e-05
3.84017e-05
3.56702e-05
3.09686e-05
2.87326e-05
2.48993e-05
2.30808e-05
1.99727e-05
1.85011e-05
1.59916e-05
1.48052e-05
1.27855e-05
1.18318e-05
1.02105e-05
9.44553e-06
8.14659e-06
7.5342e-06
6.49526e-06
6.00575e-06
5.17592e-06
4.78515e-06
4.12316e-06
3.81157e-06
3.28403e-06
3.03582e-06
2.6158e-06
2.41824e-06
2.08405e-06
1.92687e-06
1.66099e-06
1.53562e-06
1.32267e-06
1.21679e-06
1.02228e-06
8.54252e-07
7.82695e-07
6.7332e-07
6.22102e-07
5.35643e-07
4.9469e-07
4.24778e-07
3.91498e-07
3.34357e-07
3.07e-07
2.59702e-07
2.36898e-07
1.97138e-07
1.77826e-07
1.43872e-07
1.27402e-07
9.85115e-08
8.47996e-08
6.13783e-08
5.06207e-08
3.29899e-08
2.5067e-08
1.24834e-08
7.8102e-09
2.56154e-09
1.11346e-09
7.6199e-10
6.78419e-10
6.59585e-10
0.00142808
0.00048469
0.000268596
0.000185198
0.000162895
0.000143286
0.000136027
0.000121563
0.000115319
0.000100313
8.6393e-05
8.12411e-05
7.08405e-05
6.67757e-05
5.79764e-05
5.45505e-05
4.71626e-05
4.43023e-05
3.81755e-05
3.58138e-05
3.07821e-05
2.8849e-05
2.47469e-05
2.31747e-05
1.98489e-05
1.85767e-05
1.58915e-05
1.48658e-05
1.27049e-05
1.18804e-05
1.01457e-05
9.48438e-06
8.09465e-06
7.56523e-06
6.45368e-06
6.0305e-06
5.1427e-06
4.80488e-06
4.09664e-06
3.82728e-06
3.26289e-06
3.04832e-06
2.59896e-06
2.42818e-06
2.07065e-06
1.93478e-06
1.65036e-06
1.54201e-06
1.3146e-06
1.22341e-06
1.02019e-06
8.46801e-07
7.85376e-07
6.68906e-07
6.24662e-07
5.32201e-07
4.96799e-07
4.22008e-07
3.93239e-07
3.32107e-07
3.08457e-07
2.57853e-07
2.38138e-07
1.95596e-07
1.789e-07
1.42554e-07
1.28313e-07
9.73666e-08
8.55087e-08
6.0421e-08
5.11193e-08
3.22548e-08
2.54018e-08
1.18792e-08
7.8383e-09
2.26705e-09
1.02317e-09
7.39473e-10
6.72931e-10
6.57974e-10
0.00153047
0.000411279
0.00025036
0.000177533
0.000162097
0.000141934
0.000136682
0.000120755
0.000116205
0.000100191
8.54694e-05
8.17204e-05
7.02045e-05
6.72213e-05
5.74391e-05
5.49231e-05
4.67094e-05
4.46088e-05
3.77982e-05
3.60639e-05
3.04714e-05
2.90518e-05
2.4493e-05
2.33386e-05
1.96428e-05
1.87085e-05
1.57249e-05
1.49717e-05
1.25707e-05
1.19652e-05
1.00378e-05
9.55226e-06
8.00819e-06
7.61946e-06
6.3845e-06
6.07377e-06
5.08741e-06
4.83937e-06
4.05252e-06
3.85474e-06
3.22771e-06
3.07017e-06
2.57095e-06
2.44555e-06
2.04836e-06
1.9486e-06
1.63266e-06
1.55313e-06
1.30107e-06
1.23449e-06
1.0169e-06
8.34861e-07
7.90251e-07
6.61597e-07
6.29145e-07
5.2647e-07
5.00478e-07
4.17393e-07
3.96269e-07
3.28354e-07
3.10989e-07
2.54766e-07
2.4029e-07
1.93018e-07
1.80757e-07
1.40351e-07
1.29891e-07
9.54569e-08
8.67461e-08
5.88317e-08
5.19998e-08
3.10388e-08
2.60032e-08
1.08955e-08
7.92749e-09
1.7994e-09
8.94442e-10
7.0825e-10
6.65367e-10
6.55757e-10
0.00167762
0.000299534
0.000228598
0.00016757
0.000161487
0.000139985
0.000137763
0.000119491
0.000117549
0.000100016
8.41063e-05
8.25099e-05
6.92267e-05
6.79385e-05
5.66108e-05
5.55233e-05
4.60113e-05
4.51034e-05
3.72176e-05
3.64681e-05
2.99936e-05
2.938e-05
2.41028e-05
2.36039e-05
1.9326e-05
1.89223e-05
1.54689e-05
1.51434e-05
1.23645e-05
1.21029e-05
9.87226e-06
9.66242e-06
7.87547e-06
7.70749e-06
6.2783e-06
6.14403e-06
5.00256e-06
4.89538e-06
3.98481e-06
3.89935e-06
3.17374e-06
3.10566e-06
2.52797e-06
2.47378e-06
2.01417e-06
1.97106e-06
1.6055e-06
1.57115e-06
1.28012e-06
1.25161e-06
1.01218e-06
8.17418e-07
7.98482e-07
6.50434e-07
6.36432e-07
5.17668e-07
5.06438e-07
4.10296e-07
4.01169e-07
3.22576e-07
3.15072e-07
2.50007e-07
2.43751e-07
1.89039e-07
1.8374e-07
1.36948e-07
1.32426e-07
9.25177e-08
8.8751e-08
5.63985e-08
5.34451e-08
2.91855e-08
2.70072e-08
9.42617e-09
8.14302e-09
1.12278e-09
7.3694e-10
6.71284e-10
6.56464e-10
6.53151e-10
0.000207958
0.000189386
0.000186246
0.000143281
0.000139221
0.000103267
0.000100069
7.46991e-05
7.23698e-05
5.42627e-05
4.10216e-05
3.97729e-05
3.06718e-05
2.98384e-05
2.31078e-05
2.24914e-05
1.74428e-05
1.69794e-05
1.31659e-05
1.28154e-05
9.92467e-06
9.65882e-06
7.46444e-06
7.26264e-06
5.59698e-06
5.44388e-06
4.18098e-06
4.06501e-06
3.10936e-06
3.0217e-06
2.30047e-06
2.2344e-06
1.69187e-06
1.64226e-06
1.23575e-06
1.19864e-06
8.95455e-07
8.67842e-07
6.42941e-07
6.22512e-07
4.56751e-07
4.41741e-07
3.205e-07
3.09562e-07
2.21696e-07
2.13804e-07
1.50829e-07
1.45196e-07
1.00638e-07
9.65477e-08
6.46713e-08
4.21869e-08