/*--------------------------------*- C++ -*----------------------------------*\
| =========                 |                                                 |
| \\      /  F ield         | OpenFOAM: The Open Source CFD Toolbox           |
|  \\    /   O peration     | Version:  5.x                                   |
|   \\  /    A nd           | Web:      www.OpenFOAM.org                      |
|    \\/     M anipulation  |                                                 |
\*---------------------------------------------------------------------------*/
FoamFile
{
    version     2.0;
    format      ascii;
    class       volScalarField;
    location    "0.9";
    object      gradTy;
}
// * * * * * * * * * * * * * * * * * * * * * * * * * * * * * * * * * * * * * //

dimensions      [0 -1 0 1 0 0 0];

internalField   nonuniform List<scalar> 
3200
(
4.14353
-3.60159
-1.8852
0.526918
-2.06565
1.70272
-2.00349
1.8436
-2.32163
0.011448
2.32428
-1.8408
1.96395
-1.90613
1.93437
-1.88382
1.91399
-1.84252
1.88181
-1.78409
1.83396
-1.70773
1.76862
-1.61359
1.68517
-1.50295
1.58417
-1.37824
1.46735
-1.24286
1.33756
-1.10094
1.19851
-0.957034
1.05459
-0.815674
0.910381
-0.681034
0.770359
-0.556593
0.638479
-0.444917
0.517906
-0.34756
0.41082
-0.265136
0.318158
-0.198323
0.235939
-0.16459
0.0639697
0.159406
-0.0614662
0.0908493
-0.0451724
0.0605203
-0.0292835
0.0397546
-0.0183037
0.025393
-0.0111518
0.0157924
-0.00666773
0.00960477
-0.00394322
0.00574765
-0.00232773
0.0034098
-0.00138626
0.00202366
-0.000842729
0.00121907
-0.000508827
0.000733355
-0.000318234
0.000525116
0.000106048
2.49447e-05
6.35665e-06
2.13865e-06
2.94543
-2.47271
-1.43048
0.243807
-1.40061
1.08142
-1.31485
1.17246
-1.58562
0.00885278
1.58953
-1.17076
1.28119
-1.23263
1.25787
-1.21853
1.24533
-1.1908
1.22557
-1.15173
1.19577
-1.10096
1.15464
-1.03866
1.1017
-0.965758
1.03723
-0.883902
0.962276
-0.79537
0.878618
-0.702901
0.788642
-0.609465
0.695164
-0.518011
0.601191
-0.431219
0.509658
-0.351297
0.423194
-0.279845
0.343921
-0.217798
0.273326
-0.165494
0.212024
-0.123561
0.156456
-0.107086
0.0455685
0.11304
-0.0354985
0.0614583
-0.0273072
0.0407878
-0.017645
0.0268345
-0.0109506
0.0171719
-0.00662399
0.0106965
-0.00393571
0.00651334
-0.0023168
0.00390052
-0.00136454
0.00231432
-0.000813253
0.00137277
-0.000496271
0.000826629
-0.000299835
0.000497037
-0.000185732
0.000367142
9.24662e-05
2.2389e-05
5.73192e-06
1.92626e-06
1.96381
-1.60258
-1.00141
0.0930689
-0.901023
0.654851
-0.821958
0.710723
-1.02415
0.00637467
1.02797
-0.709652
0.796623
-0.759751
0.779608
-0.751304
0.772226
-0.733615
0.760654
-0.708791
0.742939
-0.676685
0.718233
-0.63746
0.686185
-0.591736
0.646921
-0.540579
0.601048
-0.485438
0.549629
-0.428035
0.494118
-0.370224
0.436251
-0.313828
0.377896
-0.26049
0.320891
-0.211545
0.266897
-0.167945
0.217268
-0.130225
0.172963
-0.0985638
0.134365
-0.0734643
0.0986803
-0.0662598
0.0305507
0.075295
-0.0193659
0.039484
-0.015726
0.0261086
-0.0101292
0.0171999
-0.00623772
0.0110243
-0.00374328
0.00687679
-0.00220848
0.00419188
-0.00129323
0.00251193
-0.000759706
0.00149063
-0.000453162
0.000883788
-0.000277721
0.000531986
-0.000167919
0.000319793
-0.000102745
0.000242197
7.06405e-05
1.76438e-05
4.5455e-06
1.52415e-06
1.12462
-0.899442
-0.592377
0.0255481
-0.50377
0.349243
-0.449805
0.37932
-0.573655
0.00387758
0.576396
-0.378685
0.434174
-0.411085
0.423771
-0.406635
0.419921
-0.396808
0.413916
-0.383057
0.404608
-0.365337
0.391512
-0.343758
0.374417
-0.318679
0.35337
-0.290697
0.328683
-0.260614
0.300917
-0.229379
0.270853
-0.198003
0.239428
-0.167476
0.207661
-0.138682
0.176559
-0.112333
0.147038
-0.08893
0.119851
-0.0687448
0.0955334
-0.0518598
0.0742944
-0.0386022
0.0543583
-0.0359277
0.0175957
0.0431104
-0.00938634
0.022062
-0.00803469
0.0145459
-0.00516119
0.009592
-0.00315607
0.00615543
-0.00188011
0.00384367
-0.00110193
0.00234485
-0.000642051
0.00140581
-0.000376234
0.000834328
-0.000224603
0.000494508
-0.000138208
0.000297578
-8.36267e-05
0.000178865
-5.05306e-05
0.000137853
4.40219e-05
1.1258e-05
2.91578e-06
9.73271e-07
0.366227
-0.289753
-0.195989
0.0037012
-0.162034
0.109487
-0.143015
0.11896
-0.184629
0.00133282
0.185678
-0.118689
0.137797
-0.129876
0.134291
-0.128494
0.133098
-0.125346
0.131243
-0.120945
0.128349
-0.115287
0.124256
-0.108407
0.118894
-0.100425
0.112275
-0.0915314
0.104495
-0.081984
0.0957278
-0.0720847
0.0862195
-0.062155
0.0762667
-0.0525079
0.066192
-0.0434219
0.0563164
-0.0351205
0.0469321
-0.0277589
0.0382804
-0.0214204
0.0305344
-0.0161286
0.0237595
-0.0119968
0.0173473
-0.0113635
0.00574855
0.0140362
-0.00277256
0.00709552
-0.00245551
0.00467062
-0.00157481
0.00308155
-0.000958851
0.00197878
-0.000568595
0.00123631
-0.000331868
0.000754537
-0.000192754
0.000452485
-0.000112771
0.000268561
-6.73567e-05
0.000159149
-4.1555e-05
9.57556e-05
-2.51562e-05
5.7554e-05
-1.50741e-05
4.47589e-05
1.49285e-05
3.86661e-06
1.00419e-06
3.28533e-07
-0.36601
0.289868
0.196082
-0.00361076
0.162126
-0.109395
0.143107
-0.118868
0.184722
-0.00124041
-0.185586
0.118779
-0.137708
0.129964
-0.134205
0.128578
-0.133016
0.125425
-0.131167
0.121019
-0.128279
0.115353
-0.124193
0.108467
-0.118838
0.100477
-0.112227
0.0915759
-0.104454
0.082021
-0.0956944
0.0721145
-0.0861931
0.0621783
-0.0762464
0.0525254
-0.0661771
0.0434345
-0.0563059
0.0351291
-0.0469253
0.0277644
-0.0382763
0.0214236
-0.0305321
0.0161301
-0.0237586
0.011997
-0.0173477
0.0113627
-0.00574968
-0.0140373
0.00277161
-0.00709625
0.00245496
-0.00467106
0.00157446
-0.00308185
0.0009586
-0.00197899
0.000568424
-0.00123645
0.000331757
-0.000754625
0.000192685
-0.000452539
0.00011273
-0.000268593
6.73317e-05
-0.000159169
4.15394e-05
-9.57683e-05
2.51459e-05
-5.75619e-05
1.5069e-05
-4.47607e-05
-1.49267e-05
-3.8629e-06
-1.00371e-06
-3.46479e-07
-1.12447
0.899524
0.592445
-0.0254816
0.503838
-0.349175
0.449873
-0.379252
0.573723
-0.00380903
-0.576328
0.378753
-0.434108
0.41115
-0.423706
0.406697
-0.41986
0.396867
-0.413858
0.383112
-0.404555
0.365387
-0.391464
0.343804
-0.374374
0.318719
-0.353333
0.290731
-0.328651
0.260643
-0.300891
0.229402
-0.270832
0.198022
-0.239412
0.16749
-0.207649
0.138692
-0.17655
0.112341
-0.147032
0.0889349
-0.119847
0.0687479
-0.0955311
0.0518615
-0.0742933
0.0386028
-0.0543581
0.0359275
-0.0175962
-0.0431109
0.00938586
-0.0220624
0.00803442
-0.0145461
0.00516102
-0.00959215
0.00315595
-0.00615553
0.00188002
-0.00384374
0.00110187
-0.0023449
0.000642015
-0.00140583
0.000376212
-0.000834345
0.00022459
-0.000494518
0.0001382
-0.000297585
8.36214e-05
-0.000178869
5.05282e-05
-0.000137853
-4.402e-05
-1.12549e-05
-2.91477e-06
-9.85565e-07
-1.96378
1.60259
1.00143
-0.0930506
0.901041
-0.654832
0.821977
-0.710704
1.02416
-0.00635488
-1.02795
0.709672
-0.796603
0.75977
-0.779589
0.751323
-0.772208
0.733633
-0.760636
0.708808
-0.742923
0.676701
-0.718218
0.637475
-0.686171
0.59175
-0.646908
0.540591
-0.601037
0.485448
-0.549619
0.428044
-0.49411
0.370231
-0.436245
0.313834
-0.37789
0.260495
-0.320887
0.211549
-0.266894
0.167947
-0.217266
0.130227
-0.172962
0.0985652
-0.134364
0.0734652
-0.0986796
0.0662603
-0.0305503
-0.0752947
0.0193661
-0.0394838
0.0157262
-0.0261085
0.0101293
-0.0171999
0.00623778
-0.0110243
0.00374331
-0.00687676
0.0022085
-0.00419187
0.00129324
-0.00251192
0.000759713
-0.00149063
0.000453166
-0.000883784
0.000277724
-0.000531984
0.000167921
-0.000319791
0.000102746
-0.000242196
-7.0639e-05
-1.76422e-05
-4.54424e-06
-1.52617e-06
-2.94556
2.47264
1.43043
-0.243857
1.40056
-1.08147
1.3148
-1.17252
1.58557
-0.00890335
-1.58958
1.17071
-1.28124
1.23258
-1.25792
1.21849
-1.24537
1.19076
-1.22561
1.15169
-1.19581
1.10093
-1.15468
1.03863
-1.10173
0.965731
-1.03725
0.883879
-0.962298
0.795351
-0.878635
0.702885
-0.788655
0.609453
-0.695174
0.518002
-0.601198
0.431213
-0.509663
0.351294
-0.423197
0.279843
-0.343923
0.217797
-0.273327
0.165494
-0.212024
0.123561
-0.156455
0.107087
-0.0455675
-0.113039
0.0354993
-0.0614577
0.0273076
-0.0407874
0.0176453
-0.0268342
0.0109508
-0.0171717
0.00662412
-0.0106964
0.0039358
-0.00651328
0.00231685
-0.00390048
0.00136457
-0.0023143
0.000813272
-0.00137275
0.000496283
-0.00082662
0.000299843
-0.000497031
0.000185736
-0.00036714
-9.24666e-05
-2.23906e-05
-5.73164e-06
-1.91531e-06
-4.1438
3.60144
1.88507
-0.527043
2.06552
-1.70285
2.00336
-1.84373
2.3215
-0.0115782
-2.32441
1.84067
-1.96407
1.90601
-1.93449
1.8837
-1.91411
1.84241
-1.88192
1.78398
-1.83406
1.70764
-1.76871
1.6135
-1.68525
1.50287
-1.58424
1.37817
-1.46741
1.2428
-1.33761
1.1009
-1.19856
0.956997
-1.05462
0.815645
-0.910406
0.681012
-0.770378
0.556577
-0.638493
0.444906
-0.517915
0.347553
-0.410825
0.265132
-0.318161
0.198321
-0.23594
0.16459
-0.0639693
-0.159406
0.0614667
-0.090849
0.0451726
-0.0605201
0.0292837
-0.0397545
0.0183038
-0.0253929
0.0111519
-0.0157923
0.00666779
-0.00960471
0.00394326
-0.00574762
0.00232775
-0.00340978
0.00138627
-0.00202365
0.000842737
-0.00121906
0.000508833
-0.00073335
0.000318237
-0.000525117
-0.000106053
-2.49515e-05
-6.35967e-06
-2.11734e-06
-0.0714366
-0.243736
-1.23427
0.885952
-1.21328
1.1081
-1.33224
1.18736
-1.68738
-0.0983716
1.70669
-1.45771
1.51577
-1.53687
1.5385
-1.54138
1.55227
-1.52365
1.54642
-1.48832
1.52189
-1.43771
1.48058
-1.37427
1.42478
-1.30069
1.35704
-1.21979
1.28014
-1.1343
1.19689
-1.04678
1.10998
-0.959412
1.02187
-0.873983
0.934596
-0.791814
0.84978
-0.713809
0.768588
-0.640517
0.691786
-0.572238
0.619779
-0.509283
0.552036
-0.454901
0.475133
-0.468612
0.0688814
0.464338
-0.290253
0.342006
-0.270943
0.297352
-0.240465
0.261963
-0.21433
0.232134
-0.193285
0.207588
-0.17711
0.188229
-0.165004
0.17444
-0.152028
0.163253
-0.130399
0.145838
-0.101403
0.118927
-0.0753269
0.0994626
-0.0208303
0.0474851
0.00960851
0.00222765
0.000536595
0.000157679
-0.0633127
-0.212872
-0.85653
0.551748
-0.800705
0.70833
-0.876035
0.747675
-1.16037
-0.0690268
1.16062
-0.932824
0.985534
-0.996617
0.99846
-0.998809
1.00866
-0.985926
1.00619
-0.961733
0.99146
-0.927786
0.965668
-0.885706
0.930272
-0.837257
0.886927
-0.784263
0.837428
-0.728504
0.783611
-0.671615
0.727253
-0.614996
0.66996
-0.559769
0.6131
-0.506759
0.557753
-0.456521
0.504705
-0.409383
0.454474
-0.365521
0.407328
-0.325171
0.362741
-0.291238
0.308678
-0.31463
0.0492228
0.322116
-0.180209
0.226113
-0.172433
0.195679
-0.153341
0.172243
-0.136825
0.152478
-0.123585
0.136161
-0.113478
0.123258
-0.105916
0.114218
-0.0974659
0.10733
-0.0829786
0.0965262
-0.063758
0.0791404
-0.0466072
0.0677722
-0.0101578
0.0335106
0.00838746
0.00199934
0.000483651
0.000142201
-0.0494774
-0.16262
-0.561265
0.327573
-0.502999
0.431889
-0.548563
0.448838
-0.753753
-0.0456374
0.747042
-0.568835
0.610891
-0.615878
0.617687
-0.616846
0.624724
-0.608088
0.623959
-0.592394
0.61553
-0.570765
0.60016
-0.544216
0.578737
-0.513846
0.552278
-0.48079
0.521893
-0.446144
0.488725
-0.410909
0.453883
-0.375939
0.418379
-0.341907
0.383076
-0.309305
0.348662
-0.278457
0.315639
-0.24955
0.284341
-0.222684
0.254935
-0.198024
0.226982
-0.177862
0.19103
-0.20025
0.0330964
0.210805
-0.106602
0.142331
-0.104667
0.122619
-0.0932689
0.107846
-0.0833123
0.0953839
-0.0753659
0.0850659
-0.0693406
0.0768865
-0.0648334
0.07124
-0.0595878
0.0671889
-0.0503686
0.0607917
-0.038252
0.0500907
-0.027499
0.0437696
-0.0043523
0.022286
0.00641592
0.00157548
0.000383317
0.00011279
-0.0313742
-0.101278
-0.31784
0.171828
-0.276262
0.231707
-0.300563
0.23764
-0.423931
-0.025996
0.417441
-0.305039
0.332141
-0.33392
0.335272
-0.334291
0.339397
-0.329203
0.339308
-0.320376
0.335025
-0.30837
0.326932
-0.293742
0.315507
-0.277092
0.301298
-0.259037
0.284907
-0.240171
0.266957
-0.221033
0.248056
-0.20208
0.228759
-0.183669
0.209544
-0.166059
0.19079
-0.149417
0.172778
-0.133839
0.155695
-0.119374
0.139632
-0.106122
0.124298
-0.0955475
0.103684
-0.110952
0.0191052
0.119215
-0.0557253
0.0783146
-0.0559398
0.0672238
-0.049934
0.0590875
-0.0446428
0.0522226
-0.0404351
0.0465264
-0.0372629
0.0420026
-0.0348897
0.0389141
-0.0320348
0.0368037
-0.0269223
0.0334532
-0.0202511
0.0276709
-0.0143506
0.024539
-0.00153957
0.0127603
0.00400234
0.00100518
0.000245776
7.23549e-05
-0.0106623
-0.0342899
-0.10289
0.0533648
-0.0879996
0.0729013
-0.0956186
0.0741952
-0.136729
-0.00841551
0.134236
-0.0958711
0.105278
-0.105613
0.106166
-0.105706
0.107524
-0.104038
0.107552
-0.10119
0.106246
-0.0973443
0.103727
-0.0926769
0.100144
-0.0873787
0.0956706
-0.0816449
0.0904979
-0.0756636
0.0848234
-0.0696046
0.07884
-0.063611
0.0727252
-0.0577949
0.0666312
-0.0522366
0.06068
-0.0469876
0.0549615
-0.0420771
0.0495355
-0.0375197
0.0444314
-0.0333487
0.0395477
-0.0300684
0.0328246
-0.0355042
0.00625334
0.038573
-0.0172582
0.0249831
-0.017552
0.0214015
-0.0156835
0.0188045
-0.0140289
0.0166131
-0.0127159
0.0147925
-0.0117294
0.0133452
-0.0109914
0.0123628
-0.0100866
0.0117098
-0.00844945
0.0106702
-0.00632132
0.00884435
-0.00444184
0.0079049
-0.000343406
0.00415597
0.00135783
0.000345047
8.45865e-05
2.48683e-05
0.0109032
0.0344102
0.102981
-0.0532794
0.0880855
-0.0728156
0.0957044
-0.0741092
0.136815
0.00850146
-0.13415
0.0959559
-0.105194
0.105696
-0.106084
0.105786
-0.107445
0.104115
-0.107477
0.101263
-0.106175
0.0974131
-0.10366
0.0927409
-0.100082
0.0874379
-0.0956138
0.0816992
-0.0904462
0.0757129
-0.0847764
0.0696492
-0.0787977
0.0636511
-0.0726873
0.0578307
-0.0665974
0.0522685
-0.06065
0.0470159
-0.0549349
0.042102
-0.0495122
0.0375416
-0.044411
0.0333678
-0.03953
0.0300844
-0.0328101
0.0355171
-0.00624186
-0.0385624
0.0172681
-0.0249738
0.0175607
-0.0213935
0.0156908
-0.0187979
0.0140348
-0.0166079
0.0127204
-0.0147886
0.0117326
-0.0133426
0.0109932
-0.0123616
0.0100872
-0.0117097
0.00844911
-0.0106709
0.00632032
-0.00884552
0.00444063
-0.00790602
0.000342484
-0.00415664
-0.00135823
-0.000345256
-8.46918e-05
-2.50275e-05
0.0315434
0.101363
0.317907
-0.171765
0.276326
-0.231644
0.300627
-0.237576
0.423995
0.0260599
-0.417378
0.305102
-0.332078
0.333981
-0.335211
0.334351
-0.339338
0.329261
-0.339252
0.320431
-0.334972
0.308422
-0.326882
0.29379
-0.31546
0.277137
-0.301255
0.259078
-0.284868
0.240208
-0.266922
0.221067
-0.248024
0.20211
-0.22873
0.183696
-0.209518
0.166083
-0.190767
0.149439
-0.172758
0.133859
-0.155677
0.119391
-0.139616
0.106137
-0.124284
0.0955601
-0.103673
0.110962
-0.0190961
-0.119207
0.0557331
-0.0783072
0.0559466
-0.0672175
0.0499398
-0.0590822
0.0446475
-0.0522184
0.0404388
-0.0465232
0.0372656
-0.0420004
0.0348913
-0.0389129
0.0320355
-0.0368034
0.0269223
-0.0334535
0.0202506
-0.0276716
0.0143498
-0.0245397
0.00153898
-0.0127607
-0.00400261
-0.00100531
-0.000245842
-7.24633e-05
0.0495119
0.16264
0.561283
-0.327555
0.503017
-0.431871
0.548582
-0.448819
0.753772
0.0456562
-0.747023
0.568854
-0.610873
0.615896
-0.617669
0.616864
-0.624706
0.608106
-0.623942
0.592411
-0.615514
0.570781
-0.600144
0.544231
-0.578722
0.513861
-0.552264
0.480803
-0.521881
0.446156
-0.488713
0.410921
-0.453872
0.375949
-0.418369
0.341916
-0.383067
0.309314
-0.348654
0.278465
-0.315632
0.249557
-0.284334
0.22269
-0.25493
0.198029
-0.226977
0.177867
-0.191026
0.200254
-0.0330929
-0.210802
0.106605
-0.142328
0.10467
-0.122616
0.0932711
-0.107844
0.0833142
-0.0953822
0.0753674
-0.0850645
0.0693418
-0.0768854
0.0648343
-0.0712393
0.0595884
-0.0671884
0.050369
-0.0607915
0.0382522
-0.0500906
0.027499
-0.0437697
0.00435226
-0.0222861
-0.00641595
-0.00157549
-0.000383318
-0.000112806
0.0631711
0.212803
0.85648
-0.551795
0.800658
-0.708377
0.875988
-0.747722
1.16032
0.0689799
-1.16066
0.932778
-0.985579
0.996572
-0.998504
0.998765
-1.00871
0.985885
-1.00623
0.961694
-0.991498
0.927749
-0.965704
0.885672
-0.930305
0.837226
-0.886957
0.784234
-0.837455
0.728478
-0.783636
0.671591
-0.727275
0.614975
-0.66998
0.55975
-0.613118
0.506742
-0.557768
0.456506
-0.504718
0.40937
-0.454486
0.36551
-0.407339
0.325161
-0.36275
0.29123
-0.308686
0.314624
-0.0492285
-0.322121
0.180204
-0.226118
0.172429
-0.195683
0.153338
-0.172246
0.136822
-0.15248
0.123583
-0.136163
0.113476
-0.123259
0.105915
-0.114218
0.0974658
-0.107329
0.082979
-0.0965257
0.0637587
-0.0791396
0.046608
-0.0677715
0.0101584
-0.0335102
-0.0083872
-0.00199921
-0.000483583
-0.000142103
0.0711336
0.243578
1.23414
-0.886072
1.21315
-1.10822
1.33212
-1.18749
1.68726
0.0982497
-1.70681
1.45759
-1.51589
1.53675
-1.53862
1.54127
-1.55238
1.52354
-1.54652
1.48822
-1.52199
1.43761
-1.48068
1.37418
-1.42487
1.30061
-1.35713
1.21971
-1.28022
1.13423
-1.19696
1.04671
-1.11005
0.959352
-1.02193
0.873929
-0.934647
0.791766
-0.849825
0.713767
-0.768628
0.640479
-0.691822
0.572204
-0.61981
0.509253
-0.552063
0.454876
-0.475156
0.468591
-0.0688998
-0.464355
0.290238
-0.342021
0.270929
-0.297365
0.240453
-0.261974
0.21432
-0.232142
0.193278
-0.207594
0.177105
-0.188234
0.165
-0.174443
0.152026
-0.163254
0.130399
-0.145837
0.101404
-0.118926
0.0753281
-0.0994614
0.0208312
-0.0474844
-0.00960807
-0.00222743
-0.000536491
-0.000157492
-0.0711083
-0.243981
-1.23426
0.88589
-1.21326
1.10805
-1.33229
1.18736
-1.68755
-0.098493
1.70688
-1.45802
1.51603
-1.53726
1.53885
-1.54182
1.55268
-1.52409
1.54686
-1.48875
1.52233
-1.43807
1.48099
-1.37454
1.42511
-1.30084
1.35727
-1.2198
1.28024
-1.13416
1.19684
-1.04648
1.10979
-0.958957
1.02151
-0.873377
0.934082
-0.791073
0.84912
-0.712953
0.767799
-0.639571
0.69089
-0.571228
0.618802
-0.508237
0.551008
-0.453837
0.474123
-0.467376
0.0688438
0.463102
-0.289336
0.340998
-0.270036
0.296403
-0.239612
0.26107
-0.213536
0.231298
-0.192553
0.206812
-0.176445
0.187515
-0.16442
0.173791
-0.151577
0.162717
-0.130093
0.145449
-0.101202
0.118648
-0.075257
0.0993292
-0.0208096
0.0474288
0.00959709
0.00222501
0.000535958
0.000157493
-0.0630776
-0.213034
-0.856533
0.551705
-0.800696
0.708299
-0.876071
0.747665
-1.16049
-0.0691126
1.16074
-0.933029
0.9857
-0.996872
0.998681
-0.999092
1.00893
-0.986217
1.00648
-0.962006
0.991752
-0.928017
0.965938
-0.885874
0.930496
-0.837345
0.887085
-0.784259
0.837504
-0.728402
0.783594
-0.67141
0.727135
-0.614689
0.669739
-0.559365
0.612777
-0.506269
0.557333
-0.455957
0.5042
-0.408762
0.453898
-0.364862
0.406698
-0.324491
0.362076
-0.290545
0.308033
-0.313788
0.0491957
0.321269
-0.179629
0.225453
-0.171849
0.195059
-0.152793
0.171659
-0.136315
0.151931
-0.123115
0.135653
-0.113051
0.122788
-0.105544
0.113789
-0.0971823
0.106972
-0.0827899
0.0962651
-0.0636364
0.07895
-0.0465705
0.0676799
-0.0101492
0.0334707
0.00837749
0.00199697
0.000483077
0.000142033
-0.0493195
-0.162722
-0.561271
0.327544
-0.502995
0.431868
-0.548588
0.448828
-0.753839
-0.0456946
0.747116
-0.568965
0.610992
-0.616038
0.617821
-0.617023
0.624886
-0.608268
0.624139
-0.592562
0.615713
-0.570905
0.60033
-0.544316
0.57888
-0.513896
0.552382
-0.480782
0.521947
-0.446074
0.488721
-0.410776
0.453817
-0.375743
0.418249
-0.341651
0.382882
-0.308996
0.348408
-0.278104
0.315331
-0.249163
0.283987
-0.222274
0.254547
-0.197602
0.226572
-0.177432
0.190637
-0.199707
0.033078
0.210255
-0.106252
0.141919
-0.10431
0.122233
-0.0929326
0.107482
-0.0829998
0.0950432
-0.075078
0.0847486
-0.0690801
0.076593
-0.0646073
0.0709696
-0.0594178
0.0669619
-0.0502578
0.0606251
-0.0381819
0.0499676
-0.0274813
0.0437092
-0.00434972
0.0222594
0.00640829
0.00157361
0.000382862
0.000112656
-0.0312833
-0.101333
-0.317846
0.171812
-0.276261
0.231695
-0.300578
0.237633
-0.423981
-0.0260287
0.417481
-0.30511
0.332194
-0.334008
0.335344
-0.334388
0.339485
-0.329301
0.339406
-0.320466
0.335125
-0.308445
0.327026
-0.293794
0.315586
-0.277117
0.301356
-0.25903
0.284939
-0.24013
0.266958
-0.220958
0.248023
-0.20197
0.228691
-0.183527
0.209441
-0.165889
0.190654
-0.149224
0.172613
-0.133628
0.155504
-0.119151
0.139422
-0.105892
0.124076
-0.0953132
0.103474
-0.110648
0.0190946
0.118906
-0.0555398
0.078089
-0.0557469
0.0670132
-0.0497528
0.058889
-0.0444745
0.0520367
-0.0402802
0.046353
-0.0371229
0.0418419
-0.0347686
0.0387653
-0.0319448
0.0366781
-0.0268646
0.0333606
-0.0202152
0.0276019
-0.0143431
0.0245048
-0.00153935
0.012745
0.00399758
0.00100398
0.000245484
7.22694e-05
-0.0106326
-0.0343076
-0.102892
0.0533594
-0.0879992
0.0728973
-0.0956234
0.0741925
-0.136745
-0.00842618
0.134248
-0.095894
0.105294
-0.105641
0.106188
-0.105737
0.107552
-0.104069
0.107583
-0.101219
0.106278
-0.0973678
0.103757
-0.0926932
0.100169
-0.0873862
0.0956894
-0.0816424
0.0905084
-0.0756503
0.084824
-0.0695803
0.07883
-0.063576
0.0727041
-0.0577498
0.0665991
-0.0521824
0.0606374
-0.0469261
0.0549094
-0.0420098
0.0494755
-0.0374488
0.0443651
-0.033276
0.0394775
-0.0299941
0.0327585
-0.0354066
0.00624982
0.0384734
-0.0172002
0.0249114
-0.0174912
0.0213347
-0.0156264
0.0187415
-0.0139758
0.016554
-0.0126671
0.0147374
-0.0116853
0.0132941
-0.0109534
0.0123154
-0.0100585
0.0116696
-0.00843164
0.0106405
-0.00631034
0.00882212
-0.00443984
0.0078938
-0.000343543
0.00415099
0.00135621
0.000344637
8.44861e-05
2.48389e-05
0.0108736
0.034428
0.102983
-0.053274
0.0880851
-0.0728116
0.0957093
-0.0741065
0.136831
0.00851216
-0.134163
0.0959788
-0.105211
0.105724
-0.106107
0.105817
-0.107473
0.104146
-0.107508
0.101292
-0.106207
0.0974366
-0.10369
0.0927573
-0.100107
0.0874453
-0.0956327
0.0816966
-0.0904566
0.0756997
-0.0847771
0.0696249
-0.0787878
0.063616
-0.0726663
0.0577856
-0.0665654
0.0522143
-0.0606074
0.0469543
-0.0548829
0.0420347
-0.0494521
0.0374706
-0.0443447
0.033295
-0.0394599
0.0300101
-0.0327441
0.0354194
-0.00623837
-0.0384629
0.0172101
-0.0249021
0.0174999
-0.0213266
0.0156337
-0.0187348
0.0139817
-0.0165488
0.0126716
-0.0147336
0.0116885
-0.0132915
0.0109552
-0.0123141
0.0100592
-0.0116695
0.0084313
-0.0106412
0.00630935
-0.00882328
0.00443863
-0.00789492
0.000342622
-0.00415165
-0.00135661
-0.000344845
-8.45914e-05
-2.49979e-05
0.0314526
0.101419
0.317912
-0.171748
0.276324
-0.231631
0.300642
-0.237569
0.424045
0.0260927
-0.417417
0.305174
-0.332131
0.33407
-0.335283
0.334448
-0.339426
0.329359
-0.339349
0.320521
-0.335072
0.308497
-0.326976
0.293843
-0.31554
0.277162
-0.301313
0.259071
-0.284899
0.240168
-0.266922
0.220992
-0.247991
0.202001
-0.228662
0.183555
-0.209415
0.165913
-0.190631
0.149245
-0.172592
0.133647
-0.155486
0.119168
-0.139406
0.105907
-0.124062
0.0953257
-0.103462
0.110658
-0.0190855
-0.118898
0.0555476
-0.0780817
0.0557538
-0.0670069
0.0497586
-0.0588837
0.0444792
-0.0520325
0.0402839
-0.0463498
0.0371255
-0.0418397
0.0347703
-0.0387641
0.0319456
-0.0366778
0.0268646
-0.0333609
0.0202147
-0.0276026
0.0143423
-0.0245055
0.00153875
-0.0127454
-0.00399784
-0.00100412
-0.00024555
-7.23776e-05
0.0493541
0.162742
0.56129
-0.327526
0.503013
-0.43185
0.548607
-0.448809
0.753858
0.0457134
-0.747098
0.568984
-0.610973
0.616057
-0.617803
0.617041
-0.624869
0.608286
-0.624121
0.592579
-0.615696
0.570921
-0.600315
0.544331
-0.578865
0.51391
-0.552368
0.480795
-0.521934
0.446086
-0.488709
0.410787
-0.453806
0.375753
-0.418239
0.341661
-0.382873
0.309005
-0.3484
0.278111
-0.315324
0.24917
-0.283981
0.22228
-0.254541
0.197607
-0.226567
0.177436
-0.190633
0.199711
-0.0330745
-0.210252
0.106255
-0.141916
0.104312
-0.12223
0.0929349
-0.10748
0.0830017
-0.0950415
0.0750795
-0.0847472
0.0690813
-0.0765919
0.0646082
-0.0709689
0.0594184
-0.0669614
0.0502581
-0.0606249
0.038182
-0.0499676
0.0274813
-0.0437092
0.00434968
-0.0222594
-0.00640831
-0.00157362
-0.000382863
-0.000112673
0.0629359
0.212966
0.856483
-0.551751
0.800649
-0.708346
0.876024
-0.747712
1.16045
0.0690658
-1.16079
0.932983
-0.985746
0.996827
-0.998725
0.999049
-1.00897
0.986175
-1.00652
0.961967
-0.99179
0.92798
-0.965974
0.88584
-0.930529
0.837314
-0.887115
0.784231
-0.837531
0.728376
-0.783619
0.671386
-0.727157
0.614668
-0.669759
0.559346
-0.612795
0.506252
-0.557349
0.455942
-0.504213
0.408749
-0.45391
0.364851
-0.406708
0.324481
-0.362085
0.290537
-0.308041
0.313782
-0.0492014
-0.321274
0.179624
-0.225458
0.171845
-0.195063
0.152789
-0.171662
0.136312
-0.151934
0.123113
-0.135655
0.11305
-0.12279
0.105543
-0.113789
0.0971821
-0.106972
0.0827903
-0.0962645
0.0636372
-0.0789492
0.0465713
-0.0676791
0.0101498
-0.0334703
-0.00837723
-0.00199683
-0.000483009
-0.000141935
0.0708052
0.243823
1.23413
-0.88601
1.21314
-1.10817
1.33217
-1.18748
1.68743
0.0983711
-1.70701
1.4579
-1.51615
1.53714
-1.53897
1.5417
-1.55279
1.52398
-1.54697
1.48864
-1.52244
1.43797
-1.48109
1.37444
-1.4252
1.30076
-1.35735
1.21972
-1.28032
1.13409
-1.19691
1.04641
-1.10985
0.958897
-1.02157
0.873323
-0.934133
0.791025
-0.849165
0.71291
-0.767839
0.639533
-0.690925
0.571195
-0.618833
0.508208
-0.551035
0.453812
-0.474145
0.467356
-0.0688622
-0.463119
0.28932
-0.341013
0.270022
-0.296416
0.239601
-0.26108
0.213527
-0.231307
0.192545
-0.206818
0.176439
-0.187519
0.164416
-0.173794
0.151575
-0.162718
0.130092
-0.145448
0.101203
-0.118647
0.0752582
-0.099328
0.0208106
-0.0474281
-0.00959665
-0.00222479
-0.000535854
-0.000157306
4.14188
-3.60064
-1.88644
0.528202
-2.06638
1.70367
-2.00385
1.84418
-2.32169
0.0117976
2.32431
-1.84043
1.96371
-1.90563
1.93395
-1.88322
1.91344
-1.8419
1.88119
-1.7835
1.83334
-1.70721
1.76804
-1.61318
1.68468
-1.50268
1.5838
-1.37811
1.46713
-1.24288
1.33749
-1.1011
1.19859
-0.957303
1.05479
-0.816018
0.910683
-0.681414
0.770722
-0.55697
0.638863
-0.44526
0.518274
-0.347848
0.411144
-0.265357
0.318422
-0.198478
0.236132
-0.164698
0.0640387
0.159507
-0.0614774
0.090887
-0.0451687
0.0605292
-0.0292708
0.0397478
-0.0182888
0.0253797
-0.0111387
0.0157785
-0.00665784
0.00959309
-0.00393651
0.00573911
-0.00232348
0.00340408
-0.00138372
0.00202004
-0.000841383
0.00121699
-0.000508158
0.000732251
-0.000317915
0.000524494
0.000105922
2.49151e-05
6.34919e-06
2.13619e-06
2.94424
-2.47213
-1.43129
0.244658
-1.40106
1.08206
-1.31506
1.17287
-1.58563
0.00910122
1.58957
-1.1705
1.28105
-1.23229
1.25761
-1.21814
1.24498
-1.19039
1.22517
-1.15135
1.19536
-1.10063
1.15426
-1.0384
1.10138
-0.965592
1.03699
-0.883832
0.962123
-0.795396
0.878562
-0.703013
0.788682
-0.609647
0.69529
-0.51824
0.601383
-0.431468
0.509892
-0.351542
0.423444
-0.280065
0.344163
-0.21798
0.273541
-0.165633
0.2122
-0.123657
0.156586
-0.107154
0.0456176
0.113113
-0.0355018
0.061485
-0.027303
0.0407946
-0.0176359
0.0268305
-0.0109406
0.0171633
-0.00661551
0.0106873
-0.00392949
0.00650555
-0.00231267
0.00389478
-0.00136198
0.00231045
-0.000811744
0.00137031
-0.000495495
0.000825213
-0.00029946
0.000496281
-0.000185561
0.000366704
9.23563e-05
2.23624e-05
5.72519e-06
1.92405e-06
1.963
-1.60224
-1.00191
0.0936052
-0.901286
0.655265
-0.822073
0.710986
-1.02414
0.00654087
1.028
-0.709485
0.796543
-0.759535
0.779449
-0.751058
0.772012
-0.733362
0.760407
-0.708554
0.742685
-0.676483
0.717994
-0.637306
0.68598
-0.591639
0.646764
-0.540542
0.600947
-0.48546
0.549588
-0.42811
0.494138
-0.370342
0.436325
-0.313973
0.378012
-0.260645
0.321035
-0.211696
0.267053
-0.16808
0.21742
-0.130336
0.173099
-0.0986468
0.134476
-0.0735209
0.0987626
-0.0663007
0.0305836
0.0753446
-0.0193656
0.0395018
-0.0157225
0.0261135
-0.0101231
0.0171977
-0.00623139
0.0110191
-0.00373807
0.006871
-0.00220474
0.00418694
-0.0012908
0.00250827
-0.000758227
0.00148815
-0.000452308
0.000882204
-0.000277296
0.00053107
-0.000167722
0.000319301
-0.000102659
0.000241907
7.05564e-05
1.76229e-05
4.54017e-06
1.5224e-06
1.12415
-0.899269
-0.592653
0.0258433
-0.503907
0.349474
-0.449861
0.379468
-0.573645
0.00397314
0.576422
-0.378591
0.434134
-0.410965
0.423687
-0.406499
0.419805
-0.39667
0.413782
-0.382929
0.404469
-0.365228
0.391381
-0.343677
0.374303
-0.318629
0.353282
-0.290679
0.328625
-0.260629
0.300893
-0.229422
0.270861
-0.198069
0.239467
-0.167556
0.207723
-0.138767
0.176637
-0.112415
0.147123
-0.0890025
0.119934
-0.0688038
0.095608
-0.0519036
0.0743561
-0.0386317
0.0544039
-0.0359494
0.0176146
0.0431392
-0.0093852
0.0220723
-0.00803233
0.0145488
-0.00515764
0.00959094
-0.00315257
0.00615257
-0.00187729
0.00384049
-0.00109995
0.00234211
-0.000640788
0.00140377
-0.000375477
0.000832946
-0.000224174
0.000493621
-0.000138002
0.000297064
-8.35341e-05
0.000178588
-5.04931e-05
0.000137687
4.39695e-05
1.12447e-05
2.91235e-06
9.72151e-07
0.366074
-0.2897
-0.196077
0.00379534
-0.162077
0.109561
-0.143032
0.119008
-0.184625
0.001364
0.185687
-0.118658
0.137785
-0.129838
0.134264
-0.128451
0.133061
-0.125302
0.131201
-0.120905
0.128305
-0.115253
0.124214
-0.108382
0.118858
-0.100409
0.112247
-0.0915263
0.104476
-0.0819891
0.0957196
-0.0720988
0.0862219
-0.0621762
0.0762786
-0.0525334
0.0662115
-0.043449
0.056341
-0.0351465
0.046959
-0.0277818
0.0383069
-0.0214389
0.0305582
-0.0161422
0.0237792
-0.0120059
0.0173619
-0.0113703
0.00575473
0.0140456
-0.00277202
0.00709887
-0.00245469
0.0046716
-0.00157365
0.00308123
-0.000957728
0.00197788
-0.000567705
0.0012353
-0.00033125
0.000753662
-0.000192364
0.000451832
-0.00011254
0.000268117
-6.72269e-05
0.000158864
-4.14939e-05
9.55896e-05
-2.51294e-05
5.74647e-05
-1.50638e-05
4.47051e-05
1.49107e-05
3.86202e-06
1.00301e-06
3.28154e-07
-0.365857
0.289815
0.19617
-0.00370492
0.162168
-0.109469
0.143124
-0.118916
0.184718
-0.00127163
-0.185595
0.118749
-0.137696
0.129926
-0.134179
0.128535
-0.13298
0.125381
-0.131125
0.120978
-0.128234
0.115319
-0.124151
0.108442
-0.118802
0.100462
-0.112199
0.0915709
-0.104435
0.0820261
-0.0956863
0.0721287
-0.0861954
0.0621994
-0.0762583
0.0525509
-0.0661966
0.0434615
-0.0563306
0.0351551
-0.0469521
0.0277872
-0.0383027
0.0214421
-0.030556
0.0161437
-0.0237784
0.0120062
-0.0173623
0.0113694
-0.00575586
-0.0140468
0.00277107
-0.0070996
0.00245413
-0.00467204
0.00157329
-0.00308153
0.000957476
-0.00197809
0.000567534
-0.00123543
0.000331139
-0.00075375
0.000192295
-0.000451885
0.000112499
-0.000268149
6.7202e-05
-0.000158883
4.14783e-05
-9.56023e-05
2.51192e-05
-5.74725e-05
1.50587e-05
-4.47069e-05
-1.49089e-05
-3.85831e-06
-1.00253e-06
-3.46081e-07
-1.124
0.899351
0.592721
-0.0257768
0.503974
-0.349406
0.449929
-0.3794
0.573713
-0.00390462
-0.576354
0.378658
-0.434068
0.41103
-0.423622
0.406562
-0.419744
0.39673
-0.413724
0.382984
-0.404416
0.365279
-0.391333
0.343722
-0.374261
0.318669
-0.353245
0.290714
-0.328594
0.260658
-0.300867
0.229446
-0.27084
0.198087
-0.23945
0.16757
-0.207711
0.138777
-0.176628
0.112423
-0.147117