/*--------------------------------*- C++ -*----------------------------------*\
| =========                 |                                                 |
| \\      /  F ield         | OpenFOAM: The Open Source CFD Toolbox           |
|  \\    /   O peration     | Version:  5.x                                   |
|   \\  /    A nd           | Web:      www.OpenFOAM.org                      |
|    \\/     M anipulation  |                                                 |
\*---------------------------------------------------------------------------*/
FoamFile
{
    version     2.0;
    format      ascii;
    class       volScalarField;
    location    "0.9";
    object      gradTx;
}
// * * * * * * * * * * * * * * * * * * * * * * * * * * * * * * * * * * * * * //

dimensions      [0 -1 0 1 0 0 0];

internalField   nonuniform List<scalar> 
3200
(
77.713
3.42289
-0.959675
-1.22374
-2.23147
-2.29763
-2.46948
-2.49473
-2.60246
-4.70019
-2.59617
-2.49212
-2.47646
-2.4576
-2.4546
-2.42721
-2.42349
-2.38049
-2.37502
-2.31331
-2.30581
-2.22377
-2.21414
-2.11148
-2.09976
-1.97755
-1.96392
-1.82456
-1.80933
-1.65638
-1.63998
-1.47797
-1.46088
-1.2949
-1.27767
-1.11297
-1.09613
-0.937649
-0.92168
-0.773696
-0.75899
-0.6248
-0.611643
-0.493415
-0.481973
-0.380731
-0.371096
-0.286973
-0.27985
-0.217151
-0.335063
-0.155077
-0.106147
-0.101208
-0.0706547
-0.0678773
-0.0462325
-0.0443181
-0.0294228
-0.0281253
-0.0182454
-0.0173961
-0.0110746
-0.0105374
-0.00662119
-0.00629137
-0.00392936
-0.00373177
-0.00233619
-0.00221994
-0.00140725
-0.00133867
-0.00084865
-0.000808005
-0.00053376
-0.000495496
-2.94271e-05
-5.18699e-06
-1.17105e-06
-0.0012331
77.7651
2.90979
-0.629195
-1.22692
-2.13272
-2.2893
-2.45833
-2.52489
-2.74587
-4.31963
-2.74139
-2.52639
-2.48305
-2.46024
-2.45286
-2.42877
-2.42015
-2.38296
-2.3703
-2.31701
-2.29967
-2.22885
-2.20658
-2.118
-2.0909
-1.98548
-1.95397
-1.83376
-1.79855
-1.66663
-1.6287
-1.48897
-1.44947
-1.30632
-1.26649
-1.12443
-1.0855
-0.9488
-0.911876
-0.784217
-0.750212
-0.634436
-0.604008
-0.501987
-0.475527
-0.388165
-0.365904
-0.293655
-0.277588
-0.230736
-0.308621
-0.165
-0.112122
-0.100091
-0.0731319
-0.0666657
-0.0479144
-0.0434797
-0.030587
-0.0275818
-0.0190248
-0.0170571
-0.0115777
-0.0103325
-0.00693516
-0.00617046
-0.00411985
-0.00366158
-0.00244921
-0.00217952
-0.00147282
-0.0013137
-0.000888232
-0.000793616
-0.000549863
-0.000461623
-7.06072e-05
-1.47513e-05
-3.39017e-06
-0.00123392
77.8075
2.54771
-0.416372
-1.21777
-2.06395
-2.28047
-2.45127
-2.54888
-2.83518
-4.06516
-2.83209
-2.55379
-2.48883
-2.46226
-2.45178
-2.42972
-2.41795
-2.38444
-2.36721
-2.31927
-2.29566
-2.23199
-2.20168
-2.12207
-2.08518
-1.99045
-1.94755
-1.83955
-1.79162
-1.67312
-1.62148
-1.49596
-1.44219
-1.31359
-1.25938
-1.13176
-1.07877
-0.955955
-0.905696
-0.790989
-0.7447
-0.640655
-0.599233
-0.507534
-0.471513
-0.392991
-0.36271
-0.298087
-0.276555
-0.239329
-0.291037
-0.171291
-0.116463
-0.0995699
-0.0747888
-0.0659449
-0.0490232
-0.0429793
-0.0313553
-0.02726
-0.0195404
-0.0168585
-0.0119113
-0.0102136
-0.00714376
-0.00610092
-0.0042466
-0.00362151
-0.0025245
-0.00215655
-0.00151647
-0.00129938
-0.000914568
-0.000785184
-0.000559739
-0.000439856
-9.83777e-05
-2.25338e-05
-5.26359e-06
-0.00123463
77.8373
2.31674
-0.290066
-1.20684
-2.02037
-2.27348
-2.44715
-2.56533
-2.88674
-3.90921
-2.8846
-2.57266
-2.49307
-2.46364
-2.45117
-2.43025
-2.41661
-2.38527
-2.36534
-2.32055
-2.29325
-2.23379
-2.19874
-2.12441
-2.08176
-1.99333
-1.94374
-1.84293
-1.78752
-1.67692
-1.61722
-1.50007
-1.4379
-1.31789
-1.25521
-1.1361
-1.07483
-0.960201
-0.902087
-0.795016
-0.741492
-0.644362
-0.596464
-0.510848
-0.469194
-0.395884
-0.360885
-0.300792
-0.276147
-0.244361
-0.28031
-0.174983
-0.119285
-0.0993629
-0.075807
-0.0655463
-0.0496961
-0.0427014
-0.0318221
-0.0270829
-0.0198543
-0.0167502
-0.0121147
-0.0101494
-0.00727115
-0.00606375
-0.00432411
-0.00360027
-0.00257058
-0.00214443
-0.00154318
-0.00129174
-0.00093067
-0.000780581
-0.000565382
-0.000426946
-0.000115518
-2.79703e-05
-6.61409e-06
-0.00123514
77.8526
2.20431
-0.231374
-1.20005
-1.99921
-2.26968
-2.44526
-2.57365
-2.91027
-3.83515
-2.9086
-2.58223
-2.49531
-2.46434
-2.45089
-2.43049
-2.41598
-2.38564
-2.36446
-2.32113
-2.29211
-2.23461
-2.19736
-2.12549
-2.08016
-1.99466
-1.94196
-1.84449
-1.78561
-1.67867
-1.61524
-1.50197
-1.43592
-1.31988
-1.25328
-1.13811
-1.07301
-0.962175
-0.900426
-0.796893
-0.740019
-0.646092
-0.595196
-0.512397
-0.468136
-0.397239
-0.360058
-0.302074
-0.27602
-0.246681
-0.27523
-0.176687
-0.120673
-0.0992995
-0.076292
-0.0653702
-0.050014
-0.0425782
-0.0320426
-0.0270048
-0.0200028
-0.0167028
-0.012211
-0.0101216
-0.00733156
-0.00604776
-0.00436089
-0.00359118
-0.00259246
-0.00213927
-0.00155586
-0.00128846
-0.000938311
-0.000778565
-0.000567942
-0.000420946
-0.000123697
-3.07551e-05
-7.32055e-06
-0.00123541
77.8526
2.2043
-0.231375
-1.20005
-1.99921
-2.26968
-2.44526
-2.57365
-2.91027
-3.83515
-2.9086
-2.58223
-2.49531
-2.46434
-2.45089
-2.43049
-2.41598
-2.38564
-2.36446
-2.32113
-2.29211
-2.23461
-2.19736
-2.12549
-2.08016
-1.99466
-1.94196
-1.84449
-1.78561
-1.67867
-1.61524
-1.50197
-1.43592
-1.31988
-1.25328
-1.13811
-1.07301
-0.962176
-0.900426
-0.796893
-0.740019
-0.646093
-0.595196
-0.512397
-0.468136
-0.397239
-0.360058
-0.302074
-0.27602
-0.246681
-0.27523
-0.176687
-0.120673
-0.0992995
-0.076292
-0.0653702
-0.050014
-0.0425782
-0.0320426
-0.0270048
-0.0200028
-0.0167028
-0.012211
-0.0101216
-0.00733156
-0.00604776
-0.00436089
-0.00359118
-0.00259246
-0.00213927
-0.00155586
-0.00128846
-0.000938311
-0.000778565
-0.000567941
-0.000420945
-0.000123696
-3.07551e-05
-7.32171e-06
-0.00123541
77.8374
2.31672
-0.29007
-1.20684
-2.02037
-2.27348
-2.44715
-2.56533
-2.88674
-3.90921
-2.8846
-2.57266
-2.49307
-2.46364
-2.45117
-2.43025
-2.41661
-2.38527
-2.36534
-2.32056
-2.29325
-2.2338
-2.19874
-2.12441
-2.08176
-1.99333
-1.94374
-1.84293
-1.78752
-1.67692
-1.61722
-1.50007
-1.4379
-1.31789
-1.25521
-1.1361
-1.07483
-0.960201
-0.902087
-0.795017
-0.741492
-0.644363
-0.596464
-0.510848
-0.469194
-0.395885
-0.360885
-0.300792
-0.276147
-0.244362
-0.28031
-0.174983
-0.119285
-0.0993629
-0.075807
-0.0655463
-0.0496961
-0.0427014
-0.0318221
-0.0270829
-0.0198543
-0.0167501
-0.0121147
-0.0101494
-0.00727115
-0.00606375
-0.00432411
-0.00360026
-0.00257058
-0.00214443
-0.00154318
-0.00129174
-0.00093067
-0.00078058
-0.000565381
-0.000426945
-0.000115517
-2.79705e-05
-6.61726e-06
-0.00123514
77.8076
2.54768
-0.416377
-1.21777
-2.06395
-2.28047
-2.45127
-2.54888
-2.83518
-4.06516
-2.83209
-2.55379
-2.48883
-2.46226
-2.45178
-2.42972
-2.41795
-2.38444
-2.36721
-2.31927
-2.29566
-2.23199
-2.20168
-2.12207
-2.08518
-1.99045
-1.94755
-1.83955
-1.79163
-1.67312
-1.62148
-1.49596
-1.44219
-1.3136
-1.25938
-1.13176
-1.07877
-0.955956
-0.905697
-0.790989
-0.7447
-0.640655
-0.599234
-0.507534
-0.471513
-0.392992
-0.36271
-0.298087
-0.276555
-0.239329
-0.291038
-0.171291
-0.116463
-0.0995698
-0.0747887
-0.0659449
-0.0490232
-0.0429792
-0.0313553
-0.02726
-0.0195404
-0.0168584
-0.0119113
-0.0102136
-0.00714375
-0.00610092
-0.0042466
-0.00362151
-0.00252449
-0.00215655
-0.00151647
-0.00129938
-0.000914568
-0.000785183
-0.000559738
-0.000439855
-9.83767e-05
-2.25341e-05
-5.26785e-06
-0.00123463
77.7651
2.90977
-0.629199
-1.22692
-2.13272
-2.2893
-2.45833
-2.52489
-2.74587
-4.31963
-2.74139
-2.52639
-2.48305
-2.46024
-2.45286
-2.42877
-2.42015
-2.38296
-2.37031
-2.31701
-2.29967
-2.22885
-2.20659
-2.118
-2.09091
-1.98548
-1.95397
-1.83376
-1.79855
-1.66663
-1.6287
-1.48897
-1.44947
-1.30632
-1.26649
-1.12443
-1.0855
-0.948801
-0.911876
-0.784218
-0.750212
-0.634437
-0.604008
-0.501988
-0.475527
-0.388165
-0.365905
-0.293655
-0.277588
-0.230736
-0.308621
-0.165
-0.112122
-0.100091
-0.0731319
-0.0666657
-0.0479144
-0.0434797
-0.030587
-0.0275817
-0.0190248
-0.0170571
-0.0115777
-0.0103325
-0.00693516
-0.00617045
-0.00411985
-0.00366157
-0.00244921
-0.00217952
-0.00147282
-0.0013137
-0.000888231
-0.000793615
-0.000549862
-0.000461622
-7.06063e-05
-1.47515e-05
-3.39405e-06
-0.00123392
77.713
3.42288
-0.959677
-1.22374
-2.23147
-2.29763
-2.46948
-2.49473
-2.60246
-4.70019
-2.59617
-2.49212
-2.47646
-2.4576
-2.4546
-2.42721
-2.42349
-2.38049
-2.37502
-2.31331
-2.30581
-2.22377
-2.21414
-2.11148
-2.09976
-1.97755
-1.96392
-1.82456
-1.80933
-1.65638
-1.63998
-1.47797
-1.46088
-1.2949
-1.27767
-1.11297
-1.09613
-0.937649
-0.921681
-0.773696
-0.758991
-0.624801
-0.611643
-0.493415
-0.481974
-0.380731
-0.371097
-0.286973
-0.27985
-0.217151
-0.335063
-0.155077
-0.106147
-0.101208
-0.0706547
-0.0678773
-0.0462325
-0.0443181
-0.0294228
-0.0281253
-0.0182454
-0.0173961
-0.0110746
-0.0105374
-0.00662119
-0.00629137
-0.00392936
-0.00373177
-0.00233619
-0.00221994
-0.00140725
-0.00133867
-0.00084865
-0.000808005
-0.00053376
-0.000495496
-2.94268e-05
-5.18711e-06
-1.17278e-06
-0.0012331
77.2946
-0.0724233
-1.18944
-1.25675
-1.46158
-1.48178
-1.63236
-1.65696
-1.84323
-3.42567
-1.94375
-1.93667
-1.93143
-1.9631
-1.96484
-1.9741
-1.97386
-1.96038
-1.95789
-1.92354
-1.919
-1.86614
-1.85982
-1.79117
-1.78336
-1.70195
-1.69298
-1.60202
-1.59222
-1.49491
-1.4846
-1.38396
-1.37344
-1.27213
-1.26165
-1.16188
-1.15165
-1.05513
-1.0453
-0.95324
-0.943913
-0.857079
-0.84832
-0.767157
-0.759008
-0.683767
-0.676369
-0.607685
-0.603469
-0.558048
-0.948561
-0.49211
-0.420782
-0.412694
-0.367246
-0.362739
-0.324128
-0.320416
-0.287974
-0.284903
-0.258474
-0.256016
-0.235346
-0.233448
-0.2179
-0.216289
-0.201335
-0.199357
-0.176657
-0.173852
-0.142528
-0.139335
-0.109944
-0.105473
-0.0486672
-0.0436681
-0.00265126
-0.000471746
-0.00010629
-0.0103711
77.2642
-0.167565
-1.09747
-1.2519
-1.44306
-1.49107
-1.62695
-1.68924
-1.94388
-3.14755
-2.05019
-1.95572
-1.93861
-1.96142
-1.96514
-1.97291
-1.97235
-1.96074
-1.955
-1.9254
-1.91491
-1.86934
-1.85472
-1.79553
-1.77747
-1.70728
-1.68653
-1.60809
-1.58542
-1.5015
-1.47765
-1.39085
-1.36652
-1.27912
-1.25489
-1.16882
-1.14516
-1.06188
-1.03915
-0.959704
-0.938134
-0.863197
-0.84294
-0.772897
-0.754054
-0.689184
-0.672156
-0.614086
-0.605664
-0.589954
-0.872205
-0.520321
-0.43175
-0.41151
-0.370892
-0.360373
-0.326969
-0.318377
-0.290369
-0.283266
-0.260449
-0.254763
-0.236906
-0.232511
-0.219
-0.215258
-0.202194
-0.197609
-0.178001
-0.171523
-0.144656
-0.137251
-0.111392
-0.10107
-0.0528287
-0.0413445
-0.00640023
-0.00134264
-0.000307705
-0.0104388
77.2393
-0.231067
-1.03652
-1.24558
-1.43026
-1.49685
-1.62449
-1.71382
-2.00657
-2.96147
-2.11651
-1.97168
-1.94419
-1.96051
-1.96527
-1.97206
-1.97129
-1.96087
-1.95305
-1.92649
-1.91221
-1.8713
-1.8514
-1.79825
-1.77367
-1.71062
-1.68238
-1.61192
-1.58107
-1.50568
-1.47322
-1.39523
-1.36211
-1.28358
-1.2506
-1.17325
-1.14105
-1.0662
-1.03526
-0.96385
-0.934486
-0.867125
-0.839548
-0.776586
-0.750938
-0.692684
-0.669583
-0.618498
-0.608147
-0.609939
-0.821212
-0.537997
-0.439983
-0.411139
-0.373333
-0.358921
-0.328816
-0.317113
-0.291927
-0.282255
-0.261738
-0.253995
-0.237927
-0.231936
-0.219708
-0.214599
-0.202713
-0.19646
-0.178818
-0.170008
-0.146005
-0.135905
-0.112218
-0.0981836
-0.0555195
-0.0399591
-0.00895352
-0.00205251
-0.000477718
-0.0104963
77.2218
-0.269923
-0.99943
-1.24025
-1.42219
-1.50019
-1.62356
-1.73027
-2.04277
-2.84739
-2.15483
-1.98295
-1.94802
-1.96007
-1.96533
-1.9715
-1.9706
-1.9609
-1.95186
-1.92708
-1.91058
-1.87241
-1.84941
-1.79982
-1.7714
-1.71257
-1.67992
-1.61417
-1.57849
-1.50813
-1.47061
-1.39781
-1.35952
-1.28622
-1.24808
-1.17588
-1.13864
-1.06876
-1.03298
-0.966309
-0.932353
-0.869457
-0.837566
-0.778778
-0.749122
-0.694774
-0.668124
-0.621276
-0.610141
-0.62154
-0.789994
-0.548261
-0.445445
-0.411123
-0.374835
-0.358093
-0.329924
-0.316385
-0.292862
-0.281676
-0.262513
-0.253558
-0.238542
-0.231609
-0.220129
-0.214209
-0.203004
-0.195765
-0.17928
-0.1691
-0.146796
-0.135101
-0.112656
-0.0964411
-0.0571254
-0.0391909
-0.0105423
-0.00254916
-0.000600244
-0.010538
77.2128
-0.28836
-0.981897
-1.23727
-1.41829
-1.50171
-1.6233
-1.7385
-2.0593
-2.7932
-2.17232
-1.98874
-1.94996
-1.95989
-1.96535
-1.97123
-1.97027
-1.96089
-1.95129
-1.92735
-1.90981
-1.87292
-1.84847
-1.80053
-1.77034
-1.71347
-1.67877
-1.6152
-1.57729
-1.50927
-1.4694
-1.39901
-1.35832
-1.28744
-1.24692
-1.1771
-1.13753
-1.06995
-1.03193
-0.967452
-0.93137
-0.870542
-0.836655
-0.779799
-0.748287
-0.695751
-0.667468
-0.62262
-0.611228
-0.626855
-0.775178
-0.552963
-0.448163
-0.411182
-0.375551
-0.35772
-0.330443
-0.316054
-0.2933
-0.281414
-0.262877
-0.25336
-0.238831
-0.231461
-0.220326
-0.214028
-0.203135
-0.195437
-0.179488
-0.168674
-0.147161
-0.134725
-0.112844
-0.0956214
-0.0578752
-0.0388507
-0.0113045
-0.00280382
-0.000664282
-0.0105599
77.2128
-0.288368
-0.981899
-1.23727
-1.41829
-1.50171
-1.6233
-1.7385
-2.0593
-2.7932
-2.17232
-1.98874
-1.94996
-1.95989
-1.96535
-1.97123
-1.97027
-1.96089
-1.95129
-1.92735
-1.90981
-1.87292
-1.84847
-1.80053
-1.77034
-1.71347
-1.67877
-1.6152
-1.57729
-1.50927
-1.4694
-1.39901
-1.35832
-1.28744
-1.24692
-1.1771
-1.13753
-1.06995
-1.03193
-0.967452
-0.93137
-0.870542
-0.836655
-0.779799
-0.748288
-0.695751
-0.667468
-0.622621
-0.611228
-0.626855
-0.775178
-0.552963
-0.448163
-0.411182
-0.375551
-0.35772
-0.330443
-0.316055
-0.2933
-0.281414
-0.262877
-0.25336
-0.238832
-0.231462
-0.220326
-0.214028
-0.203135
-0.195437
-0.179488
-0.168674
-0.147161
-0.134725
-0.112844
-0.0956214
-0.0578752
-0.0388506
-0.0113045
-0.00280381
-0.000664279
-0.0105599
77.2219
-0.269945
-0.999435
-1.24025
-1.42219
-1.50019
-1.62356
-1.73027
-2.04277
-2.84739
-2.15483
-1.98295
-1.94802
-1.96007
-1.96533
-1.97151
-1.9706
-1.9609
-1.95186
-1.92708
-1.91058
-1.87241
-1.84941
-1.79982
-1.7714
-1.71257
-1.67992
-1.61417
-1.57849
-1.50813
-1.47061
-1.39782
-1.35952
-1.28622
-1.24808
-1.17588
-1.13864
-1.06876
-1.03298
-0.966309
-0.932353
-0.869457
-0.837567
-0.778779
-0.749122
-0.694775
-0.668124
-0.621277
-0.610141
-0.621541
-0.789994
-0.548261
-0.445445
-0.411123
-0.374835
-0.358094
-0.329924
-0.316386
-0.292862
-0.281676
-0.262513
-0.253558
-0.238542
-0.231609
-0.22013
-0.214209
-0.203004
-0.195765
-0.17928
-0.1691
-0.146796
-0.135101
-0.112656
-0.0964411
-0.0571254
-0.0391908
-0.0105423
-0.00254911
-0.000600236
-0.010538
77.2394
-0.231095
-1.03652
-1.24559
-1.43026
-1.49685
-1.62449
-1.71382
-2.00657
-2.96147
-2.11651
-1.97168
-1.94419
-1.96051
-1.96528
-1.97206
-1.97129
-1.96087
-1.95305
-1.92649
-1.91222
-1.8713
-1.8514
-1.79825
-1.77367
-1.71062
-1.68238
-1.61193
-1.58107
-1.50568
-1.47322
-1.39523
-1.36211
-1.28359
-1.2506
-1.17325
-1.14105
-1.0662
-1.03526
-0.96385
-0.934487
-0.867126
-0.839548
-0.776587
-0.750938
-0.692685
-0.669583
-0.618498
-0.608148
-0.609939
-0.821212
-0.537997
-0.439983
-0.411139
-0.373333
-0.358921
-0.328816
-0.317113
-0.291927
-0.282255
-0.261738
-0.253995
-0.237927
-0.231936
-0.219708
-0.214599
-0.202713
-0.19646
-0.178818
-0.170008
-0.146005
-0.135905
-0.112218
-0.0981836
-0.0555194
-0.039959
-0.00895344
-0.00205245
-0.00047771
-0.0104963
77.2643
-0.16759
-1.09747
-1.2519
-1.44306
-1.49107
-1.62695
-1.68924
-1.94388
-3.14755
-2.05019
-1.95572
-1.93861
-1.96143
-1.96514
-1.97291
-1.97235
-1.96075
-1.955
-1.9254
-1.91491
-1.86934
-1.85472
-1.79553
-1.77747
-1.70728
-1.68653
-1.60809
-1.58542
-1.5015
-1.47766
-1.39085
-1.36652
-1.27912
-1.25489
-1.16882
-1.14516
-1.06188
-1.03915
-0.959705
-0.938135
-0.863198
-0.84294
-0.772898
-0.754054
-0.689184
-0.672157
-0.614086
-0.605664
-0.589954
-0.872205
-0.520321
-0.43175
-0.41151
-0.370893
-0.360373
-0.326969
-0.318377
-0.29037
-0.283266
-0.260449
-0.254763
-0.236906
-0.232511
-0.219
-0.215258
-0.202194
-0.197609
-0.178001
-0.171523
-0.144656
-0.137251
-0.111392
-0.10107
-0.0528286
-0.0413445
-0.00640015
-0.00134259
-0.000307699
-0.0104388
77.2946
-0.0724337
-1.18944
-1.25675
-1.46158
-1.48178
-1.63236
-1.65696
-1.84323
-3.42567
-1.94375
-1.93667
-1.93143
-1.9631
-1.96484
-1.9741
-1.97386
-1.96038
-1.95789
-1.92354
-1.919
-1.86614
-1.85982
-1.79117
-1.78336
-1.70195
-1.69298
-1.60203
-1.59222
-1.49491
-1.4846
-1.38396
-1.37344
-1.27213
-1.26165
-1.16188
-1.15165
-1.05513
-1.0453
-0.95324
-0.943914
-0.857079
-0.84832
-0.767157
-0.759008
-0.683767
-0.676369
-0.607685
-0.603469
-0.558048
-0.948561
-0.492111
-0.420782
-0.412694
-0.367246
-0.362739
-0.324129
-0.320416
-0.287974
-0.284903
-0.258474
-0.256016
-0.235346
-0.233449
-0.2179
-0.216289
-0.201335
-0.199357
-0.176657
-0.173852
-0.142528
-0.139335
-0.109944
-0.105473
-0.0486672
-0.0436681
-0.00265124
-0.000471727
-0.000106289
-0.0103711
77.2619
-0.0721514
-1.18937
-1.25669
-1.46154
-1.48175
-1.63239
-1.657
-1.84338
-3.42604
-1.94402
-1.93703
-1.9318
-1.96356
-1.9653
-1.97463
-1.9744
-1.96094
-1.95846
-1.92409
-1.91955
-1.86663
-1.8603
-1.79155
-1.78373
-1.7022
-1.69321
-1.6021
-1.59228
-1.4948
-1.48447
-1.38365
-1.37311
-1.27162
-1.26112
-1.16118
-1.15093
-1.05425
-1.0444
-0.952199
-0.942859
-0.855911
-0.847142
-0.765896
-0.757739
-0.682447
-0.675046
-0.60634
-0.602115
-0.556652
-0.946067
-0.490749
-0.419518
-0.411443
-0.366056
-0.361555
-0.323009
-0.319304
-0.28693
-0.283866
-0.257507
-0.255057
-0.234462
-0.232573
-0.217114
-0.215515
-0.2007
-0.198738
-0.1762
-0.173411
-0.142216
-0.139038
-0.109797
-0.105338
-0.0486094
-0.0436169
-0.00264813
-0.000471185
-0.000106163
-0.0103574
77.2316
-0.167321
-1.09738
-1.25184
-1.44302
-1.49105
-1.62698
-1.68929
-1.94404
-3.14789
-2.05047
-1.95608
-1.93899
-1.96188
-1.96561
-1.97344
-1.97289
-1.9613
-1.95556
-1.92595
-1.91545
-1.86983
-1.85519
-1.79592
-1.77783
-1.70753
-1.68675
-1.60818
-1.58547
-1.5014
-1.47751
-1.39055
-1.36617
-1.27862
-1.25435
-1.16813
-1.14443
-1.06101
-1.03824
-0.958674
-0.937073
-0.862038
-0.841757
-0.771642
-0.752783
-0.687868
-0.670831
-0.612738
-0.604293
-0.588482
-0.869913
-0.518885
-0.430465
-0.410259
-0.369697
-0.359194
-0.325846
-0.317269
-0.28932
-0.282233
-0.259477
-0.253808
-0.236017
-0.231642
-0.218209
-0.214495
-0.20155
-0.197
-0.177532
-0.17109
-0.144335
-0.136964
-0.111233
-0.100939
-0.0527647
-0.0412957
-0.00639263
-0.00134104
-0.000307339
-0.010425
77.2067
-0.230842
-1.03642
-1.24552
-1.43022
-1.49683
-1.62452
-1.71389
-2.00673
-2.9618
-2.1168
-1.97204
-1.94457
-1.96096
-1.96575
-1.97258
-1.97182
-1.96143
-1.95361
-1.92704
-1.91275
-1.87179
-1.85187
-1.79864
-1.77402
-1.71088
-1.68259
-1.61202
-1.58111
-1.50558
-1.47307
-1.39494
-1.36176
-1.2831
-1.25005
-1.17257
-1.14031
-1.06534
-1.03434
-0.962826
-0.93342
-0.865971
-0.838362
-0.775336
-0.749665
-0.691371
-0.668256
-0.617148
-0.606764
-0.608419
-0.819055
-0.536514
-0.438681
-0.409887
-0.372134
-0.357744
-0.327689
-0.316008
-0.290875
-0.281226
-0.260763
-0.253044
-0.237035
-0.231072
-0.218914
-0.213842
-0.202063
-0.195859
-0.178341
-0.16958
-0.145679
-0.135625
-0.112051
-0.098054
-0.0554512
-0.0399116
-0.00894288
-0.00205007
-0.00047715
-0.0104824
77.1892
-0.269711
-0.999328
-1.24018
-1.42215
-1.50017
-1.62359
-1.73034
-2.04294
-2.8477
-2.15512
-1.9833
-1.9484
-1.96051
-1.96581
-1.97202
-1.97114
-1.96145
-1.95242
-1.92763
-1.91112
-1.87291
-1.84987
-1.80021
-1.77175
-1.71283
-1.68012
-1.61427
-1.57853
-1.50804
-1.47045
-1.39753
-1.35917
-1.28574
-1.24753
-1.1752
-1.1379
-1.0679
-1.03206
-0.965289
-0.931285
-0.868306
-0.836379
-0.77753
-0.747848
-0.693463
-0.666797
-0.619925
-0.608748
-0.619994
-0.78792
-0.546751
-0.444132
-0.409871
-0.373634
-0.356918
-0.328796
-0.315283
-0.291808
-0.280649
-0.261536
-0.252609
-0.237648
-0.230747
-0.219334
-0.213457
-0.202351
-0.195168
-0.178799
-0.168674
-0.146467
-0.134824
-0.112485
-0.0963125
-0.0570546
-0.0391441
-0.0105298
-0.00254613
-0.00059953
-0.0105241
77.1802
-0.288155
-0.981793
-1.2372
-1.41825
-1.50169
-1.62333
-1.73857
-2.05946
-2.7935
-2.17262
-1.9891
-1.95035
-1.96033
-1.96582
-1.97175
-1.97081
-1.96145
-1.95185
-1.92789
-1.91035
-1.87341
-1.84894
-1.80093
-1.77069
-1.71373
-1.67897
-1.6153
-1.57733
-1.50918
-1.46924
-1.39873
-1.35797
-1.28696
-1.24637
-1.17642
-1.13678
-1.0691
-1.03101
-0.966434
-0.930301
-0.869393
-0.835466
-0.778552
-0.747014
-0.694441
-0.666141
-0.621269
-0.609831
-0.625295
-0.773144
-0.551441
-0.446845
-0.409929
-0.374349
-0.356545
-0.329314
-0.314952
-0.292246
-0.280387
-0.261899
-0.252412
-0.237937
-0.230601
-0.219529
-0.213278
-0.20248
-0.194843
-0.179005
-0.16825
-0.146831
-0.13445
-0.112671
-0.0954933
-0.0578032
-0.0388042
-0.0112911
-0.00280049
-0.000663492
-0.0105459
77.1802
-0.288163
-0.981795
-1.2372
-1.41825
-1.50169
-1.62333
-1.73857
-2.05946
-2.7935
-2.17262
-1.9891
-1.95035
-1.96033
-1.96582
-1.97175
-1.97081
-1.96145
-1.95185
-1.92789
-1.91035
-1.87341
-1.84894
-1.80093
-1.77069
-1.71373
-1.67897
-1.6153
-1.57733
-1.50918
-1.46924
-1.39873
-1.35797
-1.28696
-1.24637
-1.17642
-1.13678
-1.0691
-1.03101
-0.966435
-0.930301
-0.869393
-0.835467
-0.778552
-0.747014
-0.694441
-0.666141
-0.621269
-0.609831
-0.625295
-0.773144
-0.551441
-0.446845
-0.409929
-0.37435
-0.356545
-0.329314
-0.314953
-0.292246
-0.280387
-0.261899
-0.252413
-0.237937
-0.230601
-0.219529
-0.213278
-0.202481
-0.194843
-0.179005
-0.16825
-0.146831
-0.13445
-0.112671
-0.0954932
-0.0578032
-0.0388042
-0.0112911
-0.00280047
-0.00066349
-0.0105459
77.1893
-0.269733
-0.999333
-1.24018
-1.42215
-1.50017
-1.62359
-1.73034
-2.04294
-2.8477
-2.15512
-1.98331
-1.9484
-1.96051
-1.96581
-1.97203
-1.97114
-1.96145
-1.95242
-1.92763
-1.91112
-1.87291
-1.84987
-1.80021
-1.77175
-1.71283
-1.68012
-1.61427
-1.57853
-1.50805
-1.47045
-1.39753
-1.35917
-1.28574
-1.24753
-1.1752
-1.1379
-1.0679
-1.03206
-0.965289
-0.931285
-0.868307
-0.836379
-0.777531
-0.747849
-0.693464
-0.666798
-0.619925
-0.608749
-0.619994
-0.787921
-0.546751
-0.444133
-0.409871
-0.373634
-0.356918
-0.328796
-0.315283
-0.291808
-0.280649
-0.261536
-0.252609
-0.237649
-0.230747
-0.219334
-0.213457
-0.202352
-0.195169
-0.178799
-0.168674
-0.146467
-0.134824
-0.112485
-0.0963125
-0.0570545
-0.0391441
-0.0105297
-0.00254608
-0.000599523
-0.010524
77.2068
-0.230871
-1.03643
-1.24552
-1.43022
-1.49683
-1.62452
-1.71388
-2.00673
-2.9618
-2.1168
-1.97204
-1.94457
-1.96096
-1.96575
-1.97258
-1.97182
-1.96143
-1.95361
-1.92704
-1.91275
-1.87179
-1.85187
-1.79864
-1.77402
-1.71088
-1.68259
-1.61202
-1.58111
-1.50559
-1.47308
-1.39494
-1.36177
-1.2831
-1.25006
-1.17257
-1.14031
-1.06534
-1.03434
-0.962827
-0.933421
-0.865972
-0.838362
-0.775336
-0.749666
-0.691372
-0.668257
-0.617149
-0.606764
-0.60842
-0.819056
-0.536514
-0.438682
-0.409887
-0.372135
-0.357744
-0.32769
-0.316008
-0.290875
-0.281226
-0.260763
-0.253044
-0.237035
-0.231072
-0.218914
-0.213843
-0.202063
-0.195859
-0.178342
-0.16958
-0.145679
-0.135625
-0.112051
-0.098054
-0.0554512
-0.0399115
-0.0089428
-0.00205001
-0.000477142
-0.0104823
77.2317
-0.167346
-1.09739
-1.25184
-1.44302
-1.49105
-1.62698
-1.68929
-1.94404
-3.14789
-2.05047
-1.95608
-1.93899
-1.96188
-1.96561
-1.97344
-1.97289
-1.96131
-1.95556
-1.92595
-1.91545
-1.86983
-1.85519
-1.79592
-1.77783
-1.70753
-1.68675
-1.60818
-1.58547
-1.5014
-1.47751
-1.39055
-1.36618
-1.27862
-1.25435
-1.16813
-1.14443
-1.06101
-1.03824
-0.958674
-0.937073
-0.862038
-0.841757
-0.771643
-0.752783
-0.687869
-0.670832
-0.612739
-0.604294
-0.588482
-0.869913
-0.518885
-0.430465
-0.410259
-0.369697
-0.359194
-0.325846
-0.31727
-0.289321
-0.282233
-0.259477
-0.253809
-0.236017
-0.231642
-0.218209
-0.214495
-0.20155
-0.197001
-0.177532
-0.17109
-0.144336
-0.136964
-0.111233
-0.100939
-0.0527646
-0.0412957
-0.00639256
-0.00134099
-0.000307334
-0.0104249
77.262
-0.0721617
-1.18937
-1.25669
-1.46154
-1.48175
-1.63239
-1.657
-1.84338
-3.42604
-1.94402
-1.93703
-1.9318
-1.96356
-1.9653
-1.97463
-1.9744
-1.96094
-1.95846
-1.92409
-1.91955
-1.86663
-1.8603
-1.79155
-1.78373
-1.7022
-1.69321
-1.6021
-1.59228
-1.4948
-1.48447
-1.38365
-1.37311
-1.27162
-1.26112
-1.16118
-1.15093
-1.05425
-1.0444
-0.9522
-0.94286
-0.855911
-0.847142
-0.765896
-0.75774
-0.682447
-0.675046
-0.60634
-0.602115
-0.556652
-0.946067
-0.490749
-0.419518
-0.411443
-0.366056
-0.361555
-0.323009
-0.319304
-0.28693
-0.283866
-0.257507
-0.255057
-0.234462
-0.232573
-0.217114
-0.215515
-0.2007
-0.198738
-0.1762
-0.173411
-0.142216
-0.139038
-0.109797
-0.105338
-0.0486094
-0.0436169
-0.0026481
-0.000471167
-0.000106162
-0.0103573
77.7175
3.42151
-0.961194
-1.22525
-2.23256
-2.29868
-2.47012
-2.49532
-2.60269
-4.7003
-2.59606
-2.49176
-2.47607
-2.45702
-2.45401
-2.42649
-2.42277
-2.37971
-2.37424
-2.31254
-2.30505
-2.22307
-2.21345
-2.11091
-2.0992
-1.97714
-1.96353
-1.82433
-1.80912
-1.65634
-1.63995
-1.4781
-1.46103
-1.29519
-1.27797
-1.11337
-1.09654
-0.938114
-0.922149
-0.774176
-0.759469
-0.625252
-0.61209
-0.493807
-0.482358
-0.381044
-0.371402
-0.287202
-0.280072
-0.217306
-0.335281
-0.155165
-0.106186
-0.101243
-0.0706614
-0.0678818
-0.0462221
-0.0443067
-0.0294059
-0.0281081
-0.0182284
-0.0173793
-0.0110608
-0.0105239
-0.00661119
-0.00628172
-0.00392272
-0.0037254
-0.00233204
-0.002216
-0.00140489
-0.00133645
-0.000847405
-0.000806839
-0.000533126
-0.000494917
-2.93924e-05
-5.18082e-06
-1.16965e-06
-0.00123188
77.7695
2.90845
-0.630683
-1.22838
-2.13384
-2.29032
-2.45899
-2.52546
-2.74613
-4.31974
-2.74128
-2.52605
-2.48266
-2.45968
-2.45226
-2.42807
-2.41942
-2.38218
-2.36952
-2.31624
-2.29891
-2.22815
-2.20591
-2.11743
-2.09036
-1.98506
-1.95359
-1.83352
-1.79835
-1.66658
-1.62869
-1.4891
-1.44963
-1.3066
-1.26679
-1.12482
-1.08591
-0.94926
-0.912344
-0.784696
-0.750688
-0.634889
-0.604451
-0.502382
-0.475906
-0.388483
-0.366205
-0.29389
-0.277806
-0.2309
-0.308822
-0.165094
-0.112167
-0.100125
-0.0731411
-0.0666695
-0.0479053
-0.0434681
-0.0305706
-0.0275647
-0.0190079
-0.0170406
-0.0115637
-0.0103192
-0.00692492
-0.00616099
-0.00411298
-0.00365534
-0.0024449
-0.00217566
-0.00147034
-0.00131153
-0.000886907
-0.000792476
-0.00054919
-0.000461079
-7.05235e-05
-1.47338e-05
-3.38614e-06
-0.0012327
77.8119
2.5464
-0.417836
-1.21921
-2.06508
-2.28148
-2.45196
-2.54943
-2.83545
-4.06526
-2.83198
-2.55347
-2.48843
-2.46171
-2.45118
-2.42902
-2.41722
-2.38367
-2.36643
-2.3185
-2.2949
-2.23129
-2.20101
-2.12148
-2.08464
-1.99002
-1.94718
-1.8393
-1.79143
-1.67306
-1.62148
-1.49608
-1.44236
-1.31387
-1.25969
-1.13215
-1.07918
-0.956412
-0.906164
-0.791465
-0.745174
-0.641108
-0.599673
-0.507931
-0.471889
-0.393312
-0.363006
-0.298325
-0.276771
-0.2395
-0.291227
-0.171389
-0.116512
-0.0996031
-0.0747995
-0.0659484
-0.049015
-0.0429676
-0.0313393
-0.0272431
-0.0195236
-0.0168421
-0.0118971
-0.0102005
-0.00713335
-0.00609158
-0.00423959
-0.00361536
-0.00252007
-0.00215275
-0.00151391
-0.00129724
-0.000913191
-0.000784059
-0.000559041
-0.000439334
-9.82608e-05
-2.2507e-05
-5.25733e-06
-0.00123341
77.8416
2.31546
-0.291514
-1.20826
-2.02151
-2.27448
-2.44785
-2.56587
-2.88702
-3.90931
-2.88449
-2.57234
-2.49267
-2.4631
-2.45056
-2.42956
-2.41589
-2.38451
-2.36456
-2.31979
-2.29249
-2.23309
-2.19807
-2.12383
-2.08122
-1.9929
-1.94337
-1.84268
-1.78733
-1.67685
-1.61722
-1.50019
-1.43807
-1.31816
-1.25552
-1.13649
-1.07524
-0.960655
-0.902554
-0.795492
-0.741965
-0.644816
-0.596902
-0.511246
-0.469568
-0.396207
-0.361179
-0.301032
-0.276362
-0.244536
-0.280493
-0.175084
-0.119336
-0.0993959
-0.0758187
-0.0655496
-0.0496885
-0.0426898
-0.0318063
-0.027066
-0.0198375
-0.0167339
-0.0121005
-0.0101364
-0.00726065
-0.00605448
-0.00431701
-0.00359416
-0.00256609
-0.00214066
-0.00154057
-0.00128962
-0.000929261
-0.000779464
-0.000564669
-0.000426436
-0.00011538
-2.7937e-05
-6.60623e-06
-0.00123392
77.8569
2.20304
-0.232814
-1.20146
-2.00036
-2.27067
-2.44596
-2.57419
-2.91054
-3.83525
-2.90849
-2.58192
-2.49491
-2.4638
-2.45029
-2.4298
-2.41526
-2.38488
-2.36368
-2.32036
-2.29136
-2.23391
-2.1967
-2.1249
-2.07963
-1.99423
-1.94159
-1.84424
-1.78542
-1.6786
-1.61524
-1.50209
-1.43609
-1.32015
-1.25359
-1.1385
-1.07343
-0.962629
-0.900893
-0.797368
-0.740492
-0.646546
-0.595634
-0.512796
-0.468509
-0.397563
-0.360352
-0.302316
-0.276235
-0.246857
-0.275409
-0.176789
-0.120725
-0.0993325
-0.0763042
-0.0653734
-0.0500065
-0.0425666
-0.032027
-0.026988
-0.019986
-0.0166866
-0.0121968
-0.0101087
-0.00732102
-0.00603851
-0.00435375
-0.0035851
-0.00258794
-0.00213552
-0.00155322
-0.00128635
-0.000936886
-0.000777451
-0.000567221
-0.000420441
-0.000123549
-3.07185e-05
-7.31184e-06
-0.00123418
77.8569
2.20303
-0.232815
-1.20146
-2.00036
-2.27067
-2.44596
-2.57419
-2.91054
-3.83525
-2.90849
-2.58192
-2.49491
-2.4638
-2.45029
-2.4298
-2.41526
-2.38488
-2.36368
-2.32037
-2.29136
-2.23391
-2.1967
-2.1249
-2.07963
-1.99423
-1.94159
-1.84424
-1.78542
-1.6786
-1.61524
-1.50209
-1.43609
-1.32015
-1.25359
-1.1385
-1.07343
-0.96263
-0.900894
-0.797368
-0.740492
-0.646546
-0.595634
-0.512796
-0.468509
-0.397563
-0.360352
-0.302316
-0.276235
-0.246857
-0.275409
-0.176789
-0.120725
-0.0993325
-0.0763042
-0.0653734
-0.0500065
-0.0425666
-0.032027
-0.026988
-0.019986
-0.0166866
-0.0121968
-0.0101087
-0.00732102
-0.00603851
-0.00435375
-0.00358509
-0.00258794
-0.00213551
-0.00155322
-0.00128635
-0.000936886
-0.000777451
-0.000567221
-0.000420441
-0.000123549
-3.07185e-05
-7.313e-06
-0.00123418
77.8417
2.31545
-0.291518
-1.20826
-2.02151
-2.27448
-2.44785
-2.56587
-2.88702
-3.90931
-2.88449
-2.57234
-2.49267
-2.4631
-2.45056
-2.42956
-2.41589
-2.38451
-2.36456
-2.31979
-2.29249
-2.23309
-2.19807
-2.12383
-2.08123
-1.99291
-1.94337
-1.84268
-1.78733
-1.67685
-1.61722
-1.50019
-1.43808
-1.31816
-1.25552
-1.13649
-1.07524
-0.960656
-0.902555
-0.795493
-0.741965
-0.644816
-0.596903
-0.511247
-0.469569
-0.396207
-0.36118
-0.301033
-0.276362
-0.244536
-0.280493
-0.175084
-0.119336
-0.0993959
-0.0758187
-0.0655496
-0.0496884
-0.0426898
-0.0318063
-0.027066
-0.0198375
-0.0167339
-0.0121005
-0.0101364
-0.00726065
-0.00605447
-0.004317
-0.00359416
-0.00256608
-0.00214066
-0.00154057
-0.00128962
-0.00092926
-0.000779463
-0.000564668
-0.000426435
-0.00011538
-2.79372e-05
-6.6094e-06
-0.00123391
77.812
2.54638
-0.417841
-1.21921
-2.06508
-2.28148
-2.45196
-2.54943
-2.83545
-4.06526
-2.83198
-2.55347
-2.48843
-2.46171
-2.45118
-2.42902
-2.41722
-2.38367
-2.36643
-2.3185
-2.2949
-2.23129
-2.20101
-2.12149
-2.08464
-1.99002
-1.94718
-1.83931