/*--------------------------------*- C++ -*----------------------------------*\
| =========                 |                                                 |
| \\      /  F ield         | OpenFOAM: The Open Source CFD Toolbox           |
|  \\    /   O peration     | Version:  5.x                                   |
|   \\  /    A nd           | Web:      www.OpenFOAM.org                      |
|    \\/     M anipulation  |                                                 |
\*---------------------------------------------------------------------------*/
FoamFile
{
    version     2.0;
    format      ascii;
    class       volScalarField;
    location    "0.9";
    object      T;
}
// * * * * * * * * * * * * * * * * * * * * * * * * * * * * * * * * * * * * * //

dimensions      [0 0 0 1 0 0 0];

internalField   nonuniform List<scalar> 
3200
(
3.71982
4.05148
4.0621
3.95552
3.93973
3.73237
3.70997
3.48542
3.4605
3.22518
2.99048
2.96556
2.74126
2.71791
2.4955
2.47245
2.25278
2.2301
2.01473
1.9926
1.7834
1.76202
1.56103
1.54061
1.34988
1.33063
1.15212
1.13424
0.969668
0.953305
0.804029
0.789308
0.656233
0.64322
0.526743
0.515452
0.415446
0.40584
0.321681
0.313672
0.244312
0.237773
0.181832
0.176608
0.13249
0.128411
0.0944171
0.0913013
0.0657198
0.0633163
0.0440047
0.02981
0.028497
0.0191953
0.0183761
0.0121299
0.0115884
0.00750662
0.00715659
0.00456434
0.00434406
0.00273981
0.00260445
0.00163234
0.00155071
0.000970224
0.000921572
0.000577288
0.000548395
0.00034367
0.000326401
0.000202945
0.000192534
0.00011808
0.000111734
6.47038e-05
6.21843e-05
6.17611e-05
6.16656e-05
6.1644e-05
3.75462
4.02189
4.0456
3.95897
3.9229
3.7457
3.69397
3.49986
3.44149
3.22528
3.00952
2.95114
2.75688
2.70283
2.51086
2.45755
2.26798
2.21553
2.02969
1.9785
1.79799
1.74853
1.5751
1.52788
1.3633
1.31879
1.16475
1.12339
0.981376
0.943534
0.814713
0.780665
0.665816
0.635718
0.535184
0.50907
0.422742
0.40052
0.327862
0.309332
0.24944
0.234311
0.185996
0.17391
0.135797
0.126358
0.096981
0.0897672
0.0676155
0.0620085
0.044542
0.0311464
0.028042
0.0199342
0.0180329
0.012621
0.0113664
0.00782952
0.00701839
0.00477083
0.00426021
0.00286835
0.0025545
0.00171058
0.00152125
0.00101706
0.000904206
0.000605077
0.000538049
0.000360156
0.000320097
0.000212874
0.000188727
0.000124051
0.000109365
6.90646e-05
6.32027e-05
6.20039e-05
6.17276e-05
6.16649e-05
3.77872
4.00203
4.0335
3.96039
3.91172
3.754
3.68367
3.50887
3.42878
3.22535
3.02227
2.94214
2.76689
2.69326
2.52066
2.44808
2.27769
2.20629
2.03925
1.96957
1.80732
1.74
1.58412
1.51983
1.37191
1.31132
1.17287
1.11656
0.988913
0.937398
0.821602
0.77525
0.672006
0.63103
0.540646
0.505092
0.42747
0.397215
0.331874
0.306646
0.252776
0.232176
0.18871
0.172252
0.137957
0.125101
0.0986576
0.0888301
0.0688489
0.0611746
0.0449161
0.0320708
0.027787
0.0204245
0.01783
0.0129456
0.0112355
0.00804331
0.00693758
0.00490778
0.00421158
0.00295374
0.00252573
0.00176261
0.00150437
0.00104823
0.000894281
0.000623575
0.00053213
0.000371125
0.000316476
0.000219477
0.000186538
0.000128021
0.000108019
7.20467e-05
6.40337e-05
6.22089e-05
6.17803e-05
6.16826e-05
3.79389
3.98984
4.02557
3.96083
3.90488
3.75879
3.67754
3.51408
3.421
3.2254
3.03008
2.93694
2.77282
2.68764
2.52645
2.44252
2.28343
2.20086
2.0449
1.96433
1.81284
1.735
1.58947
1.51513
1.37702
1.30695
1.17769
1.11258
0.993397
0.933826
0.825706
0.772104
0.675698
0.628314
0.543909
0.502793
0.430299
0.39531
0.334279
0.305101
0.254778
0.230952
0.190342
0.171306
0.139257
0.124386
0.0996683
0.0882979
0.0695891
0.0606833
0.045153
0.0326523
0.0276547
0.0207238
0.0177184
0.0131431
0.0111638
0.00817352
0.00689363
0.00499131
0.00418535
0.00300588
0.00251033
0.00179442
0.00149539
0.0010673
0.000889012
0.00063489
0.000528985
0.000377832
0.000314543
0.000223514
0.000185368
0.000130447
0.00010731
7.39085e-05
6.46155e-05
6.23568e-05
6.18185e-05
6.16954e-05
3.80122
3.98404
4.02165
3.9609
3.90164
3.76098
3.67467
3.51646
3.41731
3.22543
3.03379
2.93457
2.77557
2.68504
2.52914
2.43995
2.28609
2.19835
2.04752
1.96191
1.81541
1.73269
1.59195
1.51296
1.3794
1.30494
1.17994
1.11075
0.995487
0.932186
0.82762
0.770662
0.677423
0.62707
0.545435
0.501743
0.431623
0.394442
0.335406
0.304399
0.255716
0.230397
0.191107
0.170877
0.139867
0.124064
0.100143
0.088058
0.0699361
0.060456
0.045268
0.032933
0.0275993
0.0208658
0.0176693
0.0132366
0.0111323
0.00823515
0.00687446
0.00503089
0.00417398
0.00303061
0.0025037
0.00180951
0.00149153
0.00107635
0.000886757
0.000640261
0.000527638
0.000381015
0.000313712
0.000225429
0.000184865
0.000131598
0.000107009
7.48037e-05
6.49141e-05
6.24341e-05
6.18386e-05
6.1702e-05
3.80122
3.98404
4.02165
3.9609
3.90164
3.76098
3.67468
3.51646
3.41731
3.22543
3.0338
2.93457
2.77557
2.68504
2.52914
2.43995
2.28609
2.19835
2.04752
1.96191
1.81541
1.7327
1.59195
1.51296
1.3794
1.30494
1.17994
1.11075
0.995487
0.932186
0.82762
0.770662
0.677423
0.62707
0.545435
0.501743
0.431623
0.394442
0.335406
0.304399
0.255716
0.230397
0.191107
0.170877
0.139867
0.124064
0.100143
0.088058
0.0699361
0.060456
0.045268
0.032933
0.0275992
0.0208657
0.0176693
0.0132365
0.0111323
0.00823515
0.00687446
0.00503089
0.00417398
0.00303061
0.00250369
0.00180951
0.00149153
0.00107635
0.000886757
0.000640261
0.000527638
0.000381015
0.000313711
0.000225429
0.000184865
0.000131598
0.000107009
7.48037e-05
6.49141e-05
6.24341e-05
6.18386e-05
6.17019e-05
3.7939
3.98984
4.02557
3.96083
3.90489
3.7588
3.67754
3.51408
3.421
3.22541
3.03008
2.93695
2.77282
2.68764
2.52645
2.44252
2.28343
2.20086
2.0449
1.96433
1.81285
1.735
1.58947
1.51513
1.37702
1.30695
1.17769
1.11258
0.993398
0.933826
0.825706
0.772104
0.675699
0.628314
0.54391
0.502793
0.4303
0.39531
0.33428
0.305102
0.254778
0.230952
0.190342
0.171306
0.139257
0.124386
0.0996683
0.0882979
0.0695891
0.0606833
0.045153
0.0326523
0.0276547
0.0207238
0.0177184
0.0131431
0.0111638
0.00817352
0.00689363
0.00499131
0.00418535
0.00300588
0.00251033
0.00179441
0.00149539
0.0010673
0.000889011
0.000634889
0.000528985
0.000377832
0.000314542
0.000223514
0.000185368
0.000130447
0.00010731
7.39085e-05
6.46156e-05
6.23568e-05
6.18185e-05
6.16951e-05
3.77873
4.00203
4.0335
3.96039
3.91172
3.754
3.68367
3.50887
3.42878
3.22535
3.02227
2.94215
2.76689
2.69326
2.52066
2.44808
2.27769
2.20629
2.03925
1.96957
1.80732
1.74
1.58412
1.51983
1.37191
1.31132
1.17287
1.11656
0.988914
0.937399
0.821602
0.77525
0.672006
0.631031
0.540647
0.505093
0.42747
0.397215
0.331875
0.306646
0.252776
0.232176
0.18871
0.172252
0.137957
0.125101
0.0986576
0.0888301
0.0688489
0.0611746
0.044916
0.0320708
0.027787
0.0204245
0.01783
0.0129456
0.0112355
0.00804331
0.00693758
0.00490778
0.00421158
0.00295373
0.00252573
0.00176261
0.00150437
0.00104823
0.000894281
0.000623574
0.00053213
0.000371125
0.000316475
0.000219477
0.000186538
0.00012802
0.000108019
7.20467e-05
6.40337e-05
6.2209e-05
6.17803e-05
6.16822e-05
3.75462
4.02189
4.0456
3.95897
3.92291
3.7457
3.69398
3.49987
3.44149
3.22528
3.00952
2.95114
2.75689
2.70283
2.51086
2.45755
2.26798
2.21553
2.02969
1.9785
1.79799
1.74854
1.5751
1.52788
1.3633
1.31879
1.16475
1.12339
0.981377
0.943535
0.814714
0.780665
0.665817
0.635719
0.535185
0.50907
0.422742
0.40052
0.327862
0.309332
0.24944
0.234311
0.185996
0.17391
0.135798
0.126358
0.096981
0.0897673
0.0676155
0.0620085
0.044542
0.0311464
0.028042
0.0199341
0.0180329
0.012621
0.0113664
0.00782952
0.00701839
0.00477082
0.00426021
0.00286835
0.0025545
0.00171058
0.00152125
0.00101706
0.000904206
0.000605077
0.000538048
0.000360156
0.000320097
0.000212874
0.000188727
0.000124051
0.000109365
6.90646e-05
6.32028e-05
6.2004e-05
6.17276e-05
6.16646e-05
3.71982
4.05149
4.06211
3.95552
3.93973
3.73237
3.70997
3.48542
3.4605
3.22518
2.99048
2.96556
2.74126
2.71791
2.49551
2.47245
2.25278
2.23011
2.01474
1.9926
1.7834
1.76202
1.56103
1.54061
1.34988
1.33063
1.15212
1.13424
0.969668
0.953306
0.80403
0.789308
0.656233
0.64322
0.526743
0.515453
0.415446
0.40584
0.321681
0.313672
0.244312
0.237773
0.181832
0.176608
0.13249
0.128411
0.0944171
0.0913013
0.0657198
0.0633163
0.0440047
0.02981
0.028497
0.0191953
0.0183761
0.0121299
0.0115884
0.00750662
0.00715659
0.00456434
0.00434406
0.00273981
0.00260445
0.00163234
0.00155071
0.000970224
0.000921572
0.000577288
0.000548395
0.00034367
0.000326401
0.000202945
0.000192534
0.00011808
0.000111734
6.47039e-05
6.21844e-05
6.17612e-05
6.16657e-05
6.16439e-05
3.86536
3.8641
3.85812
3.74515
3.73244
3.59899
3.58427
3.43576
3.41857
3.25143
3.076
3.05706
2.88234
2.86392
2.68603
2.66743
2.48862
2.47005
2.29258
2.27426
2.10022
2.08236
1.91361
1.89637
1.73449
1.71804
1.5643
1.54874
1.4041
1.38952
1.2546
1.24106
1.11621
1.10372
0.988996
0.977551
0.872808
0.862386
0.767295
0.757856
0.671971
0.663464
0.586263
0.578632
0.509547
0.502731
0.44117
0.435095
0.380402
0.374748
0.324597
0.279892
0.275386
0.237813
0.234117
0.201089
0.197843
0.168676
0.165801
0.139878
0.137311
0.114031
0.111709
0.0904965
0.0883642
0.0687064
0.0667353
0.0485729
0.0467996
0.0309072
0.0294144
0.0166545
0.0154809
0.00566006
0.00493351
0.00079334
0.000566703
0.000528214
0.000519528
0.000517585
3.86467
3.86175
3.84792
3.752
3.72273
3.6077
3.57362
3.445
3.40469
3.25062
3.08994
3.0456
2.89437
2.85174
2.69822
2.65522
2.50093
2.45799
2.30486
2.26249
2.11232
2.071
1.92539
1.88552
1.74583
1.70778
1.5751
1.53912
1.4143
1.38058
1.26415
1.23282
1.12506
1.09617
0.997149
0.970677
0.880267
0.856161
0.774079
0.752246
0.678108
0.658432
0.591789
0.574138
0.514499
0.498733
0.445581
0.431517
0.384172
0.370951
0.325177
0.283731
0.273144
0.240556
0.231994
0.203466
0.195956
0.17077
0.164119
0.141733
0.135792
0.115688
0.110316
0.091997
0.0870646
0.070097
0.0655388
0.0498776
0.0457779
0.0320776
0.0286256
0.017612
0.0149005
0.00647279
0.00479347
0.00118992
0.000659021
0.000549893
0.000524758
0.000519122
3.8641
3.85984
3.84099
3.75619
3.71643
3.61316
3.56675
3.45071
3.39536
3.25005
3.09922
3.0384
2.90205
2.84398
2.706
2.64746
2.50879
2.45033
2.3127
2.25502
2.12005
2.0638
1.93292
1.87866
1.7531
1.70129
1.58204
1.53306
1.42084
1.37495
1.27028
1.22763
1.13075
1.09142
1.0024
0.966356
0.88507
0.852251
0.77845
0.748725
0.682065
0.655277
0.595352
0.571322
0.517693
0.496228
0.448425
0.42927
0.386575
0.368455
0.325581
0.286334
0.271782
0.242336
0.230668
0.205002
0.194776
0.172121
0.163065
0.142928
0.134839
0.116754
0.10944
0.0929616
0.0862459
0.0709908
0.064786
0.0507195
0.04514
0.0328378
0.0281392
0.0182373
0.0145487
0.0070155
0.00473036
0.00146355
0.000734452
0.000568201
0.000529201
0.000520429
3.86368
3.8585
3.83669
3.75856
3.71267
3.61634
3.56265
3.45398
3.38962
3.2497
3.10488
3.03422
2.90659
2.83942
2.71058
2.64288
2.51343
2.44582
2.31734
2.25064
2.12463
2.05958
1.93739
1.87464
1.75741
1.6975
1.58615
1.52951
1.42473
1.37166
1.27392
1.2246
1.13414
1.08865
1.00552
0.963838
0.887928
0.849974
0.781052
0.746677
0.684421
0.653441
0.597475
0.569685
0.519598
0.494773
0.45012
0.42796
0.387993
0.366946
0.325839
0.287947
0.271012
0.243402
0.2299
0.205919
0.194091
0.172926
0.162452
0.14364
0.134285
0.117389
0.108929
0.0935348
0.085768
0.0715218
0.064347
0.0512214
0.0447706
0.0332934
0.0278606
0.0186138
0.0143505
0.00734818
0.00470643
0.00163564
0.00078734
0.000581402
0.000532424
0.000521378
3.86347
3.85781
3.83463
3.75962
3.71091
3.61779
3.56073
3.45546
3.38688
3.24953
3.10756
3.0323
2.90869
2.83731
2.7127
2.64077
2.51558
2.44374
2.31949
2.24861
2.12675
2.05763
1.93946
1.87279
1.75941
1.69575
1.58806
1.52788
1.42654
1.37015
1.27562
1.22321
1.13571
1.08737
1.00697
0.962682
0.889261
0.84893
0.782265
0.745737
0.68552
0.6526
0.598466
0.568934
0.520486
0.494106
0.450911
0.427359
0.388649
0.366236
0.325964
0.288718
0.270667
0.243902
0.229549
0.206347
0.193777
0.173302
0.162172
0.143972
0.13403
0.117685
0.108694
0.0938017
0.0855481
0.0717691
0.0641453
0.0514556
0.0446016
0.0335068
0.0277342
0.0187907
0.0142617
0.00750628
0.00469957
0.00171876
0.000814499
0.000588305
0.000534117
0.000521876
3.86347
3.85781
3.83463
3.75962
3.71091
3.61779
3.56073
3.45546
3.38689
3.24953
3.10757
3.0323
2.90869
2.83731
2.7127
2.64077
2.51558
2.44374
2.31949
2.24861
2.12675
2.05763
1.93946
1.87279
1.75941
1.69575
1.58806
1.52788
1.42654
1.37015
1.27562
1.22321
1.13572
1.08737
1.00697
0.962683
0.889261
0.84893
0.782266
0.745737
0.68552
0.6526
0.598466
0.568934
0.520486
0.494106
0.450911
0.427359
0.388649
0.366236
0.325964
0.288718
0.270667
0.243902
0.229549
0.206347
0.193777
0.173303
0.162172
0.143973
0.13403
0.117685
0.108694
0.0938017
0.0855481
0.0717691
0.0641453
0.0514556
0.0446016
0.0335068
0.0277342
0.0187907
0.0142617
0.00750628
0.00469956
0.00171876
0.000814496
0.000588303
0.000534116
0.000521875
3.86369
3.8585
3.83669
3.75856
3.71267
3.61634
3.56265
3.45398
3.38962
3.2497
3.10488
3.03422
2.90659
2.83942
2.71058
2.64289
2.51343
2.44583
2.31734
2.25064
2.12463
2.05958
1.93739
1.87464
1.75741
1.6975
1.58615
1.52951
1.42473
1.37166
1.27392
1.2246
1.13414
1.08865
1.00552
0.963839
0.887929
0.849975
0.781052
0.746677
0.684421
0.653442
0.597476
0.569685
0.519598
0.494773
0.45012
0.42796
0.387993
0.366946
0.325839
0.287947
0.271013
0.243402
0.2299
0.205919
0.194091
0.172927
0.162452
0.14364
0.134285
0.117389
0.108929
0.0935348
0.085768
0.0715219
0.0643471
0.0512214
0.0447706
0.0332934
0.0278606
0.0186138
0.0143505
0.00734816
0.00470642
0.00163563
0.000787334
0.000581399
0.000532423
0.000521376
3.8641
3.85984
3.84099
3.75619
3.71643
3.61316
3.56675
3.45071
3.39537
3.25006
3.09922
3.0384
2.90205
2.84399
2.706
2.64746
2.50879
2.45033
2.3127
2.25502
2.12006
2.0638
1.93293
1.87866
1.7531
1.7013
1.58204
1.53306
1.42085
1.37495
1.27028
1.22763
1.13075
1.09142
1.0024
0.966356
0.885071
0.852251
0.77845
0.748726
0.682065
0.655277
0.595353
0.571322
0.517694
0.496228
0.448425
0.42927
0.386576
0.368455
0.325582
0.286334
0.271782
0.242336
0.230668
0.205002
0.194776
0.172121
0.163065
0.142928
0.134839
0.116754
0.10944
0.0929617
0.0862459
0.0709908
0.064786
0.0507195
0.04514
0.0328377
0.0281392
0.0182373
0.0145487
0.00701548
0.00473034
0.00146354
0.000734444
0.000568197
0.000529199
0.000520426
3.86468
3.86175
3.84792
3.75201
3.72273
3.6077
3.57362
3.445
3.4047
3.25062
3.08994
3.0456
2.89437
2.85174
2.69823
2.65522
2.50094
2.45799
2.30486
2.26249
2.11232
2.071
1.92539
1.88553
1.74583
1.70778
1.57511
1.53913
1.4143
1.38058
1.26415
1.23282
1.12506
1.09617
0.997149
0.970677
0.880267
0.856161
0.774079
0.752246
0.678109
0.658433
0.591789
0.574139
0.514499
0.498734
0.445581
0.431518
0.384172
0.370951
0.325177
0.283731
0.273145
0.240556
0.231994
0.203467
0.195956
0.17077
0.164119
0.141733
0.135792
0.115688
0.110316
0.0919971
0.0870647
0.0700971
0.0655388
0.0498776
0.0457779
0.0320776
0.0286256
0.017612
0.0149005
0.00647277
0.00479346
0.00118991
0.000659015
0.00054989
0.000524756
0.00051912
3.86536
3.8641
3.85812
3.74515
3.73245
3.59899
3.58427
3.43576
3.41857
3.25144
3.076
3.05706
2.88234
2.86392
2.68603
2.66743
2.48862
2.47005
2.29258
2.27426
2.10023
2.08236
1.91361
1.89638
1.73449
1.71804
1.5643
1.54874
1.4041
1.38952
1.25461
1.24106
1.11621
1.10372
0.988996
0.977551
0.872808
0.862386
0.767295
0.757856
0.671971
0.663464
0.586263
0.578632
0.509547
0.502732
0.44117
0.435095
0.380402
0.374748
0.324597
0.279892
0.275386
0.237813
0.234117
0.201089
0.197843
0.168676
0.165801
0.139879
0.137311
0.114031
0.111709
0.0904965
0.0883643
0.0687065
0.0667353
0.048573
0.0467996
0.0309072
0.0294144
0.0166545
0.0154809
0.00566005
0.00493351
0.000793337
0.0005667
0.000528213
0.000519527
0.000517584
3.86372
3.86248
3.8565
3.74354
3.73083
3.59739
3.58266
3.43415
3.41696
3.24981
3.07435
3.05541
2.88065
2.86223
2.6843
2.6657
2.48683
2.46826
2.29074
2.27241
2.09833
2.08046
1.91167
1.89443
1.73251
1.71605
1.56229
1.54673
1.40208
1.3875
1.2526
1.23906
1.11424
1.10175
0.987073
0.975634
0.870956
0.860541
0.765531
0.756101
0.670311
0.661815
0.58472
0.577101
0.50813
0.501327
0.439885
0.433822
0.379251
0.373611
0.323586
0.279004
0.274511
0.237052
0.233367
0.200447
0.197211
0.168146
0.165281
0.139453
0.136895
0.113702
0.111389
0.0902559
0.0881316
0.0685445
0.0665801
0.0484746
0.0467063
0.0308546
0.0293652
0.016633
0.0154615
0.00565327
0.00492765
0.000792327
0.000565957
0.000527514
0.000518838
0.000516898
3.86303
3.86013
3.8463
3.75039
3.72112
3.60609
3.57201
3.44339
3.40308
3.24899
3.08829
3.04394
2.89268
2.85004
2.6965
2.65348
2.49915
2.45619
2.30302
2.26064
2.11043
2.06909
1.92344
1.88357
1.74385
1.70579
1.5731
1.53712
1.41228
1.37857
1.26214
1.23082
1.12309
1.0942
0.995223
0.968765
0.878411
0.854322
0.77231
0.750498
0.676442
0.656791
0.590239
0.572615
0.513074
0.497337
0.444287
0.430254
0.383014
0.369824
0.324166
0.282833
0.272277
0.239787
0.231251
0.202817
0.195332
0.170232
0.163605
0.1413
0.135382
0.115353
0.110001
0.0917508
0.0868365
0.0699299
0.0653871
0.0497749
0.045687
0.0320218
0.0285781
0.0175882
0.0148816
0.0064649
0.00478774
0.00118843
0.000658166
0.000549167
0.000524062
0.000518433
3.86246
3.85822
3.83937
3.75457
3.71482
3.61155
3.56514
3.4491
3.39375
3.24843
3.09757
3.03675
2.90037
2.84229
2.70427
2.64571
2.50701
2.44853
2.31087
2.25317
2.11816
2.0619
1.93098
1.87671
1.75112
1.69931
1.58003
1.53105
1.41883
1.37294
1.26827
1.22563
1.12878
1.08945
1.00047
0.964447
0.883211
0.850416
0.776677
0.746982
0.680395
0.65364
0.593798
0.569804
0.516264
0.494837
0.447127
0.428011
0.385412
0.367335
0.32457
0.285429
0.270919
0.241561
0.22993
0.204348
0.194156
0.171579
0.162555
0.142491
0.134432
0.116415
0.109128
0.0927117
0.0860207
0.0708203
0.0646364
0.050614
0.0450505
0.0327799
0.0280925
0.018212
0.0145301
0.00700687
0.00472467
0.00146174
0.000733507
0.000567454
0.0005285
0.000519739
3.86204
3.85688
3.83507
3.75694
3.71106
3.61473
3.56104
3.45237
3.388
3.24807
3.10323
3.03256
2.9049
2.83772
2.70885
2.64114
2.51165
2.44403
2.3155
2.24879
2.12274
2.05767
1.93545
1.87269
1.75543
1.69551
1.58415
1.5275
1.42272
1.36965
1.27191
1.2226
1.13216
1.08668
1.00359
0.961932
0.886068
0.848142
0.779278
0.744936
0.682749
0.651807
0.595918
0.56817
0.518165
0.493385
0.448819
0.426705
0.386826
0.36583
0.324827
0.287038
0.270152
0.242625
0.229165
0.205262
0.193473
0.172382
0.161945
0.143201
0.13388
0.117048
0.108619
0.0932827
0.0855444
0.0713493
0.0641987
0.0511142
0.0446819
0.0332343
0.0278144
0.0185876
0.014332
0.00733908
0.00470075
0.00163362
0.000786332
0.000580639
0.000531719
0.000520686
3.86183
3.85619
3.83302
3.75801
3.70929
3.61619
3.55913
3.45385
3.38527
3.24791
3.10592
3.03064
2.90701
2.83561
2.71098
2.63903
2.5138
2.44195
2.31766
2.24676
2.12487
2.05573
1.93753
1.87083
1.75743
1.69376
1.58606
1.52587
1.42453
1.36813
1.27361
1.22121
1.13374
1.08541
1.00504
0.960776
0.8874
0.847098
0.78049
0.743997
0.683847
0.650967
0.596908
0.56742
0.519052
0.492719
0.449608
0.426105
0.387482
0.365122
0.324952
0.287808
0.269808
0.243123
0.228815
0.205688
0.193161
0.172757
0.161665
0.143532
0.133627
0.117342
0.108385
0.0935485
0.0853253
0.0715956
0.0639975
0.0513476
0.0445132
0.0334471
0.0276882
0.018764
0.0142432
0.00749696
0.00469388
0.00171664
0.000813458
0.000587533
0.00053341
0.000521184
3.86183
3.85619
3.83302
3.75801
3.7093
3.61619
3.55913
3.45385
3.38527
3.24791
3.10592
3.03064
2.90701
2.83561
2.71098
2.63903
2.5138
2.44195
2.31766
2.24676
2.12487
2.05573
1.93753
1.87083
1.75743
1.69376
1.58606
1.52587
1.42453
1.36813
1.27361
1.22121
1.13374
1.08541
1.00504
0.960777
0.8874
0.847098
0.780491
0.743997
0.683847
0.650967
0.596908
0.567421
0.519053
0.492719
0.449608
0.426105
0.387482
0.365122
0.324952
0.287808
0.269808
0.243123
0.228815
0.205688
0.193161
0.172757
0.161665
0.143532
0.133627
0.117342
0.108385
0.0935486
0.0853253
0.0715956
0.0639975
0.0513476
0.0445132
0.0334471
0.0276882
0.018764
0.0142432
0.00749696
0.00469387
0.00171664
0.000813456
0.000587532
0.000533409
0.000521183
3.86205
3.85688
3.83507
3.75694
3.71106
3.61473
3.56104
3.45237
3.38801
3.24808
3.10324
3.03256
2.9049
2.83772
2.70885
2.64114
2.51165
2.44403
2.31551
2.24879
2.12274
2.05768
1.93545
1.87269
1.75543
1.69551
1.58415
1.5275
1.42272
1.36965
1.27192
1.2226
1.13216
1.08669
1.00359
0.961932
0.886069
0.848142
0.779278
0.744936
0.682749
0.651808
0.595919
0.56817
0.518166
0.493385
0.448819
0.426705
0.386827
0.36583
0.324827
0.287038
0.270152
0.242625
0.229165
0.205262
0.193473
0.172382
0.161945
0.143201
0.13388
0.117048
0.108619
0.0932827
0.0855444
0.0713493
0.0641987
0.0511142
0.0446818
0.0332342
0.0278144
0.0185875
0.014332
0.00733906
0.00470073
0.00163361
0.000786326
0.000580636
0.000531718
0.000520684
3.86246
3.85822
3.83937
3.75458
3.71482
3.61155
3.56514
3.4491
3.39375
3.24843
3.09757
3.03675
2.90037
2.84229
2.70427
2.64572
2.50701
2.44853
2.31087
2.25317
2.11817
2.0619
1.93099
1.87671
1.75112
1.69931
1.58003
1.53105
1.41883
1.37294
1.26827
1.22563
1.12878
1.08945
1.00047
0.964448
0.883212
0.850417
0.776678
0.746982
0.680395
0.65364
0.593798
0.569804
0.516264
0.494837
0.447127
0.428012
0.385412
0.367335
0.32457
0.28543
0.270919
0.241562
0.22993
0.204348
0.194156
0.171579
0.162555
0.142492
0.134432
0.116415
0.109128
0.0927118
0.0860207
0.0708203
0.0646364
0.050614
0.0450505
0.0327798
0.0280925
0.018212
0.01453
0.00700685
0.00472465
0.00146173
0.000733499
0.00056745
0.000528498
0.000519735
3.86304
3.86013
3.8463
3.75039
3.72112
3.60609
3.57201
3.44339
3.40308
3.24899
3.08829
3.04394
2.89269
2.85004
2.6965
2.65348
2.49915
2.45619
2.30302
2.26064
2.11043
2.06909
1.92345
1.88357
1.74385
1.70579
1.5731
1.53712
1.41228
1.37857
1.26214
1.23082
1.12309
1.0942
0.995224
0.968765
0.878411
0.854322
0.77231
0.750499
0.676443
0.656791
0.590239
0.572616
0.513075
0.497337
0.444288
0.430254
0.383014
0.369825
0.324166
0.282833
0.272277
0.239787
0.231251
0.202817
0.195332
0.170232
0.163605
0.1413
0.135382
0.115353
0.110001
0.0917509
0.0868366
0.06993
0.0653871
0.049775
0.045687
0.0320218
0.028578
0.0175882
0.0148816
0.00646488
0.00478773
0.00118842
0.00065816
0.000549164
0.00052406
0.00051843
3.86372
3.86248
3.8565
3.74354
3.73083
3.59739
3.58266
3.43415
3.41696
3.24981
3.07436
3.05541
2.88065
2.86223
2.6843
2.6657
2.48683
2.46826
2.29074
2.27241
2.09833
2.08046
1.91167
1.89443
1.73251
1.71605
1.56229
1.54673
1.40208
1.3875
1.2526
1.23906
1.11424
1.10175
0.987074
0.975635
0.870956
0.860542
0.765531
0.756101
0.670311
0.661815
0.58472
0.577101
0.50813
0.501327
0.439886
0.433822
0.379252
0.373611
0.323586
0.279004
0.274511
0.237052
0.233367
0.200447
0.197212
0.168146
0.165281
0.139453
0.136895
0.113702
0.111389
0.090256
0.0881316
0.0685446
0.0665801
0.0484746
0.0467063
0.0308546
0.0293652
0.016633
0.0154615
0.00565326
0.00492764
0.000792323
0.000565954
0.000527513
0.000518838
0.000516897
3.7201
4.05165
4.06225
3.95553
3.93973
3.73227
3.70986
3.48526
3.46033
3.22499
2.9903
2.96538
2.74112
2.71778
2.49542
2.47237
2.25277
2.2301
2.0148
1.99267
1.78355
1.76217
1.56124
1.54082
1.35015
1.3309
1.15243
1.13455
0.97
0.953639
0.804365
0.789643
0.656555
0.64354
0.527036
0.515742
0.415699
0.406088
0.321888
0.313874
0.24447
0.237927
0.181945
0.176718
0.132564
0.128482
0.0944599
0.0913415
0.0657396
0.0633343
0.044009
0.0298062
0.0284925
0.0191876
0.0183682
0.0121215
0.0115801
0.00749928
0.00714938
0.0045587
0.00433857
0.00273586
0.00260064
0.00162978
0.00154825
0.000968658
0.000920083
0.000576386
0.000547543
0.000343181
0.000325943
0.000202692
0.000192298
0.000117952
0.000111614
6.46392e-05
6.21227e-05
6.17e-05
6.16046e-05
6.1583e-05
3.75489
4.02206
4.04573
3.95899
3.9229
3.7456
3.69386
3.49971
3.44132
3.22509
3.00934
2.95096
2.75674
2.7027
2.51077
2.45747
2.26796
2.21553
2.02975
1.97858
1.79812
1.74869
1.57531
1.5281
1.36356
1.31906
1.16506
1.1237
0.981706
0.943867
0.815048
0.780999
0.666139
0.636036
0.535479
0.509357
0.422997
0.400766
0.328071
0.309531
0.249601
0.234462
0.186112
0.174017
0.135874
0.126427
0.0970259
0.0898063
0.0676369
0.0620256
0.0445469
0.0311435
0.0280375
0.0199268
0.0180251
0.0126127
0.0113581
0.00782213
0.0070113
0.00476507
0.00425483
0.00286428
0.00255077
0.00170792
0.00151885
0.00101543
0.000902749
0.000604128
0.000537215
0.000359639
0.000319649
0.000212605
0.000188495
0.000123914
0.000109248
6.89948e-05
6.31399e-05
6.19424e-05
6.16665e-05
6.16038e-05
3.77899
4.0022
4.03363
3.96042
3.91171
3.75391
3.68356
3.50872
3.42862
3.22517
3.02209
2.94197
2.76674
2.69313
2.52057
2.44801
2.27767
2.20629
2.0393
1.96965
1.80745
1.74016
1.58432
1.52006
1.37217
1.31159
1.17317
1.11687
0.989242
0.937731
0.821936
0.775583
0.672329
0.631347
0.540942
0.505377
0.427727
0.397459
0.332086
0.306843
0.252939
0.232325
0.188828
0.172358
0.138035
0.125169
0.0987039
0.0888684
0.0688713
0.0611912
0.0449214
0.0320685
0.0277825
0.0204173
0.0178222
0.0129374
0.0112273
0.00803589
0.00693057
0.00490196
0.00420626
0.0029496
0.00252205
0.00175989
0.001502
0.00104655
0.000892844
0.000622595
0.000531308
0.000370588
0.000316033
0.000219197
0.000186309
0.000127877
0.000107903
7.19733e-05
6.39698e-05
6.21472e-05
6.17191e-05
6.16215e-05
3.79415
3.99001
4.0257
3.96086
3.90487
3.75871
3.67742
3.51393
3.42084
3.22522
3.0299
2.93678
2.77267
2.68751
2.52636
2.44245
2.28341
2.20086
2.04495
1.96441
1.81298
1.73516
1.58967
1.51535
1.37728
1.30723
1.17799
1.11289
0.993725
0.934158
0.82604
0.772437
0.676021
0.628629
0.544206
0.503077
0.430557
0.395553
0.334492
0.305297
0.254942
0.231101
0.190461
0.171411
0.139336
0.124454
0.0997154
0.0883359
0.0696122
0.0606996
0.0451586
0.0326504
0.0276502
0.0207168
0.0177106
0.0131349
0.0111557
0.00816609
0.00688667
0.00498546
0.00418007
0.0030017
0.00250668
0.00179166
0.00149303
0.00106559
0.000887585
0.000633891
0.000528169
0.000377283
0.000314103
0.000223226
0.000185141
0.0001303
0.000107195
7.38329e-05
6.4551e-05
6.22949e-05
6.17573e-05
6.16343e-05
3.80147
3.98422
4.02177
3.96094
3.90163
3.7609
3.67456
3.51631
3.41714
3.22525
3.03362
2.9344
2.77543
2.68491
2.52905
2.43988
2.28607
2.19836
2.04758
1.96199
1.81554
1.73285
1.59215
1.51318
1.37966
1.30522
1.18024
1.11106
0.995815
0.932518
0.827954
0.770994
0.677746
0.627385
0.545731
0.502026
0.431881
0.394684
0.335618
0.304594
0.255882
0.230545
0.191227
0.170982
0.139947
0.124131
0.100191
0.0880957
0.0699594
0.0604722
0.0452737
0.0329313
0.0275948
0.0208588
0.0176615
0.0132284
0.0111242
0.00822771
0.00686752
0.00502501
0.00416872
0.00302641
0.00250005
0.00180673
0.00148919
0.00107463
0.000885334
0.000639254
0.000526825
0.00038046
0.000313273
0.000225138
0.000184638
0.000131449
0.000106893
7.4727e-05
6.48492e-05
6.23721e-05
6.17774e-05
6.16409e-05
3.80147
3.98422
4.02177
3.96094
3.90163
3.7609
3.67456
3.51631
3.41714
3.22525
3.03362
2.9344
2.77543
2.68491
2.52905
2.43988
2.28607
2.19836
2.04758
1.96199
1.81554
1.73285
1.59215
1.51318
1.37966
1.30522
1.18024
1.11106
0.995815
0.932518
0.827955
0.770995
0.677746
0.627386
0.545731
0.502026
0.431881
0.394684
0.335618
0.304594
0.255882
0.230545
0.191227
0.170982
0.139947
0.124131
0.100191
0.0880957
0.0699594
0.0604722
0.0452737
0.0329313
0.0275948
0.0208588
0.0176615
0.0132284
0.0111242
0.00822771
0.00686752
0.00502501
0.00416872
0.00302641
0.00250005
0.00180673
0.00148919
0.00107463
0.000885334
0.000639254
0.000526824
0.00038046
0.000313273
0.000225138
0.000184638
0.000131449
0.000106893
7.4727e-05
6.48492e-05
6.23721e-05
6.17774e-05
6.16408e-05
3.79415
3.99001
4.0257
3.96086
3.90487
3.75871
3.67742
3.51393
3.42084
3.22523
3.02991
2.93678
2.77267
2.68751
2.52636
2.44245
2.28341
2.20086
2.04496
1.96441
1.81298
1.73516
1.58967
1.51535
1.37728
1.30723
1.17799
1.11289
0.993726
0.934159
0.826041
0.772437
0.676022
0.628629
0.544206
0.503077
0.430557
0.395553
0.334492
0.305297
0.254942
0.231101
0.190461
0.171411
0.139336
0.124454
0.0997154
0.0883359
0.0696122
0.0606996
0.0451586
0.0326504
0.0276502
0.0207168
0.0177106
0.0131349
0.0111556
0.00816608
0.00688667
0.00498545
0.00418007
0.0030017
0.00250668
0.00179166
0.00149303
0.00106559
0.000887584
0.000633891
0.000528169
0.000377282
0.000314103
0.000223226
0.000185141
0.0001303
0.000107195
7.38329e-05
6.4551e-05
6.2295e-05
6.17573e-05
6.1634e-05
3.77899
4.00221
4.03363
3.96042
3.91171
3.75391
3.68356
3.50872
3.42862
3.22517
3.02209
2.94198
2.76674
2.69313
2.52057
2.44801
2.27767
2.20629
2.0393
1.96965
1.80745
1.74016
1.58432
1.52006
1.37218
1.31159
1.17317
1.11687
0.989243
0.937731
0.821937
0.775583
0.672329
0.631347
0.540942
0.505378
0.427727
0.397459
0.332086
0.306843
0.252939
0.232325
0.188828
0.172358
0.138035
0.125169
0.0987039
0.0888684
0.0688713
0.0611912
0.0449214
0.0320685
0.0277825
0.0204173
0.0178222
0.0129374
0.0112273
0.00803589
0.00693057
0.00490196
0.00420626
0.0029496
0.00252205
0.00175989
0.001502
0.00104655
0.000892843
0.000622594
0.000531308
0.000370587
0.000316033
0.000219196
0.000186309
0.000127877
0.000107903
7.19733e-05
6.39699e-05
6.21473e-05
6.17191e-05
6.16212e-05
3.75489
4.02206
4.04574
3.95899
3.9229
3.74561
3.69387
3.49971
3.44132
3.22509
3.00935
2.95097
2.75674
2.7027
2.51077
2.45747
2.26797
2.21553
2.02975
1.97858
1.79812
1.74869
1.57531
1.5281
1.36357
1.31906
1.16506
1.1237
0.981707
0.943868
0.815049
0.780999
0.666139
0.636036
0.53548
0.509357
0.422997
0.400766
0.328071
0.309531
0.249601
0.234463
0.186112
0.174017
0.135874
0.126427
0.0970259
0.0898063
0.0676369
0.0620256
0.0445469
0.0311435
0.0280375
0.0199268
0.0180251
0.0126127
0.0113581
0.00782213
0.0070113
0.00476507
0.00425483
0.00286428
0.00255077
0.00170792
0.00151885
0.00101543
0.000902749
0.000604128
0.000537215
0.000359638
0.000319649
0.000212604
0.000188495
0.000123914
0.000109248
6.89948e-05
6.31399e-05
6.19425e-05
6.16665e-05
6.16035e-05
3.7201
4.05165
4.06225
3.95553
3.93973
3.73227
3.70986
3.48526
3.46033
3.22499
2.9903
2.96538
2.74112
2.71778
2.49542
2.47238
2.25277
2.2301
2.0148
1.99267
1.78355
1.76217
1.56124
1.54082
1.35015
1.3309
1.15243
1.13455
0.97
0.953639
0.804366
0.789643
0.656555
0.64354
0.527036
0.515742
0.415699
0.406089
0.321888
0.313874
0.24447
0.237927
0.181945
0.176718
0.132564
0.128482
0.0944599
0.0913415
0.0657396
0.0633343
0.044009
0.0298062
0.0284925
0.0191876
0.0183682
0.0121215
0.0115801
0.00749928
0.00714938
0.0045587
0.00433857
0.00273586
0.00260064
0.00162978
0.00154825
0.000968658
0.000920083
0.000576386
0.000547543
0.000343181
0.000325943
0.000202692
0.000192298
0.000117952
0.000111614
6.46392e-05
6.21227e-05
6.17e-05
6.16046e-05
6.15829e-05
)
;

boundaryField
{