/*--------------------------------*- C++ -*----------------------------------*\
| =========                 |                                                 |
| \\      /  F ield         | OpenFOAM: The Open Source CFD Toolbox           |
|  \\    /   O peration     | Version:  5.x                                   |
|   \\  /    A nd           | Web:      www.OpenFOAM.org                      |
|    \\/     M anipulation  |                                                 |
\*---------------------------------------------------------------------------*/
FoamFile
{
    version     2.0;
    format      ascii;
    class       volScalarField;
    location    "0.3";
    object      gradTy;
}
// * * * * * * * * * * * * * * * * * * * * * * * * * * * * * * * * * * * * * //

dimensions      [0 -1 0 1 0 0 0];

internalField   nonuniform List<scalar> 
6300
(
1359.51
2079.89
2804.34
3535.47
4275.73
5027.32
5792.09
6571.45
7366.25
8176.62
9001.92
9840.58
10690.1
11547.1
12407.3
-2.0644
-6.14685
-10.0864
-13.7762
-17.0942
-19.8986
-22.0275
-23.3035
-23.5441
-22.5805
-20.2831
-16.593
-11.5524
-5.32574
1.79992
-3.49235
-10.4035
-17.0878
-23.3738
-29.0616
-33.9152
-37.6603
-39.9891
-40.5772
-39.1143
-35.3501
-29.1526
-20.5695
-9.87352
2.42821
-4.99389
-14.887
-24.4872
-33.5689
-41.8621
-49.0394
-54.7082
-58.4141
-59.66
-57.9481
-52.8489
-44.0971
-31.6991
-16.0266
2.14955
-6.58968
-19.6629
-32.4047
-44.5517
-55.7777
-65.6709
-73.7179
-79.2981
-81.6996
-80.1681
-73.9997
-62.687
-46.1032
-24.6845
0.470994
-8.29145
-24.7694
-40.9158
-56.4542
-71.0242
-84.1467
-95.1922
-103.358
-107.67
-107.022
-100.293
-86.5461
-65.3405
-37.0777
-3.26017
-10.0982
-30.2072
-50.0341
-69.3239
-87.7166
-104.698
-119.543
-131.27
-138.597
-139.956
-133.601
-117.863
-91.6346
-55.0267
-9.99838
-11.9921
-35.926
-59.6878
-83.0883
-105.818
-127.38
-147.01
-163.578
-175.486
-180.601
-176.286
-159.667
-128.307
-81.3973
-21.2387
-13.9357
-41.8157
-69.7007
-97.5209
-125.083
-151.99
-177.535
-200.54
-219.163
-230.671
-231.271
-216.21
-180.528
-121.02
-39.5521
-15.8702
-47.6989
-79.7761
-112.209
-144.998
-177.959
-210.593
-241.876
-269.948
-291.641
-301.912
-293.369
-256.575
-182.607
-69.8629
-17.716
-53.3321
-89.4936
-126.536
-164.736
-204.25
-244.993
-286.418
-327.102
-364.023
-391.359
-398.775
-369.796
-282.975
-123.031
-19.377
-58.4182
-98.3275
-139.701
-183.155
-229.303
-278.703
-331.69
-388.01
-445.98
-500.717
-540.566
-540.855
-456.467
-227.725
-20.75
-62.6343
-105.693
-150.783
-198.872
-251.098
-308.816
-373.619
-447.253
-531.157
-624.947
-721.903
-796.578
-774.299
-476.803
-21.7378
-65.6736
-111.025
-158.858
-210.446
-267.393
-331.831
-406.704
-496.21
-606.431
-745.99
-925.498
-1149.23
-1367.32
-1235.31
-22.2648
-67.295
-113.871
-163.175
-216.651
-276.187
-344.399
-425.141
-524.436
-652.345
-827.059
-1084.84
-1507.47
-2310.4
-4175.86
13194.4
13905.6
14609.4
15302.8
15983.1
16647.8
17294.7
17921.9
18528.1
19112
19672.9
20210.1
20723.3
21212.4
21677.4
22118.5
22535.9
22930
23301.3
23650.2
23977.3
24283.1
24568.3
24833.5
25079.2
25306.1
25514.8
25705.8
25879.6
26036.8
26177.8
26302.9
26412.6
26507.2
26586.9
26652.1
26702.8
26739.2
26761.4
26769.6
26763.5
26743.3
26708.8
26660
26596.5
26518.2
26424.8
26315.9
26191.3
26050.4
25892.8
25718.1
25525.7
25315.2
25085.9
24837.3
24569
24280.3
23970.8
23640.1
23287.8
22913.4
22516.8
22097.7
21656.1
21192
20705.5
20197.2
19667.5
19117.2
18547.5
17959.5
17354.9
16735.5
16103.4
15460.8
14810.3
14154.3
13495.8
12837.3
12181.8
11531.9
10890.3
10259.4
9641.6
9038.94
8453.25
7886.04
7338.46
6811.35
8.80262
15.2494
21.5299
27.4255
32.7635
37.4266
41.3541
44.536
47.0028
48.8131
50.0414
50.7681
51.0716
51.0233
50.6849
50.1084
49.337
48.4068
47.3488
46.1909
44.9591
43.6785
42.3731
41.0657
39.7775
38.5274
37.3313
36.2023
35.1503
34.1824
33.3031
32.5152
31.8204
31.2194
30.7128
30.3011
29.9849
29.7652
29.6428
29.619
29.6946
29.8707
30.1475
30.5253
31.0033
31.5801
32.2526
33.0166
33.8658
34.7915
35.783
36.8271
37.9085
39.0103
40.1139
41.2001
42.2489
43.2398
44.1517
44.9619
45.6453
46.1734
46.5126
46.624
46.4627
45.9787
45.1188
43.8294
42.0611
39.7729
36.9372
33.5441
29.6045
25.1509
20.2369
14.9347
9.33137
3.52365
-2.38622
-8.2944
-14.098
-19.6963
-24.9908
-29.885
-34.2854
-38.103
-41.2581
-43.6866
-45.3466
-46.2248
14.5376
25.6737
36.4889
46.5901
55.6741
63.5432
70.1054
75.3604
79.3787
82.2769
84.1959
85.2821
85.6741
85.4946
84.8475
83.8178
82.4745
80.8746
79.0668
77.0955
75.0031
72.8306
70.6187
68.4062
66.2294
64.1205
62.1066
60.2095
58.4451
56.8246
55.3548
54.0395
52.8802
51.8779
51.0328
50.3456
49.8173
49.4495
49.2439
49.2026
49.3273
49.6197
50.081
50.7115
51.5106
52.4761
53.6039
54.887
56.3155
57.8752
59.5482
61.3122
63.1413
65.0063
66.8758
68.717
70.4968
72.1814
73.7365
75.1259
76.3098
77.2423
77.8691
78.1254
77.9353
77.2126
75.8636
73.7928
70.9099
67.1392
62.428
56.7553
50.137
42.6285
34.3233
25.3481
15.8551
6.01309
-4.0016
-14.0119
-23.8445
-33.3313
-42.3081
-50.6135
-58.0877
-64.576
-69.9357
-74.0489
-76.836
-78.2695
20.0922
36.5648
52.4811
67.2255
80.3404
91.5489
100.747
107.975
113.376
117.16
119.559
120.806
121.109
120.649
119.571
117.989
115.992
113.652
111.031
108.186
105.173
102.051
98.8764
95.7068
92.5952
89.5885
86.7259
84.0376
81.5452
79.2625
77.197
75.3518
73.7274
72.3232
71.139
70.175
69.4327
68.9145
68.6231
68.5618
68.7336
69.1411
69.7866
70.6711
71.7947
73.1554
74.7486
76.5658
78.594
80.8141
83.2008
85.7226
88.3415
91.0151
93.6978
96.3422
98.9015
101.329
103.58
105.606
107.356
108.771
109.778
110.289
110.194
109.368
107.667
104.945
101.057
95.8789
89.3226
81.3472
71.9704
61.2725
49.3938
36.5266
22.9014
8.77145
-5.60266
-19.9644
-34.0681
-47.6795
-60.5715
-72.5184
-83.2902
-92.6547
-100.389
-106.302
-110.257
-112.205
25.4126
48.2545
70.1586
90.2053
107.75
122.449
134.226
143.219
149.707
154.04
156.587
157.691
157.648
156.699
155.026
152.763
150.009
146.841
143.324
139.524
135.508
131.353
127.134
122.931
118.817
114.857
111.102
107.592
104.352
101.396
98.7309
96.3553
94.2666
92.4614
90.9375
89.6948
88.7354
88.0626
87.681
87.5955
87.8106
88.3304
89.1583
90.2971
91.748
93.5107
95.5814
97.9518
100.607
103.524
106.67
110.003
113.473
117.021
120.584
124.099
127.504
130.74
133.753
136.489
138.891
140.892
142.408
143.327
143.51
142.783
140.945
137.777
133.062
126.605
118.262
107.959
95.7083
81.6191
65.8909
48.8007
30.6799
11.888
-7.21336
-26.2789
-44.9895
-63.0508
-80.1824
-96.1009
-110.504
-123.066
-133.452
-141.356
-146.554
-148.949
30.4933
61.2957
90.5113
116.788
139.26
157.556
171.715
182.075
189.145
193.5
195.699
196.234
195.502
193.802
191.341
188.256
184.636
180.544
176.039
171.184
166.06
160.759
155.385
150.043
144.834
139.845
135.142
130.773
126.765
123.129
119.864
116.963
114.415
112.212
110.349
108.825
107.644
106.81
106.332
106.216
106.469
107.096
108.103
109.494
111.274
113.444
116.005
118.95
122.265
125.926
129.892
134.111
138.516
143.028
147.564
152.038
156.372
160.495
164.346
167.872
171.021
173.73
175.911
177.443
178.151
177.812
176.149
172.849
167.585
160.059
150.035
137.384
122.104
104.336
84.3597
62.5695
39.4368
15.4636
-8.86003
-33.0867
-56.8257
-79.7384
-101.516
-121.839
-140.341
-156.581
-170.058
-180.28
-186.856
-189.608
35.401
76.6162
115.089
148.84
176.773
198.605
214.663
225.657
232.481
236.054
237.201
236.597
234.748
231.997
228.552
224.519
219.943
214.847
209.26
203.239
196.873
190.278
183.596
176.972
170.544
164.429
158.712
153.445
148.654
144.339
140.487
137.075
134.081
131.488
129.288
127.478
126.067
125.063
124.477
124.322
124.604
125.332
126.512
128.15
130.254
132.832
135.892
139.432
143.445
147.905
152.768
157.968
163.42
169.017
174.646
180.193
185.557
190.652
195.417
199.807
203.79
207.328
210.351
212.738
214.293
214.737
213.699
210.732
205.349
197.087
185.57
170.571
152.056
130.206
105.414
78.2446
49.3779
19.5195
-10.6677
-40.6144
-69.8645
-98.0691
-124.944
-150.197
-173.429
-194.058
-211.335
-224.432
-232.642
-235.616
40.3832
95.8741
146.453
189.25
223.048
247.943
264.87
275.206
280.465
282.068
281.192
278.724
275.264
271.165
266.585
261.542
255.981
249.838
243.092
235.781
228.004
219.918
211.718
203.614
195.803
188.441
181.633
175.434
169.859
164.888
160.482
156.593
153.178
150.208
147.672
145.57
143.915
142.725
142.017
141.81
142.112
142.932
144.275
146.149
148.566
151.543
155.1
159.25
163.995
169.316
175.17
181.477
188.126
194.971
201.854
208.62
215.132
221.288
227.024
232.321
237.19
241.65
245.684
249.2
252.001
253.755
253.977
252.036
247.198
238.735
226.043
208.74
186.727
160.227
129.799
96.2726
60.6544
23.957
-12.9108
-49.2298
-84.4873
-118.384
-150.769
-181.518
-210.301
-236.391
-258.648
-275.628
-285.967
-288.958
46.1134
122.184
188.999
242.586
282.115
308.714
324.522
332.014
333.658
331.593
327.418
322.224
316.644
310.977
305.237
299.268
292.812
285.661
277.704
268.96
259.552
249.698
239.679
229.816
220.4
211.642
203.665
196.517
190.187
184.619
179.729
175.425
171.632
168.306
165.433
163.023
161.1
159.696
158.846
158.571
158.884
159.789
161.284
163.375
166.08
169.43
173.464
178.221
183.723
189.97
196.925
204.501
212.553
220.874
229.232
237.408
245.213
252.516
259.247
265.428
271.149
276.55
281.716
286.639
291.152
294.903
297.284
297.415
294.162
286.353
273.033
253.555
227.714
195.756
158.49
117.155
73.3252
28.4806
-16.101
-59.5257
-101.214
-141.011
-179.073
-215.777
-251.144
-284.322
-313.616
-336.433
-349.901
-352.549
54.4261
161.798
250.561
316.132
359.771
384.997
396.12
397.209
392.153
384.116
375.072
366.241
358.114
350.857
344.188
337.667
330.617
322.622
313.428
303.078
291.725
279.701
267.406
255.364
244.045
233.712
224.503
216.421
209.421
203.375
198.139
193.527
189.424
185.761
182.539
179.784
177.548
175.887
174.858
174.501
174.822
175.811
177.451
179.735
182.685
186.347
190.806
196.134
202.396
209.62
217.802
226.856
236.606
246.737
256.882
266.737
276.024
284.567
292.257
299.183
305.551
311.762
318.062
324.627
331.349
337.968
343.764
347.594
347.604
341.817
328.788
307.424
277.39
238.809
192.915
141.507
87.3358
32.5085
-21.0689
-72.4262
-120.763
-166.224
-209.407
-252.025
-295.191
-337.885
-377.935
-410.708
-429.417
-430.928
70.8102
228.188
345.496
421.225
463.919
481.574
482.169
471.257
454.955
438.101
422.435
409.264
398.35
389.918
382.952
376.858
369.817
361.344
350.851
338.676
324.903
310.129
294.806
279.907
266.304
254.198
243.755
234.803
227.318
221.005
215.689
210.934
206.619
202.62
199.013
195.836
193.208
191.206
189.943
189.492
189.838
190.934
192.73
195.177
198.303
202.158
206.94
212.742
219.729
227.933
237.47
248.253
260.159
272.624
284.997
296.93
307.946
317.887
326.402
333.773
340.204
346.867
354.046
362.404
371.707
382.23
393.086
403.281
409.397
407.713
396.548
373.779
339.373
292.393
235.283
169.845
102.31
34.7655
-29.1926
-89.6229
-144.387
-194.64
-240.472
-287.389
-339.819
-395.148
-452.624
-505.124
-533.588
-531.739
114.311
352.268
500.292
573.862
604.082
602.668
584.74
553.022
518.505
490.335
466.163
449.002
434.978
426.835
420.434
417.387
411.059
402.96
390.685
376.569
359.514
341.347
321.597
302.584
286.414
272.296
260.867
251.083
243.539
237.213
232.443
227.726
223.377
218.932
214.889
211.121
207.988
205.486
203.883
203.364
203.799
205.077
207.101
209.67
212.9
216.662
221.636
227.674
235.339
244.356
255.374
268.064
282.937
298.674
313.773
328.467
341.439
353.278
362.209
369.723
374.525
381.219
388.315
398.794
410.272
425.965
443.3
464.775
482.343
487.175
480.918
456.786
419.347
360.444
289.517
201.072
117.167
31.7307
-42.5186
-115.092
-174.61
-229.509
-270.048
-314.868
-380.304
-449.335
-534.476
-634.136
-681.385
-668.938
262.893
605.825
762.267
788.888
789.75
747.485
707.104
638.751
572.851
536.744
499.732
484.161
463.079
461.19
453.037
462.6
454.812
450.559
433.141
418.671
395.708
374.832
347.312
321.159
303.561
286.517
275.609
264.139
258.007
251.185
249.13
244
240.284
234.681
230.385
225.507
221.881
218.49
216.284
215.882
216.569
218.171
220.71
223.237
226.758
229.448
234.824
240.288
249.028
257.925
270.897
284.756
304.498
325.667
343.161
362.509
376.583
392.874
400.065
409.578
406.108
414.973
417.672
433.7
442.701
467.26
487.463
531.798
573.512
582.479
590.885
558.796
530.057
445.621
368.781
225.558
134.023
12.3863
-58.4521
-159.537
-211.651
-285.201
-293.587
-312.763
-415.696
-480.387
-595.442
-838.614
-915.116
-868.097
885.956
1127.87
1211.12
1040.94
1037.46
889.54
869.699
720.904
584.255
584.423
502.391
527.229
463.516
504.548
460.115
532.797
493.474
517.122
471.362
473.02
428.914
417.903
371.076
327.434
319.929
291.923
291.183
269.53
273.497
258.32
270.277
258.269
259.943
248.583
246.754
238.125
235.472
229.825
226.123
226.873
228.063
229.955
234.376
235.416
241.852
238.408
247.929
248.224
262.535
265.669
285.189
293.024
324.054
358.004
369.932
404.202
408.584
445.621
434.615
468.162
419.943
457.611
427.825
478.707
452.693
514.788
496.824
602.541
711.78
678.518
759.081
655.874
720.852
519.72
543.492
175.463
194.083
-80.236
-30.9451
-274.586
-217.891
-434.769
-301.62
-190.068
-506.138
-438.885
-471.854
-1282.96
-1326.56
-1175.57
3937.53
1878.33
2024.81
1052.88
1493.1
847.077
1217.91
785.493
398.573
750.402
351.096
697.751
313.064
670.93
298.508
764.251
441.438
683.622
441.292
593.27
414.462
512.554
390.259
281.674
365.825
258.072
336.882
238.04
316.571
226.4
325.955
252.859
298.399
248.787
272.942
242.17
253.404
238.393
229.582
237.267
238.579
238.135
252.951
239.862
271.214
228.734
274.358
236.015
292.176
249.852
316.347
267.931
339.453
422.106
364.583
488.988
393.613
567.602
405.044
644.52
310.104
597.374
321.789
634.409
335.747
677.534
327.996
668.122
1055.17
610.534
1191.77
510.595
1294.66
269.737
1282.16
-431.646
675.732
-639.078
418.171
-822.292
169.657
-1088.49
-278.666
548.285
-1148.61
-253.088
772.234
-2832.33
-2018.04
-1683.69
6254.5
5677.28
5129.74
4610.76
4118.71
3651.58
3207.14
2782.98
2376.62
1985.56
1607.33
1239.5
879.684
525.549
174.807
-46.3499
-45.4604
-43.6788
-41.1715
-38.1158
-34.6801
-31.0112
-27.2268
-23.4141
-19.6315
-15.9125
-12.2704
-8.70258
-5.19531
-1.72725
-78.3912
-76.7578
-73.6028
-69.2276
-63.9478
-58.0586
-51.8126
-45.4081
-38.9886
-32.6471
-26.4344
-20.3671
-14.4362
-8.6148
-2.86356
-112.188
-109.567
-104.739
-98.1809
-90.3824
-81.7882
-72.7671
-63.5997
-54.4808
-45.5306
-36.808
-28.325
-20.059
-11.9632
-3.97543
-148.573
-144.571
-137.592
-128.364
-117.603
-105.937
-93.8613
-81.7368
-69.7993
-58.182
-46.9384
-36.0631
-25.5094
-15.2024
-5.04997
-188.528
-182.528
-172.674
-160.061
-145.715
-130.482
-114.994
-99.6783
-84.7904
-70.4538
-56.6955
-43.4758
-30.7102
-18.2855
-6.07144
-233.28
-224.313
-210.491
-193.469
-174.693
-155.265
-135.941
-117.181
-99.2209
-82.1395
-65.9079
-50.4297
-35.5667
-21.156
-7.02111
-284.436
-270.936
-251.484
-228.607
-204.298
-179.923
-156.306
-133.868
-112.761
-92.966
-74.3595
-56.7628
-39.9669
-23.7482
-7.87738
-344.161
-323.506
-295.89
-265.158
-233.948
-203.802
-175.47
-149.207
-124.977
-102.592
-81.7925
-62.2886
-43.7852
-25.99
-8.61666
-415.373
-383.025
-343.398
-302.171
-262.516
-225.844
-192.547
-162.495
-135.332
-110.621
-87.9198
-66.8065
-46.89
-27.8069
-9.21488
-501.877
-449.751
-392.453
-337.576
-288.071
-244.487
-206.355
-172.876
-143.218
-116.627
-92.4481
-70.1193
-49.1558
-29.1292
-9.64974
-607.882
-521.594
-439.031
-367.564
-307.667
-257.647
-215.484
-179.413
-148.02
-120.207
-95.1143
-72.0581
-50.4787
-29.9007
-9.90348
-733.52
-589.665
-474.469
-385.936
-317.349
-262.917
-218.496
-181.248
-149.224
-121.052
-95.7319
-72.511
-50.7937
-30.0879
-9.96568
-856.083
-628.988
-483.178
-384.312
-312.836
-258.142
-214.306
-177.838
-146.558
-119.027
-94.2385
-71.4511
-50.0907
-29.6875
-9.83578
-857.089
-586.938
-444.874
-355.246
-291.498
-242.475
-202.72
-169.214
-140.125
-114.245
-90.7314
-68.9549
-48.4239
-28.7319
-9.52445
-22.3272
-67.4833
-114.188
-163.628
-217.256
-276.972
-345.424
-426.528
-526.445
-655.58
-833.048
-1097.74
-1538.9
-2389.3
-4329.78
-21.9996
-66.4676
-112.38
-160.83
-213.137
-270.986
-336.65
-413.343
-505.802
-621.238
-770.764
-970.531
-1236.23
-1532.61
-1464.29
-21.346
-64.4477
-108.806
-155.351
-205.165
-259.566
-320.208
-389.2
-469.188
-563.204
-673.569
-797.518
-912.219
-929.12
-585.067
-20.4073
-61.5538
-103.71
-147.596
-194.003
-243.806
-297.959
-357.41
-422.82
-493.799
-566.915
-630.9
-656.114
-576.261
-279.488
-19.2378
-57.9572
-97.41
-138.088
-180.477
-225.019
-272.024
-321.472
-372.577
-422.9
-466.585
-491.178
-472.952
-374.032
-155.986
-17.8985
-53.85
-90.2566
-127.389
-165.452
-204.515
-244.385
-284.373
-322.867
-356.602
-379.508
-381.181
-345.812
-254.523
-97.7045
-16.4514
-49.4252
-82.5968
-116.041
-149.728
-183.444
-216.658
-248.304
-276.45
-297.813
-307.168
-296.903
-257.491
-180.513
-66.2196
-14.9544
-44.8619
-74.7458
-104.52
-133.98
-162.719
-190.015
-214.659
-234.734
-247.352
-248.443
-232.858
-195.247
-132.413
-47.3339
-13.4579
-40.3136
-66.9686
-93.2161
-118.73
-142.993
-165.209
-184.181
-198.191
-204.886
-201.292
-184.104
-150.514
-99.7576
-35.1053
-12.0027
-35.9038
-59.4724
-82.4188
-104.345
-124.686
-142.651
-157.147
-166.723
-169.559
-163.574
-146.735
-117.699
-76.7486
-26.7358
-10.6194
-31.7237
-52.4066
-72.328
-91.0564
-108.027
-122.5
-133.526
-139.931
-140.356
-133.388
-117.832
-93.1552
-60.0308
-20.7678
-9.32943
-27.8353
-45.8679
-63.0636
-78.9863
-93.0989
-104.74
-113.111
-117.289
-116.284
-109.162
-95.2605
-74.4753
-47.5743
-16.3773
-8.14536
-24.2748
-39.9091
-54.6814
-68.1708
-79.8845
-89.2475
-95.604
-98.2428
-96.4558
-89.6428
-77.4666
-60.0407
-38.0999
-13.068
-7.07308
-21.0573
-34.5477
-47.1885
-58.5862
-68.3002
-75.8403
-80.6766
-82.268
-80.1157
-73.8453
-63.3163
-48.7399
-30.7711
-10.5252
-6.11301
-18.1822
-29.7754
-40.5574
-50.1692
-58.2236
-64.3084
-68.0001
-68.8907
-66.6332
-61.0033
-51.975
-39.7934
-25.0228
-8.54081
-5.26168
-15.6371
-25.5654
-34.7378
-42.8322
-49.5128
-54.4366
-57.2668
-57.6977
-55.4906
-50.5196
-42.822
-32.6438
-20.4623
-6.97256
-4.51293
-13.4021
-21.8796
-29.6658
-36.4756
-42.0207
-46.017
-48.198
-48.335
-46.2659
-41.9277
-35.3906
-26.8845
-16.8097
-5.72035
-3.85894
-11.4526
-18.6733
-25.2711
-30.9962
-35.6029
-38.8568
-40.547
-40.5029
-38.6156
-34.8617
-29.3253
-22.2139
-13.8611
-4.71194
-3.29108
-9.76189
-15.899
-21.4815
-26.2926
-30.1235
-32.7814
-34.0992
-33.9496
-32.2605
-29.0326
-24.3529
-18.4046
-11.4653
-3.89415
-2.80046
-8.3026
-13.5093
-18.2272
-22.2688
-25.4579
-27.6356
-28.6696
-28.4642
-26.9732
-24.2106
-20.2609
-15.283
-9.50785
-3.22706
-2.37835
-7.04821
-11.4588
-15.4418
-18.8364
-21.4939
-23.2834
-24.0997
-23.8709
-22.568
-20.2125
-16.8824
-12.7146
-7.90126
-2.68023
-2.01647
-5.97364
-9.70492
-13.0647
-15.9154
-18.1319
-19.6064
-20.2548
-20.0229
-18.8932
-16.8904
-14.0851
-10.5942
-6.57756
-2.23017
-1.70716
-5.05577
-8.20873
-11.0407
-13.4345
-15.2847
-16.5026
-17.0206
-16.7977
-15.8242
-14.1252
-11.7635
-8.83849
-5.48339
-1.85846
-1.44344
-4.27363
-6.9352
-9.32073
-11.3305
-12.8762
-13.8842
-14.3004
-14.0934
-13.2584
-11.8199
-9.83272
-7.38122
-4.57645
-1.55058
-1.21905
-3.60846
-5.85316
-7.86141
-9.54864
-10.8406
-11.6766
-12.0126
-11.8248
-11.1114
-9.89536
-8.22409
-6.16908
-3.82292
-1.29492
-1.02845
-3.04367
-4.93517
-6.6248
-8.04097
-9.12137
-9.8157
-10.0883
-9.92071
-9.31326
-8.2866
-6.88171
-5.15894
-3.19557
-1.08218
-0.866752
-2.56472
-4.15723
-5.57791
-6.76625
-7.66999
-8.24741
-8.46949
-8.32181
-7.80594
-6.94026
-5.7599
-4.31573
-2.6723
-0.904811
-0.729713
-2.15892
-3.4985
-4.69221
-5.68898
-6.44501
-6.92565
-7.10719
-6.97835
-6.54132
-5.81225
-4.82112
-3.61077
-2.23512
-0.75667
-0.61364
-1.81529
-2.94098
-3.94313
-4.77874
-5.41109
-5.81139
-5.96024
-5.84873
-5.47931
-4.86606
-4.03445
-3.02051
-1.86927
-0.632734
-0.515347
-1.52437
-2.46917
-3.30961
-4.00951
-4.53815
-4.8716
-4.99391
-4.89805
-4.58648
-4.07136
-3.37429
-2.5255
-1.5626
-0.528872
-0.432092
-1.27799
-2.06975
-2.77358
-3.3591
-3.80064
-4.07829
-4.17895
-4.09702
-3.83487
-3.40292
-2.81939
-2.10965
-1.30508
-0.441671
-0.36152
-1.06919
-1.73134
-2.31962
-2.8086
-3.17682
-3.40777
-3.49067
-3.42104
-3.20106
-2.83963
-2.35207
-1.7596
-1.08837
-0.368304
-0.301612
-0.891958
-1.44418
-1.93457
-2.34187
-2.64823
-2.83997
-2.90821
-2.84937
-2.6654
-2.36384
-1.95754
-1.46419
-0.905538
-0.306415
-0.250637
-0.741174
-1.19993
-1.60715
-1.94517
-2.19917
-2.35786
-2.41393
-2.36451
-2.21133
-1.96072
-1.62341
-1.21409
-0.750788
-0.254038
-0.207113
-0.61244
-0.991434
-1.32774
-1.60675
-1.81625
-1.94693
-1.99283
-1.95164
-1.82485
-1.61775
-1.33924
-1.00145
-0.61924
-0.209518
-0.169762
-0.501974
-0.812555
-1.08808
-1.31657
-1.48802
-1.59483
-1.63215
-1.59815
-1.49409
-1.32434
-1.0962
-0.819632
-0.506777
-0.171461
-0.137483
-0.406516
-0.657999
-0.881044
-1.06595
-1.20462
-1.29093
-1.32096
-1.29327
-1.2089
-1.07143
-0.886769
-0.662984
-0.409899
-0.138679
-0.109319
-0.323234
-0.523174
-0.700472
-0.847415
-0.957568
-1.02607
-1.04983
-1.02771
-0.960564
-0.851249
-0.704481
-0.526665
-0.325604
-0.110158
-0.0844335
-0.249648
-0.404056
-0.540961
-0.654401
-0.739412
-0.792242
-0.810521
-0.793377
-0.741487
-0.657055
-0.543736
-0.406473
-0.251288
-0.0850137
-0.062082
-0.183558
-0.297082
-0.397728
-0.481112
-0.543584
-0.58239
-0.595793
-0.583157
-0.544985
-0.482905
-0.399603
-0.298715
-0.184666
-0.0624739
-0.0415954
-0.122984
-0.199044
-0.266472
-0.32233
-0.364176
-0.390163
-0.39913
-0.390654
-0.365072
-0.323478
-0.267672
-0.200089
-0.123694
-0.0418462
-0.022359
-0.0661086
-0.106994
-0.143242
-0.173271
-0.19577
-0.209744
-0.21457
-0.210018
-0.19627
-0.173911
-0.14391
-0.107577
-0.0665039
-0.0224988
-0.00379425
-0.0112198
-0.0181633
-0.0243252
-0.029438
-0.0332777
-0.0356736
-0.0365162
-0.0357629
-0.0334409
-0.0296468
-0.0245435
-0.0183534
-0.0113488
-0.00383984
0.0146574
0.0433344
0.0701254
0.0938632
0.113512
0.128212
0.137319
0.14043
0.137403
0.128366
0.113709
0.0940692
0.0703049
0.0434563
0.0147005
0.0335516
0.0991971
0.160532
0.214888
0.259895
0.293583
0.314472
0.321634
0.314739
0.294072
0.260521
0.215543
0.161103
0.0995843
0.0336885
0.0534569
0.15805
0.255781
0.342399
0.414129
0.467833
0.501147
0.51259
0.50163
0.468716
0.41526
0.343582
0.256811
0.158749
0.0537042
0.074972
0.221664
0.358739
0.480239
0.58087
0.656228
0.702995
0.719087
0.703752
0.657611
0.582641
0.482091
0.360352
0.222759
0.0753592
0.0987431
0.291951
0.472503
0.632558
0.765144
0.864458
0.926125
0.947388
0.927247
0.866508
0.767767
0.635301
0.474892
0.293572
0.0993167
0.125483
0.371017
0.600487
0.803934
0.9725
1.09881
1.17728
1.20441
1.17891
1.10177
0.976291
0.807898
0.603939
0.37336
0.126311
0.15599
0.461229
0.746524
0.999509
1.20917
1.36634
1.46407
1.49796
1.46638
1.37057
1.21459
1.00517
0.751453
0.464574
0.157174
0.191175
0.565276
0.914977
1.22514
1.48227
1.67511
1.79514
1.83692
1.79842
1.68112
1.48995
1.23317
0.921975
0.570026
0.192855
0.232081
0.686253
1.11086
1.48755
1.79996
2.03441
2.18049
2.23158
2.18514
2.04291
1.81084
1.49893
1.12077
0.692977
0.23446
0.279919
0.827739
1.33999
1.79457
2.17175
2.45501
2.63175
2.6939
2.63832
2.46702
2.18713
1.81065
1.35399
0.837244
0.283282
0.336096
0.993902
1.60912
2.15528
2.6087
2.9495
3.1625
3.23789
3.17179
2.96648
2.63042
2.178
1.62891
1.00733
0.340846
0.402255
1.18961
1.92617
2.58034
3.12378
3.53266
3.78872
3.88005
3.80184
3.55664
3.15445
2.61242
1.95411
1.20857
0.408962
0.480314
1.42055
2.30039
3.0822
3.7322
4.22186
4.52921
4.63984
4.54773
4.25571
3.77551
3.1275
2.33984
1.44732
0.489785
0.572522
1.69339
2.74262
3.67552
4.45185
5.03755
5.40618
5.54029
5.43233
5.08532
4.513
3.73947
2.79831
1.73118
0.585892
0.681506
2.01591
3.26557
4.37746
5.30377
6.00382
6.44586
6.60867
6.48277
6.07126
5.39009
4.46773
3.34418
2.06928
0.700381
0.810332
2.39724
3.88409
5.20815
6.31266
7.14908
7.67926
7.87735
7.73137
7.24429
6.43451
5.33558
3.99507
2.47257
0.83698
0.962577
2.84799
4.61554
6.19115
7.50753
8.5068
9.14306
9.38475
9.21662
8.6412
7.67955
6.37105
4.77221
2.95434
1.0002
1.14239
3.38051
5.48014
7.354
8.9224
10.1164
10.8806
11.1765
10.9844
10.3061
9.16522
7.60796
5.70132
3.53065
1.1955
1.35458
4.0091
6.50136
8.72875
10.597
12.024
12.9431
13.3067
13.0896
12.2918
10.9398
9.08726
6.81363
4.22108
1.42957
1.60467
4.75025
7.70635
10.3526
12.5778
14.2841
15.391
15.8397
15.5978
14.6621
13.0617
10.8587
8.1472
5.04954
1.71055
1.89899
5.62286
9.12628
12.2685
14.9187
16.9601
18.2954
18.852
18.5872
17.4935
15.6016
12.983
9.7487
6.04545
2.0485
2.24471
6.6484
10.7968
14.5258
17.6818
20.1258
21.74
22.434
22.1519
20.8786
18.6457
15.5345
11.6756
7.24516
2.45585
2.6499
7.85107
12.7581
17.1808
20.9388
23.8673
25.8231
26.6934
26.4042
24.9295
22.2993
18.6046
13.999
8.69387
2.94812
3.12351
9.2578
15.0553
20.2967
24.7714
28.2834
30.6592
31.7571
31.4789
29.7822
26.6914
22.3069
16.8078
10.4483
3.54482
3.67531
10.8981
17.7384
23.9445
29.2717
33.4878
36.3818
37.7755
37.5378
35.602
31.9812
26.7825
20.2136
12.5802
4.2707
4.31578
12.8038
20.8612
28.2019
34.5428
39.6094
43.1454
44.9255
44.775
42.5909
38.3658
32.2088
24.358
15.1812
5.1575
5.05579
15.0081
24.4813
33.1528
40.6977
46.7929
51.1268
53.415
53.423
50.9959
46.091
38.8103
29.4226
18.3698
6.24646
5.90629
17.5446
28.6574
38.8851
47.8581
55.1981
60.5275
63.4864
63.7606
61.12
55.4648
46.8737
35.6428
22.3014
7.59189
6.8776
20.4457
33.4472
45.4876
56.151
64.998
71.5726
75.4203
76.1205
73.3358
66.8758
56.769
43.3276
27.1823
9.26649
7.97864
23.7396
38.9034
53.0452
65.7037
76.374
84.5093
89.5377
90.8983
88.1017
80.8173
68.9786
52.8888
33.292
11.3694
9.2158
27.4476
45.0681
61.6312
76.6353
89.5081
99.6011
106.2
108.56
105.982
97.9193
84.1384
64.884
41.0161
14.0389
10.5914
31.5792
51.9659
71.298
89.0446
104.57
117.117
125.802
129.649
127.667
118.99
103.097
80.0813
50.8982
17.4725
12.1022
36.1274
59.5944
82.0639
102.994
121.698
137.31
148.76
154.784
153.998
145.068
126.999
99.5594
63.7254
21.9608
13.7373
41.0621
67.9141
93.8965
118.486
140.97
160.391
175.481
184.642
185.982
177.488
157.406
124.864
80.6696
27.9465
15.4758
46.3241
76.8356
106.694
135.435
162.367
186.474
206.316
219.928
224.79
217.951
196.461
158.258
103.534
36.1328
17.2857
51.8185
86.2085
120.265
153.638
185.719
215.515
241.472
261.284
271.717
268.584
247.117
203.121
135.199
47.6962
19.1219
57.4108
95.8107
134.307
172.733
210.655
247.216
280.889
309.147
328.058
331.94
313.413
264.594
180.458
64.7368
20.9261
62.9244
105.343
148.396
192.172
236.531
280.916
324.06
363.493
394.829
410.849
400.735
350.586
247.647
91.3251
22.6283
68.1444
114.432
161.978
211.203
262.382
315.472
369.799
423.451
472.226
507.895
515.847
473.225
351.899
136.194
24.1498
72.8267
122.644
174.39
228.873
286.898
349.163
415.997
486.787
558.71
624.174
666.066
650.507
521.68
220.423
25.4086
76.715
129.515
184.896
244.077
308.465
379.67
459.439
549.323
649.662
756.806
856.159
906.428
811.188
401.584
26.3272
79.5638
134.591
192.757
255.659
325.29
404.222
495.843
604.584
735.869
894.824
1080.31
1263.37
1318.98
856.042
26.8408
81.1671
137.485
197.325
262.564
335.648
419.951
520.347
644.171
802.84
1014.39
1306.12
1708.78
2186.85
2177.94
26.9061
81.3852
137.929
198.141
264.014
338.206
424.494
528.567
659.542
833.064
1078.24
1454.87
2101.78
3392.83
6518.48
26.5077
80.1676
135.823
195.021
259.68
332.358
416.676
518.09
645.347
813.502
1050.78
1415.87
2047.4
3324.69
6464.85
25.6609
77.5626
131.254
188.103
249.773
318.417
396.975
489.653
602.73
745.918
934.526
1191.83
1544.5
1962.78
1952.64
24.4109
73.7131
124.489
177.833
235.018
297.585
367.459
447.036
539.186
646.772
770.543
901.541
995.995
898.352
145.33
-544.102
-441.621
-365.263
-306.48
-259.331
-220.183
-186.754
-157.536
-131.485
-107.843
-86.0334
-65.6038
-46.1802
-27.4424
-9.10379
-203.815
-281.58
-277.353
-252.539
-223.664
-195.386
-168.925
-144.438
-121.749
-100.591
-80.6871
-61.7735
-43.6064
-25.9595
-8.61936
-92.581
-178.447
-203.713
-201.394
-187.561
-169.309
-149.71
-130.078
-110.938
-92.4597
-74.6456
-57.4191
-40.6674
-24.2611
-8.06372
-50.2925
-117.379
-149.208
-158.224
-154.509
-144.15
-130.505
-115.363
-99.6564
-83.8585
-68.1891
-52.7297
-37.4847
-22.4153
-7.4588
-31.2616
-80.7846
-110.531
-123.881
-126.055
-121.26
-112.327
-101.028
-88.4295
-75.1602
-61.5803
-47.8865
-34.1767
-20.4889
-6.8262
-21.2557
-57.9157
-83.2283
-97.2867
-102.429
-101.231
-95.7826
-87.5862
-77.66
-66.6706
-55.0447
-43.05
-30.8502
-18.5431
-6.18583
-15.3112
-42.9213
-63.7334
-76.8744
-83.1968
-84.1446
-81.1368
-75.3374
-67.6214
-58.6166
-48.7601
-38.3518
-27.5954
-16.6303
-5.55488
-11.4569
-32.6436
-49.5592
-61.19
-67.6885
-69.7969
-68.422
-64.4122
-58.4716
-51.1484
-42.8541
-33.8916
-24.4829
-14.7925
-4.94728
-8.80091
-25.3288
-39.0504
-49.0636
-55.2226
-57.8613
-57.5305
-54.8218
-50.2763
-44.3497
-37.4079
-29.7381
-21.5637
-13.0609
-4.37345
-6.88984
-19.9604
-31.1132
-39.6092
-45.1959
-47.9825
-48.2848
-46.5016
-43.0353
-38.2516
-32.4638
-25.9321
-18.8705
-11.4562
-3.84052
-5.47059
-15.9218
-25.018
-32.1713
-37.1095
-39.8242
-40.4828
-39.3456
-36.705
-32.8473
-28.0332
-22.4917
-16.4203
-9.99015
-3.35264
-4.3911
-12.8227
-20.2697
-26.2684
-30.5637
-33.09
-33.9239
-33.2299
-31.2165
-28.1038
-24.105
-19.4171
-14.2178
-8.66714
-2.9115
-3.55467
-10.4061
-16.5251
-21.546
-25.2432
-27.5279
-28.4226
-28.0273
-26.4882
-23.9728
-20.6531
-16.6958
-12.2578
-7.48564
-2.51684
-2.89701
-8.49699
-13.5415
-17.7407
-20.9011
-22.9284
-23.8142
-23.6162
-22.4353
-20.398
-17.6419
-14.3065
-10.5287
-6.43995
-2.16698
-2.37383
-6.9728
-11.1436
-14.6551
-17.344
-19.1191
-19.9563
-19.8852
-18.975
-17.3204
-15.0311
-12.2232
-9.01445
-5.52155
-1.85927
-1.95364
-5.7453
-9.20228
-12.1394
-14.4195
-15.9594
-16.7271
-16.735
-16.0296
-14.6819
-12.779
-10.417
-7.69663
-4.72024
-1.59044
-1.61356
-4.74963
-7.62111
-10.0786
-12.0077
-13.3342
-14.024
-14.0784
-13.5286
-12.4276
-10.8445
-8.85868
-6.55582
-4.02499
-1.35693
-1.33656
-3.93721
-6.32667
-8.38374
-10.0131
-11.1499
-11.7605
-11.8402
-11.4089
-10.5068
-9.18852
-7.51963
-5.57268
-3.42464
-1.15509
-1.10974
-3.27105
-5.26242
-6.98505
-8.35957
-9.32994
-9.86462
-9.95548
-9.61522
-8.87386
-7.77511
-6.37294
-4.72862
-2.90833
-0.981355
-0.923203
-2.72258
-4.38427
-5.8274
-6.98585
-7.81159
-8.27592
-8.36919
-8.09907
-7.48825
-6.57165
-5.39378
-4.00628
-2.46581
-0.832337
-0.769233
-2.26944
-3.65747
-4.86684
-5.84248
-6.54342
-6.94409
-7.0344
-6.81871
-6.31423