/*--------------------------------*- C++ -*----------------------------------*\
| =========                 |                                                 |
| \\      /  F ield         | OpenFOAM: The Open Source CFD Toolbox           |
|  \\    /   O peration     | Version:  5.x                                   |
|   \\  /    A nd           | Web:      www.OpenFOAM.org                      |
|    \\/     M anipulation  |                                                 |
\*---------------------------------------------------------------------------*/
FoamFile
{
    version     2.0;
    format      ascii;
    class       volScalarField;
    location    "8";
    object      T;
}
// * * * * * * * * * * * * * * * * * * * * * * * * * * * * * * * * * * * * * //

dimensions      [0 0 0 1 0 0 0];

internalField   nonuniform List<scalar> 
6300
(
10.3708
11.1149
11.8666
12.6311
13.4129
14.2163
15.045
15.9021
16.7896
17.7084
18.6582
19.6371
20.6417
21.6672
22.7074
10.3682
11.1071
11.8539
12.6137
13.3911
14.1908
15.0165
15.8715
16.7581
17.6773
18.6289
19.6111
20.6206
21.6523
22.6997
10.3629
11.0915
11.8283
12.5785
13.3472
14.1392
14.9587
15.8093
16.6938
17.6135
18.5687
19.5577
20.5771
21.6214
22.6836
10.355
11.0678
11.7891
12.5247
13.2798
14.0599
14.8696
15.7131
16.5939
17.5142
18.4745
19.4737
20.5083
21.5723
22.6579
10.3441
11.0354
11.7358
12.4512
13.1876
13.9508
14.7464
15.5795
16.4545
17.3746
18.3413
19.3541
20.4097
21.5015
22.6202
10.3303
10.994
11.6673
12.3566
13.0684
13.8093
14.5857
15.404
16.2698
17.1881
18.1618
19.1916
20.2745
21.4036
22.5673
10.3132
10.943
11.5827
12.2394
12.9201
13.6321
14.383
15.1806
16.0326
16.9459
17.926
18.9756
20.093
21.2708
22.4947
10.2928
10.8819
11.4813
12.0982
12.7404
13.4158
14.1335
14.9028
15.7339
16.6368
17.6206
18.6915
19.8508
21.0914
22.3958
10.269
10.8104
11.3622
11.9318
12.5272
13.1573
13.8321
14.5631
15.3633
16.2467
17.2278
18.3189
19.5271
20.8481
22.2606
10.2417
10.7284
11.2253
11.7396
12.2793
12.8539
13.4744
14.1542
14.9093
15.7588
16.7246
17.8291
19.0904
20.513
22.0738
10.2111
10.6364
11.071
11.5217
11.9965
12.5045
13.0574
13.6698
14.3607
15.1545
16.0825
17.1822
18.4923
20.0394
21.8088
10.1774
10.5349
10.9004
11.2799
11.6803
12.1103
12.5808
13.1069
13.7089
14.4158
15.2687
16.3245
17.6569
19.3432
21.4135
10.1411
10.4254
10.7159
11.017
11.3345
11.6753
12.0486
12.4678
12.9521
13.5311
14.2518
15.1901
16.4675
18.2626
20.7643
10.1028
10.3098
10.5205
10.7379
10.9654
11.2076
11.4706
11.7635
12.1004
12.5045
13.0172
13.7165
14.76
16.4753
19.4951
10.0633
10.1903
10.3184
10.4485
10.5816
10.719
10.8626
11.0152
11.1813
11.3693
11.5957
11.8984
12.3807
13.3834
16.2499
23.6676
24.5406
25.4091
26.2682
27.1137
27.9412
28.7473
29.5285
30.2821
31.0058
31.6978
32.3565
32.9807
33.5695
34.1223
34.6385
35.1179
35.5604
35.9657
36.3341
36.6658
36.9609
37.2199
37.4432
37.6313
37.7848
37.9043
37.9905
38.044
38.0656
38.0559
38.0158
37.9458
37.8468
37.7194
37.5644
37.3823
37.174
36.9401
36.6812
36.3981
36.0913
35.7616
35.4096
35.036
34.6414
34.2264
33.7917
33.3377
32.865
32.3742
31.8657
31.3399
30.7973
30.2384
29.6637
29.0737
28.4689
27.8498
27.2171
26.5714
25.9133
25.2434
24.5625
23.8711
23.1701
22.4602
21.7421
21.0168
20.2853
19.5486
18.808
18.0648
17.3206
16.5768
15.8354
15.098
14.3667
13.6432
12.9297
12.2279
11.5398
10.8672
10.2117
9.57475
8.95779
8.36188
7.78789
7.2364
6.7077
23.6672
24.547
25.4221
26.2876
27.139
27.9719
28.7826
29.5677
30.3247
31.0511
31.7453
32.4056
33.0311
33.6209
34.1744
34.6911
35.1707
35.6131
36.0184
36.3865
36.7177
37.0123
37.2707
37.4933
37.6806
37.8332
37.9518
38.037
38.0895
38.11
38.0993
38.0581
37.9871
37.887
37.7587
37.6026
37.4196
37.2104
36.9755
36.7156
36.4315
36.1238
35.7931
35.4402
35.0657
34.6702
34.2544
33.8188
33.3641
32.8907
32.3992
31.89
31.3635
30.8203
30.2607
29.6853
29.0945
28.4889
27.869
27.2355
26.5888
25.9298
25.259
24.5771
23.8847
23.1826
22.4715
21.7522
21.0255
20.2924
19.5539
18.8114
18.0661
17.3195
16.5733
15.8292
15.0891
14.355
13.6288
12.9125
12.208
11.5174
10.8424
10.1847
9.54586
8.92732
8.33019
7.75536
7.20346
6.67477
23.666
24.5597
25.4485
26.3271
27.1905
28.0341
28.8541
29.6472
30.4107
31.1425
31.8408
32.5045
33.1325
33.7241
34.2789
34.7964
35.2764
35.7189
36.1239
36.4915
36.8219
37.1154
37.3725
37.5935
37.7792
37.93
38.0466
38.1298
38.1803
38.1987
38.1859
38.1426
38.0696
37.9675
37.8371
37.6791
37.4941
37.2829
37.0461
36.7844
36.4984
36.1887
35.8562
35.5013
35.125
34.7277
34.3102
33.873
33.4168
32.942
32.4491
31.9386
31.4108
30.8663
30.3054
29.7285
29.1363
28.529
27.9075
27.2721
26.6237
25.9628
25.2901
24.6062
23.9118
23.2076
22.4943
21.7724
21.043
20.3068
19.5649
18.8184
18.0688
17.3176
16.5664
15.817
15.0714
14.3317
13.5998
12.8779
12.1681
11.4723
10.7924
10.1303
9.48762
8.86585
8.26622
7.6897
7.13695
6.6083
23.6636
24.579
25.4893
26.3881
27.27
28.13
28.964
29.7689
30.542
31.2815
31.9859
32.6542
33.2857
33.8799
34.4364
34.9551
35.4357
35.8782
36.2827
36.6494
36.9785
37.2704
37.5254
37.7442
37.9273
38.0754
38.1891
38.2693
38.3166
38.3319
38.3159
38.2694
38.1933
38.0881
37.9547
37.7937
37.6059
37.3918
37.1521
36.8875
36.5986
36.2861
35.9506
35.593
35.2138
34.8138
34.3937
33.9541
33.4956
33.0187
32.5239
32.0114
31.4818
30.9354
30.3725
29.7935
29.199
28.5894
27.9652
27.3272
26.6761
26.0124
25.3368
24.6501
23.9528
23.2455
22.5288
21.8034
21.0698
20.3291
19.582
18.8297
18.0737
17.3153
16.5565
15.7991
15.0451
14.2968
13.5563
12.8259
12.1077
11.4039
10.7166
10.0478
9.39913
8.77235
8.16883
7.58967
7.03563
6.50706
23.6592
24.6056
25.5461
26.4732
27.3805
28.2628
29.1156
29.9359
30.7213
31.4705
32.1824
32.8564
33.4922
34.0894
34.6481
35.168
35.6492
36.0917
36.4955
36.8609
37.1882
37.4778
37.7301
37.9457
38.1253
38.2696
38.3794
38.4554
38.4985
38.5095
38.4892
38.4384
38.3581
38.2488
38.1114
37.9465
37.7549
37.537
37.2935
37.0251
36.7323
36.4159
36.0765
35.715
35.332
34.9284
34.5048
34.062
33.6005
33.1208
32.6234
32.1085
31.5766
31.0277
30.4622
29.8805
29.2829
28.6701
28.0425
27.4009
26.746
26.0786
25.3993
24.7088
24.0077
23.2965
22.5756
21.8455
21.1068
20.3601
19.6062
18.8462
18.0815
17.3135
16.5443
15.7758
15.0104
14.2503
13.498
12.7559
12.0264
11.3117
10.6142
9.93595
9.279
8.64521
8.03622
7.45335
6.8975
6.36911
23.6519
24.6405
25.6217
26.5864
27.5269
28.4375
29.3136
30.1525
30.9525
31.7128
32.433
33.1132
33.7535
34.354
34.9149
35.4362
35.9179
36.3602
36.763
37.1268
37.4517
37.7382
37.987
38.1985
38.3736
38.513
38.6177
38.6883
38.726
38.7315
38.7057
38.6495
38.5639
38.4495
38.3071
38.1374
37.9409
37.7184
37.4702
37.1971
36.8995
36.5781
36.2338
35.8673
35.4794
35.0711
34.6431
34.1962
33.731
33.248
32.7475
32.2298
31.6951
31.1434
30.5749
29.9898
29.3885
28.7715
28.1395
27.4933
26.8336
26.1614
25.4775
24.7824
24.0768
23.361
22.6352
21.8998
21.155
20.4011
19.6389
18.8693
18.0935
17.3133
16.5307
15.748
14.9677
14.1924
13.4249
12.6677
11.9234
11.1946
10.4838
9.79328
9.12535
8.48222
7.86587
7.27798
6.71972
6.19166
23.6406
24.6856
25.7206
26.7339
27.7163
28.6613
29.5648
30.4247
31.2404
32.0122
32.7408
33.427
34.0716
34.6753
35.2383
35.7608
36.243
36.6848
37.0864
37.448
37.7699
38.0526
38.2968
38.5032
38.6726
38.806
38.9042
38.9683
38.9992
38.9979
38.9654
38.9026
38.8105
38.6899
38.5415
38.3661
38.1641
37.9361
37.6824
37.4037
37.1003
36.773
36.4225
36.0498
35.6558
35.2416
34.8081
34.3562
33.8866
33.3997
32.8959
32.3752
31.8376
31.2828
30.7109
30.122
29.5162
28.8941
28.2566
27.6045
26.9389
26.2608
25.5713
24.8709
24.1602
23.4394
22.7085
21.9673
21.2158
20.4539
19.682
18.9008
18.1117
17.3163
16.5171
15.7165
14.9175
14.1232
13.3366
12.5605
11.798
11.0516
10.324
9.6179
8.93585
8.28051
7.65441
7.05981
6.49836
5.97085
23.6244
24.7449
25.8504
26.9255
27.9591
28.9444
29.8782
30.7601
31.5912
32.3734
33.1091
33.8002
34.4483
35.0545
35.6193
36.143
36.6256
37.0669
37.4669
37.8258
38.1439
38.4219
38.6605
38.8605
39.023
39.149
39.2394
39.2955
39.3182
39.3087
39.268
39.1973
39.0976
38.9697
38.8144
38.6325
38.4242
38.1901
37.9303
37.6451
37.335
37.0006
36.6427
36.2624
35.8608
35.4393
34.9991
34.5412
34.0665
33.5754
33.0682
32.5445
32.0042
31.4465
30.8711
30.2779
29.6668
29.0386
28.3942
27.7347
27.0617
26.3764
25.6802
24.9738
24.2577
23.532
22.7961
22.0494
21.2911
20.5207
19.738
18.9435
18.1384
17.3247
16.505
15.6824
14.8605
14.0427
13.2327
12.4338
11.649
10.8812
10.1332
9.40772
8.70775
8.03654
7.39747
6.79379
6.22802
5.70141
23.6025
24.8254
26.0237
27.1766
28.2711
29.3012
30.2661
31.1682
32.0117
32.8012
33.5411
34.2348
34.8849
35.4927
36.0591
36.584
37.067
37.5077
37.906
38.2617
38.5752
38.8474
39.079
39.2713
39.4254
39.5424
39.6236
39.6701
39.683
39.6637
39.6134
39.5333
39.4245
39.2882
39.1252
38.9361
38.7211
38.4804
38.214
37.9219
37.6042
37.2615
36.8947
36.505
36.094
35.6634
35.2149
34.7499
34.2694
33.7739
33.2634
32.7375
32.1951
31.6352
31.0567
30.4589
29.8418
29.206
28.5529
27.8841
27.2016
26.5074
25.8033
25.0903
24.3689
23.6387
22.8988
22.1477
21.3836
20.6049
19.8108
19.0012
18.1774
17.3415
16.4968
15.6472
14.7971
13.9509
13.1128
12.2865
11.4753
10.6822
9.90973
9.16064
8.43811
7.74614
7.08946
6.47305
5.90117
5.376
23.5759
24.9409
26.262
27.5113
28.6753
29.7515
30.744
31.6603
32.5094
33.3
34.039
34.7318
35.3816
35.9902
36.5581
37.0846
37.5687
38.0093
38.4056
38.7576
39.0656
39.3306
39.5537
39.7365
39.8804
39.9869
40.0571
40.0923
40.0937
40.0628
40.001
39.9098
39.7906
39.6447
39.473
39.2762
39.0543
38.8072
38.5343
38.2349
37.9088
37.5565
37.179
36.7777
36.3549
35.9128
35.454
34.9803
34.4932
33.9933
33.4804
32.9535
32.4109
31.8502
31.2694
30.6671
30.0431
29.398
28.7337
28.0526
27.3578
26.6524
25.9388
25.2185
24.4922
23.7591
23.0174
22.2644
21.4967
20.711
19.9054
19.0791
18.2333
17.3707
16.4953
15.6123
14.7277
13.8471
12.9755
12.1172
11.2755
10.4532
9.65244
8.87515
8.12429
7.40479
6.72333
6.08807
5.50698
4.98413
23.55
25.1191
26.6036
27.9684
29.2056
30.3219
31.331
32.2486
33.091
33.8724
34.6031
35.29
35.937
36.5458
37.116
37.6458
38.1325
38.5739
38.9686
39.3162
39.6174
39.8733
40.0858
40.257
40.3888
40.4829
40.5404
40.5625
40.5504
40.5058
40.4303
40.3259
40.1945
40.0376
39.8564
39.6517
39.4234
39.1707
38.892
38.5856
38.2507
37.8873
37.4968
37.081
36.6428
36.1858
35.7137
35.2295
34.735
34.231
33.7171
33.1917
32.652
32.0936
31.5125
30.9062
30.2741
29.6173
28.9381
28.2405
27.5289
26.8086
26.0833
25.3552
24.6248
23.8913
23.1519
22.402
21.6353
20.8456
20.0293
19.1847
18.3132
17.4179
16.5043
15.5796
14.6525
13.7301
12.819
11.9236
11.0476
10.1931
9.36117
8.55143
7.76518
7.00855
6.29055
5.62498
5.02881
4.51015
23.5436
25.4186
27.1171
28.6087
29.9096
31.0462
32.0493
32.9448
33.76
34.5175
35.2295
35.9052
36.5468
37.1566
37.7314
38.2685
38.7609
39.2053
39.5986
39.9413
40.2336
40.478
40.6769
40.8336
40.9511
41.0309
41.074
41.0812
41.0535
40.9926
40.9006
40.7804
40.6344
40.4649
40.2732
40.0606
39.8269
39.5711
39.2891
38.9767
38.6329
38.2567
37.8505
37.4157
36.9575
36.4799
35.9906
35.4928
34.9901
34.4823
33.9699
33.4501
32.9196
32.3694
31.7912
31.1821
30.5402
29.8684
29.1686
28.448
27.7122
26.9719
26.2312
25.4948
24.7616
24.0319
23.3009
22.5635
21.8067
21.0182
20.1934
19.3288
18.4274
17.491
16.5292
15.5502
14.5701
13.5968
12.6398
11.7018
10.7886
9.90015
9.03784
8.19377
7.36327
6.55657
5.78219
5.06187
4.43896
3.92935
23.6256
25.9719
27.9283
29.523
30.8498
31.9625
32.9219
33.756
34.5115
35.2273
35.9079
36.5688
37.202
37.817
38.4004
38.9552
39.4577
39.9096
40.301
40.6381
40.9181
41.1477
41.328
41.466
41.5671
41.6311
41.6586
41.6495
41.6036
41.5238
41.4106
41.2717
41.1074
40.9238
40.7192
40.4995
40.2615
40.0085
39.7294
39.4125
39.0609
38.6689
38.2447
37.7837
37.2994
36.7904
36.2791
35.7626
35.252
34.7394
34.2329
33.7234
33.2147
32.6853
32.1136
31.5048
30.8489
30.1594
29.4286
28.6769
27.9015
27.1351
26.3726
25.6292
24.8928
24.1739
23.4589
22.7522
22.0236
21.2425
20.4147
19.5255
18.5915
17.6003
16.5786
15.522
14.4776
13.4395
12.4331
11.444
10.494
9.56935
8.68807
7.81641
6.92698
6.0579
5.1959
4.35837
3.68586
3.20033
24.0742
27.0863
29.2599
30.8228
32.0979
33.0989
33.9746
34.6799
35.3196
35.9874
36.6143
37.2717
37.8828
38.5222
39.1102
39.7166
40.2266
40.7006
41.081
41.4165
41.6748
41.8876
42.0396
42.1507
42.2358
42.2834
42.2952
42.2703
42.202
42.1023
41.9569
41.799
41.6075
41.4121
41.1866
40.964
40.717
40.483
40.2236
39.8976
39.5468
39.1266
38.6916
38.1845
37.6763
37.1035
36.5746
36.0234
35.5162
34.9873
34.4998
33.9951
33.5391
33.0614
32.4892
31.8947
31.2053
30.5095
29.7181
28.9393
28.0775
27.2923
26.4861
25.7531
24.9985
24.3098
23.6045
22.9723
22.3156
21.5338
20.7242
19.7864
18.8376
17.7532
16.678
15.476
14.376
13.2365
12.2011
11.1299
10.1625
9.17596
8.32432
7.4645
6.46128
5.54891
4.57431
3.4172
2.66343
2.25062
26.1795
29.4077
31.4706
32.5364
33.7402
34.4151
35.2723
35.6975
36.0866
36.806
37.276
38.0405
38.5223
39.3007
39.793
40.6164
41.0465
41.6255
41.9252
42.3055
42.4961
42.7145
42.8093
42.8723
42.9579
42.9864
42.9842
42.9529
42.8449
42.7462
42.5203
42.3741
42.1126
41.9433
41.649
41.4632
41.1531
40.9933
40.8132
40.4177
40.1321
39.605
39.2415
38.5866
38.1456
37.3529
36.9018
36.2201
35.8111
35.1751
34.7908
34.1961
33.8943
33.5733
32.8961
32.4209
31.5705
30.997
29.9887
29.3209
28.1428
27.4794
26.4938
25.9076
25.0087
24.4694
23.6445
23.2272
22.7874
21.8647
21.2181
20.0626
19.2787
17.8925
16.9596
15.2831
14.3309
12.8831
12.0207
10.666
9.85854
8.58812
7.97218
7.31895
5.86463
5.12946
4.21543
1.89514
1.14997
0.950972
6.15121
5.57648
5.03305
4.51938
4.03353
3.57328
3.13621
2.71978
2.32143
1.93859
1.56873
1.20937
0.858112
0.512586
0.170483
6.11874
5.54508
5.00321
4.49148
4.00787
3.55004
3.11551
2.70166
2.30588
1.92558
1.5582
1.20126
0.852362
0.509155
0.169342
6.05325
5.48181
4.94314
4.4354
3.95634
3.50346
3.07406
2.66542
2.27483
1.89961
1.53719
1.18509
0.840906
0.502321
0.167071
5.95359
5.38567
4.85205
4.35055
3.87859
3.43332
3.0118
2.6111
2.22835
1.8608
1.50584
1.16098
0.823838
0.492145
0.16369
5.81797
5.25514
4.72874
4.23609
3.77407
3.33937
2.92868
2.53878
2.16663
1.80938
1.46437
1.12912
0.80131
0.47872
0.159231
5.64382
5.08809
4.57162
4.09093
3.64216
3.22136
2.82472
2.44868
2.08998
1.74569
1.41311
1.08982
0.773544
0.462188
0.153742
5.42767
4.88171
4.37863
3.91378
3.48222
3.07913
2.7001
2.34118
1.9989
1.67025
1.35256
1.04347
0.740849
0.442738
0.147286
5.16483
4.63237
4.14734
3.70329
3.29375
2.9128
2.55533
2.21699
1.89416
1.58381
1.28337
0.99063
0.703635
0.420621
0.139949
4.84899
4.33552
3.875
3.45822
3.07662
2.72296
2.39138
2.07725
1.77691
1.48744
1.20647
0.93203
0.662426
0.396154
0.131837
4.47164
3.98562
3.55887
3.17791
2.83149
2.51098
2.20995
1.92369
1.64876
1.38254
1.12302
0.868578
0.617873
0.369727
0.123078
4.02117
3.57639
3.19688
2.86299
2.56043
2.27948
2.01369
1.75879
1.51187
1.27092
1.03446
0.801378
0.570749
0.341798
0.113825
3.48197
3.10184
2.78922
2.51669
2.2677
2.03278
1.80652
1.58586
1.36898
1.15478
0.942523
0.731708
0.521938
0.312884
0.104249
2.83478
2.55971
2.34143
2.1468
1.96089
1.77737
1.59373
1.40912
1.2234
1.03667
0.849128
0.66098
0.472403
0.283546
0.0945322
2.06383
1.96074
1.86997
1.76815
1.65165
1.52204
1.38187
1.23348
1.0788
0.919352
0.756326
0.59067
0.42314
0.25436
0.0848645
1.19214
1.34944
1.40951
1.40415
1.35548
1.27726
1.17821
1.06412
0.938958
0.805594
0.666142
0.522223
0.37512
0.225886
0.0754284
10.0267
10.0798
10.1314
10.1805
10.2258
10.2654
10.2969
10.3166
10.3187
10.2935
10.2227
10.067
9.72238
8.84063
5.97282
9.99379
9.98022
9.96304
9.9395
9.9062
9.85871
9.7909
9.69378
9.55346
9.34694
9.03332
8.53326
7.67869
6.08992
2.93404
9.96166
9.88317
9.79911
9.70524
9.59643
9.46606
9.30516
9.1009
8.83412
8.47475
7.97339
7.24564
6.14481
4.42744
1.77871
9.93077
9.78998
9.64198
9.48135
9.30161
9.09459
8.84949
8.5514
8.17905
7.70111
7.07061
6.21705
5.03904
3.4117
1.25442
9.90151
9.70178
9.49361
9.2707
9.0257
8.74954
8.43058
8.05344
7.59725
7.03338
6.32272
5.41374
4.24527
2.76395
0.974238
9.87416
9.61944
9.35545
9.07539
8.77142
8.43418
8.05206
7.61035
7.0902
6.46755
5.71251
4.79061
3.66871
2.33035
0.804308
9.8489
9.54353
9.22846
8.89666
8.54023
8.14997
7.7149
7.22171
6.65432
5.99362
5.21814
4.30635
3.24246
2.02707
0.691717
9.82586
9.47435
9.11307
8.73502
8.33251
7.89687
7.41807
6.88458
6.28319
5.59939
4.81841
3.92769
2.92141
1.80709
0.61251
9.80504
9.41196
9.00931
8.59034
8.1478
7.67371
7.15922
6.59458
5.96929
5.27263
4.49486
3.62926
2.67538
1.64283
0.554439
9.78641
9.35622
8.91688
8.46203
7.98499
7.47859
6.93517
6.34668
5.70493
5.00219
4.23228
3.39214
2.48396
1.51736
0.510591
9.76989
9.30683
8.8352
8.34913
7.84256
7.30916
6.74242
6.13576
5.4829
4.77839
4.01846
3.20225
2.3331
1.41976
0.476754
9.75533
9.26338
8.76354
8.25047
7.71875
7.16288
6.57736
5.95691
5.29674
4.59305
3.84373
3.04912
2.21293
1.34277
0.450207
9.7426
9.22541
8.70106
8.16475
7.6117
7.03717
6.43656
5.80564
5.14079
4.4394
3.70042
2.92486
2.11633
1.28134
0.42911
9.73152
9.19241
8.64687
8.09066
7.51957
6.92956
6.31681
5.67793
5.01019
4.31186
3.58251
2.82349
2.03811
1.23187
0.412174
9.72192
9.16387
8.6001
8.02689
7.44058
6.83774
6.21519
5.57024
4.90084
4.20583
3.48522
2.7404
1.97438
1.19174
0.398467
9.71366
9.13929
8.55989
7.9722
7.37307
6.75958
6.12913
5.47954
4.80927
4.11759
3.40472
2.67205
1.92219
1.15899
0.3873
9.70656
9.11819
8.52544
7.92545
7.31553
6.69322
6.05634
5.40318
4.73257
4.04404
3.33796
2.61562
1.87927
1.13213
0.378156
9.70048
9.10015
8.49601
7.88559
7.2666
6.63695
5.99486
5.33894
4.66831
3.98269
3.2825
2.5689
1.84385
1.11001
0.370635
9.69529
9.08476
8.47093
7.85169
7.22507
6.58933
5.94298
5.28491
4.61445
3.93145
3.23633
2.53014
1.81454
1.09174
0.364426
9.69087
9.07166
8.4496
7.8229
7.18988
6.54906
5.89923
5.23948
4.56931
3.88863
3.19786
2.49792
1.79021
1.0766
0.359286
9.68712
9.06053
8.43151
7.7985
7.1601
6.51506
5.86237
5.2013
4.53145
3.85281
3.16575
2.47108
1.76999
1.06403
0.355021
9.68393
9.05109
8.41617
7.77785
7.13493
6.48637
5.83132
5.1692
4.4997
3.82283
3.13893
2.44871
1.75315
1.05357
0.351475
9.68123
9.0431
8.40319
7.76039
7.11368
6.46217
5.80519
5.14223
4.47307
3.79772
3.11651
2.43002
1.73911
1.04486
0.348521
9.67895
9.03634
8.39222
7.74565
7.09575
6.44179
5.7832
5.11957
4.45072
3.77669
3.09776
2.41441
1.72739
1.03759
0.346058
9.67702
9.03064
8.38296
7.73321
7.08063
6.42462
5.7647
5.10053
4.43198
3.75907
3.08206
2.40136
1.7176
1.03152
0.344001
9.6754
9.02582
8.37515
7.72272
7.0679
6.41018
5.74915
5.08455
4.41625
3.7443
3.06891
2.39044
1.70941
1.02644
0.342283
9.67402
9.02176
8.36857
7.71389
7.05718
6.39803
5.73608
5.07112
4.40305
3.73192
3.0579
2.3813
1.70256
1.0222
0.340847
9.67287
9.01834
8.36303
7.70645
7.04817
6.38782
5.7251
5.05985
4.39199
3.72154
3.04868
2.37365
1.69683
1.01865
0.339646
9.6719
9.01547
8.35837
7.70021
7.0406
6.37924
5.71589
5.0504
4.38271
3.71285
3.04096
2.36725
1.69203
1.01569
0.338641
9.67108
9.01305
8.35446
7.69496
7.03424
6.37204
5.70816
5.04248
4.37494
3.70557
3.03449
2.36189
1.68802
1.01321
0.337802
9.67039
9.01102
8.35117
7.69056
7.02891
6.36601
5.70169
5.03585
4.36843
3.69948
3.02909
2.35741
1.68467
1.01113
0.3371
9.66982
9.00932
8.34842
7.68687
7.02445
6.36096
5.69628
5.0303
4.363
3.6944
3.02458
2.35367
1.68187
1.0094
0.336514
9.66934
9.00791
8.34613
7.6838
7.02072
6.35675
5.69176
5.02567
4.35846
3.69015
3.02081
2.35056
1.67954
1.00796
0.336027
9.66894
9.00672
8.34422
7.68124
7.01762
6.35324
5.688
5.02182
4.35469
3.68663
3.01769
2.34797
1.67761
1.00676
0.335621
9.66861
9.00574
8.34263
7.67911
7.01505
6.35034
5.68489
5.01864
4.35157
3.68371
3.0151
2.34583
1.67601
1.00577
0.335286
9.66834
9.00494
8.34133
7.67737
7.01294
6.34795
5.68232
5.01601
4.349
3.68131
3.01297
2.34407
1.67469
1.00496
0.335011
9.66811
9.00428
8.34026
7.67594
7.01122
6.346
5.68024
5.01388
4.34691
3.67936
3.01124
2.34263
1.67362
1.0043
0.334787
9.66794
9.00375
8.33941
7.6748
7.00983
6.34444
5.67856
5.01217
4.34524
3.67779
3.00985
2.34148
1.67276
1.00376
0.334607
9.6678
9.00334
8.33874
7.6739
7.00875
6.34321
5.67725
5.01082
4.34392
3.67656
3.00876
2.34058
1.67208
1.00335
0.334466
9.66769
9.00303
8.33823
7.67322
7.00793
6.34229
5.67625
5.0098
4.34292
3.67563
3.00794
2.3399
1.67157
1.00303
0.334359
9.66762
9.00281
8.33787
7.67274
7.00735
6.34163
5.67555
5.00908
4.34222
3.67497
3.00735
2.33942
1.67121
1.00281
0.334284
9.66757
9.00267
8.33765
7.67245
7.00699
6.34122
5.67512
5.00864
4.34179
3.67456
3.00699
2.33912
1.67099
1.00267
0.334237
9.66755
9.00261
8.33756
7.67232
7.00684
6.34106
5.67494
5.00846
4.34161
3.6744
3.00685
2.339
1.6709
1.00262
0.334218
9.66756
9.00264
8.3376
7.67237
7.0069
6.34113
5.67501
5.00853
4.34168
3.67446
3.00691
2.33905
1.67094
1.00264
0.334226
9.66759
9.00274
8.33776
7.6726
7.00717
6.34143
5.67534
5.00887
4.34201
3.67477
3.00718
2.33927
1.6711
1.00274
0.334261
9.66766
9.00292
8.33807
7.673
7.00766
6.34198
5.67593
5.00947
4.3426
3.67532
3.00767
2.33967
1.67141
1.00293
0.334324
9.66775
9.0032
8.33851
7.6736
7.00838
6.3428
5.6768
5.01036
4.34347
3.67614
3.00839
2.34027
1.67185
1.0032
0.334417
9.66787
9.00357
8.33911
7.6744
7.00935
6.34389
5.67798
5.01157
4.34465
3.67724
3.00936
2.34108
1.67245
1.00358
0.334544
9.66804
9.00405
8.33989
7.67544
7.01061
6.34531
5.6795
5.01312
4.34617
3.67866
3.01062
2.34212
1.67323
1.00406
0.334707
9.66824
9.00465
8.34086
7.67674
7.01219
6.3471
5.68141
5.01508
4.34808
3.68045
3.01221
2.34343
1.67421
1.00467
0.334912
9.66849
9.00539
8.34206
7.67835
7.01413
6.3493
5.68376
5.01749
4.35044
3.68265
3.01416
2.34505
1.67542
1.00541
0.335165
9.6688
9.0063
8.34353
7.68031
7.0165
6.35198
5.68664
5.02043
4.35332
3.68535
3.01655
2.34703
1.6769
1.00633
0.335474
9.66917
9.00739
8.3453
7.68269
7.01938
6.35522
5.69012
5.02399
4.35681
3.68861
3.01944
2.34942
1.67869
1.00743
0.335848
9.66961
9.00871
8.34743
7.68554
7.02283
6.35913
5.69431
5.02828
4.36101
3.69254
3.02292
2.3523
1.68085
1.00877
0.336299
9.67015
9.01029
8.34999
7.68897
7.02698
6.36382
5.69934
5.03343
4.36606
3.69725
3.0271
2.35577
1.68344
1.01037
0.336841
9.67079
9.01218
8.35305
7.69307
7.03194
6.36943
5.70535
5.03959
4.37209
3.7029
3.03212
2.35991
1.68654
1.01229
0.337491
9.67155
9.01443
8.3567
7.69795
7.03786
6.37613
5.71254
5.04695
4.37931
3.70965
3.03811
2.36488
1.69026
1.01459
0.338268
9.67246
9.01712
8.36104
7.70378
7.04492
6.38412
5.72111
5.05574
4.38793
3.71772
3.04527
2.37081
1.6947
1.01733
0.339198
9.67353
9.02031
8.36622
7.71072
7.05332
6.39363
5.73133
5.06621
4.39821
3.72735
3.05382
2.3779
1.7
1.02062
0.340309
9.67482
9.02411
8.37237
7.71897
7.06333
6.40496
5.7435
5.0787
4.41046
3.73884
3.06402
2.38636
1.70634
1.02454
0.341637
9.67634
9.02862
8.37968
7.72877
7.07522
6.41844
5.75799
5.09357
4.42507
3.75254
3.0762
2.39647
1.71391
1.02922
0.343224
9.67815
9.03397
8.38836
7.74042
7.08935
6.43446
5.77523
5.11129
4.44248
3.76888
3.09073
2.40853
1.72295
1.03483
0.34512
9.68029
9.04031
8.39865
7.75424
7.10613
6.4535
5.79573
5.13237
4.46323
3.78837
3.10808
2.42295
1.73376
1.04152
0.347389
9.68283
9.04783
8.41084
7.77062
7.12604
6.47612
5.82011
5.15747
4.48796
3.81161
3.1288
2.44018
1.74669
1.04954
0.350104
9.68584
9.05672
8.42528
7.79003
7.14965
6.50298
5.84909
5.18734
4.51742
3.83936
3.15355
2.46078
1.76217
1.05914
0.353357
9.68939
9.06724
8.44236
7.81301
7.17763
6.53484
5.88352
5.22289
4.55254
3.87247
3.18314
2.48544
1.78071
1.07064
0.357258
9.69357
9.07965
8.46253
7.84019
7.21076
6.57262
5.92442
5.26519
4.5944
3.91202
3.21853
2.51498
1.80294
1.08446
0.361943
9.69851
9.09428
8.48632
7.87228
7.24994
6.61738
5.97297
5.31551
4.64432
3.95928
3.26091
2.55042
1.82966
1.10107
0.36758
9.70431
9.11149
8.51434
7.91012
7.29623
6.67036
6.03057
5.37537
4.70385
4.01578
3.31171
2.59299
1.8618
1.12108
0.374375
9.71112
9.1317
8.54728
7.95467
7.35083
6.73302
6.09887
5.44655
4.77486
4.0834
3.37267
2.64421
1.90057
1.14525
0.382589
9.7191
9.15537
8.58591
8.00701
7.41513
6.80701
6.1798
5.53119
4.85961
4.16438
3.44595
2.70598
1.94743
1.17453
0.392547
9.72841
9.18303
8.6311
8.06836
7.4907
6.89425
6.27557
5.63177
4.96076
4.26148
3.53418
2.78063
2.00426
1.21011
0.404666
9.73923
9.21522
8.6838
8.14008
7.5793
6.99693
6.38878
5.75125
5.08153
4.37803
3.64064
2.87114
2.07342
1.25355
0.419479
9.75178
9.25257
8.74503
8.22363
7.6829
7.1175
6.5224
5.89305
5.22577
4.51811
3.76939
2.98123
2.15797
1.30683
0.437687
9.76626
9.29569
8.81588
8.3206
7.80361
7.25869
6.67978
6.0612
5.39804
4.68668
3.92552
3.1157
2.26188
1.37261
0.460221
9.78287
9.34524
8.89746
8.43263
7.94371
7.42349
6.86471
6.2603
5.60376
4.88983
4.11542
3.28072
2.39039
1.45445
0.488345
9.80182
9.40183
8.99087
8.5614
8.10554
7.61504
7.08131
6.49558
5.84932
5.13498
4.34719
3.48436
2.55055
1.55724
0.523819
9.8233
9.46604
9.09714
8.70848
8.2914
7.8366
7.33401
6.77288
6.14213
5.43112
4.63106
3.73727
2.75205
1.68787
0.569164
9.84744
9.53833
9.21713
8.87527
8.50345
8.09134
7.62735
7.09852
6.49066
5.78907
4.98002
4.05365
3.00836
1.85635
0.628136
9.87434
9.61902
9.35145
9.06286
8.74346
8.38209
7.9657
7.47901
6.90427
6.22163
5.41043
4.45259
3.33877
2.07776
0.706586
9.90404
9.70819
9.50037
9.27182
9.01261
8.71102
8.35285
7.92061
7.3928
6.74343
5.94266
4.95984
3.77137
2.37566
0.814198
9.93645
9.80568
9.66366
9.50205
9.31117
9.07923
8.7914
8.42855
7.9657
7.37034
6.60127
5.60988
4.34786
2.78864
0.96829
9.97141
9.91098
9.84054
9.7526
9.63821
9.48621
9.28202
9.00591
8.6306
8.11785
7.41425
6.44781
5.13072
3.38295
1.20309
10.0086
10.0232
10.0296
10.0215
9.99134
9.92942
9.82254
9.65211
9.3909
8.99784
8.40972
7.5292
6.21262
4.27731
1.59504
10.0477
10.1411
10.2286
10.3057
10.3665
10.4038
10.4072
10.3613
10.2427
10.0132
9.60818
8.91335
7.72416
5.69034
2.33963
10.0881
10.2631
10.435
10.601
10.758
10.9017
11.0259
11.121
11.1715
11.1505
11.0078
10.6407
9.82218
8.01783
4.00682
10.1292
10.3874
10.6453
10.9026
11.1588
11.4132
11.6648
11.9115
12.1498
12.3723
12.5631
12.6816
12.6047
11.8776
8.45356
10.1703
10.5119
10.8561
11.2049
11.5607
11.9266
12.307
12.7079
13.1389
13.616
14.1686
14.8579
15.8386
17.6103
22.2634
10.2109
10.6345
11.0636
11.5022
11.9555
12.43
12.9348
13.4832
14.0959
14.8073
15.6791
16.8318
18.5232
21.3417
26.6049
10.2503
10.7534
11.2644
11.7894
12.3356
12.9123
13.5323
14.2138
14.9843
15.887
16.9942
18.4316
20.4247
23.3752
27.9312
0.49006
0.878192
1.04738
1.11017
1.11106
1.07194
1.0053
0.918988
0.818274
0.706883
0.587557
0.462391
0.333049
0.200903
0.0671433
0.2629
0.601814
0.792051
0.885884
0.916625
0.904385
0.861759
0.797044
0.715967
0.622648
0.520164
0.410894
0.296745
0.179309
0.0599765
0.16552
0.428676
0.603659
0.705404
0.75203
0.757921
0.733547
0.686452
0.622152
0.54477
0.457478
0.36278
0.26272
0.159031
0.0532397
0.115278
0.316765
0.466119
0.563192
0.615714
0.632467
0.621106
0.587802
0.537413
0.473769
0.39993
0.318384
0.231213
0.14021
0.0469804
0.0852222
0.241052
0.364881
0.45191
0.504232
0.526527
0.523895
0.501008
0.461872
0.409843
0.347728
0.277891
0.202364
0.122935
0.0412279
0.065314
0.187561
0.289194
0.364725
0.413597
0.437891
0.440745
0.425493
0.395278
0.352917
0.300884
0.241346
0.176222
0.10724
0.0359951
0.0512255
0.148382
0.231629
0.296048
0.340024
0.364139
0.370163
0.360363
0.337115
0.302705
0.259248
0.208677
0.152757
0.0931146
0.0312797
0.0408132
0.11886
0.187138
0.241565
0.280239
0.302947
0.310565
0.304568
0.2867
0.25877
0.222549
0.17972
0.131874
0.0805114
0.0270669
0.0328866
0.0961201
0.152262
0.198018
0.231539
0.252231
0.260417
0.257013
0.243269
0.220591
0.190435
0.154247
0.113432
0.0693529
0.0233324
0.0267233
0.0783041
0.124597
0.162966
0.191746
0.210196
0.218315
0.216636
0.206039
0.187602
0.162509
0.131984
0.0972555
0.0595418
0.0200449
0.0218554
0.0641589
0.102434
0.13457
0.159125
0.175332
0.183014
0.182451
0.17425
0.159232
0.138353
0.112638
0.083151
0.0509684
0.017169
0.0179644
0.0528101
0.0845337
0.111439
0.132298
0.146385
0.153436
0.153568
0.147193
0.134932
0.117553
0.0959104
0.0709176
0.043517
0.0146669
0.0148253
0.0436289
0.0699782
0.0925036
0.110172
0.122324
0.128662
0.129202
0.12422
0.114186
0.099711
0.0815084
0.0603556
0.0370716
0.0125007
0.0122741
0.0361515
0.0580774
0.0769405
0.0918753
0.102299
0.107911
0.10867
0.104755
0.0965207
0.0844571
0.0691543
0.0512726
0.0315196
0.0106331
0.0101885
0.0300288
0.0483029
0.0641045
0.0767106
0.0856136
0.0905288
0.091383
0.0882885
0.0815138
0.0714517
0.0585903
0.0434885
0.0267545
0.00902897
0.00847553
0.0249935
0.0402446
0.0534869
0.0641166
0.0716965
0.075966
0.0768366
0.0743764
0.0687889
0.0603892
0.0495815
0.0368374
0.0226775
0.00765563
0.00706319
0.0208377
0.0335809
0.0446829
0.0536398
0.0600774
0.0637626
0.0646024
0.0626352
0.058016
0.0509983
0.0419168
0.0311689
0.0191988
0.00648315
0.00589512
0.0173978
0.0280565
0.0373681
0.0449118
0.050369
0.0535343
0.0543166
0.052735
0.0489079
0.0430401
0.0354088
0.0263487
0.0162378
0.00548462
0.00492665
0.0145439
0.0234672
0.0312805
0.0376321
0.0422518
0.0449601
0.0456719
0.0443935
0.0412162
0.036306
0.0298927
0.0222579
0.0137226
0.00463606
0.00412207
0.0121716
0.0196485
0.0262076
0.0315548
0.0354613
0.0377718
0.0384086
0.0373703
0.0347275
0.0306153
0.0252246
0.018792
0.0115901
0.00391633
0.0034526
0.0101968
0.0164669
0.0219759
0.0264777
0.0297787
0.0317453
0.032308
0.0314609
0.0292588
0.0258121
0.0212796
0.0158603
0.00978499
0.00330691
0.00289491
0.00855112
0.0138137
0.0184434
0.0222341
0.0250223
0.0266935
0.0271862
0.0264919
0.0246539
0.0217626
0.0179502
0.013384
0.00825946
0.00279173
0.00242996
0.00717871
0.0115997
0.0154933
0.0186865
0.0210413
0.0224598
0.0228882
0.022317
0.0207803
0.0183525
0.0151439
0.0112954
0.00697214
0.00235689
0.00204219
0.00603381
0.00975189
0.0130294
0.015721
0.0177101
0.0189135
0.0192841
0.0188123
0.0175253
0.0154844
0.0127819
0.00953634
0.0058875
0.00199043
0.00171879
0.00507881
0.00820992
0.0109721
0.0132431
0.0149245
0.0159452
0.0162647
0.0158735
0.0147935
0.0130755
0.0107968
0.00805724
0.00497517
0.00168213
0.00144926
0.00428269
0.00692408
0.00925568
0.0111746
0.0125974
0.0134638
0.0137385
0.013413
0.0125047
0.0110559
0.0091315
0.00681592
0.00420929
0.00142329
0.00122489
0.0036199
0.00585327
0.00782577
0.00945048
0.0106567
0.0113929
0.011629
0.011357
0.010591
0.00936635
0.0077378
0.00577666
0.0035679
0.00120649
0.00103853
0.00306933
0.00496355
0.00663728
0.00801685
0.00904218
0.00966933
0.00987229
0.00964385
0.00899561
0.00795726
0.00657496
0.00490928
0.00303249
0.0010255
0.00088427
0.00261356
0.0042269
0.00565299
0.00682913
0.00770407
0.00824018
0.00841502