/*--------------------------------*- C++ -*----------------------------------*\
| =========                 |                                                 |
| \\      /  F ield         | OpenFOAM: The Open Source CFD Toolbox           |
|  \\    /   O peration     | Version:  5.x                                   |
|   \\  /    A nd           | Web:      www.OpenFOAM.org                      |
|    \\/     M anipulation  |                                                 |
\*---------------------------------------------------------------------------*/
FoamFile
{
    version     2.0;
    format      ascii;
    class       volScalarField;
    location    "2.4";
    object      gradTy;
}
// * * * * * * * * * * * * * * * * * * * * * * * * * * * * * * * * * * * * * //

dimensions      [0 -1 0 1 0 0 0];

internalField   nonuniform List<scalar> 
3200
(
-3.79251e-05
1.40029e-05
-6.08777e-05
5.42936e-05
-4.13256e-05
4.80702e-05
-2.68189e-05
3.34514e-05
-2.09229e-05
8.68834e-06
2.05391e-05
-8.49794e-06
1.20102e-05
-6.98959e-06
8.67883e-06
-5.29113e-06
6.46234e-06
-3.99897e-06
4.85821e-06
-3.02834e-06
3.6697e-06
-2.29503e-06
2.77819e-06
-1.73856e-06
2.1045e-06
-1.31525e-06
1.59321e-06
-9.92933e-07
1.20433e-06
-7.47551e-07
9.08321e-07
-5.6091e-07
6.83075e-07
-4.19166e-07
5.11856e-07
-3.1174e-07
3.81921e-07
-2.30526e-07
2.83529e-07
-1.69314e-07
2.09221e-07
-1.23343e-07
1.53277e-07
-8.89674e-08
1.11318e-07
-6.34147e-08
7.99429e-08
-4.47671e-08
5.57093e-08
-3.52888e-08
1.57e-08
3.42003e-08
-1.20064e-08
1.85763e-08
-8.60017e-09
1.18872e-08
-5.3608e-09
7.51002e-09
-3.2011e-09
4.60121e-09
-1.84687e-09
2.72894e-09
-1.03246e-09
1.56841e-09
-5.60351e-10
8.75043e-10
-2.9499e-10
4.74306e-10
-1.49369e-10
2.49124e-10
-7.05634e-11
1.26314e-10
-2.33096e-11
5.46275e-11
7.90513e-13
1.33664e-11
2.75109e-12
6.37997e-13
1.51921e-13
4.31104e-14
-2.77451e-05
6.79805e-06
-4.11202e-05
3.53459e-05
-2.61731e-05
3.2073e-05
-1.65052e-05
2.23058e-05
-1.3485e-05
6.20222e-06
1.45627e-05
-4.97474e-06
8.08079e-06
-4.31282e-06
5.79747e-06
-3.28328e-06
4.31161e-06
-2.48551e-06
3.23986e-06
-1.88368e-06
2.44673e-06
-1.42804e-06
1.8522e-06
-1.08185e-06
1.40309e-06
-8.18315e-07
1.06233e-06
-6.17591e-07
8.03161e-07
-4.64763e-07
6.0589e-07
-3.48529e-07
4.55765e-07
-2.60274e-07
3.41635e-07
-1.93408e-07
2.5501e-07
-1.42879e-07
1.89401e-07
-1.04813e-07
1.39839e-07
-7.6242e-08
1.02515e-07
-5.48942e-08
7.451e-08
-3.90437e-08
5.35472e-08
-2.75535e-08
3.71312e-08
-2.27352e-08
1.11892e-08
2.43519e-08
-6.80306e-09
1.2607e-08
-5.14612e-09
8.03313e-09
-3.19718e-09
5.08323e-09
-1.89238e-09
3.12098e-09
-1.08085e-09
1.8549e-09
-5.97846e-10
1.06817e-09
-3.20908e-10
5.97084e-10
-1.66917e-10
3.24293e-10
-8.32292e-11
1.70784e-10
-3.82287e-11
8.71583e-11
-1.08107e-11
3.82906e-11
2.72483e-12
9.70145e-12
2.41083e-12
5.72934e-13
1.36929e-13
3.8892e-14
-1.89559e-05
2.88081e-06
-2.63478e-05
2.19087e-05
-1.5819e-05
2.0342e-05
-9.69302e-06
1.41394e-05
-8.27032e-06
4.16571e-06
9.69937e-06
-2.75767e-06
5.16735e-06
-2.53794e-06
3.68224e-06
-1.94375e-06
2.73542e-06
-1.47393e-06
2.05461e-06
-1.11792e-06
1.55133e-06
-8.47799e-07
1.1743e-06
-6.42309e-07
8.89587e-07
-4.85776e-07
6.73598e-07
-3.66508e-07
5.09341e-07
-2.7569e-07
3.84313e-07
-2.06624e-07
2.8916e-07
-1.54194e-07
2.16813e-07
-1.14484e-07
1.61894e-07
-8.44878e-08
1.20291e-07
-6.1902e-08
8.88564e-08
-4.49602e-08
6.5178e-08
-3.23112e-08
4.74054e-08
-2.29307e-08
3.4089e-08
-1.61796e-08
2.35283e-08
-1.39386e-08
7.50463e-09
1.62729e-08
-3.62483e-09
8.12228e-09
-2.93085e-09
5.15432e-09
-1.81489e-09
3.266e-09
-1.06374e-09
2.00895e-09
-6.00643e-10
1.19616e-09
-3.28147e-10
6.90014e-10
-1.73839e-10
3.8634e-10
-8.90989e-11
2.10197e-10
-4.35737e-11
1.1095e-10
-1.928e-11
5.69309e-11
-4.19852e-12
2.53382e-11
2.95637e-12
6.60672e-12
1.85234e-12
4.51827e-13
1.08521e-13
3.08679e-14
-1.10486e-05
9.96951e-07
-1.46832e-05
1.19034e-05
-8.42709e-06
1.12531e-05
-5.04037e-06
7.81859e-06
-4.45296e-06
2.4024e-06
5.55326e-06
-1.3579e-06
2.87743e-06
-1.32155e-06
2.03961e-06
-1.01751e-06
1.51384e-06
-7.72683e-07
1.1367e-06
-5.86443e-07
8.58134e-07
-4.44873e-07
6.49539e-07
-3.37062e-07
4.92067e-07
-2.54887e-07
3.7262e-07
-1.92257e-07
2.81789e-07
-1.44563e-07
2.12649e-07
-1.08295e-07
1.60028e-07
-8.07675e-08
1.20016e-07
-5.99238e-08
8.96386e-08
-4.41847e-08
6.6624e-08
-3.23388e-08
4.92318e-08
-2.34578e-08
3.61283e-08
-1.68314e-08
2.62906e-08
-1.19222e-08
1.89138e-08
-8.4117e-09
1.30068e-08
-7.50287e-09
4.32353e-09
9.33782e-09
-1.71449e-09
4.54796e-09
-1.48236e-09
2.87673e-09
-9.1534e-10
1.82463e-09
-5.31638e-10
1.12389e-09
-2.96938e-10
6.70087e-10
-1.60284e-10
3.87037e-10
-8.3804e-11
2.16967e-10
-4.23083e-11
1.18197e-10
-2.02683e-11
6.24931e-11
-8.59695e-12
3.21921e-11
-1.21597e-12
1.4461e-11
2.1458e-12
3.84785e-12
1.15961e-12
2.8847e-13
6.9582e-14
1.98249e-14
-3.62896e-06
2.16245e-07
-4.71464e-06
3.76987e-06
-2.63984e-06
3.59953e-06
-1.55692e-06
2.50034e-06
-1.40287e-06
7.85442e-07
1.80809e-06
-4.05262e-07
9.23782e-07
-4.0849e-07
6.52904e-07
-3.15507e-07
4.84368e-07
-2.39794e-07
3.63635e-07
-1.82068e-07
2.74498e-07
-1.3814e-07
2.07767e-07
-1.04667e-07
1.57398e-07
-7.91436e-08
1.19195e-07
-5.96877e-08
9.01445e-08
-4.4871e-08
6.80319e-08
-3.36042e-08
5.1202e-08
-2.50538e-08
3.84043e-08
-1.85804e-08
2.86877e-08
-1.36933e-08
2.13257e-08
-1.00159e-08
1.57617e-08
-7.25982e-09
1.15693e-08
-5.20417e-09
8.42126e-09
-3.68216e-09
6.05979e-09
-2.59797e-09
4.15883e-09
-2.36344e-09
1.41271e-09
3.04373e-09
-4.98036e-10
1.46435e-09
-4.50215e-10
9.24587e-10
-2.77535e-10
5.86744e-10
-1.60279e-10
3.61672e-10
-8.89028e-11
2.15792e-10
-4.76154e-11
1.24724e-10
-2.46797e-11
6.99637e-11
-1.23324e-11
3.81399e-11
-5.82335e-12
2.0183e-11
-2.39406e-12
1.04181e-11
-1.98639e-13
4.70243e-12
7.74055e-13
1.26439e-12
3.94149e-13
9.9055e-14
2.39422e-14
6.84374e-15
3.63437e-06
-2.15383e-07
4.71542e-06
-3.7695e-06
2.64003e-06
-3.59944e-06
1.55695e-06
-2.50035e-06
1.40283e-06
-7.85491e-07
-1.80813e-06
4.05255e-07
-9.23769e-07
4.08513e-07
-6.52877e-07
3.15533e-07
-4.84344e-07
2.39815e-07
-3.63617e-07
1.82084e-07
-2.74484e-07
1.38152e-07
-2.07757e-07
1.04675e-07
-1.57391e-07
7.91494e-08
-1.1919e-07
5.96917e-08
-9.01413e-08
4.48736e-08
-6.80299e-08
3.36058e-08
-5.12007e-08
2.50547e-08
-3.84036e-08
1.85809e-08
-2.86874e-08
1.36934e-08
-2.13256e-08
1.00159e-08
-1.57618e-08
7.25969e-09
-1.15694e-08
5.20398e-09
-8.42146e-09
3.68194e-09
-6.06001e-09
2.59774e-09
-4.1591e-09
2.36314e-09
-1.41301e-09
-3.04399e-09
4.97837e-10
-1.4645e-09
4.50106e-10
-9.24672e-10
2.77467e-10
-5.86799e-10
1.60235e-10
-3.61708e-10
8.88735e-11
-2.15815e-10
4.75969e-11
-1.24739e-10
2.46685e-11
-6.99724e-11
1.23257e-11
-3.81451e-11
5.81945e-12
-2.0186e-11
2.39185e-12
-1.04197e-11
1.97488e-13
-4.70321e-12
-7.74554e-13
-1.26469e-12
-3.94314e-13
-9.91412e-14
-2.39915e-14
-6.80829e-15
1.10526e-05
-9.96204e-07
1.46839e-05
-1.1903e-05
8.42733e-06
-1.1253e-05
5.04046e-06
-7.81853e-06
4.45299e-06
-2.40239e-06
-5.55324e-06
1.35792e-06
-2.87739e-06
1.32159e-06
-2.03957e-06
1.01755e-06
-1.51381e-06
7.7271e-07
-1.13668e-06
5.86464e-07
-8.58116e-07
4.44889e-07
-6.49526e-07
3.37074e-07
-4.92057e-07
2.54895e-07
-3.72613e-07
1.92263e-07
-2.81784e-07
1.44567e-07
-2.12645e-07
1.08297e-07
-1.60025e-07
8.07694e-08
-1.20014e-07
5.99251e-08
-8.96376e-08
4.41855e-08
-6.66234e-08
3.23393e-08
-4.92315e-08
2.3458e-08
-3.61282e-08
1.68315e-08
-2.62905e-08
1.19222e-08
-1.89139e-08
8.41163e-09
-1.30069e-08
7.50272e-09
-4.3237e-09
-9.33797e-09
1.71438e-09
-4.54804e-09
1.4823e-09
-2.87678e-09
9.15303e-10
-1.82466e-09
5.31613e-10
-1.12391e-09
2.96921e-10
-6.70101e-10
1.60273e-10
-3.87046e-10
8.3797e-11
-2.16973e-10
4.23041e-11
-1.18201e-10
2.02658e-11
-6.24951e-11
8.59549e-12
-3.21932e-11
1.21519e-12
-1.44615e-11
-2.14615e-12
-3.84805e-12
-1.15972e-12
-2.88532e-13
-6.9619e-14
-1.97999e-14
1.8957e-05
-2.88043e-06
2.63481e-05
-2.19085e-05
1.58192e-05
-2.03418e-05
9.69316e-06
-1.41393e-05
8.27042e-06
-4.16564e-06
-9.69931e-06
2.75773e-06
-5.1673e-06
2.53799e-06
-3.6822e-06
1.94378e-06
-2.73539e-06
1.47396e-06
-2.05459e-06
1.11794e-06
-1.55132e-06
8.47814e-07
-1.17428e-06
6.42321e-07
-8.89577e-07
4.85784e-07
-6.73591e-07
3.66514e-07
-5.09336e-07
2.75694e-07
-3.84309e-07
2.06627e-07
-2.89157e-07
1.54197e-07
-2.16811e-07
1.14486e-07
-1.61892e-07
8.4489e-08
-1.2029e-07
6.19028e-08
-8.88557e-08
4.49608e-08
-6.51775e-08
3.23116e-08
-4.74051e-08
2.29309e-08
-3.40888e-08
1.61797e-08
-2.35282e-08
1.39386e-08
-7.50458e-09
-1.62728e-08
3.62486e-09
-8.12226e-09
2.93087e-09
-5.15431e-09
1.8149e-09
-3.266e-09
1.06375e-09
-2.00895e-09
6.00645e-10
-1.19616e-09
3.28147e-10
-6.90013e-10
1.73839e-10
-3.8634e-10
8.90989e-11
-2.10197e-10
4.35735e-11
-1.1095e-10
1.92798e-11
-5.6931e-11
4.19841e-12
-2.53383e-11
-2.95643e-12
-6.60676e-12
-1.85236e-12
-4.51842e-13
-1.08532e-13
-3.08626e-14
2.7742e-05
-6.79842e-06
4.11198e-05
-3.5346e-05
2.61731e-05
-3.2073e-05
1.65053e-05
-2.23058e-05
1.34851e-05
-6.20215e-06
-1.45627e-05
4.97478e-06
-8.08077e-06
4.31283e-06
-5.79746e-06
3.28328e-06
-4.3116e-06
2.48551e-06
-3.23986e-06
1.88368e-06
-2.44673e-06
1.42804e-06
-1.8522e-06
1.08185e-06
-1.40309e-06
8.18316e-07
-1.06233e-06
6.17592e-07
-8.03161e-07
4.64763e-07
-6.05889e-07
3.48529e-07
-4.55765e-07
2.60275e-07
-3.41635e-07
1.93409e-07
-2.5501e-07
1.42879e-07
-1.89401e-07
1.04813e-07
-1.39838e-07
7.62424e-08
-1.02515e-07
5.48945e-08
-7.45097e-08
3.9044e-08
-5.35469e-08
2.75537e-08
-3.71309e-08
2.27354e-08
-1.1189e-08
-2.43517e-08
6.80321e-09
-1.26069e-08
5.1462e-09
-8.03306e-09
3.19724e-09
-5.08319e-09
1.89241e-09
-3.12095e-09
1.08087e-09
-1.85488e-09
5.97859e-10
-1.06816e-09
3.20916e-10
-5.97078e-10
1.66921e-10
-3.2429e-10
8.32317e-11
-1.70782e-10
3.82301e-11
-8.71572e-11
1.08115e-11
-3.82901e-11
-2.72452e-12
-9.70126e-12
-2.41073e-12
-5.72883e-13
-1.36901e-13
-3.89136e-14
3.79178e-05
-1.40045e-05
6.08762e-05
-5.42945e-05
4.1325e-05
-4.80707e-05
2.68185e-05
-3.34516e-05
2.09228e-05
-8.68845e-06
-2.05392e-05
8.49783e-06
-1.20103e-05
6.98947e-06
-8.67894e-06
5.29103e-06
-6.46243e-06
3.99889e-06
-4.85828e-06
3.02828e-06
-3.66975e-06
2.29499e-06
-2.77823e-06
1.73852e-06
-2.10452e-06
1.31522e-06
-1.59323e-06
9.92917e-07
-1.20434e-06
7.47539e-07
-9.08331e-07
5.60901e-07
-6.83082e-07
4.1916e-07
-5.11861e-07
3.11736e-07
-3.81924e-07
2.30524e-07
-2.83532e-07
1.69313e-07
-2.09222e-07
1.23341e-07
-1.53278e-07
8.89668e-08
-1.11319e-07
6.34144e-08
-7.99431e-08
4.4767e-08
-5.57093e-08
3.5289e-08
-1.56998e-08
-3.42001e-08
1.20065e-08
-1.85762e-08
8.60024e-09
-1.18871e-08
5.36085e-09
-7.50998e-09
3.20113e-09
-4.60119e-09
1.84689e-09
-2.72892e-09
1.03248e-09
-1.56839e-09
5.60361e-10
-8.75034e-10
2.94996e-10
-4.74301e-10
1.49373e-10
-2.49121e-10
7.05657e-11
-1.26312e-10
2.33109e-11
-5.46266e-11
-7.89919e-13
-1.3366e-11
-2.75088e-12
-6.37884e-13
-1.5185e-13
-4.31546e-14
-0.00626031
0.00495017
0.000826018
0.000367756
4.56525e-05
4.99484e-05
-1.65965e-05
2.3964e-05
-2.31547e-05
3.15623e-06
2.33368e-05
-1.43256e-05
1.71256e-05
-1.28074e-05
1.44621e-05
-1.06788e-05
1.21267e-05
-8.7742e-06
1.00379e-05
-7.14848e-06
8.22527e-06
-5.78876e-06
6.68949e-06
-4.66682e-06
5.41032e-06
-3.74992e-06
4.35777e-06
-3.00568e-06
3.49921e-06
-2.40456e-06
2.80328e-06
-1.92077e-06
2.24171e-06
-1.53241e-06
1.79006e-06
-1.22128e-06
1.4277e-06
-9.7242e-07
1.13752e-06
-7.7364e-07
9.05507e-07
-6.15081e-07
7.20254e-07
-4.88806e-07
5.72527e-07
-3.88529e-07
4.54465e-07
-3.10968e-07
3.52271e-07
-2.86431e-07
7.55876e-08
2.81421e-07
-1.45018e-07
1.85784e-07
-1.25796e-07
1.46925e-07
-1.02639e-07
1.18497e-07
-8.42582e-08
9.65055e-08
-7.01107e-08
7.95295e-08
-5.93124e-08
6.65401e-08
-5.09998e-08
5.68638e-08
-4.33506e-08
4.89822e-08
-3.44079e-08
4.03703e-08
-2.49763e-08
3.06474e-08
-1.74895e-08
2.39465e-08
-4.40176e-09
1.07919e-08
2.18579e-09
5.06589e-10
1.21829e-10
3.56819e-11
-0.00447036
0.00332508
0.000743784
0.000297847
4.80477e-05
3.73032e-05
-9.27385e-06
1.58472e-05
-1.55206e-05
2.27262e-06
1.6189e-05
-8.87184e-06
1.13531e-05
-8.10633e-06
9.56165e-06
-6.75305e-06
8.02503e-06
-5.53857e-06
6.64855e-06
-4.50582e-06
5.45157e-06
-3.64476e-06
4.43585e-06
-2.93594e-06
3.58892e-06
-2.35765e-06
2.89149e-06
-1.88886e-06
2.32229e-06
-1.51056e-06
1.86072e-06
-1.2063e-06
1.48815e-06
-9.62179e-07
1.18845e-06
-7.6668e-07
9.47957e-07
-6.10352e-07
7.55345e-07
-4.85515e-07
6.0132e-07
-3.85961e-07
4.78323e-07
-3.06699e-07
3.80221e-07
-2.43805e-07
3.01694e-07
-1.95718e-07
2.31776e-07
-1.89299e-07
5.39306e-08
1.97262e-07
-8.78733e-08
1.23953e-07
-7.88995e-08
9.7476e-08
-6.45943e-08
7.85236e-08
-5.31225e-08
6.38794e-08
-4.42968e-08
5.25696e-08
-3.75677e-08
4.39165e-08
-3.2373e-08
3.75238e-08
-2.74855e-08
3.24299e-08
-2.16459e-08
2.6877e-08
-1.55185e-08
2.04956e-08
-1.06973e-08
1.63599e-08
-2.02999e-09
7.62928e-09
1.90848e-09
4.54685e-10
1.0981e-10
3.21812e-11
-0.00299227
0.00211502
0.000576104
0.00022007
4.08658e-05
2.60804e-05
-4.82792e-06
9.98231e-06
-9.85958e-06
1.53806e-06
1.0595e-05
-5.23438e-06
7.16368e-06
-4.89429e-06
6.01692e-06
-4.07416e-06
5.0541e-06
-3.33555e-06
4.19053e-06
-2.70971e-06
3.43815e-06
-2.18952e-06
2.7988e-06
-1.76227e-06
2.26517e-06
-1.4143e-06
1.82542e-06
-1.13255e-06
1.46635e-06
-9.05406e-07
1.17507e-06
-7.22836e-07
9.39897e-07
-5.76426e-07
7.50678e-07
-4.59219e-07
5.98819e-07
-3.65523e-07
4.7718e-07
-2.90719e-07
3.799e-07
-2.3108e-07
3.02207e-07
-1.8361e-07
2.40228e-07
-1.45973e-07
1.90539e-07
-1.17554e-07
1.45146e-07
-1.18808e-07
3.62087e-08
1.30189e-07
-5.06536e-08
7.86686e-08
-4.72085e-08
6.15329e-08
-3.87861e-08
4.95153e-08
-3.19553e-08
4.02404e-08
-2.67024e-08
3.30743e-08
-2.27016e-08
2.75919e-08
-1.96038e-08
2.35714e-08
-1.66248e-08
2.04311e-08
-1.29927e-08
1.70165e-08
-9.20017e-09
1.30298e-08
-6.23673e-09
1.05901e-08
-7.80851e-10
5.08149e-09
1.46028e-09
3.58311e-10
8.70327e-11
2.55285e-11
-0.00171852
0.00117076
0.000361081
0.000135202
2.70949e-05
1.54935e-05
-2.21811e-06
5.49711e-06
-5.45386e-06
8.92035e-07
5.99183e-06
-2.7301e-06
3.9488e-06
-2.60434e-06
3.30929e-06
-2.16674e-06
2.78145e-06
-1.77136e-06
2.30761e-06
-1.43731e-06
1.89416e-06
-1.16034e-06
1.54245e-06
-9.33288e-07
1.24867e-06
-7.48621e-07
1.00645e-06
-5.99258e-07
8.08586e-07
-4.78929e-07
6.48035e-07
-3.82267e-07
5.18385e-07
-3.04782e-07
4.14054e-07
-2.42771e-07
3.30313e-07
-1.93211e-07
2.6323e-07
-1.53652e-07
2.09576e-07
-1.22119e-07
1.66722e-07
-9.70257e-08
1.3253e-07
-7.71447e-08
1.05085e-07
-6.22969e-08
7.95153e-08
-6.51349e-08
2.08769e-08
7.40646e-08
-2.58797e-08
4.35574e-08
-2.49328e-08
3.39249e-08
-2.05471e-08
2.72763e-08
-1.69539e-08
2.215e-08
-1.41917e-08
1.81879e-08
-1.20898e-08
1.5157e-08
-1.0458e-08
1.29464e-08
-8.86023e-09
1.12463e-08
-6.88097e-09
9.40183e-09
-4.8222e-09
7.22196e-09
-3.22119e-09
5.94738e-09
-2.2157e-10
2.91273e-09
9.11151e-10
2.2862e-10
5.58074e-11
1.63807e-11
-0.000560363
0.000374432
0.000122689
4.56127e-05
9.45628e-06
5.14533e-06
-6.3006e-07
1.75448e-06
-1.74365e-06
2.92603e-07
1.93864e-06
-8.44478e-07
1.26086e-06
-8.15181e-07
1.05533e-06
-6.78011e-07
8.87292e-07
-5.53831e-07
7.36375e-07
-4.49084e-07
6.04589e-07
-3.62359e-07
4.92418e-07
-2.91342e-07
3.98684e-07
-2.33627e-07
3.21378e-07
-1.86973e-07
2.58217e-07
-1.49404e-07
2.06958e-07
-1.19234e-07
1.6556e-07
-9.5055e-08
1.32244e-07
-7.57082e-08
1.05502e-07
-6.02481e-08
8.4078e-08
-4.79093e-08
6.69421e-08
-3.8075e-08
5.32548e-08
-3.02501e-08
4.23332e-08
-2.40531e-08
3.35607e-08
-1.94554e-08
2.53004e-08
-2.07257e-08
6.82527e-09
2.40365e-08
-7.90606e-09
1.39413e-08
-7.77071e-09
1.08327e-08
-6.41528e-09
8.70567e-09
-5.29803e-09
7.06652e-09
-4.43935e-09
5.79941e-09
-3.7863e-09
4.83011e-09
-3.27853e-09
4.12525e-09
-2.77614e-09
3.58774e-09
-2.14826e-09
3.00533e-09
-1.49652e-09
2.31251e-09
-9.90915e-10
1.91762e-09
-3.47379e-11
9.4923e-10
3.09159e-10
7.84846e-11
1.92113e-11
5.63538e-12
0.000560386
-0.000374438
-0.000122694
-4.5617e-05
-9.45848e-06
-5.14608e-06
6.30042e-07
-1.75422e-06
1.74395e-06
-2.92322e-07
-1.93838e-06
8.44723e-07
-1.26063e-06
8.15394e-07
-1.05513e-06
6.78182e-07
-8.87141e-07
5.53965e-07
-7.36257e-07
4.49189e-07
-6.04497e-07
3.62441e-07
-4.92345e-07
2.91406e-07
-3.98627e-07
2.33677e-07
-3.21333e-07
1.87013e-07
-2.58181e-07
1.49435e-07
-2.0693e-07
1.19259e-07
-1.65538e-07
9.50749e-08
-1.32227e-07
7.57239e-08
-1.05488e-07
6.02606e-08
-8.40668e-08
4.79193e-08
-6.69332e-08
3.80829e-08
-5.32477e-08
3.02564e-08
-4.23276e-08
2.40581e-08
-3.35564e-08
1.94591e-08
-2.52975e-08
2.07279e-08
-6.82368e-09
-2.4035e-08
7.90755e-09
-1.39398e-08
7.77219e-09
-1.08313e-08
6.4165e-09
-8.70461e-09
5.29894e-09
-7.06576e-09
4.43996e-09
-5.79893e-09
3.78665e-09
-4.82988e-09
3.27864e-09
-4.12524e-09
2.77606e-09
-3.5879e-09
2.14804e-09
-3.00559e-09
1.49624e-09
-2.3128e-09
9.90642e-10
-1.91786e-09
3.45533e-11
-9.49357e-10
-3.09233e-10
-7.8521e-11
-1.92235e-11
-5.65748e-12
0.00171853
-0.00117076
-0.000361084
-0.000135205
-2.70963e-05
-1.54939e-05
2.21822e-06
-5.49682e-06
5.45417e-06
-8.91754e-07
-5.99157e-06
2.73034e-06
-3.94858e-06
2.60454e-06
-3.3091e-06
2.1669e-06
-2.78131e-06
1.77149e-06
-2.30749e-06
1.43741e-06
-1.89406e-06
1.16042e-06
-1.54237e-06
9.33352e-07
-1.24861e-06
7.48672e-07
-1.0064e-06
5.99298e-07
-8.0855e-07
4.7896e-07
-6.48007e-07
3.82292e-07
-5.18362e-07
3.04802e-07
-4.14036e-07
2.42787e-07
-3.30299e-07
1.93223e-07
-2.63219e-07
1.53662e-07
-2.09567e-07
1.22127e-07
-1.66715e-07
9.70321e-08
-1.32524e-07
7.71498e-08
-1.0508e-07
6.23008e-08
-7.95121e-08
6.51374e-08
-2.08749e-08
-7.40629e-08
2.58814e-08
-4.35558e-08
2.49344e-08
-3.39235e-08
2.05483e-08
-2.72752e-08
1.69548e-08
-2.21492e-08
1.41923e-08
-1.81874e-08
1.20902e-08
-1.51567e-08
1.04582e-08
-1.29463e-08
8.86026e-09
-1.12464e-08
6.88088e-09
-9.40197e-09
4.82203e-09
-7.22214e-09
3.22101e-09
-5.94754e-09
2.21445e-10
-2.91282e-09
-9.11201e-10
-2.28644e-10
-5.5815e-11
-1.63961e-11
0.00299228
-0.00211502
-0.000576104
-0.000220071
-4.08658e-05
-2.60803e-05
4.82814e-06
-9.98208e-06
9.85979e-06
-1.53787e-06
-1.05948e-05
5.23453e-06
-7.16353e-06
4.89442e-06
-6.0168e-06
4.07426e-06
-5.054e-06
3.33564e-06
-4.19046e-06
2.70978e-06
-3.43809e-06
2.18957e-06
-2.79875e-06
1.76232e-06
-2.26513e-06
1.41433e-06
-1.82539e-06
1.13258e-06
-1.46633e-06
9.05428e-07
-1.17505e-06
7.22853e-07
-9.39881e-07
5.7644e-07
-7.50665e-07
4.5923e-07
-5.98809e-07
3.65531e-07
-4.77173e-07
2.90726e-07
-3.79893e-07
2.31086e-07
-3.02202e-07
1.83614e-07
-2.40224e-07
1.45977e-07
-1.90536e-07
1.17557e-07
-1.45144e-07
1.1881e-07
-3.6207e-08
-1.30188e-07
5.06549e-08
-7.86673e-08
4.72096e-08
-6.15319e-08
3.8787e-08
-4.95145e-08
3.1956e-08
-4.02398e-08
2.67029e-08
-3.30738e-08
2.2702e-08
-2.75916e-08
1.9604e-08
-2.35711e-08
1.66249e-08
-2.04309e-08
1.29928e-08
-1.70165e-08
9.20019e-09
-1.30298e-08
6.23672e-09
-1.05901e-08
7.80834e-10
-5.0815e-09
-1.46029e-09
-3.58315e-10
-8.70326e-11
-2.55315e-11
0.00447035
-0.00332508
-0.000743781
-0.000297844
-4.80462e-05
-3.73026e-05
9.27398e-06
-1.58472e-05
1.55205e-05
-2.27271e-06
-1.61891e-05
8.87175e-06
-1.13532e-05
8.10626e-06
-9.56171e-06
6.75299e-06
-8.02508e-06
5.53853e-06
-6.64859e-06
4.50578e-06
-5.4516e-06
3.64473e-06
-4.43588e-06
2.93592e-06
-3.58894e-06
2.35764e-06
-2.8915e-06
1.88884e-06
-2.3223e-06
1.51055e-06
-1.86073e-06
1.20629e-06
-1.48816e-06
9.62173e-07
-1.18846e-06
7.66675e-07
-9.47961e-07
6.10348e-07
-7.55348e-07
4.85512e-07
-6.01323e-07
3.85959e-07
-4.78326e-07
3.06697e-07
-3.80223e-07
2.43803e-07
-3.01695e-07
1.95717e-07
-2.31777e-07
1.89298e-07
-5.39308e-08
-1.97263e-07
8.78731e-08
-1.23953e-07
7.88991e-08
-9.74764e-08
6.45939e-08
-7.85239e-08
5.31222e-08
-6.38796e-08
4.42967e-08
-5.25697e-08
3.75677e-08
-4.39165e-08
3.2373e-08
-3.75237e-08
2.74857e-08
-3.24297e-08
2.1646e-08
-2.68768e-08
1.55187e-08
-2.04954e-08
1.06975e-08
-1.63598e-08
2.03011e-09
-7.6292e-09
-1.90843e-09
-4.54662e-10
-1.09802e-10
-3.21678e-11
0.00626028
-0.00495017
-0.000826012
-0.000367752
-4.56504e-05
-4.9948e-05
1.65961e-05
-2.39648e-05
2.3154e-05
-3.1569e-06
-2.33374e-05
1.4325e-05
-1.71261e-05
1.28069e-05
-1.44626e-05
1.06785e-05
-1.21271e-05
8.7739e-06
-1.00382e-05
7.14824e-06
-8.22548e-06
5.78857e-06
-6.68966e-06
4.66667e-06
-5.41045e-06
3.7498e-06
-4.35788e-06
3.00559e-06
-3.4993e-06
2.40449e-06
-2.80335e-06
1.92071e-06
-2.24176e-06
1.53236e-06
-1.7901e-06
1.22124e-06
-1.42773e-06
9.7239e-07
-1.13755e-06
7.73616e-07
-9.05528e-07
6.15062e-07
-7.20271e-07
4.8879e-07
-5.7254e-07
3.88517e-07
-4.54475e-07
3.10959e-07
-3.52279e-07
2.86425e-07
-7.55927e-08
-2.81426e-07
1.45014e-07
-1.85788e-07
1.25792e-07
-1.46928e-07
1.02636e-07
-1.185e-07
8.42559e-08
-9.65075e-08
7.01091e-08
-7.95309e-08
5.93113e-08
-6.65409e-08
5.09992e-08
-5.68642e-08
4.33504e-08
-4.89823e-08
3.4408e-08
-4.03702e-08
2.49765e-08
-3.06471e-08
1.74898e-08
-2.39463e-08
4.40197e-09
-1.07918e-08
-2.1857e-09
-5.06548e-10
-1.21818e-10
-3.56548e-11
-0.00626238
0.00495185
0.000826485
0.00036776
4.59478e-05
4.97198e-05
-1.63345e-05
2.37159e-05
-2.28715e-05
3.12813e-06
2.30565e-05
-1.41453e-05
1.69142e-05
-1.26433e-05
1.42795e-05
-1.05392e-05
1.19703e-05
-8.65711e-06
9.90571e-06
-7.05128e-06
8.11483e-06
-5.70867e-06
6.59803e-06
-4.60123e-06
5.3351e-06
-3.69645e-06
4.29624e-06
-2.96227e-06
3.44913e-06
-2.36944e-06
2.76266e-06
-1.89244e-06
2.20888e-06
-1.50963e-06
1.7636e-06
-1.203e-06
1.40644e-06
-9.57791e-07
1.12048e-06
-7.61957e-07
8.91875e-07
-6.05771e-07
7.09375e-07
-4.81397e-07
5.63861e-07
-3.82639e-07
4.47579e-07
-3.06258e-07
3.46934e-07
-2.82101e-07
7.44355e-08
2.7717e-07
-1.42839e-07
1.82986e-07
-1.23914e-07
1.44721e-07
-1.01112e-07
1.16728e-07
-8.30164e-08
9.5075e-08
-6.90911e-08
7.83623e-08
-5.84679e-08
6.55785e-08
-5.02981e-08
5.60619e-08
-4.27887e-08
4.83248e-08
-3.39898e-08
3.98614e-08
-2.46856e-08
3.02762e-08
-1.73063e-08
2.36834e-08
-4.35576e-09
1.06757e-08
2.16225e-09
5.01133e-10
1.20517e-10
3.52978e-11
-0.00447183
0.00332622
0.000744166
0.000297877
4.82514e-05
3.71585e-05
-9.10235e-06
1.56881e-05
-1.53288e-05
2.25254e-06
1.59952e-05
-8.7596e-06
1.12133e-05
-8.00212e-06
9.44114e-06
-6.66444e-06
7.92168e-06
-5.46443e-06
6.56115e-06
-4.44437e-06
5.37849e-06
-3.59419e-06
4.37529e-06
-2.89456e-06
3.53909e-06
-2.32395e-06
2.85072e-06
-1.86151e-06
2.28908e-06
-1.48845e-06
1.83378e-06
-1.18848e-06
1.46638e-06
-9.47852e-07
1.1709e-06
-7.55191e-07
9.33847e-07
-6.01161e-07
7.44031e-07
-4.78177e-07
5.9227e-07
-3.80115e-07
4.711e-07
-3.02048e-07
3.74467e-07
-2.40108e-07
2.97123e-07
-1.92754e-07
2.28265e-07
-1.86437e-07
5.31088e-08
1.94282e-07
-8.65541e-08
1.22086e-07
-7.77197e-08
9.60131e-08
-6.36346e-08
7.73509e-08
-5.23405e-08
6.29317e-08
-4.36538e-08
5.1797e-08
-3.70344e-08
4.32804e-08
-3.19296e-08
3.69925e-08
-2.7132e-08
3.19925e-08
-2.13854e-08
2.65369e-08
-1.53396e-08
2.0246e-08
-1.05872e-08
1.61797e-08
-2.00931e-09
7.5471e-09
1.88792e-09
4.49788e-10
1.08628e-10
3.18348e-11
-0.00299326
0.00211574
0.000576384
0.000220105
4.09988e-05
2.59931e-05
-4.72097e-06
9.88509e-06
-9.73657e-06
1.52456e-06
1.04684e-05
-5.16779e-06
7.07563e-06
-4.83117e-06
5.94122e-06
-4.02053e-06
4.98912e-06
-3.29077e-06
4.13553e-06
-2.67265e-06
3.39212e-06
-2.15905e-06
2.76064e-06
-1.73737e-06
2.23375e-06
-1.39403e-06
1.79971e-06
-1.11612e-06
1.4454e-06
-8.92129e-07
1.15807e-06
-7.12139e-07
9.26153e-07
-5.6783e-07
7.39597e-07
-4.52329e-07
5.89911e-07
-3.60013e-07
4.70036e-07
-2.86322e-07
3.74184e-07
-2.27578e-07
2.97645e-07
-1.80825e-07
2.36593e-07
-1.43759e-07
1.87653e-07
-1.15774e-07
1.42947e-07
-1.17012e-07
3.56571e-08
1.28222e-07
-4.98937e-08
7.74832e-08
-4.6503e-08
6.06091e-08
-3.82103e-08
4.87754e-08
-3.14854e-08
3.96429e-08
-2.63154e-08
3.25876e-08
-2.23803e-08
2.71914e-08
-1.93365e-08
2.32364e-08
-1.64126e-08
2.01544e-08
-1.28379e-08
1.68004e-08
-9.09516e-09
1.28704e-08
-6.17375e-09
1.04732e-08
-7.73331e-10
5.02671e-09
1.44455e-09
3.54452e-10
8.60956e-11
2.52537e-11
-0.00171908
0.00117116
0.000361251
0.000135228
2.71702e-05
1.54471e-05
-2.15969e-06
5.44489e-06
-5.38532e-06
8.84248e-07
5.92039e-06
-2.69521e-06
3.90034e-06
-2.57066e-06
3.26771e-06
-2.13814e-06
2.74574e-06
-1.74751e-06
2.27735e-06
-1.4176e-06
1.86883e-06
-1.14416e-06
1.52144e-06
-9.20072e-07
1.23137e-06
-7.37873e-07
9.92283e-07
-5.90549e-07
7.97044e-07
-4.71894e-07
6.38668e-07
-3.76602e-07
5.10809e-07
-3.00231e-07
4.07945e-07
-2.39124e-07
3.25401e-07
-1.90296e-07
2.5929e-07
-1.51327e-07
2.06424e-07
-1.20267e-07
1.64205e-07
-9.55535e-08
1.30525e-07
-7.59746e-08
1.03493e-07
-6.13532e-08
7.83105e-08
-6.41506e-08
2.05588e-08
7.29452e-08
-2.54917e-08
4.2901e-08
-2.45604e-08
3.34155e-08
-2.02422e-08
2.68686e-08
-1.67048e-08
2.18209e-08
-1.39863e-08
1.792e-08
-1.19191e-08
1.49366e-08
-1.0316e-08
1.2762e-08
-8.74786e-09
1.10935e-08
-6.79963e-09
9.2821e-09
-4.76763e-09
7.13333e-09
-3.1892e-09
5.88162e-09
-2.19734e-10
2.88132e-09
9.01336e-10
2.26157e-10
5.52065e-11
1.62044e-11
-0.000560548
0.000374562
0.000122746
4.56221e-05
9.48064e-06
5.13081e-06
-6.11503e-07
1.73804e-06
-1.72165e-06
2.90055e-07
1.91554e-06
-8.33654e-07
1.2454e-06
-8.04623e-07
1.04208e-06
-6.6905e-07
8.75907e-07
-5.46366e-07
7.26728e-07
-4.42918e-07
5.9651e-07
-3.57299e-07
4.85715e-07
-2.87211e-07
3.93163e-07
-2.30268e-07
3.16857e-07
-1.84253e-07
2.54533e-07
-1.47207e-07
2.03968e-07
-1.17465e-07
1.63141e-07
-9.36348e-08
1.30294e-07
-7.45704e-08
1.03933e-07
-5.93387e-08
8.28199e-08
-4.7184e-08
6.59353e-08
-3.74975e-08
5.2451e-08
-2.9791e-08
4.16927e-08
-2.36882e-08
3.30524e-08
-1.91607e-08
2.49171e-08
-2.04125e-08
6.72131e-09
2.36732e-08
-7.78758e-09
1.37312e-08
-7.65467e-09
1.067e-08
-6.32014e-09
8.57552e-09
-5.22025e-09
6.96151e-09
-4.37517e-09
5.71395e-09
-3.7329e-09
4.75983e-09
-3.2341e-09
4.06639e-09
-2.74106e-09
3.53892e-09
-2.12298e-09
2.96701e-09
-1.47967e-09
2.28408e-09
-9.81174e-10
1.8964e-09
-3.45502e-11
9.38992e-10
3.05829e-10
7.76393e-11
1.90044e-11
5.57472e-12
0.000560571
-0.000374568
-0.000122751
-4.56265e-05
-9.48285e-06
-5.13157e-06
6.11477e-07
-1.73779e-06
1.72195e-06
-2.89778e-07
-1.91529e-06
8.33895e-07
-1.24517e-06
8.04832e-07
-1.04189e-06
6.69219e-07
-8.75758e-07
5.46498e-07
-7.26611e-07
4.43021e-07
-5.96419e-07
3.5738e-07
-4.85643e-07
2.87274e-07
-3.93107e-07
2.30318e-07
-3.16813e-07
1.84292e-07
-2.54497e-07
1.47239e-07
-2.0394e-07
1.1749e-07
-1.63119e-07
9.36543e-08
-1.30276e-07
7.45859e-08
-1.03919e-07
5.9351e-08
-8.28089e-08
4.71938e-08
-6.59266e-08
3.75053e-08
-5.2444e-08
2.97972e-08
-4.16872e-08
2.36931e-08
-3.30481e-08
1.91643e-08
-2.49142e-08
2.04147e-08
-6.71975e-09
-2.36718e-08
7.78906e-09
-1.37297e-08
7.65613e-09
-1.06687e-08
6.32134e-09
-8.57447e-09
5.22114e-09
-6.96076e-09
4.37578e-09
-5.71347e-09
3.73325e-09
-4.7596e-09
3.23421e-09
-4.06638e-09
2.74098e-09
-3.53907e-09
2.12277e-09
-2.96726e-09
1.47939e-09
-2.28436e-09
9.80904e-10
-1.89663e-09
3.43676e-11
-9.39117e-10
-3.05902e-10
-7.76753e-11
-1.90166e-11
-5.59659e-12
0.0017191
-0.00117117
-0.000361255
-0.000135231
-2.71716e-05
-1.54475e-05
2.15979e-06
-5.44461e-06
5.38562e-06
-8.83971e-07
-5.92014e-06
2.69544e-06
-3.90012e-06
2.57086e-06
-3.26753e-06
2.1383e-06
-2.7456e-06
1.74764e-06
-2.27724e-06
1.4177e-06
-1.86874e-06
1.14424e-06
-1.52137e-06
9.20135e-07
-1.23131e-06
7.37923e-07
-9.92238e-07
5.90589e-07
-7.97009e-07
4.71926e-07
-6.3864e-07
3.76626e-07
-5.10787e-07
3.00251e-07
-4.07927e-07
2.3914e-07
-3.25387e-07
1.90308e-07
-2.59279e-07
1.51337e-07
-2.06415e-07
1.20275e-07
-1.64198e-07
9.55598e-08
-1.30519e-07
7.59796e-08
-1.03489e-07
6.1357e-08
-7.83074e-08
6.41531e-08
-2.05569e-08
-7.29435e-08
2.54934e-08
-4.28994e-08
2.45619e-08
-3.34141e-08
2.02435e-08
-2.68675e-08
1.67057e-08
-2.18201e-08
1.3987e-08
-1.79195e-08
1.19195e-08
-1.49363e-08
1.03162e-08
-1.27618e-08
8.74789e-09
-1.10936e-08
6.79954e-09
-9.28224e-09
4.76747e-09
-7.13351e-09
3.18903e-09
-5.88178e-09
2.19611e-10
-2.88141e-09
-9.01385e-10
-2.26182e-10
-5.5214e-11
-1.62196e-11
0.00299326
-0.00211574
-0.000576384
-0.000220105
-4.09989e-05
-2.5993e-05
4.72118e-06
-9.88486e-06
9.73678e-06
-1.52438e-06
-1.04683e-05
5.16794e-06
-7.07549e-06
4.83129e-06
-5.94111e-06
4.02063e-06
-4.98903e-06
3.29085e-06
-4.13546e-06
2.67272e-06
-3.39207e-06
2.15911e-06
-2.76059e-06
1.73741e-06
-2.23371e-06
1.39406e-06
-1.79968e-06
1.11615e-06
-1.44538e-06
8.92151e-07
-1.15805e-06
7.12156e-07
-9.26137e-07
5.67844e-07
-7.39585e-07
4.5234e-07
-5.89901e-07
3.60021e-07
-4.70029e-07
2.86329e-07
-3.74178e-07
2.27583e-07
-2.9764e-07
1.80829e-07
-2.36589e-07
1.43763e-07
-1.8765e-07
1.15776e-07
-1.42945e-07
1.17014e-07
-3.56554e-08
-1.28221e-07
4.9895e-08
-7.7482e-08
4.65041e-08
-6.06081e-08
3.82112e-08
-4.87747e-08
3.14861e-08
-3.96423e-08
2.6316e-08
-3.25872e-08
2.23806e-08
-2.71911e-08
1.93368e-08
-2.32362e-08
1.64127e-08
-2.01543e-08
1.28379e-08
-1.68004e-08
9.09518e-09
-1.28704e-08
6.17374e-09
-1.04732e-08
7.73315e-10
-5.02673e-09
-1.44456e-09
-3.54456e-10
-8.60955e-11
-2.52567e-11
0.00447182
-0.00332622
-0.000744163
-0.000297874
-4.82499e-05
-3.71579e-05
9.10248e-06
-1.56881e-05
1.53287e-05
-2.25263e-06
-1.59952e-05
8.75951e-06
-1.12134e-05
8.00204e-06
-9.44121e-06
6.66438e-06
-7.92174e-06
5.46439e-06
-6.56118e-06
4.44433e-06
-5.37852e-06
3.59416e-06
-4.37532e-06
2.89454e-06
-3.5391e-06
2.32393e-06
-2.85073e-06
1.8615e-06
-2.28909e-06
1.48844e-06
-1.83379e-06
1.18847e-06
-1.46638e-06
9.47846e-07
-1.1709e-06
7.55187e-07
-9.33851e-07
6.01157e-07
-7.44035e-07
4.78174e-07
-5.92273e-07
3.80113e-07
-4.71102e-07
3.02046e-07
-3.74469e-07
2.40106e-07
-2.97124e-07
1.92753e-07
-2.28266e-07
1.86437e-07
-5.3109e-08
-1.94282e-07
8.65538e-08
-1.22086e-07
7.77193e-08
-9.60135e-08
6.36342e-08
-7.73512e-08
5.23402e-08
-6.29319e-08
4.36537e-08
-5.17971e-08
3.70344e-08
-4.32804e-08
3.19296e-08
-3.69924e-08
2.71321e-08
-3.19924e-08
2.13856e-08
-2.65367e-08
1.53398e-08
-2.02458e-08
1.05874e-08
-1.61796e-08
2.00943e-09
-7.54702e-09
-1.88788e-09
-4.49766e-10
-1.0862e-10
-3.18215e-11
0.00626235
-0.00495185
-0.00082648
-0.000367755
-4.59457e-05
-4.97194e-05
1.63341e-05
-2.37166e-05
2.28708e-05
-3.12878e-06
-2.30571e-05
1.41447e-05
-1.69147e-05
1.26428e-05
-1.428e-05
1.05388e-05
-1.19706e-05
8.65682e-06
-9.90597e-06
7.05104e-06
-8.11504e-06
5.70848e-06
-6.5982e-06
4.60108e-06
-5.33523e-06
3.69633e-06
-4.29635e-06
2.96218e-06
-3.44921e-06
2.36937e-06
-2.76272e-06
1.89238e-06
-2.20893e-06
1.50958e-06