/*--------------------------------*- C++ -*----------------------------------*\
| =========                 |                                                 |
| \\      /  F ield         | OpenFOAM: The Open Source CFD Toolbox           |
|  \\    /   O peration     | Version:  5.x                                   |
|   \\  /    A nd           | Web:      www.OpenFOAM.org                      |
|    \\/     M anipulation  |                                                 |
\*---------------------------------------------------------------------------*/
FoamFile
{
    version     2.0;
    format      ascii;
    class       volScalarField;
    location    "2.4";
    object      gradTx;
}
// * * * * * * * * * * * * * * * * * * * * * * * * * * * * * * * * * * * * * //

dimensions      [0 -1 0 1 0 0 0];

internalField   nonuniform List<scalar> 
3200
(
0.000559175
-3.21065e-05
-6.60829e-05
-6.73294e-05
-5.68073e-05
-5.55375e-05
-4.01872e-05
-3.89288e-05
-2.84975e-05
-4.35676e-05
-2.00585e-05
-1.42476e-05
-1.36662e-05
-1.03599e-05
-1.00581e-05
-7.7274e-06
-7.51587e-06
-5.81372e-06
-5.65842e-06
-4.39295e-06
-4.27701e-06
-3.32594e-06
-3.23858e-06
-2.51906e-06
-2.45288e-06
-1.90649e-06
-1.8562e-06
-1.44053e-06
-1.40226e-06
-1.08587e-06
-1.05675e-06
-8.16057e-07
-7.93915e-07
-6.11024e-07
-5.94212e-07
-4.55491e-07
-4.42751e-07
-3.37773e-07
-3.28143e-07
-2.4892e-07
-2.41663e-07
-1.82075e-07
-1.76626e-07
-1.31987e-07
-1.27913e-07
-9.46405e-08
-9.16209e-08
-6.7012e-08
-6.49521e-08
-4.80127e-08
-7.25622e-08
-3.27545e-08
-2.1576e-08
-2.04681e-08
-1.38007e-08
-1.32043e-08
-8.68345e-09
-8.28936e-09
-5.29735e-09
-5.0403e-09
-3.12934e-09
-2.96738e-09
-1.79202e-09
-1.69363e-09
-9.96328e-10
-9.38568e-10
-5.37954e-10
-5.05047e-10
-2.80944e-10
-2.62641e-10
-1.39788e-10
-1.29548e-10
-5.82532e-11
-5.24806e-11
-1.3903e-11
-1.13025e-11
-7.3608e-13
-1.3493e-13
-3.05402e-14
6.98662e-12
0.000556873
-3.38132e-05
-6.27084e-05
-6.56095e-05
-5.72445e-05
-5.43683e-05
-4.13672e-05
-3.85226e-05
-3.04638e-05
-4.0193e-05
-2.14231e-05
-1.49959e-05
-1.35698e-05
-1.0633e-05
-9.92883e-06
-7.90665e-06
-7.41645e-06
-5.94319e-06
-5.58355e-06
-4.48881e-06
-4.22038e-06
-3.39781e-06
-3.19557e-06
-2.57336e-06
-2.42015e-06
-1.9477e-06
-1.83127e-06
-1.47186e-06
-1.38328e-06
-1.10973e-06
-1.04232e-06
-8.3421e-07
-7.82954e-07
-6.24824e-07
-5.85907e-07
-4.65964e-07
-4.36474e-07
-3.45705e-07
-3.23413e-07
-2.54911e-07
-2.38112e-07
-1.86586e-07
-1.73972e-07
-1.35371e-07
-1.25942e-07
-9.71729e-08
-9.01879e-08
-6.89843e-08
-6.43018e-08
-5.11838e-08
-6.69004e-08
-3.49525e-08
-2.29369e-08
-2.02387e-08
-1.43482e-08
-1.29588e-08
-9.03861e-09
-8.12533e-09
-5.53352e-09
-4.93795e-09
-3.28158e-09
-2.90621e-09
-1.88653e-09
-1.65839e-09
-1.05287e-09
-9.18888e-10
-5.70673e-10
-4.94309e-10
-2.99346e-10
-2.56851e-10
-1.49816e-10
-1.26043e-10
-6.41113e-11
-5.07267e-11
-1.73095e-11
-1.12657e-11
-1.8096e-12
-3.84904e-13
-8.84371e-14
6.96761e-12
0.000554986
-3.47815e-05
-6.03733e-05
-6.434e-05
-5.74619e-05
-5.36039e-05
-4.21406e-05
-3.83248e-05
-3.17183e-05
-3.79581e-05
-2.22938e-05
-1.5544e-05
-1.35338e-05
-1.08166e-05
-9.8522e-06
-8.02457e-06
-7.35631e-06
-6.02807e-06
-5.53805e-06
-4.55158e-06
-4.18589e-06
-3.44485e-06
-3.16934e-06
-2.60888e-06
-2.40017e-06
-1.97465e-06
-1.81605e-06
-1.49236e-06
-1.37169e-06
-1.12533e-06
-1.0335e-06
-8.46082e-07
-7.76264e-07
-6.3385e-07
-5.80839e-07
-4.72816e-07
-4.32645e-07
-3.50895e-07
-3.2053e-07
-2.58833e-07
-2.35949e-07
-1.8954e-07
-1.72356e-07
-1.37588e-07
-1.24743e-07
-9.88331e-08
-8.93229e-08
-7.02952e-08
-6.39884e-08
-5.32011e-08
-6.31448e-08
-3.6353e-08
-2.39249e-08
-2.01367e-08
-1.47155e-08
-1.28145e-08
-9.27343e-09
-8.02839e-09
-5.6898e-09
-4.878e-09
-3.38256e-09
-2.87078e-09
-1.94936e-09
-1.63824e-09
-1.09055e-09
-9.0777e-10
-5.92513e-10
-4.8831e-10
-3.11646e-10
-2.53641e-10
-1.56513e-10
-1.24064e-10
-6.80268e-11
-4.97735e-11
-1.96208e-11
-1.13653e-11
-2.56178e-12
-5.89711e-13
-1.37349e-13
6.95146e-12
0.000553658
-3.52915e-05
-5.89028e-05
-6.35038e-05
-5.75579e-05
-5.31431e-05
-4.26077e-05
-3.82381e-05
-3.24585e-05
-3.6599e-05
-2.28078e-05
-1.59023e-05
-1.35259e-05
-1.093e-05
-9.80999e-06
-8.09602e-06
-7.32249e-06
-6.07935e-06
-5.51235e-06
-4.58946e-06
-4.16636e-06
-3.47322e-06
-3.15447e-06
-2.6303e-06
-2.38884e-06
-1.99089e-06
-1.80742e-06
-1.50471e-06
-1.36512e-06
-1.13473e-06
-1.0285e-06
-8.5324e-07
-7.72469e-07
-6.39293e-07
-5.77965e-07
-4.76948e-07
-4.30475e-07
-3.54025e-07
-3.18896e-07
-2.61198e-07
-2.34724e-07
-1.91322e-07
-1.71442e-07
-1.38926e-07
-1.24066e-07
-9.98361e-08
-8.88376e-08
-7.10964e-08
-6.38536e-08
-5.43885e-08
-6.08581e-08
-3.71784e-08
-2.4567e-08
-2.00999e-08
-1.49418e-08
-1.27357e-08
-9.41628e-09
-7.9751e-09
-5.78493e-09
-4.84533e-09
-3.44414e-09
-2.85171e-09
-1.98776e-09
-1.62753e-09
-1.11361e-09
-9.0194e-10
-6.05902e-10
-4.85203e-10
-3.19195e-10
-2.51993e-10
-1.6062e-10
-1.23027e-10
-7.04298e-11
-4.92957e-11
-2.10558e-11
-1.14865e-11
-3.04058e-12
-7.33668e-13
-1.72629e-13
6.93974e-12
0.000552975
-3.55084e-05
-5.8192e-05
-6.30888e-05
-5.75919e-05
-5.29265e-05
-4.28276e-05
-3.82073e-05
-3.28015e-05
-3.59568e-05
-2.30459e-05
-1.60791e-05
-1.35265e-05
-1.09842e-05
-9.79139e-06
-8.12972e-06
-7.30735e-06
-6.1035e-06
-5.5008e-06
-4.60729e-06
-4.15757e-06
-3.48656e-06
-3.14778e-06
-2.64038e-06
-2.38374e-06
-1.99854e-06
-1.80353e-06
-1.51052e-06
-1.36215e-06
-1.13915e-06
-1.02625e-06
-8.56606e-07
-7.70758e-07
-6.41852e-07
-5.7667e-07
-4.78891e-07
-4.29497e-07
-3.55497e-07
-3.18161e-07
-2.62311e-07
-2.34173e-07
-1.92161e-07
-1.71031e-07
-1.39555e-07
-1.23762e-07
-1.00308e-07
-8.86208e-08
-7.14766e-08
-6.38067e-08
-5.49377e-08
-5.97767e-08
-3.75606e-08
-2.48829e-08
-2.00903e-08
-1.50497e-08
-1.27011e-08
-9.48385e-09
-7.95165e-09
-5.82994e-09
-4.83106e-09
-3.47332e-09
-2.84345e-09
-2.00597e-09
-1.62294e-09
-1.12456e-09
-8.9947e-10
-6.12267e-10
-4.83902e-10
-3.22787e-10
-2.51307e-10
-1.62573e-10
-1.22588e-10
-7.1573e-11
-4.91012e-11
-2.17435e-11
-1.15625e-11
-3.27366e-12
-8.07716e-13
-1.91078e-13
6.93358e-12
0.000552976
-3.55087e-05
-5.81921e-05
-6.30888e-05
-5.75919e-05
-5.29266e-05
-4.28276e-05
-3.82073e-05
-3.28015e-05
-3.59568e-05
-2.30459e-05
-1.60791e-05
-1.35265e-05
-1.09842e-05
-9.79139e-06
-8.12972e-06
-7.30735e-06
-6.1035e-06
-5.5008e-06
-4.60729e-06
-4.15757e-06
-3.48656e-06
-3.14778e-06
-2.64038e-06
-2.38374e-06
-1.99854e-06
-1.80353e-06
-1.51052e-06
-1.36215e-06
-1.13915e-06
-1.02625e-06
-8.56606e-07
-7.70758e-07
-6.41852e-07
-5.7667e-07
-4.78891e-07
-4.29497e-07
-3.55498e-07
-3.18161e-07
-2.62311e-07
-2.34173e-07
-1.92161e-07
-1.71031e-07
-1.39555e-07
-1.23762e-07
-1.00308e-07
-8.86208e-08
-7.14766e-08
-6.38067e-08
-5.49377e-08
-5.97767e-08
-3.75606e-08
-2.48829e-08
-2.00903e-08
-1.50497e-08
-1.27011e-08
-9.48385e-09
-7.95165e-09
-5.82994e-09
-4.83106e-09
-3.47332e-09
-2.84345e-09
-2.00597e-09
-1.62294e-09
-1.12456e-09
-8.9947e-10
-6.12266e-10
-4.83902e-10
-3.22787e-10
-2.51307e-10
-1.62573e-10
-1.22588e-10
-7.1573e-11
-4.91011e-11
-2.17434e-11
-1.15625e-11
-3.27365e-12
-8.07709e-13
-1.91071e-13
6.93358e-12
0.000553659
-3.52922e-05
-5.89029e-05
-6.35039e-05
-5.75579e-05
-5.31432e-05
-4.26077e-05
-3.82381e-05
-3.24585e-05
-3.6599e-05
-2.28078e-05
-1.59023e-05
-1.35259e-05
-1.093e-05
-9.80999e-06
-8.09602e-06
-7.32249e-06
-6.07936e-06
-5.51235e-06
-4.58947e-06
-4.16636e-06
-3.47322e-06
-3.15448e-06
-2.63031e-06
-2.38884e-06
-1.9909e-06
-1.80742e-06
-1.50472e-06
-1.36512e-06
-1.13473e-06
-1.0285e-06
-8.53241e-07
-7.72469e-07
-6.39293e-07
-5.77965e-07
-4.76948e-07
-4.30475e-07
-3.54025e-07
-3.18896e-07
-2.61198e-07
-2.34724e-07
-1.91322e-07
-1.71442e-07
-1.38926e-07
-1.24066e-07
-9.98361e-08
-8.88376e-08
-7.10964e-08
-6.38536e-08
-5.43885e-08
-6.08581e-08
-3.71784e-08
-2.4567e-08
-2.00999e-08
-1.49418e-08
-1.27357e-08
-9.41627e-09
-7.9751e-09
-5.78493e-09
-4.84533e-09
-3.44414e-09
-2.85171e-09
-1.98776e-09
-1.62753e-09
-1.11361e-09
-9.01939e-10
-6.05901e-10
-4.85203e-10
-3.19195e-10
-2.51992e-10
-1.6062e-10
-1.23027e-10
-7.04297e-11
-4.92956e-11
-2.10557e-11
-1.14865e-11
-3.04055e-12
-7.33651e-13
-1.72611e-13
6.93974e-12
0.000554987
-3.47824e-05
-6.03734e-05
-6.43401e-05
-5.74619e-05
-5.36039e-05
-4.21407e-05
-3.83248e-05
-3.17183e-05
-3.79581e-05
-2.22938e-05
-1.5544e-05
-1.35338e-05
-1.08166e-05
-9.8522e-06
-8.02457e-06
-7.35632e-06
-6.02808e-06
-5.53805e-06
-4.55158e-06
-4.18589e-06
-3.44485e-06
-3.16934e-06
-2.60888e-06
-2.40017e-06
-1.97465e-06
-1.81605e-06
-1.49236e-06
-1.37169e-06
-1.12533e-06
-1.03351e-06
-8.46082e-07
-7.76264e-07
-6.3385e-07
-5.80839e-07
-4.72816e-07
-4.32645e-07
-3.50895e-07
-3.2053e-07
-2.58833e-07
-2.35949e-07
-1.8954e-07
-1.72356e-07
-1.37588e-07
-1.24743e-07
-9.88331e-08
-8.93229e-08
-7.02952e-08
-6.39885e-08
-5.32011e-08
-6.31448e-08
-3.6353e-08
-2.39249e-08
-2.01367e-08
-1.47155e-08
-1.28145e-08
-9.27342e-09
-8.02839e-09
-5.68979e-09
-4.878e-09
-3.38256e-09
-2.87078e-09
-1.94936e-09
-1.63824e-09
-1.09054e-09
-9.07769e-10
-5.92512e-10
-4.88309e-10
-3.11645e-10
-2.53641e-10
-1.56512e-10
-1.24064e-10
-6.80266e-11
-4.97734e-11
-1.96207e-11
-1.13652e-11
-2.56174e-12
-5.89688e-13
-1.37325e-13
6.95146e-12
0.000556874
-3.3814e-05
-6.27085e-05
-6.56097e-05
-5.72446e-05
-5.43684e-05
-4.13672e-05
-3.85227e-05
-3.04638e-05
-4.0193e-05
-2.14231e-05
-1.49959e-05
-1.35698e-05
-1.0633e-05
-9.92883e-06
-7.90666e-06
-7.41646e-06
-5.94319e-06
-5.58355e-06
-4.48881e-06
-4.22038e-06
-3.39781e-06
-3.19557e-06
-2.57336e-06
-2.42015e-06
-1.9477e-06
-1.83127e-06
-1.47186e-06
-1.38328e-06
-1.10973e-06
-1.04232e-06
-8.3421e-07
-7.82955e-07
-6.24824e-07
-5.85907e-07
-4.65964e-07
-4.36474e-07
-3.45705e-07
-3.23414e-07
-2.54911e-07
-2.38112e-07
-1.86587e-07
-1.73972e-07
-1.35371e-07
-1.25942e-07
-9.71729e-08
-9.01879e-08
-6.89843e-08
-6.43018e-08
-5.11838e-08
-6.69004e-08
-3.49525e-08
-2.29369e-08
-2.02387e-08
-1.43482e-08
-1.29588e-08
-9.03861e-09
-8.12533e-09
-5.53352e-09
-4.93795e-09
-3.28158e-09
-2.9062e-09
-1.88653e-09
-1.65839e-09
-1.05287e-09
-9.18887e-10
-5.70673e-10
-4.94308e-10
-2.99345e-10
-2.56851e-10
-1.49816e-10
-1.26043e-10
-6.41112e-11
-5.07266e-11
-1.73094e-11
-1.12656e-11
-1.80956e-12
-3.84885e-13
-8.84152e-14
6.96762e-12
0.000559176
-3.21069e-05
-6.60829e-05
-6.73295e-05
-5.68073e-05
-5.55375e-05
-4.01872e-05
-3.89288e-05
-2.84975e-05
-4.35676e-05
-2.00585e-05
-1.42476e-05
-1.36662e-05
-1.03599e-05
-1.00581e-05
-7.7274e-06
-7.51587e-06
-5.81373e-06
-5.65842e-06
-4.39295e-06
-4.27702e-06
-3.32594e-06
-3.23858e-06
-2.51906e-06
-2.45288e-06
-1.90649e-06
-1.8562e-06
-1.44053e-06
-1.40226e-06
-1.08587e-06
-1.05675e-06
-8.16058e-07
-7.93915e-07
-6.11024e-07
-5.94212e-07
-4.55491e-07
-4.42751e-07
-3.37773e-07
-3.28143e-07
-2.4892e-07
-2.41663e-07
-1.82075e-07
-1.76626e-07
-1.31987e-07
-1.27913e-07
-9.46406e-08
-9.1621e-08
-6.7012e-08
-6.49521e-08
-4.80127e-08
-7.25622e-08
-3.27545e-08
-2.1576e-08
-2.04681e-08
-1.38007e-08
-1.32043e-08
-8.68345e-09
-8.28936e-09
-5.29735e-09
-5.0403e-09
-3.12934e-09
-2.96738e-09
-1.79202e-09
-1.69363e-09
-9.96328e-10
-9.38568e-10
-5.37954e-10
-5.05047e-10
-2.80944e-10
-2.62641e-10
-1.39787e-10
-1.29548e-10
-5.82532e-11
-5.24806e-11
-1.3903e-11
-1.13024e-11
-7.36066e-13
-1.34922e-13
-3.05307e-14
6.98662e-12
0.00631577
-0.00519165
-0.000435435
-0.000201008
-5.58694e-05
-4.18076e-05
-3.04424e-05
-2.93624e-05
-2.76994e-05
-4.73382e-05
-2.47021e-05
-2.09024e-05
-2.04586e-05
-1.76416e-05
-1.73536e-05
-1.47576e-05
-1.45017e-05
-1.21924e-05
-1.19682e-05
-9.97676e-06
-9.78526e-06
-8.10561e-06
-7.94519e-06
-6.55066e-06
-6.41812e-06
-5.27328e-06
-5.16483e-06
-4.23253e-06
-4.14444e-06
-3.38962e-06
-3.31842e-06
-2.70986e-06
-2.65253e-06
-2.1634e-06
-2.11737e-06
-1.72512e-06
-1.68824e-06
-1.37426e-06
-1.34475e-06
-1.0938e-06
-1.07023e-06
-8.69933e-07
-8.51133e-07
-6.91508e-07
-6.76541e-07
-5.49564e-07
-5.37744e-07
-4.37259e-07
-4.2938e-07
-3.59846e-07
-5.82985e-07
-2.86848e-07
-2.24051e-07
-2.1742e-07
-1.78065e-07
-1.74342e-07
-1.43953e-07
-1.41129e-07
-1.17564e-07
-1.15383e-07
-9.72206e-08
-9.55448e-08
-8.16426e-08
-8.03578e-08
-6.97144e-08
-6.867e-08
-5.94135e-08
-5.83986e-08
-4.82564e-08
-4.71662e-08
-3.63337e-08
-3.52962e-08
-2.63546e-08
-2.51588e-08
-1.10721e-08
-9.87531e-09
-6.02055e-10
-1.07316e-10
-2.418e-11
-1.74698e-09
0.0061898
-0.00458319
-0.000803241
-0.000277258
-8.50283e-05
-4.79784e-05
-3.2835e-05
-3.00298e-05
-2.93541e-05
-4.35345e-05
-2.60735e-05
-2.14563e-05
-2.03542e-05
-1.78573e-05
-1.71869e-05
-1.49444e-05
-1.43523e-05
-1.23596e-05
-1.18409e-05
-1.0122e-05
-9.67904e-06
-8.22879e-06
-7.85767e-06
-6.65333e-06
-6.34667e-06
-5.3578e-06
-5.10688e-06
-4.3015e-06
-4.09766e-06
-3.44553e-06
-3.28078e-06
-2.75499e-06
-2.62233e-06
-2.1997e-06
-2.09318e-06
-1.75425e-06
-1.66889e-06
-1.39759e-06
-1.3293e-06
-1.11245e-06
-1.05791e-06
-8.84827e-07
-8.41321e-07
-7.03387e-07
-6.68753e-07
-5.59066e-07
-5.31761e-07
-4.45626e-07
-4.28159e-07
-3.81661e-07
-5.36584e-07
-3.04242e-07
-2.32492e-07
-2.16151e-07
-1.81238e-07
-1.72559e-07
-1.46244e-07
-1.39706e-07
-1.19335e-07
-1.14288e-07
-9.85884e-08
-9.47094e-08
-8.26891e-08
-7.97136e-08
-7.049e-08
-6.80693e-08
-6.00368e-08
-5.76868e-08
-4.89365e-08
-4.64179e-08
-3.711e-08
-3.47056e-08
-2.68697e-08
-2.41078e-08
-1.21297e-08
-9.37808e-09
-1.45501e-09
-3.05476e-10
-7.00014e-11
-1.76233e-09
0.00608672
-0.00414882
-0.00104088
-0.000340155
-0.000107978
-5.32719e-05
-3.47336e-05
-3.06117e-05
-3.04143e-05
-4.09963e-05
-2.69309e-05
-2.18696e-05
-2.03055e-05
-1.79999e-05
-1.70829e-05
-1.5065e-05
-1.42588e-05
-1.24677e-05
-1.17616e-05
-1.02162e-05
-9.61305e-06
-8.30875e-06
-7.80343e-06
-6.72005e-06
-6.30246e-06
-5.41276e-06
-5.07108e-06
-4.34637e-06
-4.06878e-06
-3.48193e-06
-3.25757e-06
-2.78437e-06
-2.60371e-06
-2.22334e-06
-2.07827e-06
-1.77322e-06
-1.65697e-06
-1.41278e-06
-1.31978e-06
-1.1246e-06
-1.05032e-06
-8.94532e-07
-8.35281e-07
-7.11129e-07
-6.63963e-07
-5.65269e-07
-5.28127e-07
-4.51243e-07
-4.28096e-07
-3.95416e-07
-5.05672e-07
-3.15209e-07
-2.38713e-07
-2.15625e-07
-1.83361e-07
-1.71481e-07
-1.47743e-07
-1.38835e-07
-1.20493e-07
-1.13618e-07
-9.94826e-08
-9.4199e-08
-8.33733e-08
-7.93188e-08
-7.0993e-08
-6.76926e-08
-6.04323e-08
-5.72307e-08
-4.93669e-08
-4.59408e-08
-3.761e-08
-3.4332e-08
-2.71817e-08
-2.34253e-08
-1.28182e-08
-9.08762e-09
-2.03697e-09
-4.6705e-10
-1.08681e-10
-1.77538e-09
0.00601435
-0.00386951
-0.00118223
-0.000384306
-0.000123826
-5.71171e-05
-3.60546e-05
-3.10361e-05
-3.10429e-05
-3.94436e-05
-2.7428e-05
-2.21426e-05
-2.02862e-05
-1.80867e-05
-1.70229e-05
-1.51369e-05
-1.42046e-05
-1.25323e-05
-1.17158e-05
-1.02725e-05
-9.575e-06
-8.35666e-06
-7.77222e-06
-6.76006e-06
-6.27707e-06
-5.44575e-06
-5.05053e-06
-4.37331e-06
-4.05223e-06
-3.50379e-06
-3.24427e-06
-2.80202e-06
-2.59305e-06
-2.23754e-06
-2.06973e-06
-1.78462e-06
-1.65015e-06
-1.42191e-06
-1.31434e-06
-1.13191e-06
-1.04598e-06
-9.00366e-07
-8.31827e-07
-7.15783e-07
-6.61226e-07
-5.69004e-07
-5.26077e-07
-4.54705e-07
-4.2841e-07
-4.03448e-07
-4.86785e-07
-3.21614e-07
-2.42796e-07
-2.15462e-07
-1.84666e-07
-1.70874e-07
-1.48648e-07
-1.3834e-07
-1.2119e-07
-1.13238e-07
-1.00022e-07
-9.39092e-08
-8.37856e-08
-7.9094e-08
-7.12941e-08
-6.74735e-08
-6.06648e-08
-5.69604e-08
-4.96194e-08
-4.56594e-08
-3.79074e-08
-3.41129e-08
-2.73576e-08
-2.30166e-08
-1.32315e-08
-8.92985e-09
-2.39964e-09
-5.80126e-10
-1.36558e-10
-1.78484e-09
0.00597716
-0.0037329
-0.00124799
-0.000406952
-0.00013192
-5.91345e-05
-3.67329e-05
-3.12589e-05
-3.13353e-05
-3.87072e-05
-2.76554e-05
-2.22782e-05
-2.02804e-05
-1.81278e-05
-1.69954e-05
-1.51705e-05
-1.41797e-05
-1.25625e-05
-1.16948e-05
-1.02988e-05
-9.55765e-06
-8.3791e-06
-7.75802e-06
-6.77881e-06
-6.26553e-06
-5.46121e-06
-5.0412e-06
-4.38594e-06
-4.04471e-06
-3.51404e-06
-3.23824e-06
-2.8103e-06
-2.58821e-06
-2.24421e-06
-2.06586e-06
-1.78997e-06
-1.64706e-06
-1.4262e-06
-1.31187e-06
-1.13533e-06
-1.04401e-06
-9.03103e-07
-8.30262e-07
-7.17967e-07
-6.59986e-07
-5.70758e-07
-5.25158e-07
-4.56357e-07
-4.28664e-07
-4.07143e-07
-4.77833e-07
-3.2456e-07
-2.44815e-07
-2.15435e-07
-1.85287e-07
-1.70603e-07
-1.49073e-07
-1.38116e-07
-1.21518e-07
-1.13066e-07
-1.00275e-07
-9.37786e-08
-8.39795e-08
-7.89925e-08
-7.14351e-08
-6.7373e-08
-6.07723e-08
-5.68348e-08
-4.97358e-08
-4.5529e-08
-3.80459e-08
-3.40118e-08
-2.74366e-08
-2.28254e-08
-1.34252e-08
-8.86108e-09
-2.5738e-09
-6.38119e-10
-1.51129e-10
-1.78982e-09
0.00597716
-0.0037329
-0.00124799
-0.000406952
-0.00013192
-5.91344e-05
-3.67328e-05
-3.12588e-05
-3.13353e-05
-3.87072e-05
-2.76554e-05
-2.22782e-05
-2.02804e-05
-1.81278e-05
-1.69954e-05
-1.51705e-05
-1.41797e-05
-1.25625e-05
-1.16948e-05
-1.02988e-05
-9.55765e-06
-8.3791e-06
-7.75802e-06
-6.77881e-06
-6.26553e-06
-5.46121e-06
-5.0412e-06
-4.38594e-06
-4.04471e-06
-3.51404e-06
-3.23824e-06
-2.8103e-06
-2.58821e-06
-2.24421e-06
-2.06586e-06
-1.78997e-06
-1.64706e-06
-1.4262e-06
-1.31187e-06
-1.13533e-06
-1.04401e-06
-9.03103e-07
-8.30262e-07
-7.17967e-07
-6.59987e-07
-5.70758e-07
-5.25158e-07
-4.56357e-07
-4.28664e-07
-4.07143e-07
-4.77833e-07
-3.2456e-07
-2.44815e-07
-2.15435e-07
-1.85287e-07
-1.70603e-07
-1.49073e-07
-1.38116e-07
-1.21518e-07
-1.13066e-07
-1.00275e-07
-9.37786e-08
-8.39795e-08
-7.89925e-08
-7.14351e-08
-6.7373e-08
-6.07723e-08
-5.68349e-08
-4.97358e-08
-4.5529e-08
-3.80459e-08
-3.40118e-08
-2.74366e-08
-2.28254e-08
-1.34251e-08
-8.86107e-09
-2.57379e-09
-6.38115e-10
-1.51128e-10
-1.78981e-09
0.00601435
-0.00386952
-0.00118223
-0.000384305
-0.000123826
-5.71168e-05
-3.60545e-05
-3.10361e-05
-3.10429e-05
-3.94436e-05
-2.7428e-05
-2.21426e-05
-2.02862e-05
-1.80867e-05
-1.70229e-05
-1.51369e-05
-1.42046e-05
-1.25323e-05
-1.17158e-05
-1.02725e-05
-9.575e-06
-8.35666e-06
-7.77222e-06
-6.76006e-06
-6.27707e-06
-5.44575e-06
-5.05054e-06
-4.37331e-06
-4.05223e-06
-3.50379e-06
-3.24427e-06
-2.80202e-06
-2.59305e-06
-2.23754e-06
-2.06973e-06
-1.78462e-06
-1.65015e-06
-1.42191e-06
-1.31434e-06
-1.13191e-06
-1.04598e-06
-9.00366e-07
-8.31827e-07
-7.15783e-07
-6.61226e-07
-5.69004e-07
-5.26077e-07
-4.54705e-07
-4.2841e-07
-4.03449e-07
-4.86785e-07
-3.21614e-07
-2.42796e-07
-2.15462e-07
-1.84666e-07
-1.70875e-07
-1.48648e-07
-1.3834e-07
-1.2119e-07
-1.13238e-07
-1.00022e-07
-9.39093e-08
-8.37856e-08
-7.90941e-08
-7.12941e-08
-6.74735e-08
-6.06649e-08
-5.69605e-08
-4.96194e-08
-4.56594e-08
-3.79074e-08
-3.41129e-08
-2.73576e-08
-2.30166e-08
-1.32315e-08
-8.92983e-09
-2.39963e-09
-5.80117e-10
-1.36556e-10
-1.78484e-09
0.00608672
-0.00414882
-0.00104088
-0.000340155
-0.000107977
-5.32715e-05
-3.47334e-05
-3.06117e-05
-3.04143e-05
-4.09963e-05
-2.6931e-05
-2.18696e-05
-2.03055e-05
-1.79999e-05
-1.70829e-05
-1.5065e-05
-1.42588e-05
-1.24677e-05
-1.17616e-05
-1.02162e-05
-9.61305e-06
-8.30876e-06
-7.80343e-06
-6.72006e-06
-6.30246e-06
-5.41277e-06
-5.07108e-06
-4.34637e-06
-4.06878e-06
-3.48193e-06
-3.25757e-06
-2.78437e-06
-2.60371e-06
-2.22334e-06
-2.07827e-06
-1.77322e-06
-1.65697e-06
-1.41278e-06
-1.31979e-06
-1.1246e-06
-1.05032e-06
-8.94533e-07
-8.35281e-07
-7.11129e-07
-6.63963e-07
-5.6527e-07
-5.28128e-07
-4.51243e-07
-4.28096e-07
-3.95416e-07
-5.05673e-07
-3.15209e-07
-2.38713e-07
-2.15625e-07
-1.83361e-07
-1.71481e-07
-1.47743e-07
-1.38835e-07
-1.20493e-07
-1.13618e-07
-9.94827e-08
-9.4199e-08
-8.33733e-08
-7.93189e-08
-7.0993e-08
-6.76926e-08
-6.04324e-08
-5.72307e-08
-4.9367e-08
-4.59408e-08
-3.761e-08
-3.4332e-08
-2.71817e-08
-2.34253e-08
-1.28182e-08
-9.0876e-09
-2.03696e-09
-4.67038e-10
-1.08678e-10
-1.77537e-09
0.0061898
-0.00458319
-0.00080324
-0.000277258
-8.50277e-05
-4.7978e-05
-3.28349e-05
-3.00298e-05
-2.93541e-05
-4.35346e-05
-2.60735e-05
-2.14564e-05
-2.03542e-05
-1.78573e-05
-1.71869e-05
-1.49444e-05
-1.43523e-05
-1.23596e-05
-1.18409e-05
-1.0122e-05
-9.67904e-06
-8.2288e-06
-7.85767e-06
-6.65334e-06
-6.34667e-06
-5.3578e-06
-5.10689e-06
-4.3015e-06
-4.09766e-06
-3.44554e-06
-3.28079e-06
-2.75499e-06
-2.62233e-06
-2.1997e-06
-2.09318e-06
-1.75425e-06
-1.66889e-06
-1.39759e-06
-1.3293e-06
-1.11245e-06
-1.05791e-06
-8.84828e-07
-8.41322e-07
-7.03388e-07
-6.68754e-07
-5.59067e-07
-5.31761e-07
-4.45626e-07
-4.28159e-07
-3.81661e-07
-5.36585e-07
-3.04242e-07
-2.32492e-07
-2.16152e-07
-1.81238e-07
-1.72559e-07
-1.46244e-07
-1.39706e-07
-1.19335e-07
-1.14288e-07
-9.85885e-08
-9.47094e-08
-8.26892e-08
-7.97137e-08
-7.04901e-08
-6.80693e-08
-6.00368e-08
-5.76869e-08
-4.89365e-08
-4.64179e-08
-3.711e-08
-3.47056e-08
-2.68697e-08
-2.41078e-08
-1.21297e-08
-9.37806e-09
-1.45499e-09
-3.05465e-10
-6.99993e-11
-1.76233e-09
0.00631577
-0.00519165
-0.000435435
-0.000201008
-5.58692e-05
-4.18074e-05
-3.04423e-05
-2.93624e-05
-2.76994e-05
-4.73382e-05
-2.47021e-05
-2.09024e-05
-2.04586e-05
-1.76416e-05
-1.73536e-05
-1.47576e-05
-1.45017e-05
-1.21924e-05
-1.19682e-05
-9.97676e-06
-9.78526e-06
-8.10561e-06
-7.94519e-06
-6.55067e-06
-6.41812e-06
-5.27328e-06
-5.16484e-06
-4.23253e-06
-4.14444e-06
-3.38962e-06
-3.31842e-06
-2.70986e-06
-2.65253e-06
-2.1634e-06
-2.11737e-06
-1.72513e-06
-1.68824e-06
-1.37426e-06
-1.34475e-06
-1.0938e-06
-1.07023e-06
-8.69933e-07
-8.51134e-07
-6.91509e-07
-6.76542e-07
-5.49564e-07
-5.37745e-07
-4.37259e-07
-4.2938e-07
-3.59847e-07
-5.82985e-07
-2.86848e-07
-2.24051e-07
-2.1742e-07
-1.78065e-07
-1.74342e-07
-1.43953e-07
-1.41129e-07
-1.17564e-07
-1.15384e-07
-9.72207e-08
-9.55448e-08
-8.16427e-08
-8.03578e-08
-6.97145e-08
-6.86701e-08
-5.94136e-08
-5.83987e-08
-4.82564e-08
-4.71663e-08
-3.63337e-08
-3.52962e-08
-2.63546e-08
-2.51588e-08
-1.10721e-08
-9.87531e-09
-6.02049e-10
-1.07312e-10
-2.41793e-11
-1.74698e-09
0.00631177
-0.00519336
-0.000435396
-0.000200876
-5.55717e-05
-4.14983e-05
-3.01169e-05
-2.90347e-05
-2.7373e-05
-4.67713e-05
-2.44022e-05
-2.06431e-05
-2.02042e-05
-1.74178e-05
-1.7133e-05
-1.45664e-05
-1.43134e-05
-1.20312e-05
-1.18097e-05
-9.84231e-06
-9.65315e-06
-7.99441e-06
-7.83601e-06
-6.4593e-06
-6.32847e-06
-5.19862e-06
-5.09161e-06
-4.1718e-06
-4.08489e-06
-3.34039e-06
-3.27018e-06
-2.6701e-06
-2.61358e-06
-2.13137e-06
-2.086e-06
-1.6994e-06
-1.66305e-06
-1.35365e-06
-1.32457e-06
-1.07732e-06
-1.0541e-06
-8.56786e-07
-8.38267e-07
-6.81039e-07
-6.66297e-07
-5.41237e-07
-5.29597e-07
-4.30636e-07
-4.22877e-07
-3.54403e-07
-5.74174e-07
-2.82519e-07
-2.20679e-07
-2.14148e-07
-1.75396e-07
-1.7173e-07
-1.41807e-07
-1.39027e-07
-1.15825e-07
-1.13678e-07
-9.57992e-08
-9.41498e-08
-8.04703e-08
-7.92064e-08
-6.87418e-08
-6.77155e-08
-5.86252e-08
-5.76277e-08
-4.76529e-08
-4.65795e-08
-3.58996e-08
-3.48769e-08
-2.60651e-08
-2.48842e-08
-1.09529e-08
-9.76921e-09
-5.95576e-10
-1.0616e-10
-2.39196e-11
-1.72745e-09
0.00618577
-0.00458468
-0.000803336
-0.000277145
-8.47508e-05
-4.76725e-05
-3.25112e-05
-2.97e-05
-2.90105e-05
-4.30138e-05
-2.57573e-05
-2.11909e-05
-2.01009e-05
-1.76312e-05
-1.69682e-05
-1.47511e-05
-1.41658e-05
-1.21965e-05
-1.1684e-05
-9.98582e-06
-9.54827e-06
-8.11607e-06
-7.74962e-06
-6.56067e-06
-6.25796e-06
-5.28204e-06
-5.03445e-06
-4.23985e-06
-4.03876e-06
-3.39555e-06
-3.23307e-06
-2.7146e-06
-2.5838e-06
-2.16716e-06
-2.06216e-06
-1.72811e-06
-1.64399e-06
-1.37663e-06
-1.30935e-06
-1.0957e-06
-1.04196e-06
-8.71459e-07
-8.28603e-07
-6.92739e-07
-6.58627e-07
-5.50596e-07
-5.23704e-07
-4.38876e-07
-4.21675e-07
-3.75888e-07
-5.28476e-07
-2.99649e-07
-2.28991e-07
-2.129e-07
-1.78521e-07
-1.69974e-07
-1.44063e-07
-1.37626e-07
-1.17569e-07
-1.126e-07
-9.71457e-08
-9.3328e-08
-8.15002e-08
-7.85734e-08
-6.95046e-08
-6.71257e-08
-5.9237e-08
-5.69273e-08
-4.83212e-08
-4.58411e-08
-3.6665e-08
-3.42948e-08
-2.65718e-08
-2.38441e-08
-1.19987e-08
-9.2772e-09
-1.43934e-09
-3.02186e-10
-6.92475e-11
-1.74264e-09
0.00608265
-0.00415016
-0.00104106
-0.000340059
-0.000107715
-5.29691e-05
-3.4411e-05
-3.028e-05
-3.00601e-05
-4.05065e-05
-2.66046e-05
-2.15995e-05
-2.00527e-05
-1.77722e-05
-1.68655e-05
-1.48703e-05
-1.40734e-05
-1.23033e-05
-1.16056e-05
-1.00788e-05
-9.48312e-06
-8.19505e-06
-7.69608e-06
-6.62655e-06
-6.21435e-06
-5.33629e-06
-4.99913e-06
-4.28412e-06
-4.01028e-06
-3.43146e-06
-3.21018e-06
-2.74358e-06
-2.56545e-06
-2.19047e-06
-2.04747e-06
-1.74681e-06
-1.63224e-06
-1.39161e-06
-1.29998e-06
-1.10767e-06
-1.03449e-06
-8.8102e-07
-8.22654e-07
-7.00365e-07
-6.53909e-07
-5.56706e-07
-5.20126e-07
-4.44408e-07
-4.21614e-07
-3.89434e-07
-4.98031e-07
-3.10451e-07
-2.35118e-07
-2.12382e-07
-1.80611e-07
-1.68913e-07
-1.4554e-07
-1.36768e-07
-1.18709e-07
-1.11941e-07
-9.80261e-08
-9.28259e-08
-8.21736e-08
-7.81855e-08
-6.99994e-08
-6.6756e-08
-5.96252e-08
-5.64784e-08
-4.8744e-08
-4.53703e-08
-3.71578e-08
-3.39265e-08
-2.68784e-08
-2.31686e-08
-1.26794e-08
-8.98977e-09
-2.01504e-09
-4.6202e-10
-1.0751e-10
-1.75555e-09
0.00601026
-0.00387075
-0.00118246
-0.000384222
-0.000123573
-5.68165e-05
-3.57328e-05
-3.07031e-05
-3.06826e-05
-3.89728e-05
-2.70958e-05
-2.18694e-05
-2.00336e-05
-1.78581e-05
-1.68061e-05
-1.49415e-05
-1.40199e-05
-1.23672e-05
-1.15603e-05
-1.01345e-05
-9.44555e-06
-8.24237e-06
-7.66529e-06
-6.66605e-06
-6.1893e-06
-5.36885e-06
-4.97886e-06
-4.31071e-06
-3.99396e-06
-3.45302e-06
-3.19707e-06
-2.76098e-06
-2.55494e-06
-2.20447e-06
-2.03906e-06
-1.75805e-06
-1.62552e-06
-1.40061e-06
-1.29461e-06
-1.11487e-06
-1.03021e-06
-8.86767e-07
-8.19253e-07
-7.0495e-07
-6.51214e-07
-5.60384e-07
-5.18107e-07
-4.47817e-07
-4.21923e-07
-3.97346e-07
-4.79429e-07
-3.16759e-07
-2.39139e-07
-2.12222e-07
-1.81896e-07
-1.68316e-07
-1.4643e-07
-1.36281e-07
-1.19396e-07
-1.11566e-07
-9.85568e-08
-9.25409e-08
-8.25795e-08
-7.79646e-08
-7.02956e-08
-6.65409e-08
-5.98534e-08
-5.62123e-08
-4.8992e-08
-4.50926e-08
-3.7451e-08
-3.37105e-08
-2.70512e-08
-2.2764e-08
-1.3088e-08
-8.83362e-09
-2.37379e-09
-5.73878e-10
-1.35087e-10
-1.76491e-09
0.00597307
-0.00373409
-0.00124825
-0.000406875
-0.000131672
-5.8835e-05
-3.64114e-05
-3.09251e-05
-3.09722e-05
-3.82454e-05
-2.73205e-05
-2.20035e-05
-2.00278e-05
-1.78987e-05
-1.6779e-05
-1.49747e-05
-1.39953e-05
-1.2397e-05
-1.15397e-05
-1.01605e-05
-9.42843e-06
-8.26453e-06
-7.65127e-06
-6.68456e-06
-6.17791e-06
-5.38411e-06
-4.96966e-06
-4.32317e-06
-3.98655e-06
-3.46313e-06
-3.19113e-06
-2.76915e-06
-2.55018e-06
-2.21104e-06
-2.03524e-06
-1.76332e-06
-1.62248e-06
-1.40483e-06
-1.29218e-06
-1.11825e-06
-1.02827e-06
-8.89464e-07
-8.17711e-07
-7.07101e-07
-6.49993e-07
-5.62112e-07
-5.17202e-07
-4.49444e-07
-4.22173e-07
-4.00985e-07
-4.70611e-07
-3.19661e-07
-2.41127e-07
-2.12195e-07
-1.82508e-07
-1.68049e-07
-1.46849e-07
-1.36061e-07
-1.19719e-07
-1.11397e-07
-9.88063e-08
-9.24124e-08
-8.27703e-08
-7.78648e-08
-7.04343e-08
-6.64423e-08
-5.99589e-08
-5.60887e-08
-4.91063e-08
-4.49639e-08
-3.75876e-08
-3.36108e-08
-2.71287e-08
-2.25747e-08
-1.32795e-08
-8.76555e-09
-2.54607e-09
-6.31246e-10
-1.49501e-10
-1.76983e-09
0.00597307
-0.00373409
-0.00124825
-0.000406875
-0.000131671
-5.88349e-05
-3.64114e-05
-3.09251e-05
-3.09722e-05
-3.82454e-05
-2.73205e-05
-2.20035e-05
-2.00278e-05
-1.78987e-05
-1.6779e-05
-1.49747e-05
-1.39953e-05
-1.2397e-05
-1.15397e-05
-1.01605e-05
-9.42843e-06
-8.26453e-06
-7.65127e-06
-6.68456e-06
-6.17791e-06
-5.38411e-06
-4.96966e-06
-4.32317e-06
-3.98655e-06
-3.46313e-06
-3.19113e-06
-2.76915e-06
-2.55018e-06
-2.21104e-06
-2.03524e-06
-1.76332e-06
-1.62248e-06
-1.40483e-06
-1.29218e-06
-1.11825e-06
-1.02827e-06
-8.89464e-07
-8.17711e-07
-7.07101e-07
-6.49993e-07
-5.62112e-07
-5.17202e-07
-4.49444e-07
-4.22173e-07
-4.00985e-07
-4.70611e-07
-3.19661e-07
-2.41127e-07
-2.12195e-07
-1.82508e-07
-1.68049e-07
-1.46849e-07
-1.36061e-07
-1.19719e-07
-1.11397e-07
-9.88063e-08
-9.24125e-08
-8.27703e-08
-7.78649e-08
-7.04343e-08
-6.64423e-08
-5.99589e-08
-5.60887e-08
-4.91063e-08
-4.49639e-08
-3.75876e-08
-3.36108e-08
-2.71287e-08
-2.25747e-08
-1.32795e-08
-8.76555e-09
-2.54607e-09
-6.31242e-10
-1.495e-10
-1.76983e-09
0.00601027
-0.00387076
-0.00118246
-0.000384221
-0.000123573
-5.68162e-05
-3.57327e-05
-3.07031e-05
-3.06826e-05
-3.89729e-05
-2.70958e-05
-2.18695e-05
-2.00336e-05
-1.78581e-05
-1.68061e-05
-1.49415e-05
-1.40199e-05
-1.23672e-05
-1.15604e-05
-1.01345e-05
-9.44556e-06
-8.24237e-06
-7.66529e-06
-6.66605e-06
-6.1893e-06
-5.36885e-06
-4.97887e-06
-4.31071e-06
-3.99396e-06
-3.45302e-06
-3.19708e-06
-2.76099e-06
-2.55494e-06
-2.20447e-06
-2.03906e-06
-1.75805e-06
-1.62552e-06
-1.40061e-06
-1.29461e-06
-1.11487e-06
-1.03021e-06
-8.86767e-07
-8.19253e-07
-7.0495e-07
-6.51214e-07
-5.60384e-07
-5.18107e-07
-4.47818e-07
-4.21923e-07
-3.97346e-07
-4.79429e-07
-3.16759e-07
-2.39139e-07
-2.12222e-07
-1.81896e-07
-1.68316e-07
-1.4643e-07
-1.36281e-07
-1.19396e-07
-1.11567e-07
-9.85568e-08
-9.2541e-08
-8.25795e-08
-7.79647e-08
-7.02957e-08
-6.6541e-08
-5.98534e-08
-5.62124e-08
-4.8992e-08
-4.50926e-08
-3.7451e-08
-3.37105e-08
-2.70512e-08
-2.2764e-08
-1.3088e-08
-8.83361e-09
-2.37378e-09
-5.73869e-10
-1.35085e-10
-1.76491e-09
0.00608265
-0.00415016
-0.00104106
-0.000340058
-0.000107715
-5.29686e-05
-3.44108e-05
-3.028e-05
-3.00601e-05
-4.05066e-05
-2.66046e-05
-2.15995e-05
-2.00527e-05
-1.77722e-05
-1.68655e-05
-1.48703e-05
-1.40735e-05
-1.23034e-05
-1.16056e-05
-1.00788e-05
-9.48312e-06
-8.19505e-06
-7.69609e-06
-6.62655e-06
-6.21435e-06
-5.3363e-06
-4.99913e-06
-4.28413e-06
-4.01028e-06
-3.43146e-06
-3.21019e-06
-2.74358e-06
-2.56545e-06
-2.19047e-06
-2.04747e-06
-1.74681e-06
-1.63224e-06
-1.39161e-06
-1.29998e-06
-1.10767e-06
-1.03449e-06
-8.81021e-07
-8.22654e-07
-7.00366e-07
-6.53909e-07
-5.56706e-07
-5.20126e-07
-4.44408e-07
-4.21614e-07
-3.89435e-07
-4.98031e-07
-3.10451e-07
-2.35118e-07
-2.12382e-07
-1.80611e-07
-1.68913e-07
-1.4554e-07
-1.36768e-07
-1.18709e-07
-1.11941e-07
-9.80262e-08
-9.2826e-08
-8.21737e-08
-7.81855e-08
-6.99994e-08
-6.6756e-08
-5.96252e-08
-5.64784e-08
-4.87441e-08
-4.53703e-08
-3.71578e-08
-3.39265e-08
-2.68784e-08
-2.31686e-08
-1.26794e-08
-8.98975e-09
-2.01502e-09
-4.62008e-10
-1.07508e-10
-1.75554e-09
0.00618577
-0.00458469
-0.000803335
-0.000277144
-8.47502e-05
-4.76722e-05
-3.2511e-05
-2.96999e-05
-2.90105e-05
-4.30139e-05
-2.57573e-05
-2.11909e-05
-2.01009e-05
-1.76312e-05
-1.69682e-05
-1.47511e-05
-1.41658e-05
-1.21965e-05
-1.1684e-05
-9.98583e-06
-9.54828e-06
-8.11608e-06
-7.74963e-06
-6.56068e-06
-6.25797e-06
-5.28205e-06