/*--------------------------------*- C++ -*----------------------------------*\
| =========                 |                                                 |
| \\      /  F ield         | OpenFOAM: The Open Source CFD Toolbox           |
|  \\    /   O peration     | Version:  5.x                                   |
|   \\  /    A nd           | Web:      www.OpenFOAM.org                      |
|    \\/     M anipulation  |                                                 |
\*---------------------------------------------------------------------------*/
FoamFile
{
    version     2.0;
    format      ascii;
    class       volScalarField;
    location    "2.4";
    object      T;
}
// * * * * * * * * * * * * * * * * * * * * * * * * * * * * * * * * * * * * * //

dimensions      [0 0 0 1 0 0 0];

internalField   nonuniform List<scalar> 
3200
(
2.93369e-05
2.65806e-05
2.61262e-05
1.99723e-05
1.93933e-05
1.42916e-05
1.38395e-05
1.02729e-05
9.94664e-06
7.42314e-06
5.58988e-06
5.41729e-06
4.16512e-06
4.05067e-06
3.12913e-06
3.04486e-06
2.35639e-06
2.29328e-06
1.77502e-06
1.72743e-06
1.33572e-06
1.29973e-06
1.00313e-06
9.75875e-07
7.5122e-07
7.30587e-07
5.6057e-07
5.44967e-07
4.16518e-07
4.04741e-07
3.07931e-07
2.99066e-07
2.26325e-07
2.19675e-07
1.65222e-07
1.60254e-07
1.19673e-07
1.15978e-07
8.58961e-08
8.31641e-08
6.10041e-08
5.89978e-08
4.27966e-08
4.13352e-08
2.95979e-08
2.85438e-08
2.01339e-08
1.93818e-08
1.34327e-08
1.28865e-08
8.63139e-09
5.63032e-09
5.35593e-09
3.47273e-09
3.30912e-09
2.09266e-09
1.98869e-09
1.22431e-09
1.15975e-09
6.9458e-10
6.55724e-10
3.81646e-10
3.58986e-10
2.02444e-10
1.89623e-10
1.02811e-10
9.57664e-11
4.90158e-11
4.52616e-11
2.09214e-11
1.89975e-11
6.94268e-12
6.04275e-12
1.11735e-12
7.94688e-13
-2.72948e-13
-3.35559e-13
-3.46556e-13
-3.49052e-13
-3.4961e-13
2.90127e-05
2.66746e-05
2.56314e-05
2.04038e-05
1.90704e-05
1.46793e-05
1.36336e-05
1.05426e-05
9.78135e-06
7.49621e-06
5.76205e-06
5.3539e-06
4.26246e-06
3.99691e-06
3.19917e-06
3.00403e-06
2.4085e-06
2.26239e-06
1.81418e-06
1.70403e-06
1.3653e-06
1.28199e-06
1.02552e-06
9.62436e-07
7.68183e-07
7.20421e-07
5.73413e-07
5.37294e-07
4.26227e-07
3.98966e-07
3.15254e-07
2.94734e-07
2.31833e-07
2.16439e-07
1.69351e-07
1.57848e-07
1.22755e-07
1.14201e-07
8.81843e-08
8.18594e-08
6.26931e-08
5.80482e-08
4.40345e-08
4.0651e-08
3.04974e-08
2.80568e-08
2.07801e-08
1.9038e-08
1.38817e-08
1.26078e-08
8.76329e-09
5.91778e-09
5.26804e-09
3.62409e-09
3.24417e-09
2.18928e-09
1.94829e-09
1.28542e-09
1.13575e-09
7.32065e-10
6.41959e-10
4.03906e-10
3.51338e-10
2.15253e-10
1.85499e-10
1.09966e-10
9.36104e-11
5.28989e-11
4.41796e-11
2.29643e-11
1.84945e-11
7.98269e-12
5.89016e-12
1.57157e-12
8.17489e-13
-1.59386e-13
-3.09081e-13
-3.40346e-13
-3.47572e-13
-3.4919e-13
2.8782e-05
2.67166e-05
2.53038e-05
2.06793e-05
1.88698e-05
1.49331e-05
1.35094e-05
1.0719e-05
9.67694e-06
7.54718e-06
5.88113e-06
5.3178e-06
4.32674e-06
3.96442e-06
3.24508e-06
2.9792e-06
2.44262e-06
2.24357e-06
1.83981e-06
1.68976e-06
1.38465e-06
1.27117e-06
1.04017e-06
9.54238e-07
7.79282e-07
7.14221e-07
5.81817e-07
5.32615e-07
4.32581e-07
3.95446e-07
3.20048e-07
2.92096e-07
2.3544e-07
2.14469e-07
1.72055e-07
1.56385e-07
1.24774e-07
1.13121e-07
8.96841e-08
8.10678e-08
6.38009e-08
5.7473e-08
4.48469e-08
4.02373e-08
3.10881e-08
2.7763e-08
2.12048e-08
1.88307e-08
1.41753e-08
1.24318e-08
8.85517e-09
6.11736e-09
5.21987e-09
3.72487e-09
3.2062e-09
2.25332e-09
1.92475e-09
1.32598e-09
1.12191e-09
7.57e-10
6.34107e-10
4.18744e-10
3.47029e-10
2.23807e-10
1.83205e-10
1.14753e-10
9.2428e-11
5.55017e-11
4.3597e-11
2.43371e-11
1.82329e-11
8.68584e-12
5.82654e-12
1.88316e-12
8.49184e-13
-7.89192e-14
-2.87343e-13
-3.35097e-13
-3.46314e-13
-3.48832e-13
2.86336e-05
2.67322e-05
2.51044e-05
2.08419e-05
1.87541e-05
1.50861e-05
1.34397e-05
1.08254e-05
9.61594e-06
7.57952e-06
5.95604e-06
5.29874e-06
4.36581e-06
3.94616e-06
3.27281e-06
2.96516e-06
2.46321e-06
2.23291e-06
1.85527e-06
1.68167e-06
1.39633e-06
1.26504e-06
1.04901e-06
9.4959e-07
7.85975e-07
7.10706e-07
5.86885e-07
5.29964e-07
4.36414e-07
3.93452e-07
3.22941e-07
2.90602e-07
2.37617e-07
2.13355e-07
1.73687e-07
1.55558e-07
1.25993e-07
1.12511e-07
9.05901e-08
8.06214e-08
6.44703e-08
5.7149e-08
4.53381e-08
4.00048e-08
3.14455e-08
2.75982e-08
2.14619e-08
1.87144e-08
1.43522e-08
1.23291e-08
8.91339e-09
6.24324e-09
5.19554e-09
3.78654e-09
3.18556e-09
2.29236e-09
1.91199e-09
1.35074e-09
1.11448e-09
7.72244e-10
6.29946e-10
4.2783e-10
3.44775e-10
2.29054e-10
1.82022e-10
1.17693e-10
9.18285e-11
5.71028e-11
4.33081e-11
2.51833e-11
1.81089e-11
9.12131e-12
5.80618e-12
2.07833e-12
8.76617e-13
-2.72516e-14
-2.72034e-13
-3.3131e-13
-3.45401e-13
-3.48572e-13
2.8561e-05
2.67365e-05
2.50101e-05
2.09173e-05
1.87013e-05
1.51581e-05
1.34086e-05
1.08754e-05
9.58788e-06
7.59523e-06
5.9922e-06
5.29064e-06
4.38429e-06
3.93799e-06
3.28587e-06
2.95885e-06
2.4729e-06
2.22811e-06
1.86255e-06
1.67803e-06
1.40182e-06
1.26227e-06
1.05316e-06
9.47496e-07
7.89123e-07
7.09123e-07
5.89269e-07
5.2877e-07
4.38217e-07
3.92555e-07
3.24301e-07
2.8993e-07
2.38641e-07
2.12854e-07
1.74455e-07
1.55187e-07
1.26566e-07
1.12237e-07
9.10166e-08
8.04211e-08
6.47855e-08
5.70038e-08
4.55694e-08
3.99007e-08
3.16139e-08
2.75245e-08
2.15831e-08
1.86625e-08
1.44354e-08
1.22818e-08
8.94164e-09
6.30412e-09
5.18558e-09
3.81583e-09
3.17655e-09
2.31086e-09
1.90644e-09
1.36247e-09
1.11127e-09
7.79477e-10
6.28168e-10
4.32146e-10
3.43823e-10
2.31548e-10
1.81529e-10
1.19092e-10
9.15819e-11
5.78656e-11
4.31917e-11
2.5587e-11
1.8061e-11
9.32968e-12
5.80222e-12
2.17238e-12
8.921e-13
-1.96223e-15
-2.6415e-13
-3.29328e-13
-3.44922e-13
-3.48436e-13
2.8561e-05
2.67365e-05
2.50102e-05
2.09173e-05
1.87013e-05
1.51581e-05
1.34086e-05
1.08754e-05
9.58788e-06
7.59523e-06
5.9922e-06
5.29064e-06
4.38429e-06
3.93799e-06
3.28587e-06
2.95885e-06
2.4729e-06
2.22811e-06
1.86255e-06
1.67803e-06
1.40182e-06
1.26227e-06
1.05316e-06
9.47497e-07
7.89123e-07
7.09123e-07
5.89269e-07
5.2877e-07
4.38217e-07
3.92555e-07
3.24301e-07
2.8993e-07
2.38641e-07
2.12854e-07
1.74455e-07
1.55187e-07
1.26566e-07
1.12237e-07
9.10166e-08
8.04211e-08
6.47855e-08
5.70038e-08
4.55694e-08
3.99007e-08
3.16139e-08
2.75245e-08
2.15831e-08
1.86625e-08
1.44354e-08
1.22818e-08
8.94164e-09
6.30412e-09
5.18558e-09
3.81583e-09
3.17655e-09
2.31086e-09
1.90644e-09
1.36247e-09
1.11127e-09
7.79477e-10
6.28168e-10
4.32145e-10
3.43823e-10
2.31548e-10
1.81529e-10
1.19092e-10
9.15818e-11
5.78656e-11
4.31917e-11
2.5587e-11
1.8061e-11
9.32967e-12
5.80221e-12
2.17238e-12
8.92098e-13
-1.96383e-15
-2.64151e-13
-3.29328e-13
-3.44922e-13
-3.48436e-13
2.86337e-05
2.67322e-05
2.51045e-05
2.08419e-05
1.87541e-05
1.50861e-05
1.34398e-05
1.08254e-05
9.61594e-06
7.57952e-06
5.95604e-06
5.29874e-06
4.36581e-06
3.94616e-06
3.27281e-06
2.96516e-06
2.46321e-06
2.23291e-06
1.85527e-06
1.68167e-06
1.39633e-06
1.26504e-06
1.04901e-06
9.4959e-07
7.85975e-07
7.10706e-07
5.86886e-07
5.29964e-07
4.36414e-07
3.93452e-07
3.22941e-07
2.90602e-07
2.37617e-07
2.13355e-07
1.73687e-07
1.55558e-07
1.25993e-07
1.12511e-07
9.05901e-08
8.06214e-08
6.44703e-08
5.7149e-08
4.53381e-08
4.00048e-08
3.14455e-08
2.75982e-08
2.14619e-08
1.87144e-08
1.43522e-08
1.2329e-08
8.91338e-09
6.24324e-09
5.19554e-09
3.78654e-09
3.18555e-09
2.29236e-09
1.91199e-09
1.35074e-09
1.11448e-09
7.72243e-10
6.29946e-10
4.27829e-10
3.44775e-10
2.29053e-10
1.82022e-10
1.17693e-10
9.18284e-11
5.71027e-11
4.33081e-11
2.51833e-11
1.81088e-11
9.12129e-12
5.80617e-12
2.07832e-12
8.76609e-13
-2.72559e-14
-2.72037e-13
-3.31311e-13
-3.45402e-13
-3.48572e-13
2.87821e-05
2.67166e-05
2.53038e-05
2.06793e-05
1.88698e-05
1.49331e-05
1.35094e-05
1.0719e-05
9.67694e-06
7.54718e-06
5.88113e-06
5.3178e-06
4.32674e-06
3.96442e-06
3.24508e-06
2.9792e-06
2.44262e-06
2.24357e-06
1.83981e-06
1.68976e-06
1.38465e-06
1.27117e-06
1.04017e-06
9.54238e-07
7.79282e-07
7.14221e-07
5.81817e-07
5.32615e-07
4.32581e-07
3.95446e-07
3.20048e-07
2.92096e-07
2.3544e-07
2.14469e-07
1.72055e-07
1.56385e-07
1.24774e-07
1.13121e-07
8.96841e-08
8.10678e-08
6.38009e-08
5.7473e-08
4.48469e-08
4.02373e-08
3.10881e-08
2.7763e-08
2.12048e-08
1.88307e-08
1.41753e-08
1.24318e-08
8.85517e-09
6.11736e-09
5.21987e-09
3.72487e-09
3.2062e-09
2.25332e-09
1.92475e-09
1.32598e-09
1.12191e-09
7.56999e-10
6.34106e-10
4.18743e-10
3.47029e-10
2.23807e-10
1.83205e-10
1.14753e-10
9.24279e-11
5.55016e-11
4.3597e-11
2.43371e-11
1.82329e-11
8.68581e-12
5.82652e-12
1.88315e-12
8.49175e-13
-7.89249e-14
-2.87346e-13
-3.35099e-13
-3.46315e-13
-3.48832e-13
2.90128e-05
2.66746e-05
2.56314e-05
2.04038e-05
1.90705e-05
1.46793e-05
1.36336e-05
1.05426e-05
9.78135e-06
7.49621e-06
5.76205e-06
5.3539e-06
4.26246e-06
3.99692e-06
3.19917e-06
3.00403e-06
2.4085e-06
2.26239e-06
1.81418e-06
1.70403e-06
1.3653e-06
1.28199e-06
1.02552e-06
9.62436e-07
7.68184e-07
7.20421e-07
5.73414e-07
5.37294e-07
4.26227e-07
3.98966e-07
3.15255e-07
2.94734e-07
2.31834e-07
2.16439e-07
1.69351e-07
1.57848e-07
1.22755e-07
1.14201e-07
8.81843e-08
8.18594e-08
6.26932e-08
5.80482e-08
4.40345e-08
4.0651e-08
3.04974e-08
2.80568e-08
2.07801e-08
1.9038e-08
1.38817e-08
1.26078e-08
8.76329e-09
5.91778e-09
5.26804e-09
3.62409e-09
3.24417e-09
2.18928e-09
1.94829e-09
1.28542e-09
1.13575e-09
7.32064e-10
6.41959e-10
4.03906e-10
3.51338e-10
2.15253e-10
1.85499e-10
1.09966e-10
9.36103e-11
5.28988e-11
4.41795e-11
2.29643e-11
1.84944e-11
7.98267e-12
5.89014e-12
1.57155e-12
8.17481e-13
-1.59391e-13
-3.09084e-13
-3.40348e-13
-3.47572e-13
-3.49189e-13
2.93369e-05
2.65806e-05
2.61262e-05
1.99723e-05
1.93933e-05
1.42916e-05
1.38395e-05
1.02729e-05
9.94664e-06
7.42314e-06
5.58988e-06
5.41729e-06
4.16512e-06
4.05067e-06
3.12913e-06
3.04486e-06
2.35639e-06
2.29328e-06
1.77502e-06
1.72743e-06
1.33572e-06
1.29973e-06
1.00313e-06
9.75875e-07
7.5122e-07
7.30587e-07
5.60571e-07
5.44967e-07
4.16518e-07
4.04741e-07
3.07931e-07
2.99066e-07
2.26325e-07
2.19675e-07
1.65223e-07
1.60254e-07
1.19673e-07
1.15978e-07
8.58961e-08
8.31641e-08
6.10041e-08
5.89978e-08
4.27966e-08
4.13352e-08
2.95979e-08
2.85439e-08
2.01339e-08
1.93818e-08
1.34327e-08
1.28865e-08
8.63139e-09
5.63032e-09
5.35593e-09
3.47273e-09
3.30912e-09
2.09266e-09
1.98869e-09
1.22431e-09
1.15975e-09
6.9458e-10
6.55724e-10
3.81646e-10
3.58986e-10
2.02444e-10
1.89623e-10
1.02811e-10
9.57663e-11
4.90158e-11
4.52616e-11
2.09214e-11
1.89975e-11
6.94267e-12
6.04274e-12
1.11735e-12
7.94684e-13
-2.7295e-13
-3.3556e-13
-3.46557e-13
-3.49053e-13
-3.4961e-13
0.000562752
6.88253e-05
4.3587e-05
2.52818e-05
2.34862e-05
1.96948e-05
1.93054e-05
1.66506e-05
1.63692e-05
1.38806e-05
1.16354e-05
1.14104e-05
9.54512e-06
9.36458e-06
7.78097e-06
7.62922e-06
6.3052e-06
6.17905e-06
5.08596e-06
4.98223e-06
4.08828e-06
4.0037e-06
3.27772e-06
3.20919e-06
2.62265e-06
2.56737e-06
2.09533e-06
2.05089e-06
1.67207e-06
1.63645e-06
1.33311e-06
1.3046e-06
1.06213e-06
1.03935e-06
8.45787e-07
8.27614e-07
6.73274e-07
6.5879e-07
5.35848e-07
5.24315e-07
4.26468e-07
4.17292e-07
3.39475e-07
3.32179e-07
2.70324e-07
2.64525e-07
2.15368e-07
2.1075e-07
1.71642e-07
1.67812e-07
1.35657e-07
1.09514e-07
1.06972e-07
8.71088e-08
8.52305e-08
6.93022e-08
6.77964e-08
5.4907e-08
5.36834e-08
4.31505e-08
4.21451e-08
3.34285e-08
3.25906e-08
2.52642e-08
2.45548e-08
1.82928e-08
1.76878e-08
1.23514e-08
1.1848e-08
7.52579e-09
7.13133e-09
3.89242e-09
3.60171e-09
1.25696e-09
1.08583e-09
1.49752e-10
9.83015e-11
8.95462e-11
8.75699e-11
8.71282e-11
0.000510027
0.000108953
5.17084e-05
2.86291e-05
2.39826e-05
2.01262e-05
1.91847e-05
1.68427e-05
1.61818e-05
1.39073e-05
1.18283e-05
1.13e-05
9.68267e-06
9.26456e-06
7.89694e-06
7.54587e-06
6.4025e-06
6.11064e-06
5.16654e-06
4.92654e-06
4.15434e-06
3.95864e-06
3.33146e-06
3.17287e-06
2.66613e-06
2.53821e-06
2.13035e-06
2.02752e-06
1.7002e-06
1.61775e-06
1.35565e-06
1.28967e-06
1.08015e-06
1.02744e-06
8.60178e-07
8.18124e-07
6.84753e-07
6.51235e-07
5.44995e-07
5.18304e-07
4.3375e-07
4.12514e-07
3.45267e-07
3.28382e-07
2.74928e-07
2.61506e-07
2.19021e-07
2.0833e-07
1.74459e-07
1.65514e-07
1.36293e-07
1.11856e-07
1.05869e-07
8.86068e-08
8.42535e-08
7.0483e-08
6.69976e-08
5.58585e-08
5.3027e-08
4.3925e-08
4.15981e-08
3.40662e-08
3.21272e-08
2.57972e-08
2.41558e-08
1.87482e-08
1.73489e-08
1.27446e-08
1.15802e-08
7.85092e-09
6.93845e-09
4.13992e-09
3.46789e-09
1.45295e-09
1.05711e-09
2.39977e-10
1.19305e-10
9.44761e-11
8.87573e-11
8.7476e-11
0.000473345
0.000135327
5.84627e-05
3.12387e-05
2.44471e-05
2.04409e-05
1.91199e-05
1.69675e-05
1.60588e-05
1.39261e-05
1.19591e-05
1.1233e-05
9.77218e-06
9.20245e-06
7.9722e-06
7.49416e-06
6.4657e-06
6.06828e-06
5.21893e-06
4.89211e-06
4.19731e-06
3.93081e-06
3.36644e-06
3.15047e-06
2.69443e-06
2.52022e-06
2.15316e-06
2.01311e-06
1.71852e-06
1.60623e-06
1.37033e-06
1.28048e-06
1.09189e-06
1.02011e-06
8.69556e-07
8.12281e-07
6.92233e-07
6.46583e-07
5.50955e-07
5.14605e-07
4.38495e-07
4.09573e-07
3.49042e-07
3.26045e-07
2.77929e-07
2.59649e-07
2.21402e-07
2.06836e-07
1.76277e-07
1.64026e-07
1.36736e-07
1.13459e-07
1.05215e-07
8.95878e-08
8.36525e-08
7.12518e-08
6.65045e-08
5.64774e-08
5.2621e-08
4.44281e-08
4.12591e-08
3.44799e-08
3.18392e-08
2.61425e-08
2.39074e-08
1.90433e-08
1.71381e-08
1.3e-08
1.1415e-08
8.06333e-09
6.82096e-09
4.30233e-09
3.38776e-09
1.58416e-09
1.04523e-09
3.02337e-10
1.36471e-10
9.86399e-11
8.97661e-11
8.77718e-11
0.000450182
0.000151253
6.32305e-05
3.30305e-05
2.47999e-05
2.06478e-05
1.90882e-05
1.70424e-05
1.59846e-05
1.39381e-05
1.20402e-05
1.11953e-05
9.82594e-06
9.16667e-06
8.01728e-06
7.46438e-06
6.50359e-06
6.04393e-06
5.25035e-06
4.87235e-06
4.22311e-06
3.91485e-06
3.38744e-06
3.13763e-06
2.71143e-06
2.50992e-06
2.16686e-06
2.00487e-06
1.72953e-06
1.59964e-06
1.37915e-06
1.27522e-06
1.09895e-06
1.01591e-06
8.75192e-07
8.0894e-07
6.9673e-07
6.43924e-07
5.54538e-07
5.1249e-07
4.41348e-07
4.07892e-07
3.51311e-07
3.2471e-07
2.79733e-07
2.58587e-07
2.22832e-07
2.05979e-07
1.77362e-07
1.63138e-07
1.37017e-07
1.1446e-07
1.04856e-07
9.01802e-08
8.33093e-08
7.17136e-08
6.62219e-08
5.68488e-08
5.23879e-08
4.47298e-08
4.10641e-08
3.47276e-08
3.16732e-08
2.63491e-08
2.37638e-08
1.92197e-08
1.70164e-08
1.31532e-08
1.13204e-08
8.19126e-09
6.75445e-09
4.40052e-09
3.34316e-09
1.66475e-09
1.0415e-09
3.41607e-10
1.4851e-10
1.01642e-10
9.04979e-11
8.79866e-11
0.000438974
0.000158742
6.56843e-05
3.39427e-05
2.4989e-05
2.07508e-05
1.90756e-05
1.70775e-05
1.59497e-05
1.39439e-05
1.2079e-05
1.11784e-05
9.85116e-06
9.15036e-06
8.03838e-06
7.45082e-06
6.52133e-06
6.03285e-06
5.26508e-06
4.86337e-06
4.2352e-06
3.9076e-06
3.39729e-06
3.1318e-06
2.71941e-06
2.50525e-06
2.17329e-06
2.00113e-06
1.73469e-06
1.59666e-06
1.38329e-06
1.27283e-06
1.10226e-06
1.01401e-06
8.77837e-07
8.07425e-07
6.9884e-07
6.42719e-07
5.5622e-07
5.11532e-07
4.42686e-07
4.07131e-07
3.52376e-07
3.24104e-07
2.80579e-07
2.58106e-07
2.23503e-07
2.0559e-07
1.77868e-07
1.62724e-07
1.37153e-07
1.1494e-07
1.04697e-07
9.0459e-08
8.31539e-08
7.19303e-08
6.60935e-08
5.7023e-08
5.22819e-08
4.48711e-08
4.09753e-08
3.48436e-08
3.15974e-08
2.64457e-08
2.36982e-08
1.93022e-08
1.69609e-08
1.32249e-08
1.12774e-08
8.25136e-09
6.72452e-09
4.44677e-09
3.32334e-09
1.70311e-09
1.0408e-09
3.60592e-10
1.54694e-10
1.03212e-10
9.08822e-11
8.80994e-11
0.000438974
0.000158742
6.56842e-05
3.39427e-05
2.4989e-05
2.07508e-05
1.90756e-05
1.70775e-05
1.59497e-05
1.39439e-05
1.2079e-05
1.11784e-05
9.85116e-06
9.15037e-06
8.03839e-06
7.45082e-06
6.52133e-06
6.03285e-06
5.26508e-06
4.86337e-06
4.2352e-06
3.9076e-06
3.39729e-06
3.1318e-06
2.71941e-06
2.50525e-06
2.17329e-06
2.00113e-06
1.73469e-06
1.59666e-06
1.38329e-06
1.27283e-06
1.10226e-06
1.01401e-06
8.77837e-07
8.07425e-07
6.9884e-07
6.42719e-07
5.5622e-07
5.11532e-07
4.42686e-07
4.07131e-07
3.52376e-07
3.24105e-07
2.80579e-07
2.58106e-07
2.23503e-07
2.0559e-07
1.77868e-07
1.62724e-07
1.37153e-07
1.1494e-07
1.04697e-07
9.0459e-08
8.31539e-08
7.19303e-08
6.60935e-08
5.7023e-08
5.22819e-08
4.48711e-08
4.09753e-08
3.48436e-08
3.15974e-08
2.64457e-08
2.36982e-08
1.93022e-08
1.69609e-08
1.32249e-08
1.12774e-08
8.25136e-09
6.72451e-09
4.44677e-09
3.32334e-09
1.70311e-09
1.0408e-09
3.60591e-10
1.54694e-10
1.03212e-10
9.08821e-11
8.80993e-11
0.000450182
0.000151253
6.32304e-05
3.30304e-05
2.47999e-05
2.06478e-05
1.90882e-05
1.70424e-05
1.59846e-05
1.39381e-05
1.20402e-05
1.11953e-05
9.82595e-06
9.16667e-06
8.01728e-06
7.46439e-06
6.50359e-06
6.04393e-06
5.25036e-06
4.87235e-06
4.22311e-06
3.91485e-06
3.38744e-06
3.13763e-06
2.71143e-06
2.50992e-06
2.16686e-06
2.00487e-06
1.72953e-06
1.59965e-06
1.37915e-06
1.27522e-06
1.09895e-06
1.01591e-06
8.75192e-07
8.0894e-07
6.9673e-07
6.43924e-07
5.54538e-07
5.1249e-07
4.41348e-07
4.07892e-07
3.51311e-07
3.2471e-07
2.79733e-07
2.58587e-07
2.22832e-07
2.05979e-07
1.77362e-07
1.63138e-07
1.37017e-07
1.1446e-07
1.04856e-07
9.01802e-08
8.33093e-08
7.17136e-08
6.62219e-08
5.68489e-08
5.23879e-08
4.47298e-08
4.10641e-08
3.47277e-08
3.16732e-08
2.63491e-08
2.37638e-08
1.92197e-08
1.70164e-08
1.31532e-08
1.13204e-08
8.19125e-09
6.75444e-09
4.40051e-09
3.34315e-09
1.66475e-09
1.04149e-09
3.41605e-10
1.48509e-10
1.01642e-10
9.04977e-11
8.79863e-11
0.000473345
0.000135327
5.84626e-05
3.12386e-05
2.44471e-05
2.04409e-05
1.91199e-05
1.69675e-05
1.60588e-05
1.39261e-05
1.19591e-05
1.1233e-05
9.77219e-06
9.20246e-06
7.9722e-06
7.49416e-06
6.46571e-06
6.06828e-06
5.21893e-06
4.89212e-06
4.19732e-06
3.93081e-06
3.36644e-06
3.15047e-06
2.69443e-06
2.52022e-06
2.15316e-06
2.01311e-06
1.71852e-06
1.60624e-06
1.37033e-06
1.28048e-06
1.09189e-06
1.02011e-06
8.69556e-07
8.12281e-07
6.92234e-07
6.46584e-07
5.50955e-07
5.14605e-07
4.38495e-07
4.09573e-07
3.49042e-07
3.26045e-07
2.77929e-07
2.59649e-07
2.21402e-07
2.06836e-07
1.76278e-07
1.64026e-07
1.36736e-07
1.13459e-07
1.05215e-07
8.95879e-08
8.36526e-08
7.12518e-08
6.65045e-08
5.64775e-08
5.2621e-08
4.44282e-08
4.12592e-08
3.44799e-08
3.18393e-08
2.61426e-08
2.39074e-08
1.90433e-08
1.71381e-08
1.3e-08
1.1415e-08
8.06332e-09
6.82096e-09
4.30232e-09
3.38776e-09
1.58415e-09
1.04523e-09
3.02335e-10
1.3647e-10
9.86392e-11
8.97658e-11
8.77714e-11
0.000510027
0.000108953
5.17083e-05
2.8629e-05
2.39825e-05
2.01262e-05
1.91847e-05
1.68427e-05
1.61818e-05
1.39073e-05
1.18283e-05
1.13e-05
9.68268e-06
9.26456e-06
7.89695e-06
7.54587e-06
6.40251e-06
6.11064e-06
5.16655e-06
4.92655e-06
4.15435e-06
3.95864e-06
3.33147e-06
3.17288e-06
2.66613e-06
2.53821e-06
2.13035e-06
2.02752e-06
1.7002e-06
1.61775e-06
1.35565e-06
1.28968e-06
1.08015e-06
1.02744e-06
8.60179e-07
8.18124e-07
6.84754e-07
6.51235e-07
5.44995e-07
5.18305e-07
4.3375e-07
4.12514e-07
3.45267e-07
3.28382e-07
2.74928e-07
2.61507e-07
2.19022e-07
2.0833e-07
1.74459e-07
1.65514e-07
1.36293e-07
1.11856e-07
1.05869e-07
8.86069e-08
8.42535e-08
7.0483e-08
6.69976e-08
5.58586e-08
5.3027e-08
4.3925e-08
4.15982e-08
3.40662e-08
3.21272e-08
2.57973e-08
2.41559e-08
1.87483e-08
1.73489e-08
1.27446e-08
1.15802e-08
7.85092e-09
6.93844e-09
4.13992e-09
3.46789e-09
1.45295e-09
1.05711e-09
2.39975e-10
1.19304e-10
9.44756e-11
8.87571e-11
8.74756e-11
0.000562752
6.88253e-05
4.35869e-05
2.52817e-05
2.34862e-05
1.96948e-05
1.93054e-05
1.66506e-05
1.63692e-05
1.38807e-05
1.16354e-05
1.14104e-05
9.54513e-06
9.36458e-06
7.78097e-06
7.62922e-06
6.3052e-06
6.17905e-06
5.08596e-06
4.98223e-06
4.08828e-06
4.00371e-06
3.27772e-06
3.20919e-06
2.62266e-06
2.56737e-06
2.09533e-06
2.05089e-06
1.67207e-06
1.63645e-06
1.33311e-06
1.3046e-06
1.06213e-06
1.03935e-06
8.45787e-07
8.27615e-07
6.73274e-07
6.58791e-07
5.35848e-07
5.24315e-07
4.26469e-07
4.17292e-07
3.39475e-07
3.32179e-07
2.70324e-07
2.64525e-07
2.15368e-07
2.1075e-07
1.71642e-07
1.67812e-07
1.35657e-07
1.09514e-07
1.06973e-07
8.71088e-08
8.52306e-08
6.93023e-08
6.77964e-08
5.4907e-08
5.36834e-08
4.31506e-08
4.21451e-08
3.34285e-08
3.25906e-08
2.52642e-08
2.45548e-08
1.82928e-08
1.76878e-08
1.23514e-08
1.1848e-08
7.52579e-09
7.13133e-09
3.89242e-09
3.60171e-09
1.25696e-09
1.08583e-09
1.49751e-10
9.8301e-11
8.95459e-11
8.75698e-11
8.7128e-11
0.000562634
6.85436e-05
4.32978e-05
2.5004e-05
2.32103e-05
1.94469e-05
1.90604e-05
1.64352e-05
1.6157e-05
1.36979e-05
1.14798e-05
1.12577e-05
9.41551e-06
9.23723e-06
7.67373e-06
7.52393e-06
6.21709e-06
6.09259e-06
5.01397e-06
4.91162e-06
4.02973e-06
3.94631e-06
3.23029e-06
3.16271e-06
2.58436e-06
2.52986e-06
2.0645e-06
2.0207e-06
1.64732e-06
1.61221e-06
1.31328e-06
1.28519e-06
1.04627e-06
1.02383e-06
8.33135e-07
8.15233e-07
6.63195e-07
6.48928e-07
5.2783e-07
5.16471e-07
4.20098e-07
4.11061e-07
3.3442e-07
3.27234e-07
2.66316e-07
2.60604e-07
2.12192e-07
2.07645e-07
1.69129e-07
1.65357e-07
1.33688e-07
1.0794e-07
1.05436e-07
8.58717e-08
8.40216e-08
6.8332e-08
6.68487e-08
5.41513e-08
5.2946e-08
4.25688e-08
4.15781e-08
3.29889e-08
3.21631e-08
2.49419e-08
2.42425e-08
1.80677e-08
1.7471e-08
1.22052e-08
1.17082e-08
7.43987e-09
7.05024e-09
3.84991e-09
3.56254e-09
1.24339e-09
1.07413e-09
1.48104e-10
9.72073e-11
8.85462e-11
8.65912e-11
8.61543e-11
0.000509892
0.000108685
5.14236e-05
2.83516e-05
2.37091e-05
1.98765e-05
1.89418e-05
1.66254e-05
1.59718e-05
1.37243e-05
1.16705e-05
1.11486e-05
9.55136e-06
9.13849e-06
7.78824e-06
7.44167e-06
6.31314e-06
6.02509e-06
5.09349e-06
4.85669e-06
4.09491e-06
3.90187e-06
3.2833e-06
3.1269e-06
2.62723e-06
2.50111e-06
2.09903e-06
1.99766e-06
1.67505e-06
1.59379e-06
1.33549e-06
1.27048e-06
1.06403e-06
1.0121e-06
8.47314e-07
8.05884e-07
6.74503e-07
6.41486e-07
5.3684e-07
5.10551e-07
4.2727e-07
4.06355e-07
3.40124e-07
3.23494e-07
2.7085e-07
2.57632e-07
2.15791e-07
2.05261e-07
1.71903e-07
1.63094e-07
1.34314e-07
1.10246e-07
1.04349e-07
8.73471e-08
8.30592e-08
6.9495e-08
6.60618e-08
5.50887e-08
5.22992e-08
4.33318e-08
4.10391e-08
3.36172e-08
3.17063e-08
2.54672e-08
2.3849e-08
1.85167e-08
1.71364e-08
1.2593e-08
1.14437e-08
7.7609e-09
6.85959e-09
4.0944e-09
3.43011e-09
1.43722e-09
1.0457e-09
2.37357e-10
1.17984e-10
9.34231e-11
8.77658e-11
8.64984e-11
0.000473197
0.000135068
5.81812e-05
3.09616e-05
2.41753e-05
2.019e-05
1.88784e-05
1.67489e-05
1.58504e-05
1.37429e-05
1.17997e-05
1.10825e-05
9.63978e-06
9.07719e-06
7.86256e-06
7.39064e-06
6.37552e-06
5.9833e-06
5.14519e-06
4.82273e-06
4.1373e-06
3.87442e-06
3.3178e-06
3.10481e-06
2.65515e-06
2.48338e-06
2.12152e-06
1.98347e-06
1.6931e-06
1.58244e-06
1.34996e-06
1.26142e-06
1.0756e-06
1.00488e-06
8.56553e-07
8.00129e-07
6.81872e-07
6.36905e-07
5.42711e-07
5.06907e-07
4.31944e-07
4.03459e-07
3.43842e-07
3.21193e-07
2.73805e-07
2.55802e-07
2.18135e-07
2.0379e-07
1.73694e-07
1.61628e-07
1.34751e-07
1.11825e-07
1.03705e-07
8.83134e-08
8.24672e-08
7.02523e-08
6.5576e-08
5.56983e-08
5.18992e-08
4.38274e-08
4.0705e-08
3.40248e-08
3.14225e-08
2.58075e-08
2.36039e-08
1.88075e-08
1.69283e-08
1.2845e-08
1.12805e-08
7.97061e-09
6.74345e-09
4.25483e-09
3.3508e-09
1.56699e-09
1.03394e-09
2.99046e-10
1.34966e-10
9.7542e-11
8.87638e-11
8.6791e-11
0.000450026
0.000151
6.29512e-05
3.27537e-05
2.45291e-05
2.03964e-05
1.88474e-05
1.68231e-05
1.57771e-05
1.37548e-05
1.18798e-05
1.10452e-05
9.69288e-06
9.04187e-06
7.90707e-06
7.36126e-06
6.41292e-06
5.95928e-06
5.1762e-06
4.80324e-06
4.16275e-06
3.85869e-06
3.33851e-06
3.09216e-06
2.67191e-06
2.47323e-06
2.13502e-06
1.97534e-06
1.70395e-06
1.57595e-06
1.35865e-06
1.25624e-06
1.08255e-06
1.00074e-06
8.62106e-07
7.96838e-07
6.86301e-07
6.34286e-07
5.46241e-07
5.04824e-07
4.34754e-07
4.01803e-07
3.46077e-07
3.19878e-07
2.75582e-07
2.54757e-07
2.19544e-07
2.02946e-07
1.74762e-07
1.60754e-07
1.35027e-07
1.12811e-07
1.03351e-07
8.88968e-08
8.21291e-08
7.07072e-08
6.52975e-08
5.60642e-08
5.16695e-08
4.41246e-08
4.05128e-08
3.42689e-08
3.12587e-08
2.6011e-08
2.34623e-08
1.89814e-08
1.68082e-08
1.29961e-08
1.11869e-08
8.09691e-09
6.67768e-09
4.35181e-09
3.30664e-09
1.64669e-09
1.03024e-09
3.37892e-10
1.46875e-10
1.00512e-10
8.94877e-11
8.70035e-11
0.000438815
0.000158491
6.54062e-05
3.36661e-05
2.47187e-05
2.0499e-05
1.88352e-05
1.68578e-05
1.57427e-05
1.37606e-05
1.19181e-05
1.10286e-05
9.71778e-06
9.02578e-06
7.92791e-06
7.34788e-06
6.43044e-06
5.94835e-06
5.19074e-06
4.79438e-06
4.17468e-06
3.85154e-06
3.34823e-06
3.08641e-06
2.67977e-06
2.46862e-06
2.14136e-06
1.97166e-06
1.70904e-06
1.573e-06
1.36273e-06
1.25389e-06
1.08582e-06
9.98871e-07
8.64712e-07
7.95346e-07
6.8838e-07
6.33099e-07
5.47897e-07
5.03881e-07
4.36072e-07
4.01053e-07
3.47126e-07
3.19282e-07
2.76416e-07
2.54283e-07
2.20205e-07
2.02563e-07
1.7526e-07
1.60345e-07
1.35162e-07
1.13284e-07
1.03196e-07
8.91714e-08
8.1976e-08
7.09206e-08
6.51711e-08
5.62357e-08
5.15651e-08
4.42639e-08
4.04253e-08
3.43832e-08
3.11841e-08
2.61062e-08
2.33976e-08
1.90628e-08
1.67534e-08
1.30669e-08
1.11445e-08
8.15625e-09
6.64809e-09
4.39749e-09
3.28702e-09
1.68462e-09
1.02955e-09
3.56672e-10
1.52992e-10
1.02065e-10
8.98679e-11
8.71151e-11
0.000438816
0.000158491
6.54062e-05
3.36661e-05
2.47187e-05
2.0499e-05
1.88352e-05
1.68578e-05
1.57427e-05
1.37606e-05
1.19181e-05
1.10286e-05
9.71778e-06
9.02578e-06
7.92791e-06
7.34788e-06
6.43044e-06
5.94835e-06
5.19074e-06
4.79438e-06
4.17468e-06
3.85154e-06
3.34823e-06
3.08641e-06
2.67977e-06
2.46862e-06
2.14136e-06
1.97166e-06
1.70904e-06
1.573e-06
1.36273e-06
1.25389e-06
1.08582e-06
9.98871e-07
8.64712e-07
7.95346e-07
6.8838e-07
6.33099e-07
5.47897e-07
5.03881e-07
4.36072e-07
4.01053e-07
3.47126e-07
3.19282e-07
2.76416e-07
2.54283e-07
2.20205e-07
2.02563e-07
1.7526e-07
1.60345e-07
1.35162e-07
1.13284e-07
1.03196e-07
8.91714e-08
8.1976e-08
7.09206e-08
6.51711e-08
5.62357e-08
5.15651e-08
4.42639e-08
4.04253e-08
3.43832e-08
3.11841e-08
2.61062e-08
2.33976e-08
1.90628e-08
1.67534e-08
1.30669e-08
1.11445e-08
8.15625e-09
6.64809e-09
4.39749e-09
3.28701e-09
1.68462e-09
1.02955e-09
3.56671e-10
1.52992e-10
1.02065e-10
8.98678e-11
8.71149e-11
0.000450027
0.000151
6.29512e-05
3.27536e-05
2.4529e-05
2.03963e-05
1.88474e-05
1.68231e-05
1.57771e-05
1.37548e-05
1.18798e-05
1.10452e-05
9.69288e-06
9.04187e-06
7.90707e-06
7.36126e-06
6.41292e-06
5.95928e-06
5.1762e-06
4.80324e-06
4.16275e-06
3.85869e-06
3.33852e-06
3.09216e-06
2.67191e-06
2.47323e-06
2.13503e-06
1.97534e-06
1.70395e-06
1.57595e-06
1.35865e-06
1.25624e-06
1.08255e-06
1.00074e-06
8.62106e-07
7.96838e-07
6.86302e-07
6.34286e-07
5.46241e-07
5.04825e-07
4.34754e-07
4.01803e-07
3.46077e-07
3.19878e-07
2.75582e-07
2.54757e-07
2.19544e-07
2.02946e-07
1.74762e-07
1.60754e-07
1.35027e-07
1.12811e-07
1.03351e-07
8.88968e-08
8.21292e-08
7.07072e-08
6.52976e-08
5.60642e-08
5.16695e-08
4.41246e-08
4.05128e-08
3.4269e-08
3.12587e-08
2.6011e-08
2.34623e-08
1.89814e-08
1.68082e-08
1.29961e-08
1.11869e-08
8.0969e-09
6.67768e-09
4.3518e-09
3.30663e-09
1.64669e-09
1.03024e-09
3.3789e-10
1.46874e-10
1.00512e-10
8.94876e-11
8.70031e-11
0.000473198
0.000135068
5.81811e-05
3.09615e-05
2.41752e-05
2.019e-05
1.88784e-05
1.67489e-05
1.58504e-05
1.37429e-05
1.17997e-05
1.10825e-05
9.63978e-06
9.07719e-06
7.86256e-06
7.39065e-06
6.37553e-06
5.9833e-06
5.14519e-06
4.82274e-06
4.13731e-06
3.87442e-06
3.3178e-06
3.10482e-06
2.65515e-06
2.48338e-06
2.12152e-06
1.98347e-06
1.6931e-06
1.58244e-06
1.34996e-06
1.26142e-06
1.0756e-06
1.00488e-06
8.56553e-07
8.00129e-07
6.81872e-07
6.36905e-07
5.42711e-07
5.06907e-07
4.31944e-07
4.03459e-07
3.43842e-07
3.21193e-07
2.73805e-07
2.55802e-07
2.18135e-07
2.0379e-07
1.73694e-07
1.61628e-07
1.34751e-07
1.11825e-07
1.03705e-07
8.83134e-08
8.24673e-08
7.02523e-08
6.5576e-08
5.56984e-08
5.18992e-08
4.38275e-08
4.07051e-08
3.40248e-08
3.14225e-08
2.58075e-08
2.36039e-08
1.88075e-08
1.69283e-08
1.2845e-08
1.12805e-08
7.9706e-09
6.74344e-09
4.25482e-09
3.35079e-09
1.56698e-09
1.03394e-09
2.99043e-10
1.34964e-10
9.75413e-11
8.87636e-11
8.67906e-11
0.000509892
0.000108685
5.14235e-05
2.83515e-05
2.37091e-05
1.98765e-05
1.89418e-05
1.66254e-05
1.59718e-05
1.37243e-05
1.16705e-05
1.11486e-05
9.55137e-06
9.1385e-06
7.78825e-06
7.44168e-06
6.31314e-06
6.0251e-06
5.09349e-06
4.8567e-06
4.09491e-06
3.90187e-06
3.2833e-06
3.12691e-06
2.62724e-06
2.50111e-06
2.09903e-06
1.99766e-06
1.67505e-06
1.59379e-06
1.33549e-06
1.27048e-06
1.06403e-06
1.0121e-06
8.47315e-07
8.05885e-07
6.74504e-07
6.41486e-07
5.3684e-07
5.10551e-07
4.2727e-07
4.06355e-07
3.40124e-07
3.23495e-07
2.7085e-07
2.57632e-07
2.15791e-07
2.05261e-07
1.71903e-07
1.63094e-07
1.34314e-07
1.10246e-07
1.04349e-07
8.73472e-08
8.30592e-08
6.94951e-08
6.60618e-08
5.50887e-08
5.22992e-08
4.33318e-08
4.10392e-08
3.36172e-08
3.17063e-08
2.54672e-08
2.3849e-08
1.85167e-08
1.71364e-08
1.2593e-08
1.14437e-08
7.76089e-09
6.85958e-09
4.0944e-09
3.43011e-09
1.43722e-09
1.0457e-09
2.37355e-10
1.17983e-10
9.34225e-11
8.77657e-11
8.6498e-11
0.000562634
6.85436e-05
4.32978e-05
2.5004e-05
2.32102e-05
1.94469e-05
1.90604e-05
1.64352e-05
1.6157e-05
1.36979e-05
1.14798e-05
1.12577e-05
9.41551e-06
9.23724e-06
7.67374e-06
7.52393e-06
6.21709e-06
6.09259e-06
5.01397e-06
4.91162e-06
4.02974e-06
3.94631e-06
3.2303e-06
3.16271e-06
2.58436e-06
2.52986e-06
2.0645e-06
2.0207e-06
1.64732e-06
1.61221e-06
1.31328e-06
1.28519e-06
1.04627e-06
1.02383e-06
8.33135e-07
8.15233e-07
6.63195e-07
6.48928e-07
5.27831e-07
5.16471e-07
4.20099e-07
4.11061e-07
3.3442e-07
3.27234e-07
2.66316e-07
2.60604e-07
2.12192e-07
2.07645e-07
1.69129e-07
1.65357e-07
1.33688e-07
1.0794e-07
1.05437e-07
8.58717e-08
8.40217e-08
6.83321e-08
6.68487e-08
5.41514e-08
5.2946e-08
4.25688e-08
4.15781e-08
3.29889e-08
3.21632e-08
2.49419e-08
2.42425e-08
1.80677e-08
1.7471e-08
1.22052e-08
1.17082e-08
7.43987e-09
7.05024e-09
3.8499e-09
3.56254e-09
1.24339e-09
1.07413e-09
1.48103e-10
9.72068e-11
8.8546e-11
8.65912e-11
8.61541e-11
2.90879e-05
2.63502e-05
2.58993e-05
1.9794e-05
1.92196e-05
1.41601e-05
1.37118e-05
1.01759e-05
9.85247e-06
7.35153e-06
5.53512e-06
5.36413e-06
4.12376e-06
4.0104e-06
3.09771e-06
3.01426e-06
2.3325e-06
2.27e-06
1.75686e-06
1.70975e-06
1.32195e-06
1.28632e-06
9.92707e-07
9.65731e-07
7.43361e-07
7.22939e-07
5.54666e-07
5.39223e-07
4.12101e-07
4.00447e-07
3.04644e-07
2.95872e-07
2.23894e-07
2.17314e-07
1.63437e-07
1.5852e-07
1.18372e-07
1.14717e-07
8.49565e-08
8.22539e-08
6.03329e-08
5.83483e-08
4.23231e-08
4.08776e-08
2.92687e-08
2.82261e-08