/*--------------------------------*- C++ -*----------------------------------*\
| =========                 |                                                 |
| \\      /  F ield         | OpenFOAM: The Open Source CFD Toolbox           |
|  \\    /   O peration     | Version:  5.x                                   |
|   \\  /    A nd           | Web:      www.OpenFOAM.org                      |
|    \\/     M anipulation  |                                                 |
\*---------------------------------------------------------------------------*/
FoamFile
{
    version     2.0;
    format      ascii;
    class       volScalarField;
    location    "17.3";
    object      gradTx;
}
// * * * * * * * * * * * * * * * * * * * * * * * * * * * * * * * * * * * * * //

dimensions      [0 -1 0 1 0 0 0];

internalField   nonuniform List<scalar> 
6300
(
-8.33538
-8.09501
-7.61729
-6.90857
-5.9791
-4.84387
-3.52353
-2.04536
-0.443905
1.23877
2.95372
4.64683
6.26159
7.74302
9.04212
-8.57609
-8.33271
-7.84865
-7.12968
-6.18523
-5.02934
-3.68174
-2.16901
-0.525513
1.20608
2.97517
4.72477
6.3945
7.92494
9.26287
-9.06052
-8.81141
-8.31526
-7.57661
-6.60315
-5.40687
-4.00546
-2.4238
-0.695605
1.13551
3.0157
4.88216
6.66628
8.299
9.71776
-9.79441
-9.5375
-9.02474
-8.25869
-7.24423
-5.98992
-4.50978
-2.82552
-0.969006
1.01544
3.06955
5.12147
7.08901
8.88652
10.435
-10.7855
-10.5198
-9.98785
-9.18952
-8.12551
-6.79915
-5.2186
-3.39988
-1.37073
0.825315
3.1252
5.44476
7.68137
9.72268
11.462
-12.0428
-11.7685
-11.2177
-10.3864
-9.26949
-7.86294
-6.16594
-4.18507
-1.93973
0.530948
3.16074
5.85059
8.46858
10.8603
12.8728
-13.5746
-13.2941
-12.7285
-11.8691
-10.7035
-9.21753
-7.39751
-5.23509
-2.73447
0.0770751
3.13581
6.32785
9.4816
12.3768
14.7809
-15.3873
-15.1051
-14.5334
-13.6582
-12.4583
-10.9065
-8.97184
-6.62369
-3.84052
-0.624378
2.97718
6.84299
10.7527
14.3841
17.3632
-17.4825
-17.2057
-16.6423
-15.7724
-14.5652
-12.9788
-10.96
-8.44766
-5.37993
-1.71163
2.55389
7.31379
12.3017
17.0432
20.9052
-19.8549
-19.5933
-19.058
-18.2241
-17.0517
-15.4836
-13.4421
-10.8274
-7.52027
-3.39647
1.63582
7.55613
14.0968
20.5815
25.8912
-22.4892
-22.2547
-21.7726
-21.0145
-19.9343
-18.4622
-16.4977
-13.8997
-10.4777
-5.99017
-0.170661
7.17774
15.9472
25.2943
33.2041
-25.3582
-25.1643
-24.7633
-24.1273
-23.209
-21.9336
-20.1872
-17.7965
-14.5008
-9.91622
-3.50643
5.37786
17.2194
31.4437
44.6124
-28.4215
-28.281
-27.9893
-27.5228
-26.8408
-25.8764
-24.5212
-22.5984
-19.8133
-15.6678
-9.3171
0.62024
16.1081
38.6482
64.1282
-31.6255
-31.5492
-31.3902
-31.1342
-30.7554
-30.2101
-29.4232
-28.2629
-26.4866
-23.6247
-18.7148
-9.68845
7.94405
42.912
102.434
-34.906
-34.9004
-34.8885
-34.8685
-34.8368
-34.7855
-34.6989
-34.5435
-34.2456
-33.63
-32.2294
-28.6037
-17.5562
22.6214
193.946
10.0483
10.7758
11.325
11.6949
11.891
11.9237
11.8069
11.5569
11.1906
10.7248
10.1756
9.55752
8.88341
8.1645
7.41042
6.62929
5.82795
5.01214
4.18669
3.35567
2.5225
1.69011
0.860964
0.0371672
-0.779502
-1.58756
-2.38579
-3.17323
-3.9492
-4.71323
-5.46508
-6.20473
-6.93231
-7.64805
-8.35224
-9.04515
-9.72697
-10.3978
-11.0574
-11.7057
-12.3424
-12.9669
-13.5791
-14.1785
-14.7651
-15.3391
-15.9007
-16.4505
-16.9891
-17.5171
-18.0352
-18.5436
-19.0424
-19.5313
-20.0096
-20.4764
-20.9304
-21.3703
-21.7947
-22.2024
-22.5922
-22.9632
-23.3146
-23.6454
-23.9547
-24.241
-24.5027
-24.7373
-24.9418
-25.1124
-25.2448
-25.3344
-25.3762
-25.3656
-25.2982
-25.1701
-24.9787
-24.7218
-24.3989
-24.0103
-23.5574
-23.0431
-22.4711
-21.8464
-21.1752
-20.4645
-19.7225
-18.9583
-18.1812
-17.4013
10.2936
11.0323
11.5826
11.9448
12.1259
12.1385
11.9985
11.724
11.3334
10.8447
10.2746
9.63787
8.94761
8.2149
7.44912
6.65816
5.84856
5.02582
4.19453
3.35858
2.52123
1.68529
0.853128
0.0267858
-0.792007
-1.6018
-2.40138
-3.18983
-3.96644
-4.73079
-5.48268
-6.22213
-6.94935
-7.66466
-8.36846
-9.06109
-9.7428
-10.4137
-11.0737
-11.7225
-12.3597
-12.9847
-13.5972
-14.1968
-14.7832
-15.3567
-15.9175
-16.4664
-17.0041
-17.5313
-18.0489
-18.5572
-19.0565
-19.5463
-20.0261
-20.4946
-20.9505
-21.3923
-21.8185
-22.2278
-22.6191
-22.9913
-23.3439
-23.6762
-23.9873
-24.2763
-24.5414
-24.7805
-24.9903
-25.1671
-25.3062
-25.4028
-25.4515
-25.4471
-25.3851
-25.2612
-25.0725
-24.8168
-24.4933
-24.1024
-23.6457
-23.1258
-22.5467
-21.9133
-21.2317
-20.5093
-19.7545
-18.9764
-18.1851
-17.3912
10.799
11.5596
12.1107
12.4549
12.6032
12.5726
12.3835
12.0578
11.6171
11.0815
10.469
9.79506
9.07266
8.31264
7.52387
6.71362
5.88788
5.0516
4.20891
3.36332
2.51779
1.67488
0.836789
0.00542147
-0.817579
-1.63081
-2.4331
-3.22352
-4.0014
-4.76633
-5.5182
-6.25714
-6.98352
-7.69786
-8.40073
-9.0927
-9.77417
-10.4453
-11.106
-11.7559
-12.3943
-13.0206
-13.6339
-14.2338
-14.8199
-15.3923
-15.9515
-16.4984
-17.0339
-17.5593
-18.0757
-18.5838
-19.0839
-19.5757
-20.0584
-20.5307
-20.9907
-21.4366
-21.8666
-22.2791
-22.673
-23.0475
-23.4023
-23.7371
-24.0517
-24.3456
-24.6175
-24.8654
-25.0861
-25.2756
-25.4288
-25.5398
-25.6028
-25.6116
-25.5607
-25.4455
-25.2624
-25.009
-24.6845
-24.2891
-23.8246
-23.2936
-22.7002
-22.0492
-21.3469
-20.6007
-19.8195
-19.0132
-18.1928
-17.3699
11.5956
12.3883
12.9362
13.2467
13.3378
13.2345
12.9647
12.5568
12.037
11.4288
10.7517
10.0217
9.25162
8.45151
7.62928
6.79116
5.94216
5.08639
4.22729
3.36779
2.51041
1.65738
0.810635
-0.0281082
-0.857323
-1.67566
-2.48198
-3.27533
-4.05503
-4.82072
-5.57236
-6.31026
-7.03503
-7.74753
-8.44869
-9.1394
-9.82035
-10.4919
-11.1538
-11.8056
-12.4464
-13.0749
-13.6899
-14.2906
-14.8762
-15.4469
-16.0032
-16.5464
-17.0781
-17.6002
-18.1143
-18.6217
-19.123
-19.6181
-20.1057
-20.5841
-21.0509
-21.5035
-21.9395
-22.3569
-22.7545
-23.1319
-23.4891
-23.8268
-24.1457
-24.4462
-24.7279
-24.9891
-25.2267
-25.4362
-25.6116
-25.7459
-25.8317
-25.8616
-25.8287
-25.7273
-25.5531
-25.3034
-24.9773
-24.5752
-24.0988
-23.5512
-22.9362
-22.2587
-21.5249
-20.7424
-19.9204
-19.0701
-18.2039
-17.3355
12.7362
13.5692
14.103
14.3539
14.3521
14.1357
13.7445
13.2163
12.5841
11.875
11.1102
10.3058
9.47352
8.62198
7.75732
6.88413
6.00598
5.12579
4.24606
3.36901
2.49663
1.63069
0.772828
-0.0754742
-0.912824
-1.73793
-2.5496
-3.34684
-4.1289
-4.89538
-5.64632
-6.38228
-7.10422
-7.8135
-8.51165
-9.20013
-9.88008
-10.5521
-11.2161
-11.8713
-12.516
-13.1485
-13.7666
-14.3688
-14.9539
-15.5219
-16.0736
-16.6108
-17.1361
-17.6523
-18.1623
-18.6681
-19.171
-19.6709
-20.1661
-20.6541
-21.1313
-21.5941
-22.0389
-22.463
-22.8651
-23.2449
-23.6037
-23.9432
-24.2659
-24.5737
-24.8675
-25.1465
-25.4075
-25.6456
-25.8532
-26.0216
-26.141
-26.2018
-26.1951
-26.1136
-25.9522
-25.7077
-25.3793
-24.9678
-24.4755
-23.9055
-23.2618
-22.549
-21.7728
-20.9406
-20.0621
-19.1495
-18.2181
-17.2845
14.3029
15.1806
15.6769
15.8245
15.6751
15.288
14.7212
14.0253
13.2416
12.4009
11.5254
10.6296
9.72294
8.81108
7.8974
6.98402
6.07252
5.1643
4.26078
3.36336
2.4734
1.59224
0.721123
-0.138725
-0.986061
-1.81961
-2.63808
-3.44028
-4.22524
-4.99242
-5.74191
-6.47447
-7.19163
-7.8955
-8.58851
-9.27308
-9.95116
-10.6239
-11.2912
-11.9518
-12.6033
-13.2425
-13.8662
-14.4714
-15.0562
-15.6203
-16.1647
-16.6922
-17.2069
-17.7133
-18.216
-18.7186
-19.2233
-19.73
-20.2367
-20.7393
-21.2324
-21.7103
-22.1677
-22.6007
-23.0074
-23.3882
-23.7456
-24.0837
-24.4074
-24.7212
-25.0283
-25.3292
-25.6213
-25.8984
-26.1511
-26.3674
-26.5344
-26.6388
-26.6687
-26.6148
-26.4705
-26.2326
-25.9007
-25.4766
-24.9637
-24.3658
-23.6867
-22.9304
-22.1012
-21.2054
-20.2523
-19.256
-18.2351
-17.2117
16.423
17.3408
17.7525
17.7224
17.34
16.6989
15.8832
14.9606
13.9807
12.9769
11.9693
10.9688
9.97957
9.00256
8.0368
7.08097
6.13411
5.19588
4.26655
3.34677
2.43737
1.53919
0.653066
-0.220103
-1.07925
-1.92308
-2.75006
-3.55859
-4.34721
-5.115
-5.86186
-6.58885
-7.29818
-7.99311
-8.67751
-9.35532
-10.0299
-10.7034
-11.3758
-12.0453
-12.7081
-13.3588
-13.9922
-14.6031
-15.1884
-15.7468
-16.2799
-16.7921
-17.2895
-17.7795
-18.2696
-18.766
-19.2723
-19.7891
-20.3131
-20.8379
-21.3552
-21.8558
-22.3315
-22.7761
-23.1869
-23.5649
-23.915
-24.2446
-24.5627
-24.8781
-25.1976
-25.5244
-25.8564
-26.1862
-26.5009
-26.7842
-27.0176
-27.1826
-27.2629
-27.2459
-27.1234
-26.8926
-26.5544
-26.1131
-25.574
-24.9425
-24.2226
-23.4164
-22.5254
-21.5522
-20.5046
-19.3977
-18.2557
-17.1096
19.2964
20.2295
20.4637
20.1273
19.377
18.3608
17.1989
15.9779
14.7539
13.5578
12.4029
11.2912
10.2184
9.17757
8.16166
7.1648
6.18307
5.21445
4.25838
3.31509
2.38504
1.46865
0.56624
-0.321771
-1.19459
-2.05088
-2.88868
-3.70561
-4.49924
-5.26773
-6.01046
-6.72864
-7.42547
-8.10587
-8.77595
-9.44216
-10.1103
-10.7842
-11.4646
-12.1486
-12.8299
-13.5002
-14.1503
-14.7719
-15.3591
-15.9095
-16.4253
-16.913
-17.3824
-17.8455
-18.3141
-18.7988
-19.3061
-19.8375
-20.388
-20.9473
-21.5019
-22.0371
-22.5397
-22.9999
-23.4132
-23.7817
-24.1136
-24.4218
-24.7217
-25.0289
-25.3563
-25.7117
-26.0945
-26.4953
-26.8959
-27.2726
-27.5988
-27.8481
-27.9971
-28.0284
-27.9322
-27.7067
-27.3565
-26.8901
-26.3172
-25.6464
-24.8824
-24.0245
-23.0675
-22.0062
-20.8419
-19.5896
-18.282
-16.9661
23.2486
24.1241
23.9964
23.1279
21.7965
20.2324
18.5993
16.9995
15.4865
14.0791
12.7741
11.5574
10.4109
9.31647
8.25884
7.22664
6.21294
5.21478
4.23167
3.2642
2.31292
1.37786
0.458572
-0.445402
-1.33383
-2.20538
-3.05741
-3.88621
-4.68752
-5.45757
-6.19443
-6.89919
-7.57638
-8.23347
-8.87993
-9.52621
-10.1823
-10.8555
-11.5482
-12.2557
-12.9677
-13.6705
-14.3492
-14.9901
-15.5825
-16.1219
-16.611
-17.0599
-17.4845
-17.9032
-18.3355
-18.7987
-19.3051
-19.8582
-20.4499
-21.0633
-21.6761
-22.2651
-22.8087
-23.2909
-23.7039
-24.051
-24.3462
-24.6107
-24.8699
-25.1502
-25.4746
-25.8591
-26.3067
-26.8042
-27.3249
-27.8334
-28.2907
-28.6578
-28.9006
-28.9942
-28.9268
-28.7002
-28.3257
-27.8201
-27.2012
-26.4842
-25.6771
-24.775
-23.7596
-22.6081
-21.3059
-19.8612
-18.3198
-16.7612
28.8404
29.4631
28.5952
26.7943
24.5506
22.2031
19.9517
17.8957
16.0669
14.4526
13.0179
11.7224
10.528
9.40213
8.3192
7.26161
6.22026
5.19325
4.18227
3.18984
2.2173
1.26426
0.328743
-0.591509
-1.49745
-2.38803
-3.25965
-4.10645
-4.92083
-5.69524
-6.42461
-7.10942
-7.75625
-8.37635
-8.98414
-9.59612
-10.2295
-10.8989
-11.6104
-12.3561
-13.1186
-13.8753
-14.6026
-15.2778
-15.8824
-16.4066
-16.8542
-17.2419
-17.5947
-17.9414
-18.3121
-18.7361
-19.2369
-19.8231
-20.4806
-21.1797
-21.8846
-22.5581
-23.1661
-23.6813
-24.0892
-24.395
-24.6225
-24.8068
-24.9879
-25.2075
-25.5061
-25.9154
-26.4468
-27.0796
-27.7711
-28.4677
-29.112
-29.6463
-30.0188
-30.1914
-30.1504
-29.9063
-29.4836
-28.913
-28.226
-27.4516
-26.6083
-25.6884
-24.6474
-23.4268
-21.975
-20.2715
-18.3825
-16.4581
37.1136
36.9479
34.537
31.0978
27.4536
24.0346
21.0222
18.4644
16.3384
14.567
13.0609
11.7416
10.5462
9.42568
8.34281
7.27295
6.20669
5.14844
4.10597
3.08666
2.09344
1.12532
0.176813
-0.758315
-1.68329
-2.59805
-3.49769
-4.37343
-5.21172
-5.99779
-6.719
-7.37432
-7.97457
-8.53693
-9.08226
-9.63517
-10.2248
-10.8815
-11.6231
-12.4324
-13.2777
-14.1224
-14.9311
-15.667
-16.2978
-16.8016
-17.1834
-17.4741
-17.7136
-17.9448
-18.2117
-18.5628
-19.0454
-19.6853
-20.4509
-21.2879
-22.1378
-22.9454
-23.657
-24.2258
-24.6213
-24.8515
-24.961
-25.0071
-25.0499
-25.1511
-25.3777
-25.7956
-26.4406
-27.2702
-28.2097
-29.177
-30.0912
-30.8676
-31.4245
-31.6958
-31.6662
-31.3691
-30.8542
-30.1731
-29.3762
-28.5181
-27.6495
-26.776
-25.7934
-24.5782
-23.0065
-20.9486
-18.496
-15.9786
50.2012
47.6651
41.9592
35.6958
30.0316
25.2797
21.4377
18.4107
16.0989
14.2991
12.8346
11.5822
10.4563
9.39474
8.34742
7.27886
6.18137
5.0807
3.9961
2.94575
1.93329
0.957973
0.00549806
-0.939856
-1.8839
-2.82991
-3.77022
-4.69438
-5.57783
-6.39374
-7.10825
-7.71854
-8.24745
-8.72202
-9.16942
-9.6213
-10.1234
-10.7419
-11.5381
-12.457
-13.4373
-14.4214
-15.364
-16.2074
-16.8959
-17.3721
-17.6438
-17.7797
-17.8443
-17.8964
-17.9901
-18.1998
-18.6272
-19.3661
-20.3181
-21.3773
-22.4515
-23.4708
-24.3531
-25.0194
-25.3913
-25.4813
-25.3907
-25.2117
-25.0275
-24.9138
-24.9738
-25.3484
-26.1683
-27.3022
-28.608
-29.9624
-31.2686
-32.4045
-33.2409
-33.6334
-33.5667
-33.1452
-32.4639
-31.5995
-30.6141
-29.5996
-28.6973
-28.0203
-27.2742
-26.2424
-24.7379
-22.1937
-18.7024
-15.136
73.012
62.9461
50.1839
39.4314
31.2958
25.2141
20.6796
17.327
15.1216
13.5482
12.3024
11.2406
10.2734
9.34308
8.3824
7.32622
6.16048
4.98965
3.8368
2.75017
1.71956
0.757651
-0.176142
-1.12334
-2.08176
-3.07003
-4.06604
-5.07399
-6.04123
-6.93571
-7.64759
-8.17992
-8.59854
-8.9462
-9.25009
-9.53514
-9.85414
-10.3463
-11.2765
-12.3931
-13.5912
-14.7801
-15.9397
-16.9709
-17.7993
-18.237
-18.2994
-18.1877
-17.9931
-17.7877
-17.6015
-17.5229
-17.7605
-18.7397
-20.031
-21.445
-22.8439
-24.1933
-25.3598
-26.237
-26.5667
-26.3712
-25.9474
-25.4235
-24.9035
-24.4262
-24.1165
-24.2597
-25.4435
-27.0863
-28.936
-30.8168
-32.691
-34.3724
-35.6964
-36.2319
-35.9776
-35.2953
-34.3368
-33.2002
-31.8934
-30.519
-29.4208
-29.3636
-29.1662
-28.5872
-27.966
-24.8028
-19.0167
-13.4345
118.345
82.1084
55.5135
39.3978
29.6016
22.9202
18.219
14.5908
13.2342
12.3252
11.5052
10.7622
10.0371
9.33493
8.55462
7.53109
6.1467
4.8725
3.58193
2.47374
1.40674
0.516719
-0.338585
-1.29076
-2.2367
-3.29905
-4.34472
-5.51224
-6.60941
-7.74065
-8.44548
-8.805
-9.0518
-9.23336
-9.35785
-9.40001
-9.33555
-9.3197
-10.7465
-12.2117
-13.7581
-15.181
-16.7003
-18.026
-19.2654
-19.6421
-19.2055
-18.7152
-18.157
-17.6513
-17.0578
-16.3906
-15.8258
-17.6636
-19.5668
-21.5342
-23.3073
-25.179
-26.7829
-28.2428
-28.498
-27.5893
-26.6482
-25.6292
-24.7179
-23.6967
-22.6069
-21.6722
-24.0574
-26.5725
-29.2188
-31.6802
-34.3908
-36.8546
-39.2867
-39.9673
-39.0043
-37.8427
-36.4658
-35.0453
-33.2699
-31.0403
-28.6447
-30.9084
-31.6075
-30.9923
-34.8543
-31.1884
-19.0369
-9.48425
223.434
87.3861
45.7523
30.2637
23.4216
17.7744
14.2131
8.58309
10.7019
10.9739
10.5969
10.258
9.76738
9.4391
9.07685
8.25536
5.97403
4.77876
3.06429
2.13786
0.838991
0.225699
-0.361614
-1.4672
-2.22407
-3.55214
-4.44799
-6.0518
-7.12856
-9.15961
-9.74059
-9.5924
-9.59898
-9.60265
-9.58413
-9.41835
-8.74688
-6.21559
-10.1614
-11.9131
-14.1026
-15.4431
-17.7394
-19.2052
-21.9734
-22.2184
-20.1888
-19.3402
-18.2452
-17.641
-16.6201
-15.1106
-10.4312
-16.4933
-19.01
-21.903
-23.6285
-26.5501
-28.4128
-31.9834
-32.1049
-28.8537
-27.4611
-25.6794
-24.6903
-23.0659
-20.8738
-14.304
-22.4838
-25.8694
-29.7675
-32.1844
-36.4458
-39.3819
-45.399
-46.0692
-42.3165
-40.6997
-38.6574
-37.4011
-35.3001
-31.8003
-21.1589
-34.7061
-35.9408
-26.9501
-52.5826
-49.7928
-15.3146
0.47826
-16.5523
-15.6493
-14.7851
-13.9717
-13.2183
-12.5313
-11.9148
-11.3705
-10.8988
-10.4989
-10.1694
-9.90855
-9.71467
-9.5863
-9.52239
-16.5275
-15.6102
-14.7341
-13.9116
-13.1517
-12.4608
-11.8423
-11.2977
-10.8268
-10.4284
-10.1006
-9.84147
-9.64905
-9.52174
-9.45838
-16.4762
-15.5297
-14.6295
-13.7886
-13.0161
-12.3177
-11.6959
-11.1512
-10.6823
-10.2871
-9.96309
-9.70758
-9.51822
-9.39311
-9.3309
-16.3947
-15.4026
-14.4654
-13.597
-12.8063
-12.0977
-11.4723
-10.9286
-10.4639
-10.0746
-9.75693
-9.50741
-9.32305
-9.20149
-9.14111
-16.2765
-15.2203
-14.2324
-13.3277
-12.5142
-11.7944
-11.1667
-10.627
-10.1701
-9.79033
-9.48251
-9.24199
-9.06497
-8.94857
-8.89085
-16.1118
-14.9696
-13.916
-12.9669
-12.1283
-11.399
-10.7731
-10.2426
-9.79893
-9.43402
-9.14069
-8.91297
-8.74618
-8.63686
-8.58276
-15.8853
-14.6302
-13.495
-12.4954
-11.633
-10.8999
-10.2838
-9.77112
-9.34893
-9.00603
-8.73314
-8.52292
-8.36981
-8.26985
-8.22049
-15.5727
-14.1709
-12.9381
-11.8867
-11.0083
-10.2838
-9.69108
-9.20903
-8.81953
-8.50793
-8.26283
-8.07567
-7.94021
-7.85214
-7.80876
-15.1336
-13.5425
-12.1998
-11.1049
-10.2295
-9.53578
-8.98755
-8.55429
-8.21214
-7.94322
-7.73449
-7.57663
-7.46313
-7.38967
-7.35356
-14.4969
-12.6656
-11.2134
-10.1036
-9.26882
-8.6422
-8.16896
-7.80834
-7.53143
-7.31825
-7.1552
-7.03313
-6.94595
-6.88974
-6.86218
-13.5288
-11.4094
-9.88439
-8.82702
-8.09997
-7.59516
-7.23767
-6.9786
-6.78689
-6.64305
-6.53485
-6.45466
-6.3977
-6.36109
-6.34316
-11.9615
-9.55849
-8.08769
-7.22006
-6.70878
-6.4007
-6.20788
-6.08142
-5.99443
-5.93213
-5.88643
-5.85287
-5.82905
-5.81369
-5.80615
-9.23337
-6.77533
-5.68773
-5.25667
-5.11433
-5.09091
-5.11165
-5.1447
-5.17719
-5.20456
-5.22579
-5.24128
-5.25188
-5.25842
-5.26152
-4.13834
-2.62161
-2.63117
-3.0045
-3.4009
-3.73691
-4.00307
-4.20849
-4.36503
-4.48307
-4.57083
-4.63453
-4.67871
-4.70651
-4.71993
5.893
3.05843
0.789211
-0.729242
-1.74783
-2.45274
-2.95516
-3.32113
-3.59131
-3.7918
-3.93988
-4.04725
-4.12185
-4.16894
-4.19172
-37.9185
-37.9783
-38.1027
-38.3026
-38.596
-39.0123
-39.5982
-40.4314
-41.6494
-43.5214
-46.6578
-52.7463
-67.6341
-116.197
-321.654
-40.6158
-40.7315
-40.9725
-41.3596
-41.9284
-42.7372
-43.8805
-45.517
-47.9261
-51.6355
-57.7246
-68.5837
-89.774
-133.44
-213.174
-43.2328
-43.3979
-43.7411
-44.2904
-45.0942
-46.2298
-47.8204
-50.066
-53.2998
-58.0973
-65.4788
-77.2469
-96.3059
-125.635
-160.063
-45.7353
-45.9407
-46.3665
-47.0447
-48.0297
-49.4064
-51.3057
-53.9289
-57.5877
-62.7648
-70.1867
-80.8467
-95.7059
-114.289
-130.861
-48.0953
-48.3306
-48.8166
-49.5862
-50.6932
-52.2202
-54.2882
-57.0725
-60.8215
-65.8733
-72.6461
-81.5299
-92.5197
-104.34
-113.167
-50.2919
-50.5464
-51.0701
-51.8933
-53.0652
-54.6583
-56.7734
-59.5463
-63.1505
-67.787
-73.6395
-80.7505
-88.7564
-96.4703
-101.601
-52.3118
-52.5755
-53.1155
-53.9582
-55.1449
-56.7339
-58.8017
-61.4428
-64.7626
-68.8562
-73.7589
-79.3495
-85.1958
-90.394
-93.5987
-54.1488
-54.4127
-54.9508
-55.7843
-56.9454
-58.477
-60.4319
-62.868
-65.8372
-69.3634
-73.4008
-77.7709
-82.0851
-85.702
-87.8217
-55.8025
-56.0594
-56.581
-57.3831
-58.4885
-59.9262
-61.728
-63.9229
-66.5252
-69.5155
-72.8117
-76.2311
-79.4586
-82.0497
-83.5166
-57.278
-57.5224
-58.0166
-58.7712
-59.8009
-61.1225
-62.7512
-64.6949
-66.9436
-69.4553
-72.1369
-74.8245
-77.2739
-79.178
-80.2301
-58.5838
-58.8118
-59.2713
-59.9684
-60.9107
-62.1055
-63.5558
-65.255
-67.1793
-69.2771
-71.4579
-73.5834
-75.4679
-76.8978
-77.6742
-59.7312
-59.9407
-60.3612
-60.9953
-61.8452
-62.9111
-64.1874
-65.6589
-67.2946
-69.0413
-70.8173
-72.5095
-73.9777
-75.0712
-75.6575
-60.7332
-60.923
-61.3027
-61.8723
-62.6299
-63.5706
-64.6835
-65.9487
-67.3328
-68.7851
-70.2349
-71.5911
-72.7477
-73.5969
-74.0478
-61.6034
-61.7734
-62.1125
-62.6187
-63.2873
-64.1104
-65.074
-66.156
-67.3235
-68.5307
-69.7175
-70.8111
-71.7312
-72.3992
-72.7512
-62.3555
-62.5063
-62.8064
-63.2522
-63.8376
-64.5527
-65.3822
-66.3038
-67.2867
-68.2904
-69.2648
-70.1517
-70.8897
-71.4208
-71.6991
-63.003
-63.1356
-63.399
-63.7888
-64.2979
-64.9156
-65.6264
-66.4091
-67.2355
-68.0706
-68.8728
-69.5957
-70.1919
-70.6179
-70.8402
-63.5584
-63.6742
-63.9038
-64.2425
-64.6828
-65.2139
-65.8208
-66.4839
-67.1782
-67.8736
-68.5358
-69.1277
-69.6123
-69.9566
-70.1356
-64.0333
-64.1339
-64.3329
-64.6256
-65.0046
-65.4595
-65.9763
-66.537
-67.12
-67.6997
-68.2477
-68.7341
-69.13
-69.4101
-69.5552
-64.4383
-64.5252
-64.6969
-64.9488
-65.2738
-65.6622
-66.1011
-66.5748
-67.0642
-67.5478
-68.0022
-68.4034
-68.7283
-68.9573
-69.0756
-64.783
-64.8578
-65.0053
-65.2212
-65.499
-65.8297
-66.2019
-66.6015
-67.0124
-67.4163
-67.7938
-68.1255
-68.3932
-68.5812
-68.6782
-65.0757
-65.1398
-65.2661
-65.4507
-65.6875
-65.9685
-66.2836
-66.6205
-66.9654
-67.303
-67.6172
-67.8922
-68.1134
-68.2683
-68.3482
-65.3238
-65.3787
-65.4865
-65.6439
-65.8453
-66.0837
-66.35
-66.634
-66.9235
-67.2059
-67.4678
-67.6963
-67.8795
-68.0077
-68.0736
-65.534
-65.5807
-65.6726
-65.8064
-65.9774
-66.1793
-66.4044
-66.6435
-66.8866
-67.123
-67.3416
-67.5317
-67.6839
-67.7902
-67.8448
-65.7116
-65.7514
-65.8295
-65.9431
-66.0881
-66.2589
-66.4489
-66.6502
-66.8544
-67.0524
-67.235
-67.3936
-67.5202
-67.6085
-67.6539
-65.8617
-65.8955
-65.9618
-66.0581
-66.1809
-66.3253
-66.4855
-66.655
-66.8266
-66.9925
-67.1453
-67.2776
-67.3832
-67.4567
-67.4944
-65.9883
-66.0169
-66.0731
-66.1548
-66.2586
-66.3806
-66.5157
-66.6584
-66.8025
-66.9417
-67.0696
-67.1803
-67.2684
-67.3297
-67.3612
-66.095
-66.1193
-66.1669
-66.2359
-66.3237
-66.4267
-66.5407
-66.6608
-66.782
-66.8988
-67.006
-67.0986
-67.1723
-67.2235
-67.2497
-66.1849
-66.2055
-66.2457
-66.3041
-66.3783
-66.4653
-66.5614
-66.6625
-66.7644
-66.8625
-66.9524
-67.0301
-67.0917
-67.1346
-67.1565
-66.2605
-66.2779
-66.312
-66.3614
-66.4241
-66.4975
-66.5785
-66.6637
-66.7495
-66.832
-66.9075
-66.9726
-67.0243
-67.0602
-67.0786
-66.3241
-66.3388
-66.3676
-66.4094
-66.4624
-66.5243
-66.5927
-66.6646
-66.7368
-66.8062
-66.8697
-66.9244
-66.9678
-66.9979
-67.0133
-66.3774
-66.3898
-66.4142
-66.4496
-66.4944
-66.5468
-66.6046
-66.6652
-66.7261
-66.7846
-66.838
-66.8841
-66.9206
-66.9459
-66.9588
-66.422
-66.4326
-66.4533
-66.4832
-66.5212
-66.5655
-66.6144
-66.6656
-66.7171
-66.7664
-66.8115
-66.8503
-66.8811
-66.9024
-66.9133
-66.4594
-66.4683
-66.4859
-66.5113
-66.5435
-66.5811
-66.6225
-66.6659
-66.7095
-66.7512
-66.7894
-66.8222
-66.8482
-66.8662
-66.8754
-66.4905
-66.4981
-66.5131
-66.5347
-66.5621
-66.5941
-66.6292
-66.6661
-66.7031
-66.7386
-66.7709
-66.7988
-66.8208
-66.8361
-66.8439
-66.5163
-66.5228
-66.5356
-66.5541
-66.5775
-66.6048
-66.6348
-66.6663
-66.6978
-66.7281
-66.7556
-66.7793
-66.7981
-66.8111
-66.8178
-66.5376
-66.5432
-66.5541
-66.57
-66.5901
-66.6136
-66.6394
-66.6664
-66.6935
-66.7194
-66.743
-66.7634
-66.7794
-66.7906
-66.7963
-66.5549
-66.5598
-66.5693
-66.5831
-66.6005
-66.6208
-66.6431
-66.6665
-66.6899
-66.7123
-66.7328
-66.7503
-66.7642
-66.7738
-66.7788
-66.5689
-66.5732
-66.5815
-66.5936
-66.6088
-66.6266
-66.6461
-66.6665
-66.687
-66.7066
-66.7245
-66.7398
-66.7519
-66.7604
-66.7647
-66.58
-66.5838
-66.5912
-66.6018
-66.6154
-66.6311
-66.6484
-66.6666
-66.6847
-66.7021
-66.7179
-66.7315
-66.7423
-66.7497
-66.7535
-66.5884
-66.5918
-66.5985
-66.6082
-66.6204
-66.6346
-66.6502
-66.6666
-66.683
-66.6986
-66.7129
-66.7252
-66.7349
-66.7416
-66.745
-66.5945
-66.5976
-66.6038
-66.6127
-66.624
-66.6371
-66.6515
-66.6666
-66.6817
-66.6962
-66.7093
-66.7206
-66.7296
-66.7358
-66.739
-66.5984
-66.6013
-66.6072
-66.6156
-66.6263
-66.6387
-66.6523
-66.6666
-66.6809
-66.6946
-66.707
-66.7177
-66.7262
-66.7321
-66.7351
-66.6002
-66.6031
-66.6088
-66.617
-66.6273
-66.6394
-66.6527
-66.6666
-66.6805
-66.6939
-66.706
-66.7164
-66.7246
-66.7303
-66.7332
-66.6
-66.6029
-66.6086
-66.6168
-66.6272
-66.6393
-66.6527
-66.6666
-66.6806
-66.6939
-66.7061
-66.7165
-66.7248
-66.7305
-66.7334
-66.5977
-66.6007
-66.6066
-66.6151
-66.6259
-66.6384
-66.6522
-66.6666
-66.681
-66.6948
-66.7074
-66.7182
-66.7267
-66.7327
-66.7357
-66.5934
-66.5966
-66.6029
-66.6119
-66.6233
-66.6367
-66.6513
-66.6666
-66.6819
-66.6966
-66.71
-66.7214
-66.7305
-66.7368
-66.74
-66.5869
-66.5904
-66.5972
-66.607
-66.6195
-66.634
-66.6499
-66.6666
-66.6833
-66.6993
-66.7138
-66.7263
-66.7362
-66.7431
-66.7466
-66.5779
-66.5818
-66.5894
-66.6003
-66.6142
-66.6303
-66.648
-66.6666
-66.6852
-66.7029
-66.7191
-66.733
-66.744
-66.7517
-66.7556
-66.5663
-66.5707
-66.5792
-66.5916
-66.6072
-66.6255
-66.6456
-66.6665
-66.6876
-66.7077
-66.726
-66.7418
-66.7542
-66.7628
-66.7673
-66.5516
-66.5567
-66.5664
-66.5806
-66.5985
-66.6194
-66.6424
-66.6665
-66.6906
-66.7137
-66.7347
-66.7528
-66.7671
-66.777
-66.782
-66.5335
-66.5393
-66.5506
-66.567
-66.5878
-66.612
-66.6386
-66.6664
-66.6943
-66.7211
-66.7454
-66.7664
-66.7829
-66.7944
-66.8003
-66.5113
-66.5181
-66.5313
-66.5504
-66.5746
-66.6028
-66.6338
-66.6663
-66.6989
-66.7301
-66.7586
-66.783
-66.8024
-66.8158
-66.8226
-66.4845
-66.4924
-66.5079
-66.5302
-66.5586
-66.5917
-66.6281
-66.6662
-66.7044
-66.741
-66.7745
-66.8032
-66.8259
-66.8417
-66.8498
-66.4522
-66.4615
-66.4796
-66.506
-66.5393
-66.5782
-66.6211
-66.666
-66.711
-66.7542
-66.7936
-66.8275
-66.8544
-66.873
-66.8825
-66.4134
-66.4243
-66.4458
-66.4768
-66.5161
-66.5621
-66.6127
-66.6657
-66.7189
-66.77
-66.8166
-66.8567
-66.8885
-66.9105
-66.9218
-66.367
-66.3799
-66.4052
-66.4419
-66.4884
-66.5427
-66.6025
-66.6653
-66.7284
-66.7889
-66.8441
-66.8917
-66.9294
-66.9556
-66.9689
-66.3116
-66.3269
-66.3568
-66.4002
-66.4552
-66.5195
-66.5904
-66.6648
-66.7396
-66.8114
-66.877
-66.9335
-66.9784
-67.0095
-67.0254
-66.2456
-66.2637
-66.2991
-66.3504
-66.4155
-66.4917
-66.5757
-66.664
-66.7528
-66.8381
-66.9162
-66.9835
-67.0369
-67.0739
-67.0929
-66.1671
-66.1885
-66.2304
-66.2911
-66.3681
-66.4584
-66.5581
-66.6629
-66.7684
-66.8699
-66.9629
-67.043
-67.1067
-67.1509
-67.1735
-66.0737
-66.099
-66.1485
-66.2204
-66.3116
-66.4186
-66.5369
-66.6614
-66.7868
-66.9077
-67.0184
-67.1141
-67.1901
-67.2429
-67.2699
-65.9628
-65.9927
-66.0512
-66.1362
-66.2442
-66.371
-66.5113
-66.6592
-66.8084
-66.9524
-67.0845
-67.1987
-67.2896
-67.3527
-67.3851
-65.8312
-65.8664
-65.9356
-66.036
-66.1638
-66.3139
-66.4804
-66.6561
-66.8337
-67.0053
-67.163
-67.2995
-67.4083
-67.4839
-67.5227
-65.6751
-65.7167
-65.7982
-65.9168
-66.0678
-66.2456
-66.443
-66.6518
-66.8632
-67.0679
-67.2563
-67.4197
-67.55
-67.6407
-67.6873
-65.4902
-65.5391
-65.6352
-65.7749
-65.9534
-66.1636
-66.3976
-66.6457
-66.8974
-67.1416
-67.367
-67.5628
-67.7191
-67.8282
-67.8842
-65.2713
-65.3288
-65.4417
-65.6063
-65.8167
-66.0653
-66.3424
-66.6371
-66.9368
-67.2284
-67.4983
-67.7332
-67.9212
-68.0525
-68.12
-65.0125
-65.0799
-65.2125
-65.4059
-65.6537
-65.947
-66.275
-66.6249
-66.982
-67.3304
-67.6538
-67.9361
-68.1626
-68.3211
-68.4026
-64.707
-64.7858
-64.941
-65.1678
-65.4589
-65.8047
-66.1926
-66.6077
-67.033
-67.4497
-67.8378
-68.1778
-68.4513
-68.6431
-68.7419
-64.3468
-64.4386
-64.6197
-64.8849
-65.2263
-65.633
-66.0911
-66.5835
-67.0902
-67.5888
-68.0553
-68.4656
-68.7968
-69.0296
-69.1498
-63.9228
-64.0294
-64.24
-64.5492
-64.9484
-65.4257
-65.9659
-66.5493
-67.1529
-67.7501
-68.3118
-68.8082
-69.2106
-69.4944
-69.6411
-63.4248
-63.5481
-63.792
-64.1509
-64.6161
-65.1749
-65.8105
-66.5012
-67.2202
-67.9361
-68.6138
-69.2161
-69.7069
-70.0543
-70.2344
-62.8412
-62.983
-63.264
-63.6789
-64.2188
-64.8708
-65.6169
-66.4333
-67.2895
-68.1486
-68.968
-69.7014
-70.3027
-70.7303
-70.9527
-62.1591
-62.3212
-62.6431
-63.12
-63.7436
-64.5013
-65.3746
-66.3378
-67.3569
-68.3888
-69.3819
-70.2784
-71.019
-71.5488
-71.8254
-61.3645
-61.5485
-61.9147
-62.4593
-63.1754
-64.0516
-65.0698
-66.2035
-67.4154
-68.6559
-69.8628
-70.9638
-71.8817
-72.5432
-72.8901
-60.4422
-60.6492
-61.0623
-61.6795
-62.4961
-63.5032
-64.6848
-66.0149
-67.454
-68.9462
-70.4173
-71.7764
-72.9224
-73.7559
-74.1957
-59.3763
-59.6067
-60.0682
-60.7612
-61.6846
-62.8336
-64.1966
-65.7505
-67.4558
-69.2512
-71.0494
-72.7368
-74.1801
-75.2421
-75.8068
-58.1503
-58.4039
-58.9135
-59.6829
-60.7164
-62.0156
-63.5759
-65.381
-67.395
-69.5543
-71.7585
-73.8668
-75.7025
-77.0735
-77.8099
-56.7482
-57.0234
-57.5783
-58.4214
-59.5637
-61.0161
-62.7853
-64.8664
-67.2334
-69.826
-72.5342
-75.1861
-77.5476
-79.3456
-80.3243
-55.1551
-55.4486
-56.043
-56.9521
-58.1956
-59.7969
-61.7781
-64.1532
-66.9152
-70.0176
-73.3489
-76.707
-79.7839
-82.1865
-83.5183
-53.3582
-53.6651
-54.2891
-55.2505
-56.5793
-58.3137
-60.4973
-63.1712
-66.3607
-70.05
-74.145
-78.4232
-82.4884
-85.771
-87.6372
-51.3482
-51.6614
-52.3011
-53.2939
-54.6812
-56.5187
-58.876
-61.8314
-65.459
-69.8007
-74.8139
-80.2873
-85.7363
-90.3391
-93.0518
-49.1208
-49.4312
-50.0678
-51.0635
-52.4705
-54.3628
-56.8395
-60.0247
-64.0613
-69.0851
-75.1632
-82.1681
-89.5717
-96.2197
-100.35
-46.6779
-46.9744
-47.5852
-48.5477
-49.9229
-51.8012
-54.3108
-57.6269
-61.9781
-67.6372
-74.8688
-83.772
-93.9319
-103.848
-110.517
-44.0293
-44.2995
-44.8584
-45.7453
-47.0259
-48.8013
-51.2222
-54.5104
-58.9865
-65.0974
-73.4135
-84.503
-98.4608
-113.733
-125.314
-41.1932
-41.4243
-41.9039
-42.6697
-43.7855
-45.3531
-47.5313
-50.5691
-54.8597
-61.0261
-70.0322
-83.2423
-102.077
-126.18
-148.153
-38.1967
-38.3766
-38.7509
-39.351
-40.2314
-41.481
-43.2437
-45.7577
-49.4302
-54.9828
-63.7315
-78.0753
-102.035
-140.107
-186.25
-35.0754
-35.194
-35.4411
-35.8378
-36.4212
-37.2527
-38.4343
-40.1419
-42.6953
-46.7202
-53.5454
-66.2311
-92.191
-148.429
-256.39
-31.8718
-31.9225
-32.0276
-32.1951
-32.4388
-32.7813
-33.2599
-33.9388
-34.9385
-36.513
-39.2898
-45.1687
-61.3212
-120.831
-401.502
-28.6333
-28.6134
-28.5709
-28.4996
-28.3879
-28.2156
-27.9464
-27.513
-26.7829
-25.471
-22.8801
-16.9721
-0.342135
60.3514
342.682
-25.4087
-25.3202
-25.1345
-24.8323
-24.3793
-23.7174
-22.7471
-21.2934
-19.0315
-15.3177
-8.77418
3.7785
30.037
87.6182
198.728
-22.2458
-22.0947
-21.7791
-21.2699
-20.516
-19.4334
-17.8836
-15.6353
-12.2888
-7.12968
1.15826
15.011
38.6636
77.7116
131.937
18.968
7.74687
3.23635
0.898211
-0.520036
-1.46116
-2.11963
-2.59548
-2.94593
-3.20614
-3.39878
-3.53891
-3.63659
-3.6984
-3.72836
11.9937
7.34889
3.95239
1.73889
0.264806
-0.755995
-1.48687
-2.02286
-2.42185
-2.72061
-2.94332
-3.10624
-3.22031
-3.29273
-3.32791
8.24493
6.08396
3.84687
2.06609
0.734862
-0.252169
-0.989421
-1.54538
-1.96736
-2.28787
-2.52937
-2.70747
-2.83292
-2.91291
-2.95185
5.99675
4.87185
3.42443
2.08108
0.965888
0.0782004
-0.617864
-1.16093
-1.58332
-1.90997
-2.15942
-2.34524
-2.47708
-2.56156
-2.60281
4.52972
3.88367
2.92969
1.93762
1.03891
0.275497
-0.352551
-0.860266
-1.26577
-1.58566
-1.83366
-2.02047
-2.15411
-2.24022
-2.2824
3.51129
3.1093
2.46139
1.72929
1.01799
0.378785
-0.170802
-0.630578
-1.00766
-1.31127
-1.55036
-1.73262
-1.86412
-1.94937
-1.99127
2.772
2.50567
2.05152
1.50652
0.946973
0.419839
-0.0514191
-0.458315
-0.800553
-1.08167
-1.30653
-1.47999
-1.60625
-1.68859
-1.72921
2.21765
2.03246
1.70473
1.29384
0.853442
0.422088
0.0232672
-0.330949
-0.635889
-0.891133
-1.09838
-1.26012
-1.37887
-1.45678
-1.49535
1.79187
1.65822
1.41567
1.10165
0.753621
0.40174
0.0669779
-0.237799
-0.505732
-0.733923
-0.921818
-1.07008
-1.17985
-1.25228
-1.28826
1.45889
1.35961
1.17621
0.933072
0.656469
0.369499
0.0898653
-0.170232
-0.40317
-0.604689
-0.772773
-0.906771
-1.00676
-1.07309
-1.10614
1.19485
1.1194
0.978243
0.787723
0.566511
0.332162
0.099185
-0.121526
-0.322425
-0.498668
-0.647392
-0.767073
-0.857019
-0.916994