/*--------------------------------*- C++ -*----------------------------------*\
| =========                 |                                                 |
| \\      /  F ield         | OpenFOAM: The Open Source CFD Toolbox           |
|  \\    /   O peration     | Version:  5.x                                   |
|   \\  /    A nd           | Web:      www.OpenFOAM.org                      |
|    \\/     M anipulation  |                                                 |
\*---------------------------------------------------------------------------*/
FoamFile
{
    version     2.0;
    format      ascii;
    class       volScalarField;
    location    "2.2";
    object      gradTx;
}
// * * * * * * * * * * * * * * * * * * * * * * * * * * * * * * * * * * * * * //

dimensions      [0 -1 0 1 0 0 0];

internalField   nonuniform List<scalar> 
6300
(
272.934
273.933
275.897
278.755
282.398
286.67
291.367
296.233
300.955
305.174
308.491
310.489
310.764
308.963
304.814
271.913
272.946
274.98
277.949
281.746
286.222
291.177
296.353
301.437
306.055
309.788
312.19
312.822
311.29
307.292
269.836
270.936
273.108
276.292
280.393
285.274
290.742
296.545
302.362
307.798
312.394
315.642
317.025
316.065
312.388
266.637
267.832
270.2
273.695
278.239
283.715
289.949
296.7
303.644
310.359
316.325
320.938
323.549
323.537
320.396
262.222
263.533
266.144
270.027
275.132
281.375
288.615
296.641
305.134
313.648
321.588
328.213
332.677
334.119
331.812
256.474
257.913
260.793
265.114
270.866
278.013
286.475
296.091
306.579
317.486
328.142
337.627
344.802
348.43
347.4
249.266
250.83
253.98
258.749
265.181
273.316
283.158
294.645
307.58
321.554
335.844
349.326
360.451
367.378
368.323
240.471
242.142
245.525
250.698
257.773
266.887
278.174
291.727
307.519
325.281
344.328
363.355
380.274
392.28
396.381
229.985
231.722
235.259
240.723
248.306
258.263
270.902
286.548
305.463
327.695
352.806
379.465
404.98
425.061
434.441
217.741
219.481
223.046
228.608
236.442
246.935
260.6
278.074
300.064
327.205
359.708
396.688
435.086
468.508
487.323
203.737
205.397
208.816
214.202
221.899
232.413
246.469
265.06
289.49
321.324
362.101
412.459
470.132
526.525
563.71
188.055
189.534
192.598
197.468
204.517
214.328
227.779
246.184
271.485
306.47
354.882
420.877
506.418
603.706
680.814
170.875
172.071
174.557
178.535
184.356
192.583
204.114
220.39
243.769
278.16
330.046
409.711
530.913
701.017
877.318
152.482
153.301
155.005
157.743
161.771
167.516
175.683
187.472
205.017
232.329
277.398
356.97
506.456
792.066
1255.39
133.255
133.629
134.405
135.644
137.453
140.009
143.611
148.777
156.478
168.715
190.221
234.279
345.825
705.316
2142.15
298.918
291.636
282.67
272.149
260.253
247.199
233.231
218.598
203.542
188.294
173.057
158.009
143.299
129.041
115.326
102.213
89.7395
77.9217
66.7577
56.232
46.3181
36.9816
28.1831
19.8801
12.0292
4.58707
-2.48799
-9.23582
-15.6937
-21.8963
-27.8753
-33.6595
-39.2747
-44.7437
-50.086
-55.3184
-60.4541
-65.5038
-70.4753
-75.374
-80.2035
-84.966
-89.6633
-94.2968
-98.8683
-103.38
-107.835
-112.237
-116.59
-120.896
-125.157
-129.375
-133.548
-137.673
-141.745
-145.757
-149.701
-153.569
-157.352
-161.042
-164.633
-168.118
-171.49
-174.741
-177.862
-180.838
-183.653
-186.285
-188.706
-190.884
-192.783
-194.362
-195.583
-196.403
-196.784
-196.693
-196.1
-194.981
-193.323
-191.116
-188.361
-185.069
-181.259
-176.96
-172.212
-167.068
-161.588
-155.845
-149.919
-143.893
301.417
294.044
284.898
274.119
261.91
248.512
234.187
219.204
203.822
188.28
172.79
157.533
142.655
128.273
114.472
101.307
88.8121
76.9974
65.8568
55.3698
45.5056
36.2262
27.4888
19.2482
11.4591
4.07685
-2.94147
-9.63622
-16.0451
-22.2028
-28.1412
-33.8891
-39.4724
-44.914
-50.2334
-55.4472
-60.5686
-65.6079
-70.5723
-75.4666
-80.2935
-85.0545
-89.7503
-94.3818
-98.9504
-103.458
-107.909
-112.306
-116.655
-120.958
-125.219
-129.439
-133.617
-137.75
-141.832
-145.855
-149.811
-153.691
-157.485
-161.186
-164.787
-168.282
-171.665
-174.93
-178.07
-181.071
-183.918
-186.589
-189.056
-191.287
-193.242
-194.881
-196.159
-197.034
-197.466
-197.416
-196.856
-195.76
-194.112
-191.904
-189.136
-185.816
-181.963
-177.606
-172.784
-167.55
-161.967
-156.11
-150.062
-143.913
306.558
298.994
289.463
278.141
265.274
251.153
236.086
220.383
204.333
188.195
172.195
156.517
141.309
126.682
112.713
99.4524
86.9209
75.1198
64.0325
53.6291
43.8701
34.7094
26.0979
17.9852
10.3219
3.06061
-3.84335
-10.4314
-16.7419
-22.8097
-28.6668
-34.3421
-39.8616
-45.2482
-50.5218
-55.6988
-60.7922
-65.8114
-70.7627
-75.6494
-80.4723
-85.2312
-89.9249
-94.553
-99.116
-103.616
-108.057
-112.444
-116.782
-121.079
-125.338
-129.562
-133.75
-137.899
-142.002
-146.049
-150.031
-153.936
-157.753
-161.474
-165.093
-168.606
-172.01
-175.302
-178.477
-181.526
-184.436
-187.186
-189.748
-192.087
-194.159
-195.919
-197.317
-198.306
-198.839
-198.877
-198.383
-197.334
-195.709
-193.5
-190.705
-187.331
-183.394
-178.921
-173.95
-168.535
-162.741
-156.649
-150.351
-143.948
314.645
306.764
296.594
284.376
270.436
255.149
238.901
222.063
204.972
187.918
171.141
154.832
139.136
124.153
109.951
96.5629
83.9949
72.2321
61.242
50.9798
41.3922
32.4213
24.008
16.0942
8.62473
1.54823
-5.18223
-11.6093
-17.7717
-23.7044
-29.4394
-35.0056
-40.4292
-45.7334
-50.9384
-56.0608
-61.1132
-66.1043
-71.0386
-75.9169
-80.7373
-85.4962
-90.1893
-94.8138
-99.3686
-103.856
-108.28
-112.648
-116.969
-121.253
-125.507
-129.735
-133.939
-138.114
-142.251
-146.339
-150.362
-154.307
-158.159
-161.91
-165.553
-169.089
-172.518
-175.843
-179.065
-182.183
-185.186
-188.056
-190.764
-193.27
-195.526
-197.478
-199.066
-200.234
-200.928
-201.101
-200.713
-199.736
-198.149
-195.941
-193.108
-189.656
-185.596
-180.952
-175.758
-170.065
-163.944
-157.484
-150.792
-143.987
326.186
317.813
306.661
293.081
277.531
260.523
242.561
224.108
205.56
187.246
169.421
152.275
135.945
120.515
106.032
92.5082
79.9267
68.2497
57.4223
47.3785
38.0458
29.3499
21.2183
13.5825
6.38028
-0.444275
-6.94039
-13.1515
-19.1161
-24.8687
-30.4407
-35.861
-41.156
-46.3498
-51.4633
-56.5136
-61.5136
-66.4708
-71.3877
-76.2613
-81.0852
-85.8504
-90.548
-95.1708
-99.7155
-104.183
-108.58
-112.918
-117.209
-121.469
-125.711
-129.943
-134.168
-138.382
-142.572
-146.721
-150.808
-154.81
-158.712
-162.5
-166.17
-169.725
-173.175
-176.531
-179.806
-183.005
-186.128
-189.16
-192.07
-194.814
-197.333
-199.559
-201.421
-202.846
-203.768
-204.132
-203.892
-203.016
-201.483
-199.281
-196.405
-192.856
-188.641
-183.774
-178.283
-172.213
-165.636
-158.654
-151.396
-144.012
341.969
332.848
320.214
304.609
286.718
267.266
246.928
226.288
205.817
185.877
166.73
148.556
131.469
115.528
100.749
87.1135
74.5749
63.0635
52.4945
42.7735
33.8028
25.4864
17.7346
10.4663
3.61104
-2.89125
-9.09119
-15.0316
-20.7495
-26.2776
-31.646
-36.8833
-42.0163
-47.0704
-52.0685
-57.0293
-61.9668
-66.8878
-71.7918
-76.6711
-81.5119
-86.2972
-91.01
-95.6368
-100.17
-104.609
-108.965
-113.252
-117.492
-121.71
-125.927
-130.16
-134.414
-138.684
-142.953
-147.194
-151.374
-155.46
-159.428
-163.26
-166.953
-170.515
-173.968
-177.338
-180.654
-183.939
-187.203
-190.439
-193.616
-196.682
-199.562
-202.168
-204.405
-206.182
-207.414
-208.032
-207.987
-207.243
-205.781
-203.591
-200.671
-197.016
-192.624
-187.496
-181.641
-175.09
-167.911
-160.22
-152.181
-143.994
363.203
352.922
338.029
319.414
298.145
275.276
251.725
228.223
205.313
183.372
162.648
143.285
125.357
108.883
93.8363
80.1595
67.7646
56.5421
46.3679
37.1108
28.64
20.8322
13.5761
6.77613
0.353626
-5.75432
-11.5973
-17.2149
-22.6397
-27.9009
-33.0258
-38.042
-42.9776
-47.8604
-52.7168
-57.5695
-62.4352
-67.3215
-72.225
-77.1305
-82.0133
-86.8437
-91.5921
-96.2343
-100.756
-105.155
-109.445
-113.651
-117.807
-121.952
-126.122
-130.345
-134.636
-138.988
-143.375
-147.754
-152.074
-156.283
-160.341
-164.222
-167.923
-171.463
-174.88
-178.224
-181.549
-184.903
-188.319
-191.803
-195.324
-198.818
-202.186
-205.307
-208.054
-210.302
-211.943
-212.89
-213.088
-212.504
-211.127
-208.956
-205.993
-202.236
-197.669
-192.266
-186.001
-178.871
-170.924
-162.288
-153.18
-143.884
391.762
379.616
361.185
338.025
311.864
284.259
256.445
229.304
203.415
179.125
156.616
135.962
117.171
100.2
84.9731
71.3822
59.2898
48.536
38.9459
30.3409
22.5478
15.4082
8.78463
2.56542
-3.33485
-8.97818
-14.4084
-19.6571
-24.7485
-29.7043
-34.5472
-39.3032
-44.0024
-48.677
-53.36
-58.0817
-62.8656
-67.7234
-72.649
-77.6169
-82.5853
-87.5042
-92.3237
-97.0026
-101.515
-105.856
-110.045
-114.12
-118.137
-122.156
-126.239
-130.434
-134.77
-139.242
-143.809
-148.401
-152.933
-157.324
-161.508
-165.443
-169.127
-172.59
-175.899
-179.138
-182.402
-185.779
-189.34
-193.112
-197.073
-201.137
-205.165
-208.987
-212.422
-215.298
-217.469
-218.829
-219.315
-218.908
-217.616
-215.46
-212.461
-208.622
-203.917
-198.277
-191.608
-183.829
-174.93
-165.036
-154.448
-143.604
430.667
415.336
391.128
360.943
327.649
293.536
260.189
228.578
199.218
172.32
147.924
125.975
106.381
89.0278
73.7789
60.4727
48.9148
38.8817
30.1336
22.4296
15.5421
9.26777
3.43697
-2.0797
-7.36976
-12.4866
-17.4602
-22.3065
-27.0346
-31.6538
-36.1785
-40.6326
-45.0497
-49.4702
-53.9375
-58.4952
-63.1818
-68.0205
-73.0063
-78.0975
-83.2244
-88.3041
-93.2548
-98.0081
-102.519
-106.776
-110.807
-114.674
-118.463
-122.269
-126.193
-130.32
-134.708
-139.36
-144.208
-149.134
-153.998
-158.666
-163.032
-167.029
-170.649
-173.942
-177.018
-180.016
-183.091
-186.394
-190.055
-194.152
-198.676
-203.507
-208.441
-213.224
-217.595
-221.31
-224.166
-226.025
-226.829
-226.586
-225.348
-223.18
-220.139
-216.258
-211.509
-205.77
-198.815
-190.398
-180.366
-168.786
-156.085
-143.006
485.05
463.809
429.654
388.317
344.601
301.705
261.433
224.613
191.477
161.924
135.72
112.615
92.389
74.8506
59.8149
47.075
36.3742
27.4075
19.8479
13.3721
7.68193
2.51618
-2.33665
-7.02592
-11.6303
-16.1789
-20.6743
-25.1062
-29.4596
-33.7229
-37.8966
-42.0019
-46.0805
-50.1852
-54.3752
-58.7151
-63.2718
-68.0997
-73.2064
-78.5222
-83.9278
-89.2866
-94.4681
-99.3606
-103.887
-108.021
-111.805
-115.34
-118.762
-122.215
-125.854
-129.831
-134.268
-139.196
-144.495
-149.956
-155.344
-160.446
-165.089
-169.161
-172.64
-175.61
-178.25
-180.786
-183.454
-186.496
-190.143
-194.577
-199.836
-205.732
-211.934
-218.055
-223.714
-228.559
-232.298
-234.743
-235.849
-235.698
-234.421
-232.155
-229.027
-225.141
-220.528
-215.014
-208.126
-199.295
-188.032
-174.147
-158.267
-141.796
564.309
530.852
478.494
419.091
360.353
306.088
257.709
215.349
178.585
146.719
119.07
95.1329
74.5526
57.0987
42.577
30.7741
21.3706
13.9409
8.03488
3.21541
-0.902851
-4.65717
-8.31865
-12.0688
-15.9469
-19.9256
-23.9592
-27.9997
-31.9965
-35.9051
-39.6987
-43.3971
-47.0622
-50.7675
-54.5884
-58.6155
-62.9652
-67.7719
-73.1012
-78.8141
-84.6957
-90.522
-96.096
-101.239
-105.819
-109.769
-113.159
-116.172
-119.015
-121.895
-125.029
-128.679
-133.122
-138.499
-144.552
-150.884
-157.104
-162.889
-167.967
-172.149
-175.365
-177.753
-179.635
-181.365
-183.28
-185.727
-189.099
-193.814
-200.079
-207.518
-215.544
-223.553
-231.007
-237.399
-242.295
-245.39
-246.682
-246.429
-244.917
-242.374
-239.007
-235.073
-230.843
-226.236
-220.236
-211.694
-199.472
-182.382
-161.3
-139.309
687.409
625.074
537.452
448.878
369.637
301.976
245.307
198.027
158.645
125.457
97.0954
72.843
52.2449
35.1595
21.4617
11.0577
3.56538
-1.67922
-5.30261
-7.91206
-9.97451
-11.9292
-14.1401
-16.8972
-20.0903
-23.5673
-27.2104
-30.935
-34.6409
-38.2354
-41.6222
-44.8265
-47.9743
-51.1731
-54.4962
-58.0439
-61.9944
-66.6869
-72.4399
-78.8599
-85.5411
-92.1196
-98.3429
-103.93
-108.656
-112.326
-115.057
-117.247
-119.217
-121.208
-123.465
-126.385
-130.631
-136.831
-144.208
-151.975
-159.493
-166.35
-172.137
-176.532
-179.284
-180.625
-181.241
-181.678
-182.344
-183.625
-186.125
-190.819
-198.631
-208.462
-219.179
-229.851
-239.83
-248.395
-254.886
-258.634
-259.739
-258.976
-256.899
-253.777
-249.805
-245.432
-241.701
-239.464
-236.007
-229.391
-217.921
-196.367
-165.641
-133.883
897.391
755.652
597.747
465.207
362.232
282.032
219.382
169.335
129.799
97.2605
69.2286
45.3218
24.9156
8.38334
-4.35223
-12.8052
-17.4301
-19.5889
-20.0576
-19.7879
-19.1651
-18.799
-19.145
-21.0694
-23.7988
-26.9454
-30.3214
-33.8763
-37.427
-40.8487
-43.7943
-46.3256
-48.8026
-51.3917
-54.0736
-56.8867
-59.9509
-64.0712
-70.8155
-78.528
-86.5334
-94.2282
-101.506
-107.86
-113.017
-116.236
-117.737
-118.639
-119.392
-120.14
-120.949
-122.182
-125.33
-133.467
-143.307
-153.425
-162.837
-171.356
-178.311
-183.283
-185.239
-184.54
-183.107
-181.664
-180.522
-179.771
-179.991
-183.336
-194.279
-208.128
-222.881
-237.147
-250.69
-262.379
-271.427
-275.683
-275.487
-273.415
-270.385
-266.403
-261.182
-254.864
-250.409
-254.45
-256.324
-254.08
-250.89
-223.559
-171.47
-121.01
1304.98
909.439
621.464
438.929
322.008
236.808
175.308
125.514
90.8898
62.596
35.4504
12.7966
-7.94851
-23.8098
-36.2782
-42.123
-41.9201
-39.8773
-35.8244
-32.1244
-27.9433
-24.6055
-21.8427
-24.0514
-26.8769
-29.9665
-33.1499
-36.8015
-40.3789
-44.1302
-46.5481
-47.8906
-49.46
-51.4686
-53.4562
-55.3633
-56.3832
-57.6743
-67.7957
-77.7734
-87.9733
-96.9376
-106.001
-113.516
-120.168
-122.624
-121.282
-120.246
-119.576
-118.987
-117.823
-115.223
-112.847
-127.653
-142.008
-155.895
-167.469
-178.616
-187.343
-194.38
-195.019
-189.515
-184.991
-181.218
-178.139
-174.518
-169.359
-164.912
-185.742
-206.495
-227.286
-245.485
-264.221
-280.166
-294.869
-299.144
-293.936
-289.234
-285.244
-280.813
-274.138
-261.611
-246.884
-272.555
-282.574
-280.128
-318.623
-286.401
-174.951
-87.9416
2227.48
908.257
493.301
318.134
236.091
157.448
114.376
59.8567
42.8808
26.3026
-4.76228
-22.4344
-47.793
-60.828
-77.6747
-80.0796
-68.9925
-62.9972
-51.0256
-45.1026
-35.4625
-29.5459
-17.3498
-26.1148
-29.5452
-32.8248
-35.2789
-39.8109
-43.0604
-49.3147
-50.8364
-49.1183
-49.4767
-51.5699
-52.9504
-55.1147
-52.4233
-38.561
-64.9824
-76.6994
-91.1936
-99.506
-112.729
-120.416
-133.365
-134.482
-124.391
-121.33
-119.644
-118.666
-116.766
-107.944
-75.6244
-122.491
-141.384
-161.698
-172.717
-189.364
-198.813
-214.691
-213.65
-193.078
-185.796
-179.775
-176.538
-171.48
-157.704
-110.092
-177.316
-204.807
-235.425
-253.052
-281.77
-299.741
-333.33
-336.259
-311.659
-304.029
-300.735
-298.456
-295.522
-271.527
-185.185
-313.198
-326.771
-247.223
-488.188
-463.33
-143.239
-0.0697059
-137.253
-130.117
-123.223
-116.682
-110.585
-104.994
-99.9539
-95.4883
-91.6067
-88.3081
-85.5847
-83.4256
-81.8189
-80.7543
-80.224
-137.142
-129.875
-122.869
-116.24
-110.077
-104.444
-99.3794
-94.9043
-91.0238
-87.7328
-85.0205
-82.8731
-81.2769
-80.2199
-79.6937
-136.907
-129.371
-122.139
-115.332
-109.04
-103.324
-98.2157
-93.7258
-89.8512
-86.579
-83.8914
-81.7695
-80.1955
-79.1549
-78.6373
-136.52
-128.565
-120.983
-113.907
-107.429
-101.598
-96.4332
-91.9321
-88.0763
-84.8405
-82.1966
-80.118
-78.5809
-77.5669
-77.0632
-135.935
-127.386
-119.32
-111.886
-105.169
-99.2041
-93.9876
-89.493
-85.6814
-82.5099
-79.9368
-77.9248
-76.4432
-75.4687
-74.9853
-135.076
-125.723
-117.026
-109.147
-102.158
-96.0621
-90.82
-86.3709
-82.6466
-79.5811
-77.1157
-75.2012
-73.7986
-72.8792
-72.4242
-133.82
-123.403
-113.914
-105.519
-98.254
-92.0661
-86.8595
-82.524
-78.9529
-76.0522
-73.7438
-71.9657
-70.6708
-69.8254
-69.408
-131.967
-120.158
-109.708
-100.762
-93.2724
-87.0887
-82.028
-77.9126
-74.5887
-71.931
-69.8416
-68.247
-67.0934
-66.3437
-65.9744
-129.176
-115.552
-103.997
-94.549
-86.9846
-80.9884
-76.251
-72.5099
-69.5585
-67.2413
-65.4448
-64.0873
-63.1123
-62.4815
-62.1716
-124.825
-108.876
-96.1785
-86.4525
-79.1287
-73.6293
-69.4778
-66.3174
-63.8939
-62.0311
-60.6087
-59.5453
-58.7868
-58.2983
-58.0589
-117.722
-98.9501
-85.3884
-75.9537
-69.4484
-64.9223
-61.7135
-59.388
-57.6686
-56.3806
-55.4136
-54.6984
-54.1915
-53.866
-53.7068
-105.451
-83.8132
-70.4714
-62.5256
-57.7888
-54.8979
-53.0661
-51.8524
-51.0121
-50.4089
-49.9668
-49.6433
-49.4145
-49.2675
-49.1954
-82.9129
-60.3803
-50.1583
-45.8883
-44.2832
-43.8146
-43.8004
-43.9434
-44.1183
-44.2761
-44.4015
-44.4934
-44.5559
-44.5941
-44.612
-39.1849
-24.6367
-23.8932
-26.5861
-29.6413
-32.2767
-34.3774
-36.0026
-37.2417
-38.1758
-38.8697
-39.3729
-39.7216
-39.9408
-40.0466
48.737
24.9118
5.80824
-6.92157
-15.4191
-21.2734
-25.43
-28.4479
-30.6701
-32.3155
-33.5286
-34.407
-35.0166
-35.4011
-35.587
115.274
115.216
115.085
114.852
114.463
113.823
112.763
110.967
107.808
101.888
89.6168
59.9262
-28.7353
-361.837
-1881.11
98.9603
98.5171
97.5824
96.0495
93.7287
90.2999
85.2195
77.5322
65.4707
45.5359
10.2453
-57.6353
-199.498
-508.229
-1093.78
82.9456
82.1517
80.4875
77.786
73.7555
67.9155
59.4779
47.1263
28.5935
-0.157225
-46.4983
-123.826
-254.375
-462.36
-713.024
67.4748
66.3831
64.1056
60.4382
55.0319
47.3278
36.4472
21.0057
-1.19371
-33.638
-81.7225
-153.054
-255.471
-386.832
-506.303
52.7554
51.4315
48.6824
44.2919
37.8978
28.9399
16.5782
-0.426916
-23.871
-56.2617
-100.803
-160.687
-236.458
-319.547
-382.522
38.9493
37.4636
34.3935
29.5315
22.5388
12.9107
-0.07101
-17.3911
-40.3366
-70.4488
-109.231
-157.282
-212.351
-266.219
-302.457
26.1696
24.5906
21.3439
16.246
9.00547
-0.794274
-13.7118
-30.4515
-51.8252
-78.6135
-111.224
-148.998
-189.068
-225.124
-247.545
14.4816
12.871
9.57565
4.44464
-2.75431
-12.3378
-24.7019
-40.2966
-59.5541
-82.7329
-109.629
-139.117
-168.565
-193.49
-208.194
3.90771
2.31718
-0.921633
-5.92403
-12.8611
-21.9529
-33.4514
-47.6008
-64.5603
-84.2686
-106.233
-129.26
-151.199
-168.946
-179.045
-5.56544
-7.09563
-10.1975
-14.9521
-21.4738
-29.8988
-40.3619
-52.955
-67.6583
-84.236
-102.098
-120.155
-136.739
-149.709
-156.905
-13.9793
-15.4202
-18.3287
-22.7555
-28.7668
-36.431
-45.7945
-56.8449
-69.4551
-83.3106
-97.8247
-112.072
-124.784
-134.476
-139.756
-21.3955
-22.7283
-25.4082
-29.4608
-34.9138
-41.7843
-50.0566
-59.652
-70.3874
-81.9268
-93.7351
-105.053
-114.923
-122.304
-126.271
-27.8886
-29.1032
-31.5369
-35.1954
-40.0781
-46.1652
-53.4006
-61.6677
-70.761
-80.3557
-89.9847
-99.0362
-106.789
-112.5
-115.538
-33.5405
-34.6335
-36.8168
-40.0817
-44.4072
-49.7496
-56.0286
-63.1099
-70.7863
-78.7601
-86.6342
-93.9199
-100.071
-104.548
-106.912
-38.4352
-39.4085
-41.3472
-44.2329
-48.0314
-52.6846
-58.1
-64.139
-70.6048
-77.2331
-83.6913
-89.5902
-94.5128
-98.063
-99.926
-42.6556
-43.5146
-45.2214
-47.7515
-51.0631
-55.0909
-59.7387
-64.8719
-70.3101
-75.8235
-81.136
-85.9372
-89.9063
-92.7477
-94.2315
-46.2807
-47.0332
-48.525
-50.7285
-53.5983
-57.0671
-61.0407
-65.3931
-69.9629
-74.553
-78.935
-82.8609
-86.0818
-88.3737
-89.5661
-49.3844
-50.0393
-51.3354
-53.2436
-55.7183
-58.6934
-62.08
-65.7633
-69.6014
-73.4265
-77.0501
-80.2733
-82.9012
-84.7622
-85.7274
-52.0342
-52.6012
-53.7214
-55.3662
-57.4913
-60.0344
-62.9135
-66.0262
-69.2488
-72.4395
-75.4428
-78.0983
-80.2524
-81.7719
-82.5579
-54.2911
-54.7798
-55.7437
-57.1559
-58.9745
-61.1422
-63.5852
-66.2126
-68.9182
-71.5823
-74.0764
-76.271
-78.0436
-79.29
-79.9334
-56.2093
-56.6288
-57.4554
-58.6638
-60.2158
-62.0593
-64.1288
-66.3449
-68.6164
-70.8427
-72.9178
-74.7361
-76.1997
-77.2261
-77.755
-57.8368
-58.1958
-58.9024
-59.9336
-61.2549
-62.8198
-64.5706
-66.4386
-68.346
-70.208
-71.9371
-73.447
-74.659
-75.507
-75.9434
-59.2154
-59.5218
-60.1243
-61.0023
-62.125
-63.4515
-64.9312
-66.5051
-68.1068
-69.6655
-71.1082
-72.3646
-73.3706
-74.0732
-74.4344
-60.3817
-60.6426
-61.1553
-61.9015
-62.8539
-63.9768
-65.2265
-66.5522
-67.8976
-69.2032
-70.4086
-71.4557
-72.2925
-72.8761
-73.1758
-61.3671
-61.5889
-62.0244
-62.6576
-63.4646
-64.4144
-65.4691
-66.5855
-67.716
-68.8104
-69.8186
-70.6927
-71.39
-71.8757
-72.125
-62.1988
-62.3871
-62.7565
-63.2932
-63.9763
-64.7791
-65.669
-66.6092
-67.5593
-68.4773
-69.3215
-70.0522
-70.6343
-71.0393
-71.247
-62.9
-63.0597
-63.3728
-63.8272
-64.4051
-65.0833
-65.8341
-66.626
-67.4248
-68.1955
-68.903
-69.5146
-70.0013
-70.3396
-70.513
-63.4906
-63.6258
-63.891
-64.2757
-64.7644
-65.3373
-65.9707
-66.6378
-67.31
-67.9575
-68.5511
-69.0637
-69.4712
-69.7542
-69.8992
-63.9873
-64.1019
-64.3265
-64.652
-65.0653
-65.5493
-66.0838
-66.6462
-67.2122
-67.7567
-68.2554
-68.6856
-69.0273
-69.2645
-69.386
-64.4047
-64.5018
-64.692
-64.9675
-65.3171
-65.7262
-66.1777
-66.6522
-67.1292
-67.5877
-68.0073
-68.3688
-68.6559
-68.855
-68.957
-64.7548
-64.8371
-64.9983
-65.2317
-65.5277
-65.8739
-66.2556
-66.6564
-67.059
-67.4457
-67.7993
-68.1038
-68.3453
-68.5129
-68.5986
-65.0478
-65.1177
-65.2545
-65.4525
-65.7035
-65.9969
-66.3201
-66.6594
-66.9999
-67.3267
-67.6253
-67.8823
-68.0861
-68.2274
-68.2997
-65.2925
-65.3519
-65.4682
-65.6366
-65.8499
-66.0992
-66.3736
-66.6615
-66.9503
-67.2273
-67.4802
-67.6978
-67.8703
-67.9898
-68.051
-65.4959
-65.5466
-65.6459
-65.7896
-65.9715
-66.184
-66.4178
-66.663
-66.9088
-67.1445
-67.3596
-67.5445
-67.6911
-67.7926
-67.8446
-65.6642
-65.7077
-65.7928
-65.916
-66.0719
-66.2539
-66.4542
-66.6641
-66.8744
-67.076
-67.2598
-67.4179
-67.5431
-67.6299
-67.6742
-65.8023
-65.8399
-65.9134
-66.0196
-66.1542
-66.3112
-66.4839
-66.6648
-66.8461
-67.0197
-67.178
-67.3141
-67.4218
-67.4964
-67.5346
-65.9144
-65.9471
-66.0112
-66.1038
-66.2209
-66.3576
-66.5079
-66.6654
-66.823
-66.974
-67.1116
-67.2299
-67.3235
-67.3883
-67.4215
-66.0039
-66.0327
-66.0892
-66.1708
-66.2741
-66.3946
-66.5271
-66.6657
-66.8046
-66.9375
-67.0586
-67.1627
-67.2451
-67.3021
-67.3313
-66.0733
-66.0992
-66.1497
-66.2229
-66.3154
-66.4233
-66.5419
-66.666
-66.7902
-66.9091
-67.0175
-67.1106
-67.1843
-67.2353
-67.2613
-66.1249
-66.1485
-66.1947
-66.2615
-66.346
-66.4445
-66.5528
-66.6662
-66.7796
-66.8881
-66.987
-67.072
-67.1392
-67.1857
-67.2095
-66.16
-66.1821
-66.2253
-66.2878
-66.3669
-66.459
-66.5603
-66.6663
-66.7723
-66.8738
-66.9662
-67.0456
-67.1084
-67.1519
-67.1741
-66.1799
-66.2011
-66.2426
-66.3027
-66.3787
-66.4672
-66.5645
-66.6663
-66.7682
-66.8657
-66.9545
-67.0307
-67.091
-67.1328
-67.1541
-66.185
-66.206
-66.2471
-66.3066
-66.3817
-66.4694
-66.5656
-66.6664
-66.7672
-66.8636
-66.9514
-67.0268
-67.0865
-67.1278
-67.1489
-66.1755
-66.197
-66.2389
-66.2995
-66.3761
-66.4655
-66.5637
-66.6664
-66.7691
-66.8674
-66.957
-67.0339
-67.0947
-67.1368
-67.1584
-66.1513
-66.1737
-66.2177
-66.2813
-66.3618
-66.4555
-66.5585
-66.6663
-66.7742
-66.8774
-66.9714
-67.0521
-67.1159
-67.1601
-67.1827
-66.1114
-66.1356
-66.183
-66.2515
-66.3381
-66.4391
-66.5501
-66.6663
-66.7825
-66.8937
-66.995
-67.0819
-67.1508
-67.1984
-67.2228
-66.0547
-66.0814
-66.1336
-66.2091
-66.3045
-66.4158
-66.5381
-66.6661
-66.7942
-66.9168
-67.0285
-67.1244
-67.2003
-67.2528
-67.2797
-65.9796
-66.0095
-66.0681
-66.1528
-66.2599
-66.3849
-66.5222
-66.6659
-66.8098
-66.9475
-67.0729
-67.1807
-67.266
-67.325
-67.3552
-65.8837
-65.9178
-65.9845
-66.081
-66.203
-66.3454
-66.5019
-66.6657
-66.8296
-66.9866
-67.1297
-67.2526
-67.3498
-67.4172
-67.4516
-65.7642
-65.8034
-65.8803
-65.9914
-66.132
-66.2961
-66.4764
-66.6653
-66.8543
-67.0354
-67.2004
-67.3422
-67.4544
-67.5322
-67.5719
-65.6174
-65.663
-65.7523
-65.8814
-66.0448
-66.2355
-66.4451
-66.6647
-66.8846
-67.0952
-67.2873
-67.4523
-67.583
-67.6735
-67.7197
-65.4391
-65.4924
-65.5967
-65.7477
-65.9387
-66.1617
-66.407
-66.6639
-66.9213
-67.168
-67.3929
-67.5863
-67.7394
-67.8454
-67.8996
-65.2238
-65.2864
-65.4089
-65.5861
-65.8105
-66.0724
-66.3607
-66.6628
-66.9655
-67.2557
-67.5205
-67.7481
-67.9283
-68.0532
-68.1171
-64.9652
-65.0389
-65.1831
-65.3918
-65.6562
-65.965
-66.3048
-66.6612
-67.0185
-67.361
-67.6737
-67.9426
-68.1557
-68.3034
-68.3789
-64.6555
-64.7424
-64.9126
-65.159
-65.4712
-65.8359
-66.2376
-66.6589
-67.0816
-67.4871
-67.8574
-68.1759
-68.4284
-68.6034
-68.693
-64.2855
-64.3883
-64.5894
-64.8806
-65.2498
-65.6812
-66.1567
-66.6557
-67.1567
-67.6375
-68.0768
-68.455
-68.7549
-68.9628
-69.0692
-63.8444
-63.9659
-64.2037
-64.5483
-64.9851
-65.4961
-66.0595
-66.6513
-67.2457
-67.8166
-68.3387
-68.7883
-69.145
-69.3924
-69.5191
-63.3192
-63.4628
-63.7442
-64.1519
-64.6692
-65.2746
-65.9427
-66.6449
-67.3509
-68.0296
-68.6507
-69.186
-69.6109
-69.9057
-70.0567
-62.6944
-62.8642
-63.1971
-63.6796
-64.2921
-65.0096
-65.8021
-66.636
-67.4751
-68.2826
-69.0222
-69.6602
-70.167
-70.5188
-70.699
-61.952
-62.1527
-62.5463
-63.1171
-63.8424
-64.6927
-65.6329
-66.6233
-67.6212
-68.5826
-69.4641
-70.2253
-70.8304
-71.2508
-71.4661
-61.0705
-61.3076
-61.7726
-62.4476
-63.306
-64.3135
-65.4289
-66.6055
-67.7926
-68.9379
-69.9895
-70.8985
-71.6219
-72.1248
-72.3826
-60.0247
-60.3045
-60.8535
-61.651
-62.6664
-63.8596
-65.1825
-66.5803
-67.993
-69.3582
-70.6136
-71.7003
-72.5662
-73.1686
-73.4777
-58.7851
-59.1148
-59.7622
-60.7035
-61.9034
-63.3157
-64.8843
-66.5448
-68.2263
-69.8545
-71.3545
-72.6552
-73.693
-74.4159
-74.7869
-57.317
-57.7049
-58.4672
-59.5768
-60.9932
-62.6635
-64.5224
-66.4946
-68.4966
-70.4395
-72.2336
-73.7924
-75.0381
-75.9069
-76.3532
-55.5801
-56.0357
-56.9316
-58.2374
-59.9072
-61.8804
-64.0819
-66.4239
-68.8077
-71.1278
-73.2757
-75.1464
-76.6445
-77.6909
-78.2288
-53.5275
-54.0613
-55.1121
-56.6457
-58.611
-60.9391
-63.5441
-66.3241
-69.1631
-71.9352
-74.5099
-76.7587
-78.5639
-79.8271
-80.4773
-51.105
-51.7288
-52.9579
-54.755
-57.0634
-59.8059
-62.8851
-66.1832
-69.5647
-72.8795
-75.9698
-78.6783
-80.8589
-82.3882
-83.1764
-48.2504
-48.9769
-50.4101
-52.51
-55.2148
-58.4394
-62.0742
-65.9846
-70.0123
-73.9793
-77.6943
-80.9638
-83.6053
-85.4628
-86.4219
-44.8925
-45.7353
-47.4004
-49.8459
-53.006
-56.7885
-61.0722
-65.7045
-70.502
-75.2535
-79.7274
-83.6845
-86.8951
-89.1602
-90.3321
-40.9506
-41.9239
-43.8501
-46.6867
-50.3659
-54.7904
-59.8284
-65.3097
-71.0234
-76.72
-82.1187
-86.9224
-90.8401
-93.6152
-95.0546
-36.3346
-37.4525
-39.669
-42.9435
-47.2092
-52.3669
-58.2772
-64.7535
-71.5564
-78.3927
-84.9221
-90.7742
-95.5772
-98.996
-100.775
-30.9442
-32.2199
-34.7549
-38.5136
-43.4345
-49.4216
-56.3335
-63.9708
-72.066
-80.2778
-88.1946
-95.3531
-101.274
-105.514
-107.728
-24.6702
-26.115
-28.9932
-33.2784
-38.9207
-45.8353
-53.8866
-62.8701
-72.4942
-82.3667
-91.9923
-100.79
-108.135
-113.435
-116.217
-17.3957
-19.0173
-22.2569
-27.1028
-33.5252
-41.461
-50.7932
-61.3248
-72.7496
-84.6262
-96.3636
-107.232
-116.414
-123.102
-126.635
-8.99817
-10.799
-14.408
-19.8351
-27.0807
-36.1184
-46.8679
-59.1595
-72.6907
-86.981
-101.336
-114.843
-126.423
-134.958
-139.501
0.646185
-1.32851
-5.30005
-11.3074
-19.3942
-29.5891
-41.873
-56.1337
-72.1042
-89.2895
-106.896
-123.79
-138.541
-149.581
-155.519
11.6575
9.52447
5.21776
-1.33899
-10.2469
-21.6113
-35.5067
-51.9211
-70.6737
-91.3043
-112.947
-134.222
-153.231
-167.742
-175.654
24.1452
21.8821
17.2935
10.258
0.602848
-11.8786
-27.3929
-46.0855
-67.9385
-92.6149
-119.249
-146.224
-171.04
-190.48
-201.278
38.1987
35.8489
31.0633
23.6694
13.4111
-0.0430064
-17.0742
-38.0563
-63.2426
-92.564
-125.312
-159.72
-192.577
-219.211
-234.391
53.8773
51.5009
46.6381
39.0645
28.4339
14.2726
-4.01465
-27.1091
-55.6753
-90.1321
-130.218
-174.288
-218.426
-255.888
-278.036
71.1985
68.8721
64.0885
56.5761
45.9027
31.4487
12.3795
-12.3646
-44.0178
-83.7897
-132.355
-188.802
-248.903
-303.186
-337.048
90.1267
87.9412
83.4258
76.2752
65.9901
51.8239
32.7098
7.17469
-26.724
-71.3402
-129.013
-200.772
-283.408
-364.652
-419.558
110.563
108.619
104.584
98.1424
88.7646
75.6281
57.493
32.5172
-1.99039
-49.8237
-115.887
-205.179
-318.867
-444.39
-540.175
132.338
130.738
127.403
122.039
114.14
102.895
87.0188
64.4725
31.9925
-15.6492
-86.6268
-192.635
-346.09
-544.754
-727.281
155.211
154.05
151.619
147.684
141.828
133.367
121.167
103.317
76.4972
34.727
-33.0389
-147.134
-341.901
-656.294
-1041.1
178.877
178.229
176.868
174.649
171.314
166.424
159.225
148.38
131.374
103.149
52.7203
-45.6057
-254.62
-718.901
-1622.08
202.979
202.89
202.698
202.374
201.864
201.068
199.802
197.707
194.028
186.98
171.735
132.789
9.94084
-476.674
-2830.18
227.126
227.604
228.603
230.213
232.597
236.021
240.935
248.117
259.005
276.488
307.195
369.436
527.111
1062.03
3465.66
250.923
251.94
254.065
257.497
262.587
269.92
280.472
295.934
319.381
356.793
420.735
539.781
782.267
1302.95
2292.89
273.995
275.488
278.6
283.61
291
301.56
316.575
338.182
370.037
418.647
495.975
624.364
844.174
1217.92
1808.01
163.209
66.0032
27.192
7.22471
-4.80514
-12.7432
-18.2718
-22.2523
-25.175
-27.3398
-28.9394
-30.1012
-30.9101
-31.4216
-31.6694
102.996
62.807
33.5457
14.5729
2.00241
-6.66168
-12.8396
-17.3545
-20.7056
-23.2089
-25.0715
-26.432
-27.3834
-27.9871
-28.2801
70.6927
52.0219
32.7547
17.4749
6.09721
-2.30671
-8.56211
-13.2649
-16.825
-19.523
-21.5523
-23.0468
-24.0983
-24.7682
-25.0942
51.3549
41.651
29.1947
17.6671
8.12689
0.556251
-5.36289
-9.9688
-13.543
-16.3014
-18.4046
-19.9691
-21.0781
-21.7882
-22.1348
38.7559
33.1916
24.9897
16.4793
8.78879
2.27234
-3.07563
-7.3892
-10.8274
-13.535
-15.6309
-17.2079
-18.3349
-19.0606
-19.416
30.021
26.5638
20.9989
14.722
8.63538
3.17697
-1.5067
-5.41749
-8.61927
-11.1933
-13.2176
-14.7591
-15.8704
-16.5903
-16.944
23.687
21.3995
17.5027
12.8327
8.04569
3.5436
-0.474479
-3.93815
-6.84707
-9.23326
-11.1397
-12.6089
-13.6777
-14.3742
-14.7177
18.9416
17.3528
14.5433
11.0247
7.25814
3.5741
0.172736
-2.84407
-5.43786
-7.60642
-9.36538
-10.737
-11.7434
-12.4033
-12.7299
15.2994
14.154
12.0763
9.38879
6.41329
3.40831
0.552894
-2.04374
-4.32396
-6.26401
-7.86007
-9.11855
-10.0498
-10.6639
-10.9689
12.4527
11.6025
10.0327
7.95293
5.58893
3.13864
0.753343
-1.46313
-3.4463
-5.16048
-6.58918
-7.72742
-8.57629
-9.13925
-9.41972
10.1964
9.55077
8.3433
6.71444
4.82448
2.82384
0.836554
-1.04454
-2.75542
-4.25522
-5.52
-6.53723
-7.30137
-7.81074
-8.06528
8.38848
7.88918
6.94653
5.65727
4.1369
2.49976
0.846024
-0.74416
-2.21113
-3.51315
-4.62273
-5.52279
-6.20339
-6.65919
-6.8876
6.92728
6.53547
5.79046
4.7606
3.5304
2.18721
0.811361
-0.529347
-1.78137
-2.90473
-3.87097
-4.66074
-5.26151
-5.66556
-5.86855
5.73816
5.42705
4.83221
4.00304
3.00236
1.89735
0.752293
-0.376118
-1.44098
-2.40542
-3.24174
-3.92996
-4.45625
-4.81155
-4.99045
4.7651
4.51566
4.03668
3.3646
2.54676
1.63529
0.681669
-0.267022