/*--------------------------------*- C++ -*----------------------------------*\
| =========                 |                                                 |
| \\      /  F ield         | OpenFOAM: The Open Source CFD Toolbox           |
|  \\    /   O peration     | Version:  5.x                                   |
|   \\  /    A nd           | Web:      www.OpenFOAM.org                      |
|    \\/     M anipulation  |                                                 |
\*---------------------------------------------------------------------------*/
FoamFile
{
    version     2.0;
    format      ascii;
    class       volScalarField;
    location    "14.0001";
    object      T;
}
// * * * * * * * * * * * * * * * * * * * * * * * * * * * * * * * * * * * * * //

dimensions      [0 0 0 1 0 0 0];

internalField   nonuniform List<scalar> 
2048
(
9.80242
9.80266
9.80314
9.80383
9.80473
9.8058
9.80703
9.80838
9.80984
9.81137
9.81296
9.81459
9.81625
9.81791
9.81957
9.82121
9.82283
9.82443
9.82599
9.82752
9.829
9.83045
9.83186
9.83323
9.83457
9.83586
9.83712
9.83834
9.83953
9.84068
9.84179
9.84287
9.84391
9.84491
9.84587
9.84679
9.84767
9.84851
9.84929
9.85003
9.85072
9.85136
9.85195
9.85248
9.85295
9.85336
9.85371
9.85399
9.85421
9.85436
9.85444
9.85446
9.85442
9.85433
9.85418
9.85401
9.8538
9.85358
9.85336
9.85316
9.85297
9.85283
9.85272
9.85267
9.4157
9.41642
9.41784
9.41991
9.42258
9.42578
9.42943
9.43345
9.43777
9.44232
9.44704
9.45187
9.45677
9.46169
9.4666
9.47147
9.47627
9.48099
9.48561
9.49012
9.49452
9.49881
9.50297
9.50702
9.51096
9.51479
9.51851
9.52212
9.52563
9.52903
9.53232
9.53551
9.53858
9.54155
9.54439
9.54712
9.54972
9.55218
9.55451
9.5567
9.55875
9.56064
9.56237
9.56394
9.56534
9.56655
9.56759
9.56842
9.56906
9.5695
9.56975
9.5698
9.56968
9.56939
9.56896
9.56842
9.56781
9.56715
9.56649
9.56587
9.56532
9.56488
9.56457
9.56441
9.04534
9.04654
9.04889
9.05233
9.05675
9.06203
9.06806
9.07469
9.0818
9.08928
9.09704
9.10497
9.113
9.12106
9.1291
9.13707
9.14493
9.15265
9.1602
9.16757
9.17476
9.18175
9.18855
9.19517
9.2016
9.20784
9.21392
9.21981
9.22554
9.23109
9.23647
9.24167
9.2467
9.25154
9.25619
9.26064
9.26489
9.26892
9.27273
9.27631
9.27965
9.28275
9.28558
9.28815
9.29044
9.29243
9.29412
9.29549
9.29654
9.29726
9.29765
9.29773
9.29751
9.29702
9.2963
9.29539
9.29435
9.29325
9.29214
9.29109
9.29017
9.28943
9.28891
9.28864
8.69036
8.69204
8.69533
8.70014
8.70632
8.71369
8.72207
8.73128
8.74114
8.7515
8.76221
8.77316
8.78424
8.79535
8.80642
8.81738
8.82818
8.83878
8.84914
8.85926
8.86911
8.87869
8.88802
8.89708
8.90589
8.91445
8.92276
8.93084
8.93869
8.9463
8.95367
8.96081
8.96771
8.97435
8.98073
8.98684
8.99267
8.9982
9.00343
9.00834
9.01293
9.01718
9.02108
9.02462
9.02776
9.03051
9.03283
9.03472
9.03616
9.03714
9.03767
9.03776
9.03743
9.03673
9.03569
9.03439
9.03291
9.03133
9.02974
9.02825
9.02693
9.02587
9.02512
9.02474
8.34984
8.35201
8.35628
8.36249
8.37046
8.37994
8.39069
8.40247
8.41507
8.42826
8.44189
8.45579
8.46983
8.4839
8.49791
8.51177
8.52541
8.53878
8.55185
8.56459
8.577
8.58906
8.60079
8.61218
8.62326
8.63403
8.6445
8.65466
8.66453
8.67411
8.6834
8.69239
8.70107
8.70945
8.71749
8.72519
8.73254
8.73952
8.74611
8.75231
8.7581
8.76346
8.76839
8.77285
8.77684
8.78031
8.78325
8.78564
8.78746
8.78869
8.78934
8.78943
8.78897
8.78802
8.78665
8.78493
8.78296
8.78087
8.77877
8.77679
8.77504
8.77364
8.77265
8.77215
8.02296
8.02565
8.03093
8.0386
8.04841
8.06005
8.07321
8.08759
8.1029
8.11892
8.13541
8.15221
8.16916
8.18612
8.20298
8.21965
8.23603
8.25208
8.26775
8.28301
8.29785
8.31228
8.32631
8.33994
8.35318
8.36606
8.37857
8.39073
8.40254
8.414
8.42511
8.43588
8.44628
8.45632
8.46596
8.47519
8.484
8.49236
8.50027
8.5077
8.51465
8.52109
8.52701
8.53238
8.53717
8.54136
8.54491
8.54778
8.54997
8.55144
8.5522
8.55227
8.55167
8.55045
8.5487
8.54651
8.54402
8.54136
8.5387
8.53619
8.53398
8.5322
8.53095
8.53031
7.70895
7.71219
7.71854
7.72774
7.73947
7.75334
7.76896
7.78597
7.80402
7.82284
7.84218
7.86183
7.88162
7.90141
7.92106
7.94045
7.95949
7.97812
7.99629
8.01396
8.03114
8.04783
8.06404
8.0798
8.09511
8.11
8.12446
8.13852
8.15218
8.16544
8.17831
8.19078
8.20284
8.21447
8.22565
8.23636
8.24657
8.25627
8.26543
8.27405
8.28211
8.2896
8.29648
8.30273
8.30832
8.3132
8.31734
8.3207
8.32324
8.32495
8.32581
8.32584
8.32506
8.32355
8.32139
8.31869
8.31562
8.31234
8.30906
8.30596
8.30323
8.30103
8.2995
8.29871
7.4071
7.41093
7.41843
7.42926
7.44301
7.4592
7.47736
7.49704
7.51785
7.53946
7.56162
7.58408
7.60667
7.62922
7.65158
7.67363
7.69525
7.71637
7.73694
7.75692
7.77633
7.79517
7.81347
7.83125
7.84853
7.86533
7.88167
7.89754
7.91297
7.92795
7.9425
7.9566
7.97024
7.98341
7.99607
8.0082
8.01977
8.03075
8.04113
8.0509
8.06003
8.06852
8.07634
8.08345
8.08981
8.09538
8.10011
8.10394
8.10684
8.10877
8.10972
8.1097
8.10873
8.10689
8.10427
8.10102
8.0973
8.09334
8.08937
8.08562
8.08232
8.07967
8.07781
8.07686
7.11676
7.12124
7.12996
7.14254
7.15843
7.17706
7.19783
7.22024
7.24383
7.26824
7.29319
7.31843
7.34376
7.36902
7.39403
7.41866
7.44279
7.46631
7.48918
7.51138
7.53291
7.5538
7.57408
7.59379
7.61295
7.63158
7.64969
7.6673
7.68441
7.70104
7.71719
7.73286
7.74803
7.76268
7.77678
7.79028
7.80315
7.81536
7.82691
7.83778
7.84795
7.85741
7.86613
7.87409
7.88122
7.88747
7.89277
7.89708
7.90033
7.90248
7.90351
7.90343
7.90225
7.90005
7.89694
7.89307
7.88865
7.88393
7.87919
7.87472
7.87079
7.86763
7.86543
7.86429
6.83731
6.84249
6.85256
6.86702
6.8852
6.90638
6.92988
6.95507
6.98147
7.00867
7.03638
7.06435
7.09238
7.12029
7.1479
7.17505
7.2016
7.22745
7.25254
7.27685
7.3004
7.32323
7.3454
7.36694
7.38789
7.40826
7.42807
7.44733
7.46605
7.48425
7.50194
7.51911
7.53576
7.55184
7.56731
7.58214
7.59626
7.60967
7.62234
7.63426
7.64543
7.65583
7.66544
7.67422
7.6821
7.68902
7.69491
7.69969
7.70329
7.70567
7.70678
7.70662
7.70522
7.70263
7.69898
7.69444
7.68925
7.68369
7.6781
7.67283
7.6682
7.66448
7.6619
7.66057
6.56817
6.57412
6.58567
6.60217
6.6228
6.64669
6.67301
6.70106
6.73028
6.76026
6.7907
6.82136
6.85204
6.88256
6.91271
6.94232
6.97123
6.99932
7.02653
7.05285
7.07832
7.103
7.12695
7.15023
7.17288
7.19491
7.21634
7.23717
7.25743
7.27712
7.29628
7.3149
7.33297
7.35044
7.36725
7.38335
7.3987
7.41325
7.42699
7.43992
7.45205
7.46336
7.47383
7.48342
7.49205
7.49965
7.50612
7.51137
7.51533
7.51793
7.51912
7.51888
7.51724
7.51424
7.51002
7.50475
7.4987
7.49222
7.48569
7.47953
7.47413
7.46981
7.4668
7.46527
6.30879
6.3156
6.32878
6.34751
6.37078
6.39753
6.42679
6.45775
6.48982
6.52256
6.55569
6.58899
6.62227
6.65534
6.68799
6.72
6.75121
6.78147
6.81071
6.83894
6.86622
6.89264
6.91828
6.94321
6.96748
6.9911
7.01408
7.03641
7.05812
7.07924
7.09981
7.11982
7.13926
7.15807
7.17618
7.19352
7.21004
7.22569
7.24046
7.25436
7.2674
7.27959
7.2909
7.30129
7.31066
7.31893
7.32599
7.33173
7.33605
7.33888
7.34015
7.33984
7.33794
7.33451
7.32967
7.32361
7.31664
7.30914
7.30158
7.29444
7.28819
7.2832
7.27975
7.27799
6.05864
6.06642
6.0814
6.10258
6.1287
6.15849
6.19081
6.22475
6.25967
6.29514
6.33091
6.36679
6.40262
6.43819
6.47328
6.50766
6.5411
6.57345
6.60464
6.63469
6.66367
6.69172
6.71895
6.74545
6.77127
6.79641
6.82086
6.84462
6.86771
6.89019
6.9121
6.93344
6.95421
6.97432
6.9937
7.01225
7.0299
7.0466
7.06236
7.07718
7.0911
7.10413
7.11626
7.12743
7.13755
7.1465
7.15415
7.16038
7.16508
7.16814
7.16951
7.16912
7.16696
7.16308
7.15758
7.15068
7.1427
7.13409
7.12538
7.11717
7.10999
7.10429
7.10036
7.09836
5.81724
5.82609
5.84308
5.86696
5.89618
5.92919
5.96469
6.00166
6.03943
6.07758
6.11592
6.15433
6.19264
6.23067
6.26818
6.30487
6.34049
6.37486
6.40791
6.43966
6.47024
6.49982
6.52855
6.55654
6.58383
6.61042
6.63628
6.6614
6.6858
6.70957
6.73275
6.75538
6.77743
6.79883
6.81944
6.83917
6.85791
6.87562
6.89231
6.908
6.92276
6.93661
6.94953
6.96148
6.97234
6.98198
6.99023
6.99697
7.00205
7.00536
7.00682
7.00636
7.00395
6.99961
6.99343
6.98562
6.97656
6.96673
6.95676
6.94736
6.93917
6.9327
6.92827
6.92603
5.5841
5.59417
5.61341
5.64027
5.67284
5.70928
5.74808
5.78813
5.82872
5.86949
5.91033
5.95117
5.99192
6.03237
6.07225
6.11123
6.14898
6.1853
6.22011
6.25347
6.28553
6.31653
6.34667
6.37607
6.40477
6.43276
6.45997
6.48638
6.51202
6.53699
6.56139
6.58526
6.60856
6.63121
6.65304
6.67391
6.69371
6.71238
6.72995
6.74647
6.76202
6.77665
6.79035
6.80307
6.81468
6.82501
6.83388
6.84113
6.8466
6.85017
6.85174
6.85123
6.84857
6.84376
6.83687
6.82811
6.81788
6.80672
6.79537
6.78466
6.77538
6.7681
6.76314
6.76065
5.35878
5.37023
5.39199
5.42214
5.45835
5.49843
5.54065
5.58381
5.62717
5.67048
5.71372
5.75693
5.80005
5.84287
5.8851
5.92634
5.96618
6.00439
6.04088
6.07572
6.10915
6.14146
6.17291
6.20365
6.23371
6.26305
6.29157
6.31919
6.34599
6.3721
6.39766
6.42272
6.44724
6.47111
6.49414
6.51613
6.53695
6.55655
6.57495
6.59223
6.60852
6.6239
6.63837
6.65185
6.66421
6.67525
6.68475
6.69252
6.69841
6.70225
6.70395
6.70339
6.7005
6.69522
6.68761
6.67785
6.66636
6.65376
6.6409
6.62875
6.61828
6.61015
6.60466
6.60192
5.14083
5.15385
5.17843
5.21224
5.25241
5.29633
5.34209
5.38837
5.43446
5.48019
5.52572
5.57121
5.61663
5.66178
5.70636
5.74984
5.79173
5.83176
5.86984
5.90605
5.94072
5.97423
6.00691
6.03893
6.07029
6.10094
6.13072
6.1595
6.18737
6.21454
6.24119
6.26739
6.2931
6.31819
6.34241
6.3655
6.38731
6.40779
6.42696
6.44495
6.46194
6.47803
6.49324
6.50749
6.52061
6.53237
6.54252
6.55083
6.55713
6.56127
6.5631
6.56253
6.55942
6.55369
6.54534
6.53453
6.5217
6.50755
6.49302
6.47929
6.46755
6.45853
6.45252
6.44953
4.92985
4.94464
4.9724
5.01026
5.05474
5.10271
5.1521
5.20153
5.25024
5.29826
5.34594
5.39362
5.44128
5.48873
5.53565
5.58138
5.62527
5.66706
5.70664
5.74412
5.77989
5.81447
5.84831
5.88153
5.91415
5.9461
5.9771
6.00697
6.03583
6.06397
6.09166
6.11896
6.14584
6.17214
6.19755
6.22171
6.24449
6.2658
6.28568
6.30432
6.32194
6.33872
6.35466
6.36966
6.38356
6.39607
6.40687
6.41573
6.42247
6.4269
6.4289
6.42832
6.42503
6.41887
6.40978
6.39788
6.38364
6.36782
6.35146
6.33599
6.32288
6.31296
6.30644
6.30323
4.72541
4.74224
4.77354
4.81591
4.86508
4.9173
4.97042
5.02298
5.07421
5.12436
5.17403
5.2238
5.27364
5.32335
5.37262
5.42061
5.46648
5.50997
5.55097
5.58957
5.6263
5.66185
5.69675
5.73113
5.76497
5.79819
5.83041
5.86129
5.89105
5.92007
5.94874
5.9771
6.00511
6.03264
6.05924
6.08446
6.10817
6.13028
6.15081
6.17001
6.18822
6.20565
6.2223
6.23806
6.25276
6.26604
6.2775
6.28693
6.29411
6.29886
6.30103
6.30049
6.29704
6.29047
6.28065
6.26763
6.2519
6.23429
6.21592
6.19852
6.18396
6.17314
6.16615
6.16275
4.52713
4.54631
4.58155
4.62894
4.68321
4.73985
4.79678
4.85247
4.90606
4.95813
5.00962
5.06139
5.11336
5.16526
5.21693
5.26723
5.31502
5.36016
5.40251
5.44209
5.47963
5.516
5.5519
5.5874
5.62241
5.65693
5.69035
5.72218
5.75272
5.78252
5.81211
5.84151
5.87062
5.89939
5.92721
5.95347
5.97808
6.00094
6.02205
6.04175
6.06047
6.07854
6.09589
6.11239
6.12792
6.14199
6.15413
6.16413
6.17178
6.17684
6.17921
6.17872
6.17516
6.16824
6.15771
6.14354
6.12624
6.10674
6.08616
6.0666
6.0505
6.03881
6.0314
6.02785
4.33463
4.35651
4.39612
4.44911
4.50893
4.57012
4.63091
4.68972
4.74549
4.79926
4.85236
4.90606
4.9601
5.01413
5.06826
5.12093
5.17059
5.21732
5.26095
5.30136
5.33956
5.3766
5.41345
5.45002
5.48616
5.52201
5.55666
5.58934
5.62055
5.65102
5.68149
5.71189
5.74207
5.77212
5.8012
5.82846
5.85394
5.87753
5.89913
5.91925
5.93842
5.95709
5.97513
5.99237
6.00875
6.02367
6.03648
6.04706
6.05518
6.06057
6.06315
6.06275
6.05912
6.05189
6.04069
6.02534
6.00641
5.98493
5.96192
5.93994
5.92221
5.90971
5.90197
5.89831
4.14752
4.17256
4.21695
4.2762
4.34209
4.40787
4.47258
4.53452
4.59222
4.64744
4.70189
4.75748
4.81354
4.86959
4.9263
4.98146
5.03288
5.08116
5.12604
5.1671
5.20577
5.24332
5.2811
5.31872
5.35592
5.39315
5.42908
5.46252
5.49427
5.52527
5.5566
5.58796
5.61915
5.65054
5.68094
5.70916
5.7355
5.7598
5.7818
5.80224
5.82177
5.84104
5.85977
5.87771
5.895
5.91081
5.92429
5.93545
5.94406
5.94977
5.95257
5.95229
5.94866
5.94119
5.92937
5.91281
5.89218
5.86865
5.84297
5.81822
5.79882
5.7856
5.77764
5.77393
3.96542
3.9942
4.04373
4.11001
4.18256
4.25285
4.32151
4.38664
4.44596
4.50235
4.55785
4.61534
4.67339
4.73129
4.79073
4.84855
4.90159
4.95138
4.9975
5.03901
5.07797
5.11585
5.15455
5.19321
5.23136
5.27009
5.30741
5.34145
5.3736
5.40497
5.43716
5.46948
5.50158
5.53441
5.56623
5.59531
5.62249
5.6475
5.6698
5.69046
5.71025
5.73013
5.74955
5.76816
5.78642
5.80318
5.8173
5.82905
5.83817
5.84419
5.84723
5.84709
5.84351
5.83588
5.82352
5.80571
5.78331
5.75774
5.72911
5.70116
5.68004
5.66625
5.6582
5.65453
3.78796
3.82125
3.87616
3.95036
4.03026
4.1048
4.17747
4.2459
4.30644
4.36371
4.41989
4.47934
4.53939
4.59886
4.66129
4.72201
4.77641
4.8277
4.87512
4.91682
4.95589
4.99386
5.03354
5.07324
5.11219
5.15258
5.19143
5.2259
5.2583
5.28985
5.32294
5.35621
5.38908
5.42347
5.45684
5.48667
5.51468
5.54043
5.56288
5.58368
5.6036
5.62413
5.64425
5.66343
5.68276
5.70057
5.71526
5.72761
5.73727
5.74358
5.74686
5.74689
5.74343
5.73573
5.72292
5.70384
5.67957
5.65204
5.62016
5.58842
5.56561
5.55146
5.54349
5.53993
3.61475
3.65358
3.71387
3.7971
3.8852
3.96341
4.04017
4.11215
4.17337
4.23124
4.28762
4.34923
4.41131
4.47191
4.53769
4.60167
4.65704
4.70984
4.7587
4.80024
4.83926
4.87702
4.91782
4.95861
4.99807
5.04037
5.08099
5.11562
5.14813
5.17959
5.21369
5.24793
5.28133
5.3175
5.35262
5.38297
5.41182
5.4384
5.46081
5.48165
5.50156
5.5228
5.54365
5.56327
5.58379
5.60277
5.61793
5.63089
5.64114
5.64768
5.65122
5.65145
5.64818
5.64049
5.6274
5.60697
5.58071
5.55142
5.51596
5.47967
5.45528
5.44104
5.43334
5.42996
3.44535
3.49117
3.55647
3.65006
3.74743
3.82836
3.90933
3.9853
4.04644
4.10472
4.16063
4.22477
4.28897
4.35001
4.41967
4.48742
4.54315
4.59752
4.64808
4.68901
4.72785
4.76499
4.80716
4.84911
4.88868
4.93324
4.97595
5.01038
5.04288
5.07391
5.1092
5.14447
5.17803
5.21626
5.25341
5.28395
5.31368
5.34123
5.36336
5.38419
5.40384
5.42595
5.44757
5.46741
5.4893
5.50963
5.52507
5.53866
5.54957
5.55628
5.56008
5.56052
5.55752
5.54995
5.53676
5.5149
5.48647
5.4558
5.41639
5.37454
5.34879
5.33482
5.32758
5.32448
3.27931
3.33414
3.40344
3.50912
3.61715
3.6992
3.78466
3.8653
3.92531
3.98394
4.03846
4.10574
4.17227
4.23268
4.30697
4.37923
4.43435
4.49044
4.54315
4.58284
4.62147
4.65742
4.70137
4.74462
4.78362
4.83095
4.87624
4.9099
4.94237
4.97246
5.00929
5.04569
5.07883
5.11954
5.15914
5.18933
5.22002
5.24878
5.27029
5.29108
5.31019
5.33338
5.35584
5.37556
5.39908
5.42098
5.43644
5.4507
5.46238
5.46913
5.47323
5.47387
5.47123
5.46386
5.45085
5.42745
5.39655
5.36514
5.3214
5.27258
5.24592
5.23264
5.22609
5.22334
3.1161
3.1828
3.25417
3.37415
3.49466
3.57542
3.66583
3.75221
3.80959
3.86877
3.9206
3.99198
4.06116
4.11937
4.19937
4.27716
4.33023
4.38833
4.44385
4.48139
4.51996
4.55391
4.60025
4.64503
4.68249
4.7333
4.78184
4.81391
4.84644
4.87491
4.91378
4.9515
4.98336
5.02714
5.06974
5.09881
5.13062
5.16097
5.18135
5.20219
5.2203
5.24492
5.26836
5.28742
5.31294
5.33674
5.35177
5.3668
5.3794
5.386
5.39046
5.39128
5.3891
5.382
5.36955
5.34442
5.3106
5.27944
5.23098
5.17328
5.14647
5.1344
5.12873
5.1264
2.95509
3.03774
3.10783
3.24505
3.38047
3.45634
3.5525
3.64622
3.6988
3.75918
3.80645
3.88335
3.95573
4.00939
4.09664
4.18139
4.23029
4.29087
4.35023
4.3843
4.42322
4.45401
4.50368
4.55035
4.58479
4.64009
4.69278
4.72209
4.75501
4.78086
4.82254
4.86185
4.89118
4.93887
4.98526
5.01204
5.04523
5.07774
5.09627
5.11738
5.13386
5.16041
5.18502
5.20265
5.2307
5.25683
5.27082
5.28676
5.30049
5.30667
5.31158
5.31253
5.31093
5.30412
5.29273
5.26567
5.22822
5.19878
5.14519
5.07605
5.05028
5.03998
5.03538
5.03353
2.79554
2.89987
2.96336
3.12172
3.2753
3.3411
3.44429
3.54764
3.59233
3.65527
3.6953
3.77978
3.85617
3.90196
3.99857
4.09222
4.13394
4.19775
4.26242
4.29112
4.33127
4.3572
4.41153
4.46063
4.48996
4.55113
4.60919
4.63404
4.66806
4.68985
4.73544
4.7768
4.80179
4.85455
4.90579
4.92864
4.96363
4.99909
5.01473
5.0366
5.05052
5.07973
5.1058
5.12089
5.15218
5.18124
5.19327
5.21036
5.22554
5.2309
5.23642
5.23739
5.23652
5.22995
5.22034
5.19107
5.1489
5.12327
5.06421
4.98014
4.95725
4.94931
4.94594
4.9446
2.63652
2.77056
2.81933
3.00407
3.18016
3.22858
3.3408
3.457
3.48939
3.55733
3.58625
3.68125
3.76285
3.79608
3.90497
4.01017
4.04043
4.10865
4.18067
4.20132
4.24422
4.26288
4.32373
4.37606
4.39731
4.46625
4.53132
4.54928
4.58566
4.60135
4.65242
4.69649
4.7146
4.77401
4.83156
4.84814
4.88556
4.9251
4.93637
4.95984
4.96989
5.00278
5.03072
5.04171
5.07724
5.11001
5.1188
5.13742
5.15448
5.15843
5.16483
5.16565
5.16573
5.15921
5.15233
5.12054
5.07203
5.05313
4.98832
4.88465
4.86736
4.86233
4.86028
4.85947
2.47687
2.65172
2.67392
2.89206
3.09639
3.11738
3.24162
3.37506
3.38894
3.46587
3.47824
3.58778
3.67635
3.69055
3.81568
3.93594
3.94887
4.02323
4.1054
4.11418
4.16235
4.17029
4.24026
4.29694
4.30601
4.3853
4.45951
4.46718
4.50804
4.51472
4.57342
4.62115
4.62888
4.6971
4.76289
4.76997
4.81079
4.85595
4.86075
4.88719
4.89149
4.92947
4.95989
4.9646
5.00573
5.04325
5.04704
5.06776
5.08727
5.08899
5.09668
5.0971
5.09841
5.09159
5.0887
5.05403
4.99685
4.98866
4.91795
4.78845
4.78072
4.77898
4.77829
4.77803
)
;

boundaryField
{
    left
    {
        type            zeroGradient;
    }
    right
    {
        type            zeroGradient;
    }
    interface
    {
        type            fixedValue;
        value           nonuniform List<scalar> 
64
(
2.39421
2.59766
2.59766
2.83767
3.06029
3.06029
3.19289
3.33817
3.33817
3.42287
3.42287
3.54264
3.63604
3.63604
3.77216
3.90249
3.90249
3.98127
4.07055
4.07055
4.12339
4.12339
4.19981
4.25952
4.25952
4.34587
4.42617
4.42617
4.47101
4.47101
4.53509
4.58538
4.58538
4.65957
4.73088
4.73088
4.77413
4.82322
4.82322
4.85227
4.85227
4.89383
4.92595
4.92595
4.97088
5.01151
5.01151
5.03375
5.0549
5.0549
5.06357
5.06357
5.06572
5.05844
5.05844
5.02213
4.95881
4.95881
4.88511
4.73822
4.73822
4.73822
4.73822
4.73822
)
;
    }
    bottom
    {
        type            fixedValue;
        value           uniform 10;
    }
    defaultFaces
    {
        type            empty;
    }
}


// ************************************************************************* //
