/*--------------------------------*- C++ -*----------------------------------*\
| =========                 |                                                 |
| \\      /  F ield         | OpenFOAM: The Open Source CFD Toolbox           |
|  \\    /   O peration     | Version:  5.x                                   |
|   \\  /    A nd           | Web:      www.OpenFOAM.org                      |
|    \\/     M anipulation  |                                                 |
\*---------------------------------------------------------------------------*/
FoamFile
{
    version     2.0;
    format      ascii;
    class       volScalarField;
    location    "10.8";
    object      T;
}
// * * * * * * * * * * * * * * * * * * * * * * * * * * * * * * * * * * * * * //

dimensions      [0 0 0 1 0 0 0];

internalField   nonuniform List<scalar> 
6300
(
10.1686
10.5078
10.8527
11.2068
11.5738
11.9569
12.3588
12.7819
13.228
13.698
14.1919
14.7088
15.2467
15.8025
16.3723
10.1667
10.5021
10.8433
11.194
11.5578
11.9379
12.3375
12.7589
13.204
13.6739
14.1688
14.6877
15.2287
15.7885
16.3629
10.1629
10.4907
10.8244
11.168
11.5252
11.8996
12.2942
12.712
13.1551
13.6248
14.1215
14.6444
15.1916
15.7596
16.3438
10.157
10.4732
10.7956
11.1284
11.4755
11.8408
12.2278
12.6399
13.0795
13.5485
14.0478
14.5768
15.1335
15.7142
16.3137
10.1491
10.4495
10.7565
11.0744
11.4075
11.7601
12.1364
12.54
12.9743
13.442
13.9443
14.4814
15.0513
15.6499
16.2712
10.139
10.4192
10.7064
11.005
11.32
11.6558
12.0174
12.4093
12.8358
13.3005
13.806
14.353
14.9401
15.5629
16.2138
10.1266
10.382
10.6447
10.9195
11.2114
11.5258
11.8681
12.244
12.659
13.1182
13.6259
14.1844
14.7931
15.4474
16.1381
10.1117
10.3377
10.5709
10.8167
11.0804
11.3677
11.6851
12.0394
12.4377
12.8874
13.395
13.9656
14.6004
15.2954
16.0391
10.0945
10.2859
10.4846
10.696
10.9255
11.1796
11.4653
11.7907
12.1651
12.5984
13.1011
13.6822
14.3474
15.0945
15.9098
10.0748
10.2267
10.3858
10.557
10.7462
10.9598
11.2056
11.493
11.8333
12.24
12.7285
13.3148
14.0123
14.8251
15.7387
10.0528
10.1604
10.2746
10.4001
10.5423
10.7077
10.9043
11.1424
11.4352
11.7997
12.2579
12.8361
13.5619
14.4548
15.5068
10.0286
10.0876
10.1522
10.2264
10.3152
10.4243
10.5615
10.737
10.9651
11.2657
11.6673
12.2096
12.9441
13.9254
15.177
10.0026
10.0093
10.0201
10.0383
10.0676
10.1128
10.1803
10.279
10.4224
10.6306
10.9359
11.3909
12.0793
13.1257
14.6628
9.97529
9.92669
9.88062
9.83898
9.80409
9.77896
9.76772
9.77646
9.81468
9.89815
10.0549
10.3384
10.8566
11.8349
13.7105
9.94713
9.84158
9.73668
9.63289
9.53081
9.43119
9.33514
9.24435
9.16169
9.09238
9.04715
9.0511
9.17376
9.64681
11.3892
16.9029
17.3883
17.8736
18.3556
18.8314
19.298
19.7531
20.1942
20.6196
21.0276
21.4169
21.7864
22.1354
22.463
22.769
23.0528
23.3144
23.5535
23.7701
23.9643
24.1361
24.2857
24.4133
24.5192
24.6036
24.6669
24.7094
24.7315
24.7337
24.7163
24.6798
24.6245
24.5511
24.4598
24.3511
24.2254
24.0832
23.9249
23.7509
23.5617
23.3577
23.1393
22.9069
22.6611
22.4022
22.1307
21.847
21.5515
21.2446
20.9266
20.598
20.2589
19.9099
19.551
19.1827
18.8053
18.419
18.0242
17.6213
17.2107
16.7926
16.3675
15.9358
15.4979
15.0543
14.6052
14.1513
13.6929
13.2306
12.7651
12.2968
11.8266
11.3554
10.8839
10.4132
9.94441
9.47858
9.01689
8.56055
8.11074
7.66866
7.23546
6.81223
6.39999
5.99968
5.61209
5.23791
4.87763
4.53161
4.20001
16.8984
17.3883
17.8781
18.3644
18.8442
19.3145
19.7728
20.2167
20.6444
21.0543
21.4451
21.8158
22.1657
22.494
22.8004
23.0846
23.3463
23.5855
23.8021
23.9961
24.1677
24.317
24.4443
24.5497
24.6337
24.6964
24.7384
24.7599
24.7615
24.7435
24.7063
24.6505
24.5764
24.4844
24.3751
24.2488
24.106
23.9471
23.7725
23.5827
23.378
23.159
22.926
22.6795
22.42
22.1479
21.8636
21.5676
21.2601
20.9417
20.6126
20.2731
19.9236
19.5643
19.1956
18.8177
18.4309
18.0357
17.6323
17.221
16.8024
16.3768
15.9445
15.5061
15.0618
14.6121
14.1575
13.6983
13.2352
12.7687
12.2994
11.828
11.3555
10.8826
10.4104
9.93998
9.47247
9.00907
8.551
8.0995
7.65576
7.22099
6.79629
6.38273
5.98126
5.59272
5.2178
4.85703
4.51078
4.17922
16.8891
17.3883
17.8873
18.3825
18.8705
19.3481
19.8128
20.2622
20.6945
21.1081
21.5019
21.875
22.2266
22.5562
22.8636
23.1484
23.4105
23.6497
23.8662
24.0599
24.2311
24.3798
24.5063
24.6108
24.6938
24.7555
24.7964
24.8167
24.8171
24.7978
24.7594
24.7023
24.6269
24.5337
24.4232
24.2957
24.1517
23.9915
23.8157
23.6246
23.4187
23.1984
22.9641
22.7164
22.4556
22.1823
21.8968
21.5997
21.2912
20.9718
20.6418
20.3015
19.9511
19.591
19.2214
18.8426
18.4549
18.0586
17.6541
17.2418
16.8221
16.3953
15.9619
15.5223
15.0768
14.6259
14.1699
13.7093
13.2445
12.7761
12.3047
11.831
11.3559
10.8801
10.4049
9.93119
9.46029
8.99343
8.53188
8.07693
7.62985
7.19189
6.76422
6.34797
5.94414
5.55364
5.17722
4.81545
4.46874
4.13726
16.8746
17.3884
17.9018
18.4107
18.9113
19.4002
19.8746
20.3322
20.7712
21.1902
21.5883
21.9646
22.3188
22.6503
22.9589
23.2445
23.5071
23.7464
23.9627
24.1559
24.3263
24.4741
24.5994
24.7027
24.7842
24.8443
24.8834
24.902
24.9005
24.8794
24.839
24.78
24.7027
24.6077
24.4953
24.366
24.2201
24.0582
23.8805
23.6876
23.4797
23.2575
23.0213
22.7716
22.509
22.2338
21.9466
21.6478
21.3378
21.0169
20.6856
20.3439
19.9923
19.631
19.2601
18.8799
18.4908
18.0931
17.687
17.2731
16.8516
16.4232
15.9881
15.5467
15.0994
14.6467
14.1887
13.726
13.2588
12.7877
12.3132
11.836
11.3569
10.8768
10.3969
9.91824
9.44217
8.97001
8.50313
8.04291
7.59071
7.14785
6.71562
6.29521
5.88774
5.49421
5.11545
4.75213
4.4047
4.07336
16.8542
17.3888
17.9226
18.4507
18.9687
19.4729
19.9603
20.4286
20.8763
21.3022
21.7056
22.0861
22.4432
22.7769
23.0871
23.3737
23.6366
23.876
24.0919
24.2845
24.4539
24.6003
24.7241
24.8255
24.905
24.9629
24.9997
25.0159
25.0118
24.9881
24.9452
24.8836
24.8038
24.7063
24.5914
24.4596
24.3114
24.147
23.9669
23.7715
23.5612
23.3364
23.0976
22.8453
22.58
22.3023
22.0127
21.7116
21.3996
21.0768
20.7437
20.4005
20.0473
19.6844
19.3119
18.93
18.539
18.1392
17.731
17.3148
16.8911
16.4603
16.0229
15.5793
15.1298
14.6747
14.2143
13.7488
13.2786
12.8039
12.3254
11.8435
11.3591
10.8732
10.3869
9.90144
9.41828
8.93886
8.46467
7.99722
7.53799
7.08841
6.64989
6.22373
5.81119
5.41341
5.03137
4.66586
4.31744
3.98633
16.8272
17.39
17.9514
18.5051
19.0459
19.5696
20.0732
20.5546
21.0126
21.4464
21.8558
22.2407
22.6011
22.9371
23.2489
23.5364
23.7998
24.0391
24.2545
24.4461
24.6141
24.7588
24.8805
24.9796
25.0565
25.1116
25.1454
25.1584
25.1512
25.1242
25.078
25.0131
24.9301
24.8294
24.7114
24.5767
24.4255
24.2582
24.0751
23.8766
23.6631
23.4351
23.1929
22.9372
22.6686
22.3876
22.0949
21.7911
21.4764
21.1514
20.8162
20.4711
20.1161
19.7513
19.3768
18.9928
18.5995
18.1971
17.7862
17.3671
16.9405
16.5068
16.0666
15.6202
15.168
14.7102
14.247
13.7784
13.3045
12.8257
12.3421
11.8544
11.3634
10.87
10.3754
9.88123
9.38888
8.90004
8.41638
7.93957
7.47124
7.01296
6.56624
6.13256
5.71332
5.30986
4.9234
4.55493
4.20517
3.87443
16.7923
17.3931
17.9909
18.5778
19.1473
19.6949
20.2177
20.714
21.1833
21.6255
22.041
22.4302
22.7938
23.132
23.4453
23.7336
23.9973
24.2364
24.451
24.6413
24.8075
24.95
25.0691
25.1653
25.2389
25.2905
25.3206
25.3298
25.3185
25.2875
25.2372
25.1684
25.0814
24.9769
24.8553
24.7171
24.5624
24.3917
24.2051
24.003
23.7857
23.5537
23.3074
23.0474
22.7746
22.4895
22.193
21.8856
21.5679
21.2402
20.9027
20.5555
20.1986
19.8319
19.4553
19.0688
18.6727
18.2672
17.8528
17.4301
16.9997
16.5625
16.1188
15.6693
15.2141
14.7534
14.2872
13.8153
13.3375
12.8539
12.3646
11.87
11.3709
10.8682
10.3634
9.85819
9.35429
8.85362
8.35811
7.86961
7.38993
6.92076
6.46374
6.0205
5.59263
5.18176
4.78944
4.41701
4.06547
3.73527
16.7487
17.4004
18.0461
18.6752
19.2801
19.8559
20.4001
20.9122
21.3927
21.8427
22.2636
22.6565
23.0227
23.3627
23.6771
23.9661
24.2299
24.4685
24.6821
24.8708
25.0348
25.1746
25.2905
25.383
25.4527
25.5
25.5257
25.5301
25.5141
25.4781
25.4229
25.3492
25.2576
25.1487
25.0229
24.8807
24.7222
24.5476
24.3572
24.151
23.9292
23.6924
23.4411
23.1759
22.8978
22.6077
22.3064
21.9948
21.6734
21.3428
21.0029
20.6537
20.295
19.9264
19.5476
19.1585
18.7591
18.3497
17.931
17.5037
17.0688
16.6271
16.1794
15.7262
15.2679
14.8043
14.3353
13.8603
13.3788
12.8903
12.3946
11.8921
11.3832
10.8693
10.352
9.83309
9.3149
8.79966
8.28961
7.78686
7.29337
6.81095
6.34132
5.8862
5.4474
5.02689
4.62675
4.24894
3.89497
3.56558
16.6952
17.416
18.1248
18.8074
19.4545
20.0619
20.6285
21.1556
21.6457
22.1016
22.526
22.9212
23.2888
23.6299
23.9451
24.2346
24.4984
24.7364
24.9487
25.1354
25.2967
25.4331
25.5451
25.6333
25.6982
25.7405
25.7608
25.7597
25.7378
25.696
25.635
25.5555
25.4585
25.3444
25.2139
25.0672
24.9046
24.7261
24.5315
24.3208
24.0941
23.8518
23.5943
23.3227
23.038
22.7415
22.4343
22.1176
21.7921
21.4583
21.1161
20.7653
20.4053
20.0353
19.6546
19.2627
18.8596
18.4455
18.0214
17.5882
17.1473
16.7001
16.2475
15.7903
15.3289
14.8629
14.3918
13.9145
13.4299
12.9367
12.4344
11.9229
11.4027
10.8753
10.3425
9.80686
9.27112
8.7381
8.21048
7.69066
7.18076
6.68263
6.19792
5.72831
5.27573
4.84263
4.43186
4.04646
3.68902
3.36082
16.6317
17.4486
18.2413
18.9903
19.686
20.3264
20.9135
21.4521
21.9477
22.4056
22.8303
23.2252
23.5927
23.934
24.2497
24.5397
24.8036
25.041
25.2519
25.4361
25.5941
25.7265
25.8337
25.9166
25.976
26.0123
26.0263
26.0186
25.9899
25.9411
25.8731
25.7868
25.6833
25.5634
25.4276
25.2764
25.1097
24.9273
24.7287
24.5134
24.2812
24.0324
23.7676
23.488
23.1949
22.8902
22.5757
22.2527
21.9225
21.5854
21.2414
20.8899
20.5297
20.1594
19.7774
19.3828
18.9754
18.5556
18.1244
17.6835
17.2349
16.7805
16.322
15.8604
15.3962
14.9288
14.4571
13.9792
13.4929
12.9961
12.4873
11.9659
11.4326
10.8888
10.337
9.78062
9.22328
8.66864
8.11998
7.58005
7.0511
6.53486
6.0327
5.5458
5.07595
4.62612
4.20036
3.80366
3.44089
3.11451
16.5606
17.516
18.4204
19.2495
19.9971
20.6672
21.2682
21.8103
22.3035
22.7569
23.177
23.5685
23.9339
24.2747
24.591
24.882
25.1465
25.3836
25.5928
25.7742
25.9282
26.0555
26.1569
26.2336
26.2864
26.3159
26.3227
26.3074
26.2707
26.2135
26.137
26.0426
25.9315
25.8048
25.6633
25.5073
25.3369
25.1514
24.9494
24.7298
24.4919
24.2357
23.962
23.6721
23.3682
23.0528
22.7287
22.398
22.0623
21.722
21.3772
21.0266
20.6685
20.2999
19.9179
19.5212
19.1088
18.6817
18.2411
17.7897
17.3304
16.8665
16.4006
15.9342
15.4677
15.0006
14.5309
14.0558
13.571
13.0726
12.558
12.0261
11.4773
10.9135
10.3381
9.75556
9.17142
8.59043
8.01681
7.4535
6.90303
6.36674
5.8454
5.33867
4.84727
4.37488
3.92696
3.51195
3.1403
2.81696
16.4932
17.6566
18.7079
19.6256
20.4196
21.107
21.7077
22.2384
22.7165
23.156
23.5648
23.9489
24.3103
24.6505
24.9682
25.2621
25.5285
25.7661
25.9736
26.1515
26.3003
26.4212
26.5155
26.5846
26.6299
26.6517
26.6505
26.6266
26.5805
26.5133
26.4264
26.322
26.2017
26.0672
25.9192
25.7588
25.5856
25.3988
25.1954
24.9722
24.7286
24.4638
24.1792
23.8761
23.5579
23.2277
22.891
22.5503
22.2083
21.865
21.5209
21.174
20.822
20.4592
20.0796
19.6815
19.2634
18.8269
18.3733
17.9071
17.4321
16.9553
16.4795
16.008
15.54
15.0759
14.6123
14.146
13.6687
13.1722
12.6536
12.1102
11.5437
10.9548
10.3494
9.73264
9.11493
8.50148
7.89867
7.30836
6.73447
6.177
5.63697
5.10938
4.59115
4.08836
3.60612
3.15776
2.77008
2.45289
16.4732
17.9583
19.1877
20.1796
20.9954
21.6715
22.2474
22.7422
23.1847
23.5987
23.9879
24.3617
24.7167
25.0584
25.3794
25.6814
25.9516
26.1914
26.3964
26.5703
26.712
26.825
26.9099
26.9696
27.0066
27.0203
27.0106
26.9775
26.9203
26.8412
26.7404
26.624
26.4918
26.3485
26.1927
26.0284
25.8533
25.6696
25.4693
25.2438
24.9954
24.7198
24.4229
24.1013
23.7644
23.4115
23.0586
22.7041
22.3559
22.0088
21.6683
21.3282
20.991
20.6423
20.2677
19.8705
19.4439
18.9966
18.5232
18.0369
17.5361
17.0422
16.5523
16.0763
15.6067
15.15
14.6976
14.2518
13.7936
13.3035
12.7847
12.2276
11.6419
11.0196
10.3768
9.71096
9.05215
8.39708
7.76242
7.13947
6.54215
5.96205
5.41054
4.86655
4.31274
3.77218
3.23642
2.71612
2.29834
1.99667
16.6845
18.6282
20.0089
20.9872
21.772
22.3798
22.9037
23.3208
23.6937
24.077
24.4327
24.8014
25.1419
25.4956
25.8177
26.146
26.4182
26.6666
26.8637
27.035
27.1648
27.2689
27.34
27.3872
27.4162
27.4224
27.4039
27.3626
27.2911
27.1999
27.0767
26.9481
26.7976
26.6475
26.478
26.3133
26.1331
25.9641
25.7789
25.5481
25.301
25.0062
24.7019
24.348
23.9937
23.5948
23.2284
22.8484
22.5015
22.1427
21.8148
21.4782
21.1762
20.8622
20.4883
20.1014
19.6542
19.2035
18.6914
18.1875
17.63
17.1233
16.6046
16.1352
15.6544
15.2179
14.773
14.3754
13.9641
13.476
12.9709
12.3859
11.7929
11.1136
10.4375
9.67897
8.98387
8.26316
7.6092
6.93358
6.32493
5.70584
5.17321
4.63778
4.01518
3.44905
2.84441
2.12683
1.65934
1.40339
17.9899
20.1085
21.4094
22.0731
22.8031
23.2088
23.7135
23.963
24.1872
24.5947
24.8585
25.2811
25.5479
25.9779
26.2468
26.6909
26.9186
27.2151
27.368
27.5591
27.6539
27.76
27.8044
27.8302
27.8585
27.8593
27.8298
27.7908
27.6899
27.6045
27.42
27.3036
27.1023
26.9741
26.756
26.6199
26.3964
26.2816
26.1538
25.8753
25.6748
25.3061
25.0521
24.5948
24.2866
23.7313
23.4172
22.9446
22.664
22.2319
21.9734
21.578
21.3783
21.168
20.7272
20.4188
19.8691
19.4984
18.8474
18.415
17.6504
17.2213
16.5857
16.2102
15.6384
15.2974
14.7801
14.5187
14.2447
13.673
13.2717
12.5557
12.0678
11.2031
10.6165
9.55551
8.95232
8.03303
7.48706
6.63114
6.12267
5.32504
4.93984
4.53447
3.63625
3.1813
2.61499
1.17739
0.715708
0.592754
3.85109
3.49087
3.15036
2.82859
2.52432
2.23613
1.96251
1.70184
1.45253
1.21294
0.981503
0.756651
0.536874
0.320694
0.10666
3.83062
3.47109
3.13159
2.81105
2.50819
2.22154
1.94951
1.69047
1.44278
1.20478
0.974899
0.751564
0.53327
0.318544
0.105946
3.78933
3.43125
3.09379
2.77579
2.47582
2.19229
1.9235
1.66774
1.4233
1.1885
0.961729
0.741427
0.52609
0.314261
0.104522
3.72651
3.37072
3.0365
2.72247
2.42698
2.14826
1.88443
1.63366
1.39415
1.16417
0.942078
0.726315
0.515393
0.307883
0.102403
3.64106
3.28857
2.95897
2.65055
2.36135
2.08929
1.83228
1.58831
1.35545
1.13193
0.916085
0.706352
0.501275
0.299471
0.0996091
3.53138
3.18348
2.86021
2.55938
2.27855
2.01524
1.76707
1.5318
1.3074
1.09201
0.883962
0.681721
0.483878
0.289113
0.0961699
3.39533
3.05372
2.73897
2.44816
2.17819
1.92603
1.68893
1.46442
1.25031
1.04474
0.846018
0.652682
0.463395
0.276929
0.0921262
3.23001
2.89704
2.59375
2.31607
2.05997
1.82175
1.59819
1.38659
1.18469
0.990584
0.802679
0.619586
0.440086
0.263076
0.0875309
3.03152
2.71066
2.42287
2.16238
1.92385
1.70276
1.49546
1.29904
1.11124
0.930222
0.754516
0.582887
0.41428
0.247755
0.0824509
2.7946
2.49116
2.22466
1.9867
1.77027
1.56997
1.38182
1.20287
1.03099
0.864537
0.702263
0.543159
0.386386
0.23121
0.0769674
2.51208
2.23468
1.99788
1.78945
1.60052
1.42501
1.25894
1.09963
0.94529
0.79466
0.646829
0.501094
0.356888
0.213727
0.0711755
2.17435
1.93756
1.74269
1.5727
1.41731
1.27061
1.12928
0.991405
0.855865
0.721975
0.589289
0.457491
0.32634
0.195632
0.0651821
1.76951
1.59847
1.46261
1.34133
1.22537
1.11083
0.996149
0.880828
0.764777
0.648075
0.530851
0.413236
0.295345
0.177274
0.0591023
1.28787
1.22419
1.16793
1.10461
1.03201
0.951156
0.863649
0.770969
0.674329
0.574687
0.472797
0.369251
0.264527
0.159016
0.0530541
0.743859
0.842487
0.880292
0.877151
0.846892
0.798124
0.736308
0.665058
0.586872
0.50354
0.416391
0.326439
0.23449
0.141205
0.0471518
9.92111
9.76298
9.6037
9.4424
9.27801
9.1091
8.93375
8.7491
8.55081
8.33161
8.07819
7.76219
7.30985
6.47734
4.25785
9.89772
9.6923
9.4842
9.27136
9.0513
8.82076
8.57526
8.30833
8.00995
7.66374
7.24073
6.68511
5.87933
4.55915
2.14712
9.87493
9.62348
9.36797
9.10533
8.83185
8.54277
8.23165
7.88935
7.50227
7.04917
6.49533
5.78169
4.80601
3.39917
1.34345
9.85305
9.55746
9.25668
8.94682
8.62323
8.28007
7.90967
7.50146
7.04042
6.50453
5.86087
5.06023
4.03206
2.68979
0.97809
9.83234
9.49504
9.15171
8.79783
8.42817
8.03628
7.61393
7.15024
6.63052
6.0347
5.33541
4.49676
3.47621
2.23694
0.782504
9.81299
9.43682
9.05404
8.6598
8.24854
7.81364
7.34688
6.8379
6.27346
5.63669
4.90673
4.05957
3.07225
1.93351
0.663699
9.79515
9.38318
8.96431
8.53356
8.08533
7.6131
7.10913
6.56406
5.9666
5.30338
4.55941
3.71972
2.77342
1.72108
0.584885
9.77887
9.33433
8.88284
8.41947
7.93877
7.4346
6.89992
6.3266
5.70539
5.02614
4.27854
3.45389
2.54822
1.56688
0.529387
9.76418
9.29029
8.80962
8.3174
7.8085
7.27728
6.71753
6.12238
5.48448
4.79635
4.05117
3.24433
2.37555
1.45166
0.488666
9.75103
9.25096
8.74442
8.22691
7.69371
7.13977
6.5597
5.94784
5.29846
4.60615
3.86662
3.07776
2.24116
1.3636
0.4579
9.73938
9.21613
8.68682
8.14732
7.59333
7.0204
6.42394
5.79936
5.14223
4.44875
3.71632
2.94434
2.13521
1.29508
0.434146
9.72912
9.1855
8.63631
8.07778
7.50609
6.91735
6.30772
5.67346
5.01124
4.3184
3.59347
2.83672
2.05078
1.241
0.415502
9.72014
9.15874
8.59228
8.01738
7.43067
6.82881
6.20858
5.56699
4.90151
4.21032
3.4927
2.74938
1.9829
1.19784
0.400681
9.71233
9.13548
8.5541
7.96518
7.36578
6.75304
6.12427
5.4771
4.80962
4.1206
3.40979
2.67811
1.92792
1.16307
0.388779
9.70557
9.11537
8.52115
7.92026
7.31015
6.68838
6.05273
5.40131
4.73267
4.04602
3.34136
2.61969
1.88311
1.13486
0.379144
9.69975
9.09806
8.49283
7.88175
7.26261
6.63336
5.99215
5.33747
4.66824
3.98394
3.28474
2.57161
1.84642
1.11184
0.371294
9.69475
9.0832
8.46857
7.84883
7.2221
6.58663
5.94091
5.28373
4.61427
3.9322
3.23778
2.53193
1.81623
1.09295
0.364864
9.69047
9.0705
8.44784
7.82077
7.18765
6.54703
5.89764
5.23852
4.56905
3.88903
3.19876
2.49907
1.79132
1.07739
0.359574
9.68681
9.05966
8.43018
7.79689
7.15841
6.5135
5.86112
5.2005
4.53115
3.85298
3.16629
2.4718
1.7707
1.06454
0.355208
9.6837
9.05044
8.41517
7.77663
7.13364
6.48516
5.83033
5.16853
4.49938
3.82285
3.13922
2.44913
1.75359
1.05389
0.351593
9.68106
9.0426
8.40243
7.75945
7.11268
6.46123
5.80439
5.14166
4.47275
3.79765
3.11663
2.43026
1.73937
1.04505
0.348592
9.67882
9.03596
8.39163
7.74492
7.09496
6.44103
5.78254
5.11907
4.4504
3.77655
3.09776
2.41451
1.72752
1.03769
0.346097
9.67692
9.03033
8.3825
7.73263
7.08
6.424
5.76415
5.10009
4.43166
3.75889
3.08198
2.40137
1.71764
1.03156
0.344019
9.67531
9.02558
8.37478
7.72225
7.06738
6.40966
5.74867
5.08414
4.41594
3.74409
3.06879
2.39038
1.70939
1.02645
0.342286
9.67396
9.02156
8.36826
7.71349
7.05674
6.39758
5.73565
5.07074
4.40275
3.73169
3.05774
2.3812
1.7025
1.02218
0.340839
9.67281
9.01817
8.36276
7.70611
7.04778
6.38741
5.72471
5.05949
4.39168
3.72129
3.04849
2.37352
1.69674
1.01861
0.339631
9.67184
9.01531
8.35813
7.6999
7.04024
6.37886
5.71551
5.05005
4.38239
3.71258
3.04074
2.36708
1.69192
1.01562
0.33862
9.67103
9.01291
8.35423
7.69466
7.0339
6.37167
5.70779
5.04212
4.3746
3.70528
3.03425
2.3617
1.68789
1.01313
0.337775
9.67035
9.01088
8.35095
7.69027
7.02857
6.36563
5.7013
5.03546
4.36808
3.69916
3.02882
2.3572
1.68451
1.01104
0.337068
9.66977
9.00918
8.3482
7.68657
7.02409
6.36057
5.69586
5.02989
4.36261
3.69404
3.02427
2.35343
1.68169
1.00929
0.336477
9.66929
9.00775
8.34589
7.68348
7.02034
6.35632
5.69131
5.02522
4.35803
3.68975
3.02047
2.35027
1.67933
1.00783
0.335983
9.66888
9.00656
8.34395
7.68088
7.0172
6.35277
5.6875
5.02131
4.3542
3.68617
3.01729
2.34764
1.67736
1.00661
0.335571
9.66855
9.00556
8.34233
7.67872
7.01458
6.3498
5.68432
5.01806
4.35101
3.68319
3.01464
2.34545
1.67572
1.0056
0.335228
9.66827
9.00473
8.34099
7.67691
7.01239
6.34734
5.68167
5.01535
4.34836
3.68071
3.01244
2.34363
1.67436
1.00476
0.334943
9.66803
9.00404
8.33987
7.67542
7.01059
6.34529
5.67948
5.0131
4.34616
3.67865
3.01062
2.34212
1.67323
1.00406
0.334707
9.66784
9.00347
8.33895
7.67419
7.0091
6.34361
5.67767
5.01126
4.34435
3.67696
3.00912
2.34088
1.67231
1.00349
0.334513
9.66768
9.00301
8.3382
7.67318
7.00788
6.34224
5.6762
5.00975
4.34288
3.67558
3.0079
2.33987
1.67155
1.00302
0.334355
9.66756
9.00264
8.3376
7.67238
7.00691
6.34113
5.67502
5.00854
4.34169
3.67448
3.00692
2.33906
1.67094
1.00264
0.334228
9.66746
9.00234
8.33713
7.67174
7.00614
6.34027
5.67409
5.00759
4.34076
3.67361
3.00615
2.33842
1.67047
1.00235
0.334128
9.66738
9.00212
8.33677
7.67126
7.00556
6.33961
5.67339
5.00688
4.34006
3.67295
3.00557
2.33794
1.67011
1.00213
0.334053
9.66733
9.00197
8.33651
7.67092
7.00515
6.33915
5.67289
5.00637
4.33956
3.67248
3.00515
2.3376
1.66985
1.00197
0.333999
9.6673
9.00187
8.33636
7.67071
7.00489
6.33886
5.67258
5.00605
4.33925
3.67219
3.00489
2.33738
1.66969
1.00187
0.333966
9.66728
9.00183
8.33629
7.67062
7.00478
6.33873
5.67245
5.00591
4.33912
3.67207
3.00479
2.33729
1.66963
1.00183
0.333952
9.66729
9.00184
8.33631
7.67065
7.00482
6.33878
5.6725
5.00596
4.33916
3.67211
3.00482
2.33732
1.66965
1.00184
0.333957
9.66731
9.00191
8.33642
7.6708
7.005
6.33898
5.67272
5.00619
4.33939
3.67232
3.00501
2.33747
1.66976
1.00191
0.33398
9.66736
9.00204
8.33663
7.67108
7.00534
6.33936
5.67312
5.0066
4.33979
3.6727
3.00534
2.33775
1.66997
1.00204
0.334024
9.66742
9.00223
8.33694
7.67149
7.00583
6.33992
5.67372
5.00722
4.34039
3.67326
3.00584
2.33816
1.67028
1.00223
0.334088
9.66751
9.00248
8.33735
7.67205
7.00651
6.34068
5.67454
5.00805
4.34121
3.67402
3.00652
2.33872
1.67069
1.00249
0.334176
9.66762
9.00282
8.33789
7.67277
7.00738
6.34167
5.67559
5.00913
4.34226
3.67501
3.00739
2.33945
1.67123
1.00282
0.334288
9.66776
9.00323
8.33857
7.67367
7.00847
6.3429
5.67692
5.01048
4.34359
3.67625
3.00849
2.34035
1.67191
1.00324
0.334431
9.66793
9.00375
8.3394
7.67479
7.00982
6.34443
5.67855
5.01215
4.34523
3.67778
3.00984
2.34148
1.67275
1.00376
0.334606
9.66815
9.00438
8.34042
7.67615
7.01147
6.34629
5.68054
5.01419
4.34722
3.67965
3.0115
2.34285
1.67378
1.0044
0.33482
9.6684
9.00514
8.34165
7.6778
7.01346
6.34854
5.68296
5.01667
4.34964
3.68191
3.0135
2.34451
1.67502
1.00516
0.33508
9.66871
9.00605
8.34313
7.67978
7.01586
6.35126
5.68587
5.01964
4.35256
3.68464
3.01592
2.34651
1.67652
1.00609
0.335393
9.66908
9.00715
8.3449
7.68216
7.01874
6.35451
5.68936
5.02322
4.35606
3.68791
3.01883
2.34891
1.67831
1.0072
0.33577
9.66953
9.00846
8.34703
7.685
7.02218
6.3584
5.69354
5.0275
4.36025
3.69183
3.0223
2.35179
1.68047
1.00853
0.336221
9.67006
9.01002
8.34956
7.6884
7.0263
6.36306
5.69853
5.03261
4.36527
3.69652
3.02647
2.35524
1.68305
1.01013
0.336761
9.67069
9.01189
8.35258
7.69244
7.0312
6.3686
5.70448
5.03871
4.37125
3.70212
3.03144
2.35936
1.68613
1.01204
0.337406
9.67144
9.01411
8.35617
7.69726
7.03703
6.37521
5.71157
5.04599
4.37839
3.70881
3.03737
2.36428
1.68982
1.01432
0.338178
9.67233
9.01674
8.36045
7.70299
7.04398
6.38308
5.72003
5.05466
4.3869
3.71679
3.04446
2.37016
1.69422
1.01704
0.3391
9.67339
9.01988
8.36552
7.7098
7.05224
6.39244
5.73009
5.06499
4.39704
3.7263
3.05292
2.37717
1.69947
1.02029
0.340201
9.67464
9.02359
8.37155
7.71789
7.06205
6.40357
5.74206
5.07729
4.40913
3.73765
3.06301
2.38555
1.70575
1.02418
0.341518
9.67613
9.028
8.3787
7.72749
7.07371
6.41679
5.7563
5.09193
4.42354
3.75118
3.07505
2.39556
1.71326
1.02883
0.343093
9.6779
9.03322
8.38717
7.73887
7.08754
6.4325
5.77323
5.10936
4.44071
3.76732
3.08944
2.40752
1.72223
1.0344
0.344978
9.67998
9.0394
8.3972
7.75236
7.10394
6.45116
5.79336
5.13011
4.46117
3.78659
3.10662
2.42183
1.73298
1.04106
0.347236
9.68245
9.04671
8.40906
7.76832
7.12338
6.47329
5.81728
5.15479
4.48556
3.80958
3.12717
2.43895
1.74585
1.04905
0.349944
9.68536
9.05533
8.42308
7.7872
7.1464
6.49953
5.84568
5.18417
4.51463
3.83704
3.15174
2.45946
1.76128
1.05864
0.353196
9.68879
9.06549
8.43961
7.8095
7.17362
6.53063
5.8794
5.21912
4.54929
3.86985
3.18116
2.48406
1.77983
1.07017
0.357108
9.69282
9.07746
8.45909
7.83579
7.20578
6.56744
5.91942
5.26069
4.59063
3.90908
3.21642
2.5136
1.80214
1.08406
0.361824
9.69756
9.09151
8.48198
7.86675
7.24372
6.61097
5.96686
5.31013
4.63994
3.95603
3.25874
2.54916
1.82904
1.10083
0.367524
9.7031
9.10796
8.50884
7.90313
7.2884
6.66238
6.02308
5.36891
4.69879
4.01225
3.3096
2.59202
1.86155
1.12114
0.374432
9.70957
9.12719
8.54025
7.94579
7.34093
6.723
6.08962
5.43877
4.76902
4.07965
3.37084
2.64382
1.90098
1.14582
0.382838
9.7171
9.14959
8.5769
7.99565
7.40252
6.79436
6.16828
5.52176
4.85289
4.16055
3.44471
2.70661
1.94895
1.17594
0.39311
9.72583
9.17557
8.61949
8.05375
7.47455
6.87817
6.26112
5.62026
4.95303
4.25778
3.53404
2.78297
2.00758
1.21289
0.405733
9.73591
9.20558
8.66879
8.12121
7.5585
6.97633
6.37049
5.73706
5.07264
4.37477
3.64235
2.87622
2.07961
1.25848
0.421349
9.74748
9.24007
8.72557
8.19918
7.65596
7.09092
6.49902
5.87537
5.21548
4.51575
3.77408
2.99062
2.16867
1.31518
0.440831
9.76068
9.27949
8.79062
8.28881
7.76857
7.22415
6.6496
6.03883
5.38598
4.68586
3.9348
3.13176
2.27963
1.38636
0.465393
9.77564
9.32423
8.86466
8.39124
7.89796
7.37831
6.82531
6.23152
5.58929
4.89132
4.13161
3.30698
2.41915
1.47677
0.496771
9.79248
9.37463
8.9483
8.50747
8.04564
7.55562
7.02934
6.45783
5.83131
5.13966
4.37348
3.5261
2.59653
1.59331
0.537549
9.81125
9.43094
9.042
8.63827
8.2129
7.75809
7.26477
6.72233
6.11854
5.43973
4.67175
3.80228
2.82506
1.74634
0.59175
9.832
9.49322
9.14597
8.78409
8.4006
7.9873
7.53428
7.02942
6.45786
5.8017
5.04048
4.15326
3.12406
1.95206
0.666022
9.85466
9.56137
9.26009
8.94491
8.60899
8.24407
7.83978
7.38283
6.85591
6.23662
5.49668
4.60284
3.52221
2.23695
0.772241
9.87913
9.63507
9.38385
9.12011
8.83751
8.52817
8.18184
7.78479
7.31808
6.7553
6.05975
5.1821
4.06245
2.64646
0.933852
9.90523
9.71374
9.51631
9.3084
9.08458
8.83792
8.55911
8.23511
7.84694
7.36617
6.74924
5.9294
4.80846
3.26194
1.20316
9.93266
9.79654
9.65602
9.50772
9.3475
9.16999
8.96774
8.72995
8.44008
8.07155
7.57962
6.88578
5.84997
4.23314
1.71382
9.96108
9.88239
9.80113
9.7153
9.62241
9.5192
9.40103
9.26094
9.0878
8.8626
8.55016
8.07959
7.29494
5.83103
2.85525
9.99007
9.97003
9.94941
9.92775
9.90448
9.87879
9.84951
9.81483
9.77164
9.71418
9.63048
9.49145
9.21157
8.47879
5.89575
10.0192
10.0581
10.0984
10.1413
10.1882
10.2408
10.3017
10.3746
10.4653
10.5839
10.7492
11.0011
11.4426
12.4114
15.331
10.048
10.1451
10.2456
10.3521
10.4679
10.5971
10.7456
10.9219
11.1396
11.4212
11.8076
12.3789
13.3075
14.9891
18.3124
10.076
10.2297
10.3885
10.5565
10.7382
10.94
11.17
11.4405
11.7694
12.1858
12.7375
13.5085
14.6494
16.4267
19.2614
0.305869
0.548333
0.654143
0.693494
0.694155
0.669795
0.628217
0.574323
0.511413
0.441815
0.367248
0.289022
0.208179
0.12558
0.0419702
0.164133
0.375811
0.4947
0.553394
0.572671
0.565084
0.538497
0.498093
0.447451
0.389149
0.325109
0.256821
0.185478
0.112077
0.0374885
0.103359
0.267723
0.377055
0.44066
0.469837
0.473561
0.458367
0.428967
0.388806
0.340462
0.285917
0.226738
0.164204
0.0993978
0.0332762
0.0719966
0.197849
0.291161
0.35183
0.384674
0.395171
0.388099
0.36731
0.335839
0.296078
0.249941
0.198983
0.144505
0.0876309
0.0293627
0.0532309
0.150571
0.227934
0.282319
0.315027
0.328977
0.327352
0.313067
0.288624
0.256121
0.21731
0.173669
0.12647
0.076831
0.0257665
0.040799
0.117165
0.180661
0.227857
0.258404
0.273597
0.275393
0.265875
0.247004
0.220541
0.188029
0.150826
0.110129
0.0670198
0.0224954
0.0320002
0.0926948
0.144705
0.184956
0.21244
0.227516
0.231289
0.225174
0.210655
0.189158
0.162006
0.130406
0.0954619
0.0581905
0.0195478
0.0254968
0.0742549
0.116913
0.150921
0.175089
0.189283
0.194049
0.190309
0.179149
0.161701
0.139069
0.112308
0.0824098
0.050313
0.0169147
0.0205455
0.0600505
0.0951267
0.123716
0.144663
0.157596
0.162715
0.160593
0.152008
0.137841
0.119
0.0963875
0.0708836
0.0433389
0.0145805
0.0166955
0.0489211
0.0778443
0.101818
0.119802
0.131332
0.136408
0.135363
0.128743
0.117225
0.101547
0.0824741
0.0607737
0.0372072
0.0125259
0.0136545
0.0400844
0.0639985
0.0840776
0.0994205
0.109549
0.114351
0.114002
0.108879
0.0994973
0.0864516
0.0703842
0.0519592
0.0318492
0.0107286
0.0112237
0.0329946
0.0528152
0.0696258
0.0826596
0.091463
0.0958701
0.0959542
0.091972
0.0843124
0.0734536
0.0599309
0.0443142
0.0271925
0.00916498
0.00926256
0.0272587
0.0437217
0.0577959
0.0688358
0.0764294
0.0803904
0.0807294
0.0776175
0.0713483
0.0623046
0.0509312
0.0377139
0.0231648
0.00781124
0.00766872
0.0225872
0.0362865
0.0480725
0.0574044
0.0639177
0.0674251
0.0679003
0.0654549
0.0603103
0.0527729
0.0432113
0.032038
0.0196953
0.00664419
0.00636576
0.018762
0.0301798
0.040053
0.0479297
0.0534929
0.0565646
0.0570989
0.0551659
0.0509333
0.0446464
0.0366102
0.027174
0.0167177
0.00564182
0.00529557
0.0156162
0.0251453
0.0334194
0.0400612
0.0447976
0.0474657
0.0480101
0.0464733
0.0429823
0.0377341
0.0309811
0.023018
0.0141702
0.00478367
0.0044132
0.0130198
0.020982
0.0279189
0.0335156
0.0375382
0.0398411
0.0403661
0.0391373
0.0362512
0.0318664
0.026192
0.0194761
0.0119966
0.00405106
0.00368345
0.0108707
0.0175306
0.0233489
0.0280626
0.0314727
0.0334507
0.0339398
0.0329517
0.0305605
0.0268941
0.0221257
0.0164644
0.0101465
0.00342716
0.00307842
0.00908774
0.0146635
0.0195457
0.0235147
0.0264014
0.0280939
0.0285388
0.0277402
0.0257549
0.0226868
0.0186793
0.0139085
0.008575
0.00289699
0.00257578
0.00760574
0.0122779
0.0163766
0.019718
0.0221592
0.0236031
0.0240011
0.0233525
0.0217011
0.0191315
0.0157629
0.0117432
0.00724267
0.00244733
0.00215758
0.00637211
0.0102904
0.0137331
0.0165464
0.0186093
0.0198384
0.0201901
0.0196608
0.0182847
0.0161308
0.0132984
0.00991171
0.00611501
0.00206662
0.00180922
0.00534416
0.00863308
0.0115265
0.0138957
0.0156382
0.0166828
0.0169907
0.0165569
0.0154083
0.0136013
0.0112186
0.00836486
0.00516207
0.0017448
0.00151882
0.00448698
0.0072503
0.00968397
0.0116799
0.0131518
0.0140385
0.0143063
0.0139493
0.0129889
0.0114714
0.00946584
0.00706032
0.00435802
0.0014732
0.00127666
0.00377201
0.00609636
0.00814528
0.00982799
0.0110715
0.0118238
0.0120556
0.0117607
0.0109561
0.00968025
0.00799076
0.00596179
0.00368067
0.00124435
0.00107475
0.00317576
0.00513363
0.00686081
0.00828093
0.00933231
0.0099706
0.0101704
0.00992585
0.00925054
0.00817627
0.00675136
0.00503831
0.00311105
0.00105187
0.000906518
0.00267885
0.00433106
0.00578951
0.00698984
0.00787986
0.00842178
0.00859367
0.00839008
0.00782193
0.0069157
0.00571198
0.00426354
0.00263302
0.000890306
0.000766537
0.00226535
0.003663
0.00489741
0.00591418
0.00666906
0.00712984
0.00727761
0.00710738
0.00662802
0.00586166
0.00484249
0.00361517
0.00223288
0.000755053
0.000650341
0.00192206
0.00310826
0.00415639
0.00502032
0.00566242
0.00605518
0.00618231
0.00603927