/*--------------------------------*- C++ -*----------------------------------*\
| =========                 |                                                 |
| \\      /  F ield         | OpenFOAM: The Open Source CFD Toolbox           |
|  \\    /   O peration     | Version:  5.x                                   |
|   \\  /    A nd           | Web:      www.OpenFOAM.org                      |
|    \\/     M anipulation  |                                                 |
\*---------------------------------------------------------------------------*/
FoamFile
{
    version     2.0;
    format      ascii;
    class       volScalarField;
    location    "1.4";
    object      gradTx;
}
// * * * * * * * * * * * * * * * * * * * * * * * * * * * * * * * * * * * * * //

dimensions      [0 -1 0 1 0 0 0];

internalField   nonuniform List<scalar> 
3200
(
5.53763
-0.123573
-0.483369
-0.500704
-0.479924
-0.474754
-0.384301
-0.376889
-0.306192
-0.48972
-0.237555
-0.182272
-0.1765
-0.142519
-0.139303
-0.113084
-0.110626
-0.0898884
-0.0879397
-0.071384
-0.0698259
-0.0565539
-0.0553044
-0.0446547
-0.0436526
-0.0351163
-0.034314
-0.0274883
-0.0268477
-0.0214078
-0.0208981
-0.0165795
-0.0161757
-0.0127621
-0.0124435
-0.00975787
-0.00950775
-0.00740544
-0.0072101
-0.00557331
-0.0054216
-0.00415473
-0.00403763
-0.00306346
-0.00297371
-0.0022302
-0.00216216
-0.00160049
-0.00155336
-0.00116067
-0.00176224
-0.000799944
-0.000531321
-0.000504589
-0.000342536
-0.000327986
-0.00021693
-0.000207218
-0.000133066
-0.00012668
-7.89772e-05
-7.49263e-05
-4.54142e-05
-4.29398e-05
-2.53483e-05
-2.38893e-05
-1.3743e-05
-1.29087e-05
-7.2141e-06
-6.74861e-06
-3.61805e-06
-3.35701e-06
-1.53773e-06
-1.39032e-06
-4.04868e-07
-3.36178e-07
-2.1569e-08
-3.93009e-09
-8.89085e-10
3.14744e-08
5.5232
-0.150113
-0.451111
-0.490942
-0.478354
-0.466882
-0.391137
-0.374757
-0.325214
-0.450941
-0.252337
-0.189628
-0.17542
-0.14526
-0.137762
-0.11505
-0.109357
-0.0914306
-0.0869205
-0.0726128
-0.069007
-0.0575384
-0.054647
-0.0454448
-0.0431259
-0.03575
-0.0338934
-0.0279955
-0.026513
-0.0218125
-0.020633
-0.0169012
-0.0159666
-0.0130167
-0.0122794
-0.00995851
-0.00937965
-0.00756275
-0.00711065
-0.00569599
-0.00534487
-0.00424987
-0.00397884
-0.00313678
-0.00292905
-0.00228643
-0.00212907
-0.00164542
-0.00153844
-0.00123639
-0.00162436
-0.000853027
-0.000564025
-0.000498917
-0.000355799
-0.000321908
-0.000225631
-0.000203127
-0.000138907
-0.000124111
-8.27712e-05
-7.33829e-05
-4.77841e-05
-4.20472e-05
-2.67732e-05
-2.3389e-05
-1.45709e-05
-1.26349e-05
-7.68134e-06
-6.60066e-06
-3.87347e-06
-3.26746e-06
-1.68713e-06
-1.34529e-06
-4.90958e-07
-3.31396e-07
-5.28272e-08
-1.12059e-08
-2.57447e-09
3.09081e-08
5.51135
-0.167229
-0.429299
-0.483276
-0.476739
-0.461579
-0.395596
-0.373948
-0.337222
-0.425134
-0.261682
-0.195043
-0.174976
-0.147093
-0.13683
-0.116335
-0.108578
-0.0924356
-0.0862927
-0.0734131
-0.0685022
-0.0581795
-0.0542417
-0.0459593
-0.0428013
-0.0361628
-0.0336342
-0.0283259
-0.026307
-0.0220762
-0.0204698
-0.0171109
-0.015838
-0.0131828
-0.0121786
-0.0100894
-0.00930101
-0.00766542
-0.00704966
-0.0057761
-0.00529787
-0.00431202
-0.00394287
-0.00318471
-0.00290177
-0.00232323
-0.00210902
-0.00167526
-0.00153132
-0.00128449
-0.00153286
-0.000886809
-0.000587767
-0.000496361
-0.00036469
-0.000318324
-0.00023138
-0.000200704
-0.00014277
-0.000122603
-8.52865e-05
-7.24875e-05
-4.93591e-05
-4.15358e-05
-2.77223e-05
-2.3106e-05
-1.51234e-05
-1.24818e-05
-7.9936e-06
-6.51852e-06
-4.044e-06
-3.21685e-06
-1.78697e-06
-1.32075e-06
-5.4925e-07
-3.31371e-07
-7.46051e-08
-1.71609e-08
-3.99814e-09
3.04269e-08
5.50302
-0.177411
-0.415809
-0.478028
-0.475465
-0.458305
-0.39828
-0.37374
-0.344243
-0.40938
-0.267152
-0.198593
-0.174844
-0.148221
-0.136306
-0.117109
-0.108133
-0.0930397
-0.0859335
-0.0738939
-0.0682132
-0.0585646
-0.0540096
-0.0462685
-0.0426155
-0.0364108
-0.0334859
-0.0285245
-0.0261891
-0.0222348
-0.0203766
-0.017237
-0.0157646
-0.0132827
-0.0121211
-0.0101681
-0.00925617
-0.00772721
-0.00701492
-0.00582434
-0.00527111
-0.00434945
-0.00392242
-0.00321359
-0.00288629
-0.00234544
-0.00209772
-0.0016935
-0.00152829
-0.00131278
-0.00147711
-0.000906701
-0.000603197
-0.00049541
-0.000370164
-0.000316359
-0.000234876
-0.000199368
-0.00014512
-0.00012178
-8.682e-05
-7.20044e-05
-5.03213e-05
-4.12636e-05
-2.83032e-05
-2.29573e-05
-1.5462e-05
-1.24023e-05
-8.18522e-06
-6.47628e-06
-4.14858e-06
-3.19031e-06
-1.84824e-06
-1.30841e-06
-5.85385e-07
-3.32893e-07
-8.84063e-08
-2.13427e-08
-5.02493e-09
3.00777e-08
5.49873
-0.182154
-0.409364
-0.475368
-0.474772
-0.456743
-0.39954
-0.373727
-0.347475
-0.401916
-0.269672
-0.200347
-0.174825
-0.148758
-0.136071
-0.117473
-0.107932
-0.0933233
-0.0857707
-0.0741195
-0.0680821
-0.0587453
-0.0539043
-0.0464135
-0.0425312
-0.0365271
-0.0334187
-0.0286177
-0.0261357
-0.0223092
-0.0203343
-0.0172962
-0.0157313
-0.0133296
-0.012095
-0.0102051
-0.00923588
-0.00775624
-0.00699921
-0.00584699
-0.00525903
-0.00436705
-0.00391319
-0.00322717
-0.00287931
-0.00235588
-0.00209266
-0.00170215
-0.00152725
-0.00132585
-0.00145074
-0.000915904
-0.000610787
-0.000495149
-0.000372775
-0.000315497
-0.000236529
-0.000198779
-0.000146232
-0.000121419
-8.75464e-05
-7.17949e-05
-5.07776e-05
-4.11468e-05
-2.8579e-05
-2.28942e-05
-1.5623e-05
-1.2369e-05
-8.27637e-06
-6.45868e-06
-4.1983e-06
-3.17906e-06
-1.87739e-06
-1.30337e-06
-6.02684e-07
-3.34087e-07
-9.51058e-08
-2.34924e-08
-5.56188e-09
2.98944e-08
5.49874
-0.182156
-0.409365
-0.475368
-0.474772
-0.456743
-0.39954
-0.373727
-0.347475
-0.401916
-0.269672
-0.200347
-0.174825
-0.148758
-0.136071
-0.117473
-0.107932
-0.0933233
-0.0857707
-0.0741195
-0.0680821
-0.0587453
-0.0539043
-0.0464135
-0.0425312
-0.0365272
-0.0334187
-0.0286177
-0.0261357
-0.0223092
-0.0203344
-0.0172962
-0.0157313
-0.0133296
-0.012095
-0.0102051
-0.00923588
-0.00775624
-0.00699921
-0.00584699
-0.00525903
-0.00436705
-0.00391319
-0.00322717
-0.00287931
-0.00235588
-0.00209266
-0.00170215
-0.00152725
-0.00132585
-0.00145074
-0.000915904
-0.000610787
-0.000495149
-0.000372775
-0.000315497
-0.000236529
-0.000198779
-0.000146232
-0.000121419
-8.75463e-05
-7.17949e-05
-5.07776e-05
-4.11467e-05
-2.8579e-05
-2.28942e-05
-1.5623e-05
-1.2369e-05
-8.27637e-06
-6.45868e-06
-4.1983e-06
-3.17906e-06
-1.87739e-06
-1.30336e-06
-6.02683e-07
-3.34086e-07
-9.51054e-08
-2.34922e-08
-5.56182e-09
2.98945e-08
5.50303
-0.177417
-0.415811
-0.478028
-0.475466
-0.458306
-0.39828
-0.373741
-0.344243
-0.40938
-0.267152
-0.198593
-0.174844
-0.148221
-0.136306
-0.117109
-0.108133
-0.0930398
-0.0859336
-0.0738939
-0.0682132
-0.0585646
-0.0540096
-0.0462685
-0.0426155
-0.0364108
-0.0334859
-0.0285245
-0.0261891
-0.0222348
-0.0203766
-0.017237
-0.0157646
-0.0132827
-0.0121211
-0.0101681
-0.00925617
-0.00772722
-0.00701492
-0.00582434
-0.00527112
-0.00434945
-0.00392242
-0.00321359
-0.00288629
-0.00234544
-0.00209772
-0.0016935
-0.00152829
-0.00131278
-0.00147711
-0.000906701
-0.000603196
-0.000495409
-0.000370164
-0.000316359
-0.000234876
-0.000199368
-0.00014512
-0.00012178
-8.682e-05
-7.20043e-05
-5.03212e-05
-4.12635e-05
-2.83032e-05
-2.29572e-05
-1.5462e-05
-1.24023e-05
-8.18521e-06
-6.47627e-06
-4.14857e-06
-3.1903e-06
-1.84824e-06
-1.3084e-06
-5.85382e-07
-3.32891e-07
-8.84052e-08
-2.13421e-08
-5.02478e-09
3.0078e-08
5.51137
-0.167236
-0.429301
-0.483277
-0.476739
-0.461579
-0.395597
-0.373949
-0.337223
-0.425135
-0.261682
-0.195043
-0.174976
-0.147093
-0.13683
-0.116335
-0.108578
-0.0924357
-0.0862927
-0.0734131
-0.0685022
-0.0581795
-0.0542417
-0.0459594
-0.0428013
-0.0361628
-0.0336342
-0.028326
-0.026307
-0.0220762
-0.0204698
-0.017111
-0.015838
-0.0131828
-0.0121786
-0.0100894
-0.00930101
-0.00766542
-0.00704967
-0.0057761
-0.00529787
-0.00431202
-0.00394287
-0.00318471
-0.00290177
-0.00232323
-0.00210902
-0.00167526
-0.00153132
-0.00128449
-0.00153286
-0.000886809
-0.000587767
-0.000496361
-0.00036469
-0.000318324
-0.00023138
-0.000200703
-0.00014277
-0.000122603
-8.52865e-05
-7.24874e-05
-4.93591e-05
-4.15358e-05
-2.77223e-05
-2.31059e-05
-1.51234e-05
-1.24818e-05
-7.99359e-06
-6.51851e-06
-4.04399e-06
-3.21684e-06
-1.78697e-06
-1.32075e-06
-5.49247e-07
-3.31368e-07
-7.46037e-08
-1.71601e-08
-3.99795e-09
3.04273e-08
5.52321
-0.15012
-0.451113
-0.490943
-0.478355
-0.466882
-0.391137
-0.374757
-0.325214
-0.450942
-0.252337
-0.189628
-0.17542
-0.14526
-0.137762
-0.11505
-0.109358
-0.0914307
-0.0869205
-0.0726128
-0.069007
-0.0575384
-0.054647
-0.0454448
-0.043126
-0.0357501
-0.0338934
-0.0279955
-0.026513
-0.0218125
-0.020633
-0.0169012
-0.0159666
-0.0130167
-0.0122794
-0.00995851
-0.00937965
-0.00756276
-0.00711066
-0.005696
-0.00534487
-0.00424987
-0.00397884
-0.00313678
-0.00292905
-0.00228643
-0.00212907
-0.00164542
-0.00153844
-0.00123639
-0.00162436
-0.000853027
-0.000564024
-0.000498916
-0.000355799
-0.000321908
-0.000225631
-0.000203127
-0.000138907
-0.000124111
-8.27712e-05
-7.33829e-05
-4.7784e-05
-4.20472e-05
-2.67732e-05
-2.3389e-05
-1.45709e-05
-1.26349e-05
-7.68133e-06
-6.60066e-06
-3.87346e-06
-3.26745e-06
-1.68713e-06
-1.34529e-06
-4.90956e-07
-3.31395e-07
-5.28261e-08
-1.12053e-08
-2.57432e-09
3.09085e-08
5.53763
-0.123575
-0.48337
-0.500704
-0.479924
-0.474754
-0.384301
-0.37689
-0.306192
-0.48972
-0.237555
-0.182272
-0.1765
-0.142519
-0.139303
-0.113084
-0.110626
-0.0898884
-0.0879398
-0.071384
-0.0698259
-0.0565539
-0.0553044
-0.0446547
-0.0436526
-0.0351163
-0.034314
-0.0274883
-0.0268477
-0.0214078
-0.0208981
-0.0165795
-0.0161757
-0.0127621
-0.0124435
-0.00975787
-0.00950775
-0.00740545
-0.0072101
-0.00557331
-0.0054216
-0.00415473
-0.00403763
-0.00306346
-0.00297371
-0.0022302
-0.00216216
-0.00160049
-0.00155336
-0.00116067
-0.00176224
-0.000799944
-0.000531321
-0.000504589
-0.000342536
-0.000327986
-0.00021693
-0.000207218
-0.000133066
-0.00012668
-7.89772e-05
-7.49262e-05
-4.54142e-05
-4.29398e-05
-2.53482e-05
-2.38892e-05
-1.3743e-05
-1.29087e-05
-7.21409e-06
-6.74861e-06
-3.61805e-06
-3.35701e-06
-1.53773e-06
-1.39032e-06
-4.04867e-07
-3.36177e-07
-2.15685e-08
-3.92983e-09
-8.89032e-10
3.14745e-08
5.22773
-0.583383
-0.224051
-0.207496
-0.209411
-0.209194
-0.210988
-0.211833
-0.213207
-0.374217
-0.200348
-0.178143
-0.175387
-0.159226
-0.157497
-0.141345
-0.13969
-0.124123
-0.122555
-0.108037
-0.10659
-0.0933615
-0.0920535
-0.0801973
-0.0790313
-0.0685324
-0.0675042
-0.0582908
-0.0573914
-0.0493633
-0.0485816
-0.0416268
-0.0409512
-0.0349569
-0.0343758
-0.0292338
-0.0287363
-0.0243457
-0.0239219
-0.0201907
-0.0198314
-0.0166765
-0.0163734
-0.0137202
-0.0134661
-0.0112485
-0.0110383
-0.00920354
-0.00906252
-0.00777096
-0.0127212
-0.00633203
-0.00503698
-0.00489838
-0.00407428
-0.00399552
-0.00334435
-0.00328335
-0.00276849
-0.00272053
-0.00231742
-0.00228004
-0.00196772
-0.00193874
-0.00169733
-0.00167345
-0.00145992
-0.00143614
-0.0011952
-0.001169
-0.000905591
-0.000880217
-0.000660008
-0.000630291
-0.000278099
-0.000248125
-1.51234e-05
-2.69551e-06
-6.07394e-07
-4.42291e-05
5.20938
-0.530295
-0.25074
-0.214047
-0.210524
-0.209709
-0.211382
-0.213858
-0.224668
-0.343789
-0.211287
-0.181869
-0.174915
-0.160461
-0.156429
-0.142475
-0.138648
-0.12522
-0.121594
-0.109068
-0.105723
-0.0943072
-0.0912819
-0.0810485
-0.0783518
-0.0692887
-0.0669102
-0.0589562
-0.0568755
-0.0499442
-0.0481359
-0.0421309
-0.040568
-0.0353921
-0.0340478
-0.0296077
-0.0284569
-0.0246655
-0.023685
-0.0204629
-0.0196315
-0.016907
-0.0162058
-0.0139145
-0.0133266
-0.0114122
-0.0109271
-0.0093579
-0.0090486
-0.0082336
-0.0117052
-0.00670987
-0.0052139
-0.00487181
-0.00414041
-0.00395683
-0.00339314
-0.00325192
-0.00280699
-0.00269601
-0.00234766
-0.00226115
-0.00199115
-0.00192404
-0.00171483
-0.00165947
-0.00147412
-0.00141906
-0.0012112
-0.00115066
-0.000924376
-0.00086557
-0.000672565
-0.000603932
-0.000304503
-0.00023559
-3.6547e-05
-7.67273e-06
-1.75841e-06
-4.46146e-05
5.19435
-0.491735
-0.267714
-0.21927
-0.211528
-0.210122
-0.211744
-0.215549
-0.231796
-0.323424
-0.218102
-0.184696
-0.174742
-0.161279
-0.155758
-0.1432
-0.137989
-0.125924
-0.120989
-0.109732
-0.105178
-0.0949167
-0.0907982
-0.081598
-0.0779264
-0.0697772
-0.066539
-0.0593863
-0.0565534
-0.0503199
-0.0478578
-0.0424572
-0.040329
-0.0356738
-0.0338435
-0.0298498
-0.0282829
-0.0248727
-0.0235376
-0.0206393
-0.0195073
-0.0170565
-0.0161016
-0.0140406
-0.0132401
-0.0115188
-0.0108592
-0.0094618
-0.00905485
-0.00852472
-0.0110278
-0.00694769
-0.00534464
-0.00486078
-0.0041846
-0.00393332
-0.00342501
-0.00323262
-0.00283212
-0.00268097
-0.00236741
-0.00224958
-0.00200646
-0.00191501
-0.00172615
-0.00165068
-0.0014831
-0.00140808
-0.00122129
-0.00113894
-0.000936455
-0.000856284
-0.000680143
-0.000586801
-0.000321684
-0.000228258
-5.11626e-05
-1.17309e-05
-2.73002e-06
-4.49423e-05
5.1838
-0.466644
-0.277664
-0.222864
-0.212277
-0.210414
-0.212017
-0.216741
-0.235907
-0.310936
-0.222038
-0.186583
-0.174708
-0.161778
-0.155367
-0.14363
-0.137603
-0.126342
-0.120635
-0.110127
-0.104861
-0.0952798
-0.0905171
-0.0819255
-0.0776796
-0.0700687
-0.0663237
-0.0596431
-0.0563668
-0.0505444
-0.0476968
-0.0426521
-0.0401908
-0.0358423
-0.0337253
-0.0299946
-0.0281824
-0.0249966
-0.0234525
-0.0207449
-0.0194356
-0.017146
-0.0160416
-0.0141161
-0.0131904
-0.0115827
-0.0108207
-0.00952599
-0.00906594
-0.00869443
-0.0106137
-0.00708636
-0.00543054
-0.00485739
-0.00421174
-0.00392005
-0.00344421
-0.00322161
-0.00284724
-0.0026724
-0.0023793
-0.00224299
-0.00201568
-0.00190986
-0.00173293
-0.00164555
-0.00148836
-0.00140156
-0.00122719
-0.00113201
-0.000943632
-0.000850829
-0.000684402
-0.000576536
-0.000331992
-0.000224271
-6.027e-05
-1.4571e-05
-3.43027e-06
-4.518e-05
5.17837
-0.454286
-0.282245
-0.224688
-0.212675
-0.210564
-0.212163
-0.217353
-0.237781
-0.305003
-0.223835
-0.187526
-0.174714
-0.162015
-0.155188
-0.143829
-0.137425
-0.126536
-0.120473
-0.110311
-0.104716
-0.0954492
-0.0903882
-0.0820784
-0.0775665
-0.0702049
-0.0662252
-0.059763
-0.0562815
-0.0506492
-0.0476233
-0.0427432
-0.0401277
-0.035921
-0.0336714
-0.0300624
-0.0281365
-0.0250546
-0.0234136
-0.0207943
-0.0194029
-0.0171879
-0.0160143
-0.0141515
-0.0131677
-0.0116127
-0.0108033
-0.00955667
-0.00907336
-0.00877239
-0.0104173
-0.00715007
-0.00547306
-0.00485683
-0.00422467
-0.0039141
-0.00345323
-0.00321663
-0.00285434
-0.00266853
-0.00238488
-0.00224002
-0.00202001
-0.00190753
-0.00173609
-0.00164319
-0.00149079
-0.00139853
-0.00122991
-0.0011288
-0.000946973
-0.000848308
-0.000686309
-0.000571731
-0.000336823
-0.000222531
-6.46431e-05
-1.60275e-05
-3.79626e-06
-4.53049e-05
5.17838
-0.454288
-0.282246
-0.224688
-0.212675
-0.210564
-0.212163
-0.217353
-0.237782
-0.305003
-0.223835
-0.187526
-0.174714
-0.162015
-0.155188
-0.143829
-0.137425
-0.126536
-0.120473
-0.110311
-0.104716
-0.0954492
-0.0903882
-0.0820785
-0.0775665
-0.0702049
-0.0662252
-0.059763
-0.0562815
-0.0506493
-0.0476233
-0.0427432
-0.0401277
-0.035921
-0.0336714
-0.0300624
-0.0281365
-0.0250546
-0.0234136
-0.0207943
-0.0194029
-0.0171879
-0.0160143
-0.0141515
-0.0131677
-0.0116127
-0.0108033
-0.00955667
-0.00907336
-0.00877239
-0.0104173
-0.00715007
-0.00547306
-0.00485683
-0.00422467
-0.0039141
-0.00345323
-0.00321663
-0.00285434
-0.00266853
-0.00238489
-0.00224002
-0.00202001
-0.00190753
-0.00173609
-0.00164319
-0.00149079
-0.00139853
-0.00122991
-0.0011288
-0.000946973
-0.000848308
-0.000686309
-0.000571731
-0.000336822
-0.00022253
-6.46429e-05
-1.60274e-05
-3.79624e-06
-4.53048e-05
5.18381
-0.466649
-0.277665
-0.222864
-0.212277
-0.210414
-0.212017
-0.216741
-0.235907
-0.310937
-0.222039
-0.186583
-0.174708
-0.161778
-0.155367
-0.14363
-0.137603
-0.126342
-0.120635
-0.110127
-0.104861
-0.0952799
-0.0905172
-0.0819256
-0.0776796
-0.0700688
-0.0663238
-0.0596431
-0.0563668
-0.0505444
-0.0476969
-0.0426521
-0.0401909
-0.0358423
-0.0337254
-0.0299946
-0.0281824
-0.0249966
-0.0234525
-0.0207449
-0.0194356
-0.017146
-0.0160417
-0.0141161
-0.0131904
-0.0115827
-0.0108207
-0.009526
-0.00906594
-0.00869443
-0.0106137
-0.00708636
-0.00543055
-0.00485739
-0.00421175
-0.00392005
-0.00344421
-0.00322161
-0.00284724
-0.00267241
-0.0023793
-0.00224299
-0.00201568
-0.00190986
-0.00173293
-0.00164555
-0.00148836
-0.00140157
-0.00122719
-0.00113201
-0.000943632
-0.000850829
-0.000684402
-0.000576536
-0.000331992
-0.00022427
-6.02696e-05
-1.45707e-05
-3.43019e-06
-4.51799e-05
5.19436
-0.491742
-0.267715
-0.21927
-0.211528
-0.210123
-0.211744
-0.215549
-0.231797
-0.323425
-0.218102
-0.184696
-0.174742
-0.161279
-0.155758
-0.1432
-0.137989
-0.125924
-0.120989
-0.109732
-0.105178
-0.0949168
-0.0907983
-0.081598
-0.0779265
-0.0697773
-0.066539
-0.0593863
-0.0565534
-0.05032
-0.0478578
-0.0424572
-0.0403291
-0.0356739
-0.0338435
-0.0298498
-0.0282829
-0.0248727
-0.0235376
-0.0206393
-0.0195073
-0.0170565
-0.0161017
-0.0140406
-0.0132401
-0.0115188
-0.0108592
-0.00946181
-0.00905486
-0.00852473
-0.0110278
-0.00694769
-0.00534464
-0.00486078
-0.0041846
-0.00393332
-0.00342501
-0.00323262
-0.00283212
-0.00268098
-0.00236741
-0.00224958
-0.00200646
-0.00191501
-0.00172615
-0.00165068
-0.0014831
-0.00140808
-0.00122129
-0.00113894
-0.000936455
-0.000856284
-0.000680143
-0.000586801
-0.000321683
-0.000228258
-5.11621e-05
-1.17306e-05
-2.72992e-06
-4.49421e-05
5.20939
-0.530301
-0.250741
-0.214047
-0.210524
-0.209709
-0.211383
-0.213858
-0.224669
-0.343789
-0.211287
-0.181869
-0.174915
-0.160461
-0.156429
-0.142475
-0.138648
-0.12522
-0.121594
-0.109068
-0.105723
-0.0943072
-0.091282
-0.0810486
-0.0783518
-0.0692887
-0.0669103
-0.0589562
-0.0568756
-0.0499442
-0.0481359
-0.042131
-0.040568
-0.0353921
-0.0340478
-0.0296077
-0.0284569
-0.0246655
-0.023685
-0.0204629
-0.0196315
-0.016907
-0.0162058
-0.0139145
-0.0133266
-0.0114122
-0.0109271
-0.00935791
-0.00904861
-0.00823361
-0.0117052
-0.00670987
-0.00521391
-0.00487181
-0.00414041
-0.00395683
-0.00339314
-0.00325193
-0.00280699
-0.00269602
-0.00234766
-0.00226115
-0.00199116
-0.00192404
-0.00171483
-0.00165947
-0.00147412
-0.00141906
-0.0012112
-0.00115066
-0.000924376
-0.00086557
-0.000672565
-0.000603931
-0.000304503
-0.000235589
-3.65465e-05
-7.67243e-06
-1.75834e-06
-4.46145e-05
5.22774
-0.583386
-0.224051
-0.207496
-0.209411
-0.209194
-0.210988
-0.211833
-0.213207
-0.374217
-0.200348
-0.178143
-0.175387
-0.159226
-0.157497
-0.141345
-0.13969
-0.124123
-0.122555
-0.108037
-0.10659
-0.0933615
-0.0920535
-0.0801973
-0.0790314
-0.0685324
-0.0675042
-0.0582909
-0.0573914
-0.0493633
-0.0485816
-0.0416268
-0.0409512
-0.0349569
-0.0343758
-0.0292338
-0.0287363
-0.0243457
-0.0239219
-0.0201907
-0.0198314
-0.0166765
-0.0163734
-0.0137202
-0.0134661
-0.0112485
-0.0110383
-0.00920355
-0.00906252
-0.00777097
-0.0127212
-0.00633203
-0.00503698
-0.00489839
-0.00407428
-0.00399552
-0.00334435
-0.00328335
-0.00276849
-0.00272053
-0.00231742
-0.00228005
-0.00196772
-0.00193874
-0.00169733
-0.00167345
-0.00145992
-0.00143614
-0.0011952
-0.001169
-0.000905591
-0.000880217
-0.000660008
-0.00063029
-0.000278099
-0.000248125
-1.51233e-05
-2.6954e-06
-6.07369e-07
-4.4229e-05
5.21436
-0.583758
-0.223922
-0.207338
-0.209153
-0.208928
-0.21066
-0.211497
-0.212812
-0.373471
-0.199919
-0.177711
-0.174956
-0.158788
-0.157059
-0.14091
-0.139256
-0.123698
-0.122132
-0.10763
-0.106185
-0.0929769
-0.0916713
-0.079839
-0.0786757
-0.0682027
-0.0671772
-0.0579909
-0.0570943
-0.0490934
-0.0483145
-0.0413865
-0.0407136
-0.034745
-0.0341665
-0.0290486
-0.0285536
-0.0241855
-0.0237639
-0.0200532
-0.0196959
-0.0165595
-0.0162582
-0.0136215
-0.013369
-0.0111658
-0.010957
-0.00913467
-0.00899459
-0.00771193
-0.0126241
-0.00628337
-0.00499796
-0.00486041
-0.00404255
-0.00396439
-0.00331827
-0.00325775
-0.00274698
-0.00269942
-0.00229964
-0.00226258
-0.001953
-0.00192428
-0.00168523
-0.00166159
-0.00145043
-0.00142689
-0.0011883
-0.00116232
-0.00090084
-0.000875657
-0.00065717
-0.000627622
-0.000276961
-0.000247114
-1.50616e-05
-2.68447e-06
-6.04906e-07
-4.40306e-05
5.196
-0.530612
-0.25065
-0.21389
-0.210275
-0.209439
-0.211058
-0.213514
-0.224253
-0.343104
-0.210835
-0.181434
-0.174482
-0.160024
-0.155992
-0.14204
-0.138214
-0.124795
-0.121172
-0.10866
-0.105319
-0.0939213
-0.0909014
-0.0806887
-0.0779979
-0.0689572
-0.0665851
-0.0586544
-0.0565803
-0.0496724
-0.0478706
-0.0418887
-0.0403321
-0.0351784
-0.0338401
-0.0294208
-0.0282757
-0.0245036
-0.0235283
-0.0203239
-0.0194973
-0.0167887
-0.0160917
-0.0138147
-0.0132305
-0.0113285
-0.0108466
-0.00928798
-0.00898072
-0.00817109
-0.0116158
-0.00665834
-0.00517356
-0.00483404
-0.00410818
-0.003926
-0.00336668
-0.00322657
-0.00278518
-0.00267511
-0.00232963
-0.00224385
-0.00197623
-0.00190973
-0.00170256
-0.00164777
-0.00146447
-0.00140997
-0.00120413
-0.0011441
-0.000919486
-0.000861122
-0.000669604
-0.000601361
-0.000303245
-0.000234628
-3.63974e-05
-7.6413e-06
-1.75121e-06
-4.44146e-05
5.18097
-0.492011
-0.267649
-0.219115
-0.211285
-0.209851
-0.211422
-0.215199
-0.231368
-0.32278
-0.217636
-0.184258
-0.174308
-0.160843
-0.155321
-0.142765
-0.137556
-0.125498
-0.120568
-0.109323
-0.104776
-0.09453
-0.0904188
-0.0812371
-0.0775737
-0.0694447
-0.0662151
-0.0590833
-0.0562593
-0.050047
-0.0475937
-0.0422138
-0.0400942
-0.0354589
-0.0336367
-0.0296619
-0.0281026
-0.0247098
-0.0233817
-0.0204994
-0.0193738
-0.0169374
-0.0159883
-0.01394
-0.0131446
-0.0114344
-0.0107791
-0.00939117
-0.0089869
-0.00846003
-0.0109436
-0.00689435
-0.00530332
-0.0048231
-0.00415204
-0.00390268
-0.00339831
-0.00320743
-0.00281011
-0.00266019
-0.00234922
-0.00223239
-0.00199141
-0.0019008
-0.00171378
-0.00163908
-0.00147334
-0.0013991
-0.00121411
-0.00113246
-0.000931476
-0.000851907
-0.000677102
-0.000584291
-0.000320347
-0.000227324
-5.09531e-05
-1.16829e-05
-2.71883e-06
-4.47409e-05
5.17041
-0.466893
-0.277614
-0.222711
-0.212038
-0.210141
-0.211696
-0.216387
-0.235471
-0.310317
-0.221564
-0.186143
-0.174274
-0.161342
-0.15493
-0.143195
-0.13717
-0.125916
-0.120215
-0.109718
-0.104459
-0.0948926
-0.0901384
-0.0815641
-0.0773276
-0.0697355
-0.0660006
-0.0593394
-0.0560735
-0.0502707
-0.0474334
-0.042408
-0.0399567
-0.0356267
-0.0335192
-0.029806
-0.0280027
-0.0248331
-0.0232971
-0.0206045
-0.0193026
-0.0170264
-0.0159286
-0.014015
-0.0130951
-0.0114979
-0.0107409
-0.00945492
-0.00899788
-0.00862847
-0.0105327
-0.00703197
-0.00538858
-0.00481974
-0.00417898
-0.00388952
-0.00341736
-0.00319651
-0.00282512
-0.0026517
-0.00236101
-0.00222586
-0.00200055
-0.00189571
-0.00172049
-0.00163401
-0.00147854
-0.00139264
-0.00121995
-0.00112557
-0.0009386
-0.000846492
-0.000681313
-0.000574061
-0.000330608
-0.000223351
-6.0023e-05
-1.45113e-05
-3.41622e-06
-4.49777e-05
5.16499
-0.454523
-0.282202
-0.224535
-0.212438
-0.210291
-0.211842
-0.216997
-0.237342
-0.304396
-0.223357
-0.187084
-0.17428
-0.161579
-0.154751
-0.143394
-0.136993
-0.126111
-0.120052
-0.109902
-0.104314
-0.0950618
-0.0900098
-0.0817167
-0.0772148
-0.0698714
-0.0659024
-0.0594591
-0.0559884
-0.0503753
-0.0473602
-0.0424988
-0.0398938
-0.0357051
-0.0334656
-0.0298735
-0.027957
-0.0248908
-0.0232585
-0.0206536
-0.0192701
-0.017068
-0.0159015
-0.0140502
-0.0130726
-0.0115277
-0.0107237
-0.00948539
-0.00900524
-0.00870585
-0.0103378
-0.0070952
-0.00543078
-0.00481918
-0.00419181
-0.00388361
-0.00342632
-0.00319157
-0.00283216
-0.00264786
-0.00236655
-0.00222292
-0.00200485
-0.0018934
-0.00172363
-0.00163169
-0.00148094
-0.00138963
-0.00122263
-0.00112238
-0.000941916
-0.00084399
-0.000683198
-0.000569272
-0.000335416
-0.000221617
-6.43781e-05
-1.59618e-05
-3.78071e-06
-4.5102e-05
5.16499
-0.454525
-0.282202
-0.224535
-0.212439
-0.210291
-0.211842
-0.216997
-0.237342
-0.304396
-0.223357
-0.187084
-0.17428
-0.161579
-0.154751
-0.143394
-0.136993
-0.126111
-0.120052
-0.109902
-0.104314
-0.0950618
-0.0900098
-0.0817167
-0.0772148
-0.0698714
-0.0659024
-0.0594591
-0.0559885
-0.0503753
-0.0473602
-0.0424988
-0.0398938
-0.0357051
-0.0334656
-0.0298735
-0.027957
-0.0248908
-0.0232585
-0.0206536
-0.0192701
-0.0170681
-0.0159015
-0.0140502
-0.0130726
-0.0115277
-0.0107237
-0.00948539
-0.00900525
-0.00870585
-0.0103378
-0.0070952
-0.00543078
-0.00481918
-0.00419181
-0.00388361
-0.00342632
-0.00319157
-0.00283216
-0.00264786
-0.00236655
-0.00222292
-0.00200485
-0.0018934
-0.00172363
-0.00163169
-0.00148094
-0.00138963
-0.00122263
-0.00112238
-0.000941916
-0.00084399
-0.000683197
-0.000569272
-0.000335416
-0.000221617
-6.43779e-05
-1.59617e-05
-3.78068e-06
-4.51019e-05
5.17042
-0.466898
-0.277614
-0.222711
-0.212039
-0.210141
-0.211696
-0.216387
-0.235471
-0.310317
-0.221564
-0.186143
-0.174274
-0.161342
-0.15493
-0.143195
-0.13717
-0.125916
-0.120215
-0.109718
-0.104459
-0.0948927
-0.0901384
-0.0815641
-0.0773276
-0.0697356
-0.0660006
-0.0593395
-0.0560735
-0.0502707
-0.0474334
-0.042408
-0.0399567
-0.0356267
-0.0335192
-0.029806
-0.0280027
-0.0248331
-0.0232972
-0.0206045
-0.0193026
-0.0170264
-0.0159287
-0.0140151
-0.0130951
-0.0114979
-0.0107409
-0.00945493
-0.00899789
-0.00862847
-0.0105327
-0.00703197
-0.00538858
-0.00481974
-0.00417898
-0.00388952
-0.00341737
-0.00319651
-0.00282512
-0.0026517
-0.00236101
-0.00222587
-0.00200055
-0.00189571
-0.00172049
-0.00163402
-0.00147855
-0.00139264
-0.00121995
-0.00112557
-0.0009386
-0.000846492
-0.000681313
-0.000574061
-0.000330608
-0.00022335
-6.00226e-05
-1.4511e-05
-3.41614e-06
-4.49775e-05
5.18098
-0.492017
-0.26765
-0.219115
-0.211286
-0.209851
-0.211422
-0.215199
-0.231368
-0.322781
-0.217636
-0.184258
-0.174309
-0.160843
-0.155321
-0.142765
-0.137556
-0.125498
-0.120568
-0.109323
-0.104776
-0.0945301
-0.0904189
-0.0812371
-0.0775738
-0.0694447
-0.0662151
-0.0590834
-0.0562594
-0.050047
-0.0475937
-0.0422138
-0.0400943
-0.035459
-0.0336368
-0.0296619
-0.0281026
-0.0247098
-0.0233818
-0.0204994
-0.0193738
-0.0169374
-0.0159883
-0.01394
-0.0131446
-0.0114344
-0.0107791
-0.00939118
-0.00898691
-0.00846004
-0.0109436
-0.00689435
-0.00530332
-0.0048231
-0.00415204
-0.00390268
-0.00339831
-0.00320743
-0.00281011
-0.0026602
-0.00234922
-0.00223239
-0.00199141
-0.0019008
-0.00171378
-0.00163908
-0.00147334
-0.0013991
-0.00121411
-0.00113246
-0.000931477
-0.000851907
-0.000677102
-0.000584291
-0.000320347
-0.000227323
-5.09525e-05
-1.16825e-05
-2.71874e-06
-4.47407e-05
5.19601
-0.530617
-0.250651
-0.21389
-0.210276
-0.209439
-0.211058
-0.213514
-0.224253
-0.343104
-0.210835
-0.181434
-0.174483
-0.160024
-0.155992
-0.14204
-0.138214
-0.124795
-0.121172
-0.10866
-0.10532
-0.0939214
-0.0909015
-0.0806887
-0.0779979
-0.0689573
-0.0665852
-0.0586545
-0.0565803
-0.0496725
-0.0478707
-0.0418888
-0.0403321
-0.0351784
-0.0338401
-0.0294208
-0.0282757
-0.0245037
-0.0235283
-0.020324
-0.0194973
-0.0167888
-0.0160917
-0.0138147
-0.0132305
-0.0113285
-0.0108466
-0.00928799
-0.00898073
-0.0081711
-0.0116158
-0.00665834
-0.00517357
-0.00483405
-0.00410818
-0.00392601
-0.00336669
-0.00322658
-0.00278518
-0.00267511
-0.00232963
-0.00224385
-0.00197623
-0.00190974
-0.00170256
-0.00164777
-0.00146447
-0.00140997
-0.00120413
-0.0011441
-0.000919487
-0.000861122
-0.000669604
-0.000601361
-0.000303245
-0.000234627
-3.63969e-05
-7.64101e-06
-1.75113e-06
-4.44144e-05
5.21436
-0.58376
-0.223923
-0.207338
-0.209153
-0.208928
-0.21066
-0.211497
-0.212812
-0.373471
-0.199919
-0.177711
-0.174956
-0.158788
-0.15706
-0.14091
-0.139256
-0.123698
-0.122132
-0.10763
-0.106185
-0.092977
-0.0916713
-0.079839
-0.0786757
-0.0682027
-0.0671773
-0.057991
-0.0570943
-0.0490934
-0.0483145
-0.0413865
-0.0407136
-0.034745
-0.0341665
-0.0290486
-0.0285536
-0.0241855
-0.0237639
-0.0200532
-0.0196959
-0.0165595
-0.0162582
-0.0136215
-0.013369
-0.0111658
-0.010957
-0.00913468
-0.0089946
-0.00771193
-0.0126241
-0.00628337
-0.00499796
-0.00486041
-0.00404255
-0.00396439
-0.00331827
-0.00325775
-0.00274698
-0.00269942
-0.00229964
-0.00226258
-0.001953
-0.00192428
-0.00168523
-0.00166159
-0.00145043
-0.00142689
-0.0011883
-0.00116232
-0.000900841
-0.000875658
-0.00065717
-0.000627622
-0.000276961
-0.000247114
-1.50614e-05
-2.68436e-06
-6.04881e-07
-4.40305e-05
5.53545
-0.123765
-0.48343
-0.500755
-0.479904
-0.474729
-0.38424
-0.376826
-0.306107
-0.489556
-0.23746
-0.182176
-0.176404
-0.142422
-0.139206
-0.112989
-0.110531
-0.0897978
-0.0878496
-0.0712987
-0.0697412
-0.0564749
-0.0552261
-0.0445828
-0.0435815
-0.035052
-0.0342504
-0.0274316
-0.0267917
-0.0213587
-0.0208497
-0.0165377
-0.0161345
-0.012727
-0.012409
-0.00972891
-0.00947933
-0.00738191
-0.00718704
-0.00555449
-0.00540319
-0.00413993
-0.00402318
-0.00305202
-0.00296256
-0.00222153
-0.00215372
-0.00159403
-0.00154708
-0.00115583
-0.00175481
-0.000796518
-0.000528988
-0.000502366
-0.00034099
-0.000326501
-0.000215921
-0.000206252
-0.000132427
-0.000126069
-7.8584e-05
-7.45518e-05
-4.51799e-05
-4.27175e-05
-2.52133e-05
-2.37617e-05
-1.36678e-05
-1.28379e-05
-7.17396e-06
-6.71101e-06
-3.59807e-06
-3.33849e-06
-1.52944e-06
-1.38285e-06
-4.02749e-07
-3.34429e-07
-2.14563e-08
-3.90952e-09
-8.84432e-10
3.10192e-08
5.52101
-0.150287
-0.45118
-0.49099
-0.478341
-0.466855
-0.391079
-0.374691
-0.325124
-0.450791
-0.252237
-0.189531
-0.175323
-0.145163
-0.137666
-0.114955
-0.109264
-0.0913399
-0.0868308
-0.0725272
-0.0689227
-0.0574591
-0.0545692
-0.0453725
-0.0430553
-0.0356853
-0.0338302
-0.0279384
-0.0264576
-0.021763
-0.0205851
-0.016859
-0.0159258
-0.0129812
-0.0122453
-0.00992915
-0.00935154
-0.00753887
-0.00708787
-0.00567687
-0.0053267
-0.00423481
-0.00396458
-0.00312512
-0.00291806
-0.00227757
-0.00212075
-0.0016388
-0.00153221
-0.00123125
-0.00161752
-0.000849379
-0.000561558
-0.000496718
-0.000354198
-0.00032045
-0.000224586
-0.000202179
-0.000138242
-0.000123512
-8.23609e-05
-7.3016e-05
-4.75387e-05
-4.18295e-05
-2.66313e-05
-2.32641e-05
-1.44915e-05
-1.25657e-05
-7.63871e-06
-6.56393e-06
-3.85205e-06
-3.24944e-06
-1.678e-06
-1.33806e-06
-4.88369e-07
-3.29667e-07
-5.25509e-08
-1.11473e-08
-2.561e-09
3.04559e-08
5.50917
-0.167389
-0.429374
-0.483321
-0.476729
-0.461551
-0.39554
-0.373881
-0.337131
-0.424993
-0.261578
-0.194945
-0.17488
-0.146997
-0.136734
-0.11624
-0.108485
-0.0923447
-0.0862032
-0.0733273
-0.0684181
-0.0581
-0.0541641
-0.0458868
-0.0427309