/*--------------------------------*- C++ -*----------------------------------*\
| =========                 |                                                 |
| \\      /  F ield         | OpenFOAM: The Open Source CFD Toolbox           |
|  \\    /   O peration     | Version:  5.x                                   |
|   \\  /    A nd           | Web:      www.OpenFOAM.org                      |
|    \\/     M anipulation  |                                                 |
\*---------------------------------------------------------------------------*/
FoamFile
{
    version     2.0;
    format      ascii;
    class       volScalarField;
    location    "1.4";
    object      T;
}
// * * * * * * * * * * * * * * * * * * * * * * * * * * * * * * * * * * * * * //

dimensions      [0 0 0 1 0 0 0];

internalField   nonuniform List<scalar> 
3200
(
0.281643
0.27212
0.269286
0.223783
0.219215
0.175791
0.17174
0.137361
0.134051
0.106741
0.0850788
0.0829858
0.0668516
0.0653358
0.0525997
0.0514056
0.0412914
0.040343
0.0323026
0.031549
0.0251642
0.0245665
0.0195088
0.019036
0.0150433
0.0146707
0.0115317
0.0112394
0.00878285
0.00855459
0.00664207
0.00646478
0.00498412
0.00484721
0.00370791
0.00360286
0.00273212
0.00265209
0.00199157
0.00193108
0.00143424
0.00138892
0.00101877
0.000985158
0.000712426
0.000687788
0.000489406
0.000471572
0.000329357
0.000316236
0.00021329
0.000140012
0.000133296
8.68797e-05
8.28368e-05
5.2626e-05
5.00382e-05
3.0933e-05
2.93164e-05
1.76264e-05
1.66484e-05
9.72868e-06
9.15581e-06
5.18726e-06
4.86183e-06
2.65244e-06
2.47291e-06
1.27814e-06
1.18204e-06
5.56729e-07
5.07178e-07
1.94924e-07
1.71477e-07
4.11508e-08
3.24452e-08
6.63958e-10
-1.17258e-09
-1.49294e-09
-1.56559e-09
-1.58185e-09
0.280401
0.271918
0.26539
0.226807
0.216296
0.178972
0.169607
0.139858
0.132132
0.107337
0.0870376
0.082103
0.0680748
0.064561
0.0535489
0.0507848
0.0420439
0.0398491
0.0329008
0.031157
0.0256395
0.0242563
0.0198857
0.0187916
0.0153412
0.014479
0.0117662
0.0110897
0.00896667
0.00843839
0.00678542
0.0063751
0.00509529
0.00477844
0.00379362
0.0035505
0.00279777
0.00261253
0.0020415
0.00190147
0.0014719
0.00136698
0.00104691
0.000969096
0.000733231
0.000676191
0.000504589
0.000463284
0.000340047
0.00030944
0.000216408
0.000147003
0.000131106
9.0601e-05
8.12141e-05
5.50211e-05
4.90233e-05
3.24579e-05
2.87106e-05
1.85672e-05
1.62995e-05
1.02901e-05
8.9612e-06
5.51167e-06
4.75647e-06
2.83435e-06
2.41757e-06
1.37726e-06
1.15408e-06
6.09127e-07
4.94013e-07
2.2178e-07
1.67267e-07
5.3067e-08
3.27384e-08
3.97118e-09
-4.01227e-10
-1.31154e-09
-1.52182e-09
-1.56899e-09
0.279498
0.271637
0.262775
0.228707
0.214447
0.181034
0.16829
0.141474
0.130895
0.107752
0.0883813
0.0815835
0.068877
0.0640858
0.0541677
0.0504029
0.0425343
0.039545
0.0332907
0.0309158
0.0259494
0.0240655
0.0201314
0.0186414
0.0155355
0.0143613
0.0119192
0.0109978
0.00908664
0.00836714
0.00687902
0.00632015
0.00516792
0.00473635
0.00384964
0.00351849
0.0028407
0.00258839
0.00207416
0.00188342
0.00149655
0.00135364
0.00106535
0.00095935
0.000746879
0.000669173
0.000514556
0.000458271
0.000347029
0.000305139
0.00021858
0.000151854
0.000129899
9.30769e-05
8.02632e-05
5.66079e-05
4.84307e-05
3.34698e-05
2.83604e-05
1.91928e-05
1.61001e-05
1.06642e-05
8.85134e-06
5.72826e-06
4.69775e-06
2.95602e-06
2.38716e-06
1.44368e-06
1.13898e-06
6.44324e-07
4.87128e-07
2.39925e-07
1.65444e-07
6.12273e-08
3.33685e-08
6.30227e-09
2.3146e-10
-1.15825e-09
-1.48463e-09
-1.55806e-09
0.278908
0.271394
0.261167
0.229813
0.213364
0.182267
0.167533
0.142439
0.130159
0.108015
0.0892212
0.0812995
0.069362
0.0638151
0.0545399
0.0501846
0.0428291
0.0393712
0.0335251
0.0307779
0.0261357
0.0239565
0.0202792
0.0185556
0.0156524
0.014294
0.0120113
0.0109454
0.00915885
0.00832654
0.00693537
0.00628888
0.00521167
0.00471242
0.0038834
0.00350031
0.00286659
0.0025747
0.00209387
0.00187321
0.00151143
0.00134609
0.00107649
0.000953852
0.000755127
0.000665223
0.000520584
0.000455451
0.000351234
0.000302622
0.000219956
0.000154911
0.000129286
9.45913e-05
7.97449e-05
5.75748e-05
4.8109e-05
3.40872e-05
2.81722e-05
1.95752e-05
1.59942e-05
1.08932e-05
8.79378e-06
5.86106e-06
4.66743e-06
3.03074e-06
2.3717e-06
1.48454e-06
1.13147e-06
6.66013e-07
4.83837e-07
2.51156e-07
1.64807e-07
6.63315e-08
3.39659e-08
7.793e-09
6.76624e-10
-1.04763e-09
-1.45765e-09
-1.55012e-09
0.278616
0.271258
0.260401
0.230321
0.212864
0.182844
0.167189
0.14289
0.129817
0.108142
0.0896252
0.0811752
0.0695904
0.0636928
0.0547147
0.0500857
0.0429674
0.0392925
0.0336351
0.0307154
0.0262231
0.0239072
0.0203486
0.0185167
0.0157072
0.0142636
0.0120545
0.0109218
0.00919276
0.00830819
0.00696185
0.00627475
0.00523222
0.00470162
0.00389927
0.00349212
0.00287876
0.00256853
0.00210313
0.00186861
0.00151843
0.0013427
0.00108173
0.000951385
0.000759012
0.000663455
0.000523424
0.000454188
0.000353209
0.000301463
0.000220624
0.000156389
0.000129033
9.53102e-05
7.95184e-05
5.80327e-05
4.79688e-05
3.43798e-05
2.80908e-05
1.97566e-05
1.59489e-05
1.1002e-05
8.76942e-06
5.9242e-06
4.65475e-06
3.0663e-06
2.36533e-06
1.50399e-06
1.12843e-06
6.76358e-07
4.82557e-07
2.56528e-07
1.64651e-07
6.87892e-08
3.43144e-08
8.52081e-09
9.05755e-10
-9.89765e-10
-1.44348e-09
-1.54595e-09
0.278616
0.271258
0.260401
0.230321
0.212864
0.182844
0.16719
0.14289
0.129817
0.108142
0.0896252
0.0811752
0.0695904
0.0636928
0.0547147
0.0500857
0.0429674
0.0392925
0.0336351
0.0307154
0.0262231
0.0239072
0.0203486
0.0185167
0.0157072
0.0142636
0.0120545
0.0109218
0.00919276
0.00830819
0.00696185
0.00627475
0.00523222
0.00470162
0.00389927
0.00349212
0.00287876
0.00256853
0.00210313
0.00186861
0.00151843
0.0013427
0.00108173
0.000951385
0.000759012
0.000663454
0.000523424
0.000454188
0.000353209
0.000301463
0.000220624
0.000156389
0.000129033
9.53101e-05
7.95184e-05
5.80327e-05
4.79687e-05
3.43798e-05
2.80908e-05
1.97566e-05
1.59489e-05
1.1002e-05
8.76942e-06
5.9242e-06
4.65474e-06
3.06629e-06
2.36532e-06
1.50399e-06
1.12842e-06
6.76357e-07
4.82557e-07
2.56528e-07
1.64651e-07
6.8789e-08
3.43143e-08
8.52076e-09
9.05727e-10
-9.89778e-10
-1.44349e-09
-1.54596e-09
0.278908
0.271395
0.261167
0.229814
0.213364
0.182267
0.167533
0.142439
0.130159
0.108015
0.0892213
0.0812995
0.069362
0.0638151
0.0545399
0.0501846
0.0428291
0.0393712
0.0335251
0.0307779
0.0261357
0.0239566
0.0202792
0.0185556
0.0156524
0.014294
0.0120113
0.0109455
0.00915885
0.00832654
0.00693537
0.00628888
0.00521167
0.00471242
0.0038834
0.00350031
0.00286659
0.0025747
0.00209387
0.00187321
0.00151143
0.00134609
0.00107649
0.000953852
0.000755127
0.000665223
0.000520584
0.000455451
0.000351234
0.000302622
0.000219956
0.000154911
0.000129286
9.45912e-05
7.97449e-05
5.75748e-05
4.8109e-05
3.40872e-05
2.81722e-05
1.95752e-05
1.59942e-05
1.08932e-05
8.79377e-06
5.86105e-06
4.66742e-06
3.03074e-06
2.3717e-06
1.48453e-06
1.13146e-06
6.66012e-07
4.83836e-07
2.51155e-07
1.64806e-07
6.63311e-08
3.39657e-08
7.79286e-09
6.76549e-10
-1.04766e-09
-1.45766e-09
-1.55014e-09
0.279499
0.271638
0.262775
0.228708
0.214448
0.181034
0.16829
0.141474
0.130895
0.107752
0.0883814
0.0815835
0.0688771
0.0640859
0.0541678
0.0504029
0.0425343
0.0395451
0.0332907
0.0309158
0.0259494
0.0240656
0.0201315
0.0186414
0.0155355
0.0143613
0.0119192
0.0109978
0.00908664
0.00836714
0.00687902
0.00632015
0.00516792
0.00473635
0.00384964
0.00351849
0.0028407
0.00258839
0.00207416
0.00188342
0.00149655
0.00135364
0.00106535
0.00095935
0.000746879
0.000669173
0.000514556
0.000458271
0.000347029
0.000305139
0.00021858
0.000151854
0.000129899
9.30768e-05
8.02631e-05
5.66078e-05
4.84307e-05
3.34698e-05
2.83604e-05
1.91928e-05
1.61001e-05
1.06642e-05
8.85133e-06
5.72825e-06
4.69775e-06
2.95602e-06
2.38715e-06
1.44368e-06
1.13898e-06
6.44323e-07
4.87127e-07
2.39924e-07
1.65443e-07
6.12268e-08
3.33682e-08
6.30209e-09
2.31365e-10
-1.15829e-09
-1.48465e-09
-1.55808e-09
0.280402
0.271919
0.26539
0.226807
0.216296
0.178972
0.169608
0.139858
0.132132
0.107337
0.0870377
0.082103
0.0680749
0.0645611
0.0535489
0.0507848
0.0420439
0.0398491
0.0329008
0.031157
0.0256396
0.0242563
0.0198857
0.0187916
0.0153412
0.014479
0.0117662
0.0110897
0.00896667
0.0084384
0.00678542
0.0063751
0.0050953
0.00477844
0.00379362
0.0035505
0.00279777
0.00261253
0.0020415
0.00190147
0.0014719
0.00136698
0.00104691
0.000969096
0.000733232
0.000676191
0.000504589
0.000463284
0.000340047
0.00030944
0.000216408
0.000147003
0.000131106
9.0601e-05
8.12141e-05
5.5021e-05
4.90233e-05
3.24579e-05
2.87106e-05
1.85672e-05
1.62995e-05
1.02901e-05
8.96119e-06
5.51166e-06
4.75647e-06
2.83435e-06
2.41757e-06
1.37726e-06
1.15408e-06
6.09125e-07
4.94012e-07
2.21779e-07
1.67267e-07
5.30666e-08
3.27382e-08
3.97103e-09
-4.01308e-10
-1.31158e-09
-1.52183e-09
-1.56901e-09
0.281643
0.27212
0.269286
0.223783
0.219215
0.175791
0.17174
0.137361
0.134051
0.106741
0.0850789
0.0829858
0.0668516
0.0653358
0.0525998
0.0514056
0.0412914
0.040343
0.0323026
0.031549
0.0251642
0.0245665
0.0195088
0.019036
0.0150433
0.0146708
0.0115317
0.0112394
0.00878285
0.00855459
0.00664207
0.00646478
0.00498412
0.00484721
0.00370791
0.00360287
0.00273212
0.00265209
0.00199158
0.00193108
0.00143424
0.00138892
0.00101877
0.000985158
0.000712426
0.000687788
0.000489406
0.000471572
0.000329357
0.000316236
0.00021329
0.000140012
0.000133296
8.68796e-05
8.28368e-05
5.2626e-05
5.00382e-05
3.0933e-05
2.93164e-05
1.76264e-05
1.66484e-05
9.72868e-06
9.15581e-06
5.18726e-06
4.86183e-06
2.65243e-06
2.47291e-06
1.27814e-06
1.18204e-06
5.56729e-07
5.07178e-07
1.94923e-07
1.71477e-07
4.11506e-08
3.24451e-08
6.63899e-10
-1.17261e-09
-1.49295e-09
-1.56559e-09
-1.58186e-09
0.288723
0.234051
0.230384
0.211646
0.209635
0.190704
0.188715
0.169606
0.167532
0.148285
0.13011
0.12825
0.112296
0.110712
0.0963734
0.0949618
0.0822389
0.0809928
0.0698266
0.0687373
0.0590229
0.0580783
0.0496868
0.048873
0.0416671
0.0409698
0.0348138
0.0342194
0.0289847
0.0284803
0.0240484
0.0236221
0.0198857
0.019527
0.0163901
0.0160894
0.0134667
0.0132158
0.0110321
0.0108236
0.00901303
0.00884047
0.00734539
0.00720313
0.00597336
0.00585652
0.00484852
0.00475269
0.00392816
0.00384644
0.00315107
0.00257432
0.00251787
0.00207062
0.00202803
0.00166319
0.00162848
0.00132876
0.00130014
0.00105191
0.00102809
0.000820166
0.000800082
0.000623394
0.000606209
0.000453661
0.000438863
0.000307669
0.00029525
0.000188149
0.00017835
9.75897e-05
9.03281e-05
3.15889e-05
2.7299e-05
3.77899e-06
2.48655e-06
2.26664e-06
2.217e-06
2.2059e-06
0.282806
0.238132
0.229776
0.213058
0.208371
0.192006
0.187401
0.170868
0.166015
0.148401
0.131636
0.127272
0.113449
0.109781
0.0974028
0.0941378
0.0831553
0.080273
0.0706333
0.0681136
0.0597265
0.0575413
0.0502958
0.0484131
0.0421909
0.0405779
0.0352621
0.0338869
0.0293665
0.0281994
0.024372
0.0233858
0.0201589
0.019329
0.0166197
0.0159242
0.013659
0.0130785
0.0111924
0.01071
0.00914613
0.00874686
0.00745543
0.00712628
0.00606398
0.00579362
0.00492276
0.00470091
0.00398697
0.00379605
0.00316361
0.00262553
0.00249262
0.00210414
0.00200544
0.0016901
0.00160975
0.00135078
0.00128456
0.00107009
0.00101496
0.000835319
0.000788845
0.000636204
0.000596442
0.000464721
0.000430495
0.000317309
0.000288589
0.00019619
0.000173523
0.000103752
8.69663e-05
3.64955e-05
2.65731e-05
6.04517e-06
3.0141e-06
2.39048e-06
2.24683e-06
2.21464e-06
0.278675
0.24076
0.229501
0.213989
0.207574
0.192836
0.186562
0.171662
0.165007
0.148482
0.132665
0.126672
0.114195
0.109198
0.0980672
0.093622
0.0837472
0.0798231
0.0711549
0.0677242
0.0601817
0.0572064
0.05069
0.0481266
0.0425302
0.0403339
0.0355525
0.03368
0.0296139
0.0280247
0.0245819
0.0232389
0.0203362
0.019206
0.0167688
0.0158217
0.0137838
0.0129934
0.0112965
0.0106396
0.00923259
0.00868888
0.00752694
0.00707872
0.00612288
0.0057547
0.004971
0.00466879
0.00402482
0.0037633
0.00317235
0.00266052
0.00247758
0.00212605
0.0019915
0.00170759
0.00159817
0.00136509
0.00127491
0.00108188
0.00100681
0.00084514
0.00078185
0.000644494
0.000590349
0.000471879
0.000425282
0.000323569
0.000284473
0.000201439
0.00017058
0.000107794
8.49512e-05
3.97797e-05
2.62711e-05
7.61132e-06
3.44526e-06
2.49506e-06
2.27217e-06
2.22206e-06
0.276059
0.24232
0.229395
0.214554
0.207109
0.193326
0.186067
0.172125
0.164393
0.148534
0.1333
0.12633
0.114641
0.108859
0.0984634
0.0933225
0.0841005
0.0795623
0.0714663
0.0674987
0.0604536
0.0570126
0.0509256
0.0479609
0.0427331
0.040193
0.0357262
0.0335606
0.0297619
0.0279239
0.0247075
0.0231542
0.0204423
0.0191351
0.016858
0.0157626
0.0138586
0.0129444
0.0113589
0.0105991
0.00928442
0.00865555
0.00756982
0.00705139
0.00615821
0.00573235
0.00499993
0.00465028
0.00404733
0.00374369
0.00317789
0.00268232
0.00246926
0.00213927
0.00198352
0.00171809
0.00159151
0.00137367
0.00126935
0.00108895
0.00100211
0.000851016
0.00077781
0.000649448
0.000586824
0.000476156
0.000422269
0.000327319
0.000282112
0.0002046
0.000168911
0.000110237
8.38283e-05
4.17967e-05
2.61747e-05
8.59748e-06
3.74765e-06
2.57048e-06
2.29055e-06
2.22745e-06
0.274792
0.243046
0.229363
0.214821
0.206894
0.193554
0.185838
0.172337
0.164103
0.148559
0.133602
0.126176
0.11485
0.108704
0.0986483
0.0931854
0.0842654
0.0794429
0.0716118
0.0673956
0.0605807
0.0569241
0.0510358
0.0478852
0.042828
0.0401286
0.0358075
0.0335061
0.0298312
0.0278779
0.0247663
0.0231156
0.0204919
0.0191028
0.0168998
0.0157357
0.0138936
0.012922
0.0113881
0.0105807
0.0093087
0.00864039
0.00758991
0.00703896
0.00617476
0.00572219
0.00501349
0.00464185
0.00405782
0.00373452
0.00318058
0.00269279
0.00246558
0.00214548
0.00197989
0.00172301
0.00158848
0.00137769
0.00126682
0.00109225
0.000999968
0.000853766
0.000775966
0.000651764
0.000585212
0.000478155
0.000420893
0.000329076
0.00028104
0.000206085
0.00016816
0.000111387
8.33291e-05
4.27565e-05
2.6156e-05
9.07422e-06
3.90295e-06
2.60991e-06
2.3002e-06
2.23028e-06
0.274792
0.243046
0.229363
0.214821
0.206894
0.193554
0.185838
0.172337
0.164103
0.148559
0.133602
0.126176
0.11485
0.108704
0.0986483
0.0931854
0.0842654
0.0794429
0.0716118
0.0673956
0.0605807
0.0569241
0.0510358
0.0478853
0.042828
0.0401286
0.0358075
0.0335061
0.0298312
0.0278779
0.0247663
0.0231156
0.0204919
0.0191028
0.0168998
0.0157357
0.0138936
0.012922
0.0113881
0.0105807
0.0093087
0.00864039
0.00758991
0.00703896
0.00617476
0.00572219
0.00501349
0.00464185
0.00405782
0.00373452
0.00318058
0.00269279
0.00246558
0.00214548
0.00197989
0.00172301
0.00158848
0.00137769
0.00126682
0.00109225
0.000999968
0.000853766
0.000775966
0.000651764
0.000585212
0.000478155
0.000420893
0.000329076
0.00028104
0.000206085
0.00016816
0.000111387
8.3329e-05
4.27564e-05
2.6156e-05
9.0742e-06
3.90294e-06
2.6099e-06
2.3002e-06
2.23028e-06
0.27606
0.242321
0.229395
0.214554
0.207109
0.193326
0.186067
0.172125
0.164393
0.148534
0.1333
0.12633
0.114641
0.108859
0.0984635
0.0933226
0.0841005
0.0795623
0.0714663
0.0674988
0.0604537
0.0570126
0.0509257
0.0479609
0.0427331
0.040193
0.0357262
0.0335606
0.0297619
0.0279239
0.0247075
0.0231542
0.0204423
0.0191351
0.016858
0.0157626
0.0138586
0.0129444
0.0113589
0.0105991
0.00928443
0.00865555
0.00756982
0.00705139
0.00615821
0.00573235
0.00499993
0.00465029
0.00404734
0.00374369
0.00317789
0.00268232
0.00246926
0.00213927
0.00198352
0.00171809
0.00159151
0.00137367
0.00126935
0.00108895
0.00100211
0.000851017
0.00077781
0.000649449
0.000586824
0.000476156
0.000422269
0.000327319
0.000282112
0.0002046
0.000168911
0.000110237
8.38282e-05
4.17966e-05
2.61746e-05
8.59742e-06
3.74761e-06
2.57046e-06
2.29054e-06
2.22744e-06
0.278676
0.240761
0.229502
0.213989
0.207575
0.192836
0.186562
0.171662
0.165007
0.148482
0.132665
0.126672
0.114195
0.109198
0.0980673
0.093622
0.0837473
0.0798231
0.0711549
0.0677243
0.0601817
0.0572064
0.05069
0.0481266
0.0425302
0.0403339
0.0355525
0.03368
0.0296139
0.0280247
0.0245819
0.0232389
0.0203362
0.019206
0.0167688
0.0158217
0.0137838
0.0129934
0.0112965
0.0106396
0.0092326
0.00868889
0.00752694
0.00707872
0.00612288
0.00575471
0.004971
0.00466879
0.00402482
0.0037633
0.00317235
0.00266052
0.00247758
0.00212605
0.0019915
0.00170759
0.00159817
0.00136509
0.00127491
0.00108188
0.00100681
0.00084514
0.000781851
0.000644494
0.000590349
0.000471879
0.000425282
0.000323568
0.000284473
0.000201439
0.00017058
0.000107794
8.49511e-05
3.97796e-05
2.6271e-05
7.61125e-06
3.44522e-06
2.49504e-06
2.27216e-06
2.22205e-06
0.282806
0.238133
0.229776
0.213059
0.208372
0.192006
0.187401
0.170868
0.166015
0.148401
0.131636
0.127272
0.113449
0.109781
0.0974029
0.0941379
0.0831553
0.0802731
0.0706334
0.0681137
0.0597266
0.0575413
0.0502958
0.0484131
0.042191
0.040578
0.0352621
0.0338869
0.0293665
0.0281994
0.0243721
0.0233858
0.020159
0.019329
0.0166197
0.0159242
0.013659
0.0130785
0.0111924
0.01071
0.00914614
0.00874686
0.00745544
0.00712629
0.00606398
0.00579362
0.00492276
0.00470091
0.00398697
0.00379605
0.00316361
0.00262553
0.00249262
0.00210414
0.00200544
0.0016901
0.00160976
0.00135078
0.00128456
0.00107009
0.00101496
0.00083532
0.000788846
0.000636204
0.000596442
0.000464721
0.000430495
0.000317309
0.000288589
0.000196189
0.000173523
0.000103752
8.69662e-05
3.64954e-05
2.6573e-05
6.04511e-06
3.01406e-06
2.39046e-06
2.24682e-06
2.21463e-06
0.288723
0.234051
0.230384
0.211646
0.209635
0.190705
0.188715
0.169606
0.167532
0.148285
0.13011
0.12825
0.112296
0.110712
0.0963734
0.0949619
0.0822389
0.0809928
0.0698266
0.0687374
0.059023
0.0580783
0.0496868
0.048873
0.0416671
0.0409698
0.0348138
0.0342194
0.0289848
0.0284803
0.0240484
0.0236221
0.0198858
0.019527
0.0163901
0.0160894
0.0134667
0.0132158
0.0110321
0.0108236
0.00901304
0.00884047
0.00734539
0.00720313
0.00597337
0.00585653
0.00484852
0.00475269
0.00392817
0.00384644
0.00315107
0.00257432
0.00251787
0.00207062
0.00202803
0.00166319
0.00162848
0.00132876
0.00130014
0.00105191
0.00102809
0.000820166
0.000800082
0.000623394
0.000606209
0.000453661
0.000438863
0.000307669
0.00029525
0.000188149
0.00017835
9.75897e-05
9.03281e-05
3.15889e-05
2.7299e-05
3.77896e-06
2.48654e-06
2.26664e-06
2.217e-06
2.2059e-06
0.288072
0.233364
0.229696
0.210972
0.208963
0.190056
0.18807
0.16899
0.16692
0.147709
0.129573
0.127717
0.111802
0.110222
0.0959231
0.0945157
0.0818321
0.0805901
0.0694623
0.0683769
0.0586993
0.0577584
0.0494016
0.0485913
0.0414177
0.0407237
0.0345975
0.034006
0.0287984
0.0282966
0.023889
0.0234651
0.0197504
0.0193938
0.0162759
0.0159771
0.013371
0.0131218
0.0109525
0.0107454
0.00894716
0.00877579
0.00729121
0.00714996
0.00592905
0.00581306
0.00481248
0.00471736
0.00389901
0.0038179
0.00312781
0.00255549
0.00249948
0.0020557
0.00201344
0.00165144
0.001617
0.00131962
0.00129122
0.00104492
0.00102128
0.000814955
0.000795024
0.000619655
0.000602595
0.000451133
0.000436436
0.00030609
0.000293747
0.00018726
0.000177515
9.71758e-05
8.99492e-05
3.14587e-05
2.71869e-05
3.76265e-06
2.4755e-06
2.25649e-06
2.20706e-06
2.196e-06
0.282151
0.237449
0.22909
0.212384
0.207701
0.191356
0.186757
0.170251
0.165406
0.147825
0.131096
0.126742
0.112952
0.109294
0.0969498
0.0936943
0.0827458
0.0798729
0.0702663
0.0677557
0.0594003
0.0572237
0.0500082
0.0481336
0.0419393
0.0403338
0.0350436
0.0336753
0.0291782
0.0280172
0.0242109
0.0232302
0.020022
0.019197
0.0165042
0.015813
0.0135621
0.0129854
0.0111118
0.0106326
0.00907936
0.00868285
0.00740049
0.00707368
0.00601902
0.00575063
0.00488617
0.00466597
0.00395737
0.0037679
0.00314026
0.00260632
0.00247443
0.00208896
0.00199102
0.00167814
0.00159842
0.00134147
0.00127577
0.00106295
0.00100825
0.000829991
0.00078387
0.000632368
0.000592896
0.000462112
0.000428119
0.000315666
0.000287122
0.000195253
0.000172712
0.000103304
8.65998e-05
3.63441e-05
2.64637e-05
6.01956e-06
3.00089e-06
2.37982e-06
2.23676e-06
2.2047e-06
0.278018
0.240079
0.228817
0.213314
0.206906
0.192186
0.18592
0.171044
0.164401
0.147907
0.132122
0.126143
0.113697
0.108712
0.0976125
0.0931802
0.083336
0.0794246
0.0707862
0.0673678
0.0598538
0.0568903
0.0504008
0.0478484
0.0422771
0.040091
0.0353326
0.0334695
0.0294243
0.0278436
0.0244196
0.0230842
0.0201982
0.0190748
0.0166523
0.0157111
0.0136862
0.0129008
0.0112152
0.0105627
0.00916524
0.00862528
0.0074715
0.00702646
0.0060775
0.005712
0.00493406
0.00463409
0.00399494
0.0037354
0.00314894
0.00264104
0.00245951
0.0021107
0.0019772
0.0016955
0.00158693
0.00135567
0.00126618
0.00107466
0.00100016
0.000839736
0.000776926
0.000640595
0.000586846
0.000469217
0.000422938
0.000321883
0.000283028
0.000200472
0.000169782
0.000107324
8.45918e-05
3.9614e-05
2.61627e-05
7.57928e-06
3.43028e-06
2.48398e-06
2.262e-06
2.21209e-06
0.275401
0.24164
0.228712
0.213879
0.206441
0.192675
0.185427
0.171506
0.163788
0.147959
0.132756
0.125802
0.114142
0.108375
0.0980076
0.0928818
0.0836882
0.0791647
0.0710966
0.0671433
0.0601248
0.0566974
0.0506355
0.0476835
0.0424791
0.0399508
0.0355056
0.0333507
0.0295716
0.0277434
0.0245446
0.023
0.0203037
0.0190044
0.0167411
0.0156524
0.0137605
0.0128522
0.0112772
0.0105224
0.00921672
0.00859219
0.00751408
0.00699933
0.00611258
0.00568982
0.00496278
0.00461573
0.00401729
0.00371594
0.00315444
0.00266267
0.00245125
0.00212381
0.00196927
0.00170592
0.00158032
0.00136418
0.00126067
0.00108167
0.000995502
0.000845567
0.000772915
0.000645512
0.000583344
0.000473463
0.000419943
0.000325608
0.000280679
0.000203613
0.000168122
0.000109754
8.34726e-05
4.16222e-05
2.60665e-05
8.56138e-06
3.73143e-06
2.55909e-06
2.2803e-06
2.21746e-06
0.274133
0.242366
0.22868
0.214146
0.206227
0.192902
0.185198
0.171718
0.163498
0.147984
0.133058
0.125648
0.11435
0.10822
0.0981921
0.0927451
0.0838526
0.0790458
0.0712416
0.0670406
0.0602514
0.0566092
0.0507453
0.0476082
0.0425736
0.0398867
0.0355865
0.0332965
0.0296405
0.0276977
0.024603
0.0229616
0.0203531
0.0189723
0.0167826
0.0156257
0.0137953
0.01283
0.0113062
0.0105041
0.00924084
0.00857714
0.00753403
0.00698699
0.00612901
0.00567973
0.00497624
0.00460736
0.0040277
0.00370684
0.00315712
0.00267306
0.0024476
0.00212998
0.00196568
0.0017108
0.00157732
0.00136817
0.00125816
0.00108495
0.000993376
0.000848295
0.000771084
0.00064781
0.000581744
0.000475447
0.000418575
0.000327353
0.000279612
0.000205089
0.000167374
0.000110898
8.29749e-05
4.25778e-05
2.60478e-05
9.03616e-06
3.8861e-06
2.59836e-06
2.28992e-06
2.22028e-06
0.274133
0.242366
0.22868
0.214146
0.206227
0.192902
0.185198
0.171718
0.163498
0.147984
0.133058
0.125648
0.11435
0.10822
0.0981921
0.0927451
0.0838527
0.0790458
0.0712416
0.0670406
0.0602514
0.0566092
0.0507453
0.0476082
0.0425736
0.0398867
0.0355865
0.0332965
0.0296406
0.0276977
0.024603
0.0229616
0.0203531
0.0189723
0.0167826
0.0156257
0.0137953
0.01283
0.0113062
0.0105041
0.00924084
0.00857714
0.00753403
0.00698699
0.00612902
0.00567973
0.00497624
0.00460736
0.0040277
0.00370684
0.00315712
0.00267306
0.0024476
0.00212998
0.00196568
0.0017108
0.00157732
0.00136817
0.00125816
0.00108495
0.000993376
0.000848295
0.000771084
0.00064781
0.000581744
0.000475447
0.000418575
0.000327353
0.000279612
0.000205089
0.000167374
0.000110898
8.29749e-05
4.25778e-05
2.60478e-05
9.03614e-06
3.88609e-06
2.59835e-06
2.28991e-06
2.22028e-06
0.275402
0.241641
0.228712
0.213879
0.206441
0.192675
0.185427
0.171506
0.163788
0.147959
0.132756
0.125802
0.114142
0.108375
0.0980077
0.0928818
0.0836882
0.0791648
0.0710966
0.0671433
0.0601248
0.0566974
0.0506356
0.0476835
0.0424791
0.0399508
0.0355056
0.0333507
0.0295716
0.0277434
0.0245446
0.023
0.0203038
0.0190044
0.0167411
0.0156524
0.0137605
0.0128522
0.0112772
0.0105225
0.00921672
0.0085922
0.00751408
0.00699933
0.00611258
0.00568982
0.00496279
0.00461573
0.00401729
0.00371594
0.00315445
0.00266267
0.00245125
0.00212381
0.00196928
0.00170592
0.00158032
0.00136418
0.00126067
0.00108167
0.000995502
0.000845567
0.000772915
0.000645512
0.000583344
0.000473463
0.000419943
0.000325608
0.000280679
0.000203613
0.000168122
0.000109753
8.34725e-05
4.16221e-05
2.60664e-05
8.56133e-06
3.7314e-06
2.55907e-06
2.2803e-06
2.21745e-06
0.278019
0.240079
0.228817
0.213314
0.206906
0.192186
0.185921
0.171044
0.164401
0.147907
0.132123
0.126143
0.113697
0.108712
0.0976126
0.0931802
0.0833361
0.0794247
0.0707862
0.0673679
0.0598539
0.0568903
0.0504009
0.0478484
0.0422771
0.040091
0.0353327
0.0334695
0.0294243
0.0278436
0.0244196
0.0230842
0.0201983
0.0190748
0.0166524
0.0157111
0.0136862
0.0129008
0.0112152
0.0105627
0.00916524
0.00862529
0.0074715
0.00702646
0.0060775
0.00571201
0.00493406
0.00463409
0.00399495
0.0037354
0.00314894
0.00264104
0.00245951
0.0021107
0.0019772
0.0016955
0.00158693
0.00135567
0.00126618
0.00107466
0.00100017
0.000839736
0.000776926
0.000640595
0.000586846
0.000469217
0.000422938
0.000321883
0.000283028
0.000200472
0.000169782
0.000107324
8.45916e-05
3.96139e-05
2.61625e-05
7.57921e-06
3.43024e-06
2.48396e-06
2.26199e-06
2.21208e-06
0.282152
0.237449
0.22909
0.212384
0.207701
0.191357
0.186758
0.170251
0.165406
0.147825
0.131096
0.126742
0.112952
0.109294
0.0969499
0.0936944
0.0827458
0.0798729
0.0702664
0.0677557
0.0594004
0.0572238
0.0500082
0.0481336
0.0419394
0.0403338
0.0350436
0.0336753
0.0291782
0.0280173
0.0242109
0.0232302
0.0200221
0.019197
0.0165042
0.015813
0.0135621
0.0129854
0.0111118
0.0106326
0.00907937
0.00868285
0.00740049
0.00707368
0.00601903
0.00575063
0.00488617
0.00466597
0.00395737
0.0037679
0.00314026
0.00260632
0.00247443
0.00208896
0.00199102
0.00167814
0.00159842
0.00134147
0.00127577
0.00106295
0.00100826
0.000829992
0.00078387
0.000632368
0.000592896
0.000462112
0.000428119
0.000315666
0.000287122
0.000195253
0.000172712
0.000103304
8.65996e-05
3.6344e-05
2.64636e-05
6.0195e-06
3.00085e-06
2.3798e-06
2.23675e-06
2.20469e-06
0.288072
0.233364
0.229696
0.210972
0.208963
0.190056
0.18807
0.16899
0.16692
0.147709
0.129573
0.127717
0.111802
0.110222
0.0959231
0.0945157
0.0818321
0.0805901
0.0694623
0.068377
0.0586994
0.0577585
0.0494017
0.0485913
0.0414178
0.0407238
0.0345975
0.034006
0.0287984
0.0282966
0.023889
0.0234651
0.0197504
0.0193938
0.0162759
0.0159771
0.013371
0.0131218
0.0109525
0.0107454
0.00894716
0.00877579
0.00729121
0.00714997
0.00592906
0.00581306
0.00481248
0.00471736
0.00389901
0.0038179
0.00312782
0.0025555
0.00249948
0.0020557
0.00201344
0.00165144
0.001617
0.00131962
0.00129122
0.00104492
0.00102128
0.000814955
0.000795024
0.000619656
0.000602595
0.000451133
0.000436436
0.00030609
0.000293747
0.00018726
0.000177515
9.71757e-05
8.99491e-05
3.14587e-05
2.71869e-05
3.76263e-06
2.47549e-06
2.25649e-06
2.20705e-06
2.196e-06
0.281543
0.272002
0.269167
0.223659
0.219091
0.175669
0.171618
0.137245
0.133936
0.106634
0.0849801
0.082888
0.0667625
0.0652476
0.0525202
0.051327
0.0412213
0.0402738
0.0322416
0.0314889
0.0251117
0.0245147
0.0194642
0.0189921
0.0150059
0.014634
0.0115007
0.011209
0.00875754
0.00852978
0.00662167
0.00644481
0.0049679
0.00483136
0.0036952
0.00359046
0.00272231
0.00264252
0.00198412
0.00192382
0.00142867
0.0013835
0.00101467
0.000981184
0.000709472
0.000684928
0.00048732
0.000469556
0.000327916
0.000314849
0.000212333
0.000139368
0.000132681
8.64695e-05
8.24446e-05
5.23705e-05
4.97945e-05
3.07783e-05
2.91693e-05
1.75356e-05
1.65624e-05
9.67721e-06
9.10724e-06
5.15921e-06
4.83548e-06
2.63788e-06
2.45932e-06
1.2711e-06
1.17553e-06
5.53701e-07
5.04425e-07
1.93894e-07
1.70576e-07
4.09499e-08
3.2291e-08
6.75022e-10
-1.15192e-09
-1.47061e-09
-1.54287e-09
-1.55905e-09
0.2803
0.271802
0.265271
0.226684
0.216172
0.17885
0.169486
0.139742
0.132017
0.107229
0.0869382
0.0820058
0.0679851
0.0644734
0.0534688
0.0507068
0.0419732
0.0397804
0.0328392
0.0310974
0.0255865
0.0242051
0.0198406
0.0187482
0.0153034
0.0144427
0.0117348
0.0110596
0.008941
0.00841387
0.0067647
0.00635536
0.00507881
0.00476278
0.00378068
0.00353825
0.00278777
0.0026031
0.00203388
0.00189431
0.00146619
0.00136164
0.00104271
0.000965183
0.000730201
0.000673378
0.000502444
0.000461303
0.000338564
0.000308082
0.000215439
0.00014633
0.000130501
9.01746e-05
8.08294e-05
5.47548e-05
4.87844e-05
3.22962e-05
2.85665e-05
1.84719e-05
1.62153e-05
1.02358e-05
8.91366e-06
5.48196e-06
4.7307e-06
2.81883e-06
2.40429e-06
1.36968e-06
1.14773e-06
6.05807e-07
4.91332e-07
2.20602e-07
1.66388e-07
5.28018e-08
3.25821e-08
3.96493e-09
-3.84605e-10
-1.29016e-09
-1.49933e-09
-1.54626e-09
0.279395
0.271522
0.262656
0.228584
0.214324
0.180912
0.168169
0.141358
0.130781
0.107644
0.0882814
0.0814866
0.0687869
0.0639986
0.0540872
0.0503252
0.0424632
0.0394767
0.0332288
0.0308564
0.025896
0.0240146
0.020086
0.0185982
0.0154974
0.0143251
0.0118876
0.010968
0.00906073
0.00834279
0.00685809
0.00630057
0.00515125
0.00472082
0.00383656
0.00350635
0.00283058
0.00257904
0.00206645
0.00187633
0.00149077
0.00134835
0.00106109
0.000955475
0.000743798
0.000666387
0.000512373
0.000456311
0.000345518
0.0003038
0.000217602
0.00015116
0.0001293
9.26397e-05
7.98829e-05
5.63345e-05
4.81947e-05
3.33034e-05
2.8218e-05
1.90946e-05
1.60169e-05
1.06081e-05
8.80439e-06
5.69743e-06
4.67231e-06
2.93986e-06
2.37405e-06
1.43574e-06
1.13271e-06
6.40809e-07
4.84485e-07
2.38646e-07
1.64573e-07
6.0918e-08
3.32084e-08
6.2838e-09
2.4477e-10
-1.13766e-09
-1.46234e-09
-1.53538e-09
0.278804
0.271279
0.261048
0.229691
0.21324
0.182145
0.167413
0.142323
0.130045
0.107907
0.0891211
0.0812028
0.0692716
0.0637281
0.0544592
0.0501071
0.0427578
0.0393031
0.0334629
0.0307187
0.0260821
0.0239058
0.0202336
0.0185126
0.015614
0.014258
0.0119795
0.0109157
0.0091328
0.00830229
0.00691432
0.00626938
0.00519489
0.00469696
0.00387022
0.00348823
0.00285638
0.00256539
0.00208609
0.00186615
0.0015056
0.00134083
0.00107219
0.000949999
0.000752016
0.000662454
0.000518378
0.000453502
0.000349706
0.000301293
0.000218973
0.000154204
0.00012869
9.41475e-05
7.93671e-05
5.72971e-05
4.78745e-05
3.3918e-05
2.80308e-05
1.94751e-05
1.59116e-05
1.0836e-05
8.74715e-06
5.82956e-06
4.64215e-06
3.01418e-06
2.35868e-06
1.47637e-06
1.12524e-06
6.62377e-07
4.81211e-07
2.49815e-07
1.63939e-07
6.59946e-08
3.38024e-08
7.76671e-09
6.87603e-10
-1.02762e-09
-1.4355e-09
-1.52748e-09
0.278512
0.271143
0.260282
0.230198
0.21274
0.182722
0.167069
0.142773
0.129703
0.108035
0.0895249
0.0810786
0.0695
0.0636058
0.0546338
0.0500083
0.042896
0.0392245
0.0335728
0.0306563
0.0261694
0.0238565