/*--------------------------------*- C++ -*----------------------------------*\
| =========                 |                                                 |
| \\      /  F ield         | OpenFOAM: The Open Source CFD Toolbox           |
|  \\    /   O peration     | Version:  5.x                                   |
|   \\  /    A nd           | Web:      www.OpenFOAM.org                      |
|    \\/     M anipulation  |                                                 |
\*---------------------------------------------------------------------------*/
FoamFile
{
    version     2.0;
    format      ascii;
    class       volScalarField;
    location    "19.7";
    object      gradTx;
}
// * * * * * * * * * * * * * * * * * * * * * * * * * * * * * * * * * * * * * //

dimensions      [0 -1 0 1 0 0 0];

internalField   nonuniform List<scalar> 
6300
(
-15.2814
-15.0639
-14.6314
-13.9889
-13.1446
-12.1109
-10.9046
-9.54831
-8.07075
-6.50725
-4.89916
-3.29258
-1.73606
-0.27732
1.04044
-15.4991
-15.2792
-14.8416
-14.1908
-13.3344
-12.2837
-11.0549
-9.66981
-8.15697
-6.55212
-4.89792
-3.24282
-1.63856
-0.136637
1.21615
-15.9369
-15.7125
-15.2652
-14.5986
-13.7187
-12.635
-11.3617
-9.9193
-8.33548
-6.64661
-4.89788
-3.14248
-1.43902
0.152919
1.57855
-16.5994
-16.3689
-15.9085
-15.2199
-14.3069
-13.176
-11.838
-10.3105
-8.61933
-6.80124
-4.90479
-2.99052
-1.12826
0.608445
2.15076
-17.4927
-17.2553
-16.78
-16.066
-15.1135
-13.9242
-12.5041
-10.8655
-9.03042
-7.03449
-4.92982
-2.78682
-0.692218
1.25807
2.9717
-18.6237
-18.38
-17.8904
-17.151
-16.1569
-14.9035
-13.3889
-11.6171
-9.60269
-7.37677
-4.99347
-2.53501
-0.112164
2.14403
4.10193
-19.9986
-19.7507
-19.2508
-18.4909
-17.4598
-16.1443
-14.5313
-12.6117
-10.3867
-7.87669
-5.13257
-2.24789
0.634246
3.328
5.63449
-21.6216
-21.3736
-20.8714
-20.1022
-19.0475
-17.6829
-15.9804
-13.9119
-11.4561
-8.61098
-5.41251
-1.95852
1.56874
4.89895
7.7144
-23.4929
-23.2511
-22.7591
-21.9994
-20.9451
-19.5595
-17.7958
-15.5996
-12.9149
-9.69892
-5.94826
-1.7427
2.7
6.98434
10.5755
-25.6061
-25.3791
-24.9146
-24.1912
-23.1744
-21.8145
-20.0441
-17.7759
-14.9055
-11.3218
-6.93917
-1.76432
3.98932
9.76254
14.6153
-27.9465
-27.7446
-27.3294
-26.6767
-25.747
-24.4803
-22.7902
-20.5549
-17.6095
-13.7437
-8.72263
-2.36501
5.25871
13.4608
20.5586
-30.4891
-30.3237
-29.9817
-29.4395
-28.6567
-27.5699
-26.0817
-24.0441
-21.234
-17.3213
-11.8429
-4.23212
5.94932
18.2631
29.8594
-33.1973
-33.0794
-32.8345
-32.443
-31.8706
-31.0609
-29.9227
-28.3062
-25.9615
-22.4648
-17.0957
-8.67029
4.50718
23.7824
45.8197
-36.0236
-35.9622
-35.8341
-35.6277
-35.3219
-34.8807
-34.2422
-33.2965
-31.841
-29.4811
-25.4049
-17.8609
-3.03317
26.5391
77.2347
-38.9115
-38.9118
-38.9122
-38.9118
-38.9087
-38.8981
-38.869
-38.7969
-38.6251
-38.214
-37.1823
-34.3356
-25.3185
8.17173
152.429
2.10161
2.91476
3.58156
4.09974
4.47234
4.70674
4.81354
4.80539
4.69591
4.49886
4.2274
3.89373
3.50879
3.0822
2.62225
2.13602
1.62947
1.1076
0.574597
0.0339533
-0.511398
-1.05899
-1.60673
-2.15284
-2.69581
-3.23438
-3.76748
-4.29427
-4.81413
-5.32664
-5.83159
-6.32896
-6.8189
-7.30164
-7.77749
-8.24677
-8.70971
-9.16648
-9.61707
-10.0614
-10.4992
-10.9303
-11.3544
-11.7712
-12.1807
-12.5829
-12.9781
-13.3666
-13.7489
-14.1254
-14.4966
-14.8625
-15.2233
-15.5785
-15.9276
-16.2697
-16.6038
-16.9288
-17.2433
-17.5464
-17.837
-18.1143
-18.3774
-18.6256
-18.8579
-19.0732
-19.27
-19.4463
-19.5996
-19.7269
-19.8247
-19.8893
-19.9169
-19.9035
-19.8458
-19.7407
-19.586
-19.3802
-19.1227
-18.8137
-18.4547
-18.0476
-17.5957
-17.1027
-16.5737
-16.0141
-15.4304
-14.8296
-14.2192
-13.607
2.30038
3.1252
3.79526
4.30909
4.67107
4.89021
4.9788
4.95103
4.82179
4.60576
4.31677
3.96734
3.56857
3.13004
2.65993
2.16512
1.65138
1.1235
0.585467
0.0406116
-0.508283
-1.05887
-1.60916
-2.15743
-2.70223
-3.24231
-3.77661
-4.3043
-4.82474
-5.33754
-5.84251
-6.33968
-6.82924
-7.31153
-7.78694
-8.25585
-8.71858
-9.1753
-9.62605
-10.0707
-10.5089
-10.9404
-11.3647
-11.7817
-12.191
-12.5929
-12.9876
-13.3754
-13.7571
-14.1331
-14.5039
-14.8699
-15.2311
-15.5872
-15.9375
-16.2811
-16.6169
-16.9435
-17.2597
-17.5642
-17.8561
-18.1345
-18.3987
-18.6482
-18.8822
-19.0997
-19.2993
-19.4792
-19.6368
-19.7691
-19.8723
-19.9426
-19.9755
-19.9672
-19.9137
-19.812
-19.6594
-19.4545
-19.1965
-18.8857
-18.5236
-18.1121
-17.6545
-17.1546
-16.6174
-16.0486
-15.4548
-14.8432
-14.2218
-13.5986
2.71018
3.55823
4.23364
4.73683
5.07521
5.26142
5.31138
5.24253
5.07239
4.81753
4.49295
4.11183
3.68542
3.22319
2.733
2.22134
1.6935
1.15387
0.606038
0.0529732
-0.502835
-1.05928
-1.61457
-2.16711
-2.71552
-3.25861
-3.79531
-4.32478
-4.84639
-5.35974
-5.86469
-6.36135
-6.85006
-7.33133
-7.80572
-8.27381
-8.73605
-9.1927
-9.64379
-10.0891
-10.5282
-10.9606
-11.3856
-11.8029
-12.2121
-12.6133
-13.0068
-13.3932
-13.7733
-14.148
-14.518
-14.884
-15.2461
-15.604
-15.9569
-16.3037
-16.643
-16.9732
-17.2926
-17.6
-17.8944
-18.1749
-18.4412
-18.693
-18.93
-19.1516
-19.3569
-19.544
-19.7104
-19.8529
-19.9674
-20.0492
-20.0935
-20.0956
-20.0511
-19.9562
-19.8081
-19.6049
-19.346
-19.0317
-18.6632
-18.2429
-17.7739
-17.2601
-16.7066
-16.1191
-15.5046
-14.8709
-14.2267
-13.5809
3.35702
4.23955
4.91973
5.4016
5.69818
5.82852
5.81475
5.67964
5.44475
5.12944
4.75034
4.32131
3.85364
3.35641
2.83684
2.30066
1.75246
1.19592
0.634009
0.0691649
-0.496575
-1.06147
-1.62401
-2.1828
-2.73657
-3.28414
-3.82447
-4.35663
-4.87996
-5.39405
-5.8988
-6.39446
-6.8816
-7.361
-7.83356
-8.30016
-8.76151
-9.21804
-9.66979
-10.1164
-10.5572
-10.9913
-11.4177
-11.8356
-12.2446
-12.6446
-13.036
-13.4198
-13.7971
-14.1694
-14.538
-14.9037
-15.267
-15.6278
-15.985
-16.3371
-16.6821
-17.018
-17.3427
-17.6545
-17.9523
-18.2356
-18.5044
-18.7589
-18.9998
-19.2271
-19.4404
-19.6383
-19.8184
-19.9769
-20.1092
-20.2096
-20.2722
-20.2911
-20.2608
-20.1768
-20.0358
-19.8355
-19.5752
-19.2553
-18.8774
-18.4437
-17.9575
-17.4228
-16.8443
-16.2282
-15.5818
-14.9136
-14.2337
-13.5524
4.28465
5.21194
5.89108
6.3329
6.56025
6.60285
6.49261
6.26015
5.93266
5.53297
5.0794
4.58622
4.06426
3.52163
2.9644
2.39713
1.82329
1.24556
0.666072
0.0865303
-0.491632
-1.06717
-1.63893
-2.20579
-2.7666
-3.32019
-3.86542
-4.40125
-4.92688
-5.44181
-5.946
-6.43986
-6.92429
-7.40051
-7.86995
-8.33403
-8.79389
-9.25023
-9.70313
-10.152
-10.5958
-11.0329
-11.4619
-11.8812
-12.29
-12.6882
-13.0762
-13.4556
-13.8282
-14.1962
-14.5618
-14.9266
-15.2916
-15.6565
-16.0202
-16.3804
-16.7343
-17.0788
-17.4112
-17.729
-18.0311
-18.3171
-18.5877
-18.8444
-19.0889
-19.3225
-19.5458
-19.7582
-19.9572
-20.1386
-20.2966
-20.4242
-20.5136
-20.5571
-20.5476
-20.4795
-20.3485
-20.1522
-19.89
-19.5625
-19.1716
-18.72
-18.211
-17.6481
-17.0362
-16.3809
-15.6901
-14.9733
-14.2423
-13.5103
5.56152
6.54138
7.20388
7.57276
7.68809
7.59699
7.34618
6.97722
6.52429
6.01384
5.4653
4.89238
4.30443
3.70768
3.10625
2.50291
1.89957
1.29761
0.698081
0.101793
-0.490574
-1.0784
-1.661
-2.23757
-2.80708
-3.36832
-3.91994
-4.46061
-4.98921
-5.50506
-6.00807
-6.49885
-6.97877
-7.44975
-7.91405
-8.37394
-8.8313
-9.28732
-9.74217
-10.195
-10.6438
-11.0863
-11.5198
-11.9418
-12.3507
-12.7462
-13.1289
-13.501
-13.8656
-14.2263
-14.5866
-14.9493
-15.3161
-15.687
-16.0602
-16.4326
-16.7998
-17.1571
-17.5003
-17.8261
-18.1328
-18.4205
-18.691
-18.9474
-19.1934
-19.4324
-19.6669
-19.8971
-20.121
-20.3337
-20.5277
-20.6936
-20.8208
-20.8991
-20.9188
-20.8726
-20.7551
-20.5638
-20.2984
-19.9606
-19.5531
-19.079
-18.5415
-17.9441
-17.2902
-16.5848
-15.8355
-15.0532
-14.2525
-13.4504
7.29342
8.32754
8.93921
9.17745
9.11291
8.82087
8.36965
7.81495
7.19851
6.54931
5.88607
5.21997
4.55708
3.90028
3.25069
2.60854
1.97372
1.34603
0.725296
0.111299
-0.496163
-1.09723
-1.69184
-2.27958
-2.85955
-3.43036
-3.99027
-4.53737
-5.06995
-5.58683
-6.08774
-6.5735
-7.04612
-7.5086
-7.96448
-8.41744
-8.87062
-9.32604
-9.78412
-10.2435
-10.701
-11.1527
-11.5941
-12.0211
-12.4308
-12.8223
-13.1967
-13.5572
-13.9086
-14.2569
-14.6077
-14.9659
-15.3345
-15.7138
-16.1014
-16.4921
-16.8793
-17.2556
-17.6143
-17.9505
-18.2617
-18.5486
-18.8145
-19.0652
-19.3077
-19.5488
-19.7937
-20.045
-20.3009
-20.5557
-20.7992
-21.0183
-21.1985
-21.325
-21.3849
-21.3679
-21.2677
-21.0818
-20.8111
-20.4591
-20.0302
-19.5288
-18.9585
-18.3211
-17.6181
-16.8518
-16.0283
-15.1595
-14.2643
-13.3668
9.64654
10.7217
11.212
11.2179
10.8651
10.2737
9.54188
8.74136
7.91966
7.10477
6.31076
5.54275
4.80075
4.08234
3.38426
2.70346
2.03744
1.38433
0.742689
0.111289
-0.511056
-1.12544
-1.73266
-2.33285
-2.92525
-3.50816
-4.07907
-4.63507
-5.17331
-5.69163
-6.18921
-6.66705
-7.12809
-7.5769
-8.01911
-8.4606
-8.90666
-9.36088
-9.8242
-10.2944
-10.7666
-11.2339
-11.689
-12.1251
-12.5371
-12.923
-13.2844
-13.6262
-13.9562
-14.2836
-14.618
-14.9674
-15.3373
-15.7288
-16.1379
-16.5566
-16.9743
-17.3792
-17.7607
-18.1108
-18.4256
-18.7065
-18.9596
-19.1947
-19.424
-19.6594
-19.9114
-20.1858
-20.4824
-20.7937
-21.1054
-21.399
-21.6531
-21.8469
-21.9615
-21.983
-21.9035
-21.7216
-21.4408
-21.0681
-20.6114
-20.0779
-19.4716
-18.7926
-18.037
-17.201
-16.2861
-15.3037
-14.2794
-13.2498
12.8918
13.9579
14.1821
13.7745
12.9608
11.9287
10.8128
9.69808
8.6308
7.62997
6.69781
5.82787
5.01029
4.23492
3.49281
2.77696
2.08244
1.40598
0.745231
0.0981428
-0.537499
-1.16406
-1.78365
-2.39739
-3.00469
-3.60327
-4.18938
-4.75838
-5.30538
-5.82632
-6.31912
-6.78479
-7.22765
-7.65471
-8.07473
-8.49716
-8.9309
-9.38255
-9.85429
-10.3426
-10.8391
-11.3327
-11.8113
-12.2635
-12.6808
-13.0591
-13.4002
-13.7122
-14.0074
-14.3003
-14.6064
-14.9394
-15.309
-15.7181
-16.1604
-16.6226
-17.0874
-17.5363
-17.952
-18.3216
-18.6383
-18.9044
-19.1303
-19.3326
-19.5311
-19.7462
-19.9965
-20.2944
-20.6426
-21.0307
-21.4378
-21.8361
-22.1947
-22.4824
-22.672
-22.7433
-22.6867
-22.5035
-22.2027
-21.7977
-21.3031
-20.7315
-20.0895
-19.3741
-18.5713
-17.6639
-16.6408
-15.5082
-14.302
-13.0837
17.4964
18.4061
18.0615
16.9157
15.3704
13.7042
12.082
10.5863
9.24605
8.05608
6.99508
6.03738
5.15889
4.33944
3.56337
2.81961
2.10131
1.40487
0.727993
0.0684129
-0.577106
-1.21278
-1.84316
-2.47125
-3.09675
-3.71637
-4.32438
-4.91338
-5.475
-6.00153
-6.48809
-6.93536
-7.34995
-7.74265
-8.12684
-8.51738
-8.92933
-9.37526
-9.8605
-10.3788
-10.9157
-11.453
-11.9714
-12.4523
-12.8807
-13.2484
-13.5579
-13.8224
-14.0615
-14.2981
-14.556
-14.8584
-15.2239
-15.6594
-16.154
-16.6848
-17.2234
-17.7409
-18.2098
-18.6082
-18.9238
-19.16
-19.335
-19.4758
-19.6139
-19.7823
-20.0127
-20.3306
-20.7451
-21.2402
-21.7827
-22.3304
-22.8379
-23.2592
-23.5527
-23.6875
-23.6521
-23.4546
-23.1144
-22.6563
-22.1057
-21.4862
-20.8131
-20.0811
-19.2563
-18.2934
-17.1528
-15.8185
-14.3419
-12.8395
24.3293
24.6599
23.0941
20.6318
17.9536
15.4158
13.1686
11.2506
9.64471
8.2963
7.14339
6.13265
5.22228
4.38133
3.58724
2.82543
2.08856
1.37543
0.685726
0.0183203
-0.630986
-1.26924
-1.90601
-2.54889
-3.19734
-3.84624
-4.48678
-5.10783
-5.69517
-6.2343
-6.71363
-7.133
-7.50376
-7.8428
-8.16979
-8.50674
-8.87876
-9.31132
-9.81911
-10.388
-10.9917
-11.6004
-12.1853
-12.7166
-13.1679
-13.5213
-13.7802
-13.9689
-14.1191
-14.2649
-14.4413
-14.6865
-15.0378
-15.5155
-16.0954
-16.7354
-17.3898
-18.0153
-18.5692
-19.0136
-19.3235
-19.5037
-19.5886
-19.6225
-19.653
-19.7288
-19.9029
-20.2275
-20.7312
-21.3814
-22.1199
-22.8823
-23.6049
-24.2199
-24.6616
-24.8765
-24.8509
-24.6109
-24.1959
-23.6476
-23.0071
-22.3181
-21.6212
-20.9218
-20.1396
-19.1788
-17.9437
-16.3334
-14.4189
-12.4563
35.1733
33.6443
29.4173
24.6587
20.3338
16.7085
13.7806
11.4652
9.67235
8.25475
7.08678
6.08318
5.18552
4.35553
3.56444
2.79516
2.04148
1.31212
0.611215
-0.0579589
-0.700894
-1.32792
-1.96018
-2.61855
-3.29736
-3.98821
-4.67727
-5.35086
-5.98477
-6.55319
-7.02553
-7.40062
-7.70322
-7.96027
-8.19837
-8.44556
-8.74095
-9.13898
-9.68968
-10.3471
-11.0602
-11.7822
-12.4762
-13.0959
-13.5961
-13.9302
-14.1036
-14.1707
-14.183
-14.1875
-14.2275
-14.3616
-14.6695
-15.2243
-15.9502
-16.7651
-17.5976
-18.3929
-19.0857
-19.6127
-19.9096
-19.9845
-19.9152
-19.7741
-19.6268
-19.5335
-19.5762
-19.8661
-20.5062
-21.3951
-22.4223
-23.4915
-24.5265
-25.4297
-26.0971
-26.4114
-26.3582
-26.0188
-25.4689
-24.7717
-23.9779
-23.1611
-22.4325
-21.8815
-21.2798
-20.4592
-19.2745
-17.286
-14.5651
-11.7884
54.1416
46.5132
36.5056
28.0614
21.7067
16.9966
13.5106
10.9271
9.15947
7.85355
6.79329
5.881
5.05115
4.27358
3.51009
2.74228
1.95926
1.20773
0.490929
-0.172095
-0.793779
-1.3791
-1.97679
-2.65883
-3.38007
-4.13278
-4.89005
-5.65103
-6.36869
-7.01043
-7.47747
-7.77259
-7.96825
-8.10502
-8.21382
-8.31491
-8.45532
-8.74674
-9.40653
-10.2259
-11.1158
-12.0042
-12.874
-13.6472
-14.2633
-14.5705
-14.5797
-14.4514
-14.258
-14.0589
-13.8781
-13.7864
-13.9457
-14.6864
-15.6765
-16.7694
-17.8587
-18.9177
-19.841
-20.5431
-20.8152
-20.6725
-20.3454
-19.9343
-19.5227
-19.1422
-18.8935
-19.0002
-19.9229
-21.2095
-22.6639
-24.1499
-25.6378
-26.979
-28.0408
-28.4752
-28.2773
-27.7297
-26.9537
-26.0348
-24.9819
-23.8769
-22.988
-22.9139
-22.7354
-22.2634
-21.7626
-19.2932
-14.7916
-10.4505
91.993
62.8073
41.3419
28.4545
20.7108
15.5219
11.9406
9.21383
7.98153
7.09843
6.28651
5.55991
4.84131
4.17114
3.46181
2.71112
1.83153
1.05318
0.29307
-0.345878
-0.939129
-1.41255
-1.87203
-2.6427
-3.4175
-4.27084
-5.09753
-6.01358
-6.86195
-7.71923
-8.17696
-8.28776
-8.31806
-8.29003
-8.24032
-8.1276
-7.95215
-7.824
-8.89355
-10.003
-11.1736
-12.2529
-13.4108
-14.4248
-15.3751
-15.6399
-15.2537
-14.8258
-14.341
-13.9039
-13.4002
-12.8497
-12.3844
-13.7894
-15.2548
-16.7787
-18.1631
-19.6379
-20.9146
-22.0924
-22.318
-21.6259
-20.8962
-20.0951
-19.3734
-18.5611
-17.6986
-16.9592
-18.8155
-20.7817
-22.8601
-24.8051
-26.9599
-28.9303
-30.8879
-31.4492
-30.6998
-29.7692
-28.6442
-27.4904
-26.0606
-24.2812
-22.3699
-24.0962
-24.6133
-24.109
-27.0853
-24.2267
-14.7869
-7.36282
180.17
67.9834
33.8255
21.4402
16.036
11.7317
9.13996
5.34836
6.3006
6.24062
5.65672
5.22715
4.56156
4.12492
3.47294
2.8654
1.55789
0.872256
-0.0793657
-0.585548
-1.25711
-1.46612
-1.31921
-2.62065
-3.34187
-4.44731
-5.17633
-6.47362
-7.34238
-9.00339
-9.37604
-8.91881
-8.75184
-8.5062
-8.35753
-8.03059
-7.38084
-5.17649
-8.32313
-9.69169
-11.3629
-12.3884
-14.1548
-15.2937
-17.4739
-17.6466
-15.9877
-15.2818
-14.3553
-13.8446
-12.9895
-11.7901
-8.12961
-12.8055
-14.7485
-16.9887
-18.3374
-20.643
-22.1305
-25.0125
-25.1422
-22.6333
-21.5498
-20.1413
-19.3546
-18.0521
-16.3263
-11.1804
-17.5496
-20.1922
-23.2484
-25.1578
-28.5476
-30.8996
-35.7453
-36.3105
-33.3829
-32.0883
-30.3758
-29.3435
-27.6423
-24.8753
-16.5134
-27.0198
-27.9617
-20.9422
-40.81
-38.6366
-11.8796
0.397105
-12.941
-12.233
-11.5558
-10.9186
-10.3287
-9.7909
-9.30836
-8.88248
-8.51347
-8.20068
-7.94298
-7.73899
-7.58738
-7.487
-7.43703
-12.9212
-12.202
-11.5156
-10.8713
-10.2764
-9.73558
-9.2516
-8.82552
-8.45716
-8.14552
-7.88918
-7.68654
-7.53607
-7.43652
-7.38698
-12.8801
-12.1382
-11.4331
-10.7746
-10.1699
-9.62333
-9.13686
-8.71075
-8.34403
-8.035
-7.78162
-7.58183
-7.43378
-7.33597
-7.28733
-12.8149
-12.0376
-11.3037
-10.624
-10.0052
-9.45086
-8.96167
-8.53652
-8.17314
-7.86874
-7.62038
-7.42531
-7.28119
-7.18616
-7.13897
-12.7205
-11.8934
-11.1202
-10.4123
-9.77602
-9.21314
-8.72234
-8.30041
-7.94321
-7.64637
-7.40577
-7.21778
-7.07943
-6.98845
-6.94334
-12.5891
-11.6953
-10.8711
-10.1289
-9.47333
-8.90325
-8.41407
-7.9995
-7.65283
-7.36769
-7.13848
-6.96055
-6.83023
-6.74481
-6.70254
-12.4088
-11.4273
-10.5399
-9.75885
-9.08505
-8.51236
-8.03109
-7.63061
-7.30084
-7.033
-6.81985
-6.65564
-6.53605
-6.45796
-6.41941
-12.1605
-11.0652
-10.1024
-9.28139
-8.59556
-8.02997
-7.56725
-7.19092
-6.88684
-6.64356
-6.4522
-6.30606
-6.2003
-6.13153
-6.09765
-11.8126
-10.5706
-9.52287
-8.6687
-7.98577
-7.44462
-7.01694
-6.67893
-6.41197
-6.20214
-6.03926
-5.91606
-5.82748
-5.77014
-5.74197
-11.3097
-9.88172
-8.74968
-7.88468
-7.23412
-6.74575
-6.3769
-6.0958
-5.87992
-5.71371
-5.58657
-5.49137
-5.42338
-5.37954
-5.35804
-10.5475
-8.89677
-7.70934
-6.88616
-6.32022
-5.9273
-5.64905
-5.44739
-5.29815
-5.18615
-5.10189
-5.03943
-4.99507
-4.96654
-4.95257
-9.31788
-7.44838
-6.30465
-5.63033
-5.23324
-4.99412
-4.84456
-4.74652
-4.67909
-4.6308
-4.59537
-4.56934
-4.55086
-4.53894
-4.53309
-7.18401
-5.27418
-4.43048
-4.09724
-3.98822
-3.97134
-3.9885
-4.01498
-4.04084
-4.06256
-4.07939
-4.09166
-4.10006
-4.10524
-4.1077
-3.20843
-2.03376
-2.04582
-2.33989
-2.65102
-2.91448
-3.12307
-3.28404
-3.40668
-3.49916
-3.56792
-3.61782
-3.65243
-3.67421
-3.68473
4.6079
2.3934
0.620872
-0.565466
-1.36147
-1.91245
-2.30524
-2.59139
-2.80267
-2.95945
-3.07527
-3.15924
-3.21759
-3.25442
-3.27224
-41.5587
-41.6158
-41.7345
-41.9249
-42.2036
-42.5977
-43.1497
-43.9304
-45.0632
-46.7881
-49.6422
-55.0937
-68.1804
-110.202
-286.315
-43.9256
-44.0311
-44.2507
-44.6027
-45.1191
-45.8513
-46.8827
-48.3526
-50.5051
-53.7987
-59.1659
-68.6626
-87.0518
-124.696
-193.104
-46.2194
-46.3674
-46.6749
-47.1666
-47.8847
-48.8971
-50.3112
-52.3008
-55.1547
-59.3692
-65.8218
-76.0564
-92.5513
-117.827
-147.398
-48.4104
-48.593
-48.9712
-49.5732
-50.4461
-51.6639
-53.3402
-55.649
-58.8593
-63.3857
-69.8511
-79.1026
-91.9532
-107.975
-122.226
-50.4747
-50.6827
-51.1123
-51.7918
-52.7681
-54.1125
-55.9299
-58.3712
-61.6499
-66.0559
-71.9457
-79.6492
-89.1531
-99.3512
-106.952
-52.3945
-52.6188
-53.0799
-53.8042
-54.8344
-56.2327
-58.0863
-60.5118
-63.6577
-67.6957
-72.7808
-78.9453
-85.8709
-92.5314
-96.9555
-54.1587
-54.3904
-54.8647
-55.6044
-56.6451
-58.0368
-59.8455
-62.152
-65.0462
-68.6083
-72.8664
-77.713
-82.7725
-87.2647
-90.0312
-55.7621
-55.9935
-56.4653
-57.1956
-58.212
-59.5515
-61.2591
-63.3842
-65.9707
-69.0375
-72.5435
-76.3326
-80.0681
-83.1963
-85.0281
-57.2049
-57.4298
-57.8864
-58.5881
-59.5545
-60.8104
-62.3828
-64.296
-66.5616
-69.1617
-72.0239
-74.9895
-77.7855
-80.0281
-81.297
-58.4914
-58.7052
-59.1373
-59.7968
-60.6961
-61.8496
-63.2699
-64.9632
-66.9202
-69.1038
-71.4325
-73.7641
-75.887
-77.5361
-78.4469
-59.6296
-59.8289
-60.2303
-60.8389
-61.6614
-62.7034
-63.9674
-65.4472
-67.1215
-68.9451
-70.8391
-72.6835
-74.3177
-75.5567
-76.2294
-60.6295
-60.8123
-61.1794
-61.7327
-62.474
-63.4032
-64.5151
-65.7961
-67.2191
-68.7374
-70.2801
-71.7489
-73.0226
-73.9707
-74.4789
-61.5023
-61.6679
-61.9992
-62.4959
-63.1563
-63.976
-64.9453
-66.0465
-67.2504
-68.5129
-69.7724
-70.9498
-71.9536
-72.6902
-73.0813
-62.2602
-62.4084
-62.7041
-63.1453
-63.728
-64.445
-65.284
-66.2255
-67.241
-68.2905
-69.3216
-70.2714
-71.07
-71.6497
-71.9552
-62.9151
-63.0466
-63.3081
-63.6965
-64.2066
-64.8293
-65.5513
-66.3532
-67.2081
-68.0807
-68.9274
-69.6978
-70.3386
-70.7996
-71.0411
-63.4788
-63.5944
-63.8238
-64.1634
-64.6068
-65.1446
-65.7633
-66.4442
-67.1629
-67.8889
-68.5861
-69.2141
-69.732
-70.1019
-70.2949
-63.9622
-64.0632
-64.2631
-64.5581
-64.9415
-65.4038
-65.932
-66.5088
-67.1126
-67.7172
-68.2928
-68.8071
-69.228
-69.5271
-69.6825
-64.3756
-64.4632
-64.6365
-64.8914
-65.2213
-65.6172
-66.0669
-66.5547
-67.0617
-67.5657
-68.042
-68.4648
-68.8088
-69.0521
-69.1781
-64.7281
-64.8038
-64.9532
-65.1725
-65.4554
-65.7934
-66.1753
-66.5873
-67.0129
-67.4335
-67.8285
-68.1771
-68.4595
-68.6584
-68.7612
-65.028
-65.0931
-65.2215
-65.4095
-65.6512
-65.939
-66.2628
-66.6104
-66.9677
-67.3189
-67.6471
-67.9355
-68.1681
-68.3315
-68.4158
-65.2827
-65.3385
-65.4484
-65.6091
-65.8151
-66.0596
-66.3337
-66.6268
-66.9267
-67.2203
-67.4935
-67.7325
-67.9248
-68.0595
-68.1289
-65.4986
-65.5463
-65.6402
-65.7771
-65.9523
-66.1597
-66.3915
-66.6384
-66.8902
-67.1358
-67.3635
-67.5621
-67.7214
-67.8328
-67.8901
-65.6814
-65.7221
-65.802
-65.9185
-66.0673
-66.2429
-66.4387
-66.6466
-66.8581
-67.0636
-67.2537
-67.419
-67.5513
-67.6437
-67.6911
-65.836
-65.8706
-65.9385
-66.0374
-66.1635
-66.3121
-66.4774
-66.6525
-66.8301
-67.0022
-67.161
-67.2989
-67.409
-67.4857
-67.5251
-65.9665
-65.9959
-66.0536
-66.1374
-66.2442
-66.3698
-66.5092
-66.6566
-66.8058
-66.9501
-67.0829
-67.198
-67.2898
-67.3537
-67.3865
-66.0767
-66.1016
-66.1505
-66.2215
-66.3118
-66.4179
-66.5354
-66.6595
-66.7849
-66.9059
-67.0171
-67.1134
-67.19
-67.2433
-67.2706
-66.1695
-66.1906
-66.232
-66.2921
-66.3684
-66.458
-66.5571
-66.6616
-66.767
-66.8686
-66.9618
-67.0423
-67.1064
-67.1509
-67.1737
-66.2477
-66.2656
-66.3006
-66.3514
-66.4159
-66.4915
-66.5751
-66.6631
-66.7517
-66.837
-66.9152
-66.9827
-67.0363
-67.0736
-67.0926
-66.3135
-66.3286
-66.3582
-66.4012
-66.4557
-66.5195
-66.59
-66.6641
-66.7387
-66.8104
-66.8761
-66.9327
-66.9776
-67.0088
-67.0248
-66.3687
-66.3815
-66.4066
-66.4429
-66.489
-66.5429
-66.6024
-66.6649
-66.7277
-66.788
-66.8432
-66.8908
-66.9285
-66.9547
-66.9681
-66.4151
-66.426
-66.4472
-66.4779
-66.5169
-66.5624
-66.6127
-66.6654
-66.7183
-66.7692
-66.8157
-66.8557
-66.8874
-66.9094
-66.9207
-66.454
-66.4632
-66.4811
-66.5072
-66.5402
-66.5787
-66.6212
-66.6658
-66.7105
-66.7534
-66.7926
-66.8263
-66.8531
-66.8716
-66.8811
-66.4865
-66.4943
-66.5095
-66.5316
-66.5596
-66.5923
-66.6283
-66.666
-66.7039
-66.7402
-66.7733
-66.8019
-66.8244
-66.8401
-66.8481
-66.5135
-66.5202
-66.5332
-66.552
-66.5758
-66.6036
-66.6341
-66.6662
-66.6984
-66.7292
-66.7573
-66.7815
-66.8006
-66.8139
-66.8207
-66.536
-66.5417
-66.5528
-66.5688
-66.5892
-66.6129
-66.639
-66.6663
-66.6938
-66.72
-66.744
-66.7646
-66.7809
-66.7922
-66.798
-66.5545
-66.5594
-66.5689
-66.5827
-66.6002
-66.6206
-66.643
-66.6664
-66.6899
-66.7125
-66.733
-66.7507
-66.7646
-66.7743
-66.7793
-66.5697
-66.5739
-66.5821
-66.5941
-66.6092
-66.6268
-66.6462
-66.6665
-66.6868
-66.7063
-66.724
-66.7393
-66.7513
-66.7597
-66.764
-66.5819
-66.5856
-66.5928
-66.6032
-66.6165
-66.6319
-66.6488
-66.6666
-66.6843
-66.7013
-66.7168
-66.7301
-66.7406
-66.7479
-66.7517
-66.5915
-66.5948
-66.6012
-66.6105
-66.6222
-66.6359
-66.6509
-66.6666
-66.6823
-66.6974
-66.7111
-66.7229
-66.7322
-66.7387
-66.742
-66.5989
-66.6019
-66.6076
-66.616
-66.6266
-66.6389
-66.6524
-66.6666
-66.6808
-66.6944
-66.7067
-66.7173
-66.7257
-66.7316
-66.7345
-66.6042
-66.607
-66.6123
-66.62
-66.6297
-66.6411
-66.6536
-66.6666
-66.6797
-66.6922
-66.7036
-66.7133
-66.7211
-66.7264
-66.7292
-66.6077
-66.6103
-66.6153
-66.6226
-66.6318
-66.6425
-66.6543
-66.6666
-66.679
-66.6908
-66.7015
-66.7108
-66.7181
-66.7231
-66.7257
-66.6093
-66.6118
-66.6167
-66.6238
-66.6328
-66.6432
-66.6546
-66.6666
-66.6786
-66.6901
-66.7006
-66.7095
-66.7166
-66.7215
-66.7241
-66.6093
-66.6118
-66.6167
-66.6237
-66.6327
-66.6432
-66.6546
-66.6666
-66.6786
-66.6901
-66.7006
-66.7096
-66.7167
-66.7216
-66.7241
-66.6074
-66.61
-66.6151
-66.6224
-66.6316
-66.6424
-66.6542
-66.6666
-66.679
-66.6909
-66.7017
-66.711
-66.7183
-66.7234
-66.726
-66.6038
-66.6066
-66.6119
-66.6197
-66.6295
-66.6409
-66.6535
-66.6666
-66.6798
-66.6924
-66.7038
-66.7137
-66.7215
-66.7269
-66.7296
-66.5983
-66.6013
-66.6071
-66.6155
-66.6262
-66.6386
-66.6523
-66.6666
-66.6809
-66.6946
-66.7071
-66.7178
-66.7263
-66.7322
-66.7352
-66.5907
-66.594
-66.6005
-66.6098
-66.6217
-66.6355
-66.6507
-66.6666
-66.6825
-66.6977
-66.7116
-66.7235
-66.7329
-66.7395
-66.7428
-66.5808
-66.5845
-66.5919
-66.6024
-66.6158
-66.6314
-66.6486
-66.6666
-66.6845
-66.7018
-66.7174
-66.7309
-66.7416
-66.749
-66.7527
-66.5683
-66.5726
-66.581
-66.5931
-66.6084
-66.6263
-66.6459
-66.6665
-66.6871
-66.7069
-66.7248
-66.7403
-66.7525
-66.761
-66.7653
-66.5529
-66.5578
-66.5675
-66.5815
-66.5992
-66.6199
-66.6426
-66.6665
-66.6903
-66.7132
-66.734
-66.7519
-66.766
-66.7759
-66.7809
-66.534
-66.5397
-66.551
-66.5673
-66.588
-66.6121
-66.6386
-66.6664
-66.6942
-66.7209
-66.7452
-66.7661
-66.7826
-66.7941
-66.7999
-66.5111
-66.5178
-66.531
-66.5501
-66.5743
-66.6026
-66.6337
-66.6663
-66.6989
-66.7302
-66.7587
-66.7833
-66.8027
-66.8162
-66.8231
-66.4835
-66.4914
-66.5069
-66.5294
-66.5579
-66.5911
-66.6277
-66.6661
-66.7046
-66.7414
-66.7751
-66.804
-66.827
-66.8428
-66.851
-66.4504
-66.4597
-66.478
-66.5045
-66.5381
-66.5774
-66.6206
-66.6659
-66.7113
-66.7549
-66.7947
-66.829
-66.8561
-66.8749
-66.8845
-66.4108
-66.4218
-66.4434
-66.4748
-66.5144
-66.5608
-66.6119
-66.6655
-66.7194
-66.771
-66.8182
-66.8588
-66.891
-66.9133
-66.9248
-66.3635
-66.3766
-66.4021
-66.4392
-66.4861
-66.541
-66.6015
-66.6651
-66.7289
-66.7902
-66.8462
-66.8945
-66.9328
-66.9593
-66.9729
-66.3072
-66.3226
-66.3529
-66.3967
-66.4522
-66.5173
-66.589
-66.6644
-66.7402
-66.8131
-66.8797
-66.9371
-66.9827
-67.0143
-67.0305
-66.2402
-66.2584
-66.2942
-66.346
-66.4118
-66.4889
-66.574
-66.6635
-66.7536
-66.8402
-66.9196
-66.988
-67.0423
-67.08
-67.0994
-66.1605
-66.182
-66.2243
-66.2857
-66.3636
-66.4549
-66.5559
-66.6622
-66.7693
-66.8724
-66.967
-67.0486
-67.1135
-67.1585
-67.1816
-66.0658
-66.0913
-66.1412
-66.2138
-66.306
-66.4143
-66.5341
-66.6604
-66.7878
-66.9106
-67.0234
-67.1209
-67.1984
-67.2523
-67.2799
-65.9534
-65.9835
-66.0425
-66.1283
-66.2374
-66.3656
-66.5077
-66.6578
-66.8094
-66.9558
-67.0904
-67.2069
-67.2997
-67.3643
-67.3974
-65.8201
-65.8556
-65.9252
-66.0265
-66.1555
-66.3073
-66.4758
-66.6541
-66.8346
-67.0092
-67.1701
-67.3095
-67.4207
-67.4981
-67.5378
-65.6622
-65.704
-65.786
-65.9054
-66.0578
-66.2373
-66.4371
-66.6489
-66.8638
-67.0722
-67.2646
-67.4316
-67.5651
-67.6581
-67.7059
-65.4753
-65.5244
-65.6209
-65.7615
-65.9412
-66.1534
-66.3901
-66.6416
-66.8975
-67.1464
-67.3767
-67.5771
-67.7375
-67.8495
-67.9071
-65.2543
-65.3118
-65.4251
-65.5903
-65.802
-66.0525
-66.3326
-66.6313
-66.9361
-67.2335
-67.5094
-67.7503
-67.9436
-68.0787
-68.1483
-64.9933
-65.0606
-65.1932
-65.387
-65.6358
-65.9311
-66.2623
-66.6168
-66.9799
-67.3354
-67.6666
-67.9566
-68.19
-68.3535
-68.4378
-64.6856
-64.7641
-64.9189
-65.1455
-65.4372
-65.7847
-66.1759
-66.5963
-67.0288
-67.4543
-67.8523
-68.2023
-68.4848
-68.6834
-68.7858
-64.3235
-64.4146
-64.5947
-64.8589
-65.2
-65.6079
-66.0692
-66.5674
-67.0826
-67.5922
-68.0714
-68.4948
-68.838
-69.0799
-69.205
-63.898
-64.0034
-64.212
-64.5188
-64.9164
-65.3939
-65.9369
-66.5266
-67.1404
-67.7513
-68.3293
-68.843
-69.2614
-69.5575
-69.711
-63.3993
-63.5206
-63.761
-64.1158
-64.5774
-65.1346
-65.772
-66.4692
-67.2001
-67.9331
-68.632
-69.2573
-69.7698
-70.1342
-70.3237
-62.8164
-62.9551
-63.2306
-63.6385
-64.1719
-64.8196
-65.5657
-66.3884
-67.2583
-68.1387
-68.9856
-69.7499
-70.381
-70.8323
-71.0679
-62.1372
-62.2947
-62.6082
-63.0743
-63.6869
-64.4361
-65.3063
-66.2747
-67.3093
-68.3676
-69.3967
-70.335
-71.1169
-71.6803
-71.9756
-61.3487
-61.526
-61.8798
-62.4083
-63.1072
-63.9687
-64.9788
-66.1151
-67.3437
-68.6167
-69.8708
-71.0288
-72.0047
-72.7142
-73.0885
-60.437
-60.6346
-61.0302
-61.6239
-62.4147
-63.398
-64.5636
-65.8914
-67.3473
-68.8789
-70.4117
-71.8489
-73.0774
-73.981
-74.4613
-59.3882
-59.6058
-60.043
-60.7028
-61.5884
-62.7008
-64.0358
-65.5787
-67.2984
-69.1403
-71.0188
-72.814
-74.3758
-75.5416
-76.1676
-58.1883
-58.4247
-58.9012
-59.6248
-60.6045
-61.8492
-63.3636
-65.1431
-67.1647
-69.3763
-71.6838
-73.941
-75.9492
-77.4771
-78.3085
-56.8242
-57.0767
-57.5878
-58.369
-59.4368
-60.8102
-62.5074
-64.5394
-66.899
-69.5456
-72.3837
-75.241
-77.8561
-79.8964
-81.0267
-55.2848
-55.5493
-56.0868
-56.9143
-58.0568
-59.5463
-61.4188
-63.7081
-66.4341
-69.582
-73.0703
-76.7091
-80.1621
-82.9474
-84.5298
-53.5619
-53.8324
-54.3845
-55.2409
-56.4359
-58.0165
-60.0407
-62.5735
-65.6762
-69.382
-73.6524
-78.3061
-82.9316
-86.8339
-89.1317
-51.651
-51.9199
-52.4711
-53.3323
-54.5474
-56.1787
-58.3093
-61.0433
-64.4994
-68.7899
-73.9682
-79.9226
-86.2035
-91.8344
-95.3292
-49.5536
-49.8115
-50.3424
-51.1779
-52.3698
-53.9942
-56.1591
-59.0116
-62.7431
-67.5813
-73.745
-81.3123
-89.9266
-98.3183
-103.953
-47.2771
-47.5135
-48.0021
-48.7763
-49.8919
-51.4344
-53.5313
-56.3695
-60.2183
-65.4521
-72.5472
-81.9748
-93.8043
-106.716
-116.491
-44.8365
-45.0406
-45.4636
-46.1377
-47.1175
-48.4897
-50.3889
-53.0257
-56.7317
-62.0304
-69.7295
-80.9692
-96.9303
-117.293
-135.816
-42.2544
-42.4156
-42.7507
-43.2868
-44.0708
-45.1789
-46.7343
-48.9394
-52.139
-56.9417
-64.4532
-76.6848
-96.9996
-129.146
-168.004
-39.5603
-39.6701
-39.8984
-40.2639
-40.7991
-41.5578
-42.6285
-44.1625
-46.4333
-49.9718
-55.8992
-66.7871
-88.8523
-136.339
-227.177
-36.7901
-36.8425
-36.9509
-37.1231
-37.3723
-37.72
-38.2009
-38.874
-39.8473
-41.3431
-43.9005
-49.1275
-63.0514
-113.425
-349.432
-33.9836
-33.9761
-33.9592
-33.9289
-33.8773
-33.7898
-33.6401
-33.3772
-32.8985
-31.9774
-30.048
-25.4283
-11.9383
38.4012
274.839
-31.1825
-31.1163
-30.9771
-30.7498
-30.4072
-29.903
-29.1578
-28.0304
-26.2571
-23.3121
-18.0639
-7.88936
13.5846
60.9918
152.888
-28.4274
-28.3073
-28.0563
-27.6507
-27.0494
-26.1838
-24.9412
-23.1323
-20.4297
-16.2464
-9.50117
1.80265
21.098
52.6867
94.7557
14.796
6.04647
2.528
0.703287
-0.40396
-1.13893
-1.6533
-2.02507
-2.29891
-2.50226
-2.65282
-2.76235
-2.83869
-2.88701
-2.91043
9.35675
5.73476
3.0855
1.35846
0.207981
-0.58893
-1.15963
-1.57823
-1.88988
-2.12327
-2.29726
-2.42455
-2.51368
-2.57027
-2.59775
6.43275
4.7475
3.00255
1.61322
0.574388
-0.196015
-0.771568
-1.20566
-1.53519
-1.7855
-1.97413
-2.11324
-2.21124
-2.27372
-2.30414
4.67902
3.80167
2.67262
1.62458
0.75438
0.0615883
-0.481739
-0.9057
-1.2355
-1.49056
-1.68536
-1.83048
-1.93345
-1.99943
-2.03165
3.53452
3.0306
2.28642
1.51242
0.811169
0.215396
-0.274801
-0.671125
-0.987695
-1.23745
-1.43109
-1.57697
-1.68132
-1.74857
-1.78151
2.73995
2.42637
1.92091
1.34973
0.794704
0.295884
-0.133051
-0.491929
-0.786284
-1.02331
-1.20998
-1.35228
-1.45496
-1.52152
-1.55424
2.16312
1.95535
1.60104
1.17581
0.739199
0.327839
-0.0399512
-0.357538
-0.624681
-0.844129
-1.01967
-1.15509
-1.25367
-1.31796
-1.34967
1.73057
1.58609
1.33039
1.0098
0.666151
0.329536
0.0182852
-0.258176
-0.496194
-0.695434
-0.857214
-0.983478
-1.07619
-1.13702
-1.16713
1.39833
1.29406
1.10481
0.859789
0.588214
0.313616
0.0523615
-0.185507
-0.394633
-0.572749
-0.719418
-0.835156
-0.920849
-0.977392
-1.00548
1.1385
1.06104
0.917938
0.728215
0.512372
0.288428
0.0701972
-0.132798
-0.314605
-0.471896
-0.603097
-0.707694
-0.785743
-0.837524
-0.863327
0.932452
0.873581
0.76344
0.614774
0.442152