/*--------------------------------*- C++ -*----------------------------------*\
| =========                 |                                                 |
| \\      /  F ield         | OpenFOAM: The Open Source CFD Toolbox           |
|  \\    /   O peration     | Version:  5.x                                   |
|   \\  /    A nd           | Web:      www.OpenFOAM.org                      |
|    \\/     M anipulation  |                                                 |
\*---------------------------------------------------------------------------*/
FoamFile
{
    version     2.0;
    format      ascii;
    class       volScalarField;
    location    "5.1";
    object      gradTy;
}
// * * * * * * * * * * * * * * * * * * * * * * * * * * * * * * * * * * * * * //

dimensions      [0 -1 0 1 0 0 0];

internalField   nonuniform List<scalar> 
6300
(
1076.81
1230.84
1386.05
1543.2
1703.03
1866.17
2033.2
2204.55
2380.53
2561.23
2746.54
2936.1
3129.3
3325.27
3522.92
-0.59675
-1.77805
-2.92174
-3.9996
-4.97904
-5.82199
-6.48469
-6.91878
-7.07411
-6.90358
-6.37009
-5.45492
-4.16589
-2.54309
-0.659222
-1.00817
-3.00524
-4.94277
-6.7755
-8.45022
-9.90371
-11.0618
-11.8409
-12.1519
-11.9086
-11.04
-9.50589
-7.31299
-4.52774
-1.27877
-1.43887
-4.29195
-7.06855
-9.70926
-12.1425
-14.2806
-16.0178
-17.2308
-17.7836
-17.5386
-16.3752
-14.2153
-11.0521
-6.97581
-2.18239
-1.89418
-5.65509
-9.33014
-12.8504
-16.1297
-19.0582
-21.4979
-23.2808
-24.2128
-24.0867
-22.7068
-19.9277
-15.7043
-10.1409
-3.51789
-2.3769
-7.10398
-11.7463
-16.2324
-20.4674
-24.3243
-27.6344
-30.1811
-31.6997
-31.8883
-30.437
-27.0837
-21.6958
-14.3649
-5.47606
-2.88635
-8.63753
-14.3187
-19.8651
-25.1831
-30.137
-34.5339
-38.1091
-40.5163
-41.3291
-40.0686
-36.274
-29.6301
-20.1463
-8.32669
-3.4173
-10.2409
-17.0258
-23.7259
-30.2625
-36.5062
-42.2544
-47.2046
-50.9266
-52.8424
-52.2337
-48.3128
-40.4036
-28.2632
-12.4829
-3.95916
-11.8829
-19.8173
-27.7497
-35.6343
-43.3703
-50.7722
-57.5275
-63.1424
-66.8793
-67.71
-64.3392
-55.4075
-40.0194
-18.6433
-4.49554
-13.514
-22.6105
-31.8211
-41.1542
-50.5679
-59.9357
-68.99
-77.2352
-83.8214
-87.3867
-85.9256
-76.8671
-57.7634
-28.1355
-5.00443
-15.067
-25.2891
-35.7697
-46.5928
-57.8106
-69.4118
-81.2606
-92.9858
-103.783
-112.089
-115.108
-108.371
-86.0313
-43.8858
-5.45952
-16.4604
-27.7088
-39.3752
-51.6359
-64.6693
-78.6393
-93.6536
-109.663
-126.236
-142.075
-154.047
-155.476
-134.104
-73.6483
-5.83264
-17.6061
-29.7102
-42.3858
-55.9057
-70.5902
-86.8213
-105.05
-125.775
-149.42
-175.925
-203.526
-225.382
-221.257
-142.643
-6.09748
-18.4209
-31.1397
-44.5513
-59.0103
-74.9637
-93.0041
-113.95
-138.966
-169.742
-208.678
-258.749
-321.264
-382.896
-350.196
-6.23371
-18.8402
-31.8759
-45.6689
-60.6194
-77.249
-96.2806
-118.776
-146.394
-181.901
-230.293
-301.524
-418.024
-638.861
-1150.97
3704.47
3868.92
4031.96
4192.78
4350.6
4504.73
4654.52
4799.4
4938.91
5072.64
5200.25
5321.48
5436.11
5543.98
5644.95
5738.92
5825.85
5905.7
5978.45
6044.14
6102.8
6154.5
6199.32
6237.38
6268.79
6293.7
6312.24
6324.57
6330.87
6331.29
6326.01
6315.2
6299.04
6277.68
6251.29
6220.05
6184.09
6143.59
6098.68
6049.52
5996.26
5939.05
5878.03
5813.35
5745.14
5673.55
5598.71
5520.75
5439.79
5355.94
5269.32
5180.02
5088.14
4993.78
4897.04
4798.02
4696.8
4593.51
4488.25
4381.12
4272.25
4161.74
4049.71
3936.28
3821.55
3705.66
3588.71
3470.83
3352.16
3232.84
3113.03
2992.93
2872.71
2752.62
2632.88
2513.74
2395.48
2278.38
2162.73
2048.8
1936.89
1827.26
1720.2
1615.95
1514.72
1416.74
1322.15
1231.1
1143.67
1059.89
1.21645
2.96325
4.68815
6.3349
7.85915
9.23084
10.4343
11.4665
12.3344
13.0512
13.6336
14.0989
14.4631
14.7399
14.9401
15.0717
15.1406
15.1512
15.107
15.0112
14.8674
14.6792
14.451
14.1873
13.8933
13.5742
13.235
12.881
12.5172
12.1481
11.7778
11.4098
11.0469
10.6909
10.3426
10.002
9.66857
9.34098
9.0179
8.69819
8.38123
8.06713
7.7569
7.45225
7.15549
6.86904
6.59509
6.33512
6.08959
5.85769
5.63737
5.42552
5.21834
5.01182
4.80235
4.58715
4.36466
4.13465
3.89809
3.65677
3.41279
3.16791
2.92292
2.67716
2.42822
2.17191
1.90253
1.61338
1.29751
0.94852
0.561362
0.132965
-0.33735
-0.847751
-1.39404
-1.97004
-2.56802
-3.17929
-3.79456
-4.40424
-4.9985
-5.56725
-6.09992
-6.58543
-7.01218
-7.36847
-7.64327
-7.82719
-7.91371
-7.90014
1.96032
4.97268
7.93705
10.7523
13.3408
15.6521
17.6628
19.3724
20.7976
21.9658
22.9089
23.6587
24.244
24.688
25.0086
25.2184
25.3262
25.3382
25.2593
25.0942
24.8484
24.5279
24.14
23.6926
23.1943
22.654
22.0805
21.4826
20.8689
20.2471
19.6244
19.0068
18.3991
17.8042
17.2237
16.6573
16.1034
15.5595
15.0229
14.4911
13.9626
13.4376
12.9177
12.4064
11.9079
11.4271
10.9682
10.5342
10.1263
9.74306
9.38085
9.03385
8.69492
8.35652
8.01183
7.65568
7.28528
6.90044
6.50335
6.09787
5.6885
5.27915
4.87195
4.46624
4.05806
3.63999
3.2017
2.73088
2.21464
1.64107
1.00072
0.287834
-0.498911
-1.35623
-2.27656
-3.2488
-4.25931
-5.2929
-6.33366
-7.36545
-8.37203
-9.33679
-10.2423
-11.07
-11.7998
-12.4112
-12.8841
-13.201
-13.3495
-13.3242
2.60745
7.05214
11.4017
15.4975
19.2228
22.5075
25.3261
27.6892
29.6326
31.2061
32.4639
33.4573
34.2299
34.8156
35.2383
35.5138
35.6517
35.658
35.5375
35.2955
34.9387
34.4756
33.9166
33.2732
32.5579
31.7836
30.9632
30.1093
29.2342
28.3496
27.4658
26.5919
25.7348
24.8991
24.0866
23.2966
22.5259
21.7699
21.0232
20.2812
19.5411
18.8026
18.0684
17.3441
16.637
15.9556
15.3073
14.6978
14.1293
13.6001
13.1043
12.6324
12.1726
11.7121
11.2396
10.7465
10.2284
9.68556
9.12234
8.54618
7.96576
7.38886
6.82033
6.26037
5.70355
5.13857
4.54905
3.91509
3.21562
2.43102
1.54572
0.550226
-0.557716
-1.77288
-3.08326
-4.47144
-5.91638
-7.39524
-8.88475
-10.3621
-11.805
-13.1908
-14.4961
-15.6946
-16.7574
-17.6528
-18.3489
-18.8167
-19.035
-18.9939
3.12451
9.26859
15.2315
20.7763
25.7391
30.0342
33.6456
36.6108
39.0005
40.9013
42.4001
43.5742
44.4854
45.1781
45.6805
46.0079
46.1671
46.1608
45.9912
45.6626
45.1825
44.5621
43.8153
42.958
42.0072
40.9803
39.8946
38.767
37.614
36.4514
35.2937
34.1534
33.0404
31.9612
30.9179
29.9088
28.9281
27.9674
27.0174
26.0694
25.118
24.1621
23.2058
22.2576
21.3301
20.437
19.5914
18.8031
18.0766
17.4099
16.7941
16.2145
15.6518
15.0858
14.4977
13.874
13.208
12.5007
11.7607
11.0014
10.2387
9.48723
8.75705
8.05068
7.36146
6.67317
5.96104
5.19429
4.3398
3.36659
2.25002
0.975145
-0.461518
-2.05183
-3.77734
-5.61174
-7.52404
-9.48164
-11.4528
-13.4079
-15.3194
-17.1605
-18.9029
-20.5142
-21.9554
-23.181
-24.1419
-24.7914
-25.0935
-25.0306
3.49032
11.7466
19.6642
26.8941
33.2176
38.5459
42.8967
46.3619
49.0737
51.1765
52.8052
54.0712
55.0571
55.8162
56.376
56.7456
56.9223
56.9003
56.6754
56.2493
55.6302
54.8324
53.8748
52.7791
51.5679
50.2636
48.8882
47.4632
46.0097
44.5483
43.0984
41.6775
40.2996
38.9734
37.7021
36.4821
35.3035
34.1519
33.0107
31.8646
30.7035
29.5244
28.3332
27.1436
25.9756
24.8521
23.795
22.8214
21.9397
21.1482
20.4339
19.7739
19.1379
18.493
17.8091
17.0643
16.2486
15.3649
14.4285
13.4632
12.497
11.5566
10.6611
9.81785
9.01957
8.24357
7.45313
6.60122
5.63633
4.50991
3.18356
1.63431
-0.142832
-2.1349
-4.31341
-6.63871
-9.06532
-11.5474
-14.0429
-16.5154
-18.9341
-21.2712
-23.4977
-25.5778
-27.4628
-29.0894
-30.3825
-31.2657
-31.6767
-31.5839
3.70505
14.7126
25.0869
34.3168
42.129
48.4647
53.4227
57.1971
60.0233
62.1345
63.7322
64.9713
65.9554
66.7409
67.3456
67.7607
67.9637
67.9317
67.6494
67.1139
66.335
65.3326
64.1333
62.7667
61.2626
59.6493
57.9534
56.2008
54.4171
52.6287
50.8616
49.1402
47.4843
45.9071
44.4129
42.9959
41.6403
40.3217
39.0113
37.682
36.3152
34.9047
33.4588
31.999
30.5574
29.1719
27.879
26.7077
25.6736
24.7759
23.9961
23.2991
22.6373
21.9569
21.2087
20.3573
19.3875
18.3058
17.1384
15.9266
14.719
13.5619
12.4905
11.5209
10.6462
9.83537
9.03435
8.17143
7.16603
5.94169
4.43867
2.62217
0.485906
-1.94891
-4.63755
-7.5192
-10.5261
-13.5933
-16.6654
-19.6997
-22.6655
-25.5403
-28.3027
-30.9214
-33.3417
-35.4773
-37.2126
-38.4191
-38.9847
-38.8503
3.8196
18.5902
32.1572
43.7801
53.1655
60.3658
65.6509
69.3957
72.0003
73.8294
75.1734
76.2362
77.1373
77.9237
78.586
79.0786
79.3412
79.3209
78.9852
78.3264
77.359
76.1136
74.6299
72.9495
71.1119
69.1512
67.0978
64.9803
62.8287
60.6758
58.5566
56.506
54.5533
52.7189
51.0101
49.4191
47.9216
46.4775
45.0367
43.5511
41.9876
40.334
38.6022
36.8259
35.0567
33.3562
31.786
30.3945
29.2094
28.232
27.4372
26.7722
26.1617
25.5169
24.7551
23.8193
22.6861
21.3684
19.9108
18.3829
16.8667
15.4427
14.172
13.0861
12.1799
11.412
10.7038
9.94586
9.01011
7.77389
6.14435
4.06973
1.54382
-1.3981
-4.68437
-8.21989
-11.9004
-15.6324
-19.3425
-22.9829
-26.528
-29.9714
-33.3147
-36.5504
-39.6304
-42.4411
-44.8039
-46.4948
-47.3003
-47.1056
4.00557
24.2003
42.0257
56.4641
67.3467
75.0229
80.0944
83.2326
85.0903
86.2188
87.0151
87.7299
88.4796
89.2808
90.0659
90.7229
91.1209
91.1595
90.7811
89.978
88.7777
87.2326
85.4041
83.3535
81.1328
78.7812
76.3289
73.8037
71.2368
68.6689
66.1475
63.7253
61.4467
59.3446
57.4322
55.7026
54.1208
52.6234
51.1214
49.5275
47.7846
45.8708
43.805
41.6376
39.4522
37.3483
35.4311
33.7797
32.4414
31.421
30.687
30.1627
29.7314
29.2411
28.5484
27.5618
26.2465
24.6289
22.7809
20.8188
18.8782
17.0994
15.5844
14.3892
13.5116
12.8998
12.4419
11.9737
11.2843
10.17
8.48857
6.16489
3.19863
-0.353452
-4.37419
-8.71355
-13.2024
-17.7045
-22.1213
-26.4044
-30.538
-34.5474
-38.4823
-42.4041
-46.3072
-50.0499
-53.363
-55.8452
-57.056
-56.7635
4.75986
33.2211
56.77
74.2664
86.1439
93.43
97.3206
98.9121
99.2283
99.0842
98.9718
99.1705
99.7454
100.658
101.728
102.737
103.415
103.595
103.186
102.198
100.69
98.7566
96.4952
93.9992
91.339
88.5534
85.6619
82.6839
79.6436
76.592
73.5928
70.7349
68.0832
65.6944
63.5881
61.7708
60.1956
58.7733
57.3361
55.7158
53.8251
51.6242
49.1517
46.4729
43.7282
41.0692
38.6912
36.712
35.2136
34.1954
33.6328
33.4173
33.3839
33.2549
32.7629
31.776
30.2402
28.2196
25.8135
23.2223
20.6552
18.375
16.5348
15.2338
14.4594
14.1645
14.1938
14.3191
14.1692
13.3818
11.7566
9.18448
5.6962
1.36534
-3.60582
-8.99245
-14.4859
-19.8999
-25.0929
-30.0414
-34.727
-39.2307
-43.6685
-48.2844
-53.2145
-58.2767
-63.118
-67.0255
-68.9756
-68.4869
7.59248
49.3154
80.229
100.158
111.552
116.727
117.859
116.43
114.031
111.907
110.483
110.072
110.528
111.812
113.478
115.231
116.431
116.884
116.425
115.173
113.219
110.757
107.928
104.886
101.73
98.4821
95.1241
91.6584
88.0712
84.4443
80.8391
77.4525
74.346
71.6421
69.3328
67.4954
66.0551
64.9494
63.8192
62.2982
60.3174
57.7735
54.8005
51.408
47.8857
44.3904
41.3817
38.957
37.299
36.3184
36.0834
36.4143
37.1788
37.7959
37.6945
36.7848
34.9367
32.3697
29.1171
25.5954
22.0234
19.0212
16.7129
15.3242
14.7205
14.9663
15.811
17.064
17.9757
17.8031
16.3916
13.5265
9.41027
4.00933
-2.23603
-9.11445
-15.8806
-22.4106
-28.4135
-34.0542
-39.1751
-44.0063
-48.5958
-53.7095
-59.9291
-66.8192
-74.2151
-81.0222
-84.405
-83.4127
17.7338
80.9756
119.507
138.34
145.913
145.843
142.081
135.343
128.436
123.717
120.532
119.724
120.113
122.413
125.102
128.518
130.516
131.484
130.801
129.154
126.476
123.28
119.665
115.93
112.251
108.565
104.738
100.804
96.5523
92.2616
87.7674
83.763
80.0258
77.018
74.3945
72.6447
71.4295
71.1575
70.8618
69.5397
67.6173
64.5378
61.0501
56.5269
52.0015
47.008
43.2285
40.0954
38.4062
37.3654
37.7164
38.7846
41.1833
43.3692
43.7877
43.1429
40.6661
37.5047
32.8063
28.0389
22.5692
18.6664
15.5653
14.2823
13.7568
14.9041
16.8388
20.2993
23.3419
24.0072
23.1186
19.6687
14.9732
7.86818
0.0444091
-9.39899
-17.6161
-25.681
-32.2559
-38.8158
-44.0405
-49.1298
-52.7682
-57.5416
-65.6779
-74.6327
-86.1594
-99.9489
-106.133
-103.599
56.4339
148.218
187.147
192.739
191.277
180.276
170.585
154.497
139.687
133.317
127.158
127.647
126.943
132.452
135.675
143.842
146.085
148.455
146.563
144.615
140.477
136.402
131.573
126.891
122.779
118.85
114.501
110.405
105.087
100.369
93.9874
89.6859
84.6524
81.8379
78.1955
77.0214
75.4429
77.3972
79.3799
77.6428
76.581
71.8872
68.7885
61.6465
56.7892
47.8754
44.1421
39.1528
38.5775
36.4061
38.3148
39.237
45.4922
51.4859
51.4101
52.1371
47.3797
44.8511
36.5934
31.492
20.8574
17.1558
11.7982
12.1487
10.383
13.707
15.6686
24.135
32.1305
32.4478
33.5326
27.604
24.0047
12.7613
4.6564
-11.4499
-19.5713
-31.097
-36.1203
-45.5002
-49.1008
-56.3421
-55.3061
-56.5307
-70.2473
-78.742
-94.8439
-129.826
-140.415
-132.856
223.573
291.57
302.789
257.293
250.372
212.822
208.3
171.809
138.785
142.612
124.211
137.289
124.824
145.782
139.127
167.698
161.467
171.564
162.406
163.228
154.387
150.609
143.27
137.03
133.044
129.738
123.902
121.764
112.758
110.873
97.2128
96.6633
86.0846
87.8506
78.4427
81.9815
74.3699
83.5967
93.2555
84.7742
90.7755
76.9405
82.3503
63.4773
67.4195
41.284
46.8656
31.8553
41.0484
29.5731
40.3348
32.0113
50.1791
68.3434
57.8777
69.0298
50.8848
60.4488
35.8369
42.9142
9.1638
18.0315
-0.186789
13.0638
-0.318164
14.4731
5.13291
28.6502
51.9764
39.7843
54.0466
32.1859
44.0449
13.1361
20.7916
-24.9976
-16.6229
-45.8748
-33.7097
-60.5051
-48.917
-75.4721
-54.5869
-37.53
-82.3342
-71.8953
-76.339
-194.824
-200.828
-178.178
1043.91
516.676
500.093
266.296
353.57
197.8
292.048
184.124
84.8128
183.911
75.93
183.71
74.5742
198.869
91.8493
241.664
153.334
222.392
163.873
195.75
161.001
169.94
153.377
143.919
142.323
144.265
127.975
143.006
110.169
138.328
81.5547
118.078
69.7361
109.949
60.0425
102.994
49.0451
89.1699
133.249
71.0463
133.53
54.2772
130.875
32.4503
121.358
-10.9833
79.2379
-10.2985
73.2787
-9.28431
69.8346
-13.3651
54.8677
126.425
33.2122
128.107
14.4858
125.257
-10.5547
113.126
-63.9019
57.9091
-57.4887
52.3278
-51.5903
49.9867
-52.7191
33.4386
122.967
9.02427
126.576
-11.7904
125.669
-42.0233
113.886
-116.542
40.5068
-120.294
24.8037
-130.782
6.19287
-162.916
-48.355
70.5506
-173.971
-43.6168
106.386
-421.793
-302.499
-253.807
971.76
880.797
794.838
713.626
636.847
564.139
495.112
429.358
366.467
306.029
247.642
190.915
135.464
80.919
26.9132
-7.77695
-7.5103
-7.1293
-6.65659
-6.11642
-5.5319
-4.92302
-4.30567
-3.69136
-3.08747
-2.49782
-1.92331
-1.36265
-0.812931
-0.270181
-13.1083
-12.644
-11.9839
-11.1692
-10.2434
-9.24697
-8.21452
-7.17282
-6.14076
-5.13003
-4.14624
-3.19016
-2.25894
-1.34715
-0.447649
-18.6679
-17.9732
-16.9929
-15.7928
-14.4406
-12.9979
-11.5151
-10.0302
-8.56871
-7.14556
-5.76687
-4.43209
-3.13577
-1.86905
-0.62091
-24.5663
-23.5876
-22.2212
-20.5681
-18.7282
-16.7886
-14.8177
-12.8639
-10.9582
-9.1165
-7.34349
-5.63549
-3.98293
-2.37235
-0.787838
-30.9364
-29.5892
-27.7358
-25.5297
-23.1151
-20.6104
-18.1027
-15.6494
-13.2834
-11.0186
-8.855
-6.78334
-4.78803
-2.84953
-0.945923
-37.9465
-36.0964
-33.6023
-30.6992
-27.5917
-24.4348
-21.3329
-18.3474
-15.5073
-12.8192
-10.2744
-7.85472
-5.53625
-3.29176
-1.09223
-45.82
-43.2472
-39.8773
-36.0724
-32.117
-28.2038
-24.4463
-20.8994
-17.579
-14.4763
-11.5685
-8.82476
-6.2104
-3.68898
-1.22345
-54.8632
-51.1945
-46.5866
-41.5955
-36.5996
-31.8167
-27.3486
-23.2247
-19.4325
-15.9383
-12.6983
-9.66525
-6.79147
-4.03026
-1.33601
-65.5013
-60.0803
-53.6786
-47.1227
-40.8687
-35.114
-29.9063
-25.2177
-20.9878
-17.1459
-13.621
-10.3463
-7.25987
-4.3045
-1.42634
-78.3017
-69.9453
-60.9236
-52.3471
-44.6379
-37.8638
-31.9442
-26.7515
-22.1548
-18.0361
-14.2932
-10.8388
-7.5971
-4.50147
-1.49114
-93.8816
-80.4741
-67.7223
-56.7033
-47.4709
-39.7585
-33.2548
-27.6887
-22.8433
-18.55
-14.6768
-11.1183
-7.78817
-4.61307
-1.52787
-112.267
-90.3462
-72.7869
-59.272
-48.783
-40.4437
-33.6274
-27.9045
-22.9794
-18.6437
-14.7453
-11.1691
-7.8241
-4.63467
-1.5351
-130.109
-95.8551
-73.8059
-58.8139
-47.9444
-39.6051
-32.9058
-27.3221
-22.5258
-18.2996
-14.4914
-10.9887
-7.70426
-4.56635
-1.51291
-129.765
-89.1574
-67.7663
-54.232
-44.5749
-37.1256
-31.0682
-25.9518
-21.5017
-17.5373
-13.9316
-10.5899
-7.43775
-4.41347
-1.46309
-6.24184
-18.8643
-31.9152
-45.7223
-60.6864
-77.3309
-96.3836
-118.919
-146.626
-182.351
-231.32
-304.156
-425.217
-657.997
-1188.14
-6.14297
-18.5582
-31.3716
-44.8847
-59.4599
-75.5595
-93.8065
-115.079
-140.67
-172.545
-213.722
-268.579
-341.311
-422.054
-402.149
-5.95425
-17.9754
-30.3418
-43.3092
-57.174
-72.2963
-89.1271
-108.24
-130.351
-156.276
-186.623
-220.588
-251.839
-255.999
-160.868
-5.68724
-17.1526
-28.8945
-41.11
-54.0145
-67.846
-82.8623
-99.3169
-117.382
-136.934
-157.008
-174.48
-181.181
-158.892
-76.9496
-5.35706
-16.1376
-27.118
-38.432
-50.2105
-62.5722
-75.5977
-89.275
-103.379
-117.228
-129.197
-135.848
-130.652
-103.21
-43.0007
-4.98067
-14.9838
-25.1097
-35.4309
-46.0013
-56.8367
-67.8799
-78.9355
-89.5532
-98.8274
-105.08
-105.443
-95.5695
-70.2823
-26.9626
-4.57525
-13.7445
-22.9654
-32.2566
-41.6076
-50.9563
-60.1527
-68.8992
-76.6589
-82.5237
-85.0517
-82.1463
-71.1896
-49.8766
-18.2892
-4.15677
-12.4691
-20.7722
-29.0404
-37.215
-45.1814
-52.7375
-59.5473
-65.0797
-68.5362
-68.7955
-64.44
-54.0008
-36.6054
-13.0817
-3.73912
-11.2
-18.6029
-25.8891
-32.9666
-39.6911
-45.8401
-51.0822
-54.9413
-56.7681
-55.7433
-50.958
-41.6421
-27.5897
-9.70703
-3.3335
-9.97098
-16.5144
-22.8824
-28.9632
-34.6
-39.5722
-43.5771
-46.2137
-46.9799
-45.3019
-40.6219
-32.5721
-21.2337
-7.39577
-2.94834
-8.80718
-14.5477
-20.0748
-25.2679
-29.97
-33.9757
-37.022
-38.7845
-38.8885
-36.9447
-32.6255
-25.7856
-16.6132
-5.7467
-2.58942
-7.72545
-12.7291
-17.4989
-21.9134
-25.8233
-29.0452
-31.358
-32.5069
-32.2188
-30.2369
-26.3792
-20.6187
-13.1689
-4.53295
-2.26019
-6.73554
-11.0728
-15.1696
-18.909
-22.1541
-24.7456
-26.5021
-27.227
-26.7251
-24.8315
-21.4539
-16.6249
-10.5482
-3.61772
-1.9622
-5.8415
-9.58322
-13.0884
-16.2476
-18.9386
-21.0257
-22.3622
-22.7987
-22.1976
-20.4563
-17.5365
-13.4973
-8.52038
-2.91422
-1.69553
-5.04293
-8.25787
-11.2472
-13.9112
-16.1424
-17.8267
-18.847
-19.0906
-18.4619
-16.8993
-14.3961
-11.0207
-6.92944
-2.36506
-1.45914
-4.33629
-7.08912
-9.63186
-11.8751
-13.7257
-15.0888
-15.8711
-15.9882
-15.3744
-13.9953
-11.8614
-9.04124
-5.66697
-1.93096
-1.2513
-3.71594
-6.06619
-8.22442
-10.1115
-11.6476
-12.7539
-13.3568
-13.3932
-12.8184
-11.6151
-9.8032
-7.44643
-4.65566
-1.58428
-1.06982
-3.17498
-5.17654
-7.00517
-8.5916
-9.86771
-10.7686
-11.2359
-11.2225
-10.6986
-9.65764
-8.12324
-6.15294
-3.83917
-1.30505
-0.912276
-2.70592
-4.40694
-5.95405
-7.28711
-8.3483
-9.0842
-9.44861
-9.40634
-8.93763
-8.04272
-6.7459
-5.0979
-3.17565
-1.07858
-0.776187
-2.30115
-3.74416
-5.05153
-6.17133
-7.05471
-7.6577
-7.94364
-7.88619
-7.47257
-6.70682
-5.61236
-4.23327
-2.63351
-0.893825
-0.659124
-1.95328
-3.17554
-4.27919
-5.21968
-5.95577
-6.45129
-6.67706
-6.6133
-6.25197
-5.59912
-4.67643
-3.52183
-2.18852
-0.74237
-0.558782
-1.65533
-2.68924
-3.62014
-4.4099
-5.02384
-5.43213
-5.61149
-5.54697
-5.23376
-4.67875
-3.9015
-2.93445
-1.82186
-0.617706
-0.473027
-1.40086
-2.27445
-3.05905
-3.72218
-4.23466
-4.5719
-4.71522
-4.65329
-4.38342
-3.91266
-3.25835
-2.4481
-1.51877
-0.514745
-0.39992
-1.18404
-1.92143
-2.5823
-3.13904
-3.56714
-3.84628
-3.96144
-3.90396
-3.67254
-3.27398
-2.72347
-2.04441
-1.26754
-0.42946
-0.337724
-0.999675
-1.62152
-2.17784
-2.64519
-3.00302
-3.23451
-3.32751
-3.27537
-3.0777
-2.74079
-2.27784
-1.70863
-1.05881
-0.358643
-0.284898
-0.843146
-1.36711
-1.83513
-2.22739
-2.52661
-2.71887
-2.79432
-2.74783
-2.57952
-2.29511
-1.90597
-1.4288
-0.885026
-0.299713
-0.240088
-0.710416
-1.15153
-1.54503
-1.87416
-2.12445
-2.28434
-2.3458
-2.30485
-2.16193
-1.92213
-1.5952
-1.19523
-0.740079
-0.250581
-0.202114
-0.597969
-0.968997
-1.29961
-1.57567
-1.78504
-1.91813
-1.96837
-1.93266
-1.81159
-1.60965
-1.33515
-0.999949
-0.618979
-0.209546
-0.169952
-0.502758
-0.814521
-1.09206
-1.32347
-1.49858
-1.60942
-1.65062
-1.61972
-1.51739
-1.34755
-1.11724
-0.836445
-0.517639
-0.175217
-0.142719
-0.422154
-0.683801
-0.916543
-1.11036
-1.25674
-1.34907
-1.38292
-1.35636
-1.27007
-1.12741
-0.934376
-0.699331
-0.432695
-0.146448
-0.119654
-0.353899
-0.573148
-0.768044
-0.930178
-1.05243
-1.12931
-1.15717
-1.13447
-1.06187
-0.942256
-0.780675
-0.584147
-0.361364
-0.122295
-0.100104
-0.296054
-0.4794
-0.642289
-0.777678
-0.879628
-0.943569
-0.966515
-0.947228
-0.886312
-0.786232
-0.651234
-0.48719
-0.301341
-0.101974
-0.0835081
-0.246959
-0.399854
-0.535624
-0.648391
-0.73321
-0.786291
-0.805178
-0.788881
-0.737943
-0.654448
-0.541959
-0.40537
-0.250702
-0.0848324
-0.069388
-0.205191
-0.332195
-0.44493
-0.538506
-0.608823
-0.652749
-0.668268
-0.654583
-0.612174
-0.542794
-0.449414
-0.3361
-0.207841
-0.0703254
-0.0573318
-0.169532
-0.274442
-0.367535
-0.444768
-0.502758
-0.538928
-0.55163
-0.540225
-0.505128
-0.447801
-0.370707
-0.277204
-0.171406
-0.0579948
-0.0469856
-0.138933
-0.224894
-0.30115
-0.364388
-0.411839
-0.441399
-0.451728
-0.442316
-0.413513
-0.366531
-0.30339
-0.226845
-0.140257
-0.047454
-0.0380443
-0.112491
-0.182081
-0.243802
-0.294969
-0.333341
-0.357221
-0.365531
-0.357867
-0.33452
-0.296478
-0.24538
-0.183456
-0.113424
-0.0383742
-0.0302425
-0.0894206
-0.144732
-0.193781
-0.234431
-0.264903
-0.283852
-0.290424
-0.284304
-0.265729
-0.235488
-0.194886
-0.145695
-0.0900739
-0.0304736
-0.0233481
-0.069034
-0.111732
-0.149589
-0.180958
-0.204466
-0.219074
-0.224128
-0.219387
-0.205038
-0.18169
-0.150355
-0.112398
-0.0694864
-0.0235081
-0.0171548
-0.0507217
-0.0820915
-0.109902
-0.132943
-0.150206
-0.160929
-0.164632
-0.16114
-0.150593
-0.133438
-0.11042
-0.0825419
-0.0510275
-0.017263
-0.0114773
-0.0339347
-0.0549216
-0.0735268
-0.0889398
-0.100486
-0.107657
-0.110131
-0.107792
-0.100734
-0.0892566
-0.0738581
-0.0552102
-0.0341306
-0.0115466
-0.00614489
-0.0181686
-0.0294053
-0.0393672
-0.0476205
-0.0538039
-0.0576449
-0.0589714
-0.0577206
-0.0539423
-0.0477975
-0.0395523
-0.0295665
-0.018278
-0.00618359
-0.000997179
-0.00294877
-0.00477382
-0.00639365
-0.00773799
-0.00874792
-0.00937849
-0.0096008
-0.00940352
-0.00879366
-0.00779653
-0.00645486
-0.00482711
-0.00298494
-0.00100997
0.00412085
0.0121832
0.0197152
0.0263886
0.0319124
0.0360448
0.0386045
0.0394785
0.0386272
0.0360861
0.0319653
0.026444
0.0197634
0.0122159
0.00413243
0.0093634
0.0276834
0.0448002
0.0599691
0.0725286
0.0819293
0.0877578
0.0897557
0.0878309
0.0820627
0.0726994
0.0601477
0.0449558
0.0277889
0.00940074
0.0148884
0.0440188
0.0712376
0.0953612
0.115338
0.130294
0.139571
0.142756
0.139703
0.130535
0.115647
0.0956844
0.0715191
0.0442098
0.014956
0.0208621
0.0616812
0.0998238
0.133632
0.161633
0.1826
0.195612
0.200088
0.195819
0.182979
0.162117
0.134139
0.100265
0.0619807
0.020968
0.027464
0.0812017
0.131419
0.175935
0.21281
0.24043
0.257579
0.26349
0.257886
0.240991
0.213528
0.176686
0.132073
0.0816456
0.027621
0.0348922
0.103166
0.166972
0.223542
0.270412
0.30553
0.327347
0.334887
0.327791
0.306341
0.27145
0.224627
0.167918
0.103808
0.0351191
0.0433689
0.128232
0.20755
0.277883
0.336171
0.379863
0.407028
0.416445
0.407662
0.381021
0.337654
0.279433
0.2089
0.129148
0.0436931
0.0531471
0.157148
0.254364
0.340586
0.412064
0.465669
0.499028
0.510637
0.499929
0.467314
0.414169
0.342787
0.256281
0.158449
0.0536073
0.0645174
0.190774
0.308811
0.413525
0.500366
0.56553
0.606129
0.620321
0.607404
0.567859
0.503346
0.416641
0.311524
0.192616
0.0651689
0.0778163
0.230107
0.372506
0.498871
0.603715
0.682445
0.731563
0.748826
0.733364
0.685737
0.607928
0.503276
0.376343
0.23271
0.0787373
0.0934354
0.276305
0.447334
0.599157
0.725193
0.819918
0.87911
0.900048
0.881655
0.824568
0.731145
0.605381
0.452753
0.279984
0.0947366
0.111832
0.330725
0.535493
0.717345
0.868408
0.982058
1.05321
1.07858
1.05681
0.988625
0.876813
0.726134
0.543147
0.33592
0.11367
0.133541
0.39495
0.639562
0.856908
1.0376
1.1737
1.25911
1.28982
1.26418
1.18297
1.04946
0.869318
0.650369
0.402285
0.136135
0.159187
0.470835
0.762558
1.02192
1.23773
1.40053
1.50297
1.5402
1.51013
1.41362
1.25449
1.03944
0.777816
0.481191
0.16285
0.189504
0.560553
0.908021
1.21716
1.47468
1.66926
1.7921
1.83729
1.80221
1.68775
1.49833
1.2419
0.929561
0.575173
0.194675
0.225345
0.66664
1.08009
1.44824
1.75532
1.98781
2.13513
2.1901
2.14941
2.0139
1.78871
1.48316
1.1105
0.687281
0.232646
0.267707
0.792058
1.2836
1.72173
2.08772
2.36548
2.54227
2.60932
2.56243
2.40231
2.13486
1.77103
1.32654
0.8212
0.278015
0.317748
0.940252
1.5242
2.0453
2.48138
2.81326
3.02559
3.10765
3.05404
2.86524
2.54792
2.11489
1.58481
0.981395
0.332302
0.376809
1.11521
1.80843
2.42788
2.94737
3.34403
3.59935
3.70016
3.63951
3.41741
3.0413
2.52613
1.894
1.1733
0.397359
0.446434
1.32154
2.14385
2.87986
3.49863
3.97292
4.28037
4.40476
4.33705
4.07649
3.63122
3.01856
2.26467
1.40356
0.47545
0.52839
1.56452
2.5392
3.41324
4.15019
4.71761
5.0885
5.2427
5.16848
4.8638
4.33735
3.60904
2.70977
1.68033
0.569363
0.624684
1.85014
3.0044
4.04178
4.91943
5.59876
6.04703
6.23923
6.15991
5.80507
5.18361
4.31821
3.24526
2.01369
0.682549
0.737575
2.1852
3.55075
4.78121
5.82635
6.6403
7.18334
7.42424
7.34261
6.93144
6.19923
5.17146
3.89086
2.41619
0.819309
0.869572
2.57724
4.19087
5.64927
6.89378
7.86989
8.52941
8.83315
8.75408
8.28068
7.42003
6.20023
4.67119
2.90353
0.985045
1.02342
3.03454
4.93875
6.66582
8.14752
9.31926
10.1225
10.5078
10.4393
9.89875
8.89018
7.44369
5.61718
3.49557
1.18661
1.20208
3.56606
5.80959
7.8527
9.61644
11.0245
12.0056
12.4976
12.4523
11.8417
10.6644
8.95098
6.76805
4.21769
1.43279
1.40861
4.18119
6.81957
9.23349
11.3323
13.026
14.2282
14.8603
14.8577
14.1781
12.8107
10.7843
8.174
5.10264
1.73497
1.64613
4.88948
7.98534
10.833
13.3293
15.3688
16.8467
17.6636
17.733
16.9922
15.4145
13.0229
9.9001
6.19331
2.10815
1.9176
5.70016
9.32336
12.6766
15.6434
18.1014
19.9241
20.9858
21.1709
20.3872
18.5834
15.769
12.0317
7.54667
2.57239
2.22561
6.62143
10.8488
14.7883
18.3106
21.275
23.5297
24.9165
25.2813
24.4903
22.4539
19.1561
14.6824
9.23973
3.155
2.57209
7.65962
12.574
17.1895
21.3652
24.9413
27.7377
29.5568
30.1942
29.458
27.2003
23.3594
18.0057
11.3786
3.89401
2.95787
8.81795
14.5068
19.8959
24.8359
29.1488
32.624
35.0175
36.0607
35.482
33.0459
28.6132
22.2133
14.1128
4.84371
3.38226
10.0951
16.6475
22.9141
28.7417
33.9378
38.2612
41.4155
43.0533
42.7954
40.2778
35.2327
27.6017
17.6585
6.08385
3.84249
11.4836
18.9866
26.237
33.0857
39.3327
44.7098
48.8664
51.3619
51.6776
49.2647
43.6477
34.5954
22.3371
7.73576
4.33314
12.9679
21.5008
29.8386
37.8474
45.3311
52.0056
57.4704
61.1837
62.4542
60.4761
54.4479
43.8153
28.6425
9.99191
4.84564
14.5229
24.1503
33.6683
42.9734
51.8911
60.1409
67.2902
72.7015
75.4862
74.4997
68.4451
56.1878
37.3628
13.1738
5.36787
16.1122
26.8755
37.6457
48.3679
58.9145
69.04
78.3164
86.0426
91.1364
92.042
86.7492
73.1206
49.8076
17.8546
5.88406
17.6883
29.5957
41.6561
53.8841
66.2297
78.5282
90.4185
101.211
109.694
113.888
110.841
96.7778
68.252
25.1437
6.37514
19.1926
32.2093
45.5496
59.3181
73.5769
88.2994
103.282
117.982
131.23
140.761
142.583
130.477
96.8225
37.418
6.81952
20.5582
34.598
49.1453
64.4112
80.6016
97.889
116.341
135.761
155.345
172.987
183.995
179.14
143.274
60.4084
7.19462
21.7146
36.6339
52.2417
68.8616
86.8638
106.669
128.727
153.425
180.806
209.818
236.421
249.336
222.362
109.754
7.47882
22.5936
38.1915
54.6347
72.3515
91.8733
113.884
139.278
169.223
205.134
248.318
298.351
347.231
360.916
233.333
7.65383
23.1369
39.1616
56.1429
74.5874
95.1538
118.747
146.669
180.877
224.409
282.061
361.08
469.562
597.571
592.383
7.70697
23.3039
39.467
56.6345
75.349
96.3317
120.603
149.693
186.053
233.876
300.962
403.343
578.33
926.718
1770.58
7.63297
23.0775
39.0746
56.0512
74.535
95.2254
119.11
147.669
183.267
229.964
295.349
395.184
566.673
911.779
1758.57
7.43484
22.4673
38.0018
54.4209
72.188
91.9004
114.37
140.754
172.771
213.072
265.811
337.261
434.443
548.44
541.706
7.1236
21.5082
36.3143
51.8539
68.4895
86.6598
106.911
129.925
156.522
187.541
223.278
261.464
290.532
268.938
72.5337
-82.3045
-67.0107
-55.5684
-46.7227
-39.5998
-33.6649
-28.5819
-24.1284
-20.15
-16.5338
-13.1943
-10.0634
-7.08502
-4.21065
-1.39691
-30.8625
-42.7391
-42.1829
-38.4757
-34.1258
-29.8463
-25.8284
-22.1006
-18.6396
-15.4071
-12.3625
-9.46695
-6.68391
-3.97944
-1.32137
-14.0369
-27.101
-30.9849
-30.6747
-28.6025
-25.8456
-22.8731
-19.8872
-16.9702
-14.1496
-11.4272
-8.79218
-6.22817
-3.71596
-1.23515
-7.63453
-17.8375
-22.6993
-24.0968
-23.5542
-21.9942
-19.927
-17.6257
-15.2337
-12.8239
-10.4309
-8.06799
-5.73637
-3.43062
-1.14162
-4.75015
-12.2831
-16.819
-18.866
-19.2123
-18.4947
-17.1432
-15.427
-13.5093
-11.4863
-9.4137
-7.32196
-5.22653
-3.13361
-1.04407
-3.23196
-8.80968
-12.6671
-14.8159
-15.6088
-15.4353
-14.6123
-13.3681
-11.8578
-10.1831
-8.4096
-6.5784
-4.71487
-2.83422
-0.94552
-2.32913
-6.53084
-9.70142
-11.7072
-12.6763
-12.8268
-12.3738
-11.4938
-10.3202
-8.94843
-7.44547
-5.85722
-4.21503
-2.54039
-0.848585
-1.74331
-4.96799
-7.54453
-9.31841
-10.312
-10.6373
-10.4315
-9.82343
-8.92002
-7.80477
-6.54046
-5.17342
-3.73766
-2.25846
-0.75536
-1.33938
-3.85517
-5.94493
-7.47133
-8.41172
-8.81636
-8.76855
-8.35798
-7.66686
-6.76451
-5.70671
-4.53728
-3.29042
-1.9931
-0.667416
-1.04861
-3.03817
-4.73648
-6.0311
-6.88337
-7.30955
-7.35737
-7.08724
-6.56029
-5.83211
-4.9504
-3.95486
-2.87816
-1.74742
-0.585816
-0.8326
-2.42338
-3.80832
-4.89798
-5.65084
-6.0654
-6.16689
-5.99477
-5.59339
-5.00626
-4.27309
-3.42875
-2.50339
-1.52314
-0.511172
-0.668258
-1.95151
-3.08515
-3.99868
-4.65318
-5.03858
-5.16635
-5.06142
-4.7554
-4.28176
-3.67292
-2.95887
-2.16671
-1.32088
-0.443725
-0.540898
-1.5835
-2.51481
-3.27921
-3.84233
-4.1906
-4.32733
-4.26767
-4.03377
-3.65108
-3.14576
-2.54319
-1.86727
-1.14035
-0.38342
-0.440749
-1.29276
-2.06036
-2.69947
-3.18064
-3.48946
-3.62464
-3.59484
-3.41541
-3.10552
-2.6861
-2.1784
-1.60323
-0.980659
-0.329987
-0.361072
-1.06062
-1.6951
-2.22938
-2.63859
-2.90887
-3.03648
-3.02589
-2.88759
-2.63598
-2.28771
-1.86044
-1.3721
-0.840461
-0.283011
-0.297078
-0.873665
-1.3994
-1.84612
-2.19299
-2.42732
-2.54424
-2.54559
-2.43843
-2.23354
-1.94414
-1.58486
-1.17101
-0.718178
-0.241986
-0.245282
-0.722011
-1.15854
-1.53217
-1.82551
-2.02727
-2.13223
-2.14061
-2.05709
-1.88976
-1.64909
-1.34715
-0.996975
-0.612108
-0.20636
-0.203089
-0.598262
-0.961359
-1.27397
-1.5216
-1.69441
-1.78726