/*--------------------------------*- C++ -*----------------------------------*\
| =========                 |                                                 |
| \\      /  F ield         | OpenFOAM: The Open Source CFD Toolbox           |
|  \\    /   O peration     | Version:  5.x                                   |
|   \\  /    A nd           | Web:      www.OpenFOAM.org                      |
|    \\/     M anipulation  |                                                 |
\*---------------------------------------------------------------------------*/
FoamFile
{
    version     2.0;
    format      ascii;
    class       volScalarField;
    location    "2";
    object      gradTx;
}
// * * * * * * * * * * * * * * * * * * * * * * * * * * * * * * * * * * * * * //

dimensions      [0 -1 0 1 0 0 0];

internalField   nonuniform List<scalar> 
6300
(
325.96
327.052
329.195
332.301
336.233
340.802
345.755
350.779
355.49
359.45
362.172
363.148
361.889
357.962
351.042
324.837
325.972
328.201
331.443
335.566
340.385
345.654
351.058
356.21
360.656
363.885
365.353
364.525
360.923
354.182
322.548
323.766
326.165
329.673
334.171
339.487
345.386
351.556
357.604
363.047
367.325
369.82
369.903
366.993
360.637
319.012
320.347
322.99
326.883
331.927
337.975
344.814
352.145
359.57
366.571
372.515
376.667
378.24
376.477
370.765
314.111
315.591
318.536
322.91
328.648
335.642
343.718
352.609
361.925
371.119
379.465
386.061
389.88
389.879
385.173
307.7
309.34
312.622
317.542
324.083
332.196
341.774
352.616
364.371
376.483
388.131
398.198
405.305
407.952
404.791
299.619
301.419
305.041
310.523
317.915
327.252
338.536
351.676
366.426
382.276
398.343
413.261
425.155
431.796
431.032
289.71
291.647
295.569
301.567
309.77
320.333
333.409
349.096
367.346
387.818
409.669
431.312
450.219
463.008
466.071
277.835
279.863
283.994
290.377
299.236
310.871
325.641
343.922
366.011
391.944
421.168
452.058
481.359
503.905
513.362
263.904
265.95
270.141
276.682
285.897
298.245
314.332
334.907
360.799
392.743
430.961
474.352
519.211
557.842
578.691
247.902
249.865
253.91
260.286
269.398
281.852
298.506
320.542
349.501
387.232
435.541
495.135
563.242
629.512
672.461
229.912
231.675
235.325
241.128
249.532
261.229
277.271
299.224
329.397
371.108
428.793
507.36
609.06
724.447
815.266
210.136
211.574
214.562
219.346
226.346
236.238
250.099
269.655
297.725
338.972
401.121
496.405
641.135
843.886
1053.37
188.9
189.9
191.983
195.327
200.245
207.253
217.205
231.547
252.844
285.901
340.278
435.958
615.133
956.52
1508.96
166.643
167.124
168.122
169.713
172.033
175.304
179.899
186.459
196.175
211.482
238.099
291.978
426.861
858.009
2573.42
342.038
331.412
318.651
303.915
287.432
269.477
250.36
230.403
209.925
189.231
168.602
148.287
128.5
109.42
91.1905
73.917
57.6744
42.5066
28.4313
15.4432
3.5178
-7.38424
-17.3138
-26.3301
-34.4975
-41.8841
-48.5592
-54.5928
-60.0541
-65.0112
-69.5302
-73.6744
-77.5042
-81.0755
-84.44
-87.6438
-90.7274
-93.7257
-96.6675
-99.5763
-102.471
-105.365
-108.27
-111.194
-114.145
-117.126
-120.144
-123.2
-126.298
-129.44
-132.624
-135.848
-139.108
-142.398
-145.708
-149.027
-152.346
-155.65
-158.929
-162.171
-165.365
-168.5
-171.567
-174.554
-177.448
-180.231
-182.884
-185.382
-187.695
-189.787
-191.62
-193.153
-194.343
-195.148
-195.528
-195.446
-194.872
-193.781
-192.158
-189.991
-187.282
-184.038
-180.278
-176.03
-171.334
-166.24
-160.81
-155.115
-149.234
-143.251
345.199
334.458
321.469
306.409
289.529
271.132
251.554
231.139
210.225
189.13
168.145
147.523
127.483
108.202
89.8207
72.4433
56.1398
40.9494
26.8842
13.9332
2.06659
-8.76045
-18.6035
-27.5255
-35.5942
-42.88
-49.4541
-55.3876
-60.751
-65.6132
-70.0412
-74.0994
-77.8491
-81.3472
-84.6461
-87.7925
-90.8274
-93.7852
-96.6945
-99.5778
-102.453
-105.332
-108.227
-111.143
-114.086
-117.063
-120.076
-123.13
-126.227
-129.37
-132.558
-135.79
-139.06
-142.363
-145.689
-149.026
-152.362
-155.684
-158.98
-162.237
-165.447
-168.598
-171.682
-174.688
-177.605
-180.418
-183.108
-185.649
-188.012
-190.16
-192.053
-193.648
-194.899
-195.761
-196.192
-196.155
-195.616
-194.55
-192.94
-190.774
-188.053
-184.783
-180.981
-176.677
-171.907
-166.725
-161.192
-155.383
-149.381
-143.275
351.701
340.717
327.243
311.499
293.788
274.471
253.937
232.579
210.773
188.864
167.159
145.922
125.374
105.692
87.0127
69.4335
53.0154
37.7874
23.7506
10.8821
-0.859546
-11.5299
-21.194
-29.9231
-37.791
-44.8727
-51.2427
-56.9746
-62.1407
-66.8117
-71.0564
-74.9412
-78.5293
-81.8798
-85.0467
-88.0781
-91.0154
-93.893
-96.7383
-99.5723
-102.41
-105.262
-108.136
-111.037
-113.968
-116.934
-119.939
-122.987
-126.082
-129.226
-132.422
-135.668
-138.96
-142.291
-145.649
-149.021
-152.394
-155.753
-159.083
-162.372
-165.611
-168.791
-171.906
-174.949
-177.912
-180.783
-183.545
-186.173
-188.637
-190.9
-192.916
-194.638
-196.014
-196.995
-197.533
-197.587
-197.119
-196.104
-194.521
-192.358
-189.614
-186.293
-182.41
-177.992
-173.077
-167.715
-161.972
-155.93
-149.678
-143.319
361.915
350.532
336.262
319.398
300.338
279.542
257.491
234.652
211.46
188.297
165.494
143.327
122.018
101.743
82.6291
64.7626
48.191
32.927
18.9536
6.22946
-5.30527
-15.7234
-25.1049
-33.5333
-41.0916
-47.8611
-53.9206
-59.3467
-64.2138
-68.5948
-72.5611
-76.1822
-79.5244
-82.6504
-85.6172
-88.475
-91.2664
-94.0255
-96.7781
-99.5421
-102.329
-105.144
-107.992
-110.872
-113.787
-116.738
-119.729
-122.767
-125.856
-129.001
-132.207
-135.475
-138.799
-142.173
-145.583
-149.013
-152.445
-155.86
-159.242
-162.577
-165.857
-169.077
-172.233
-175.325
-178.352
-181.305
-184.173
-186.933
-189.554
-191.995
-194.204
-196.126
-197.7
-198.867
-199.573
-199.768
-199.413
-198.477
-196.937
-194.782
-192.005
-188.611
-184.611
-180.025
-174.889
-169.253
-163.186
-156.777
-150.133
-143.372
376.466
364.473
348.99
330.436
309.367
286.402
262.162
237.223
212.093
187.204
162.909
139.493
117.177
96.1268
76.4574
58.2386
41.4978
26.2248
12.3768
-0.114365
-11.3355
-21.3843
-30.362
-38.3688
-45.4994
-51.8426
-57.4813
-62.4941
-66.9573
-70.9458
-74.5344
-77.7966
-80.804
-83.6244
-86.3197
-88.9439
-91.5414
-94.1461
-96.7814
-99.4605
-102.189
-104.965
-107.785
-110.644
-113.54
-116.471
-119.443
-122.463
-125.539
-128.681
-131.898
-135.192
-138.562
-141.998
-145.484
-148.998
-152.516
-156.012
-159.465
-162.86
-166.19
-169.452
-172.651
-175.796
-178.895
-181.95
-184.955
-187.893
-190.732
-193.423
-195.907
-198.114
-199.971
-201.404
-202.348
-202.743
-202.545
-201.719
-200.241
-198.1
-195.288
-191.804
-187.654
-182.852
-177.423
-171.413
-164.893
-157.964
-150.755
-143.417
396.319
383.411
366.113
345.07
321.101
295.078
267.822
240.054
212.371
185.248
159.056
134.076
110.517
88.5278
68.2059
49.5985
32.7065
17.4886
3.86709
-8.26405
-19.0292
-28.5607
-36.9893
-44.4366
-51.0112
-56.8082
-61.9124
-66.4022
-70.3535
-73.8427
-76.948
-79.7491
-82.3251
-84.7521
-87.0996
-89.4275
-91.7835
-94.2018
-96.7019
-99.2902
-101.962
-104.706
-107.506
-110.35
-113.228
-116.136
-119.079
-122.068
-125.118
-128.247
-131.469
-134.795
-138.225
-141.748
-145.342
-148.976
-152.614
-156.222
-159.77
-163.237
-166.617
-169.915
-173.147
-176.334
-179.501
-182.666
-185.835
-188.998
-192.121
-195.15
-198.009
-200.608
-202.852
-204.649
-205.913
-206.574
-206.581
-205.898
-204.503
-202.385
-199.537
-195.956
-191.638
-186.582
-180.794
-174.308
-167.189
-159.553
-151.565
-143.424
422.943
408.637
388.6
363.887
335.769
305.504
274.2
242.748
211.83
181.946
153.455
126.612
101.598
78.535
57.4959
38.5014
21.5209
6.47326
-6.76641
-18.3559
-28.4722
-37.2963
-44.9991
-51.7297
-57.6102
-62.7385
-67.1953
-71.0528
-74.3825
-77.2603
-79.7686
-81.9955
-84.0319
-85.9669
-87.8818
-89.8461
-91.9134
-94.1184
-96.4758
-98.9813
-101.615
-104.349
-107.152
-109.995
-112.86
-115.74
-118.639
-121.576
-124.576
-127.67
-130.886
-134.243
-137.748
-141.39
-145.137
-148.944
-152.755
-156.517
-160.188
-163.739
-167.163
-170.474
-173.705
-176.9
-180.109
-183.375
-186.724
-190.159
-193.648
-197.122
-200.484
-203.613
-206.38
-208.66
-210.345
-211.349
-211.613
-211.104
-209.807
-207.72
-204.844
-201.171
-196.687
-191.364
-185.174
-178.113
-170.23
-161.652
-152.596
-143.347
458.611
442.079
417.786
387.577
353.498
317.403
280.765
244.652
209.786
176.63
145.477
116.515
89.8722
65.6358
43.8527
24.5193
7.5705
-7.1239
-19.7515
-30.5417
-39.7458
-47.6148
-54.3755
-60.2119
-65.2567
-69.5996
-73.3046
-76.4271
-79.0267
-81.1755
-82.9607
-84.4836
-85.854
-87.1812
-88.5654
-90.0911
-91.8215
-93.794
-96.0168
-98.4691
-101.108
-103.879
-106.725
-109.597
-112.461
-115.304
-118.135
-120.983
-123.892
-126.912
-130.092
-133.472
-137.071
-140.877
-144.845
-148.902
-152.962
-156.943
-160.777
-164.422
-167.87
-171.148
-174.314
-177.448
-180.637
-183.964
-187.49
-191.243
-195.195
-199.258
-203.297
-207.14
-210.608
-213.53
-215.76
-217.191
-217.759
-217.443
-216.249
-214.195
-211.297
-207.556
-202.945
-197.394
-190.808
-183.103
-174.272
-164.439
-153.905
-143.108
506.967
486.654
455.455
416.804
374.101
330.056
286.55
244.74
205.262
168.419
134.338
103.078
74.6856
49.2125
26.6946
7.12028
-9.60557
-23.6731
-35.3549
-44.981
-52.9094
-59.4939
-65.0458
-69.7958
-73.8747
-77.3394
-80.2126
-82.5144
-84.2814
-85.5768
-86.4944
-87.157
-87.7058
-88.2828
-89.0169
-90.015
-91.3568
-93.0871
-95.207
-97.6699
-100.395
-103.285
-106.246
-109.197
-112.081
-114.877
-117.599
-120.296
-123.042
-125.917
-129.006
-132.383
-136.092
-140.129
-144.422
-148.853
-153.283
-157.58
-161.638
-165.389
-168.821
-171.982
-174.969
-177.916
-180.967
-184.265
-187.931
-192.041
-196.581
-201.432
-206.391
-211.208
-215.624
-219.397
-222.326
-224.274
-225.18
-225.05
-223.931
-221.884
-218.963
-215.197
-210.557
-204.917
-198.052
-189.716
-179.756
-168.238
-155.593
-142.561
574.176
546.861
503.81
451.828
396.604
341.912
289.871
241.448
196.925
156.219
119.131
85.5098
55.3006
28.5436
5.31284
-14.3613
-30.5861
-43.6306
-53.888
-61.8316
-67.9725
-72.8224
-76.8315
-80.305
-83.3355
-85.889
-87.9012
-89.3298
-90.1744
-90.4828
-90.3581
-89.9595
-89.4844
-89.128
-89.0603
-89.4187
-90.3092
-91.7978
-93.8841
-96.476
-99.4273
-102.576
-105.77
-108.882
-111.82
-114.546
-117.089
-119.534
-121.998
-124.609
-127.502
-130.809
-134.638
-139.009
-143.799
-148.803
-153.794
-158.562
-162.939
-166.815
-170.164
-173.065
-175.684
-178.235
-180.943
-184.035
-187.736
-192.219
-197.52
-203.453
-209.691
-215.854
-221.566
-226.479
-230.307
-232.861
-234.093
-234.081
-232.951
-230.833
-227.848
-224.097
-219.608
-214.205
-207.416
-198.671
-187.482
-173.662
-157.837
-141.412
671.492
629.683
564.979
491.476
418.301
349.922
287.96
232.524
183.08
138.799
98.9277
63.0301
30.951
2.80867
-21.1734
-40.7877
-56.1198
-67.5707
-75.7187
-81.2409
-84.8551
-87.3203
-89.3454
-91.4079
-93.4379
-95.1728
-96.3853
-96.9418
-96.796
-95.9713
-94.5777
-92.8361
-91.0591
-89.5275
-88.463
-88.0317
-88.3784
-89.6283
-91.8154
-94.7489
-98.1615
-101.788
-105.402
-108.806
-111.855
-114.473
-116.712
-118.739
-120.738
-122.893
-125.396
-128.482
-132.403
-137.282
-142.866
-148.773
-154.624
-160.107
-164.96
-169
-172.154
-174.552
-176.5
-178.33
-180.364
-182.931
-186.415
-191.22
-197.55
-205.036
-213.1
-221.151
-228.66
-235.127
-240.125
-243.351
-244.8
-244.723
-243.393
-241.032
-237.838
-234.063
-229.974
-225.49
-219.596
-211.144
-198.999
-181.974
-160.946
-138.999
821.579
745.418
638.772
530.602
433.043
348.648
276.618
214.946
161.781
115.014
72.9963
35.0514
0.938817
-28.9046
-53.9307
-73.3564
-87.2128
-96.2329
-101.292
-103.356
-103.347
-102.404
-101.756
-102.506
-103.913
-105.156
-105.762
-105.514
-104.345
-102.232
-99.2535
-95.722
-92.2422
-89.2199
-86.9227
-85.497
-85.1228
-86.0882
-88.653
-92.3159
-96.5735
-101.006
-105.324
-109.234
-112.503
-114.936
-116.637
-117.977
-119.251
-120.67
-122.45
-124.95
-128.786
-134.54
-141.469
-148.821
-155.984
-162.56
-168.155
-172.46
-175.233
-176.69
-177.485
-178.133
-179.018
-180.51
-183.194
-188.027
-195.917
-205.787
-216.53
-227.23
-237.255
-245.892
-252.494
-256.4
-257.706
-257.168
-255.325
-252.429
-248.667
-244.48
-240.91
-238.807
-235.46
-228.936
-217.542
-196.051
-165.378
-133.661
1075.8
904.976
714.701
554.403
428.787
329.538
250.334
185.092
131.253
84.3759
41.1952
1.55481
-35.2133
-67.5398
-94.7305
-113.916
-125.235
-130.559
-131.133
-128.408
-123.133
-117.014
-112.1
-112.606
-114.568
-116.001
-116.311
-115.355
-113.203
-109.686
-104.681
-98.4922
-92.7305
-87.8364
-84.1003
-81.4243
-79.9177
-80.2269
-83.8939
-89.0126
-94.7216
-100.379
-105.825
-110.576
-114.348
-116.45
-117.077
-117.307
-117.552
-117.925
-118.465
-119.492
-122.406
-130.103
-139.465
-149.142
-158.189
-166.427
-173.207
-178.131
-180.207
-179.783
-178.684
-177.597
-176.798
-176.373
-176.878
-180.434
-191.435
-205.283
-220.022
-234.285
-247.847
-259.591
-268.748
-273.195
-273.27
-271.496
-268.772
-265.073
-260.11
-254.009
-249.735
-253.916
-255.9
-253.743
-250.626
-223.353
-171.312
-120.894
1566.19
1092.45
747.393
528.203
386.516
281.522
203.914
138.792
90.6792
48.4016
4.28839
-36.0781
-77.754
-113.555
-147.034
-165.767
-171.851
-171.676
-165.673
-157.076
-144.078
-129.832
-114.579
-120.551
-125.918
-128.399
-128.62
-126.853
-123.965
-119.227
-111.759
-100.602
-91.9295
-84.7513
-79.7223
-75.6436
-72.0776
-69.5137
-77.0296
-84.8468
-92.9333
-100.047
-107.319
-113.322
-118.592
-120.081
-118.088
-116.612
-115.668
-114.936
-113.781
-111.318
-109.137
-123.271
-137.009
-150.373
-161.559
-172.397
-180.934
-187.905
-188.782
-183.852
-179.866
-176.648
-174.042
-170.9
-166.171
-162.121
-182.856
-203.496
-224.201
-242.351
-261.061
-277.018
-291.786
-296.287
-291.498
-287.195
-283.624
-279.541
-273.192
-260.91
-246.383
-272.191
-282.305
-279.932
-318.494
-286.32
-174.909
-87.9539
2670.78
1094.52
598.763
390.334
291.358
194.031
139.484
67.9744
41.6828
15.055
-38.0234
-71.8278
-128.748
-162.895
-220.54
-235.796
-227.43
-221.13
-203.888
-192.017
-166.756
-144.039
-86.4342
-129.301
-141.355
-143.976
-143.719
-139.894
-137.319
-132.634
-124.092
-99.0844
-88.9373
-78.539
-73.9495
-69.1033
-62.7774
-44.2717
-69.72
-80.2827
-92.5371
-99.4794
-110.633
-117.118
-128.279
-128.725
-118.352
-115.151
-113.478
-112.557
-110.979
-102.738
-72.377
-117.012
-135.092
-154.741
-165.434
-181.681
-190.918
-206.46
-205.723
-186.566
-179.942
-174.823
-172.061
-167.712
-154.488
-108.119
-174.416
-201.617
-232.061
-249.614
-278.241
-296.158
-329.612
-332.759
-309.028
-301.841
-299.213
-297.273
-294.818
-271.044
-184.949
-313.067
-326.69
-247.178
-488.222
-463.389
-143.289
-0.243288
-136.654
-129.562
-122.707
-116.202
-110.135
-104.572
-99.5559
-95.1107
-91.2464
-87.962
-85.2503
-83.1002
-81.5002
-80.44
-79.9119
-136.547
-129.324
-122.358
-115.764
-109.632
-104.026
-98.9852
-94.5302
-90.6666
-87.3898
-84.6889
-82.5504
-80.9607
-79.9081
-79.3841
-136.322
-128.83
-121.637
-114.864
-108.604
-102.915
-97.8289
-93.3586
-89.5005
-86.242
-83.5654
-81.4521
-79.8845
-78.848
-78.3324
-135.95
-128.038
-120.495
-113.454
-107.005
-101.2
-96.0576
-91.5752
-87.7352
-84.5124
-81.879
-79.8085
-78.2774
-77.2673
-76.7655
-135.384
-126.879
-118.852
-111.451
-104.763
-98.8223
-93.6268
-89.1498
-85.353
-82.1936
-79.6301
-77.6256
-76.1496
-75.1786
-74.6971
-134.551
-125.241
-116.582
-108.735
-101.773
-95.7004
-90.4777
-86.0447
-82.3337
-79.2791
-76.8224
-74.9146
-73.5169
-72.6008
-72.1473
-133.327
-122.954
-113.5
-105.136
-97.8955
-91.7284
-86.5391
-82.2178
-78.6583
-75.7671
-73.4662
-71.6938
-70.4031
-69.5604
-69.1444
-131.516
-119.747
-109.33
-100.412
-92.9447
-86.7791
-81.7329
-77.6294
-74.315
-71.6649
-69.5816
-67.9916
-66.8414
-66.0938
-65.7256
-128.774
-115.187
-103.663
-94.2385
-86.6924
-80.7105
-75.9843
-72.2521
-69.3077
-66.9962
-65.204
-63.8499
-62.8772
-62.248
-61.9389
-124.482
-108.567
-95.8946
-86.1868
-78.8762
-73.3865
-69.2421
-66.0871
-63.6678
-61.8083
-60.3884
-59.327
-58.5699
-58.0822
-57.8433
-117.449
-98.7055
-85.162
-75.7383
-69.2395
-64.7173
-61.5108
-59.1867
-57.4684
-56.1811
-55.2147
-54.4999
-53.9933
-53.6681
-53.5089
-105.262
-83.644
-70.31
-62.3652
-57.6264
-54.7324
-52.8974
-51.6808
-50.8381
-50.2331
-49.7895
-49.4649
-49.2354
-49.0879
-49.0156
-82.8251
-60.2987
-50.0688
-45.7864
-44.1687
-43.6889
-43.6656
-43.8013
-43.9704
-44.1237
-44.2457
-44.335
-44.3957
-44.4328
-44.4502
-39.2253
-24.6569
-23.8805
-26.5428
-29.5732
-32.1891
-34.2748
-35.8884
-37.1186
-38.0458
-38.7345
-39.2339
-39.5799
-39.7974
-39.9024
48.5099
24.7767
5.74662
-6.93139
-15.3922
-21.2196
-25.3563
-28.3592
-30.5699
-32.2065
-33.4129
-34.2864
-34.8926
-35.2748
-35.4597
145.784
145.757
145.688
145.549
145.282
144.787
143.882
142.217
139.083
132.877
119.423
85.719
-17.3356
-409.606
-2209.1
126.829
126.348
125.332
123.658
121.11
117.318
111.653
103.004
89.3034
66.4392
25.5867
-53.6401
-220.309
-584.722
-1277.91
108.196
107.301
105.422
102.365
97.7913
91.1394
81.4875
67.2901
45.8785
12.4876
-41.6047
-132.28
-285.95
-531.492
-828.033
90.1765
88.928
86.3209
82.1169
75.9068
67.0353
54.4693
36.5775
10.7656
-27.0917
-83.3906
-167.17
-287.784
-442.818
-584.043
73.015
71.4898
68.3207
63.2536
55.8629
45.4894
31.1427
11.3587
-15.9873
-53.8685
-106.093
-176.471
-265.702
-363.717
-438.095
56.905
55.1857
51.6312
45.997
37.8839
26.6964
11.5861
-8.61241
-35.4256
-70.6861
-116.19
-172.671
-237.507
-301.015
-343.779
41.9822
40.1495
36.3797
30.456
22.0342
10.622
-4.44202
-23.9935
-48.998
-80.3886
-118.663
-163.064
-210.225
-252.707
-279.143
28.326
26.4527
22.6185
16.6448
8.25673
-2.92086
-17.3583
-35.591
-58.1359
-85.3083
-116.88
-151.536
-186.182
-215.531
-232.855
15.9652
14.1124
10.3382
4.50601
-3.58723
-14.2033
-27.6423
-44.1967
-64.0609
-87.1704
-112.954
-140.01
-165.811
-186.697
-198.588
4.88649
3.10177
-0.517051
-6.06624
-13.6823
-23.5279
-35.7649
-50.506
-67.733
-87.1741
-108.14
-129.353
-148.848
-164.104
-172.572
-4.95703
-6.63914
-10.0355
-15.2064
-22.2316
-31.1936
-42.1502
-55.0901
-69.868
-86.1175
-103.152
-119.886
-134.824
-146.219
-152.429
-13.636
-15.1931
-18.3247
-23.0616
-29.438
-37.4759
-47.1594
-58.3985
-70.9809
-84.5146
-98.3721
-111.661
-123.257
-131.931
-136.595
-21.2368
-22.6566
-25.502
-29.7806
-35.4927
-42.6169
-51.089
-60.7743
-71.4332
-82.6859
-93.9847
-104.611
-113.716
-120.425
-123.995
-27.8543
-29.1326
-31.6864
-35.5063
-40.5685
-46.823
-54.1769
-62.4742
-71.4727
-80.8242
-90.0629
-98.6144
-105.836
-111.095
-113.872
-33.5863
-34.7251
-36.9937
-40.3711
-44.8178
-50.2667
-56.6104
-63.6872
-71.2669
-79.0402
-86.6168
-93.5394
-99.318
-103.486
-105.674
-38.5294
-39.5348
-41.5327
-44.4947
-48.3724
-53.0899
-58.5352
-64.5511
-70.9263
-77.392
-83.6238
-89.2574
-93.9158
-97.2512
-98.9933
-42.7759
-43.6568
-45.4035
-47.9838
-51.3449
-55.4084
-60.0643
-65.1654
-70.5228
-75.9054
-81.0454
-85.6513
-89.4309
-92.1208
-93.5203
-46.4121
-47.179
-48.6967
-50.9317
-53.8305
-57.3161
-61.2847
-65.6018
-70.1014
-74.5868
-78.8369
-82.618
-85.7014
-87.8851
-89.0178
-49.5168
-50.1809
-51.4929
-53.4196
-55.9092
-58.889
-62.2632
-65.9116
-69.6898
-73.4311
-76.9534
-80.0684
-82.5955
-84.3782
-85.3005
-52.1613
-52.7337
-53.863
-55.5174
-57.6483
-60.1885
-63.0516
-66.1315
-69.3034
-72.4272
-75.3522
-77.9262
-80.0056
-81.4677
-82.2226
-54.4092
-54.9007
-55.8691
-57.2849
-59.1035
-61.264
-63.6895
-66.2873
-68.9505
-71.5609
-73.9943
-76.1269
-77.8436
-79.0475
-79.6681
-56.3164
-56.7371
-57.565
-58.7734
-60.3218
-62.1559
-64.2081
-66.3978
-68.634
-70.8173
-72.8449
-74.6157
-76.0372
-77.0318
-77.5437
-57.9322
-58.2912
-58.9972
-60.0262
-61.3419
-62.8966
-64.6312
-66.4762
-68.3541
-70.1816
-71.8734
-73.3468
-74.5266
-75.3506
-75.7743
-59.2991
-59.6049
-60.2057
-61.0802
-62.1965
-63.5127
-64.9776
-66.5317
-68.1091
-69.6399
-71.0533
-72.2813
-73.2626
-73.947
-74.2985
-60.4541
-60.714
-61.2244
-61.9665
-62.9124
-64.0258
-65.2622
-66.571
-67.8964
-69.1796
-70.3617
-71.3867
-72.2045
-72.7741
-73.0665
-61.4289
-61.6496
-62.0826
-62.7116
-63.5124
-64.4534
-65.4967
-66.5989
-67.7129
-68.7893
-69.7791
-70.6359
-71.3185
-71.7934
-72.037
-62.2508
-62.4379
-62.8049
-63.3376
-64.0151
-64.8101
-65.6903
-66.6187
-67.5553
-68.459
-69.2886
-70.0057
-70.5764
-70.9731
-71.1765
-62.943
-63.1015
-63.4124
-63.8633
-64.4362
-65.1079
-65.8505
-66.6327
-67.4207
-68.1799
-68.8761
-69.4771
-69.9549
-70.2868
-70.4569
-63.5253
-63.6596
-63.9229
-64.3045
-64.789
-65.3564
-65.9832
-66.6426
-67.3061
-67.9447
-68.5295
-69.0339
-69.4346
-69.7127
-69.8552
-64.0145
-64.1283
-64.3513
-64.6743
-65.0842
-65.5639
-66.0932
-66.6496
-67.2089
-67.7466
-68.2386
-68.6626
-68.9991
-69.2327
-69.3522
-64.4248
-64.5213
-64.7103
-64.984
-65.3311
-65.737
-66.1845
-66.6546
-67.1267
-67.5802
-67.9948
-68.3519
-68.6352
-68.8316
-68.9322
-64.7683
-64.8502
-65.0106
-65.2428
-65.5371
-65.8812
-66.2602
-66.6581
-67.0574
-67.4407
-67.7909
-68.0923
-68.3313
-68.497
-68.5818
-65.0549
-65.1246
-65.2611
-65.4586
-65.7088
-66.0011
-66.323
-66.6606
-66.9993
-67.3242
-67.6208
-67.876
-68.0783
-68.2185
-68.2903
-65.2933
-65.3528
-65.4693
-65.6378
-65.8512
-66.1004
-66.3748
-66.6624
-66.9507
-67.2272
-67.4795
-67.6965
-67.8684
-67.9875
-68.0484
-65.4905
-65.5415
-65.6414
-65.7859
-65.9688
-66.1824
-66.4174
-66.6636
-66.9104
-67.1469
-67.3626
-67.5481
-67.695
-67.7968
-67.8488
-65.6523
-65.6963
-65.7826
-65.9073
-66.0652
-66.2495
-66.4522
-66.6645
-66.8772
-67.0809
-67.2668
-67.4265
-67.5529
-67.6405
-67.6853
-65.7835
-65.8219
-65.8971
-66.0058
-66.1433
-66.3038
-66.4803
-66.6651
-66.8502
-67.0274
-67.189
-67.3279
-67.4378
-67.5139
-67.5528
-65.8881
-65.922
-65.9883
-66.0842
-66.2056
-66.3471
-66.5027
-66.6656
-66.8286
-66.9848
-67.1271
-67.2493
-67.3461
-67.4131
-67.4474
-65.9693
-65.9997
-66.0591
-66.1451
-66.2538
-66.3806
-66.52
-66.6659
-66.8119
-66.9517
-67.0791
-67.1884
-67.275
-67.335
-67.3656
-66.0294
-66.0571
-66.1115
-66.1901
-66.2895
-66.4054
-66.5328
-66.6661
-66.7995
-66.9271
-67.0435
-67.1434
-67.2224
-67.2772
-67.3051
-66.0702
-66.0962
-66.1471
-66.2207
-66.3137
-66.4222
-66.5415
-66.6662
-66.791
-66.9105
-67.0193
-67.1128
-67.1867
-67.2379
-67.264
-66.093
-66.118
-66.167
-66.2378
-66.3273
-66.4316
-66.5463
-66.6663
-66.7863
-66.9012
-67.0058
-67.0957
-67.1667
-67.2159
-67.2411
-66.0984
-66.1232
-66.1717
-66.2419
-66.3305
-66.4339
-66.5475
-66.6663
-66.7852
-66.899
-67.0026
-67.0915
-67.1619
-67.2106
-67.2356
-66.0867
-66.112
-66.1615
-66.2331
-66.3236
-66.4291
-66.545
-66.6663
-66.7877
-66.9038
-67.0095
-67.1003
-67.1722
-67.2219
-67.2473
-66.0574
-66.084
-66.136
-66.2112
-66.3063
-66.4171
-66.5389
-66.6663
-66.7938
-66.9157
-67.0268
-67.1222
-67.1977
-67.2499
-67.2767
-66.0097
-66.0384
-66.0945
-66.1755
-66.278
-66.3975
-66.5288
-66.6662
-66.8037
-66.9352
-67.0551
-67.1579
-67.2394
-67.2957
-67.3245
-65.9422
-65.9738
-66.0356
-66.1249
-66.2379
-66.3697
-66.5145
-66.666
-66.8177
-66.9628
-67.095
-67.2085
-67.2984
-67.3606
-67.3924
-65.8527
-65.8882
-65.9576
-66.0579
-66.1849
-66.3329
-66.4956
-66.6658
-66.8362
-66.9993
-67.1479
-67.2756
-67.3766
-67.4465
-67.4823
-65.7387
-65.7791
-65.8582
-65.9725
-66.1172
-66.2859
-66.4713
-66.6655
-66.8598
-67.0459
-67.2154
-67.3611
-67.4763
-67.5561
-67.5969
-65.5967
-65.6432
-65.7343
-65.8661
-66.0328
-66.2273
-66.4411
-66.665
-66.8892
-67.1038
-67.2995
-67.4676
-67.6007
-67.6928
-67.7399
-65.4224
-65.4764
-65.5823
-65.7354
-65.9292
-66.1553
-66.4039
-66.6643
-66.9251
-67.1749
-67.4027
-67.5984
-67.7534
-67.8607
-67.9155
-65.2106
-65.2738
-65.3975
-65.5766
-65.8032
-66.0677
-66.3586
-66.6634
-66.9687
-67.2613
-67.5281
-67.7575
-67.9391
-68.0649
-68.1292
-64.9549
-65.0292
-65.1745
-65.3847
-65.6509
-65.9617
-66.3037
-66.662
-67.0212
-67.3655
-67.6796
-67.9496
-68.1635
-68.3117
-68.3875
-64.6478
-64.7352
-64.9064
-65.1541
-65.4677
-65.8341
-66.2373
-66.6601
-67.0841
-67.4905
-67.8616
-68.1806
-68.4335
-68.6087
-68.6983
-64.2801
-64.3833
-64.5853
-64.8776
-65.2481
-65.6808
-66.1575
-66.6575
-67.159
-67.6402
-68.0796
-68.4576
-68.7573
-68.9649
-69.0712
-63.8409
-63.9628
-64.2015
-64.5471
-64.9852
-65.4972
-66.0615
-66.6537
-67.2481
-67.8187
-68.3401
-68.7889
-69.1448
-69.3915
-69.5178
-63.3173
-63.4614
-63.7437
-64.1525
-64.671
-65.2774
-65.946
-66.6483
-67.3538
-68.0314
-68.651
-69.1846
-69.608
-69.9016
-70.052
-62.6937
-62.8641
-63.1981
-63.6819
-64.2959
-65.0144
-65.8073
-66.6408
-67.4787
-68.2843
-69.0215
-69.6568
-70.1611
-70.5111
-70.6903
-61.952
-62.1535
-62.5486
-63.1212
-63.8483
-64.6998
-65.6404
-66.6301
-67.6261
-68.5846
-69.4625
-70.2198
-70.8213
-71.2389
-71.4528
-61.0706
-61.3088
-61.7759
-62.4534
-63.3143
-64.3236
-65.4395
-66.6151
-67.7996
-68.9407
-69.9871
-70.8907
-71.609
-72.108
-72.3637
-60.0241
-60.3055
-60.8574
-61.6586
-62.6775
-63.8733
-65.1973
-66.5938
-68.003
-69.3625
-70.6108
-71.6899
-72.5487
-73.1457
-73.4518
-58.7825
-59.1146
-59.7662
-60.7128
-61.918
-63.3343
-64.9047
-66.5639
-68.2409
-69.8614
-71.3518
-72.642
-73.6699
-74.3852
-74.752
-57.3108
-57.7021
-58.4705
-59.5878
-61.0121
-62.6885
-64.5505
-66.5216
-68.5178
-70.4506
-72.2315
-73.7758
-75.0079
-75.8661
-76.3066
-55.5678
-56.0283
-56.933
-58.25
-59.9314
-61.9139
-64.1206
-66.4619
-68.8385
-71.1452
-73.2752
-75.1259
-76.605
-77.6366
-78.1665
-53.5057
-54.0464
-55.1098
-56.6597
-58.6418
-60.9841
-63.5975
-66.3777
-69.2078
-71.9622
-74.5125
-76.7337
-78.5125
-79.755
-80.3938
-51.0687
-51.7023
-52.9495
-54.7699
-57.1026
-59.8662
-62.9586
-66.2588
-69.6294
-72.9208
-75.9778
-78.6481
-80.7917
-82.2918
-83.0639
-48.1926
-48.9329
-50.3917
-52.5248
-55.2648
-58.5203
-62.1756
-66.0912
-70.1059
-74.0417
-77.7112
-80.9275
-83.5171
-85.3332
-86.2694
-44.8034
-45.6656
-47.3667
-49.8591
-53.0695
-56.8973
-61.2122
-65.8547
-70.6369
-75.3472
-79.7588
-83.6415
-86.7786
-88.9848
-90.1239
-40.8166
-41.8169
-43.7931
-46.6956
-50.4464
-54.9364
-60.0216
-65.5212
-71.2176
-76.8598
-82.1728
-86.8723
-90.6856
-93.376
-94.7681
-36.1367
-37.2917
-39.5776
-42.9441
-47.3109
-52.5628
-58.5436
-65.0512
-71.8356
-78.6004
-85.0119
-90.7175
-95.3711
-98.6675
-100.377
-30.6563
-31.9828
-34.6131
-38.4991
-43.5619
-49.6839
-56.7001
-64.3892
-72.467
-80.5855
-88.3404
-95.2918
-100.997
-105.059
-107.172
-24.2568
-25.7704
-28.7784
-33.2386
-39.0786
-46.1849
-54.3898
-63.4573
-73.0699
-82.8223
-92.2258
-100.73
-107.764
-112.801
-115.433
-16.8084
-18.5224
-21.9372
-27.0217
-33.7174
-41.924
-51.4813
-62.147
-73.5753
-85.3006
-96.7345
-107.186
-115.914
-122.212
-125.518
-8.17246
-10.096
-13.9391
-19.6882
-27.3087
-36.7265
-47.8038
-60.3073
-73.874
-87.9802
-101.924
-114.838
-125.749
-133.698
-137.896
1.79605
-0.339619
-4.62015
-11.0577
-19.6538
-30.3783
-43.137
-57.7294
-73.7977
-90.7715
-107.826
-123.877
-137.639
-147.784
-153.185
13.2439
10.9026
6.19329
-0.931048
-10.5236
-22.6194
-37.1978
-54.1272
-73.092
-93.5052
-114.424
-134.502
-152.036
-165.161
-172.221
26.3134
23.7851
18.6799
10.906
0.342109
-13.1389
-29.6275
-49.1121
-71.38
-95.8864
-121.603
-146.891
-169.49
-186.745
-196.154
41.1335
38.4522
33.015
24.6766
13.23
-1.57236
-19.9786
-42.1649
-68.1131
-97.4257
-129.076
-161.142
-190.65
-213.77
-226.614
57.8099
55.0275
49.3597
40.6007
28.4441
12.4936
-7.70712
-32.6064
-62.5098
-97.3398
-136.258
-177.165
-216.24
-247.924
-265.985
76.4118
73.5999
67.8449
58.8786
46.2878
29.5069
7.82437
-19.5745
-53.4855
-94.4136
-142.054
-194.454
-246.956
-291.529
-317.888
96.9588
94.2088
88.5529
79.667
67.0356
49.9193
27.3217
-2.0227
-39.5891
-86.8248
-144.542
-211.665
-283.167
-347.772
-388.081
119.407
116.827
111.496
103.049
90.8911
74.1322
51.4995
21.2353
-18.9796
-71.9566
-140.494
-225.829
-324.158
-420.871
-486.25
143.636
141.347
136.593
128.999
117.934
102.417
80.9707
51.3984
10.4895
-46.2835
-124.776
-230.962
-366.256
-515.711
-629.797
169.445
167.568
163.653
157.35
148.058
134.81
116.077
89.4273
50.9703
-5.52937
-89.8247
-215.873
-398.503
-635.087
-852.541
196.544
195.191
192.359
187.765
180.918
171.003
156.67
135.646
103.973
54.523
-25.8775
-161.482
-393.263
-767.717
-1226.25
224.569
223.83
222.274
219.732
215.897
210.25
201.898
189.249
169.311
136.061
76.4038
-40.2978
-288.928
-841.919
-1918.33
253.093
253.02
252.861
252.581
252.119
251.361
250.093
247.897
243.88
235.926
218.292
172.502
26.7788
-552.594
-3357.81
281.651
282.255
283.514
285.541
288.531
292.808
298.916
307.793
321.165
342.497
379.717
454.687
643.622
1282.48
4149.1
309.771
311.017
313.618
317.814
324.029
332.964
345.793
364.545
392.9
438.013
514.903
657.699
947.977
1570.42
2752.82
337.008
338.819
342.593
348.666
357.617
370.392
388.535
414.603
452.976
511.435
604.286
758.247
1021.6
1469.41
2178.1
162.729
65.7797
27.0821
7.17997
-4.80683
-12.7143
-18.2203
-22.1837
-25.0933
-27.2481
-28.8401
-29.9963
-30.8012
-31.3102
-31.5567
102.684
62.6027
33.4256
14.5117
1.98332
-6.64983
-12.8044
-17.3014
-20.6387
-23.1314
-24.9858
-26.3402
-27.2873
-27.8882
-28.1799
70.4728
51.8535
32.6421
17.4091
6.06843
-2.30664
-8.5395
-13.2246
-16.7707
-19.4579
-21.4789
-22.967
-24.014
-24.6811
-25.0057
51.192
41.5156
29.0959
17.6037
8.09408
0.548889
-5.3495
-9.93864
-13.4994
-16.2472
-18.342
-19.9002
-21.0046
-21.7118
-22.0569
38.6311
33.0829
24.9055
16.4214
8.75558
2.26081
-3.06872
-7.36692
-10.7925
-13.4899
-15.5778
-17.1486
-18.2711
-18.994
-19.3479
29.9232
26.4762
20.9283
14.671
8.60386
3.16354
-1.50413
-5.40119
-8.59143
-11.1559
-13.1727
-14.7082
-15.8153
-16.5324
-16.8847
23.6091
21.3285
17.4437
12.7885
8.0169
3.52972
-0.474703
-3.92632
-6.82488
-9.20241
-11.1018
-12.5655
-13.6302
-14.3241
-14.6663
18.8787
17.2949
14.4941
10.9868
7.23247
3.56066
0.170832
-2.83553
-5.42017
-7.58094
-9.33349
-10.7
-11.7027
-12.3602
-12.6855
15.2483
14.1065
12.0354
9.35654
6.39078
3.3958
0.55007
-2.0376
-4.30983
-6.24297
-7.83326
-9.08716
-10.0149
-10.6268
-10.9307
12.4108
11.5634
9.99862
7.92561
5.56939
3.1273
0.750101
-1.45874
-3.43497
-5.14309
-6.56667
-7.7008
-8.54658
-9.10748
-9.38691
10.162
9.51841
8.31487
6.69136
4.80767
2.81374
0.833215
-1.0414
-2.74632
-4.24083
-5.50111
-6.51469
-7.27608
-7.78359
-8.0372
8.36001
7.86235
6.9228
5.6378
4.1225
2.49089
0.842785
-0.741923
-2.20379
-3.50124
-4.60689
-5.50373
-6.18189
-6.63605
-6.86364
6.90368
6.51317
5.77063
4.7442
3.51813
2.17949
0.808334
-0.527755
-1.77543
-2.89485
-3.85768
-4.64465
-5.24327
-5.64587
-5.84813
5.71856
5.40848
4.81563
3.98924
2.99193
1.89067
0.749536
-0.374985
-1.43615
-2.39722
-3.2306
-3.91638
-4.44079
-4.79483
-4.97309
4.74878
4.50017