/*--------------------------------*- C++ -*----------------------------------*\
| =========                 |                                                 |
| \\      /  F ield         | OpenFOAM: The Open Source CFD Toolbox           |
|  \\    /   O peration     | Version:  5.x                                   |
|   \\  /    A nd           | Web:      www.OpenFOAM.org                      |
|    \\/     M anipulation  |                                                 |
\*---------------------------------------------------------------------------*/
FoamFile
{
    version     2.0;
    format      ascii;
    class       volScalarField;
    location    "2";
    object      T;
}
// * * * * * * * * * * * * * * * * * * * * * * * * * * * * * * * * * * * * * //

dimensions      [0 0 0 1 0 0 0];

internalField   nonuniform List<scalar> 
6300
(
11.6284
14.8908
18.1695
21.4747
24.8155
28.1993
31.6315
35.1145
38.6471
42.2243
45.8361
49.4677
53.0991
56.7055
60.2583
11.6228
14.874
18.1422
21.438
24.771
28.1493
31.5788
35.0624
38.5999
42.1866
45.813
49.4643
53.1201
56.7548
60.3385
11.6112
14.8398
18.0865
21.3631
24.68
28.0465
31.4697
34.9542
38.5009
42.1063
45.7618
49.4528
53.1582
56.8508
60.4981
11.5934
14.7869
18.0003
21.2467
24.538
27.8852
31.2975
34.7815
38.3404
41.9729
45.6718
49.4232
53.2052
56.988
60.7347
11.5687
14.7135
17.8805
21.0842
24.3387
27.6572
31.0516
34.5315
38.1037
41.7701
45.5261
49.3594
53.2473
57.157
61.0449
11.5364
14.6175
17.7233
20.87
24.0741
27.3516
30.718
34.1871
37.7703
41.4745
45.3
49.2372
53.2639
57.3433
61.423
11.4959
14.4965
17.5242
20.5973
23.7347
26.9556
30.2797
33.7264
37.3133
41.0549
44.9588
49.0217
53.224
57.5248
61.8599
11.4461
14.3481
17.2791
20.2594
23.3104
26.4548
29.7171
33.123
36.699
40.4699
44.4554
48.6633
53.0816
57.6677
62.3418
11.3867
14.17
16.9839
19.8499
22.7915
25.8346
29.0089
32.3475
35.8873
39.6677
43.7262
48.091
52.7674
57.7182
62.8455
11.317
13.9611
16.636
19.3639
22.1696
25.0818
28.1345
31.3685
34.8327
38.5845
42.6875
47.2037
52.1746
57.5879
63.3314
11.2371
13.7209
16.2344
18.7992
21.4401
24.1871
27.0771
30.1572
33.488
37.1473
41.2326
45.8581
51.1353
57.1229
63.7256
11.1474
13.4508
15.7809
18.1573
20.6034
23.148
25.828
28.6934
31.8125
35.2813
39.2347
43.8572
49.3819
56.0384
63.8708
11.0489
13.1538
15.2804
17.445
19.6673
21.972
24.3921
26.9739
29.7852
32.9284
36.5646
40.9509
46.4927
53.7736
63.3704
10.9433
12.8347
14.7413
16.6744
18.6478
20.6793
22.7929
25.0234
27.4238
30.0802
33.1418
36.8858
41.861
49.1885
60.9914
10.8326
12.5002
14.1751
15.8627
17.5694
19.3033
21.0755
22.9013
24.8046
26.8248
29.0343
31.5868
34.8739
40.124
52.034
63.4373
66.2479
68.9608
71.5588
74.0261
76.3493
78.5174
80.522
82.3574
84.0207
85.5113
86.8308
87.9827
88.9724
89.8064
90.4923
91.0384
91.4535
91.7468
91.9274
92.0042
91.986
91.8811
91.6974
91.4423
91.1225
90.7442
90.3131
89.8343
89.3122
88.7508
88.1534
87.5229
86.8617
86.1716
85.4543
84.7109
83.9422
83.1488
82.3311
81.4892
80.6232
79.7331
78.8187
77.8799
76.9163
75.9278
74.9139
73.8745
72.809
71.7171
70.5986
69.453
68.2801
67.0797
65.8516
64.5959
63.3126
62.0017
60.6637
59.2989
57.9077
56.4906
55.0482
53.5813
52.0907
50.5775
49.0427
47.4878
45.9144
44.3246
42.7208
41.1054
39.4817
37.853
36.2229
34.5955
32.975
31.3658
29.7724
28.1993
26.651
25.132
23.6464
22.1982
20.7908
19.4275
18.1107
16.8423
15.6234
63.5468
66.3835
69.1211
71.7413
74.2279
76.5668
78.7468
80.7594
82.5991
84.2631
85.7513
87.0655
88.21
89.1903
90.0133
90.6873
91.2207
91.6229
91.9032
92.071
92.1354
92.1054
91.9894
91.7954
91.5307
91.2021
90.816
90.3779
89.8929
89.3654
88.7993
88.198
87.5643
86.9006
86.2086
85.4898
84.7453
83.976
83.1823
82.3644
81.5226
80.6569
79.7671
78.8531
77.9147
76.9517
75.9637
74.9504
73.9115
72.8466
71.7553
70.6373
69.4922
68.3196
67.1195
65.8915
64.6357
63.3521
62.041
60.7025
59.337
57.945
56.527
55.0837
53.6156
52.1236
50.6086
49.0718
47.5145
45.9383
44.3451
42.7374
41.1177
39.4891
37.855
36.2192
34.5857
32.9589
31.3432
29.7433
28.1637
26.609
25.0839
23.5927
22.1393
20.7276
19.3606
18.041
16.7709
15.5514
63.7665
66.6569
69.4451
72.1109
74.6367
77.0074
79.2112
81.2397
83.0876
84.7526
86.2353
87.5386
88.6673
89.6281
90.4289
91.0783
91.5861
91.9619
92.2159
92.3578
92.3972
92.3434
92.2051
91.9902
91.7064
91.3604
90.9585
90.5063
90.0089
89.4706
88.8954
88.2864
87.6463
86.9775
86.2817
85.5601
84.8137
84.0432
83.2488
82.4309
81.5893
80.724
79.8349
78.9218
77.9843
77.0223
76.0354
75.0233
73.9856
72.9219
71.8319
70.7149
69.5707
68.3989
67.1992
65.9714
64.7155
63.4315
62.1196
60.7801
59.4134
58.02
56.6002
55.1549
53.6844
52.1897
50.6714
49.1306
47.5685
45.9866
44.3868
42.7714
41.1429
39.5044
37.8596
36.2122
34.5665
32.9269
31.2981
29.6849
28.0921
26.5247
24.9872
23.4845
22.0207
20.5999
19.2255
17.9003
16.6266
15.4057
64.0976
67.0724
69.9398
72.6767
75.2631
77.6824
79.9221
81.9739
83.833
85.4982
86.9713
88.2564
89.36
90.2901
91.0558
91.6672
92.1351
92.4704
92.6839
92.7863
92.7877
92.6979
92.5257
92.2795
91.9668
91.5946
91.1691
90.6959
90.18
89.6257
89.0368
88.4163
87.767
87.0909
86.3895
85.664
84.915
84.1429
83.3479
82.5299
81.6888
80.8244
79.9364
79.0246
78.0886
77.1281
76.1429
75.1326
74.0968
73.035
71.9468
70.8316
69.6889
68.5183
67.3193
66.0919
64.8358
63.5511
62.2381
60.8971
59.5285
58.1328
56.7106
55.2623
53.7885
52.2897
50.7667
49.2202
47.6512
46.061
44.4513
42.8242
41.1825
39.5292
37.868
36.203
34.5386
32.8795
31.2306
29.5972
27.9843
26.3971
24.8407
23.3202
21.8403
20.4054
19.0194
17.6856
16.4065
15.1834
64.5425
67.6373
70.617
73.4538
76.1243
78.6099
80.8976
82.9793
84.8514
86.5142
87.9714
89.2293
90.2963
91.1823
91.8984
92.4566
92.8691
93.1482
93.3061
93.3545
93.3042
93.1656
92.9478
92.6595
92.3084
91.9012
91.4443
90.9432
90.4027
89.8272
89.2203
88.585
87.9237
87.2383
86.53
85.7996
85.0476
84.2739
83.4785
82.6609
81.8208
80.9577
80.0714
79.1613
78.2273
77.269
76.2861
75.2783
74.2451
73.186
72.1004
70.9877
69.8472
68.6783
67.4805
66.2536
64.9972
63.7116
62.397
61.0539
59.6827
58.2841
56.8585
55.4065
53.9286
52.425
50.8961
49.3424
47.7645
46.1635
44.5408
42.8984
41.2389
39.5656
37.8822
36.1931
34.5031
32.8173
31.1411
29.48
27.8395
26.2252
24.6427
23.0976
21.5952
20.1406
18.7383
17.3924
16.1056
14.8798
65.1044
68.363
71.4946
74.4648
77.2457
79.8165
82.1637
84.2802
86.1646
87.8197
89.2521
90.4707
91.4867
92.3126
92.9621
93.4494
93.7888
93.9945
94.0802
94.0589
93.9425
93.7418
93.4665
93.1253
92.7259
92.2751
91.7791
91.2432
90.6724
90.0707
89.4417
88.7882
88.1125
87.4161
86.7
85.9645
85.2095
84.4347
83.6395
82.823
81.9847
81.1237
80.2396
79.3319
78.4004
77.4448
76.4648
75.4601
74.4303
73.3748
72.2929
71.1837
70.0463
68.8799
67.6838
66.4576
65.2009
63.914
62.5972
61.2512
59.8766
58.4742
57.0447
55.5884
54.1058
52.5968
51.0613
49.4995
47.9114
46.2975
44.6589
42.9973
41.3154
39.6165
37.9046
36.1846
34.4617
32.7416
31.0301
29.3332
27.657
26.0076
24.3911
22.8136
21.2814
19.8004
18.3762
17.0139
15.717
14.4878
65.7883
69.2661
72.599
75.7428
78.6637
81.3389
83.7555
85.9089
87.8013
89.4394
90.8337
91.997
92.9439
93.6903
94.2528
94.6486
94.8945
95.0072
95.0024
94.8945
94.6965
94.4199
94.0749
93.67
93.2127
92.7098
92.1671
91.5899
90.9829
90.3502
89.6952
89.0207
88.3286
87.6201
86.8958
86.1554
85.3984
84.6236
83.8297
83.0156
82.18
81.322
80.4409
79.5362
78.6076
77.6552
76.6786
75.6779
74.6524
73.6016
72.5245
71.4202
70.2872
69.1243
67.9307
66.7054
65.4483
64.1595
62.8396
61.4897
60.1107
58.7036
57.2694
55.8086
54.3211
52.8067
51.2648
49.6947
48.0955
46.4672
44.8102
43.1258
41.4166
39.6861
37.9389
36.1804
34.4165
32.6535
30.8981
29.1567
27.4361
25.7427
24.0832
22.4645
20.8938
19.3783
17.9253
16.5412
15.2311
13.9979
66.6018
70.3726
73.9698
77.3357
80.4294
83.2273
85.7195
87.9067
89.797
91.4032
92.7409
93.8278
94.6828
95.3256
95.7767
96.0565
96.1854
96.1827
96.0666
95.8535
95.5576
95.1911
94.764
94.2848
93.7605
93.1972
92.6005
91.9755
91.3267
90.6584
89.9738
89.2757
88.5657
87.8448
87.1127
86.3687
85.6112
84.8383
84.048
83.238
82.4068
81.5529
80.6755
79.7742
78.8489
77.8998
76.9272
75.9309
74.9108
73.866
72.7956
71.6978
70.571
69.4133
68.2231
66.9992
65.7414
64.4498
63.1256
61.7702
60.3853
58.9724
57.5328
56.0672
54.5753
53.0565
51.5093
49.9317
48.3219
46.6785
45.0009
43.2902
41.5486
39.7801
37.9898
36.1841
34.3699
32.5547
30.7459
28.9506
27.176
25.429
23.7167
22.0466
20.4268
18.8664
17.3751
15.9619
14.6344
13.3968
67.5571
71.7232
75.668
79.3142
82.6148
85.5492
88.1157
90.325
92.1947
93.746
95.0017
95.985
96.7196
97.2297
97.5398
97.6747
97.6585
97.5146
97.264
96.9253
96.5143
96.0435
95.5227
94.9594
94.3595
93.7281
93.0705
92.3913
91.6952
90.9866
90.2689
89.545
88.8163
88.0832
87.3449
86.5996
85.8447
85.077
84.2932
83.4902
82.6654
81.817
80.944
80.0462
79.124
78.1782
77.2094
76.2182
75.2045
74.1675
73.1059
72.0174
70.8995
69.7492
68.564
67.3422
66.0831
64.7875
63.4568
62.0935
60.7003
59.2798
57.8339
56.3637
54.8687
53.3475
51.7976
50.2153
48.5969
46.939
45.2397
43.4991
41.7196
39.9054
38.063
36.2
34.3251
32.447
30.5742
28.7148
26.8762
25.0654
23.2896
21.5561
19.8743
18.2553
16.7123
15.2593
13.9084
12.6661
68.6759
73.3869
77.7902
81.7837
85.3207
88.3938
91.0192
93.2249
95.0433
96.507
97.647
98.4925
99.0722
99.4142
99.5479
99.5028
99.3085
98.993
98.5814
98.0949
97.5508
96.962
96.3371
95.6815
94.9987
94.2925
93.5672
92.8275
92.0784
91.3246
90.5703
89.8187
89.071
88.3272
87.5856
86.8429
86.0952
85.3378
84.5653
83.773
82.9573
82.1159
81.2477
80.3531
79.433
78.4894
77.5239
76.5379
75.5317
74.5046
73.4549
72.3796
71.2747
70.1356
68.9579
67.739
66.4779
65.1757
63.8352
62.4601
61.0549
59.624
58.1705
56.6959
55.1999
53.6802
52.1327
50.5513
48.929
47.2593
45.5381
43.7644
41.9406
40.0717
38.1659
36.2332
34.2849
32.3317
30.3835
28.4492
26.5363
24.6517
22.8014
20.9916
19.2313
17.5346
15.9201
14.4099
13.0257
11.7793
70.0016
75.4877
80.4963
84.904
88.6876
91.8757
94.5196
96.675
98.395
99.7263
100.708
101.375
101.759
101.891
101.806
101.538
101.126
100.603
99.9997
99.3408
98.6457
97.9265
97.1903
96.4375
95.6668
94.8802
94.0806
93.2737
92.4649
91.6605
90.8654
90.0842
89.3181
88.5665
87.826
87.0921
86.3588
85.6192
84.865
84.0889
83.2859
82.4529
81.5894
80.6962
79.776
78.8319
77.8681
76.8867
75.8891
74.8744
73.8409
72.7845
71.6995
70.5778
69.4115
68.1967
66.932
65.6196
64.2635
62.8703
61.4468
60.001
58.5376
57.0594
55.5655
54.0533
52.5166
50.9464
49.3296
47.6539
45.9124
44.1022
42.2265
40.2912
38.3077
36.2892
34.2519
32.2092
30.1732
28.1526
26.156
24.1886
22.2549
20.3557
18.4968
16.6958
14.9777
13.3792
11.9448
10.6967
71.6376
78.2699
84.0613
88.9161
92.9046
96.1334
98.7154
100.744
102.298
103.44
104.215
104.657
104.799
104.672
104.317
103.773
103.095
102.32
101.491
100.632
99.7681
98.9093
98.0614
97.2134
96.3529
95.4815
94.6003
93.7188
92.8418
91.9797
91.1379
90.3255
89.5426
88.7881
88.0556
87.3394
86.6306
85.9207
85.1958
84.4431
83.6572
82.8336
81.9738
81.0782
80.1532
79.2031
78.2376
77.2592
76.2713
75.2717
74.2602
73.2308
72.1777
71.0844
69.9353
68.7266
67.455
66.1269
64.7457
63.3243
61.8713
60.4037
58.9265
57.4456
55.9576
54.462
52.9491
51.4088
49.8153
48.1435
46.3855
44.5347
42.5984
40.5804
38.5002
36.3722
34.2268
32.0771
29.9407
27.8217
25.7335
23.6772
21.6589
19.6621
17.6788
15.7377
13.8632
12.112
10.5956
9.35572
73.885
82.2563
88.968
94.168
98.208
101.314
103.7
105.487
106.785
107.674
108.191
108.361
108.217
107.774
107.092
106.195
105.193
104.108
103.017
101.922
100.877
99.8701
98.9267
98.0018
97.05
96.0923
95.1166
94.1538
93.194
92.2671
91.3659
90.5224
89.7244
88.9769
88.2605
87.5752
86.9034
86.2432
85.5663
84.845
84.0827
83.2663
82.4098
81.5026
80.5668
79.5968
78.626
77.6455
76.6709
75.6863
74.7055
73.7119
72.7139
71.6718
70.5455
69.3473
68.0598
66.7109
65.2861
63.8241
62.3172
60.8206
59.3208
57.8426
56.3609
54.896
53.4213
51.948
50.4141
48.7574
46.9927
45.0904
43.088
40.9596
38.7614
36.4804
34.2082
31.9259
29.6832
27.4464
25.2654
23.1112
21.0319
18.949
16.7999
14.684
12.5709
10.5069
8.84834
7.6517
77.8364
88.626
96.0439
101.083
104.847
107.524
109.539
110.923
111.852
112.434
112.659
112.506
112.058
111.21
110.165
108.759
107.403
105.895
104.541
103.134
101.923
100.733
99.7594
98.823
97.7502
96.7244
95.6103
94.5807
93.496
92.5146
91.5089
90.652
89.8322
89.1198
88.4197
87.7911
87.159
86.5898
86.0004
85.306
84.5863
83.7571
82.9189
81.9685
81.0302
79.9919
79.0288
78.0238
77.0853
76.096
75.1697
74.1996
73.3144
72.3807
71.2599
70.0972
68.7536
67.4046
65.8804
64.389
62.7486
61.2426
59.6844
58.2449
56.7403
55.3442
53.8919
52.5747
51.1899
49.5271
47.7983
45.7904
43.7591
41.4394
39.1422
36.5763
34.2041
31.718
29.4175
26.9909
24.7585
22.4377
20.41
18.3313
15.8735
13.6262
11.2079
8.318
6.43591
5.40286
88.2959
99.8436
106.538
109.823
113.043
114.679
116.277
117.004
117.41
117.698
117.661
117.065
116.464
114.919
113.749
111.243
109.819
107.453
106.134
104.055
102.933
101.275
100.533
99.8347
98.3777
97.4788
95.9781
95.0835
93.6466
92.7949
91.436
90.7267
89.7846
89.2444
88.4756
88.0119
87.3239
86.9656
86.586
85.8036
85.248
84.2613
83.59
82.4174
81.638
80.2795
79.4926
78.3069
77.5734
76.4156
75.6974
74.566
73.9851
73.3597
72.0349
71.1082
69.4559
68.3509
66.4279
65.169
62.9869
61.7402
59.8775
58.7412
56.9638
55.8735
54.1686
53.2987
52.3666
50.3918
49.0063
46.5241
44.8461
41.8868
39.9101
36.3932
34.3641
31.2427
29.3334
26.2559
24.3789
21.3422
19.8615
18.2597
14.6437
12.8149
10.524
4.67788
2.80089
2.28973
14.3379
13.0072
11.7466
10.5531
9.42261
8.35039
7.33116
6.35927
5.42895
4.53435
3.6697
2.82934
2.0077
1.19934
0.398901
14.2661
12.9372
11.6796
10.4901
9.36436
8.29744
7.28384
6.31774
5.39323
4.50441
3.64544
2.81063
1.99443
1.19141
0.396267
14.1212
12.796
11.5446
10.3633
9.24733
8.19122
7.18903
6.23464
5.32186
4.44463
3.59702
2.77332
1.96798
1.17563
0.391019
13.9003
12.5811
11.3395
10.1712
9.07047
8.03109
7.04647
6.10994
5.21497
4.35524
3.52472
2.71766
1.92855
1.15211
0.383202
13.5989
12.2885
11.0613
9.9115
8.83229
7.81624
6.85584
5.94371
5.07284
4.23665
3.42897
2.64405
1.87646
1.12106
0.372886
13.2105
11.9129
10.7057
9.58126
8.53096
7.54579
6.61696
5.73624
4.89606
4.08956
3.31048
2.55311
1.81219
1.08277
0.360173
12.7263
11.4469
10.2673
9.17693
8.16456
7.21902
6.32999
5.48823
4.68563
3.91507
3.17029
2.44574
1.73641
1.03768
0.345205
12.1345
10.8813
9.73959
8.69465
7.73135
6.83576
5.99576
5.2011
4.44318
3.7148
3.00988
2.32317
1.65005
0.986341
0.328171
11.419
10.204
9.11521
8.13078
7.23044
6.39693
5.61623
4.87724
4.17119
3.49109
2.83127
2.18701
1.55427
0.929466
0.309311
10.5578
9.40073
8.38648
7.48284
6.66274
5.90531
5.19501
4.52047
3.87327
3.24711
2.63711
2.03934
1.45057
0.867945
0.288921
9.52129
8.45461
7.54718
6.75136
6.03241
5.36657
4.73806
4.13636
3.55433
2.98699
2.43071
1.8827
1.34071
0.802831
0.267348
8.26916
7.34926
6.59628
5.94306
5.34897
4.79053
4.25432
3.73259
3.22071
2.71582
2.21605
1.72003
1.22675
0.735324
0.244989
6.75161
6.07703
5.54563
5.07565
4.62991
4.19228
3.75613
3.31897
2.8801
2.43956
1.99763
1.55465
1.11093
0.666732
0.222272
4.92673
4.66164
4.43359
4.18403
3.90273
3.59256
3.25895
2.90707
2.54118
2.1647
1.78027
1.39
0.99559
0.598407
0.199641
2.84755
3.20921
3.34308
3.32414
3.20446
3.0163
2.78006
2.50917
2.21288
1.89778
1.56875
1.22952
0.883022
0.531668
0.177526
10.729
12.1867
13.6441
15.1005
16.5551
18.0061
19.4508
20.8838
22.2951
23.6654
24.9527
26.0539
26.6671
25.7072
18.4749
10.6347
11.9018
13.1617
14.4085
15.6349
16.8307
17.9812
19.0638
20.0413
20.8498
21.3701
21.3616
20.2973
16.9554
8.60284
10.5421
11.6219
12.6881
13.7303
14.7354
15.6861
16.5582
17.3159
17.904
18.2334
18.1537
17.4013
15.5082
11.6823
4.87832
10.4524
11.3511
12.231
13.0775
13.8733
14.5957
15.214
15.6851
15.9456
15.9004
15.4037
14.2326
12.0603
8.47689
3.20397
10.3669
11.0934
11.7967
12.4598
13.0618
13.577
13.9716
14.1999
14.1988
13.8801
13.1214
11.7583
9.592
6.44424
2.31766
10.2866
10.8515
11.3904
11.8841
12.3103
12.6418
12.8442
12.8735
12.672
12.165
11.2583
9.84118
7.80483
5.09104
1.78453
10.2122
10.6275
11.0152
11.3551
11.6243
11.7958
11.8367
11.7069
11.3569
10.727
9.74908
8.35369
6.4878
4.1492
1.43367
10.1439
10.4226
10.673
10.8749
11.0059
11.0401
10.9475
10.6929
10.2357
9.53019
8.52949
7.19259
5.49877
3.46895
1.18815
10.0821
10.2372
10.3644
10.4439
10.4545
10.3722
10.1704
9.81936
9.28649
8.53814
7.54308
6.27907
4.74287
2.96284
1.00892
10.0266
10.0711
10.0887
10.0607
9.96736
9.7871
9.4968
9.0718
8.48668
7.71714
6.7432
5.55434
4.15614
2.57737
0.874058
9.97731
9.92355
9.84452
9.72284
9.5404
9.27821
8.91652
8.43521
7.81472
7.03785
6.09237
4.9748
3.69466
2.27832
0.770272
9.93376
9.79352
9.6299
9.42702
9.16867
8.83826
8.41915
7.89508
7.25118
6.47546
5.56089
4.50802
3.32766
2.04287
0.68903
9.89559
9.67968
9.44246
9.16964
8.84684
8.45978
7.99451
7.438
6.77902
6.00934
5.1253
4.12964
3.03309
1.85532
0.624586
9.86233
9.58059
9.27967
8.94686
8.56955
8.13549
7.63309
7.05195
6.38361
5.62249
4.76712
3.82124
2.79483
1.70451
0.572929
9.83349
9.49478
9.13899
8.75491
8.33157
7.85855
7.32624
6.72634
6.05249
5.301
4.47169
3.56867
2.6009
1.58231
0.531173
9.80861
9.4208
9.01792
8.59015
8.12802
7.6227
7.06623
6.45199
5.77521
5.03347
4.22737
3.36099
2.44222
1.48267
0.497193
9.78723
9.35726
8.91409
8.44919
7.95441
7.42229
6.84625
6.221
5.54294
4.81055
4.02483
3.18964
2.3118
1.40102
0.469387
9.7689
9.30286
8.82532
8.32892
7.80669
7.25231
6.66037
6.02662
5.34833
4.62459
3.85659
3.04785
2.20423
1.33382
0.446531
9.75325
9.25641
8.74963
8.22656
7.68124
7.10837
6.50346
5.86311
5.18523
4.46931
3.71661
2.93024
2.11524
1.27833
0.427675
9.73991
9.21686
8.68524
8.1396
7.57489
6.98664
6.37112
5.7256
5.04849
4.33954
3.59995
2.83249
2.04143
1.23238
0.412072
9.72857
9.18324
8.63056
8.06586
7.48486
6.88379
6.25958
5.61
4.93383
4.23099
3.50262
2.75111
1.98008
1.19423
0.399128
9.71895
9.15472
8.58421
8.00342
7.40874
6.79699
6.16562
5.51283
4.83766
4.14015
3.42132
2.68325
1.929
1.16251
0.388368
9.71079
9.13056
8.54497
7.95062
7.34444
6.72378
6.08651
5.43116
4.75699
4.06408
3.35336
2.62661
1.88642
1.13608
0.379408
9.70389
9.11013
8.51179
7.90601
7.29019
6.66208
6.01994
5.36253
4.6893
4.00035
3.2965
2.57928
1.85088
1.11403
0.371938
9.69806
9.09286
8.48378
7.86837
7.24445
6.61012
5.96393
5.30488
4.63251
3.94695
3.24892
2.53972
1.82118
1.09563
0.365702
9.69313
9.07829
8.46014
7.83664
7.20591
6.56639
5.91684
5.25646
4.58486
3.9022
3.20908
2.50662
1.79636
1.08025
0.360494
9.68898
9.066
8.44022
7.8099
7.17347
6.5296
5.87727
5.2158
4.5449
3.86469
3.17572
2.47892
1.7756
1.06739
0.35614
9.68549
9.05566
8.42345
7.78741
7.14619
6.49868
5.84403
5.18167
4.51138
3.83326
3.14778
2.45574
1.75824
1.05664
0.3525
9.68254
9.04695
8.40935
7.76849
7.12326
6.47271
5.81613
5.15305
4.48328
3.80693
3.12439
2.43634
1.74371
1.04765
0.349456
9.68007
9.03964
8.39751
7.75261
7.10402
6.45093
5.79274
5.12907
4.45975
3.78489
3.10482
2.42012
1.73157
1.04013
0.346912
9.678
9.03351
8.38757
7.7393
7.08789
6.43268
5.77315
5.10899
4.44006
3.76645
3.08846
2.40656
1.72142
1.03386
0.344788
9.67626
9.02837
8.37926
7.72816
7.0744
6.41742
5.75678
5.09221
4.42362
3.75107
3.0748
2.39525
1.71296
1.02862
0.343016
9.67481
9.02409
8.37232
7.71887
7.06315
6.40469
5.74313
5.07823
4.40992
3.73825
3.06343
2.38583
1.70591
1.02426
0.341542
9.67361
9.02052
8.36655
7.71114
7.0538
6.39412
5.73179
5.06662
4.39854
3.72761
3.054
2.37802
1.70007
1.02065
0.340319
9.67261
9.01758
8.36178
7.70475
7.04606
6.38537
5.72242
5.05703
4.38914
3.71882
3.04621
2.37157
1.69525
1.01767
0.33931
9.67179
9.01516
8.35787
7.69951
7.03972
6.3782
5.71473
5.04916
4.38144
3.71162
3.03982
2.36628
1.69129
1.01522
0.338483
9.67113
9.0132
8.35469
7.69526
7.03458
6.37239
5.7085
5.04278
4.3752
3.70578
3.03465
2.362
1.68809
1.01324
0.337813
9.6706
9.01164
8.35216
7.69187
7.03048
6.36776
5.70354
5.0377
4.37022
3.70113
3.03053
2.35859
1.68554
1.01167
0.33728
9.67019
9.01042
8.3502
7.68924
7.0273
6.36416
5.69969
5.03376
4.36637
3.69753
3.02734
2.35595
1.68357
1.01045
0.336867
9.66989
9.00952
8.34875
7.68729
7.02494
6.3615
5.69684
5.03085
4.36351
3.69486
3.02497
2.35399
1.6821
1.00954
0.336561
9.66968
9.00891
8.34776
7.68597
7.02334
6.3597
5.6949
5.02887
4.36158
3.69305
3.02337
2.35266
1.68111
1.00893
0.336353
9.66957
9.00857
8.34721
7.68523
7.02245
6.35869
5.69382
5.02776
4.36049
3.69204
3.02247
2.35192
1.68056
1.00858
0.336237
9.66954
9.00849
8.34707
7.68506
7.02224
6.35845
5.69356
5.0275
4.36023
3.69179
3.02225
2.35174
1.68042
1.0085
0.336209
9.6696
9.00867
8.34736
7.68544
7.0227
6.35896
5.69411
5.02806
4.36079
3.69231
3.02271
2.35212
1.68071
1.00868
0.336269
9.66975
9.0091
8.34807
7.68638
7.02384
6.36026
5.6955
5.02948
4.36217
3.69361
3.02386
2.35307
1.68142
1.00912
0.336417
9.66999
9.00982
8.34922
7.68793
7.02571
6.36237
5.69776
5.03179
4.36444
3.69572
3.02573
2.35462
1.68257
1.00983
0.336659
9.67033
9.01083
8.35085
7.69012
7.02836
6.36536
5.70096
5.03507
4.36764
3.69871
3.02838
2.35681
1.68421
1.01085
0.337002
9.67078
9.01216
8.35302
7.69301
7.03186
6.36931
5.7052
5.0394
4.37188
3.70268
3.0319
2.35972
1.68639
1.01219
0.337457
9.67136
9.01387
8.35578
7.6967
7.03632
6.37436
5.71061
5.04493
4.3773
3.70774
3.03638
2.36343
1.68916
1.0139
0.338036
9.67208
9.01599
8.35921
7.7013
7.04189
6.38065
5.71734
5.05183
4.38404
3.71404
3.04197
2.36805
1.69261
1.01604
0.338759
9.67296
9.0186
8.36343
7.70695
7.04872
6.38837
5.72561
5.06029
4.39233
3.72178
3.04883
2.37373
1.69686
1.01866
0.339647
9.67403
9.02176
8.36855
7.71381
7.05702
6.39775
5.73567
5.07058
4.4024
3.7312
3.05717
2.38064
1.70202
1.02186
0.340727
9.67532
9.02558
8.37474
7.72209
7.06704
6.40908
5.74781
5.083
4.41457
3.74258
3.06726
2.38899
1.70827
1.02572
0.342033
9.67687
9.03017
8.38217
7.73204
7.07909
6.42269
5.7624
5.09794
4.4292
3.75626
3.07939
2.39903
1.71578
1.03036
0.343605
9.67873
9.03567
8.39106
7.74396
7.09351
6.439
5.77989
5.11585
4.44674
3.77267
3.09394
2.41108
1.72479
1.03593
0.34549
9.68095
9.04223
8.40169
7.7582
7.11075
6.4585
5.80081
5.13727
4.46773
3.79231
3.11136
2.4255
1.73558
1.04261
0.347749
9.6836
9.05006
8.41437
7.77519
7.13132
6.48177
5.82577
5.16284
4.4928
3.81577
3.13218
2.44275
1.74848
1.05059
0.35045
9.68675
9.05938
8.42946
7.79542
7.15583
6.5095
5.85554
5.19335
4.52272
3.84378
3.15704
2.46335
1.7639
1.06013
0.353678
9.69049
9.07047
8.44742
7.81949
7.185
6.54253
5.891
5.22972
4.5584
3.8772
3.18671
2.48795
1.78231
1.07152
0.357535
9.69495
9.08364
8.46877
7.84812
7.2197
6.58184
5.93323
5.27305
4.60093
3.91705
3.22212
2.51731
1.8043
1.08513
0.362142
9.70023
9.09928
8.49413
7.88213
7.26095
6.62859
5.98349
5.32464
4.65161
3.96458
3.26436
2.55236
1.83056
1.10139
0.367646
9.70651
9.11784
8.52422
7.92252
7.30996
6.68416
6.04327
5.38607
4.712
4.02125
3.31477
2.59421
1.86193
1.12082
0.374225
9.71394
9.13984
8.5599
7.97043
7.36814
6.75019
6.11437
5.45918
4.78394
4.08883
3.37493
2.6442
1.89941
1.14404
0.382091
9.72274
9.1659
8.60218
8.02724
7.43718
6.82861
6.1989
5.5462
4.86966
4.16943
3.44675
2.70393
1.94424
1.17183
0.391504
9.73315
9.19673
8.65223
8.09454
7.51903
6.9217
6.29935
5.64975
4.9718
4.2656
3.53255
2.77535
1.99788
1.2051
0.402779
9.74545
9.23317
8.71141
8.17418
7.61601
7.03213
6.41869
5.77296
5.09351
4.38037
3.6351
2.86081
2.06213
1.24498
0.416299
9.75997
9.27618
8.78131
8.26834
7.73081
7.16305
6.56041
5.91954
5.23859
4.51742
3.75775
2.96319
2.1392
1.29285
0.432535
9.77707
9.32686
8.86376
8.37953
7.86658
7.31814
6.72863
6.0939
5.41154
4.68116
3.90459
3.08598
2.23176
1.35041
0.452066
9.79717
9.38649
8.96084
8.51063
8.02693
7.5017
6.9282
6.30127
5.61777
4.87692
4.08058
3.23346
2.34313
1.41975
0.475611
9.82077
9.4565
9.07493
8.66495
8.21605
7.71873
7.1648
6.54786
5.86377
5.11114
4.29176
3.41091
2.47741
1.50348
0.504065
9.84838
9.53849
9.20873
8.84623
8.43874
7.97499
7.44507
6.84099
6.15728
5.39165
4.54557
3.62484
2.63974
1.60489
0.538558
9.88061
9.63425
9.36521
9.05868
8.70043
8.27711
7.77674
7.18932
6.50759
5.72792
4.85114
3.8834
2.83655
1.72813
0.580527
9.9181
9.74573
9.54766
9.30698
9.00722
8.63264
8.16874
7.60301
6.9258
6.1315
5.21979
4.19681
3.07607
1.87853
0.631826
9.96154
9.87501
9.75962
9.59623
9.36586
9.05005
8.63133
8.09398
7.42518
6.6165
5.66558
4.57802
3.36883
2.06304
0.694876
10.0116
10.0243
10.0049
9.93187
9.7837
9.53879
9.17613
8.67606
8.02155
7.2001
6.20612
5.04358
3.72858
2.2908
0.7729
10.0691
10.1957
10.2872
10.3196
10.2686
10.1091
9.81618
9.36518
8.73364
7.90334
6.86353
5.61486
4.17349
2.57415
0.870272
10.1347
10.3916
10.6104
10.7652
10.8285
10.772
10.5658
10.1794
9.58352
8.75184
7.66579
6.31979
4.72798
2.92999
0.993083
10.209
10.6137
10.978
11.274
11.4716
11.5386
11.4401
11.139
10.5968
9.77674
8.64831
7.19522
5.42547
3.38221
1.15007
10.2925
10.8637
11.393
11.8509
12.2051
12.4198
12.4549
12.2656
11.8028
11.0154
9.85601
8.29029
6.31271
3.96548
1.35422
10.3855
11.1427
11.8575
12.4996
13.0351
13.4254
13.6252
13.5818
13.2338
12.5121
11.3455
9.67105
7.4564
4.73194
1.62582
10.4882
11.451
12.3724
13.2221
13.9657
14.5628
14.9641
15.1092
14.9236
14.3174
13.1871
11.4266
8.95383
5.76323
1.99839
10.6002
11.7879
12.9368
14.0178
14.9977
15.8357
16.4804
16.8657
16.9051
16.4861
15.4659
13.6762
10.9494
7.19305
2.53195
10.721
12.1517
13.5479
14.8836
16.1279
17.2423
18.1763
18.8617
19.2042
19.0715
18.2786
16.576
13.6593
9.25085
3.3451
10.8495
12.5394
14.2009
15.8124
17.3479
18.7736
20.0441
21.0951
21.8326
22.1145
21.722
20.318
17.4046
12.348
4.70284
10.9844
12.9465
14.8882
16.7937
18.6435
20.4121
22.0636
23.5455
24.7765
25.6249
25.867
25.1074
22.6373
17.2421
7.28296
11.1237
13.3676
15.6003
17.8131
19.995
22.1311
24.2
26.169
27.985
29.5552
30.7062
31.0833
29.9002
25.3048
13.0618
11.2656
13.7963
16.326
18.8535
21.3776
23.8959
26.4048
28.8978
31.3627
33.7754
36.0813
38.1412
39.5313
38.6768
28.4794
11.4075
14.2255
17.0526
19.8958
22.7634
25.6664
28.6196
31.6447
34.7754
38.068
41.6254
45.6623
50.7191
58.5348
76.3687
11.5473
14.6481
17.7677
20.9204
24.124
27.401
30.7832
34.3169
38.0741
42.1749
46.8344
52.473
59.9884
71.4325
91.3967
11.6828
15.0573
18.4592
21.9092
25.4325
29.0615
32.8404
36.8322
41.1324
45.8917
51.3611
57.9775
66.5261
78.4095
95.9142
1.16794
2.08664
2.48354
2.62828
2.62714
2.53215
2.37285
2.16774
1.92918
1.66587
1.38422
1.08907
0.78429
0.473047
0.158087
0.625191
1.42848
1.87724
2.097
2.16748
2.13666
2.03448
1.88058
1.68845
1.4678
1.22583
0.968086
0.699023
0.422339
0.141259
0.39292
1.01654
1.42999
1.66938
1.77817
1.79075
1.73204
1.61996
1.46755
1.28454
1.07839
0.854965
0.61905
0.374685
0.125429
0.273303
0.750538
1.10362
1.33245
1.45569
1.49434
1.46667
1.38735
1.26789
1.11736
0.94295
0.75052
0.544946
0.330427
0.110711
0.201861
0.570761
0.86352
1.06887
1.19195
1.24398
1.23716
1.18261
1.08983
0.966759
0.820028
0.655203
0.477057
0.289781
0.0971773
0.154601
0.443862
0.684125
0.862428
0.977544
1.0345
1.04082
1.00442
0.932791
0.832594
0.709673
0.56914
0.415508
0.252834
0.0848603
0.121191
0.35099
0.547761
0.699864
0.80353
0.860202
0.874124
0.850708
0.795598
0.71421
0.611549
0.492174
0.360239
0.21957
0.0737562
0.0965182
0.281056
0.442416
0.570939
0.662151
0.715588
0.733365
0.719005
0.676654
0.610602
0.525035
0.423932
0.311035
0.189878
0.0638321
0.0777474
0.227219
0.359877
0.467926
0.547007
0.595741
0.614923
0.606743
0.574171
0.520546
0.449312
0.363881
0.267569
0.163582
0.0550319
0.0631597
0.185057
0.294427
0.38503
0.452939
0.496418
0.515485
0.51142
0.48631
0.44272
0.383449
0.311387
0.229433
0.140455
0.0472832
0.051643
0.151596
0.242011
0.317894
0.375838
0.414047
0.432113
0.430711
0.411285
0.375785
0.326469
0.265763
0.196175
0.120241
0.0405029
0.042441
0.124759
0.199688
0.263215
0.312444
0.345665
0.362262
0.362521
0.347423
0.318445
0.277399
0.226308
0.167324
0.10267
0.0346029
0.0350194
0.103054
0.165283
0.218467
0.260167
0.288829
0.303757
0.304996
0.293201
0.269488
0.235304
0.192334
0.142411
0.0874685
0.029494
0.0289894
0.0853818
0.137159
0.181694
0.216944
0.241533
0.254757
0.256524
0.247257
0.227801
0.199313
0.163189
0.120986
0.0743728
0.0250891
0.0240611
0.0709144
0.114065
0.151371
0.181124
0.202129
0.213715
0.215713
0.208391
0.192386
0.168626
0.138265
0.102622
0.0631322
0.0213052
0.0200142
0.0590188
0.095029
0.126292
0.151381
0.169266
0.179333
0.181375
0.175555
0.162356
0.142523
0.11701
0.0869312
0.0535144
0.0180655
0.0166782
0.0492029
0.0792905
0.1055
0.126642
0.141833
0.150524
0.152497
0.147845
0.136934
0.120364
0.0989263
0.0735581
0.045308
0.0152996
0.0139196
0.0410795
0.0662451
0.0882282
0.106035
0.118914
0.12638
0.12822
0.124481
0.115441
0.101587
0.083572
0.0621865
0.0383227
0.0129441
0.011633
0.0343412
0.0554101
0.0738566
0.0888506
0.0997538
0.106144
0.107819
0.104797
0.0972929
0.0856991
0.0705587
0.0525362
0.0323895
0.0109424
0.00973373
0.0287414
0.0463962
0.061883
0.0745072
0.0837284
0.0891807
0.090681
0.0882267
0.0819847
0.0722745
0.059547
0.044361
0.0273594
0.00924481
0.00815381
0.024081
0.0388882
0.0518973
0.0625271
0.0703206
0.0749627
0.0762892
0.0742866
0.0690851
0.0609454
0.0502426
0.0374468
0.0231024
0.0078076
0.00683809
0.0201986
0.0326289
0.043564
0.0525169
0.0591013
0.0630472
0.0642093
0.0625682
0.058226
0.0513964
0.042392
0.031608
0.0195055
0.00659291
0.00574161
0.0169621
0.027408
0.0366073
0.0441517
0.0497145
0.0530652
0.0540763
0.0527258
0.0490944
0.0433579
0.0357771
0.0266849
0.0164712
0.00556797
0.00482762
0.0142636
0.0230527
0.0308001
0.0371625
0.0418641
0.044708
0.0455833
0.0444676
0.0414248
0.0366002
0.0302121
0.0225406
0.0139159
0.00470464
0.00406592
0.0120142
0.019421
0.0259548
0.0313268
0.0353038
0.037718
0.0384732
0.0375476
0.0349926
0.0309285
0.0255382
0.0190582
0.011768
0.00397881
0.00343169
0.010141
0.0163955
0.0219164
0.02646
0.0298289
0.03188
0.0325304
0.0317594
0.0296084
0.0261779
0.0216213
0.0161385
0.00996656
0.00336999
0.00290448
0.0085836
0.0138794
0.0185566
0.0224091
0.0252692
0.0270149
0.0275746
0.0269294
0.025113
0.0222092
0.0183476
0.0136974
0.00846005
0.00286078
0.00246744
0.00729245
0.011793
0.0157696
0.0190473
0.0214834
0.0229735
0.0234557
0.0229129
0.0213728
0.0189057
0.0156215
0.011664
0.00720493
0.00243649
0.00210672
0.00622664
0.0100704
0.013468
0.0162701
0.0183546
0.019632
0.0200486
0.0195891
0.0182763
0.0161698
0.0133631
0.009979
0.00616464
0.00208479
0.00181094
0.00535267
0.00865757
0.0115799
0.0139912
0.0157865
0.0168882
0.0172499
0.0168578
0.0157309
0.0139201
0.0115055
0.00859284
0.00530873
0.0017954
0.00157084
0.00464316