# vtk DataFile Version 2.0
generated by CFD-lab course output (written by Tobias Neckel) 
ASCII

DATASET STRUCTURED_GRID
DIMENSIONS  82 36 1 
POINTS 2952 float

-2.500000 0.100000 0
-2.402439 0.100000 0
-2.304878 0.100000 0
-2.207317 0.100000 0
-2.109756 0.100000 0
-2.012195 0.100000 0
-1.914634 0.100000 0
-1.817073 0.100000 0
-1.719512 0.100000 0
-1.621951 0.100000 0
-1.524390 0.100000 0
-1.426829 0.100000 0
-1.329268 0.100000 0
-1.231707 0.100000 0
-1.134146 0.100000 0
-1.036585 0.100000 0
-0.939024 0.100000 0
-0.841463 0.100000 0
-0.743902 0.100000 0
-0.646341 0.100000 0
-0.548780 0.100000 0
-0.451220 0.100000 0
-0.353659 0.100000 0
-0.256098 0.100000 0
-0.158537 0.100000 0
-0.060976 0.100000 0
0.036585 0.100000 0
0.134146 0.100000 0
0.231707 0.100000 0
0.329268 0.100000 0
0.426829 0.100000 0
0.524390 0.100000 0
0.621951 0.100000 0
0.719512 0.100000 0
0.817073 0.100000 0
0.914634 0.100000 0
1.012195 0.100000 0
1.109756 0.100000 0
1.207317 0.100000 0
1.304878 0.100000 0
1.402439 0.100000 0
1.500000 0.100000 0
1.597561 0.100000 0
1.695122 0.100000 0
1.792683 0.100000 0
1.890244 0.100000 0
1.987805 0.100000 0
2.085366 0.100000 0
2.182927 0.100000 0
2.280488 0.100000 0
2.378049 0.100000 0
2.475610 0.100000 0
2.573171 0.100000 0
2.670732 0.100000 0
2.768293 0.100000 0
2.865854 0.100000 0
2.963415 0.100000 0
3.060976 0.100000 0
3.158537 0.100000 0
3.256098 0.100000 0
3.353659 0.100000 0
3.451220 0.100000 0
3.548780 0.100000 0
3.646341 0.100000 0
3.743902 0.100000 0
3.841463 0.100000 0
3.939024 0.100000 0
4.036585 0.100000 0
4.134146 0.100000 0
4.231707 0.100000 0
4.329268 0.100000 0
4.426829 0.100000 0
4.524390 0.100000 0
4.621951 0.100000 0
4.719512 0.100000 0
4.817073 0.100000 0
4.914634 0.100000 0
5.012195 0.100000 0
5.109756 0.100000 0
5.207317 0.100000 0
5.304878 0.100000 0
5.402439 0.100000 0
-2.500000 0.147222 0
-2.402439 0.147222 0
-2.304878 0.147222 0
-2.207317 0.147222 0
-2.109756 0.147222 0
-2.012195 0.147222 0
-1.914634 0.147222 0
-1.817073 0.147222 0
-1.719512 0.147222 0
-1.621951 0.147222 0
-1.524390 0.147222 0
-1.426829 0.147222 0
-1.329268 0.147222 0
-1.231707 0.147222 0
-1.134146 0.147222 0
-1.036585 0.147222 0
-0.939024 0.147222 0
-0.841463 0.147222 0
-0.743902 0.147222 0
-0.646341 0.147222 0
-0.548780 0.147222 0
-0.451220 0.147222 0
-0.353659 0.147222 0
-0.256098 0.147222 0
-0.158537 0.147222 0
-0.060976 0.147222 0
0.036585 0.147222 0
0.134146 0.147222 0
0.231707 0.147222 0
0.329268 0.147222 0
0.426829 0.147222 0
0.524390 0.147222 0
0.621951 0.147222 0
0.719512 0.147222 0
0.817073 0.147222 0
0.914634 0.147222 0
1.012195 0.147222 0
1.109756 0.147222 0
1.207317 0.147222 0
1.304878 0.147222 0
1.402439 0.147222 0
1.500000 0.147222 0
1.597561 0.147222 0
1.695122 0.147222 0
1.792683 0.147222 0
1.890244 0.147222 0
1.987805 0.147222 0
2.085366 0.147222 0
2.182927 0.147222 0
2.280488 0.147222 0
2.378049 0.147222 0
2.475610 0.147222 0
2.573171 0.147222 0
2.670732 0.147222 0
2.768293 0.147222 0
2.865854 0.147222 0
2.963415 0.147222 0
3.060976 0.147222 0
3.158537 0.147222 0
3.256098 0.147222 0
3.353659 0.147222 0
3.451220 0.147222 0
3.548780 0.147222 0
3.646341 0.147222 0
3.743902 0.147222 0
3.841463 0.147222 0
3.939024 0.147222 0
4.036585 0.147222 0
4.134146 0.147222 0
4.231707 0.147222 0
4.329268 0.147222 0
4.426829 0.147222 0
4.524390 0.147222 0
4.621951 0.147222 0
4.719512 0.147222 0
4.817073 0.147222 0
4.914634 0.147222 0
5.012195 0.147222 0
5.109756 0.147222 0
5.207317 0.147222 0
5.304878 0.147222 0
5.402439 0.147222 0
-2.500000 0.194444 0
-2.402439 0.194444 0
-2.304878 0.194444 0
-2.207317 0.194444 0
-2.109756 0.194444 0
-2.012195 0.194444 0
-1.914634 0.194444 0
-1.817073 0.194444 0
-1.719512 0.194444 0
-1.621951 0.194444 0
-1.524390 0.194444 0
-1.426829 0.194444 0
-1.329268 0.194444 0
-1.231707 0.194444 0
-1.134146 0.194444 0
-1.036585 0.194444 0
-0.939024 0.194444 0
-0.841463 0.194444 0
-0.743902 0.194444 0
-0.646341 0.194444 0
-0.548780 0.194444 0
-0.451220 0.194444 0
-0.353659 0.194444 0
-0.256098 0.194444 0
-0.158537 0.194444 0
-0.060976 0.194444 0
0.036585 0.194444 0
0.134146 0.194444 0
0.231707 0.194444 0
0.329268 0.194444 0
0.426829 0.194444 0
0.524390 0.194444 0
0.621951 0.194444 0
0.719512 0.194444 0
0.817073 0.194444 0
0.914634 0.194444 0
1.012195 0.194444 0
1.109756 0.194444 0
1.207317 0.194444 0
1.304878 0.194444 0
1.402439 0.194444 0
1.500000 0.194444 0
1.597561 0.194444 0
1.695122 0.194444 0
1.792683 0.194444 0
1.890244 0.194444 0
1.987805 0.194444 0
2.085366 0.194444 0
2.182927 0.194444 0
2.280488 0.194444 0
2.378049 0.194444 0
2.475610 0.194444 0
2.573171 0.194444 0
2.670732 0.194444 0
2.768293 0.194444 0
2.865854 0.194444 0
2.963415 0.194444 0
3.060976 0.194444 0
3.158537 0.194444 0
3.256098 0.194444 0
3.353659 0.194444 0
3.451220 0.194444 0
3.548780 0.194444 0
3.646341 0.194444 0
3.743902 0.194444 0
3.841463 0.194444 0
3.939024 0.194444 0
4.036585 0.194444 0
4.134146 0.194444 0
4.231707 0.194444 0
4.329268 0.194444 0
4.426829 0.194444 0
4.524390 0.194444 0
4.621951 0.194444 0
4.719512 0.194444 0
4.817073 0.194444 0
4.914634 0.194444 0
5.012195 0.194444 0
5.109756 0.194444 0
5.207317 0.194444 0
5.304878 0.194444 0
5.402439 0.194444 0
-2.500000 0.241667 0
-2.402439 0.241667 0
-2.304878 0.241667 0
-2.207317 0.241667 0
-2.109756 0.241667 0
-2.012195 0.241667 0
-1.914634 0.241667 0
-1.817073 0.241667 0
-1.719512 0.241667 0
-1.621951 0.241667 0
-1.524390 0.241667 0
-1.426829 0.241667 0
-1.329268 0.241667 0
-1.231707 0.241667 0
-1.134146 0.241667 0
-1.036585 0.241667 0
-0.939024 0.241667 0
-0.841463 0.241667 0
-0.743902 0.241667 0
-0.646341 0.241667 0
-0.548780 0.241667 0
-0.451220 0.241667 0
-0.353659 0.241667 0
-0.256098 0.241667 0
-0.158537 0.241667 0
-0.060976 0.241667 0
0.036585 0.241667 0
0.134146 0.241667 0
0.231707 0.241667 0
0.329268 0.241667 0
0.426829 0.241667 0
0.524390 0.241667 0
0.621951 0.241667 0
0.719512 0.241667 0
0.817073 0.241667 0
0.914634 0.241667 0
1.012195 0.241667 0
1.109756 0.241667 0
1.207317 0.241667 0
1.304878 0.241667 0
1.402439 0.241667 0
1.500000 0.241667 0
1.597561 0.241667 0
1.695122 0.241667 0
1.792683 0.241667 0
1.890244 0.241667 0
1.987805 0.241667 0
2.085366 0.241667 0
2.182927 0.241667 0
2.280488 0.241667 0
2.378049 0.241667 0
2.475610 0.241667 0
2.573171 0.241667 0
2.670732 0.241667 0
2.768293 0.241667 0
2.865854 0.241667 0
2.963415 0.241667 0
3.060976 0.241667 0
3.158537 0.241667 0
3.256098 0.241667 0
3.353659 0.241667 0
3.451220 0.241667 0
3.548780 0.241667 0
3.646341 0.241667 0
3.743902 0.241667 0
3.841463 0.241667 0
3.939024 0.241667 0
4.036585 0.241667 0
4.134146 0.241667 0
4.231707 0.241667 0
4.329268 0.241667 0
4.426829 0.241667 0
4.524390 0.241667 0
4.621951 0.241667 0
4.719512 0.241667 0
4.817073 0.241667 0
4.914634 0.241667 0
5.012195 0.241667 0
5.109756 0.241667 0
5.207317 0.241667 0
5.304878 0.241667 0
5.402439 0.241667 0
-2.500000 0.288889 0
-2.402439 0.288889 0
-2.304878 0.288889 0
-2.207317 0.288889 0
-2.109756 0.288889 0
-2.012195 0.288889 0
-1.914634 0.288889 0
-1.817073 0.288889 0
-1.719512 0.288889 0
-1.621951 0.288889 0
-1.524390 0.288889 0
-1.426829 0.288889 0
-1.329268 0.288889 0
-1.231707 0.288889 0
-1.134146 0.288889 0
-1.036585 0.288889 0
-0.939024 0.288889 0
-0.841463 0.288889 0
-0.743902 0.288889 0
-0.646341 0.288889 0
-0.548780 0.288889 0
-0.451220 0.288889 0
-0.353659 0.288889 0
-0.256098 0.288889 0
-0.158537 0.288889 0
-0.060976 0.288889 0
0.036585 0.288889 0
0.134146 0.288889 0
0.231707 0.288889 0
0.329268 0.288889 0
0.426829 0.288889 0
0.524390 0.288889 0
0.621951 0.288889 0
0.719512 0.288889 0
0.817073 0.288889 0
0.914634 0.288889 0
1.012195 0.288889 0
1.109756 0.288889 0
1.207317 0.288889 0
1.304878 0.288889 0
1.402439 0.288889 0
1.500000 0.288889 0
1.597561 0.288889 0
1.695122 0.288889 0
1.792683 0.288889 0
1.890244 0.288889 0
1.987805 0.288889 0
2.085366 0.288889 0
2.182927 0.288889 0
2.280488 0.288889 0
2.378049 0.288889 0
2.475610 0.288889 0
2.573171 0.288889 0
2.670732 0.288889 0
2.768293 0.288889 0
2.865854 0.288889 0
2.963415 0.288889 0
3.060976 0.288889 0
3.158537 0.288889 0
3.256098 0.288889 0
3.353659 0.288889 0
3.451220 0.288889 0
3.548780 0.288889 0
3.646341 0.288889 0
3.743902 0.288889 0
3.841463 0.288889 0
3.939024 0.288889 0
4.036585 0.288889 0
4.134146 0.288889 0
4.231707 0.288889 0
4.329268 0.288889 0
4.426829 0.288889 0
4.524390 0.288889 0
4.621951 0.288889 0
4.719512 0.288889 0
4.817073 0.288889 0
4.914634 0.288889 0
5.012195 0.288889 0
5.109756 0.288889 0
5.207317 0.288889 0
5.304878 0.288889 0
5.402439 0.288889 0
-2.500000 0.336111 0
-2.402439 0.336111 0
-2.304878 0.336111 0
-2.207317 0.336111 0
-2.109756 0.336111 0
-2.012195 0.336111 0
-1.914634 0.336111 0
-1.817073 0.336111 0
-1.719512 0.336111 0
-1.621951 0.336111 0
-1.524390 0.336111 0
-1.426829 0.336111 0
-1.329268 0.336111 0
-1.231707 0.336111 0
-1.134146 0.336111 0
-1.036585 0.336111 0
-0.939024 0.336111 0
-0.841463 0.336111 0
-0.743902 0.336111 0
-0.646341 0.336111 0
-0.548780 0.336111 0
-0.451220 0.336111 0
-0.353659 0.336111 0
-0.256098 0.336111 0
-0.158537 0.336111 0
-0.060976 0.336111 0
0.036585 0.336111 0
0.134146 0.336111 0
0.231707 0.336111 0
0.329268 0.336111 0
0.426829 0.336111 0
0.524390 0.336111 0
0.621951 0.336111 0
0.719512 0.336111 0
0.817073 0.336111 0
0.914634 0.336111 0
1.012195 0.336111 0
1.109756 0.336111 0
1.207317 0.336111 0
1.304878 0.336111 0
1.402439 0.336111 0
1.500000 0.336111 0
1.597561 0.336111 0
1.695122 0.336111 0
1.792683 0.336111 0
1.890244 0.336111 0
1.987805 0.336111 0
2.085366 0.336111 0
2.182927 0.336111 0
2.280488 0.336111 0
2.378049 0.336111 0
2.475610 0.336111 0
2.573171 0.336111 0
2.670732 0.336111 0
2.768293 0.336111 0
2.865854 0.336111 0
2.963415 0.336111 0
3.060976 0.336111 0
3.158537 0.336111 0
3.256098 0.336111 0
3.353659 0.336111 0
3.451220 0.336111 0
3.548780 0.336111 0
3.646341 0.336111 0
3.743902 0.336111 0
3.841463 0.336111 0
3.939024 0.336111 0
4.036585 0.336111 0
4.134146 0.336111 0
4.231707 0.336111 0
4.329268 0.336111 0
4.426829 0.336111 0
4.524390 0.336111 0
4.621951 0.336111 0
[...]
POINT_DATA 2952 

VECTORS velocity float
0.000000 0.000000 0
0.000000 0.000000 0
0.000000 0.000000 0
0.000000 0.000000 0
0.000000 0.000000 0
0.000000 0.000000 0
0.000000 0.000000 0
0.000000 0.000000 0
0.000000 0.000000 0
0.000000 0.000000 0
0.000000 0.000000 0
0.000000 0.000000 0
0.000000 0.000000 0
0.000000 0.000000 0
0.000000 0.000000 0
0.000000 0.000000 0
0.000000 0.000000 0
0.000000 0.000000 0
0.000000 0.000000 0
0.000000 0.000000 0
0.000000 0.000000 0
0.000000 0.000000 0
0.000000 0.000000 0
0.000000 0.000000 0
0.000000 0.000000 0
-0.000007 0.000000 0
-0.000007 0.000000 0
-0.000006 0.000000 0
-0.000006 0.000000 0
-0.000006 0.000000 0
-0.000006 0.000000 0
-0.000006 0.000000 0
-0.000005 0.000000 0
-0.000005 0.000000 0
-0.000005 0.000000 0
-0.000005 0.000000 0
-0.000004 0.000000 0
-0.000004 0.000000 0
-0.000004 0.000000 0
-0.000003 0.000000 0
-0.000003 0.000000 0
-0.000003 0.000000 0
-0.000002 0.000000 0
-0.000002 0.000000 0
-0.000002 0.000000 0
-0.000001 0.000000 0
-0.000001 0.000000 0
-0.000001 0.000000 0
-0.000000 0.000000 0
0.000000 0.000000 0
0.000000 0.000000 0
0.000001 0.000000 0
0.000001 0.000000 0
0.000002 0.000000 0
0.000002 0.000000 0
0.000002 0.000000 0
0.000003 0.000000 0
0.000003 0.000000 0
0.000003 0.000000 0
0.000004 0.000000 0
0.000004 0.000000 0
0.000004 0.000000 0
0.000004 0.000000 0
0.000004 0.000000 0
0.000003 0.000000 0
0.000002 0.000000 0
0.000014 0.000000 0
0.000014 0.000000 0
0.000000 0.000000 0
0.000000 0.000000 0
0.000000 0.000000 0
0.000000 0.000000 0
0.000000 0.000000 0
0.000000 0.000000 0
0.000000 0.000000 0
0.000000 0.000000 0
0.000000 0.000000 0
0.000000 0.000000 0
0.000000 0.000000 0
0.000000 0.000000 0
0.000000 0.000000 0
0.000000 0.000000 0
0.000000 0.000000 0
0.000000 0.000000 0
0.000000 0.000000 0
0.000000 0.000000 0
0.000000 0.000000 0
0.000000 0.000000 0
0.000000 0.000000 0
0.000000 0.000000 0
0.000000 0.000000 0
0.000000 0.000000 0
0.000000 0.000000 0
0.000000 0.000000 0
0.000000 0.000000 0
0.000000 0.000000 0
0.000000 0.000000 0
0.000000 0.000000 0
0.000000 0.000000 0
0.000000 0.000000 0
0.000000 0.000000 0
0.000000 0.000000 0
0.000000 0.000000 0
0.000000 0.000000 0
0.000000 0.000000 0
0.000000 0.000000 0
0.002487 -0.001425 0
0.009770 -0.001586 0
0.010817 0.000368 0
0.007530 0.001067 0
0.003947 0.000840 0
0.001788 0.000412 0
0.000903 0.000128 0
0.000687 0.000006 0
0.000711 -0.000025 0
0.000783 -0.000024 0
0.000842 -0.000016 0
0.000881 -0.000009 0
0.000904 -0.000005 0
0.000918 -0.000003 0
0.000927 -0.000002 0
0.000934 -0.000001 0
0.000939 -0.000001 0
0.000944 -0.000001 0
0.000948 -0.000001 0
0.000951 -0.000001 0
0.000954 -0.000000 0
0.000957 -0.000000 0
0.000959 -0.000000 0
0.000960 0.000000 0
0.000960 0.000000 0
0.000960 0.000000 0
0.000959 0.000001 0
0.000957 0.000001 0
0.000954 0.000001 0
0.000952 0.000001 0
0.000949 0.000001 0
0.000946 0.000001 0
0.000942 0.000001 0
0.000932 0.000004 0
0.000902 0.000014 0
0.000816 0.000040 0
0.000607 0.000092 0
0.000192 0.000160 0
-0.000425 0.000184 0
-0.000914 0.000054 0
-0.000542 -0.000207 0
0.001033 -0.000110 0
0.001982 0.000064 0
0.000010 0.000000 0
0.000003 0.000000 0
0.000000 0.000000 0
0.000000 0.000000 0
0.000000 0.000000 0
0.000000 0.000000 0
0.000000 0.000000 0
0.000000 0.000000 0
0.000000 0.000000 0
0.000000 0.000000 0
0.000000 0.000000 0
0.000000 0.000000 0
0.000000 0.000000 0
0.000000 0.000000 0
0.000000 0.000000 0
0.000000 0.000000 0
0.000000 0.000000 0
0.000000 0.000000 0
0.000000 0.000000 0
0.000000 0.000000 0
0.000000 0.000000 0
0.000000 0.000000 0
0.000000 0.000000 0
0.000000 0.000000 0
0.000000 0.000000 0
0.000000 0.000000 0
0.000000 0.000000 0
0.000000 0.000000 0
0.000000 0.000000 0
0.000000 0.000000 0
0.000000 0.000000 0
0.000000 0.000000 0
0.000000 0.000000 0
0.000000 0.000000 0
0.000000 0.000000 0
0.000000 0.000000 0
0.000000 0.000000 0
0.000000 0.000000 0
-0.003167 -0.001222 0
0.004161 -0.004743 0
0.014501 -0.004028 0
0.016417 0.001085 0
0.011773 0.003326 0
0.006360 0.002779 0
0.002911 0.001474 0
0.001379 0.000533 0
0.000917 0.000093 0
0.000880 -0.000046 0
0.000955 -0.000063 0
0.001030 -0.000047 0
0.001084 -0.000029 0
0.001117 -0.000018 0
0.001139 -0.000011 0
0.001153 -0.000007 0
0.001164 -0.000006 0
0.001172 -0.000005 0
0.001180 -0.000004 0
0.001186 -0.000003 0
0.001191 -0.000003 0
0.001196 -0.000002 0
0.001200 -0.000002 0
0.001203 -0.000001 0
0.001204 -0.000000 0
0.001205 0.000000 0
0.001204 0.000001 0
0.001202 0.000002 0
0.001200 0.000002 0
0.001196 0.000003 0
0.001191 0.000003 0
0.001186 0.000003 0
0.001180 0.000004 0
0.001172 0.000007 0
0.001151 0.000020 0
0.001097 0.000057 0
0.000955 0.000143 0
0.000631 0.000303 0
0.000011 0.000500 0
-0.000879 0.000535 0
-0.001535 0.000057 0
-0.000762 -0.000942 0
0.002431 -0.001220 0
0.006338 0.000496 0
0.004577 0.000955 0
0.000007 0.000000 0
-0.000010 0.000000 0
0.000000 0.000000 0
0.000000 0.000000 0
0.000000 0.000000 0
0.000000 0.000000 0
0.000000 0.000000 0
0.000000 0.000000 0
0.000000 0.000000 0
0.000000 0.000000 0
0.000000 0.000000 0
0.000000 0.000000 0
0.000000 0.000000 0
0.000000 0.000000 0
0.000000 0.000000 0
0.000000 0.000000 0
0.000000 0.000000 0
0.000000 0.000000 0
0.000000 0.000000 0
0.000000 0.000000 0
0.000000 0.000000 0
0.000000 0.000000 0
0.000000 0.000000 0
0.000000 0.000000 0
0.000000 0.000000 0
0.000000 0.000000 0
0.000000 0.000000 0
0.000000 0.000000 0
0.000000 0.000000 0
0.000000 0.000000 0
0.000000 0.000000 0
0.000000 0.000000 0
0.000000 0.000000 0
0.000000 0.000000 0
0.000000 0.000000 0
0.000000 0.000000 0
-0.008056 0.001532 0
-0.011489 -0.002033 0
0.000029 -0.009996 0
0.013274 -0.007519 0
0.016162 0.001689 0
0.011713 0.005935 0
0.006238 0.005129 0
0.002654 0.002823 0
0.000998 0.001093 0
0.000451 0.000248 0
0.000363 -0.000043 0
0.000410 -0.000097 0
0.000472 -0.000078 0
0.000519 -0.000051 0
0.000550 -0.000032 0
0.000571 -0.000020 0
0.000584 -0.000014 0
0.000595 -0.000011 0
0.000603 -0.000009 0
0.000610 -0.000007 0
0.000616 -0.000006 0
0.000621 -0.000005 0
0.000626 -0.000004 0
0.000630 -0.000003 0
0.000632 -0.000002 0
0.000634 -0.000001 0
0.000635 0.000000 0
0.000635 0.000002 0
0.000633 0.000003 0
0.000631 0.000004 0
0.000628 0.000005 0
0.000624 0.000006 0
0.000619 0.000006 0
0.000613 0.000008 0
0.000604 0.000015 0
0.000583 0.000041 0
0.000527 0.000109 0
0.000388 0.000266 0
0.000074 0.000549 0
-0.000530 0.000891 0
-0.001416 0.000932 0
-0.002093 -0.000003 0
-0.001180 -0.002126 0
0.003125 -0.003547 0
0.010318 -0.000981 0
0.013229 0.003069 0
0.006628 0.002223 0
0.000001 0.000000 0
-0.000018 0.000000 0
0.000000 0.000000 0
0.000000 0.000000 0
0.000000 0.000000 0
0.000000 0.000000 0
0.000000 0.000000 0
0.000000 0.000000 0
0.000000 0.000000 0
0.000000 0.000000 0
0.000000 0.000000 0
0.000000 0.000000 0
0.000000 0.000000 0
0.000000 0.000000 0
0.000000 0.000000 0
0.000000 0.000000 0
0.000000 0.000000 0
0.000000 0.000000 0
0.000000 0.000000 0
0.000000 0.000000 0
0.000000 0.000000 0
0.000000 0.000000 0
0.000000 0.000000 0
0.000000 0.000000 0
0.000000 0.000000 0
0.000000 0.000000 0
0.000000 0.000000 0
0.000000 0.000000 0
0.000000 0.000000 0
0.000000 0.000000 0
0.000000 0.000000 0
0.000000 0.000000 0
0.000000 0.000000 0
0.000000 0.000000 0
-0.008857 0.003927 0
-0.022885 0.005587 0
-0.021857 -0.005137 0
-0.007725 -0.016729 0
0.006979 -0.011837 0
0.010563 0.001840 0
0.007577 0.008130 0
0.003686 0.007164 0
0.001150 0.004010 0
-0.000021 0.001600 0
-0.000419 0.000401 0
-0.000497 -0.000026 0
-0.000478 -0.000116 0
-0.000444 -0.000100 0
-0.000417 -0.000067 0
-0.000399 -0.000042 0
-0.000387 -0.000027 0
-0.000379 -0.000019 0
-0.000373 -0.000014 0
-0.000368 -0.000012 0
-0.000364 -0.000010 0
-0.000361 -0.000009 0
-0.000358 -0.000008 0
-0.000355 -0.000006 0
-0.000353 -0.000005 0
-0.000351 -0.000003 0
-0.000349 -0.000001 0
-0.000349 0.000000 0
-0.000348 0.000002 0
-0.000349 0.000004 0
-0.000349 0.000005 0
-0.000350 0.000007 0
-0.000352 0.000007 0
-0.000354 0.000008 0
-0.000356 0.000011 0
-0.000361 0.000022 0
-0.000372 0.000057 0
-0.000404 0.000151 0
-0.000486 0.000363 0
-0.000679 0.000747 0
-0.001076 0.001221 0
-0.001723 0.001292 0
-0.002320 -0.000057 0
-0.001646 -0.003467 0
0.002712 -0.006785 0
0.012196 -0.004394 0
0.019587 0.002748 0
0.018242 0.006423 0
0.007452 0.003220 0
-0.000004 0.000000 0
-0.000021 0.000000 0
0.000000 0.000000 0
0.000000 0.000000 0
0.000000 0.000000 0
0.000000 0.000000 0
0.000000 0.000000 0
0.000000 0.000000 0
0.000000 0.000000 0
0.000000 0.000000 0
0.000000 0.000000 0
0.000000 0.000000 0
0.000000 0.000000 0
0.000000 0.000000 0
0.000000 0.000000 0
0.000000 0.000000 0
0.000000 0.000000 0
0.000000 0.000000 0
0.000000 0.000000 0
0.000000 0.000000 0
0.000000 0.000000 0
0.000000 0.000000 0
0.000000 0.000000 0
0.000000 0.000000 0
0.000000 0.000000 0
0.000000 0.000000 0
0.000000 0.000000 0
0.000000 0.000000 0
0.000000 0.000000 0
0.000000 0.000000 0
0.000000 0.000000 0
0.000000 0.000000 0
-0.005987 0.004317 0
-0.023079 0.011135 0
-0.033836 0.007851 0
-0.030695 -0.009371 0
-0.016068 -0.023953 0
-0.001984 -0.016371 0
0.001423 0.001400 0
0.000777 0.009264 0
-0.000266 0.008240 0
-0.000850 0.004618 0
-0.001071 0.001852 0
-0.001132 0.000478 0
-0.001143 -0.000014 0
-0.001144 -0.000122 0
-0.001144 -0.000108 0
-0.001144 -0.000073 0
-0.001144 -0.000046 0
-0.001144 -0.000030 0
-0.001145 -0.000021 0
-0.001145 -0.000016 0
-0.001146 -0.000013 0
-0.001146 -0.000011 0
-0.001146 -0.000010 0
-0.001146 -0.000008 0
-0.001146 -0.000007 0
-0.001146 -0.000005 0
-0.001146 -0.000004 0
-0.001146 -0.000002 0
-0.001145 0.000000 0
-0.001144 0.000002 0
-0.001143 0.000004 0
-0.001142 0.000005 0
-0.001141 0.000007 0
-0.001139 0.000007 0
-0.001137 0.000008 0
-0.001135 0.000011 0
-0.001132 0.000023 0
-0.001128 0.000062 0
-0.001123 0.000164 0
-0.001116 0.000399 0
-0.001122 0.000834 0
-0.001184 0.001396 0
-0.001395 0.001535 0
-0.001767 -0.000040 0
-0.001639 -0.004562 0
0.001462 -0.010246 0
0.011438 -0.009149 0
0.021894 0.000143 0
0.025534 0.008116 0
0.019915 0.008858 0
0.007118 0.003617 0
-0.000008 0.000000 0
-0.000019 0.000000 0
0.000000 0.000000 0
0.000000 0.000000 0
0.000000 0.000000 0
0.000000 0.000000 0
0.000000 0.000000 0
0.000000 0.000000 0
0.000000 0.000000 0
0.000000 0.000000 0
0.000000 0.000000 0
-0.000257 0.000000 0
-0.000257 0.000000 0
-0.000444 0.000000 0
-0.000532 0.000000 0
-0.000574 0.000000 0
-0.000595 0.000000 0
-0.000606 0.000000 0
-0.000613 0.000000 0
-0.000619 0.000000 0
-0.000624 0.000000 0
-0.000627 0.000000 0
-0.000629 0.000000 0
-0.000636 0.000000 0
-0.000672 0.000000 0
-0.000797 0.000000 0
-0.001123 0.000000 0
-0.001746 0.000000 0
-0.002558 0.000000 0
0.000000 0.000000 0
-0.001577 0.002912 0
-0.014364 0.011216 0
-0.030111 0.017437 0
-0.038836 0.009273 0
-0.035162 -0.013737 0
-0.021856 -0.030626 0
-0.010243 -0.020303 0
-0.008410 0.000504 0
-0.006469 0.008947 0
-0.004134 0.007952 0
-0.002445 0.004400 0
-0.001586 0.001736 0
-0.001270 0.000436 0
-0.001205 -0.000020 0
-0.001224 -0.000116 0
-0.001258 -0.000100 0
-0.001285 -0.000067 0
-0.001303 -0.000042 0
-0.001315 -0.000027 0
-0.001324 -0.000018 0
-0.001331 -0.000014 0
-0.001336 -0.000011 0
-0.001340 -0.000010 0
-0.001344 -0.000009 0
-0.001347 -0.000007 0
-0.001350 -0.000006 0
-0.001352 -0.000005 0
-0.001353 -0.000003 0
-0.001354 -0.000002 0
-0.001354 -0.000000 0
-0.001353 0.000001 0
-0.001352 0.000003 0
-0.001349 0.000004 0
-0.001346 0.000005 0
-0.001342 0.000006 0
-0.001338 0.000006 0
-0.001332 0.000009 0
-0.001323 0.000019 0
-0.001306 0.000053 0
-0.001266 0.000145 0
-0.001175 0.000362 0
-0.000988 0.000780 0
-0.000678 0.001354 0
-0.000339 0.001575 0
-0.000303 0.000061 0
-0.000819 -0.005030 0
-0.000157 -0.013115 0
0.008439 -0.014284 0
0.019852 -0.004074 0
0.027203 0.007381 0
0.026794 0.012156 0
0.018591 0.009666 0
0.005884 0.003451 0
-0.000010 0.000000 0
-0.001357 0.000000 0
-0.000569 0.000000 0
-0.000392 0.000000 0
-0.000336 0.000000 0
-0.000263 0.000000 0
-0.000150 0.000000 0
-0.000041 0.000000 0
0.000001 0.000000 0
0.000000 0.000000 0
0.000000 0.000000 0
0.000004 0.000000 0
0.000004 0.000000 0
0.000003 0.000000 0
0.000003 0.000000 0
0.000003 0.000000 0
0.000003 0.000000 0
0.000004 0.000000 0
0.000004 0.000000 0
0.000004 0.000000 0
0.000004 0.000000 0
0.000004 0.000000 0
0.000004 0.000000 0
0.000004 0.000000 0
0.000005 0.000000 0
0.000005 0.000000 0
0.000005 0.000000 0
0.000005 0.000000 0
0.002870 0.000762 0
-0.002565 0.006966 0
-0.016220 0.018144 0
-0.030093 0.022980 0
-0.037015 0.010296 0
-0.033541 -0.017590 0
-0.022681 -0.036014 0
-0.014548 -0.022879 0
-0.015748 -0.000427 0
-0.011714 0.007194 0
-0.006512 0.006293 0
-0.003018 0.003384 0
-0.001376 0.001284 0
-0.000825 0.000294 0
-0.000733 -0.000037 0
-0.000778 -0.000097 0
-0.000840 -0.000078 0
-0.000887 -0.000051 0
-0.000917 -0.000031 0
-0.000937 -0.000019 0
-0.000951 -0.000013 0
-0.000961 -0.000010 0
-0.000969 -0.000008 0
-0.000976 -0.000007 0
-0.000982 -0.000006 0
-0.000987 -0.000005 0
-0.000991 -0.000004 0
-0.000995 -0.000003 0
-0.000997 -0.000002 0
-0.000999 -0.000001 0
-0.000999 -0.000000 0
-0.000998 0.000001 0
-0.000997 0.000002 0
-0.000994 0.000003 0
-0.000990 0.000003 0
-0.000986 0.000003 0
-0.000981 0.000004 0
-0.000975 0.000005 0
-0.000965 0.000011 0
-0.000943 0.000034 0
-0.000886 0.000101 0
-0.000745 0.000264 0
-0.000428 0.000594 0
0.000173 0.001082 0
0.001024 0.001353 0
0.001584 0.000193 0
0.000603 -0.004632 0
-0.001863 -0.014727 0
0.004062 -0.018834 0
0.014352 -0.008939 0
0.023495 0.004756 0
0.027348 0.013027 0
0.024147 0.013756 0
0.015069 0.009016 0
0.004512 0.002847 0
-0.000011 0.000000 0
-0.000005 0.000000 0
-0.000003 0.000000 0
-0.000002 0.000000 0
-0.000002 0.000000 0
-0.000001 0.000000 0
-0.000000 0.000000 0
0.000000 0.000000 0
-2.500000 0.000000 0
0.000887 -0.000286 0
0.000894 -0.000233 0
0.001491 -0.000133 0
0.001813 -0.000063 0
0.001982 -0.000030 0
0.002070 -0.000015 0
0.002120 -0.000009 0
0.002153 -0.000007 0
0.002178 -0.000005 0
0.002200 -0.000004 0
0.002217 -0.000003 0
0.002235 -0.000004 0
0.002281 -0.000020 0
0.002436 -0.000078 0
0.002898 -0.000218 0
0.003980 -0.000460 0
0.005865 -0.000694 0
0.007911 -0.000571 0
0.007545 0.002451 0
-0.000623 0.012152 0
-0.013309 0.024540 0
-0.024241 0.027502 0
-0.028879 0.010943 0
-0.025701 -0.020674 0
-0.017791 -0.039819 0
-0.013178 -0.023659 0
-0.017943 -0.000868 0
-0.012907 0.004477 0
-0.006504 0.003743 0
-0.002465 0.001914 0
-0.000701 0.000675 0
-0.000173 0.000125 0
-0.000123 -0.000043 0
-0.000196 -0.000064 0
-0.000271 -0.000047 0
-0.000324 -0.000029 0
-0.000357 -0.000017 0
-0.000377 -0.000010 0
-0.000391 -0.000007 0
-0.000401 -0.000005 0
-0.000408 -0.000004 0
-0.000415 -0.000004 0
-0.000421 -0.000003 0
-0.000426 -0.000003 0
-0.000430 -0.000002 0
-0.000433 -0.000002 0
-0.000436 -0.000001 0
-0.000437 -0.000001 0
-0.000438 -0.000000 0
-0.000438 0.000000 0
-0.000436 0.000001 0
-0.000434 0.000001 0
-0.000431 0.000001 0
-0.000428 0.000001 0
-0.000424 0.000001 0
-0.000420 0.000001 0
-0.000414 0.000004 0
-0.000397 0.000015 0
-0.000348 0.000050 0
-0.000212 0.000141 0
0.000120 0.000336 0
0.000806 0.000651 0
0.001908 0.000892 0
0.002902 0.000264 0
0.001916 -0.003362 0
-0.003467 -0.014789 0
-0.000665 -0.022132 0
0.006944 -0.013480 0
0.015845 0.001091 0
0.022352 0.011841 0
0.023557 0.015610 0
0.018853 0.012964 0
0.010993 0.006651 0
0.004598 0.001910 0
0.002279 0.000464 0
0.001535 0.000112 0
0.001229 0.000062 0
0.000923 0.000090 0
0.000527 0.000108 0
0.000162 0.000073 0
-0.000001 0.000020 0
-5.000000 0.000000 0
0.001361 -0.000932 0
0.001368 -0.000754 0
0.002259 -0.000445 0
0.002797 -0.000238 0
0.003102 -0.000124 0
0.003270 -0.000067 0
0.003367 -0.000040 0
0.003431 -0.000028 0
0.003480 -0.000022 0
0.003521 -0.000018 0
0.003557 -0.000017 0
0.003604 -0.000031 0
0.003708 -0.000097 0
0.004003 -0.000298 0
0.004768 -0.000747 0
0.006396 -0.001436 0
0.008970 -0.001902 0
0.011260 -0.000843 0
0.009655 0.004863 0
0.001842 0.017060 0
-0.007844 0.029576 0
-0.014611 0.030517 0
-0.016260 0.011003 0
-0.013294 -0.022957 0
-0.008705 -0.042076 0
-0.007215 -0.022805 0
-0.013281 -0.000558 0
-0.008931 0.001657 0
-0.004032 0.001239 0
-0.001197 0.000576 0
-0.000077 0.000174 0
0.000197 0.000014 0
0.000181 -0.000026 0
0.000108 -0.000025 0
0.000049 -0.000016 0
0.000011 -0.000009 0
-0.000011 -0.000005 0
-0.000024 -0.000003 0
-0.000032 -0.000002 0
-0.000038 -0.000001 0
-0.000042 -0.000001 0
-0.000046 -0.000001 0
-0.000050 -0.000001 0
-0.000052 -0.000001 0
-0.000055 -0.000001 0
-0.000057 -0.000000 0
-0.000058 -0.000000 0
-0.000059 -0.000000 0
-0.000060 -0.000000 0
-0.000060 0.000000 0
-0.000059 0.000000 0
-0.000058 0.000000 0
-0.000056 0.000000 0
-0.000054 0.000000 0
-0.000053 0.000000 0
-0.000052 -0.000000 0
-0.000050 -0.000000 0
-0.000044 0.000002 0
-0.000019 0.000012 0
0.000059 0.000038 0
0.000271 0.000102 0
0.000753 0.000217 0
0.001617 0.000339 0
0.002596 0.000189 0
0.002163 -0.001549 0
-0.004294 -0.013478 0
-0.004667 -0.023873 0
-0.000677 -0.016930 0
0.006324 -0.002701 0
0.013655 0.009294 0
0.017968 0.015450 0
0.017368 0.015098 0
0.012767 0.009751 0
0.007141 0.004221 0
0.004033 0.001483 0
0.002701 0.000509 0
0.002040 0.000297 0
0.001461 0.000340 0
0.000816 0.000369 0
0.000263 0.000255 0
-0.000001 0.000079 0
-5.000000 0.000000 0
0.001302 -0.001674 0
0.001309 -0.001358 0
0.002202 -0.000824 0
0.002788 -0.000471 0
0.003144 -0.000259 0
0.003350 -0.000144 0
0.003472 -0.000087 0
0.003553 -0.000061 0
0.003613 -0.000048 0
0.003664 -0.000041 0
0.003714 -0.000043 0
0.003782 -0.000077 0
0.003923 -0.000213 0
0.004274 -0.000590 0
0.005088 -0.001377 0
0.006662 -0.002493 0
0.008913 -0.003049 0
0.010564 -0.000902 0
0.008830 0.007010 0
0.003340 0.020621 0
-0.001840 0.032505 0
-0.003573 0.031575 0
-0.001825 0.010305 0
0.000712 -0.024331 0
0.001167 -0.042761 0
-0.001715 -0.021406 0
-0.000013 0.000000 0
-0.000007 0.000000 0
-0.000007 0.000000 0
-0.000007 0.000000 0
-0.000006 0.000000 0
-0.000006 0.000000 0
-0.000005 0.000000 0
-0.000005 0.000000 0
-0.000005 0.000000 0
-0.000004 0.000000 0
-0.000004 0.000000 0
-0.000004 0.000000 0
-0.000003 0.000000 0
-0.000003 0.000000 0
-0.000003 0.000000 0
-0.000002 0.000000 0
-0.000002 0.000000 0
-0.000001 0.000000 0
-0.000001 0.000000 0
-0.000001 0.000000 0
-0.000000 0.000000 0
-0.000000 0.000000 0
0.000000 0.000000 0
0.000001 0.000000 0
0.000001 0.000000 0
0.000001 0.000000 0
0.000002 0.000000 0
0.000002 0.000000 0
0.000002 0.000000 0
0.000003 0.000000 0
0.000003 0.000000 0
0.000004 0.000000 0
0.000004 0.000000 0
0.000005 0.000000 0
0.000005 0.000000 0
0.000006 0.000000 0
0.000007 0.000000 0
0.000009 0.000000 0
0.000016 0.000000 0
-0.002187 -0.011456 0
-0.007038 -0.023882 0
-0.007116 -0.018800 0
-0.003012 -0.005846 0
0.003520 0.006205 0
0.009383 0.013812 0
0.011995 0.015482 0
0.010749 0.011601 0
0.007201 0.006138 0
0.004495 0.002614 0
0.003017 0.001077 0
0.002158 0.000662 0
0.001446 0.000683 0
0.000752 0.000687 0
0.000226 0.000467 0
-0.000001 0.000147 0
-5.000000 0.000000 0
0.000821 -0.002261 0
0.000828 -0.001850 0
0.001478 -0.001160 0
0.001948 -0.000693 0
0.002254 -0.000397 0
0.002440 -0.000226 0
0.002555 -0.000138 0
0.002631 -0.000096 0
0.002689 -0.000076 0
0.002739 -0.000067 0
0.002790 -0.000074 0
0.002861 -0.000132 0
0.002999 -0.000335 0
0.003301 -0.000862 0
0.003921 -0.001903 0
0.004977 -0.003288 0
0.006273 -0.003791 0
0.006923 -0.000802 0
0.005642 0.008359 0
0.003404 0.022225 0
0.003357 0.032922 0
0.006809 0.030509 0
0.011706 0.008929 0
0.013217 -0.024405 0
0.008399 -0.040909 0
-0.000004 0.000026 0
0.004526 0.020041 0
0.002785 0.000000 0
0.001107 0.000000 0
0.000226 0.000000 0
-0.000081 0.000000 0
-0.000133 0.000000 0
-0.000110 0.000000 0
-0.000080 0.000000 0
-0.000058 0.000000 0
-0.000046 0.000000 0
-0.000039 0.000000 0
-0.000035 0.000000 0
-0.000032 0.000000 0
-0.000030 0.000000 0
-0.000029 0.000000 0
-0.000028 0.000000 0
-0.000027 0.000000 0
-0.000025 0.000000 0
-0.000024 0.000000 0
-0.000024 0.000000 0
-0.000023 0.000000 0
-0.000022 0.000000 0
-0.000022 0.000000 0
-0.000022 0.000000 0
-0.000022 0.000000 0
-0.000022 0.000000 0
-0.000022 0.000000 0
-0.000022 0.000000 0
-0.000022 0.000000 0
-0.000021 0.000000 0
-0.000020 0.000000 0
-0.000020 0.000000 0
-0.000024 0.000000 0
-0.000043 0.000000 0
-0.000103 0.000000 0