# vtk DataFile Version 2.0
generated by CFD-lab course output (written by Tobias Neckel) 
ASCII

DATASET STRUCTURED_GRID
DIMENSIONS  82 36 1 
POINTS 2952 float

-2.500000 0.100000 0
-2.402439 0.100000 0
-2.304878 0.100000 0
-2.207317 0.100000 0
-2.109756 0.100000 0
-2.012195 0.100000 0
-1.914634 0.100000 0
-1.817073 0.100000 0
-1.719512 0.100000 0
-1.621951 0.100000 0
-1.524390 0.100000 0
-1.426829 0.100000 0
-1.329268 0.100000 0
-1.231707 0.100000 0
-1.134146 0.100000 0
-1.036585 0.100000 0
-0.939024 0.100000 0
-0.841463 0.100000 0
-0.743902 0.100000 0
-0.646341 0.100000 0
-0.548780 0.100000 0
-0.451220 0.100000 0
-0.353659 0.100000 0
-0.256098 0.100000 0
-0.158537 0.100000 0
-0.060976 0.100000 0
0.036585 0.100000 0
0.134146 0.100000 0
0.231707 0.100000 0
0.329268 0.100000 0
0.426829 0.100000 0
0.524390 0.100000 0
0.621951 0.100000 0
0.719512 0.100000 0
0.817073 0.100000 0
0.914634 0.100000 0
1.012195 0.100000 0
1.109756 0.100000 0
1.207317 0.100000 0
1.304878 0.100000 0
1.402439 0.100000 0
1.500000 0.100000 0
1.597561 0.100000 0
1.695122 0.100000 0
1.792683 0.100000 0
1.890244 0.100000 0
1.987805 0.100000 0
2.085366 0.100000 0
2.182927 0.100000 0
2.280488 0.100000 0
2.378049 0.100000 0
2.475610 0.100000 0
2.573171 0.100000 0
2.670732 0.100000 0
2.768293 0.100000 0
2.865854 0.100000 0
2.963415 0.100000 0
3.060976 0.100000 0
3.158537 0.100000 0
3.256098 0.100000 0
3.353659 0.100000 0
3.451220 0.100000 0
3.548780 0.100000 0
3.646341 0.100000 0
3.743902 0.100000 0
3.841463 0.100000 0
3.939024 0.100000 0
4.036585 0.100000 0
4.134146 0.100000 0
4.231707 0.100000 0
4.329268 0.100000 0
4.426829 0.100000 0
4.524390 0.100000 0
4.621951 0.100000 0
4.719512 0.100000 0
4.817073 0.100000 0
4.914634 0.100000 0
5.012195 0.100000 0
5.109756 0.100000 0
5.207317 0.100000 0
5.304878 0.100000 0
5.402439 0.100000 0
-2.500000 0.147222 0
-2.402439 0.147222 0
-2.304878 0.147222 0
-2.207317 0.147222 0
-2.109756 0.147222 0
-2.012195 0.147222 0
-1.914634 0.147222 0
-1.817073 0.147222 0
-1.719512 0.147222 0
-1.621951 0.147222 0
-1.524390 0.147222 0
-1.426829 0.147222 0
-1.329268 0.147222 0
-1.231707 0.147222 0
-1.134146 0.147222 0
-1.036585 0.147222 0
-0.939024 0.147222 0
-0.841463 0.147222 0
-0.743902 0.147222 0
-0.646341 0.147222 0
-0.548780 0.147222 0
-0.451220 0.147222 0
-0.353659 0.147222 0
-0.256098 0.147222 0
-0.158537 0.147222 0
-0.060976 0.147222 0
0.036585 0.147222 0
0.134146 0.147222 0
0.231707 0.147222 0
0.329268 0.147222 0
0.426829 0.147222 0
0.524390 0.147222 0
0.621951 0.147222 0
0.719512 0.147222 0
0.817073 0.147222 0
0.914634 0.147222 0
1.012195 0.147222 0
1.109756 0.147222 0
1.207317 0.147222 0
1.304878 0.147222 0
1.402439 0.147222 0
1.500000 0.147222 0
1.597561 0.147222 0
1.695122 0.147222 0
1.792683 0.147222 0
1.890244 0.147222 0
1.987805 0.147222 0
2.085366 0.147222 0
2.182927 0.147222 0
2.280488 0.147222 0
2.378049 0.147222 0
2.475610 0.147222 0
2.573171 0.147222 0
2.670732 0.147222 0
2.768293 0.147222 0
2.865854 0.147222 0
2.963415 0.147222 0
3.060976 0.147222 0
3.158537 0.147222 0
3.256098 0.147222 0
3.353659 0.147222 0
3.451220 0.147222 0
3.548780 0.147222 0
3.646341 0.147222 0
3.743902 0.147222 0
3.841463 0.147222 0
3.939024 0.147222 0
4.036585 0.147222 0
4.134146 0.147222 0
4.231707 0.147222 0
4.329268 0.147222 0
4.426829 0.147222 0
4.524390 0.147222 0
4.621951 0.147222 0
4.719512 0.147222 0
4.817073 0.147222 0
4.914634 0.147222 0
5.012195 0.147222 0
5.109756 0.147222 0
5.207317 0.147222 0
5.304878 0.147222 0
5.402439 0.147222 0
-2.500000 0.194444 0
-2.402439 0.194444 0
-2.304878 0.194444 0
-2.207317 0.194444 0
-2.109756 0.194444 0
-2.012195 0.194444 0
-1.914634 0.194444 0
-1.817073 0.194444 0
-1.719512 0.194444 0
-1.621951 0.194444 0
-1.524390 0.194444 0
-1.426829 0.194444 0
-1.329268 0.194444 0
-1.231707 0.194444 0
-1.134146 0.194444 0
-1.036585 0.194444 0
-0.939024 0.194444 0
-0.841463 0.194444 0
-0.743902 0.194444 0
-0.646341 0.194444 0
-0.548780 0.194444 0
-0.451220 0.194444 0
-0.353659 0.194444 0
-0.256098 0.194444 0
-0.158537 0.194444 0
-0.060976 0.194444 0
0.036585 0.194444 0
0.134146 0.194444 0
0.231707 0.194444 0
0.329268 0.194444 0
0.426829 0.194444 0
0.524390 0.194444 0
0.621951 0.194444 0
0.719512 0.194444 0
0.817073 0.194444 0
0.914634 0.194444 0
1.012195 0.194444 0
1.109756 0.194444 0
1.207317 0.194444 0
1.304878 0.194444 0
1.402439 0.194444 0
1.500000 0.194444 0
1.597561 0.194444 0
1.695122 0.194444 0
1.792683 0.194444 0
1.890244 0.194444 0
1.987805 0.194444 0
2.085366 0.194444 0
2.182927 0.194444 0
2.280488 0.194444 0
2.378049 0.194444 0
2.475610 0.194444 0
2.573171 0.194444 0
2.670732 0.194444 0
2.768293 0.194444 0
2.865854 0.194444 0
2.963415 0.194444 0
3.060976 0.194444 0
3.158537 0.194444 0
3.256098 0.194444 0
3.353659 0.194444 0
3.451220 0.194444 0
3.548780 0.194444 0
3.646341 0.194444 0
3.743902 0.194444 0
3.841463 0.194444 0
3.939024 0.194444 0
4.036585 0.194444 0
4.134146 0.194444 0
4.231707 0.194444 0
4.329268 0.194444 0
4.426829 0.194444 0
4.524390 0.194444 0
4.621951 0.194444 0
4.719512 0.194444 0
4.817073 0.194444 0
4.914634 0.194444 0
5.012195 0.194444 0
5.109756 0.194444 0
5.207317 0.194444 0
5.304878 0.194444 0
5.402439 0.194444 0
-2.500000 0.241667 0
-2.402439 0.241667 0
-2.304878 0.241667 0
-2.207317 0.241667 0
-2.109756 0.241667 0
-2.012195 0.241667 0
-1.914634 0.241667 0
-1.817073 0.241667 0
-1.719512 0.241667 0
-1.621951 0.241667 0
-1.524390 0.241667 0
-1.426829 0.241667 0
-1.329268 0.241667 0
-1.231707 0.241667 0
-1.134146 0.241667 0
-1.036585 0.241667 0
-0.939024 0.241667 0
-0.841463 0.241667 0
-0.743902 0.241667 0
-0.646341 0.241667 0
-0.548780 0.241667 0
-0.451220 0.241667 0
-0.353659 0.241667 0
-0.256098 0.241667 0
-0.158537 0.241667 0
-0.060976 0.241667 0
0.036585 0.241667 0
0.134146 0.241667 0
0.231707 0.241667 0
0.329268 0.241667 0
0.426829 0.241667 0
0.524390 0.241667 0
0.621951 0.241667 0
0.719512 0.241667 0
0.817073 0.241667 0
0.914634 0.241667 0
1.012195 0.241667 0
1.109756 0.241667 0
1.207317 0.241667 0
1.304878 0.241667 0
1.402439 0.241667 0
1.500000 0.241667 0
1.597561 0.241667 0
1.695122 0.241667 0
1.792683 0.241667 0
1.890244 0.241667 0
1.987805 0.241667 0
2.085366 0.241667 0
2.182927 0.241667 0
2.280488 0.241667 0
2.378049 0.241667 0
2.475610 0.241667 0
2.573171 0.241667 0
2.670732 0.241667 0
2.768293 0.241667 0
2.865854 0.241667 0
2.963415 0.241667 0
3.060976 0.241667 0
3.158537 0.241667 0
3.256098 0.241667 0
3.353659 0.241667 0
3.451220 0.241667 0
3.548780 0.241667 0
3.646341 0.241667 0
3.743902 0.241667 0
3.841463 0.241667 0
3.939024 0.241667 0
4.036585 0.241667 0
4.134146 0.241667 0
4.231707 0.241667 0
4.329268 0.241667 0
4.426829 0.241667 0
4.524390 0.241667 0
4.621951 0.241667 0
4.719512 0.241667 0
4.817073 0.241667 0
4.914634 0.241667 0
5.012195 0.241667 0
5.109756 0.241667 0
5.207317 0.241667 0
5.304878 0.241667 0
5.402439 0.241667 0
-2.500000 0.288889 0
-2.402439 0.288889 0
-2.304878 0.288889 0
-2.207317 0.288889 0
-2.109756 0.288889 0
-2.012195 0.288889 0
-1.914634 0.288889 0
-1.817073 0.288889 0
-1.719512 0.288889 0
-1.621951 0.288889 0
-1.524390 0.288889 0
-1.426829 0.288889 0
-1.329268 0.288889 0
-1.231707 0.288889 0
-1.134146 0.288889 0
-1.036585 0.288889 0
-0.939024 0.288889 0
-0.841463 0.288889 0
-0.743902 0.288889 0
-0.646341 0.288889 0
-0.548780 0.288889 0
-0.451220 0.288889 0
-0.353659 0.288889 0
-0.256098 0.288889 0
-0.158537 0.288889 0
-0.060976 0.288889 0
0.036585 0.288889 0
0.134146 0.288889 0
0.231707 0.288889 0
0.329268 0.288889 0
0.426829 0.288889 0
0.524390 0.288889 0
0.621951 0.288889 0
0.719512 0.288889 0
0.817073 0.288889 0
0.914634 0.288889 0
1.012195 0.288889 0
1.109756 0.288889 0
1.207317 0.288889 0
1.304878 0.288889 0
1.402439 0.288889 0
1.500000 0.288889 0
1.597561 0.288889 0
1.695122 0.288889 0
1.792683 0.288889 0
1.890244 0.288889 0
1.987805 0.288889 0
2.085366 0.288889 0
2.182927 0.288889 0
2.280488 0.288889 0
2.378049 0.288889 0
2.475610 0.288889 0
2.573171 0.288889 0
2.670732 0.288889 0
2.768293 0.288889 0
2.865854 0.288889 0
2.963415 0.288889 0
3.060976 0.288889 0
3.158537 0.288889 0
3.256098 0.288889 0
3.353659 0.288889 0
3.451220 0.288889 0
3.548780 0.288889 0
3.646341 0.288889 0
3.743902 0.288889 0
3.841463 0.288889 0
3.939024 0.288889 0
4.036585 0.288889 0
4.134146 0.288889 0
4.231707 0.288889 0
4.329268 0.288889 0
4.426829 0.288889 0
4.524390 0.288889 0
4.621951 0.288889 0
4.719512 0.288889 0
4.817073 0.288889 0
4.914634 0.288889 0
5.012195 0.288889 0
5.109756 0.288889 0
5.207317 0.288889 0
5.304878 0.288889 0
5.402439 0.288889 0
-2.500000 0.336111 0
-2.402439 0.336111 0
-2.304878 0.336111 0
-2.207317 0.336111 0
-2.109756 0.336111 0
-2.012195 0.336111 0
-1.914634 0.336111 0
-1.817073 0.336111 0
-1.719512 0.336111 0
-1.621951 0.336111 0
-1.524390 0.336111 0
-1.426829 0.336111 0
-1.329268 0.336111 0
-1.231707 0.336111 0
-1.134146 0.336111 0
-1.036585 0.336111 0
-0.939024 0.336111 0
-0.841463 0.336111 0
-0.743902 0.336111 0
-0.646341 0.336111 0
-0.548780 0.336111 0
-0.451220 0.336111 0
-0.353659 0.336111 0
-0.256098 0.336111 0
-0.158537 0.336111 0
-0.060976 0.336111 0
0.036585 0.336111 0
0.134146 0.336111 0
0.231707 0.336111 0
0.329268 0.336111 0
0.426829 0.336111 0
0.524390 0.336111 0
0.621951 0.336111 0
0.719512 0.336111 0
0.817073 0.336111 0
0.914634 0.336111 0
1.012195 0.336111 0
1.109756 0.336111 0
1.207317 0.336111 0
1.304878 0.336111 0
1.402439 0.336111 0
1.500000 0.336111 0
1.597561 0.336111 0
1.695122 0.336111 0
1.792683 0.336111 0
1.890244 0.336111 0
1.987805 0.336111 0
2.085366 0.336111 0
2.182927 0.336111 0
2.280488 0.336111 0
2.378049 0.336111 0
2.475610 0.336111 0
2.573171 0.336111 0
2.670732 0.336111 0
2.768293 0.336111 0
2.865854 0.336111 0
2.963415 0.336111 0
3.060976 0.336111 0
3.158537 0.336111 0
3.256098 0.336111 0
3.353659 0.336111 0
3.451220 0.336111 0
3.548780 0.336111 0
3.646341 0.336111 0
3.743902 0.336111 0
3.841463 0.336111 0
3.939024 0.336111 0
4.036585 0.336111 0
4.134146 0.336111 0
4.231707 0.336111 0
4.329268 0.336111 0
4.426829 0.336111 0
4.524390 0.336111 0
4.621951 0.336111 0
[...]
POINT_DATA 2952 

VECTORS velocity float
0.000000 0.000000 0
0.000000 0.000000 0
0.000000 0.000000 0
0.000000 0.000000 0
0.000000 0.000000 0
0.000000 0.000000 0
0.000000 0.000000 0
0.000000 0.000000 0
0.000000 0.000000 0
0.000000 0.000000 0
0.000000 0.000000 0
0.000000 0.000000 0
0.000000 0.000000 0
0.000000 0.000000 0
0.000000 0.000000 0
0.000000 0.000000 0
0.000000 0.000000 0
0.000000 0.000000 0
0.000000 0.000000 0
0.000000 0.000000 0
0.000000 0.000000 0
0.000000 0.000000 0
0.000000 0.000000 0
0.000000 0.000000 0
0.000000 0.000000 0
-0.000008 0.000000 0
-0.000009 0.000000 0
-0.000006 0.000000 0
-0.000002 0.000000 0
-0.000000 0.000000 0
0.000000 0.000000 0
0.000000 0.000000 0
0.000000 0.000000 0
0.000000 0.000000 0
-0.000000 0.000000 0
-0.000000 0.000000 0
-0.000000 0.000000 0
-0.000000 0.000000 0
-0.000000 0.000000 0
-0.000000 0.000000 0
-0.000000 0.000000 0
-0.000000 0.000000 0
-0.000001 0.000000 0
-0.000001 0.000000 0
-0.000001 0.000000 0
-0.000001 0.000000 0
-0.000001 0.000000 0
-0.000001 0.000000 0
-0.000001 0.000000 0
-0.000001 0.000000 0
-0.000001 0.000000 0
-0.000001 0.000000 0
-0.000001 0.000000 0
-0.000001 0.000000 0
-0.000001 0.000000 0
-0.000001 0.000000 0
-0.000001 0.000000 0
-0.000002 0.000000 0
-0.000002 0.000000 0
-0.000002 0.000000 0
-0.000001 0.000000 0
-0.000001 0.000000 0
-0.000001 0.000000 0
0.000000 0.000000 0
-0.000000 0.000000 0
-0.000001 0.000000 0
0.000000 0.000000 0
0.000008 0.000000 0
0.000000 0.000000 0
0.000000 0.000000 0
0.000000 0.000000 0
0.000000 0.000000 0
0.000000 0.000000 0
0.000000 0.000000 0
0.000000 0.000000 0
0.000000 0.000000 0
0.000000 0.000000 0
0.000000 0.000000 0
0.000000 0.000000 0
0.000000 0.000000 0
0.000000 0.000000 0
0.000000 0.000000 0
0.000000 0.000000 0
0.000000 0.000000 0
0.000000 0.000000 0
0.000000 0.000000 0
0.000000 0.000000 0
0.000000 0.000000 0
0.000000 0.000000 0
0.000000 0.000000 0
0.000000 0.000000 0
0.000000 0.000000 0
0.000000 0.000000 0
0.000000 0.000000 0
0.000000 0.000000 0
0.000000 0.000000 0
0.000000 0.000000 0
0.000000 0.000000 0
0.000000 0.000000 0
0.000000 0.000000 0
0.000000 0.000000 0
0.000000 0.000000 0
0.000000 0.000000 0
0.000000 0.000000 0
0.000000 0.000000 0
0.000000 0.000000 0
0.000976 -0.000614 0
0.004157 -0.000741 0
0.004988 0.000085 0
0.003698 0.000482 0
0.001944 0.000444 0
0.000734 0.000247 0
0.000188 0.000085 0
0.000051 0.000005 0
0.000076 -0.000019 0
0.000133 -0.000018 0
0.000177 -0.000011 0
0.000203 -0.000006 0
0.000216 -0.000003 0
0.000223 -0.000002 0
0.000226 -0.000001 0
0.000228 -0.000001 0
0.000230 -0.000001 0
0.000231 -0.000001 0
0.000232 -0.000001 0
0.000233 -0.000001 0
0.000234 -0.000001 0
0.000235 -0.000001 0
0.000235 -0.000001 0
0.000235 -0.000000 0
0.000235 -0.000000 0
0.000235 -0.000000 0
0.000234 -0.000000 0
0.000233 -0.000000 0
0.000232 -0.000000 0
0.000232 -0.000000 0
0.000231 -0.000001 0
0.000232 -0.000001 0
0.000234 -0.000001 0
0.000234 -0.000000 0
0.000224 0.000006 0
0.000179 0.000022 0
0.000057 0.000053 0
-0.000190 0.000093 0
-0.000551 0.000109 0
-0.000855 0.000049 0
-0.000751 -0.000087 0
-0.000046 -0.000129 0
0.000597 -0.000046 0
-0.000001 0.000000 0
0.000004 0.000000 0
0.000000 0.000000 0
0.000000 0.000000 0
0.000000 0.000000 0
0.000000 0.000000 0
0.000000 0.000000 0
0.000000 0.000000 0
0.000000 0.000000 0
0.000000 0.000000 0
0.000000 0.000000 0
0.000000 0.000000 0
0.000000 0.000000 0
0.000000 0.000000 0
0.000000 0.000000 0
0.000000 0.000000 0
0.000000 0.000000 0
0.000000 0.000000 0
0.000000 0.000000 0
0.000000 0.000000 0
0.000000 0.000000 0
0.000000 0.000000 0
0.000000 0.000000 0
0.000000 0.000000 0
0.000000 0.000000 0
0.000000 0.000000 0
0.000000 0.000000 0
0.000000 0.000000 0
0.000000 0.000000 0
0.000000 0.000000 0
0.000000 0.000000 0
0.000000 0.000000 0
0.000000 0.000000 0
0.000000 0.000000 0
0.000000 0.000000 0
0.000000 0.000000 0
0.000000 0.000000 0
0.000000 0.000000 0
-0.001785 -0.000489 0
0.001354 -0.002025 0
0.005971 -0.001938 0
0.007398 0.000222 0
0.005668 0.001473 0
0.003116 0.001434 0
0.001265 0.000849 0
0.000369 0.000330 0
0.000098 0.000054 0
0.000097 -0.000040 0
0.000164 -0.000049 0
0.000224 -0.000034 0
0.000262 -0.000020 0
0.000283 -0.000010 0
0.000294 -0.000005 0
0.000300 -0.000003 0
0.000304 -0.000002 0
0.000306 -0.000002 0
0.000309 -0.000002 0
0.000311 -0.000002 0
0.000312 -0.000001 0
0.000314 -0.000001 0
0.000315 -0.000001 0
0.000316 -0.000001 0
0.000316 -0.000001 0
0.000316 -0.000000 0
0.000315 -0.000000 0
0.000315 0.000000 0
0.000313 0.000000 0
0.000312 0.000000 0
0.000311 -0.000000 0
0.000310 -0.000001 0
0.000311 -0.000002 0
0.000312 -0.000002 0
0.000309 0.000004 0
0.000286 0.000026 0
0.000209 0.000080 0
0.000016 0.000178 0
-0.000353 0.000294 0
-0.000870 0.000321 0
-0.001261 0.000096 0
-0.000968 -0.000392 0
0.000434 -0.000655 0
0.002245 -0.000028 0
0.001937 0.000286 0
-0.000001 0.000000 0
-0.000002 0.000000 0
0.000000 0.000000 0
0.000000 0.000000 0
0.000000 0.000000 0
0.000000 0.000000 0
0.000000 0.000000 0
0.000000 0.000000 0
0.000000 0.000000 0
0.000000 0.000000 0
0.000000 0.000000 0
0.000000 0.000000 0
0.000000 0.000000 0
0.000000 0.000000 0
0.000000 0.000000 0
0.000000 0.000000 0
0.000000 0.000000 0
0.000000 0.000000 0
0.000000 0.000000 0
0.000000 0.000000 0
0.000000 0.000000 0
0.000000 0.000000 0
0.000000 0.000000 0
0.000000 0.000000 0
0.000000 0.000000 0
0.000000 0.000000 0
0.000000 0.000000 0
0.000000 0.000000 0
0.000000 0.000000 0
0.000000 0.000000 0
0.000000 0.000000 0
0.000000 0.000000 0
0.000000 0.000000 0
0.000000 0.000000 0
0.000000 0.000000 0
0.000000 0.000000 0
-0.004460 0.000855 0
-0.006392 -0.000681 0
-0.000981 -0.004384 0
0.005084 -0.003667 0
0.007025 0.000232 0
0.005521 0.002555 0
0.003083 0.002576 0
0.001260 0.001577 0
0.000343 0.000649 0
0.000037 0.000136 0
0.000009 -0.000051 0
0.000061 -0.000080 0
0.000113 -0.000059 0
0.000148 -0.000035 0
0.000168 -0.000019 0
0.000179 -0.000010 0
0.000185 -0.000006 0
0.000189 -0.000004 0
0.000192 -0.000003 0
0.000194 -0.000003 0
0.000196 -0.000003 0
0.000198 -0.000002 0
0.000199 -0.000002 0
0.000200 -0.000002 0
0.000201 -0.000001 0
0.000201 -0.000001 0
0.000201 -0.000000 0
0.000201 0.000000 0
0.000200 0.000001 0
0.000199 0.000001 0
0.000198 0.000001 0
0.000197 0.000000 0
0.000196 -0.000001 0
0.000196 -0.000002 0
0.000196 -0.000001 0
0.000191 0.000012 0
0.000165 0.000054 0
0.000086 0.000152 0
-0.000104 0.000324 0
-0.000461 0.000521 0
-0.000952 0.000548 0
-0.001296 0.000096 0
-0.000863 -0.000908 0
0.001062 -0.001684 0
0.004251 -0.000785 0
0.005938 0.001077 0
0.003233 0.000939 0
0.000000 0.000000 0
-0.000007 0.000000 0
0.000000 0.000000 0
0.000000 0.000000 0
0.000000 0.000000 0
0.000000 0.000000 0
0.000000 0.000000 0
0.000000 0.000000 0
0.000000 0.000000 0
0.000000 0.000000 0
0.000000 0.000000 0
0.000000 0.000000 0
0.000000 0.000000 0
0.000000 0.000000 0
0.000000 0.000000 0
0.000000 0.000000 0
0.000000 0.000000 0
0.000000 0.000000 0
0.000000 0.000000 0
0.000000 0.000000 0
0.000000 0.000000 0
0.000000 0.000000 0
0.000000 0.000000 0
0.000000 0.000000 0
0.000000 0.000000 0
0.000000 0.000000 0
0.000000 0.000000 0
0.000000 0.000000 0
0.000000 0.000000 0
0.000000 0.000000 0
0.000000 0.000000 0
0.000000 0.000000 0
0.000000 0.000000 0
0.000000 0.000000 0
-0.005176 0.002172 0
-0.012814 0.003099 0
-0.012011 -0.002182 0
-0.004845 -0.007580 0
0.002111 -0.005814 0
0.004280 0.000010 0
0.003450 0.003380 0
0.001878 0.003496 0
0.000692 0.002176 0
0.000089 0.000922 0
-0.000121 0.000215 0
-0.000150 -0.000051 0
-0.000124 -0.000100 0
-0.000094 -0.000077 0
-0.000073 -0.000047 0
-0.000061 -0.000025 0
-0.000055 -0.000014 0
-0.000051 -0.000008 0
-0.000049 -0.000006 0
-0.000048 -0.000005 0
-0.000046 -0.000004 0
-0.000045 -0.000004 0
-0.000044 -0.000003 0
-0.000044 -0.000003 0
-0.000043 -0.000002 0
-0.000043 -0.000002 0
-0.000043 -0.000001 0
-0.000043 -0.000000 0
-0.000043 0.000000 0
-0.000044 0.000001 0
-0.000044 0.000001 0
-0.000045 0.000001 0
-0.000046 0.000000 0
-0.000046 -0.000001 0
-0.000046 -0.000002 0
-0.000046 0.000001 0
-0.000050 0.000019 0
-0.000066 0.000077 0
-0.000116 0.000210 0
-0.000235 0.000442 0
-0.000463 0.000704 0
-0.000786 0.000725 0
-0.001012 0.000053 0
-0.000593 -0.001534 0
0.001438 -0.003131 0
0.005733 -0.002389 0
0.009464 0.000773 0
0.009218 0.002877 0
0.003933 0.001573 0
0.000001 0.000000 0
-0.000009 0.000000 0
0.000000 0.000000 0
0.000000 0.000000 0
0.000000 0.000000 0
0.000000 0.000000 0
0.000000 0.000000 0
0.000000 0.000000 0
0.000000 0.000000 0
0.000000 0.000000 0
0.000000 0.000000 0
0.000000 0.000000 0
0.000000 0.000000 0
0.000000 0.000000 0
0.000000 0.000000 0
0.000000 0.000000 0
0.000000 0.000000 0
0.000000 0.000000 0
0.000000 0.000000 0
0.000000 0.000000 0
0.000000 0.000000 0
0.000000 0.000000 0
0.000000 0.000000 0
0.000000 0.000000 0
0.000000 0.000000 0
0.000000 0.000000 0
0.000000 0.000000 0
0.000000 0.000000 0
0.000000 0.000000 0
0.000000 0.000000 0
0.000000 0.000000 0
0.000000 0.000000 0
-0.003800 0.002531 0
-0.013699 0.006242 0
-0.019206 0.004177 0
-0.016692 -0.004538 0
-0.008668 -0.011220 0
-0.001672 -0.008084 0
0.000158 -0.000417 0
0.000185 0.003717 0
-0.000048 0.003910 0
-0.000198 0.002443 0
-0.000262 0.001043 0
-0.000282 0.000252 0
-0.000287 -0.000049 0
-0.000287 -0.000107 0
-0.000287 -0.000084 0
-0.000288 -0.000051 0
-0.000288 -0.000028 0
-0.000288 -0.000015 0
-0.000289 -0.000009 0
-0.000289 -0.000006 0
-0.000289 -0.000005 0
-0.000290 -0.000004 0
-0.000290 -0.000004 0
-0.000290 -0.000003 0
-0.000291 -0.000003 0
-0.000291 -0.000002 0
-0.000291 -0.000002 0
-0.000292 -0.000001 0
-0.000292 -0.000000 0
-0.000292 0.000000 0
-0.000292 0.000001 0
-0.000292 0.000001 0
-0.000293 0.000001 0
-0.000293 0.000001 0
-0.000293 -0.000001 0
-0.000293 -0.000002 0
-0.000292 0.000001 0
-0.000292 0.000022 0
-0.000291 0.000086 0
-0.000292 0.000234 0
-0.000298 0.000492 0
-0.000323 0.000788 0
-0.000385 0.000813 0
-0.000454 0.000002 0
-0.000242 -0.002094 0
0.001315 -0.004746 0
0.006106 -0.004670 0
0.011451 -0.000611 0
0.013591 0.003622 0
0.010770 0.004478 0
0.003898 0.001914 0
0.000002 0.000000 0
-0.000009 0.000000 0
0.000000 0.000000 0
0.000000 0.000000 0
0.000000 0.000000 0
0.000000 0.000000 0
0.000000 0.000000 0
0.000000 0.000000 0
0.000000 0.000000 0
0.000000 0.000000 0
0.000000 0.000000 0
-0.000125 0.000000 0
-0.000125 0.000000 0
-0.000227 0.000000 0
-0.000277 0.000000 0
-0.000303 0.000000 0
-0.000315 0.000000 0
-0.000321 0.000000 0
-0.000325 0.000000 0
-0.000327 0.000000 0
-0.000329 0.000000 0
-0.000330 0.000000 0
-0.000332 0.000000 0
-0.000342 0.000000 0
-0.000377 0.000000 0
-0.000474 0.000000 0
-0.000674 0.000000 0
-0.000979 0.000000 0
-0.001263 0.000000 0
0.000000 0.000000 0
-0.001428 0.001860 0
-0.009372 0.006678 0
-0.018327 0.009655 0
-0.022354 0.004547 0
-0.018969 -0.007283 0
-0.010985 -0.014850 0
-0.004765 -0.010086 0
-0.004015 -0.000889 0
-0.003205 0.003480 0
-0.001999 0.003682 0
-0.001036 0.002279 0
-0.000524 0.000962 0
-0.000342 0.000227 0
-0.000320 -0.000049 0
-0.000347 -0.000100 0
-0.000377 -0.000077 0
-0.000398 -0.000047 0
-0.000410 -0.000025 0
-0.000417 -0.000014 0
-0.000422 -0.000008 0
-0.000425 -0.000006 0
-0.000427 -0.000004 0
-0.000429 -0.000004 0
-0.000431 -0.000003 0
-0.000432 -0.000003 0
-0.000433 -0.000003 0
-0.000435 -0.000002 0
-0.000436 -0.000001 0
-0.000436 -0.000001 0
-0.000437 -0.000000 0
-0.000437 0.000000 0
-0.000437 0.000001 0
-0.000436 0.000001 0
-0.000436 0.000001 0
-0.000435 0.000000 0
-0.000435 -0.000001 0
-0.000435 -0.000003 0
-0.000435 0.000000 0
-0.000431 0.000018 0
-0.000414 0.000077 0
-0.000364 0.000213 0
-0.000254 0.000457 0
-0.000062 0.000746 0
0.000167 0.000789 0
0.000276 -0.000017 0
0.000149 -0.002390 0
0.000643 -0.006204 0
0.005208 -0.007295 0
0.011402 -0.002850 0
0.015462 0.003206 0
0.015109 0.006279 0
0.010379 0.005236 0
0.003295 0.001895 0
0.000002 0.000000 0
-0.000826 0.000000 0
-0.000330 0.000000 0
-0.000193 0.000000 0
-0.000145 0.000000 0
-0.000104 0.000000 0
-0.000055 0.000000 0
-0.000014 0.000000 0
0.000000 0.000000 0
0.000000 0.000000 0
0.000000 0.000000 0
-0.000003 0.000000 0
-0.000003 0.000000 0
-0.000004 0.000000 0
-0.000004 0.000000 0
-0.000004 0.000000 0
-0.000004 0.000000 0
-0.000004 0.000000 0
-0.000004 0.000000 0
-0.000004 0.000000 0
-0.000004 0.000000 0
-0.000004 0.000000 0
-0.000004 0.000000 0
-0.000004 0.000000 0
-0.000004 0.000000 0
-0.000005 0.000000 0
-0.000007 0.000000 0
-0.000010 0.000000 0
0.001020 0.000701 0
-0.002932 0.004568 0
-0.011162 0.010732 0
-0.018945 0.012525 0
-0.021757 0.004487 0
-0.018097 -0.010041 0
-0.010868 -0.018095 0
-0.005963 -0.011458 0
-0.006945 -0.001172 0
-0.005602 0.002741 0
-0.003267 0.002860 0
-0.001478 0.001728 0
-0.000569 0.000707 0
-0.000264 0.000153 0
-0.000236 -0.000047 0
-0.000287 -0.000079 0
-0.000340 -0.000059 0
-0.000376 -0.000035 0
-0.000397 -0.000019 0
-0.000408 -0.000010 0
-0.000415 -0.000006 0
-0.000419 -0.000004 0
-0.000422 -0.000003 0
-0.000425 -0.000003 0
-0.000428 -0.000002 0
-0.000430 -0.000002 0
-0.000432 -0.000002 0
-0.000434 -0.000001 0
-0.000435 -0.000001 0
-0.000436 -0.000001 0
-0.000436 -0.000000 0
-0.000436 0.000000 0
-0.000436 0.000001 0
-0.000436 0.000001 0
-0.000435 0.000001 0
-0.000434 0.000000 0
-0.000434 -0.000001 0
-0.000435 -0.000003 0
-0.000436 -0.000001 0
-0.000431 0.000011 0
-0.000406 0.000053 0
-0.000327 0.000156 0
-0.000137 0.000346 0
0.000216 0.000584 0
0.000689 0.000649 0
0.000983 0.000011 0
0.000535 -0.002271 0
-0.000447 -0.007195 0
0.003275 -0.009878 0
0.009414 -0.005574 0
0.014610 0.001828 0
0.016380 0.006938 0
0.014008 0.007650 0
0.008605 0.005045 0
0.002651 0.001598 0
-0.000002 0.000000 0
-0.000001 0.000000 0
-0.000001 0.000000 0
-0.000001 0.000000 0
-0.000001 0.000000 0
-0.000000 0.000000 0
-0.000000 0.000000 0
-0.000000 0.000000 0
-2.500000 0.000000 0
0.000446 -0.000140 0
0.000439 -0.000119 0
0.000765 -0.000074 0
0.000949 -0.000037 0
0.001047 -0.000018 0
0.001099 -0.000009 0
0.001128 -0.000005 0
0.001145 -0.000003 0
0.001157 -0.000002 0
0.001166 -0.000002 0
0.001174 -0.000002 0
0.001188 -0.000006 0
0.001234 -0.000022 0
0.001374 -0.000064 0
0.001714 -0.000143 0
0.002365 -0.000243 0
0.003274 -0.000283 0
0.003935 -0.000036 0
0.002873 0.002023 0
-0.002364 0.007767 0
-0.009944 0.014428 0
-0.016090 0.014783 0
-0.017691 0.004137 0
-0.014173 -0.012553 0
-0.008237 -0.020724 0
-0.004828 -0.011985 0
-0.007689 -0.001064 0
-0.006107 0.001699 0
-0.003352 0.001685 0
-0.001354 0.000973 0
-0.000393 0.000375 0
-0.000101 0.000066 0
-0.000096 -0.000038 0
-0.000163 -0.000049 0
-0.000223 -0.000034 0
-0.000262 -0.000019 0
-0.000283 -0.000010 0
-0.000295 -0.000005 0
-0.000301 -0.000003 0
-0.000305 -0.000002 0
-0.000309 -0.000002 0
-0.000311 -0.000001 0
-0.000314 -0.000001 0
-0.000316 -0.000001 0
-0.000318 -0.000001 0
-0.000320 -0.000001 0
-0.000321 -0.000001 0
-0.000322 -0.000000 0
-0.000322 -0.000000 0
-0.000322 0.000000 0
-0.000322 0.000000 0
-0.000322 0.000000 0
-0.000321 0.000000 0
-0.000321 -0.000000 0
-0.000321 -0.000001 0
-0.000323 -0.000002 0
-0.000325 -0.000002 0
-0.000323 0.000004 0
-0.000302 0.000026 0
-0.000225 0.000083 0
-0.000027 0.000195 0
0.000367 0.000346 0
0.000942 0.000417 0
0.001383 0.000057 0
0.000834 -0.001698 0
-0.001631 -0.007530 0
0.000846 -0.012068 0
0.006041 -0.008336 0
0.011416 -0.000166 0
0.014672 0.006570 0
0.014517 0.008999 0
0.011215 0.007406 0
0.006563 0.003787 0
0.002809 0.001131 0
0.001332 0.000305 0
0.000791 0.000089 0
0.000561 0.000043 0
0.000385 0.000043 0
0.000206 0.000043 0
0.000062 0.000026 0
-0.000001 0.000006 0
-5.000000 0.000000 0
0.000729 -0.000468 0
0.000721 -0.000391 0
0.001219 -0.000247 0
0.001526 -0.000137 0
0.001704 -0.000073 0
0.001803 -0.000039 0
0.001860 -0.000022 0
0.001895 -0.000014 0
0.001920 -0.000010 0
0.001940 -0.000008 0
0.001960 -0.000011 0
0.001995 -0.000029 0
0.002089 -0.000090 0
0.002336 -0.000233 0
0.002889 -0.000480 0
0.003874 -0.000755 0
0.005134 -0.000760 0
0.005823 0.000181 0
0.004083 0.003738 0
-0.000881 0.010772 0
-0.006801 0.017375 0
-0.010776 0.016274 0
-0.011075 0.003559 0
-0.008062 -0.014617 0
-0.003950 -0.022618 0
-0.002119 -0.011723 0
-0.005648 -0.000553 0
-0.004226 0.000642 0
-0.002138 0.000559 0
-0.000745 0.000296 0
-0.000128 0.000101 0
0.000029 0.000008 0
0.000007 -0.000018 0
-0.000050 -0.000018 0
-0.000095 -0.000011 0
-0.000121 -0.000006 0
-0.000135 -0.000003 0
-0.000142 -0.000001 0
-0.000146 -0.000001 0
-0.000148 -0.000000 0
-0.000150 -0.000000 0
-0.000152 -0.000000 0
-0.000154 -0.000000 0
-0.000155 -0.000000 0
-0.000156 -0.000000 0
-0.000157 -0.000000 0
-0.000158 -0.000000 0
-0.000159 -0.000000 0
-0.000159 -0.000000 0
-0.000160 0.000000 0
-0.000160 0.000000 0
-0.000159 0.000000 0
-0.000159 0.000000 0
-0.000159 -0.000000 0
-0.000160 -0.000000 0
-0.000162 -0.000001 0
-0.000164 -0.000001 0
-0.000166 -0.000000 0
-0.000157 0.000006 0
-0.000113 0.000023 0
0.000014 0.000059 0
0.000289 0.000114 0
0.000729 0.000157 0
0.001150 0.000063 0
0.000847 -0.000813 0
-0.002291 -0.007201 0
-0.001399 -0.013591 0
0.002074 -0.010690 0
0.006677 -0.002349 0
0.010605 0.005437 0
0.012219 0.009323 0
0.011023 0.008894 0
0.007926 0.005679 0
0.004433 0.002544 0
0.002401 0.000976 0
0.001458 0.000373 0
0.000991 0.000196 0
0.000653 0.000171 0
0.000347 0.000156 0
0.000114 0.000099 0
-0.000000 0.000030 0
-5.000000 0.000000 0
0.000776 -0.000878 0
0.000768 -0.000729 0
0.001294 -0.000464 0
0.001638 -0.000272 0
0.001849 -0.000152 0
0.001973 -0.000084 0
0.002047 -0.000049 0
0.002094 -0.000032 0
0.002128 -0.000024 0
0.002156 -0.000021 0
0.002186 -0.000028 0
0.002238 -0.000068 0
0.002358 -0.000187 0
0.002644 -0.000452 0
0.003238 -0.000888 0
0.004229 -0.001330 0
0.005399 -0.001227 0
0.005891 0.000472 0
0.004276 0.005268 0
0.000643 0.013035 0
-0.002831 0.019217 0
-0.004224 0.016852 0
-0.003196 0.002823 0
-0.001096 -0.016002 0
0.000483 -0.023600 0
-0.000264 -0.011119 0
0.000015 0.000000 0
0.000009 0.000000 0
0.000004 0.000000 0
0.000002 0.000000 0
0.000001 0.000000 0
0.000001 0.000000 0
0.000001 0.000000 0
0.000001 0.000000 0
0.000001 0.000000 0
0.000001 0.000000 0
0.000001 0.000000 0
0.000001 0.000000 0
0.000001 0.000000 0
0.000000 0.000000 0
0.000000 0.000000 0
0.000000 0.000000 0
0.000000 0.000000 0
0.000000 0.000000 0
0.000000 0.000000 0
0.000000 0.000000 0
0.000000 0.000000 0
-0.000000 0.000000 0
-0.000000 0.000000 0
-0.000000 0.000000 0
-0.000000 0.000000 0
-0.000000 0.000000 0
-0.000000 0.000000 0
-0.000000 0.000000 0
-0.000000 0.000000 0
-0.000001 0.000000 0
-0.000001 0.000000 0
-0.000001 0.000000 0
-0.000001 0.000000 0
-0.000001 0.000000 0
-0.000001 0.000000 0
-0.000002 0.000000 0
-0.000003 0.000000 0
-0.000004 0.000000 0
-0.000005 0.000000 0
-0.001194 -0.006410 0
-0.002875 -0.014181 0
-0.001731 -0.012246 0
0.001340 -0.004295 0
0.005114 0.003888 0
0.007865 0.008797 0
0.008512 0.009483 0
0.007133 0.006977 0
0.004661 0.003805 0
0.002790 0.001745 0
0.001735 0.000771 0
0.001140 0.000432 0
0.000714 0.000354 0
0.000364 0.000304 0
0.000119 0.000194 0
-0.000000 0.000061 0
-5.000000 0.000000 0
0.000600 -0.001252 0
0.000594 -0.001037 0
0.001014 -0.000667 0
0.001306 -0.000406 0
0.001496 -0.000235 0
0.001613 -0.000134 0
0.001686 -0.000080 0
0.001735 -0.000054 0
0.001771 -0.000041 0
0.001803 -0.000037 0
0.001837 -0.000050 0
0.001892 -0.000112 0
0.002006 -0.000287 0
0.002252 -0.000659 0
0.002723 -0.001247 0
0.003451 -0.001801 0
0.004232 -0.001565 0
0.004459 0.000724 0
0.003401 0.006278 0
0.001684 0.014211 0
0.001078 0.019731 0
0.002418 0.016451 0
0.004642 0.002045 0
0.005429 -0.016398 0
0.003737 -0.023025 0
0.000007 0.000052 0
0.001951 0.010571 0
0.001338 0.000000 0
0.000614 0.000000 0
0.000175 0.000000 0
-0.000001 0.000000 0
-0.000034 0.000000 0
-0.000018 0.000000 0
0.000003 0.000000 0
0.000018 0.000000 0
0.000027 0.000000 0
0.000031 0.000000 0
0.000033 0.000000 0
0.000034 0.000000 0
0.000034 0.000000 0
0.000035 0.000000 0
0.000035 0.000000 0
0.000036 0.000000 0
0.000036 0.000000 0
0.000036 0.000000 0
0.000037 0.000000 0
0.000037 0.000000 0
0.000037 0.000000 0
0.000037 0.000000 0
0.000037 0.000000 0
0.000037 0.000000 0
0.000037 0.000000 0
0.000037 0.000000 0
0.000037 0.000000 0
0.000037 0.000000 0
0.000038 0.000000 0
0.000039 0.000000 0
0.000041 0.000000 0
0.000040 0.000000 0