# vtk DataFile Version 2.0
generated by CFD-lab course output (written by Tobias Neckel) 
ASCII

DATASET STRUCTURED_GRID
DIMENSIONS  82 36 1 
POINTS 2952 float

-2.500000 0.100000 0
-2.402439 0.100000 0
-2.304878 0.100000 0
-2.207317 0.100000 0
-2.109756 0.100000 0
-2.012195 0.100000 0
-1.914634 0.100000 0
-1.817073 0.100000 0
-1.719512 0.100000 0
-1.621951 0.100000 0
-1.524390 0.100000 0
-1.426829 0.100000 0
-1.329268 0.100000 0
-1.231707 0.100000 0
-1.134146 0.100000 0
-1.036585 0.100000 0
-0.939024 0.100000 0
-0.841463 0.100000 0
-0.743902 0.100000 0
-0.646341 0.100000 0
-0.548780 0.100000 0
-0.451220 0.100000 0
-0.353659 0.100000 0
-0.256098 0.100000 0
-0.158537 0.100000 0
-0.060976 0.100000 0
0.036585 0.100000 0
0.134146 0.100000 0
0.231707 0.100000 0
0.329268 0.100000 0
0.426829 0.100000 0
0.524390 0.100000 0
0.621951 0.100000 0
0.719512 0.100000 0
0.817073 0.100000 0
0.914634 0.100000 0
1.012195 0.100000 0
1.109756 0.100000 0
1.207317 0.100000 0
1.304878 0.100000 0
1.402439 0.100000 0
1.500000 0.100000 0
1.597561 0.100000 0
1.695122 0.100000 0
1.792683 0.100000 0
1.890244 0.100000 0
1.987805 0.100000 0
2.085366 0.100000 0
2.182927 0.100000 0
2.280488 0.100000 0
2.378049 0.100000 0
2.475610 0.100000 0
2.573171 0.100000 0
2.670732 0.100000 0
2.768293 0.100000 0
2.865854 0.100000 0
2.963415 0.100000 0
3.060976 0.100000 0
3.158537 0.100000 0
3.256098 0.100000 0
3.353659 0.100000 0
3.451220 0.100000 0
3.548780 0.100000 0
3.646341 0.100000 0
3.743902 0.100000 0
3.841463 0.100000 0
3.939024 0.100000 0
4.036585 0.100000 0
4.134146 0.100000 0
4.231707 0.100000 0
4.329268 0.100000 0
4.426829 0.100000 0
4.524390 0.100000 0
4.621951 0.100000 0
4.719512 0.100000 0
4.817073 0.100000 0
4.914634 0.100000 0
5.012195 0.100000 0
5.109756 0.100000 0
5.207317 0.100000 0
5.304878 0.100000 0
5.402439 0.100000 0
-2.500000 0.147222 0
-2.402439 0.147222 0
-2.304878 0.147222 0
-2.207317 0.147222 0
-2.109756 0.147222 0
-2.012195 0.147222 0
-1.914634 0.147222 0
-1.817073 0.147222 0
-1.719512 0.147222 0
-1.621951 0.147222 0
-1.524390 0.147222 0
-1.426829 0.147222 0
-1.329268 0.147222 0
-1.231707 0.147222 0
-1.134146 0.147222 0
-1.036585 0.147222 0
-0.939024 0.147222 0
-0.841463 0.147222 0
-0.743902 0.147222 0
-0.646341 0.147222 0
-0.548780 0.147222 0
-0.451220 0.147222 0
-0.353659 0.147222 0
-0.256098 0.147222 0
-0.158537 0.147222 0
-0.060976 0.147222 0
0.036585 0.147222 0
0.134146 0.147222 0
0.231707 0.147222 0
0.329268 0.147222 0
0.426829 0.147222 0
0.524390 0.147222 0
0.621951 0.147222 0
0.719512 0.147222 0
0.817073 0.147222 0
0.914634 0.147222 0
1.012195 0.147222 0
1.109756 0.147222 0
1.207317 0.147222 0
1.304878 0.147222 0
1.402439 0.147222 0
1.500000 0.147222 0
1.597561 0.147222 0
1.695122 0.147222 0
1.792683 0.147222 0
1.890244 0.147222 0
1.987805 0.147222 0
2.085366 0.147222 0
2.182927 0.147222 0
2.280488 0.147222 0
2.378049 0.147222 0
2.475610 0.147222 0
2.573171 0.147222 0
2.670732 0.147222 0
2.768293 0.147222 0
2.865854 0.147222 0
2.963415 0.147222 0
3.060976 0.147222 0
3.158537 0.147222 0
3.256098 0.147222 0
3.353659 0.147222 0
3.451220 0.147222 0
3.548780 0.147222 0
3.646341 0.147222 0
3.743902 0.147222 0
3.841463 0.147222 0
3.939024 0.147222 0
4.036585 0.147222 0
4.134146 0.147222 0
4.231707 0.147222 0
4.329268 0.147222 0
4.426829 0.147222 0
4.524390 0.147222 0
4.621951 0.147222 0
4.719512 0.147222 0
4.817073 0.147222 0
4.914634 0.147222 0
5.012195 0.147222 0
5.109756 0.147222 0
5.207317 0.147222 0
5.304878 0.147222 0
5.402439 0.147222 0
-2.500000 0.194444 0
-2.402439 0.194444 0
-2.304878 0.194444 0
-2.207317 0.194444 0
-2.109756 0.194444 0
-2.012195 0.194444 0
-1.914634 0.194444 0
-1.817073 0.194444 0
-1.719512 0.194444 0
-1.621951 0.194444 0
-1.524390 0.194444 0
-1.426829 0.194444 0
-1.329268 0.194444 0
-1.231707 0.194444 0
-1.134146 0.194444 0
-1.036585 0.194444 0
-0.939024 0.194444 0
-0.841463 0.194444 0
-0.743902 0.194444 0
-0.646341 0.194444 0
-0.548780 0.194444 0
-0.451220 0.194444 0
-0.353659 0.194444 0
-0.256098 0.194444 0
-0.158537 0.194444 0
-0.060976 0.194444 0
0.036585 0.194444 0
0.134146 0.194444 0
0.231707 0.194444 0
0.329268 0.194444 0
0.426829 0.194444 0
0.524390 0.194444 0
0.621951 0.194444 0
0.719512 0.194444 0
0.817073 0.194444 0
0.914634 0.194444 0
1.012195 0.194444 0
1.109756 0.194444 0
1.207317 0.194444 0
1.304878 0.194444 0
1.402439 0.194444 0
1.500000 0.194444 0
1.597561 0.194444 0
1.695122 0.194444 0
1.792683 0.194444 0
1.890244 0.194444 0
1.987805 0.194444 0
2.085366 0.194444 0
2.182927 0.194444 0
2.280488 0.194444 0
2.378049 0.194444 0
2.475610 0.194444 0
2.573171 0.194444 0
2.670732 0.194444 0
2.768293 0.194444 0
2.865854 0.194444 0
2.963415 0.194444 0
3.060976 0.194444 0
3.158537 0.194444 0
3.256098 0.194444 0
3.353659 0.194444 0
3.451220 0.194444 0
3.548780 0.194444 0
3.646341 0.194444 0
3.743902 0.194444 0
3.841463 0.194444 0
3.939024 0.194444 0
4.036585 0.194444 0
4.134146 0.194444 0
4.231707 0.194444 0
4.329268 0.194444 0
4.426829 0.194444 0
4.524390 0.194444 0
4.621951 0.194444 0
4.719512 0.194444 0
4.817073 0.194444 0
4.914634 0.194444 0
5.012195 0.194444 0
5.109756 0.194444 0
5.207317 0.194444 0
5.304878 0.194444 0
5.402439 0.194444 0
-2.500000 0.241667 0
-2.402439 0.241667 0
-2.304878 0.241667 0
-2.207317 0.241667 0
-2.109756 0.241667 0
-2.012195 0.241667 0
-1.914634 0.241667 0
-1.817073 0.241667 0
-1.719512 0.241667 0
-1.621951 0.241667 0
-1.524390 0.241667 0
-1.426829 0.241667 0
-1.329268 0.241667 0
-1.231707 0.241667 0
-1.134146 0.241667 0
-1.036585 0.241667 0
-0.939024 0.241667 0
-0.841463 0.241667 0
-0.743902 0.241667 0
-0.646341 0.241667 0
-0.548780 0.241667 0
-0.451220 0.241667 0
-0.353659 0.241667 0
-0.256098 0.241667 0
-0.158537 0.241667 0
-0.060976 0.241667 0
0.036585 0.241667 0
0.134146 0.241667 0
0.231707 0.241667 0
0.329268 0.241667 0
0.426829 0.241667 0
0.524390 0.241667 0
0.621951 0.241667 0
0.719512 0.241667 0
0.817073 0.241667 0
0.914634 0.241667 0
1.012195 0.241667 0
1.109756 0.241667 0
1.207317 0.241667 0
1.304878 0.241667 0
1.402439 0.241667 0
1.500000 0.241667 0
1.597561 0.241667 0
1.695122 0.241667 0
1.792683 0.241667 0
1.890244 0.241667 0
1.987805 0.241667 0
2.085366 0.241667 0
2.182927 0.241667 0
2.280488 0.241667 0
2.378049 0.241667 0
2.475610 0.241667 0
2.573171 0.241667 0
2.670732 0.241667 0
2.768293 0.241667 0
2.865854 0.241667 0
2.963415 0.241667 0
3.060976 0.241667 0
3.158537 0.241667 0
3.256098 0.241667 0
3.353659 0.241667 0
3.451220 0.241667 0
3.548780 0.241667 0
3.646341 0.241667 0
3.743902 0.241667 0
3.841463 0.241667 0
3.939024 0.241667 0
4.036585 0.241667 0
4.134146 0.241667 0
4.231707 0.241667 0
4.329268 0.241667 0
4.426829 0.241667 0
4.524390 0.241667 0
4.621951 0.241667 0
4.719512 0.241667 0
4.817073 0.241667 0
4.914634 0.241667 0
5.012195 0.241667 0
5.109756 0.241667 0
5.207317 0.241667 0
5.304878 0.241667 0
5.402439 0.241667 0
-2.500000 0.288889 0
-2.402439 0.288889 0
-2.304878 0.288889 0
-2.207317 0.288889 0
-2.109756 0.288889 0
-2.012195 0.288889 0
-1.914634 0.288889 0
-1.817073 0.288889 0
-1.719512 0.288889 0
-1.621951 0.288889 0
-1.524390 0.288889 0
-1.426829 0.288889 0
-1.329268 0.288889 0
-1.231707 0.288889 0
-1.134146 0.288889 0
-1.036585 0.288889 0
-0.939024 0.288889 0
-0.841463 0.288889 0
-0.743902 0.288889 0
-0.646341 0.288889 0
-0.548780 0.288889 0
-0.451220 0.288889 0
-0.353659 0.288889 0
-0.256098 0.288889 0
-0.158537 0.288889 0
-0.060976 0.288889 0
0.036585 0.288889 0
0.134146 0.288889 0
0.231707 0.288889 0
0.329268 0.288889 0
0.426829 0.288889 0
0.524390 0.288889 0
0.621951 0.288889 0
0.719512 0.288889 0
0.817073 0.288889 0
0.914634 0.288889 0
1.012195 0.288889 0
1.109756 0.288889 0
1.207317 0.288889 0
1.304878 0.288889 0
1.402439 0.288889 0
1.500000 0.288889 0
1.597561 0.288889 0
1.695122 0.288889 0
1.792683 0.288889 0
1.890244 0.288889 0
1.987805 0.288889 0
2.085366 0.288889 0
2.182927 0.288889 0
2.280488 0.288889 0
2.378049 0.288889 0
2.475610 0.288889 0
2.573171 0.288889 0
2.670732 0.288889 0
2.768293 0.288889 0
2.865854 0.288889 0
2.963415 0.288889 0
3.060976 0.288889 0
3.158537 0.288889 0
3.256098 0.288889 0
3.353659 0.288889 0
3.451220 0.288889 0
3.548780 0.288889 0
3.646341 0.288889 0
3.743902 0.288889 0
3.841463 0.288889 0
3.939024 0.288889 0
4.036585 0.288889 0
4.134146 0.288889 0
4.231707 0.288889 0
4.329268 0.288889 0
4.426829 0.288889 0
4.524390 0.288889 0
4.621951 0.288889 0
4.719512 0.288889 0
4.817073 0.288889 0
4.914634 0.288889 0
5.012195 0.288889 0
5.109756 0.288889 0
5.207317 0.288889 0
5.304878 0.288889 0
5.402439 0.288889 0
-2.500000 0.336111 0
-2.402439 0.336111 0
-2.304878 0.336111 0
-2.207317 0.336111 0
-2.109756 0.336111 0
-2.012195 0.336111 0
-1.914634 0.336111 0
-1.817073 0.336111 0
-1.719512 0.336111 0
-1.621951 0.336111 0
-1.524390 0.336111 0
-1.426829 0.336111 0
-1.329268 0.336111 0
-1.231707 0.336111 0
-1.134146 0.336111 0
-1.036585 0.336111 0
-0.939024 0.336111 0
-0.841463 0.336111 0
-0.743902 0.336111 0
-0.646341 0.336111 0
-0.548780 0.336111 0
-0.451220 0.336111 0
-0.353659 0.336111 0
-0.256098 0.336111 0
-0.158537 0.336111 0
-0.060976 0.336111 0
0.036585 0.336111 0
0.134146 0.336111 0
0.231707 0.336111 0
0.329268 0.336111 0
0.426829 0.336111 0
0.524390 0.336111 0
0.621951 0.336111 0
0.719512 0.336111 0
0.817073 0.336111 0
0.914634 0.336111 0
1.012195 0.336111 0
1.109756 0.336111 0
1.207317 0.336111 0
1.304878 0.336111 0
1.402439 0.336111 0
1.500000 0.336111 0
1.597561 0.336111 0
1.695122 0.336111 0
1.792683 0.336111 0
1.890244 0.336111 0
1.987805 0.336111 0
2.085366 0.336111 0
2.182927 0.336111 0
2.280488 0.336111 0
2.378049 0.336111 0
2.475610 0.336111 0
2.573171 0.336111 0
2.670732 0.336111 0
2.768293 0.336111 0
2.865854 0.336111 0
2.963415 0.336111 0
3.060976 0.336111 0
3.158537 0.336111 0
3.256098 0.336111 0
3.353659 0.336111 0
3.451220 0.336111 0
3.548780 0.336111 0
3.646341 0.336111 0
3.743902 0.336111 0
3.841463 0.336111 0
3.939024 0.336111 0
4.036585 0.336111 0
4.134146 0.336111 0
4.231707 0.336111 0
4.329268 0.336111 0
4.426829 0.336111 0
4.524390 0.336111 0
4.621951 0.336111 0
[...]
POINT_DATA 2952 

VECTORS velocity float
0.000000 0.000000 0
0.000000 0.000000 0
0.000000 0.000000 0
0.000000 0.000000 0
0.000000 0.000000 0
0.000000 0.000000 0
0.000000 0.000000 0
0.000000 0.000000 0
0.000000 0.000000 0
0.000000 0.000000 0
0.000000 0.000000 0
0.000000 0.000000 0
0.000000 0.000000 0
0.000000 0.000000 0
0.000000 0.000000 0
0.000000 0.000000 0
0.000000 0.000000 0
0.000000 0.000000 0
0.000000 0.000000 0
0.000000 0.000000 0
0.000000 0.000000 0
0.000000 0.000000 0
0.000000 0.000000 0
0.000000 0.000000 0
0.000000 0.000000 0
-0.000002 0.000000 0
-0.000003 0.000000 0
-0.000003 0.000000 0
-0.000002 0.000000 0
-0.000002 0.000000 0
-0.000002 0.000000 0
-0.000002 0.000000 0
-0.000002 0.000000 0
-0.000002 0.000000 0
-0.000002 0.000000 0
-0.000002 0.000000 0
-0.000002 0.000000 0
-0.000002 0.000000 0
-0.000001 0.000000 0
-0.000001 0.000000 0
-0.000001 0.000000 0
-0.000001 0.000000 0
-0.000001 0.000000 0
-0.000001 0.000000 0
-0.000001 0.000000 0
-0.000000 0.000000 0
-0.000000 0.000000 0
-0.000000 0.000000 0
-0.000000 0.000000 0
0.000000 0.000000 0
0.000000 0.000000 0
0.000000 0.000000 0
0.000001 0.000000 0
0.000001 0.000000 0
0.000001 0.000000 0
0.000001 0.000000 0
0.000001 0.000000 0
0.000001 0.000000 0
0.000001 0.000000 0
0.000002 0.000000 0
0.000002 0.000000 0
0.000002 0.000000 0
0.000002 0.000000 0
0.000002 0.000000 0
0.000001 0.000000 0
0.000001 0.000000 0
0.000006 0.000000 0
0.000007 0.000000 0
0.000000 0.000000 0
0.000000 0.000000 0
0.000000 0.000000 0
0.000000 0.000000 0
0.000000 0.000000 0
0.000000 0.000000 0
0.000000 0.000000 0
0.000000 0.000000 0
0.000000 0.000000 0
0.000000 0.000000 0
0.000000 0.000000 0
0.000000 0.000000 0
0.000000 0.000000 0
0.000000 0.000000 0
0.000000 0.000000 0
0.000000 0.000000 0
0.000000 0.000000 0
0.000000 0.000000 0
0.000000 0.000000 0
0.000000 0.000000 0
0.000000 0.000000 0
0.000000 0.000000 0
0.000000 0.000000 0
0.000000 0.000000 0
0.000000 0.000000 0
0.000000 0.000000 0
0.000000 0.000000 0
0.000000 0.000000 0
0.000000 0.000000 0
0.000000 0.000000 0
0.000000 0.000000 0
0.000000 0.000000 0
0.000000 0.000000 0
0.000000 0.000000 0
0.000000 0.000000 0
0.000000 0.000000 0
0.000000 0.000000 0
0.000000 0.000000 0
0.000677 -0.000446 0
0.002998 -0.000550 0
0.003683 0.000045 0
0.002790 0.000350 0
0.001485 0.000340 0
0.000542 0.000197 0
0.000099 0.000071 0
-0.000017 0.000006 0
0.000003 -0.000015 0
0.000051 -0.000015 0
0.000089 -0.000009 0
0.000111 -0.000005 0
0.000123 -0.000002 0
0.000128 -0.000001 0
0.000131 -0.000000 0
0.000132 -0.000000 0
0.000133 -0.000000 0
0.000135 -0.000000 0
0.000136 -0.000000 0
0.000136 -0.000000 0
0.000137 -0.000000 0
0.000138 -0.000000 0
0.000138 -0.000000 0
0.000139 0.000000 0
0.000139 0.000000 0
0.000139 0.000000 0
0.000139 0.000000 0
0.000139 0.000000 0
0.000138 0.000000 0
0.000138 0.000000 0
0.000139 -0.000000 0
0.000140 -0.000001 0
0.000143 -0.000001 0
0.000145 -0.000000 0
0.000138 0.000005 0
0.000103 0.000018 0
0.000004 0.000043 0
-0.000195 0.000075 0
-0.000483 0.000087 0
-0.000727 0.000042 0
-0.000664 -0.000062 0
-0.000143 -0.000112 0
0.000389 -0.000050 0
0.000005 0.000000 0
0.000005 0.000000 0
0.000000 0.000000 0
0.000000 0.000000 0
0.000000 0.000000 0
0.000000 0.000000 0
0.000000 0.000000 0
0.000000 0.000000 0
0.000000 0.000000 0
0.000000 0.000000 0
0.000000 0.000000 0
0.000000 0.000000 0
0.000000 0.000000 0
0.000000 0.000000 0
0.000000 0.000000 0
0.000000 0.000000 0
0.000000 0.000000 0
0.000000 0.000000 0
0.000000 0.000000 0
0.000000 0.000000 0
0.000000 0.000000 0
0.000000 0.000000 0
0.000000 0.000000 0
0.000000 0.000000 0
0.000000 0.000000 0
0.000000 0.000000 0
0.000000 0.000000 0
0.000000 0.000000 0
0.000000 0.000000 0
0.000000 0.000000 0
0.000000 0.000000 0
0.000000 0.000000 0
0.000000 0.000000 0
0.000000 0.000000 0
0.000000 0.000000 0
0.000000 0.000000 0
0.000000 0.000000 0
0.000000 0.000000 0
-0.001431 -0.000334 0
0.000841 -0.001456 0
0.004264 -0.001454 0
0.005437 0.000101 0
0.004256 0.001064 0
0.002369 0.001088 0
0.000940 0.000671 0
0.000223 0.000271 0
0.000000 0.000047 0
0.000000 -0.000033 0
0.000058 -0.000042 0
0.000111 -0.000029 0
0.000144 -0.000016 0
0.000161 -0.000008 0
0.000170 -0.000004 0
0.000174 -0.000002 0
0.000177 -0.000001 0
0.000179 -0.000001 0
0.000181 -0.000001 0
0.000183 -0.000001 0
0.000184 -0.000001 0
0.000185 -0.000001 0
0.000186 -0.000000 0
0.000187 -0.000000 0
0.000188 -0.000000 0
0.000188 0.000000 0
0.000188 0.000000 0
0.000187 0.000000 0
0.000187 0.000000 0
0.000186 0.000000 0
0.000186 -0.000000 0
0.000187 -0.000001 0
0.000188 -0.000002 0
0.000191 -0.000002 0
0.000191 0.000003 0
0.000175 0.000021 0
0.000113 0.000065 0
-0.000043 0.000144 0
-0.000340 0.000236 0
-0.000751 0.000258 0
-0.001064 0.000088 0
-0.000864 -0.000283 0
0.000169 -0.000509 0
0.001544 -0.000071 0
0.001434 0.000186 0
0.000004 0.000000 0
-0.000001 0.000000 0
0.000000 0.000000 0
0.000000 0.000000 0
0.000000 0.000000 0
0.000000 0.000000 0
0.000000 0.000000 0
0.000000 0.000000 0
0.000000 0.000000 0
0.000000 0.000000 0
0.000000 0.000000 0
0.000000 0.000000 0
0.000000 0.000000 0
0.000000 0.000000 0
0.000000 0.000000 0
0.000000 0.000000 0
0.000000 0.000000 0
0.000000 0.000000 0
0.000000 0.000000 0
0.000000 0.000000 0
0.000000 0.000000 0
0.000000 0.000000 0
0.000000 0.000000 0
0.000000 0.000000 0
0.000000 0.000000 0
0.000000 0.000000 0
0.000000 0.000000 0
0.000000 0.000000 0
0.000000 0.000000 0
0.000000 0.000000 0
0.000000 0.000000 0
0.000000 0.000000 0
0.000000 0.000000 0
0.000000 0.000000 0
0.000000 0.000000 0
0.000000 0.000000 0
-0.003561 0.000692 0
-0.005109 -0.000415 0
-0.001025 -0.003209 0
0.003553 -0.002775 0
0.005126 0.000048 0
0.004124 0.001836 0
0.002337 0.001945 0
0.000944 0.001236 0
0.000219 0.000526 0
-0.000027 0.000114 0
-0.000048 -0.000043 0
-0.000002 -0.000068 0
0.000044 -0.000050 0
0.000075 -0.000029 0
0.000092 -0.000015 0
0.000101 -0.000007 0
0.000105 -0.000004 0
0.000108 -0.000003 0
0.000110 -0.000002 0
0.000112 -0.000002 0
0.000114 -0.000002 0
0.000115 -0.000001 0
0.000116 -0.000001 0
0.000117 -0.000001 0
0.000118 -0.000001 0
0.000118 -0.000000 0
0.000119 0.000000 0
0.000119 0.000000 0
0.000118 0.000001 0
0.000118 0.000001 0
0.000117 0.000001 0
0.000117 -0.000000 0
0.000117 -0.000001 0
0.000119 -0.000003 0
0.000121 -0.000002 0
0.000118 0.000008 0
0.000100 0.000042 0
0.000036 0.000123 0
-0.000118 0.000262 0
-0.000404 0.000417 0
-0.000792 0.000438 0
-0.001063 0.000097 0
-0.000751 -0.000659 0
0.000675 -0.001278 0
0.003083 -0.000666 0
0.004465 0.000745 0
0.002515 0.000695 0
0.000002 0.000000 0
-0.000007 0.000000 0
0.000000 0.000000 0
0.000000 0.000000 0
0.000000 0.000000 0
0.000000 0.000000 0
0.000000 0.000000 0
0.000000 0.000000 0
0.000000 0.000000 0
0.000000 0.000000 0
0.000000 0.000000 0
0.000000 0.000000 0
0.000000 0.000000 0
0.000000 0.000000 0
0.000000 0.000000 0
0.000000 0.000000 0
0.000000 0.000000 0
0.000000 0.000000 0
0.000000 0.000000 0
0.000000 0.000000 0
0.000000 0.000000 0
0.000000 0.000000 0
0.000000 0.000000 0
0.000000 0.000000 0
0.000000 0.000000 0
0.000000 0.000000 0
0.000000 0.000000 0
0.000000 0.000000 0
0.000000 0.000000 0
0.000000 0.000000 0
0.000000 0.000000 0
0.000000 0.000000 0
0.000000 0.000000 0
0.000000 0.000000 0
-0.004222 0.001733 0
-0.010276 0.002481 0
-0.009577 -0.001563 0
-0.003997 -0.005649 0
0.001348 -0.004431 0
0.003080 -0.000176 0
0.002553 0.002414 0
0.001419 0.002628 0
0.000526 0.001696 0
0.000057 0.000741 0
-0.000109 0.000176 0
-0.000130 -0.000045 0
-0.000106 -0.000086 0
-0.000080 -0.000066 0
-0.000062 -0.000039 0
-0.000051 -0.000020 0
-0.000046 -0.000010 0
-0.000043 -0.000006 0
-0.000041 -0.000004 0
-0.000040 -0.000003 0
-0.000039 -0.000002 0
-0.000038 -0.000002 0
-0.000037 -0.000002 0
-0.000036 -0.000002 0
-0.000036 -0.000001 0
-0.000035 -0.000001 0
-0.000035 -0.000000 0
-0.000035 0.000000 0
-0.000035 0.000000 0
-0.000035 0.000001 0
-0.000035 0.000001 0
-0.000035 0.000001 0
-0.000035 -0.000000 0
-0.000035 -0.000002 0
-0.000034 -0.000004 0
-0.000033 -0.000002 0
-0.000035 0.000013 0
-0.000047 0.000061 0
-0.000087 0.000170 0
-0.000184 0.000357 0
-0.000365 0.000562 0
-0.000615 0.000577 0
-0.000785 0.000069 0
-0.000471 -0.001124 0
0.001052 -0.002365 0
0.004327 -0.001906 0
0.007283 0.000461 0
0.007236 0.002166 0
0.003151 0.001222 0
-0.000001 0.000000 0
-0.000009 0.000000 0
0.000000 0.000000 0
0.000000 0.000000 0
0.000000 0.000000 0
0.000000 0.000000 0
0.000000 0.000000 0
0.000000 0.000000 0
0.000000 0.000000 0
0.000000 0.000000 0
0.000000 0.000000 0
0.000000 0.000000 0
0.000000 0.000000 0
0.000000 0.000000 0
0.000000 0.000000 0
0.000000 0.000000 0
0.000000 0.000000 0
0.000000 0.000000 0
0.000000 0.000000 0
0.000000 0.000000 0
0.000000 0.000000 0
0.000000 0.000000 0
0.000000 0.000000 0
0.000000 0.000000 0
0.000000 0.000000 0
0.000000 0.000000 0
0.000000 0.000000 0
0.000000 0.000000 0
0.000000 0.000000 0
0.000000 0.000000 0
0.000000 0.000000 0
0.000000 0.000000 0
-0.003202 0.002057 0
-0.011234 0.004996 0
-0.015495 0.003293 0
-0.013302 -0.003455 0
-0.006876 -0.008498 0
-0.001387 -0.006200 0
0.000050 -0.000535 0
0.000101 0.002640 0
-0.000047 0.002926 0
-0.000144 0.001895 0
-0.000185 0.000834 0
-0.000198 0.000204 0
-0.000201 -0.000044 0
-0.000201 -0.000092 0
-0.000201 -0.000072 0
-0.000201 -0.000043 0
-0.000201 -0.000022 0
-0.000201 -0.000011 0
-0.000201 -0.000006 0
-0.000201 -0.000004 0
-0.000201 -0.000003 0
-0.000201 -0.000003 0
-0.000201 -0.000002 0
-0.000201 -0.000002 0
-0.000201 -0.000002 0
-0.000201 -0.000001 0
-0.000201 -0.000001 0
-0.000200 -0.000000 0
-0.000200 0.000000 0
-0.000200 0.000000 0
-0.000200 0.000001 0
-0.000200 0.000001 0
-0.000200 0.000001 0
-0.000200 -0.000000 0
-0.000200 -0.000002 0
-0.000199 -0.000004 0
-0.000199 -0.000002 0
-0.000199 0.000015 0
-0.000198 0.000068 0
-0.000198 0.000189 0
-0.000203 0.000397 0
-0.000221 0.000626 0
-0.000262 0.000642 0
-0.000305 0.000028 0
-0.000135 -0.001548 0
0.001059 -0.003600 0
0.004781 -0.003682 0
0.009028 -0.000663 0
0.010838 0.002701 0
0.008684 0.003513 0
0.003176 0.001530 0
-0.000003 0.000000 0
-0.000009 0.000000 0
0.000000 0.000000 0
0.000000 0.000000 0
0.000000 0.000000 0
0.000000 0.000000 0
0.000000 0.000000 0
0.000000 0.000000 0
0.000000 0.000000 0
0.000000 0.000000 0
0.000000 0.000000 0
-0.000096 0.000000 0
-0.000096 0.000000 0
-0.000178 0.000000 0
-0.000220 0.000000 0
-0.000240 0.000000 0
-0.000251 0.000000 0
-0.000256 0.000000 0
-0.000259 0.000000 0
-0.000261 0.000000 0
-0.000262 0.000000 0
-0.000263 0.000000 0
-0.000265 0.000000 0
-0.000275 0.000000 0
-0.000309 0.000000 0
-0.000395 0.000000 0
-0.000560 0.000000 0
-0.000793 0.000000 0
-0.000977 0.000000 0
0.000000 0.000000 0
-0.001320 0.001558 0
-0.007963 0.005459 0
-0.015166 0.007697 0
-0.018163 0.003482 0
-0.015138 -0.005735 0
-0.008566 -0.011416 0
-0.003556 -0.007783 0
-0.002988 -0.000896 0
-0.002436 0.002462 0
-0.001539 0.002746 0
-0.000790 0.001763 0
-0.000380 0.000767 0
-0.000232 0.000184 0
-0.000215 -0.000043 0
-0.000239 -0.000086 0
-0.000265 -0.000066 0
-0.000283 -0.000039 0
-0.000293 -0.000020 0
-0.000298 -0.000010 0
-0.000301 -0.000005 0
-0.000303 -0.000004 0
-0.000304 -0.000003 0
-0.000305 -0.000002 0
-0.000306 -0.000002 0
-0.000307 -0.000002 0
-0.000308 -0.000002 0
-0.000308 -0.000001 0
-0.000309 -0.000001 0
-0.000309 -0.000000 0
-0.000309 0.000000 0
-0.000309 0.000000 0
-0.000308 0.000001 0
-0.000308 0.000001 0
-0.000308 0.000001 0
-0.000307 -0.000000 0
-0.000307 -0.000002 0
-0.000308 -0.000004 0
-0.000308 -0.000002 0
-0.000306 0.000012 0
-0.000293 0.000061 0
-0.000253 0.000173 0
-0.000163 0.000368 0
-0.000007 0.000590 0
0.000180 0.000617 0
0.000275 0.000007 0
0.000194 -0.001783 0
0.000607 -0.004744 0
0.004252 -0.005763 0
0.009243 -0.002471 0
0.012569 0.002332 0
0.012331 0.004940 0
0.008504 0.004216 0
0.002713 0.001541 0
-0.000004 0.000000 0
-0.000697 0.000000 0
-0.000276 0.000000 0
-0.000153 0.000000 0
-0.000109 0.000000 0
-0.000075 0.000000 0
-0.000039 0.000000 0
-0.000010 0.000000 0
0.000000 0.000000 0
0.000000 0.000000 0
0.000000 0.000000 0
0.000002 0.000000 0
0.000002 0.000000 0
0.000002 0.000000 0
0.000002 0.000000 0
0.000002 0.000000 0
0.000002 0.000000 0
0.000002 0.000000 0
0.000002 0.000000 0
0.000002 0.000000 0
0.000002 0.000000 0
0.000002 0.000000 0
0.000002 0.000000 0
0.000002 0.000000 0
0.000002 0.000000 0
0.000002 0.000000 0
0.000003 0.000000 0
0.000004 0.000000 0
0.000678 0.000640 0
-0.002816 0.003864 0
-0.009632 0.008767 0
-0.015866 0.009933 0
-0.017848 0.003279 0
-0.014510 -0.008100 0
-0.008393 -0.014104 0
-0.004301 -0.008899 0
-0.005107 -0.001077 0
-0.004227 0.001938 0
-0.002517 0.002130 0
-0.001148 0.001334 0
-0.000428 0.000563 0
-0.000182 0.000124 0
-0.000161 -0.000041 0
-0.000206 -0.000068 0
-0.000253 -0.000051 0
-0.000283 -0.000029 0
-0.000300 -0.000015 0
-0.000308 -0.000007 0
-0.000313 -0.000004 0
-0.000316 -0.000002 0
-0.000318 -0.000002 0
-0.000319 -0.000002 0
-0.000321 -0.000002 0
-0.000322 -0.000001 0
-0.000323 -0.000001 0
-0.000324 -0.000001 0
-0.000325 -0.000001 0
-0.000325 -0.000000 0
-0.000325 0.000000 0
-0.000325 0.000000 0
-0.000325 0.000001 0
-0.000324 0.000001 0
-0.000323 0.000000 0
-0.000323 -0.000000 0
-0.000323 -0.000002 0
-0.000325 -0.000003 0
-0.000326 -0.000003 0
-0.000324 0.000007 0
-0.000305 0.000042 0
-0.000241 0.000127 0
-0.000087 0.000278 0
0.000196 0.000460 0
0.000570 0.000505 0
0.000804 0.000021 0
0.000478 -0.001709 0
-0.000224 -0.005565 0
0.002871 -0.007862 0
0.007923 -0.004689 0
0.012178 0.001207 0
0.013593 0.005481 0
0.011594 0.006195 0
0.007129 0.004125 0
0.002213 0.001313 0
-0.000004 0.000000 0
-0.000002 0.000000 0
-0.000001 0.000000 0
-0.000001 0.000000 0
-0.000001 0.000000 0
-0.000000 0.000000 0
-0.000000 0.000000 0
0.000000 0.000000 0
-2.500000 0.000000 0
0.000349 -0.000110 0
0.000353 -0.000094 0
0.000617 -0.000060 0
0.000768 -0.000030 0
0.000849 -0.000015 0
0.000892 -0.000007 0
0.000916 -0.000004 0
0.000930 -0.000002 0
0.000939 -0.000002 0
0.000946 -0.000001 0
0.000953 -0.000001 0
0.000967 -0.000006 0
0.001013 -0.000022 0
0.001144 -0.000058 0
0.001444 -0.000121 0
0.001980 -0.000193 0
0.002675 -0.000202 0
0.003082 0.000046 0
0.001972 0.001828 0
-0.002514 0.006549 0
-0.008782 0.011776 0
-0.013711 0.011673 0
-0.014740 0.002825 0
-0.011499 -0.010311 0
-0.006332 -0.016357 0
-0.003349 -0.009373 0
-0.005642 -0.000932 0
-0.004606 0.001208 0
-0.002594 0.001256 0
-0.001071 0.000752 0
-0.000312 0.000300 0
-0.000075 0.000055 0
-0.000072 -0.000032 0
-0.000129 -0.000042 0
-0.000182 -0.000029 0
-0.000214 -0.000016 0
-0.000232 -0.000008 0
-0.000240 -0.000004 0
-0.000245 -0.000002 0
-0.000247 -0.000001 0
-0.000249 -0.000001 0
-0.000251 -0.000001 0
-0.000252 -0.000001 0
-0.000253 -0.000001 0
-0.000254 -0.000001 0
-0.000255 -0.000000 0
-0.000256 -0.000000 0
-0.000256 -0.000000 0
-0.000256 0.000000 0
-0.000256 0.000000 0
-0.000256 0.000000 0
-0.000255 0.000000 0
-0.000255 0.000000 0
-0.000254 -0.000000 0
-0.000255 -0.000001 0
-0.000257 -0.000002 0
-0.000260 -0.000003 0
-0.000260 0.000002 0
-0.000244 0.000021 0
-0.000182 0.000068 0
-0.000021 0.000156 0
0.000294 0.000272 0
0.000745 0.000323 0
0.001085 0.000052 0
0.000679 -0.001286 0
-0.001175 -0.005903 0
0.001027 -0.009706 0
0.005435 -0.006976 0
0.009879 -0.000413 0
0.012468 0.005223 0
0.012201 0.007345 0
0.009380 0.006087 0
0.005509 0.003122 0
0.002366 0.000940 0
0.001111 0.000262 0
0.000634 0.000081 0
0.000427 0.000038 0
0.000283 0.000034 0
0.000148 0.000032 0
0.000044 0.000019 0
-0.000000 0.000005 0
-5.000000 0.000000 0
0.000581 -0.000371 0
0.000584 -0.000313 0
0.000991 -0.000201 0
0.001243 -0.000112 0
0.001390 -0.000060 0
0.001472 -0.000032 0
0.001519 -0.000018 0
0.001548 -0.000011 0
0.001568 -0.000008 0
0.001584 -0.000007 0
0.001601 -0.000010 0
0.001635 -0.000029 0
0.001725 -0.000086 0
0.001954 -0.000208 0
0.002436 -0.000404 0
0.003246 -0.000596 0
0.004207 -0.000533 0
0.004592 0.000329 0
0.002920 0.003337 0
-0.001315 0.009069 0
-0.006243 0.014187 0
-0.009469 0.012817 0
-0.009537 0.002209 0
-0.006767 -0.012169 0
-0.003050 -0.018048 0
-0.001310 -0.009233 0
-0.004163 -0.000468 0
-0.003199 0.000463 0
-0.001668 0.000419 0
-0.000605 0.000230 0
-0.000115 0.000082 0
0.000015 0.000008 0
-0.000002 -0.000015 0
-0.000050 -0.000015 0
-0.000088 -0.000009 0
-0.000110 -0.000005 0
-0.000122 -0.000002 0
-0.000127 -0.000001 0
-0.000129 -0.000000 0
-0.000131 -0.000000 0
-0.000132 -0.000000 0
-0.000132 -0.000000 0
-0.000133 -0.000000 0
-0.000134 -0.000000 0
-0.000135 -0.000000 0
-0.000135 -0.000000 0
-0.000135 -0.000000 0
-0.000136 -0.000000 0
-0.000136 0.000000 0
-0.000135 0.000000 0
-0.000135 0.000000 0
-0.000135 0.000000 0
-0.000134 0.000000 0
-0.000134 -0.000000 0
-0.000135 -0.000000 0
-0.000136 -0.000001 0
-0.000139 -0.000001 0
-0.000141 -0.000000 0
-0.000135 0.000005 0
-0.000099 0.000019 0
0.000005 0.000048 0
0.000224 0.000090 0
0.000567 0.000122 0
0.000892 0.000053 0
0.000674 -0.000615 0
-0.001739 -0.005733 0
-0.000751 -0.011061 0
0.002352 -0.008973 0
0.006226 -0.002197 0
0.009368 0.004357 0
0.010511 0.007689 0
0.009358 0.007365 0
0.006707 0.004711 0
0.003752 0.002132 0
0.002011 0.000839 0
0.001182 0.000331 0
0.000770 0.000170 0
0.000491 0.000135 0
0.000256 0.000116 0
0.000084 0.000072 0
-0.000000 0.000022 0
-5.000000 0.000000 0
0.000633 -0.000704 0
0.000637 -0.000588 0
0.001070 -0.000379 0
0.001354 -0.000223 0
0.001529 -0.000126 0
0.001633 -0.000070 0
0.001694 -0.000040 0
0.001733 -0.000026 0
0.001761 -0.000019 0
0.001785 -0.000017 0
0.001811 -0.000026 0
0.001859 -0.000066 0
0.001973 -0.000176 0
0.002235 -0.000402 0
0.002754 -0.000747 0
0.003574 -0.001049 0
0.004470 -0.000854 0
0.004718 0.000668 0
0.003192 0.004686 0
0.000067 0.010984 0
-0.002887 0.015723 0
-0.004094 0.013268 0
-0.003224 0.001518 0
-0.001316 -0.013451 0
0.000315 -0.018998 0
-0.000079 -0.008817 0
-0.000007 0.000000 0
-0.000004 0.000000 0
-0.000003 0.000000 0
-0.000003 0.000000 0
-0.000003 0.000000 0
-0.000002 0.000000 0
-0.000002 0.000000 0
-0.000002 0.000000 0
-0.000002 0.000000 0
-0.000002 0.000000 0
-0.000002 0.000000 0
-0.000001 0.000000 0
-0.000001 0.000000 0
-0.000001 0.000000 0
-0.000001 0.000000 0
-0.000001 0.000000 0
-0.000001 0.000000 0
-0.000001 0.000000 0
-0.000000 0.000000 0
-0.000000 0.000000 0
-0.000000 0.000000 0
-0.000000 0.000000 0
0.000000 0.000000 0
0.000000 0.000000 0
0.000000 0.000000 0
0.000001 0.000000 0
0.000001 0.000000 0
0.000001 0.000000 0
0.000001 0.000000 0
0.000001 0.000000 0
0.000001 0.000000 0
0.000001 0.000000 0
0.000002 0.000000 0
0.000002 0.000000 0
0.000002 0.000000 0
0.000002 0.000000 0
0.000003 0.000000 0
0.000004 0.000000 0
0.000007 0.000000 0
-0.000921 -0.005201 0
-0.001984 -0.011686 0
-0.000740 -0.010353 0
0.001922 -0.003808 0
0.004972 0.003148 0
0.007062 0.007350 0
0.007402 0.007928 0
0.006122 0.005835 0
0.003980 0.003213 0
0.002354 0.001506 0
0.001426 0.000681 0
0.000905 0.000372 0
0.000550 0.000283 0
0.000277 0.000229 0
0.000091 0.000143 0
-0.000000 0.000045 0
-5.000000 0.000000 0
0.000508 -0.001015 0
0.000511 -0.000845 0
0.000866 -0.000548 0
0.001109 -0.000335 0
0.001268 -0.000195 0
0.001367 -0.000112 0
0.001428 -0.000067 0
0.001470 -0.000044 0
0.001501 -0.000033 0
0.001528 -0.000031 0
0.001558 -0.000046 0
0.001609 -0.000107 0
0.001716 -0.000267 0
0.001941 -0.000586 0
0.002356 -0.001052 0
0.002968 -0.001426 0
0.003579 -0.001087 0
0.003675 0.000948 0
0.002683 0.005588 0
0.001163 0.012011 0
0.000542 0.016201 0
0.001492 0.012980 0
0.003190 0.000864 0
0.003885 -0.013882 0
0.002802 -0.018651 0
-0.000000 0.000009 0
0.001431 0.008381 0
0.001008 0.000000 0
0.000479 0.000000 0
0.000144 0.000000 0
0.000004 0.000000 0
-0.000025 0.000000 0
-0.000012 0.000000 0
0.000006 0.000000 0
0.000019 0.000000 0
0.000026 0.000000 0
0.000029 0.000000 0
0.000030 0.000000 0
0.000031 0.000000 0
0.000031 0.000000 0
0.000032 0.000000 0
0.000032 0.000000 0
0.000032 0.000000 0
0.000033 0.000000 0
0.000033 0.000000 0
0.000033 0.000000 0
0.000033 0.000000 0
0.000034 0.000000 0
0.000034 0.000000 0
0.000034 0.000000 0
0.000034 0.000000 0
0.000034 0.000000 0
0.000034 0.000000 0
0.000034 0.000000 0
0.000034 0.000000 0
0.000035 0.000000 0
0.000036 0.000000 0
0.000038 0.000000 0
0.000038 0.000000 0
0.000029 0.000000 0