# vtk DataFile Version 2.0
generated by CFD-lab course output (written by Tobias Neckel) 
ASCII

DATASET STRUCTURED_GRID
DIMENSIONS  82 36 1 
POINTS 2952 float

-2.500000 0.100000 0
-2.402439 0.100000 0
-2.304878 0.100000 0
-2.207317 0.100000 0
-2.109756 0.100000 0
-2.012195 0.100000 0
-1.914634 0.100000 0
-1.817073 0.100000 0
-1.719512 0.100000 0
-1.621951 0.100000 0
-1.524390 0.100000 0
-1.426829 0.100000 0
-1.329268 0.100000 0
-1.231707 0.100000 0
-1.134146 0.100000 0
-1.036585 0.100000 0
-0.939024 0.100000 0
-0.841463 0.100000 0
-0.743902 0.100000 0
-0.646341 0.100000 0
-0.548780 0.100000 0
-0.451220 0.100000 0
-0.353659 0.100000 0
-0.256098 0.100000 0
-0.158537 0.100000 0
-0.060976 0.100000 0
0.036585 0.100000 0
0.134146 0.100000 0
0.231707 0.100000 0
0.329268 0.100000 0
0.426829 0.100000 0
0.524390 0.100000 0
0.621951 0.100000 0
0.719512 0.100000 0
0.817073 0.100000 0
0.914634 0.100000 0
1.012195 0.100000 0
1.109756 0.100000 0
1.207317 0.100000 0
1.304878 0.100000 0
1.402439 0.100000 0
1.500000 0.100000 0
1.597561 0.100000 0
1.695122 0.100000 0
1.792683 0.100000 0
1.890244 0.100000 0
1.987805 0.100000 0
2.085366 0.100000 0
2.182927 0.100000 0
2.280488 0.100000 0
2.378049 0.100000 0
2.475610 0.100000 0
2.573171 0.100000 0
2.670732 0.100000 0
2.768293 0.100000 0
2.865854 0.100000 0
2.963415 0.100000 0
3.060976 0.100000 0
3.158537 0.100000 0
3.256098 0.100000 0
3.353659 0.100000 0
3.451220 0.100000 0
3.548780 0.100000 0
3.646341 0.100000 0
3.743902 0.100000 0
3.841463 0.100000 0
3.939024 0.100000 0
4.036585 0.100000 0
4.134146 0.100000 0
4.231707 0.100000 0
4.329268 0.100000 0
4.426829 0.100000 0
4.524390 0.100000 0
4.621951 0.100000 0
4.719512 0.100000 0
4.817073 0.100000 0
4.914634 0.100000 0
5.012195 0.100000 0
5.109756 0.100000 0
5.207317 0.100000 0
5.304878 0.100000 0
5.402439 0.100000 0
-2.500000 0.147222 0
-2.402439 0.147222 0
-2.304878 0.147222 0
-2.207317 0.147222 0
-2.109756 0.147222 0
-2.012195 0.147222 0
-1.914634 0.147222 0
-1.817073 0.147222 0
-1.719512 0.147222 0
-1.621951 0.147222 0
-1.524390 0.147222 0
-1.426829 0.147222 0
-1.329268 0.147222 0
-1.231707 0.147222 0
-1.134146 0.147222 0
-1.036585 0.147222 0
-0.939024 0.147222 0
-0.841463 0.147222 0
-0.743902 0.147222 0
-0.646341 0.147222 0
-0.548780 0.147222 0
-0.451220 0.147222 0
-0.353659 0.147222 0
-0.256098 0.147222 0
-0.158537 0.147222 0
-0.060976 0.147222 0
0.036585 0.147222 0
0.134146 0.147222 0
0.231707 0.147222 0
0.329268 0.147222 0
0.426829 0.147222 0
0.524390 0.147222 0
0.621951 0.147222 0
0.719512 0.147222 0
0.817073 0.147222 0
0.914634 0.147222 0
1.012195 0.147222 0
1.109756 0.147222 0
1.207317 0.147222 0
1.304878 0.147222 0
1.402439 0.147222 0
1.500000 0.147222 0
1.597561 0.147222 0
1.695122 0.147222 0
1.792683 0.147222 0
1.890244 0.147222 0
1.987805 0.147222 0
2.085366 0.147222 0
2.182927 0.147222 0
2.280488 0.147222 0
2.378049 0.147222 0
2.475610 0.147222 0
2.573171 0.147222 0
2.670732 0.147222 0
2.768293 0.147222 0
2.865854 0.147222 0
2.963415 0.147222 0
3.060976 0.147222 0
3.158537 0.147222 0
3.256098 0.147222 0
3.353659 0.147222 0
3.451220 0.147222 0
3.548780 0.147222 0
3.646341 0.147222 0
3.743902 0.147222 0
3.841463 0.147222 0
3.939024 0.147222 0
4.036585 0.147222 0
4.134146 0.147222 0
4.231707 0.147222 0
4.329268 0.147222 0
4.426829 0.147222 0
4.524390 0.147222 0
4.621951 0.147222 0
4.719512 0.147222 0
4.817073 0.147222 0
4.914634 0.147222 0
5.012195 0.147222 0
5.109756 0.147222 0
5.207317 0.147222 0
5.304878 0.147222 0
5.402439 0.147222 0
-2.500000 0.194444 0
-2.402439 0.194444 0
-2.304878 0.194444 0
-2.207317 0.194444 0
-2.109756 0.194444 0
-2.012195 0.194444 0
-1.914634 0.194444 0
-1.817073 0.194444 0
-1.719512 0.194444 0
-1.621951 0.194444 0
-1.524390 0.194444 0
-1.426829 0.194444 0
-1.329268 0.194444 0
-1.231707 0.194444 0
-1.134146 0.194444 0
-1.036585 0.194444 0
-0.939024 0.194444 0
-0.841463 0.194444 0
-0.743902 0.194444 0
-0.646341 0.194444 0
-0.548780 0.194444 0
-0.451220 0.194444 0
-0.353659 0.194444 0
-0.256098 0.194444 0
-0.158537 0.194444 0
-0.060976 0.194444 0
0.036585 0.194444 0
0.134146 0.194444 0
0.231707 0.194444 0
0.329268 0.194444 0
0.426829 0.194444 0
0.524390 0.194444 0
0.621951 0.194444 0
0.719512 0.194444 0
0.817073 0.194444 0
0.914634 0.194444 0
1.012195 0.194444 0
1.109756 0.194444 0
1.207317 0.194444 0
1.304878 0.194444 0
1.402439 0.194444 0
1.500000 0.194444 0
1.597561 0.194444 0
1.695122 0.194444 0
1.792683 0.194444 0
1.890244 0.194444 0
1.987805 0.194444 0
2.085366 0.194444 0
2.182927 0.194444 0
2.280488 0.194444 0
2.378049 0.194444 0
2.475610 0.194444 0
2.573171 0.194444 0
2.670732 0.194444 0
2.768293 0.194444 0
2.865854 0.194444 0
2.963415 0.194444 0
3.060976 0.194444 0
3.158537 0.194444 0
3.256098 0.194444 0
3.353659 0.194444 0
3.451220 0.194444 0
3.548780 0.194444 0
3.646341 0.194444 0
3.743902 0.194444 0
3.841463 0.194444 0
3.939024 0.194444 0
4.036585 0.194444 0
4.134146 0.194444 0
4.231707 0.194444 0
4.329268 0.194444 0
4.426829 0.194444 0
4.524390 0.194444 0
4.621951 0.194444 0
4.719512 0.194444 0
4.817073 0.194444 0
4.914634 0.194444 0
5.012195 0.194444 0
5.109756 0.194444 0
5.207317 0.194444 0
5.304878 0.194444 0
5.402439 0.194444 0
-2.500000 0.241667 0
-2.402439 0.241667 0
-2.304878 0.241667 0
-2.207317 0.241667 0
-2.109756 0.241667 0
-2.012195 0.241667 0
-1.914634 0.241667 0
-1.817073 0.241667 0
-1.719512 0.241667 0
-1.621951 0.241667 0
-1.524390 0.241667 0
-1.426829 0.241667 0
-1.329268 0.241667 0
-1.231707 0.241667 0
-1.134146 0.241667 0
-1.036585 0.241667 0
-0.939024 0.241667 0
-0.841463 0.241667 0
-0.743902 0.241667 0
-0.646341 0.241667 0
-0.548780 0.241667 0
-0.451220 0.241667 0
-0.353659 0.241667 0
-0.256098 0.241667 0
-0.158537 0.241667 0
-0.060976 0.241667 0
0.036585 0.241667 0
0.134146 0.241667 0
0.231707 0.241667 0
0.329268 0.241667 0
0.426829 0.241667 0
0.524390 0.241667 0
0.621951 0.241667 0
0.719512 0.241667 0
0.817073 0.241667 0
0.914634 0.241667 0
1.012195 0.241667 0
1.109756 0.241667 0
1.207317 0.241667 0
1.304878 0.241667 0
1.402439 0.241667 0
1.500000 0.241667 0
1.597561 0.241667 0
1.695122 0.241667 0
1.792683 0.241667 0
1.890244 0.241667 0
1.987805 0.241667 0
2.085366 0.241667 0
2.182927 0.241667 0
2.280488 0.241667 0
2.378049 0.241667 0
2.475610 0.241667 0
2.573171 0.241667 0
2.670732 0.241667 0
2.768293 0.241667 0
2.865854 0.241667 0
2.963415 0.241667 0
3.060976 0.241667 0
3.158537 0.241667 0
3.256098 0.241667 0
3.353659 0.241667 0
3.451220 0.241667 0
3.548780 0.241667 0
3.646341 0.241667 0
3.743902 0.241667 0
3.841463 0.241667 0
3.939024 0.241667 0
4.036585 0.241667 0
4.134146 0.241667 0
4.231707 0.241667 0
4.329268 0.241667 0
4.426829 0.241667 0
4.524390 0.241667 0
4.621951 0.241667 0
4.719512 0.241667 0
4.817073 0.241667 0
4.914634 0.241667 0
5.012195 0.241667 0
5.109756 0.241667 0
5.207317 0.241667 0
5.304878 0.241667 0
5.402439 0.241667 0
-2.500000 0.288889 0
-2.402439 0.288889 0
-2.304878 0.288889 0
-2.207317 0.288889 0
-2.109756 0.288889 0
-2.012195 0.288889 0
-1.914634 0.288889 0
-1.817073 0.288889 0
-1.719512 0.288889 0
-1.621951 0.288889 0
-1.524390 0.288889 0
-1.426829 0.288889 0
-1.329268 0.288889 0
-1.231707 0.288889 0
-1.134146 0.288889 0
-1.036585 0.288889 0
-0.939024 0.288889 0
-0.841463 0.288889 0
-0.743902 0.288889 0
-0.646341 0.288889 0
-0.548780 0.288889 0
-0.451220 0.288889 0
-0.353659 0.288889 0
-0.256098 0.288889 0
-0.158537 0.288889 0
-0.060976 0.288889 0
0.036585 0.288889 0
0.134146 0.288889 0
0.231707 0.288889 0
0.329268 0.288889 0
0.426829 0.288889 0
0.524390 0.288889 0
0.621951 0.288889 0
0.719512 0.288889 0
0.817073 0.288889 0
0.914634 0.288889 0
1.012195 0.288889 0
1.109756 0.288889 0
1.207317 0.288889 0
1.304878 0.288889 0
1.402439 0.288889 0
1.500000 0.288889 0
1.597561 0.288889 0
1.695122 0.288889 0
1.792683 0.288889 0
1.890244 0.288889 0
1.987805 0.288889 0
2.085366 0.288889 0
2.182927 0.288889 0
2.280488 0.288889 0
2.378049 0.288889 0
2.475610 0.288889 0
2.573171 0.288889 0
2.670732 0.288889 0
2.768293 0.288889 0
2.865854 0.288889 0
2.963415 0.288889 0
3.060976 0.288889 0
3.158537 0.288889 0
3.256098 0.288889 0
3.353659 0.288889 0
3.451220 0.288889 0
3.548780 0.288889 0
3.646341 0.288889 0
3.743902 0.288889 0
3.841463 0.288889 0
3.939024 0.288889 0
4.036585 0.288889 0
4.134146 0.288889 0
4.231707 0.288889 0
4.329268 0.288889 0
4.426829 0.288889 0
4.524390 0.288889 0
4.621951 0.288889 0
4.719512 0.288889 0
4.817073 0.288889 0
4.914634 0.288889 0
5.012195 0.288889 0
5.109756 0.288889 0
5.207317 0.288889 0
5.304878 0.288889 0
5.402439 0.288889 0
-2.500000 0.336111 0
-2.402439 0.336111 0
-2.304878 0.336111 0
-2.207317 0.336111 0
-2.109756 0.336111 0
-2.012195 0.336111 0
-1.914634 0.336111 0
-1.817073 0.336111 0
-1.719512 0.336111 0
-1.621951 0.336111 0
-1.524390 0.336111 0
-1.426829 0.336111 0
-1.329268 0.336111 0
-1.231707 0.336111 0
-1.134146 0.336111 0
-1.036585 0.336111 0
-0.939024 0.336111 0
-0.841463 0.336111 0
-0.743902 0.336111 0
-0.646341 0.336111 0
-0.548780 0.336111 0
-0.451220 0.336111 0
-0.353659 0.336111 0
-0.256098 0.336111 0
-0.158537 0.336111 0
-0.060976 0.336111 0
0.036585 0.336111 0
0.134146 0.336111 0
0.231707 0.336111 0
0.329268 0.336111 0
0.426829 0.336111 0
0.524390 0.336111 0
0.621951 0.336111 0
0.719512 0.336111 0
0.817073 0.336111 0
0.914634 0.336111 0
1.012195 0.336111 0
1.109756 0.336111 0
1.207317 0.336111 0
1.304878 0.336111 0
1.402439 0.336111 0
1.500000 0.336111 0
1.597561 0.336111 0
1.695122 0.336111 0
1.792683 0.336111 0
1.890244 0.336111 0
1.987805 0.336111 0
2.085366 0.336111 0
2.182927 0.336111 0
2.280488 0.336111 0
2.378049 0.336111 0
2.475610 0.336111 0
2.573171 0.336111 0
2.670732 0.336111 0
2.768293 0.336111 0
2.865854 0.336111 0
2.963415 0.336111 0
3.060976 0.336111 0
3.158537 0.336111 0
3.256098 0.336111 0
3.353659 0.336111 0
3.451220 0.336111 0
3.548780 0.336111 0
3.646341 0.336111 0
3.743902 0.336111 0
3.841463 0.336111 0
3.939024 0.336111 0
4.036585 0.336111 0
4.134146 0.336111 0
4.231707 0.336111 0
4.329268 0.336111 0
4.426829 0.336111 0
4.524390 0.336111 0
4.621951 0.336111 0
[...]
POINT_DATA 2952 

VECTORS velocity float
0.000000 0.000000 0
0.000000 0.000000 0
0.000000 0.000000 0
0.000000 0.000000 0
0.000000 0.000000 0
0.000000 0.000000 0
0.000000 0.000000 0
0.000000 0.000000 0
0.000000 0.000000 0
0.000000 0.000000 0
0.000000 0.000000 0
0.000000 0.000000 0
0.000000 0.000000 0
0.000000 0.000000 0
0.000000 0.000000 0
0.000000 0.000000 0
0.000000 0.000000 0
0.000000 0.000000 0
0.000000 0.000000 0
0.000000 0.000000 0
0.000000 0.000000 0
0.000000 0.000000 0
0.000000 0.000000 0
0.000000 0.000000 0
0.000000 0.000000 0
-0.000016 0.000000 0
-0.000016 0.000000 0
-0.000008 0.000000 0
-0.000003 0.000000 0
-0.000000 0.000000 0
0.000001 0.000000 0
0.000001 0.000000 0
0.000000 0.000000 0
0.000000 0.000000 0
0.000000 0.000000 0
-0.000000 0.000000 0
-0.000000 0.000000 0
-0.000001 0.000000 0
-0.000001 0.000000 0
-0.000001 0.000000 0
-0.000001 0.000000 0
-0.000001 0.000000 0
-0.000002 0.000000 0
-0.000002 0.000000 0
-0.000002 0.000000 0
-0.000002 0.000000 0
-0.000002 0.000000 0
-0.000003 0.000000 0
-0.000003 0.000000 0
-0.000003 0.000000 0
-0.000003 0.000000 0
-0.000003 0.000000 0
-0.000004 0.000000 0
-0.000004 0.000000 0
-0.000004 0.000000 0
-0.000004 0.000000 0
-0.000004 0.000000 0
-0.000005 0.000000 0
-0.000005 0.000000 0
-0.000005 0.000000 0
-0.000005 0.000000 0
-0.000004 0.000000 0
-0.000003 0.000000 0
-0.000003 0.000000 0
-0.000003 0.000000 0
-0.000005 0.000000 0
-0.000013 0.000000 0
0.000004 0.000000 0
0.000000 0.000000 0
0.000000 0.000000 0
0.000000 0.000000 0
0.000000 0.000000 0
0.000000 0.000000 0
0.000000 0.000000 0
0.000000 0.000000 0
0.000000 0.000000 0
0.000000 0.000000 0
0.000000 0.000000 0
0.000000 0.000000 0
0.000000 0.000000 0
0.000000 0.000000 0
0.000000 0.000000 0
0.000000 0.000000 0
0.000000 0.000000 0
0.000000 0.000000 0
0.000000 0.000000 0
0.000000 0.000000 0
0.000000 0.000000 0
0.000000 0.000000 0
0.000000 0.000000 0
0.000000 0.000000 0
0.000000 0.000000 0
0.000000 0.000000 0
0.000000 0.000000 0
0.000000 0.000000 0
0.000000 0.000000 0
0.000000 0.000000 0
0.000000 0.000000 0
0.000000 0.000000 0
0.000000 0.000000 0
0.000000 0.000000 0
0.000000 0.000000 0
0.000000 0.000000 0
0.000000 0.000000 0
0.000000 0.000000 0
0.000000 0.000000 0
0.002130 -0.001235 0
0.008452 -0.001397 0
0.009505 0.000294 0
0.006685 0.000939 0
0.003486 0.000761 0
0.001511 0.000381 0
0.000691 0.000119 0
0.000492 0.000005 0
0.000520 -0.000025 0
0.000590 -0.000024 0
0.000647 -0.000016 0
0.000683 -0.000009 0
0.000704 -0.000005 0
0.000716 -0.000003 0
0.000724 -0.000002 0
0.000729 -0.000002 0
0.000733 -0.000001 0
0.000737 -0.000001 0
0.000740 -0.000001 0
0.000742 -0.000001 0
0.000745 -0.000001 0
0.000746 -0.000001 0
0.000747 -0.000001 0
0.000748 -0.000000 0
0.000748 -0.000000 0
0.000747 -0.000000 0
0.000746 0.000000 0
0.000744 0.000000 0
0.000742 0.000000 0
0.000739 0.000000 0
0.000737 -0.000000 0
0.000735 -0.000000 0
0.000732 -0.000000 0
0.000725 0.000002 0
0.000700 0.000012 0
0.000623 0.000036 0
0.000433 0.000083 0
0.000051 0.000146 0
-0.000517 0.000170 0
-0.000978 0.000057 0
-0.000685 -0.000177 0
0.000680 -0.000130 0
0.001587 0.000024 0
-0.000008 0.000000 0
-0.000003 0.000000 0
0.000000 0.000000 0
0.000000 0.000000 0
0.000000 0.000000 0
0.000000 0.000000 0
0.000000 0.000000 0
0.000000 0.000000 0
0.000000 0.000000 0
0.000000 0.000000 0
0.000000 0.000000 0
0.000000 0.000000 0
0.000000 0.000000 0
0.000000 0.000000 0
0.000000 0.000000 0
0.000000 0.000000 0
0.000000 0.000000 0
0.000000 0.000000 0
0.000000 0.000000 0
0.000000 0.000000 0
0.000000 0.000000 0
0.000000 0.000000 0
0.000000 0.000000 0
0.000000 0.000000 0
0.000000 0.000000 0
0.000000 0.000000 0
0.000000 0.000000 0
0.000000 0.000000 0
0.000000 0.000000 0
0.000000 0.000000 0
0.000000 0.000000 0
0.000000 0.000000 0
0.000000 0.000000 0
0.000000 0.000000 0
0.000000 0.000000 0
0.000000 0.000000 0
0.000000 0.000000 0
0.000000 0.000000 0
-0.002871 -0.001057 0
0.003477 -0.004111 0
0.012454 -0.003564 0
0.014344 0.000855 0
0.010408 0.002913 0
0.005621 0.002504 0
0.002498 0.001352 0
0.001094 0.000492 0
0.000675 0.000082 0
0.000650 -0.000048 0
0.000726 -0.000062 0
0.000800 -0.000046 0
0.000851 -0.000028 0
0.000882 -0.000016 0
0.000901 -0.000010 0
0.000913 -0.000007 0
0.000922 -0.000005 0
0.000929 -0.000004 0
0.000934 -0.000004 0
0.000939 -0.000003 0
0.000944 -0.000003 0
0.000947 -0.000002 0
0.000950 -0.000002 0
0.000952 -0.000001 0
0.000953 -0.000001 0
0.000953 -0.000000 0
0.000952 0.000000 0
0.000951 0.000001 0
0.000948 0.000001 0
0.000944 0.000002 0
0.000940 0.000002 0
0.000936 0.000002 0
0.000932 0.000002 0
0.000926 0.000004 0
0.000910 0.000015 0
0.000863 0.000049 0
0.000735 0.000129 0
0.000438 0.000276 0
-0.000133 0.000459 0
-0.000951 0.000497 0
-0.001561 0.000081 0
-0.000913 -0.000803 0
0.001846 -0.001105 0
0.005249 0.000321 0
0.003907 0.000766 0
-0.000006 0.000000 0
-0.000010 0.000000 0
0.000000 0.000000 0
0.000000 0.000000 0
0.000000 0.000000 0
0.000000 0.000000 0
0.000000 0.000000 0
0.000000 0.000000 0
0.000000 0.000000 0
0.000000 0.000000 0
0.000000 0.000000 0
0.000000 0.000000 0
0.000000 0.000000 0
0.000000 0.000000 0
0.000000 0.000000 0
0.000000 0.000000 0
0.000000 0.000000 0
0.000000 0.000000 0
0.000000 0.000000 0
0.000000 0.000000 0
0.000000 0.000000 0
0.000000 0.000000 0
0.000000 0.000000 0
0.000000 0.000000 0
0.000000 0.000000 0
0.000000 0.000000 0
0.000000 0.000000 0
0.000000 0.000000 0
0.000000 0.000000 0
0.000000 0.000000 0
0.000000 0.000000 0
0.000000 0.000000 0
0.000000 0.000000 0
0.000000 0.000000 0
0.000000 0.000000 0
0.000000 0.000000 0
-0.007279 0.001378 0
-0.010389 -0.001721 0
-0.000286 -0.008678 0
0.011219 -0.006657 0
0.013992 0.001284 0
0.010308 0.005161 0
0.005538 0.004589 0
0.002337 0.002572 0
0.000837 0.001001 0
0.000344 0.000219 0
0.000273 -0.000050 0
0.000324 -0.000096 0
0.000386 -0.000076 0
0.000432 -0.000049 0
0.000461 -0.000029 0
0.000479 -0.000018 0
0.000490 -0.000012 0
0.000499 -0.000009 0
0.000506 -0.000008 0
0.000511 -0.000007 0
0.000516 -0.000006 0
0.000520 -0.000005 0
0.000524 -0.000004 0
0.000526 -0.000003 0
0.000528 -0.000002 0
0.000530 -0.000001 0
0.000530 -0.000000 0
0.000529 0.000001 0
0.000528 0.000002 0
0.000525 0.000003 0
0.000522 0.000004 0
0.000519 0.000004 0
0.000515 0.000004 0
0.000510 0.000005 0
0.000503 0.000011 0
0.000485 0.000033 0
0.000437 0.000096 0
0.000310 0.000241 0
0.000020 0.000503 0
-0.000536 0.000818 0
-0.001341 0.000861 0
-0.001942 0.000038 0
-0.001129 -0.001826 0
0.002610 -0.003112 0
0.008796 -0.000989 0
0.011438 0.002532 0
0.005809 0.001898 0
-0.000003 0.000000 0
-0.000013 0.000000 0
0.000000 0.000000 0
0.000000 0.000000 0
0.000000 0.000000 0
0.000000 0.000000 0
0.000000 0.000000 0
0.000000 0.000000 0
0.000000 0.000000 0
0.000000 0.000000 0
0.000000 0.000000 0
0.000000 0.000000 0
0.000000 0.000000 0
0.000000 0.000000 0
0.000000 0.000000 0
0.000000 0.000000 0
0.000000 0.000000 0
0.000000 0.000000 0
0.000000 0.000000 0
0.000000 0.000000 0
0.000000 0.000000 0
0.000000 0.000000 0
0.000000 0.000000 0
0.000000 0.000000 0
0.000000 0.000000 0
0.000000 0.000000 0
0.000000 0.000000 0
0.000000 0.000000 0
0.000000 0.000000 0
0.000000 0.000000 0
0.000000 0.000000 0
0.000000 0.000000 0
0.000000 0.000000 0
0.000000 0.000000 0
-0.008071 0.003546 0
-0.020715 0.005040 0
-0.019710 -0.004453 0
-0.007174 -0.014571 0
0.005636 -0.010475 0
0.008985 0.001296 0
0.006618 0.007005 0
0.003313 0.006362 0
0.001094 0.003627 0
0.000050 0.001456 0
-0.000305 0.000355 0
-0.000369 -0.000038 0
-0.000347 -0.000117 0
-0.000313 -0.000098 0
-0.000287 -0.000064 0
-0.000270 -0.000039 0
-0.000260 -0.000025 0
-0.000253 -0.000017 0
-0.000248 -0.000013 0
-0.000244 -0.000010 0
-0.000241 -0.000009 0
-0.000239 -0.000008 0
-0.000236 -0.000007 0
-0.000234 -0.000006 0
-0.000233 -0.000004 0
-0.000232 -0.000003 0
-0.000231 -0.000002 0
-0.000231 -0.000000 0
-0.000231 0.000001 0
-0.000232 0.000003 0
-0.000233 0.000004 0
-0.000234 0.000005 0
-0.000236 0.000005 0
-0.000238 0.000005 0
-0.000240 0.000007 0
-0.000244 0.000016 0
-0.000254 0.000047 0
-0.000282 0.000133 0
-0.000358 0.000330 0
-0.000538 0.000685 0
-0.000902 0.001117 0
-0.001475 0.001177 0
-0.001968 -0.000022 0
-0.001313 -0.003006 0
0.002509 -0.005909 0
0.010689 -0.003952 0
0.017187 0.002211 0
0.016110 0.005549 0
0.006619 0.002825 0
0.000001 0.000000 0
-0.000012 0.000000 0
0.000000 0.000000 0
0.000000 0.000000 0
0.000000 0.000000 0
0.000000 0.000000 0
0.000000 0.000000 0
0.000000 0.000000 0
0.000000 0.000000 0
0.000000 0.000000 0
0.000000 0.000000 0
0.000000 0.000000 0
0.000000 0.000000 0
0.000000 0.000000 0
0.000000 0.000000 0
0.000000 0.000000 0
0.000000 0.000000 0
0.000000 0.000000 0
0.000000 0.000000 0
0.000000 0.000000 0
0.000000 0.000000 0
0.000000 0.000000 0
0.000000 0.000000 0
0.000000 0.000000 0
0.000000 0.000000 0
0.000000 0.000000 0
0.000000 0.000000 0
0.000000 0.000000 0
0.000000 0.000000 0
0.000000 0.000000 0
0.000000 0.000000 0
0.000000 0.000000 0
-0.005526 0.003943 0
-0.021091 0.010086 0
-0.030686 0.007034 0
-0.027593 -0.008275 0
-0.014445 -0.020946 0
-0.002089 -0.014479 0
0.000994 0.000808 0
0.000610 0.007906 0
-0.000174 0.007263 0
-0.000629 0.004151 0
-0.000807 0.001678 0
-0.000858 0.000422 0
-0.000868 -0.000030 0
-0.000869 -0.000124 0
-0.000869 -0.000105 0
-0.000869 -0.000070 0
-0.000870 -0.000043 0
-0.000871 -0.000027 0
-0.000871 -0.000018 0
-0.000872 -0.000014 0
-0.000873 -0.000011 0
-0.000873 -0.000010 0
-0.000874 -0.000008 0
-0.000874 -0.000007 0
-0.000875 -0.000006 0
-0.000875 -0.000005 0
-0.000875 -0.000003 0
-0.000875 -0.000002 0
-0.000875 -0.000000 0
-0.000875 0.000001 0
-0.000875 0.000003 0
-0.000874 0.000004 0
-0.000874 0.000005 0
-0.000873 0.000005 0
-0.000872 0.000006 0
-0.000871 0.000007 0
-0.000869 0.000017 0
-0.000867 0.000051 0
-0.000863 0.000146 0
-0.000859 0.000364 0
-0.000866 0.000766 0
-0.000919 0.001271 0
-0.001089 0.001376 0
-0.001362 -0.000040 0
-0.001164 -0.003993 0
0.001601 -0.008922 0
0.010303 -0.008094 0
0.019525 -0.000092 0
0.022790 0.007027 0
0.017783 0.007826 0
0.006354 0.003217 0
0.000003 0.000000 0
-0.000008 0.000000 0
0.000000 0.000000 0
0.000000 0.000000 0
0.000000 0.000000 0
0.000000 0.000000 0
0.000000 0.000000 0
0.000000 0.000000 0
0.000000 0.000000 0
0.000000 0.000000 0
0.000000 0.000000 0
-0.000228 0.000000 0
-0.000228 0.000000 0
-0.000395 0.000000 0
-0.000475 0.000000 0
-0.000513 0.000000 0
-0.000532 0.000000 0
-0.000542 0.000000 0
-0.000549 0.000000 0
-0.000554 0.000000 0
-0.000558 0.000000 0
-0.000561 0.000000 0
-0.000563 0.000000 0
-0.000570 0.000000 0
-0.000606 0.000000 0
-0.000727 0.000000 0
-0.001028 0.000000 0
-0.001578 0.000000 0
-0.002259 0.000000 0
0.000000 0.000000 0
-0.001574 0.002700 0
-0.013333 0.010270 0
-0.027637 0.015761 0
-0.035275 0.008188 0
-0.031507 -0.012314 0
-0.019336 -0.026916 0
-0.009011 -0.017949 0
-0.007462 -0.000011 0
-0.005750 0.007570 0
-0.003623 0.006962 0
-0.002067 0.003934 0
-0.001275 0.001567 0
-0.000989 0.000384 0
-0.000937 -0.000033 0
-0.000960 -0.000117 0
-0.000994 -0.000098 0
-0.001021 -0.000064 0
-0.001039 -0.000039 0
-0.001050 -0.000024 0
-0.001058 -0.000016 0
-0.001064 -0.000012 0
-0.001069 -0.000010 0
-0.001073 -0.000009 0
-0.001077 -0.000007 0
-0.001080 -0.000006 0
-0.001082 -0.000005 0
-0.001084 -0.000004 0
-0.001086 -0.000003 0
-0.001087 -0.000002 0
-0.001087 -0.000000 0
-0.001087 0.000001 0
-0.001086 0.000002 0
-0.001085 0.000003 0
-0.001083 0.000004 0
-0.001080 0.000004 0
-0.001077 0.000004 0
-0.001073 0.000006 0
-0.001067 0.000014 0
-0.001054 0.000044 0
-0.001020 0.000130 0
-0.000938 0.000331 0
-0.000767 0.000714 0
-0.000480 0.001225 0
-0.000154 0.001392 0
-0.000080 0.000014 0
-0.000472 -0.004441 0
0.000181 -0.011460 0
0.007839 -0.012628 0
0.018049 -0.003833 0
0.024611 0.006392 0
0.024135 0.010803 0
0.016665 0.008641 0
0.005268 0.003086 0
0.000006 0.000000 0
-0.001231 0.000000 0
-0.000510 0.000000 0
-0.000341 0.000000 0
-0.000287 0.000000 0
-0.000222 0.000000 0
-0.000124 0.000000 0
-0.000033 0.000000 0
0.000000 0.000000 0
0.000000 0.000000 0
0.000000 0.000000 0
-0.000002 0.000000 0
-0.000003 0.000000 0
-0.000003 0.000000 0
-0.000003 0.000000 0
-0.000004 0.000000 0
-0.000004 0.000000 0
-0.000004 0.000000 0
-0.000004 0.000000 0
-0.000004 0.000000 0
-0.000004 0.000000 0
-0.000004 0.000000 0
-0.000004 0.000000 0
-0.000005 0.000000 0
-0.000005 0.000000 0
-0.000007 0.000000 0
-0.000010 0.000000 0
-0.000018 0.000000 0
0.002394 0.000771 0
-0.002739 0.006488 0
-0.015222 0.016584 0
-0.027786 0.020707 0
-0.033713 0.008907 0
-0.029993 -0.015990 0
-0.019832 -0.031836 0
-0.012427 -0.020226 0
-0.013665 -0.000770 0
-0.010321 0.006047 0
-0.005776 0.005480 0
-0.002651 0.003014 0
-0.001165 0.001156 0
-0.000670 0.000259 0
-0.000597 -0.000044 0
-0.000648 -0.000096 0
-0.000710 -0.000076 0
-0.000756 -0.000048 0
-0.000785 -0.000029 0
-0.000804 -0.000017 0
-0.000816 -0.000012 0
-0.000825 -0.000009 0
-0.000832 -0.000007 0
-0.000838 -0.000006 0
-0.000844 -0.000005 0
-0.000848 -0.000005 0
-0.000852 -0.000004 0
-0.000856 -0.000003 0
-0.000858 -0.000002 0
-0.000860 -0.000001 0
-0.000861 -0.000000 0
-0.000860 0.000001 0
-0.000859 0.000001 0
-0.000858 0.000002 0
-0.000855 0.000002 0
-0.000852 0.000002 0
-0.000849 0.000002 0
-0.000845 0.000003 0
-0.000838 0.000008 0
-0.000821 0.000028 0
-0.000772 0.000090 0
-0.000644 0.000242 0
-0.000353 0.000543 0
0.000198 0.000974 0
0.000971 0.001183 0
0.001473 0.000113 0
0.000614 -0.004120 0
-0.001480 -0.012945 0
0.004003 -0.016742 0
0.013417 -0.008211 0
0.021666 0.004081 0
0.024955 0.011672 0
0.021830 0.012373 0
0.013549 0.008094 0
0.004082 0.002554 0
0.000001 0.000000 0
0.000001 0.000000 0
-0.000000 0.000000 0
-0.000001 0.000000 0
-0.000001 0.000000 0
-0.000000 0.000000 0
-0.000000 0.000000 0
0.000000 0.000000 0
-2.500000 0.000000 0
0.000787 -0.000250 0
0.000781 -0.000205 0
0.001314 -0.000119 0
0.001604 -0.000057 0
0.001757 -0.000028 0
0.001837 -0.000014 0
0.001882 -0.000008 0
0.001911 -0.000006 0
0.001933 -0.000005 0
0.001951 -0.000004 0
0.001965 -0.000002 0
0.001982 -0.000005 0
0.002027 -0.000021 0
0.002181 -0.000076 0
0.002620 -0.000204 0
0.003610 -0.000410 0
0.005264 -0.000591 0
0.006951 -0.000425 0
0.006367 0.002395 0
-0.001140 0.011236 0
-0.012708 0.022393 0
-0.022607 0.024710 0
-0.026482 0.009256 0
-0.023025 -0.019033 0
-0.015413 -0.035418 0
-0.011010 -0.020934 0
-0.015432 -0.001030 0
-0.011333 0.003751 0
-0.005811 0.003249 0
-0.002232 0.001702 0
-0.000643 0.000608 0
-0.000170 0.000109 0
-0.000135 -0.000045 0
-0.000211 -0.000063 0
-0.000285 -0.000045 0
-0.000336 -0.000027 0
-0.000367 -0.000016 0
-0.000386 -0.000009 0
-0.000398 -0.000006 0
-0.000407 -0.000004 0
-0.000414 -0.000004 0
-0.000420 -0.000003 0
-0.000425 -0.000003 0
-0.000430 -0.000002 0
-0.000434 -0.000002 0
-0.000437 -0.000002 0
-0.000439 -0.000001 0
-0.000441 -0.000001 0
-0.000442 -0.000000 0
-0.000442 0.000000 0
-0.000441 0.000001 0
-0.000440 0.000001 0
-0.000438 0.000001 0
-0.000436 0.000001 0
-0.000434 0.000000 0
-0.000431 0.000000 0
-0.000428 0.000002 0
-0.000415 0.000012 0
-0.000373 0.000044 0
-0.000250 0.000128 0
0.000054 0.000307 0
0.000680 0.000584 0
0.001666 0.000774 0
0.002517 0.000186 0
0.001597 -0.003012 0
-0.003091 -0.013100 0
-0.000255 -0.019839 0
0.006937 -0.012383 0
0.015101 0.000807 0
0.020814 0.010723 0
0.021586 0.014161 0
0.017113 0.011694 0
0.009976 0.005988 0
0.004199 0.001737 0
0.002060 0.000431 0
0.001355 0.000108 0
0.001063 0.000057 0
0.000786 0.000078 0
0.000443 0.000090 0
0.000136 0.000059 0
-0.000000 0.000016 0
-5.000000 0.000000 0
0.001221 -0.000818 0
0.001214 -0.000666 0
0.002015 -0.000399 0
0.002499 -0.000215 0
0.002776 -0.000113 0
0.002928 -0.000060 0
0.003016 -0.000036 0
0.003073 -0.000025 0
0.003116 -0.000020 0
0.003151 -0.000016 0
0.003183 -0.000016 0
0.003226 -0.000030 0
0.003328 -0.000097 0
0.003614 -0.000287 0
0.004340 -0.000692 0
0.005832 -0.001280 0
0.008103 -0.001617 0
0.009991 -0.000560 0
0.008309 0.004662 0
0.001135 0.015721 0
-0.007741 0.026975 0
-0.013922 0.027373 0
-0.015215 0.009109 0
-0.012100 -0.021348 0
-0.007482 -0.037651 0
-0.005830 -0.020217 0
-0.011374 -0.000614 0
-0.007832 0.001390 0
-0.003625 0.001074 0
-0.001119 0.000513 0
-0.000109 0.000158 0
0.000137 0.000012 0
0.000116 -0.000025 0
0.000045 -0.000024 0
-0.000013 -0.000015 0
-0.000050 -0.000009 0
-0.000070 -0.000005 0
-0.000082 -0.000003 0
-0.000090 -0.000002 0
-0.000095 -0.000001 0
-0.000099 -0.000001 0
-0.000103 -0.000001 0
-0.000106 -0.000001 0
-0.000109 -0.000001 0
-0.000112 -0.000001 0
-0.000114 -0.000000 0
-0.000115 -0.000000 0
-0.000116 -0.000000 0
-0.000117 -0.000000 0
-0.000117 0.000000 0
-0.000117 0.000000 0
-0.000116 0.000000 0
-0.000115 0.000000 0
-0.000114 0.000000 0
-0.000114 -0.000000 0
-0.000114 -0.000001 0
-0.000114 -0.000001 0
-0.000110 0.000002 0
-0.000090 0.000010 0
-0.000020 0.000035 0
0.000175 0.000093 0
0.000613 0.000194 0
0.001381 0.000293 0
0.002213 0.000146 0
0.001765 -0.001405 0
-0.003915 -0.012049 0
-0.003897 -0.021597 0
0.000110 -0.015644 0
0.006671 -0.002636 0
0.013233 0.008533 0
0.016845 0.014165 0
0.016005 0.013714 0
0.011697 0.008819 0
0.006542 0.003846 0
0.003661 0.001376 0
0.002407 0.000482 0
0.001786 0.000275 0
0.001261 0.000299 0
0.000697 0.000314 0
0.000226 0.000213 0
0.000000 0.000065 0
-5.000000 0.000000 0
0.001198 -0.001485 0
0.001192 -0.001209 0
0.002004 -0.000742 0
0.002536 -0.000426 0
0.002860 -0.000235 0
0.003048 -0.000130 0
0.003159 -0.000078 0
0.003232 -0.000054 0
0.003286 -0.000043 0
0.003332 -0.000036 0
0.003377 -0.000039 0
0.003440 -0.000075 0
0.003577 -0.000209 0
0.003915 -0.000566 0
0.004689 -0.001277 0
0.006148 -0.002231 0
0.008167 -0.002604 0
0.009548 -0.000525 0
0.007819 0.006681 0
0.002724 0.019004 0
-0.002128 0.029681 0
-0.003836 0.028328 0
-0.002256 0.008374 0
0.000219 -0.022776 0
0.001023 -0.038454 0
-0.001288 -0.018989 0
0.000042 0.000000 0
0.000023 0.000000 0
0.000010 0.000000 0
0.000005 0.000000 0
0.000003 0.000000 0
0.000002 0.000000 0
0.000002 0.000000 0
0.000002 0.000000 0
0.000002 0.000000 0
0.000002 0.000000 0
0.000001 0.000000 0
0.000001 0.000000 0
0.000001 0.000000 0
0.000001 0.000000 0
0.000001 0.000000 0
0.000000 0.000000 0
0.000000 0.000000 0
0.000000 0.000000 0
-0.000000 0.000000 0
-0.000000 0.000000 0
-0.000001 0.000000 0
-0.000001 0.000000 0
-0.000001 0.000000 0
-0.000001 0.000000 0
-0.000001 0.000000 0
-0.000002 0.000000 0
-0.000002 0.000000 0
-0.000002 0.000000 0
-0.000002 0.000000 0
-0.000002 0.000000 0
-0.000003 0.000000 0
-0.000003 0.000000 0
-0.000003 0.000000 0
-0.000004 0.000000 0
-0.000004 0.000000 0
-0.000005 0.000000 0
-0.000008 0.000000 0
-0.000012 0.000000 0
-0.000018 0.000000 0
-0.001996 -0.010314 0
-0.006075 -0.021787 0
-0.005791 -0.017499 0
-0.001824 -0.005546 0
0.004143 0.005799 0
0.009275 0.012819 0
0.011355 0.014186 0
0.010006 0.010568 0
0.006663 0.005626 0
0.004123 0.002432 0
0.002730 0.001015 0
0.001927 0.000611 0
0.001277 0.000605 0
0.000663 0.000591 0
0.000204 0.000397 0
0.000000 0.000125 0
-5.000000 0.000000 0
0.000797 -0.002031 0
0.000795 -0.001664 0
0.001400 -0.001049 0
0.001832 -0.000629 0
0.002113 -0.000361 0
0.002285 -0.000205 0
0.002391 -0.000125 0
0.002462 -0.000087 0
0.002515 -0.000068 0
0.002560 -0.000060 0
0.002607 -0.000068 0
0.002674 -0.000127 0
0.002807 -0.000327 0
0.003099 -0.000826 0
0.003694 -0.001773 0
0.004696 -0.002963 0
0.005905 -0.003263 0
0.006489 -0.000392 0
0.005265 0.007965 0
0.003104 0.020536 0
0.002863 0.030150 0
0.005785 0.027435 0
0.010023 0.007146 0
0.011305 -0.022935 0
0.007242 -0.036928 0
0.000006 0.000097 0
0.003922 0.017894 0
0.002470 0.000000 0
0.001018 0.000000 0
0.000233 0.000000 0
-0.000048 0.000000 0
-0.000096 0.000000 0
-0.000074 0.000000 0
-0.000046 0.000000 0
-0.000026 0.000000 0
-0.000014 0.000000 0
-0.000008 0.000000 0
-0.000005 0.000000 0
-0.000003 0.000000 0
-0.000002 0.000000 0
-0.000001 0.000000 0
0.000000 0.000000 0
0.000001 0.000000 0
0.000001 0.000000 0
0.000002 0.000000 0
0.000002 0.000000 0
0.000003 0.000000 0
0.000003 0.000000 0
0.000003 0.000000 0
0.000003 0.000000 0
0.000003 0.000000 0
0.000002 0.000000 0
0.000002 0.000000 0
0.000002 0.000000 0
0.000001 0.000000 0
0.000002 0.000000 0
0.000002 0.000000 0
0.000002 0.000000 0
-0.000001 0.000000 0
-0.000019 0.000000 0