# vtk DataFile Version 2.0
generated by CFD-lab course output (written by Tobias Neckel) 
ASCII

DATASET STRUCTURED_GRID
DIMENSIONS  82 36 1 
POINTS 2952 float

-2.500000 0.100000 0
-2.402439 0.100000 0
-2.304878 0.100000 0
-2.207317 0.100000 0
-2.109756 0.100000 0
-2.012195 0.100000 0
-1.914634 0.100000 0
-1.817073 0.100000 0
-1.719512 0.100000 0
-1.621951 0.100000 0
-1.524390 0.100000 0
-1.426829 0.100000 0
-1.329268 0.100000 0
-1.231707 0.100000 0
-1.134146 0.100000 0
-1.036585 0.100000 0
-0.939024 0.100000 0
-0.841463 0.100000 0
-0.743902 0.100000 0
-0.646341 0.100000 0
-0.548780 0.100000 0
-0.451220 0.100000 0
-0.353659 0.100000 0
-0.256098 0.100000 0
-0.158537 0.100000 0
-0.060976 0.100000 0
0.036585 0.100000 0
0.134146 0.100000 0
0.231707 0.100000 0
0.329268 0.100000 0
0.426829 0.100000 0
0.524390 0.100000 0
0.621951 0.100000 0
0.719512 0.100000 0
0.817073 0.100000 0
0.914634 0.100000 0
1.012195 0.100000 0
1.109756 0.100000 0
1.207317 0.100000 0
1.304878 0.100000 0
1.402439 0.100000 0
1.500000 0.100000 0
1.597561 0.100000 0
1.695122 0.100000 0
1.792683 0.100000 0
1.890244 0.100000 0
1.987805 0.100000 0
2.085366 0.100000 0
2.182927 0.100000 0
2.280488 0.100000 0
2.378049 0.100000 0
2.475610 0.100000 0
2.573171 0.100000 0
2.670732 0.100000 0
2.768293 0.100000 0
2.865854 0.100000 0
2.963415 0.100000 0
3.060976 0.100000 0
3.158537 0.100000 0
3.256098 0.100000 0
3.353659 0.100000 0
3.451220 0.100000 0
3.548780 0.100000 0
3.646341 0.100000 0
3.743902 0.100000 0
3.841463 0.100000 0
3.939024 0.100000 0
4.036585 0.100000 0
4.134146 0.100000 0
4.231707 0.100000 0
4.329268 0.100000 0
4.426829 0.100000 0
4.524390 0.100000 0
4.621951 0.100000 0
4.719512 0.100000 0
4.817073 0.100000 0
4.914634 0.100000 0
5.012195 0.100000 0
5.109756 0.100000 0
5.207317 0.100000 0
5.304878 0.100000 0
5.402439 0.100000 0
-2.500000 0.147222 0
-2.402439 0.147222 0
-2.304878 0.147222 0
-2.207317 0.147222 0
-2.109756 0.147222 0
-2.012195 0.147222 0
-1.914634 0.147222 0
-1.817073 0.147222 0
-1.719512 0.147222 0
-1.621951 0.147222 0
-1.524390 0.147222 0
-1.426829 0.147222 0
-1.329268 0.147222 0
-1.231707 0.147222 0
-1.134146 0.147222 0
-1.036585 0.147222 0
-0.939024 0.147222 0
-0.841463 0.147222 0
-0.743902 0.147222 0
-0.646341 0.147222 0
-0.548780 0.147222 0
-0.451220 0.147222 0
-0.353659 0.147222 0
-0.256098 0.147222 0
-0.158537 0.147222 0
-0.060976 0.147222 0
0.036585 0.147222 0
0.134146 0.147222 0
0.231707 0.147222 0
0.329268 0.147222 0
0.426829 0.147222 0
0.524390 0.147222 0
0.621951 0.147222 0
0.719512 0.147222 0
0.817073 0.147222 0
0.914634 0.147222 0
1.012195 0.147222 0
1.109756 0.147222 0
1.207317 0.147222 0
1.304878 0.147222 0
1.402439 0.147222 0
1.500000 0.147222 0
1.597561 0.147222 0
1.695122 0.147222 0
1.792683 0.147222 0
1.890244 0.147222 0
1.987805 0.147222 0
2.085366 0.147222 0
2.182927 0.147222 0
2.280488 0.147222 0
2.378049 0.147222 0
2.475610 0.147222 0
2.573171 0.147222 0
2.670732 0.147222 0
2.768293 0.147222 0
2.865854 0.147222 0
2.963415 0.147222 0
3.060976 0.147222 0
3.158537 0.147222 0
3.256098 0.147222 0
3.353659 0.147222 0
3.451220 0.147222 0
3.548780 0.147222 0
3.646341 0.147222 0
3.743902 0.147222 0
3.841463 0.147222 0
3.939024 0.147222 0
4.036585 0.147222 0
4.134146 0.147222 0
4.231707 0.147222 0
4.329268 0.147222 0
4.426829 0.147222 0
4.524390 0.147222 0
4.621951 0.147222 0
4.719512 0.147222 0
4.817073 0.147222 0
4.914634 0.147222 0
5.012195 0.147222 0
5.109756 0.147222 0
5.207317 0.147222 0
5.304878 0.147222 0
5.402439 0.147222 0
-2.500000 0.194444 0
-2.402439 0.194444 0
-2.304878 0.194444 0
-2.207317 0.194444 0
-2.109756 0.194444 0
-2.012195 0.194444 0
-1.914634 0.194444 0
-1.817073 0.194444 0
-1.719512 0.194444 0
-1.621951 0.194444 0
-1.524390 0.194444 0
-1.426829 0.194444 0
-1.329268 0.194444 0
-1.231707 0.194444 0
-1.134146 0.194444 0
-1.036585 0.194444 0
-0.939024 0.194444 0
-0.841463 0.194444 0
-0.743902 0.194444 0
-0.646341 0.194444 0
-0.548780 0.194444 0
-0.451220 0.194444 0
-0.353659 0.194444 0
-0.256098 0.194444 0
-0.158537 0.194444 0
-0.060976 0.194444 0
0.036585 0.194444 0
0.134146 0.194444 0
0.231707 0.194444 0
0.329268 0.194444 0
0.426829 0.194444 0
0.524390 0.194444 0
0.621951 0.194444 0
0.719512 0.194444 0
0.817073 0.194444 0
0.914634 0.194444 0
1.012195 0.194444 0
1.109756 0.194444 0
1.207317 0.194444 0
1.304878 0.194444 0
1.402439 0.194444 0
1.500000 0.194444 0
1.597561 0.194444 0
1.695122 0.194444 0
1.792683 0.194444 0
1.890244 0.194444 0
1.987805 0.194444 0
2.085366 0.194444 0
2.182927 0.194444 0
2.280488 0.194444 0
2.378049 0.194444 0
2.475610 0.194444 0
2.573171 0.194444 0
2.670732 0.194444 0
2.768293 0.194444 0
2.865854 0.194444 0
2.963415 0.194444 0
3.060976 0.194444 0
3.158537 0.194444 0
3.256098 0.194444 0
3.353659 0.194444 0
3.451220 0.194444 0
3.548780 0.194444 0
3.646341 0.194444 0
3.743902 0.194444 0
3.841463 0.194444 0
3.939024 0.194444 0
4.036585 0.194444 0
4.134146 0.194444 0
4.231707 0.194444 0
4.329268 0.194444 0
4.426829 0.194444 0
4.524390 0.194444 0
4.621951 0.194444 0
4.719512 0.194444 0
4.817073 0.194444 0
4.914634 0.194444 0
5.012195 0.194444 0
5.109756 0.194444 0
5.207317 0.194444 0
5.304878 0.194444 0
5.402439 0.194444 0
-2.500000 0.241667 0
-2.402439 0.241667 0
-2.304878 0.241667 0
-2.207317 0.241667 0
-2.109756 0.241667 0
-2.012195 0.241667 0
-1.914634 0.241667 0
-1.817073 0.241667 0
-1.719512 0.241667 0
-1.621951 0.241667 0
-1.524390 0.241667 0
-1.426829 0.241667 0
-1.329268 0.241667 0
-1.231707 0.241667 0
-1.134146 0.241667 0
-1.036585 0.241667 0
-0.939024 0.241667 0
-0.841463 0.241667 0
-0.743902 0.241667 0
-0.646341 0.241667 0
-0.548780 0.241667 0
-0.451220 0.241667 0
-0.353659 0.241667 0
-0.256098 0.241667 0
-0.158537 0.241667 0
-0.060976 0.241667 0
0.036585 0.241667 0
0.134146 0.241667 0
0.231707 0.241667 0
0.329268 0.241667 0
0.426829 0.241667 0
0.524390 0.241667 0
0.621951 0.241667 0
0.719512 0.241667 0
0.817073 0.241667 0
0.914634 0.241667 0
1.012195 0.241667 0
1.109756 0.241667 0
1.207317 0.241667 0
1.304878 0.241667 0
1.402439 0.241667 0
1.500000 0.241667 0
1.597561 0.241667 0
1.695122 0.241667 0
1.792683 0.241667 0
1.890244 0.241667 0
1.987805 0.241667 0
2.085366 0.241667 0
2.182927 0.241667 0
2.280488 0.241667 0
2.378049 0.241667 0
2.475610 0.241667 0
2.573171 0.241667 0
2.670732 0.241667 0
2.768293 0.241667 0
2.865854 0.241667 0
2.963415 0.241667 0
3.060976 0.241667 0
3.158537 0.241667 0
3.256098 0.241667 0
3.353659 0.241667 0
3.451220 0.241667 0
3.548780 0.241667 0
3.646341 0.241667 0
3.743902 0.241667 0
3.841463 0.241667 0
3.939024 0.241667 0
4.036585 0.241667 0
4.134146 0.241667 0
4.231707 0.241667 0
4.329268 0.241667 0
4.426829 0.241667 0
4.524390 0.241667 0
4.621951 0.241667 0
4.719512 0.241667 0
4.817073 0.241667 0
4.914634 0.241667 0
5.012195 0.241667 0
5.109756 0.241667 0
5.207317 0.241667 0
5.304878 0.241667 0
5.402439 0.241667 0
-2.500000 0.288889 0
-2.402439 0.288889 0
-2.304878 0.288889 0
-2.207317 0.288889 0
-2.109756 0.288889 0
-2.012195 0.288889 0
-1.914634 0.288889 0
-1.817073 0.288889 0
-1.719512 0.288889 0
-1.621951 0.288889 0
-1.524390 0.288889 0
-1.426829 0.288889 0
-1.329268 0.288889 0
-1.231707 0.288889 0
-1.134146 0.288889 0
-1.036585 0.288889 0
-0.939024 0.288889 0
-0.841463 0.288889 0
-0.743902 0.288889 0
-0.646341 0.288889 0
-0.548780 0.288889 0
-0.451220 0.288889 0
-0.353659 0.288889 0
-0.256098 0.288889 0
-0.158537 0.288889 0
-0.060976 0.288889 0
0.036585 0.288889 0
0.134146 0.288889 0
0.231707 0.288889 0
0.329268 0.288889 0
0.426829 0.288889 0
0.524390 0.288889 0
0.621951 0.288889 0
0.719512 0.288889 0
0.817073 0.288889 0
0.914634 0.288889 0
1.012195 0.288889 0
1.109756 0.288889 0
1.207317 0.288889 0
1.304878 0.288889 0
1.402439 0.288889 0
1.500000 0.288889 0
1.597561 0.288889 0
1.695122 0.288889 0
1.792683 0.288889 0
1.890244 0.288889 0
1.987805 0.288889 0
2.085366 0.288889 0
2.182927 0.288889 0
2.280488 0.288889 0
2.378049 0.288889 0
2.475610 0.288889 0
2.573171 0.288889 0
2.670732 0.288889 0
2.768293 0.288889 0
2.865854 0.288889 0
2.963415 0.288889 0
3.060976 0.288889 0
3.158537 0.288889 0
3.256098 0.288889 0
3.353659 0.288889 0
3.451220 0.288889 0
3.548780 0.288889 0
3.646341 0.288889 0
3.743902 0.288889 0
3.841463 0.288889 0
3.939024 0.288889 0
4.036585 0.288889 0
4.134146 0.288889 0
4.231707 0.288889 0
4.329268 0.288889 0
4.426829 0.288889 0
4.524390 0.288889 0
4.621951 0.288889 0
4.719512 0.288889 0
4.817073 0.288889 0
4.914634 0.288889 0
5.012195 0.288889 0
5.109756 0.288889 0
5.207317 0.288889 0
5.304878 0.288889 0
5.402439 0.288889 0
-2.500000 0.336111 0
-2.402439 0.336111 0
-2.304878 0.336111 0
-2.207317 0.336111 0
-2.109756 0.336111 0
-2.012195 0.336111 0
-1.914634 0.336111 0
-1.817073 0.336111 0
-1.719512 0.336111 0
-1.621951 0.336111 0
-1.524390 0.336111 0
-1.426829 0.336111 0
-1.329268 0.336111 0
-1.231707 0.336111 0
-1.134146 0.336111 0
-1.036585 0.336111 0
-0.939024 0.336111 0
-0.841463 0.336111 0
-0.743902 0.336111 0
-0.646341 0.336111 0
-0.548780 0.336111 0
-0.451220 0.336111 0
-0.353659 0.336111 0
-0.256098 0.336111 0
-0.158537 0.336111 0
-0.060976 0.336111 0
0.036585 0.336111 0
0.134146 0.336111 0
0.231707 0.336111 0
0.329268 0.336111 0
0.426829 0.336111 0
0.524390 0.336111 0
0.621951 0.336111 0
0.719512 0.336111 0
0.817073 0.336111 0
0.914634 0.336111 0
1.012195 0.336111 0
1.109756 0.336111 0
1.207317 0.336111 0
1.304878 0.336111 0
1.402439 0.336111 0
1.500000 0.336111 0
1.597561 0.336111 0
1.695122 0.336111 0
1.792683 0.336111 0
1.890244 0.336111 0
1.987805 0.336111 0
2.085366 0.336111 0
2.182927 0.336111 0
2.280488 0.336111 0
2.378049 0.336111 0
2.475610 0.336111 0
2.573171 0.336111 0
2.670732 0.336111 0
2.768293 0.336111 0
2.865854 0.336111 0
2.963415 0.336111 0
3.060976 0.336111 0
3.158537 0.336111 0
3.256098 0.336111 0
3.353659 0.336111 0
3.451220 0.336111 0
3.548780 0.336111 0
3.646341 0.336111 0
3.743902 0.336111 0
3.841463 0.336111 0
3.939024 0.336111 0
4.036585 0.336111 0
4.134146 0.336111 0
4.231707 0.336111 0
4.329268 0.336111 0
4.426829 0.336111 0
4.524390 0.336111 0
4.621951 0.336111 0
[...]
POINT_DATA 2952 

VECTORS velocity float
0.000000 0.000000 0
0.000000 0.000000 0
0.000000 0.000000 0
0.000000 0.000000 0
0.000000 0.000000 0
0.000000 0.000000 0
0.000000 0.000000 0
0.000000 0.000000 0
0.000000 0.000000 0
0.000000 0.000000 0
0.000000 0.000000 0
0.000000 0.000000 0
0.000000 0.000000 0
0.000000 0.000000 0
0.000000 0.000000 0
0.000000 0.000000 0
0.000000 0.000000 0
0.000000 0.000000 0
0.000000 0.000000 0
0.000000 0.000000 0
0.000000 0.000000 0
0.000000 0.000000 0
0.000000 0.000000 0
0.000000 0.000000 0
0.000000 0.000000 0
-0.000001 0.000000 0
-0.000001 0.000000 0
-0.000001 0.000000 0
-0.000001 0.000000 0
-0.000001 0.000000 0
-0.000001 0.000000 0
-0.000001 0.000000 0
-0.000001 0.000000 0
-0.000001 0.000000 0
-0.000001 0.000000 0
-0.000001 0.000000 0
-0.000001 0.000000 0
-0.000001 0.000000 0
-0.000001 0.000000 0
-0.000000 0.000000 0
-0.000000 0.000000 0
-0.000000 0.000000 0
-0.000000 0.000000 0
-0.000000 0.000000 0
-0.000000 0.000000 0
-0.000000 0.000000 0
-0.000000 0.000000 0
-0.000000 0.000000 0
-0.000000 0.000000 0
0.000000 0.000000 0
0.000000 0.000000 0
0.000000 0.000000 0
0.000000 0.000000 0
0.000000 0.000000 0
0.000000 0.000000 0
0.000000 0.000000 0
0.000000 0.000000 0
0.000000 0.000000 0
0.000000 0.000000 0
0.000001 0.000000 0
0.000001 0.000000 0
0.000001 0.000000 0
0.000001 0.000000 0
0.000001 0.000000 0
0.000000 0.000000 0
0.000000 0.000000 0
0.000002 0.000000 0
0.000003 0.000000 0
0.000000 0.000000 0
0.000000 0.000000 0
0.000000 0.000000 0
0.000000 0.000000 0
0.000000 0.000000 0
0.000000 0.000000 0
0.000000 0.000000 0
0.000000 0.000000 0
0.000000 0.000000 0
0.000000 0.000000 0
0.000000 0.000000 0
0.000000 0.000000 0
0.000000 0.000000 0
0.000000 0.000000 0
0.000000 0.000000 0
0.000000 0.000000 0
0.000000 0.000000 0
0.000000 0.000000 0
0.000000 0.000000 0
0.000000 0.000000 0
0.000000 0.000000 0
0.000000 0.000000 0
0.000000 0.000000 0
0.000000 0.000000 0
0.000000 0.000000 0
0.000000 0.000000 0
0.000000 0.000000 0
0.000000 0.000000 0
0.000000 0.000000 0
0.000000 0.000000 0
0.000000 0.000000 0
0.000000 0.000000 0
0.000000 0.000000 0
0.000000 0.000000 0
0.000000 0.000000 0
0.000000 0.000000 0
0.000000 0.000000 0
0.000000 0.000000 0
0.000143 -0.000120 0
0.000783 -0.000155 0
0.001025 -0.000001 0
0.000826 0.000091 0
0.000464 0.000101 0
0.000165 0.000067 0
0.000003 0.000029 0
-0.000050 0.000005 0
-0.000048 -0.000005 0
-0.000029 -0.000006 0
-0.000012 -0.000004 0
-0.000003 -0.000002 0
0.000002 -0.000001 0
0.000004 -0.000000 0
0.000004 -0.000000 0
0.000004 0.000000 0
0.000004 0.000000 0
0.000004 0.000000 0
0.000005 -0.000000 0
0.000005 -0.000000 0
0.000005 -0.000000 0
0.000005 -0.000000 0
0.000005 0.000000 0
0.000005 0.000000 0
0.000005 0.000000 0
0.000005 0.000000 0
0.000005 0.000000 0
0.000005 0.000000 0
0.000005 0.000000 0
0.000005 -0.000000 0
0.000006 -0.000000 0
0.000007 -0.000001 0
0.000010 -0.000001 0
0.000012 -0.000000 0
0.000011 0.000002 0
-0.000003 0.000007 0
-0.000040 0.000016 0
-0.000114 0.000027 0
-0.000220 0.000033 0
-0.000317 0.000021 0
-0.000328 -0.000014 0
-0.000181 -0.000052 0
0.000044 -0.000034 0
0.000002 0.000000 0
0.000003 0.000000 0
0.000000 0.000000 0
0.000000 0.000000 0
0.000000 0.000000 0
0.000000 0.000000 0
0.000000 0.000000 0
0.000000 0.000000 0
0.000000 0.000000 0
0.000000 0.000000 0
0.000000 0.000000 0
0.000000 0.000000 0
0.000000 0.000000 0
0.000000 0.000000 0
0.000000 0.000000 0
0.000000 0.000000 0
0.000000 0.000000 0
0.000000 0.000000 0
0.000000 0.000000 0
0.000000 0.000000 0
0.000000 0.000000 0
0.000000 0.000000 0
0.000000 0.000000 0
0.000000 0.000000 0
0.000000 0.000000 0
0.000000 0.000000 0
0.000000 0.000000 0
0.000000 0.000000 0
0.000000 0.000000 0
0.000000 0.000000 0
0.000000 0.000000 0
0.000000 0.000000 0
0.000000 0.000000 0
0.000000 0.000000 0
0.000000 0.000000 0
0.000000 0.000000 0
0.000000 0.000000 0
0.000000 0.000000 0
-0.000551 -0.000071 0
0.000053 -0.000381 0
0.001063 -0.000426 0
0.001488 -0.000021 0
0.001239 0.000271 0
0.000723 0.000320 0
0.000278 0.000224 0
0.000024 0.000104 0
-0.000068 0.000024 0
-0.000074 -0.000010 0
-0.000050 -0.000017 0
-0.000028 -0.000013 0
-0.000013 -0.000007 0
-0.000006 -0.000003 0
-0.000003 -0.000001 0
-0.000002 -0.000000 0
-0.000002 -0.000000 0
-0.000001 -0.000000 0
-0.000001 -0.000000 0
-0.000001 -0.000000 0
-0.000001 -0.000000 0
-0.000000 -0.000000 0
-0.000000 -0.000000 0
-0.000000 -0.000000 0
0.000000 -0.000000 0
0.000000 0.000000 0
0.000000 0.000000 0
0.000000 0.000000 0
-0.000000 0.000000 0
-0.000000 -0.000000 0
0.000000 -0.000000 0
0.000001 -0.000001 0
0.000003 -0.000002 0
0.000006 -0.000002 0
0.000008 -0.000000 0
0.000004 0.000007 0
-0.000019 0.000025 0
-0.000079 0.000054 0
-0.000189 0.000087 0
-0.000340 0.000098 0
-0.000470 0.000052 0
-0.000452 -0.000066 0
-0.000162 -0.000180 0
0.000306 -0.000089 0
0.000420 0.000020 0
0.000002 0.000000 0
0.000001 0.000000 0
0.000000 0.000000 0
0.000000 0.000000 0
0.000000 0.000000 0
0.000000 0.000000 0
0.000000 0.000000 0
0.000000 0.000000 0
0.000000 0.000000 0
0.000000 0.000000 0
0.000000 0.000000 0
0.000000 0.000000 0
0.000000 0.000000 0
0.000000 0.000000 0
0.000000 0.000000 0
0.000000 0.000000 0
0.000000 0.000000 0
0.000000 0.000000 0
0.000000 0.000000 0
0.000000 0.000000 0
0.000000 0.000000 0
0.000000 0.000000 0
0.000000 0.000000 0
0.000000 0.000000 0
0.000000 0.000000 0
0.000000 0.000000 0
0.000000 0.000000 0
0.000000 0.000000 0
0.000000 0.000000 0
0.000000 0.000000 0
0.000000 0.000000 0
0.000000 0.000000 0
0.000000 0.000000 0
0.000000 0.000000 0
0.000000 0.000000 0
0.000000 0.000000 0
-0.001365 0.000266 0
-0.001960 -0.000029 0
-0.000664 -0.000903 0
0.000798 -0.000850 0
0.001373 -0.000086 0
0.001180 0.000461 0
0.000698 0.000566 0
0.000272 0.000406 0
0.000022 0.000197 0
-0.000075 0.000052 0
-0.000086 -0.000013 0
-0.000067 -0.000028 0
-0.000047 -0.000022 0
-0.000033 -0.000013 0
-0.000026 -0.000006 0
-0.000023 -0.000002 0
-0.000022 -0.000001 0
-0.000022 -0.000000 0
-0.000021 -0.000000 0
-0.000021 -0.000000 0
-0.000021 -0.000000 0
-0.000021 -0.000000 0
-0.000020 -0.000000 0
-0.000020 -0.000000 0
-0.000020 -0.000000 0
-0.000020 -0.000000 0
-0.000020 0.000000 0
-0.000020 0.000000 0
-0.000020 0.000000 0
-0.000020 0.000000 0
-0.000020 -0.000000 0
-0.000020 -0.000001 0
-0.000019 -0.000002 0
-0.000017 -0.000003 0
-0.000015 -0.000003 0
-0.000013 0.000001 0
-0.000019 0.000015 0
-0.000043 0.000047 0
-0.000101 0.000098 0
-0.000207 0.000154 0
-0.000350 0.000169 0
-0.000464 0.000075 0
-0.000410 -0.000163 0
0.000004 -0.000419 0
0.000812 -0.000318 0
0.001417 0.000146 0
0.000910 0.000203 0
0.000001 0.000000 0
-0.000002 0.000000 0
0.000000 0.000000 0
0.000000 0.000000 0
0.000000 0.000000 0
0.000000 0.000000 0
0.000000 0.000000 0
0.000000 0.000000 0
0.000000 0.000000 0
0.000000 0.000000 0
0.000000 0.000000 0
0.000000 0.000000 0
0.000000 0.000000 0
0.000000 0.000000 0
0.000000 0.000000 0
0.000000 0.000000 0
0.000000 0.000000 0
0.000000 0.000000 0
0.000000 0.000000 0
0.000000 0.000000 0
0.000000 0.000000 0
0.000000 0.000000 0
0.000000 0.000000 0
0.000000 0.000000 0
0.000000 0.000000 0
0.000000 0.000000 0
0.000000 0.000000 0
0.000000 0.000000 0
0.000000 0.000000 0
0.000000 0.000000 0
0.000000 0.000000 0
0.000000 0.000000 0
0.000000 0.000000 0
0.000000 0.000000 0
-0.001759 0.000663 0
-0.004021 0.000950 0
-0.003682 -0.000412 0
-0.001688 -0.001716 0
0.000157 -0.001412 0
0.000793 -0.000205 0
0.000709 0.000598 0
0.000407 0.000759 0
0.000139 0.000551 0
-0.000018 0.000272 0
-0.000080 0.000077 0
-0.000090 -0.000014 0
-0.000080 -0.000036 0
-0.000068 -0.000029 0
-0.000060 -0.000017 0
-0.000055 -0.000008 0
-0.000053 -0.000003 0
-0.000053 -0.000001 0
-0.000052 -0.000000 0
-0.000052 -0.000000 0
-0.000052 -0.000000 0
-0.000052 -0.000000 0
-0.000052 -0.000000 0
-0.000052 -0.000000 0
-0.000051 -0.000000 0
-0.000051 -0.000000 0
-0.000051 -0.000000 0
-0.000051 0.000000 0
-0.000051 0.000000 0
-0.000051 0.000000 0
-0.000051 0.000000 0
-0.000051 -0.000000 0
-0.000051 -0.000001 0
-0.000051 -0.000002 0
-0.000050 -0.000004 0
-0.000048 -0.000004 0
-0.000048 0.000002 0
-0.000051 0.000021 0
-0.000067 0.000065 0
-0.000103 0.000134 0
-0.000170 0.000207 0
-0.000260 0.000222 0
-0.000331 0.000082 0
-0.000262 -0.000292 0
0.000206 -0.000771 0
0.001346 -0.000773 0
0.002529 -0.000028 0
0.002728 0.000687 0
0.001288 0.000442 0
0.000000 0.000000 0
-0.000004 0.000000 0
0.000000 0.000000 0
0.000000 0.000000 0
0.000000 0.000000 0
0.000000 0.000000 0
0.000000 0.000000 0
0.000000 0.000000 0
0.000000 0.000000 0
0.000000 0.000000 0
0.000000 0.000000 0
0.000000 0.000000 0
0.000000 0.000000 0
0.000000 0.000000 0
0.000000 0.000000 0
0.000000 0.000000 0
0.000000 0.000000 0
0.000000 0.000000 0
0.000000 0.000000 0
0.000000 0.000000 0
0.000000 0.000000 0
0.000000 0.000000 0
0.000000 0.000000 0
0.000000 0.000000 0
0.000000 0.000000 0
0.000000 0.000000 0
0.000000 0.000000 0
0.000000 0.000000 0
0.000000 0.000000 0
0.000000 0.000000 0
0.000000 0.000000 0
0.000000 0.000000 0
-0.001515 0.000856 0
-0.004795 0.001954 0
-0.006241 0.001199 0
-0.005158 -0.001158 0
-0.002629 -0.002761 0
-0.000573 -0.002051 0
-0.000037 -0.000354 0
-0.000009 0.000648 0
-0.000049 0.000842 0
-0.000072 0.000611 0
-0.000081 0.000303 0
-0.000084 0.000087 0
-0.000085 -0.000014 0
-0.000085 -0.000039 0
-0.000085 -0.000032 0
-0.000085 -0.000019 0
-0.000085 -0.000009 0
-0.000085 -0.000003 0
-0.000085 -0.000001 0
-0.000085 -0.000000 0
-0.000085 -0.000000 0
-0.000085 -0.000000 0
-0.000085 -0.000000 0
-0.000085 -0.000000 0
-0.000085 -0.000000 0
-0.000085 -0.000000 0
-0.000085 -0.000000 0
-0.000085 -0.000000 0
-0.000084 0.000000 0
-0.000084 0.000000 0
-0.000084 0.000000 0
-0.000084 0.000000 0
-0.000084 -0.000000 0
-0.000084 -0.000001 0
-0.000084 -0.000002 0
-0.000084 -0.000004 0
-0.000084 -0.000004 0
-0.000084 0.000002 0
-0.000084 0.000024 0
-0.000085 0.000072 0
-0.000086 0.000148 0
-0.000091 0.000230 0
-0.000104 0.000247 0
-0.000119 0.000076 0
-0.000073 -0.000422 0
0.000327 -0.001198 0
0.001705 -0.001442 0
0.003417 -0.000523 0
0.004326 0.000805 0
0.003649 0.001324 0
0.001407 0.000626 0
-0.000001 0.000000 0
-0.000004 0.000000 0
0.000000 0.000000 0
0.000000 0.000000 0
0.000000 0.000000 0
0.000000 0.000000 0
0.000000 0.000000 0
0.000000 0.000000 0
0.000000 0.000000 0
0.000000 0.000000 0
0.000000 0.000000 0
-0.000039 0.000000 0
-0.000039 0.000000 0
-0.000074 0.000000 0
-0.000092 0.000000 0
-0.000102 0.000000 0
-0.000107 0.000000 0
-0.000109 0.000000 0
-0.000110 0.000000 0
-0.000111 0.000000 0
-0.000112 0.000000 0
-0.000112 0.000000 0
-0.000115 0.000000 0
-0.000125 0.000000 0
-0.000149 0.000000 0
-0.000196 0.000000 0
-0.000267 0.000000 0
-0.000339 0.000000 0
-0.000340 0.000000 0
0.000000 0.000000 0
-0.000828 0.000737 0
-0.003885 0.002330 0
-0.006718 0.002956 0
-0.007554 0.001127 0
-0.005965 -0.002160 0
-0.003143 -0.003935 0
-0.001087 -0.002667 0
-0.000857 -0.000478 0
-0.000749 0.000604 0
-0.000512 0.000790 0
-0.000281 0.000567 0
-0.000137 0.000278 0
-0.000078 0.000078 0
-0.000070 -0.000013 0
-0.000080 -0.000036 0
-0.000092 -0.000029 0
-0.000100 -0.000017 0
-0.000104 -0.000008 0
-0.000106 -0.000003 0
-0.000107 -0.000001 0
-0.000107 -0.000000 0
-0.000107 -0.000000 0
-0.000107 -0.000000 0
-0.000107 -0.000000 0
-0.000107 -0.000000 0
-0.000107 -0.000000 0
-0.000108 -0.000000 0
-0.000108 -0.000000 0
-0.000108 -0.000000 0
-0.000108 0.000000 0
-0.000108 0.000000 0
-0.000108 0.000000 0
-0.000107 0.000000 0
-0.000107 -0.000000 0
-0.000108 -0.000001 0
-0.000108 -0.000002 0
-0.000109 -0.000004 0
-0.000110 -0.000004 0
-0.000111 0.000002 0
-0.000107 0.000022 0
-0.000092 0.000066 0
-0.000058 0.000137 0
0.000001 0.000215 0
0.000072 0.000236 0
0.000115 0.000067 0
0.000105 -0.000509 0
0.000291 -0.001632 0
0.001754 -0.002268 0
0.003842 -0.001297 0
0.005352 0.000574 0
0.005403 0.001858 0
0.003841 0.001772 0
0.001272 0.000683 0
-0.000002 0.000000 0
-0.000359 0.000000 0
-0.000140 0.000000 0
-0.000065 0.000000 0
-0.000035 0.000000 0
-0.000019 0.000000 0
-0.000008 0.000000 0
-0.000002 0.000000 0
0.000000 0.000000 0
0.000000 0.000000 0
0.000000 0.000000 0
0.000001 0.000000 0
0.000001 0.000000 0
0.000001 0.000000 0
0.000001 0.000000 0
0.000001 0.000000 0
0.000001 0.000000 0
0.000001 0.000000 0
0.000001 0.000000 0
0.000001 0.000000 0
0.000001 0.000000 0
0.000001 0.000000 0
0.000001 0.000000 0
0.000001 0.000000 0
0.000001 0.000000 0
0.000001 0.000000 0
0.000001 0.000000 0
0.000002 0.000000 0
0.000013 0.000402 0
-0.001936 0.001886 0
-0.004959 0.003711 0
-0.007354 0.003730 0
-0.007724 0.000835 0
-0.005878 -0.003293 0
-0.003031 -0.005122 0
-0.001165 -0.003157 0
-0.001428 -0.000517 0
-0.001277 0.000481 0
-0.000821 0.000615 0
-0.000402 0.000430 0
-0.000154 0.000205 0
-0.000057 0.000055 0
-0.000046 -0.000013 0
-0.000064 -0.000028 0
-0.000085 -0.000022 0
-0.000098 -0.000013 0
-0.000105 -0.000006 0
-0.000108 -0.000002 0
-0.000109 -0.000001 0
-0.000110 -0.000000 0
-0.000110 -0.000000 0
-0.000110 -0.000000 0
-0.000110 -0.000000 0
-0.000111 -0.000000 0
-0.000111 -0.000000 0
-0.000111 -0.000000 0
-0.000111 -0.000000 0
-0.000111 -0.000000 0
-0.000111 0.000000 0
-0.000111 0.000000 0
-0.000111 0.000000 0
-0.000111 0.000000 0
-0.000111 -0.000000 0
-0.000111 -0.000001 0
-0.000112 -0.000002 0
-0.000114 -0.000003 0
-0.000116 -0.000003 0
-0.000117 0.000001 0
-0.000112 0.000015 0
-0.000088 0.000048 0
-0.000029 0.000103 0
0.000076 0.000167 0
0.000213 0.000192 0
0.000312 0.000060 0
0.000244 -0.000508 0
0.000081 -0.001995 0
0.001466 -0.003161 0
0.003700 -0.002264 0
0.005608 0.000050 0
0.006277 0.002056 0
0.005410 0.002629 0
0.003394 0.001864 0
0.001096 0.000616 0
-0.000002 0.000000 0
-0.000001 0.000000 0
-0.000000 0.000000 0
-0.000000 0.000000 0
-0.000000 0.000000 0
-0.000000 0.000000 0
-0.000000 0.000000 0
0.000000 0.000000 0
-2.500000 0.000000 0
0.000143 -0.000044 0
0.000145 -0.000039 0
0.000259 -0.000026 0
0.000326 -0.000014 0
0.000363 -0.000007 0
0.000383 -0.000004 0
0.000394 -0.000002 0
0.000400 -0.000001 0
0.000404 -0.000001 0
0.000407 -0.000001 0
0.000413 -0.000002 0
0.000427 -0.000006 0
0.000465 -0.000016 0
0.000552 -0.000034 0
0.000709 -0.000057 0
0.000932 -0.000069 0
0.001136 -0.000036 0
0.001076 0.000155 0
0.000167 0.001100 0
-0.002108 0.003145 0
-0.004866 0.004952 0
-0.006748 0.004294 0
-0.006756 0.000412 0
-0.004901 -0.004432 0
-0.002302 -0.006217 0
-0.000766 -0.003443 0
-0.001584 -0.000424 0
-0.001397 0.000310 0
-0.000851 0.000367 0
-0.000383 0.000244 0
-0.000120 0.000111 0
-0.000025 0.000026 0
-0.000019 -0.000010 0
-0.000042 -0.000017 0
-0.000064 -0.000013 0
-0.000079 -0.000007 0
-0.000086 -0.000003 0
-0.000089 -0.000001 0
-0.000090 -0.000000 0
-0.000090 -0.000000 0
-0.000090 -0.000000 0
-0.000090 -0.000000 0
-0.000091 -0.000000 0
-0.000091 -0.000000 0
-0.000091 -0.000000 0
-0.000091 -0.000000 0
-0.000091 -0.000000 0
-0.000091 -0.000000 0
-0.000091 0.000000 0
-0.000091 0.000000 0
-0.000091 0.000000 0
-0.000091 0.000000 0
-0.000091 -0.000000 0
-0.000091 -0.000000 0
-0.000092 -0.000001 0
-0.000094 -0.000002 0
-0.000097 -0.000002 0
-0.000099 -0.000000 0
-0.000095 0.000007 0
-0.000071 0.000026 0
-0.000010 0.000058 0
0.000106 0.000098 0
0.000268 0.000122 0
0.000407 0.000052 0
0.000326 -0.000397 0
-0.000235 -0.002223 0
0.000917 -0.004020 0
0.003028 -0.003302 0
0.005057 -0.000673 0
0.006166 0.001954 0
0.005951 0.003167 0
0.004586 0.002774 0
0.002750 0.001474 0
0.001213 0.000464 0
0.000556 0.000142 0
0.000277 0.000050 0
0.000150 0.000022 0
0.000082 0.000013 0
0.000037 0.000009 0
0.000010 0.000004 0
-0.000000 0.000001 0
-5.000000 0.000000 0
0.000246 -0.000153 0
0.000248 -0.000131 0
0.000425 -0.000087 0
0.000538 -0.000050 0
0.000605 -0.000028 0
0.000643 -0.000015 0
0.000665 -0.000008 0
0.000678 -0.000005 0
0.000687 -0.000003 0
0.000695 -0.000004 0
0.000708 -0.000009 0
0.000737 -0.000025 0
0.000805 -0.000060 0
0.000949 -0.000118 0
0.001197 -0.000184 0
0.001527 -0.000207 0
0.001792 -0.000070 0
0.001632 0.000465 0
0.000462 0.001940 0
-0.001664 0.004322 0
-0.003868 0.005957 0
-0.005126 0.004644 0
-0.004848 -0.000060 0
-0.003234 -0.005448 0
-0.001181 -0.007124 0
-0.000123 -0.003505 0
-0.001197 -0.000212 0
-0.000984 0.000126 0
-0.000557 0.000125 0
-0.000227 0.000076 0
-0.000053 0.000032 0
0.000003 0.000005 0
0.000001 -0.000005 0
-0.000018 -0.000006 0
-0.000034 -0.000004 0
-0.000044 -0.000002 0
-0.000049 -0.000001 0
-0.000050 -0.000000 0
-0.000051 -0.000000 0
-0.000051 0.000000 0
-0.000051 0.000000 0
-0.000051 -0.000000 0
-0.000051 -0.000000 0
-0.000051 -0.000000 0
-0.000051 -0.000000 0
-0.000051 -0.000000 0
-0.000051 -0.000000 0
-0.000051 -0.000000 0
-0.000051 0.000000 0
-0.000051 0.000000 0
-0.000051 0.000000 0
-0.000051 0.000000 0
-0.000051 -0.000000 0
-0.000051 -0.000000 0
-0.000052 -0.000000 0
-0.000053 -0.000001 0
-0.000055 -0.000001 0
-0.000058 -0.000000 0
-0.000056 0.000002 0
-0.000042 0.000007 0
-0.000003 0.000018 0
0.000077 0.000032 0
0.000200 0.000045 0
0.000328 0.000032 0
0.000307 -0.000196 0
-0.000481 -0.002281 0
0.000270 -0.004740 0
0.001962 -0.004268 0
0.003805 -0.001469 0
0.005123 0.001623 0
0.005453 0.003394 0
0.004752 0.003413 0
0.003412 0.002252 0
0.001927 0.001064 0
0.001005 0.000453 0
0.000529 0.000196 0
0.000289 0.000094 0
0.000155 0.000055 0
0.000071 0.000035 0
0.000022 0.000018 0
-0.000000 0.000005 0
-5.000000 0.000000 0
0.000281 -0.000296 0
0.000283 -0.000251 0
0.000477 -0.000166 0
0.000606 -0.000100 0
0.000686 -0.000058 0
0.000735 -0.000033 0
0.000764 -0.000019 0
0.000783 -0.000012 0
0.000797 -0.000009 0
0.000810 -0.000010 0
0.000828 -0.000022 0
0.000866 -0.000053 0
0.000948 -0.000119 0
0.001108 -0.000224 0
0.001372 -0.000336 0
0.001705 -0.000358 0
0.001943 -0.000086 0
0.001743 0.000799 0
0.000703 0.002695 0
-0.000899 0.005241 0
-0.002291 0.006628 0
-0.002818 0.004768 0
-0.002326 -0.000503 0
-0.001196 -0.006206 0
-0.000032 -0.007723 0
0.000106 -0.003428 0
-0.000003 0.000000 0
-0.000002 0.000000 0
-0.000001 0.000000 0
-0.000001 0.000000 0
-0.000001 0.000000 0
-0.000001 0.000000 0
-0.000001 0.000000 0
-0.000001 0.000000 0
-0.000001 0.000000 0
-0.000001 0.000000 0
-0.000001 0.000000 0
-0.000001 0.000000 0
-0.000000 0.000000 0
-0.000000 0.000000 0
-0.000000 0.000000 0
-0.000000 0.000000 0
-0.000000 0.000000 0
-0.000000 0.000000 0
-0.000000 0.000000 0
-0.000000 0.000000 0
-0.000000 0.000000 0
-0.000000 0.000000 0
0.000000 0.000000 0
0.000000 0.000000 0
0.000000 0.000000 0
0.000000 0.000000 0
0.000000 0.000000 0
0.000000 0.000000 0
0.000000 0.000000 0
0.000000 0.000000 0
0.000000 0.000000 0
0.000001 0.000000 0
0.000001 0.000000 0
0.000001 0.000000 0
0.000001 0.000000 0
0.000001 0.000000 0
0.000001 0.000000 0
0.000001 0.000000 0
0.000003 0.000000 0
-0.000278 -0.002200 0
-0.000291 -0.005202 0
0.000690 -0.005013 0
0.002050 -0.002203 0
0.003330 0.001156 0
0.004055 0.003347 0
0.003980 0.003762 0
0.003216 0.002841 0
0.002076 0.001629 0
0.001190 0.000818 0
0.000657 0.000397 0
0.000360 0.000203 0
0.000187 0.000118 0
0.000084 0.000073 0
0.000027 0.000039 0
-0.000000 0.000011 0
-5.000000 0.000000 0
0.000244 -0.000438 0
0.000245 -0.000368 0
0.000411 -0.000244 0
0.000525 -0.000151 0
0.000600 -0.000090 0
0.000648 -0.000053 0
0.000678 -0.000032 0
0.000699 -0.000021 0
0.000716 -0.000016 0
0.000731 -0.000019 0
0.000752 -0.000036 0
0.000790 -0.000083 0
0.000864 -0.000178 0
0.001000 -0.000323 0
0.001212 -0.000473 0
0.001465 -0.000483 0
0.001625 -0.000088 0
0.001454 0.001066 0
0.000775 0.003219 0
-0.000055 0.005771 0
-0.000457 0.006886 0
-0.000190 0.004661 0
0.000448 -0.000845 0
0.000895 -0.006559 0
0.000859 -0.007755 0
0.000000 0.000003 0
0.000423 0.003312 0
0.000315 0.000000 0
0.000163 0.000000 0
0.000058 0.000000 0
0.000007 0.000000 0
-0.000007 0.000000 0
-0.000004 0.000000 0
0.000003 0.000000 0
0.000008 0.000000 0
0.000011 0.000000 0
0.000012 0.000000 0
0.000013 0.000000 0
0.000013 0.000000 0
0.000013 0.000000 0
0.000013 0.000000 0
0.000013 0.000000 0
0.000013 0.000000 0
0.000013 0.000000 0
0.000013 0.000000 0
0.000013 0.000000 0
0.000013 0.000000 0
0.000013 0.000000 0
0.000014 0.000000 0
0.000014 0.000000 0
0.000014 0.000000 0
0.000014 0.000000 0
0.000014 0.000000 0
0.000014 0.000000 0
0.000014 0.000000 0
0.000014 0.000000 0
0.000015 0.000000 0