# vtk DataFile Version 2.0
generated by CFD-lab course output (written by Tobias Neckel) 
ASCII

DATASET STRUCTURED_GRID
DIMENSIONS  82 36 1 
POINTS 2952 float

-2.500000 0.100000 0
-2.402439 0.100000 0
-2.304878 0.100000 0
-2.207317 0.100000 0
-2.109756 0.100000 0
-2.012195 0.100000 0
-1.914634 0.100000 0
-1.817073 0.100000 0
-1.719512 0.100000 0
-1.621951 0.100000 0
-1.524390 0.100000 0
-1.426829 0.100000 0
-1.329268 0.100000 0
-1.231707 0.100000 0
-1.134146 0.100000 0
-1.036585 0.100000 0
-0.939024 0.100000 0
-0.841463 0.100000 0
-0.743902 0.100000 0
-0.646341 0.100000 0
-0.548780 0.100000 0
-0.451220 0.100000 0
-0.353659 0.100000 0
-0.256098 0.100000 0
-0.158537 0.100000 0
-0.060976 0.100000 0
0.036585 0.100000 0
0.134146 0.100000 0
0.231707 0.100000 0
0.329268 0.100000 0
0.426829 0.100000 0
0.524390 0.100000 0
0.621951 0.100000 0
0.719512 0.100000 0
0.817073 0.100000 0
0.914634 0.100000 0
1.012195 0.100000 0
1.109756 0.100000 0
1.207317 0.100000 0
1.304878 0.100000 0
1.402439 0.100000 0
1.500000 0.100000 0
1.597561 0.100000 0
1.695122 0.100000 0
1.792683 0.100000 0
1.890244 0.100000 0
1.987805 0.100000 0
2.085366 0.100000 0
2.182927 0.100000 0
2.280488 0.100000 0
2.378049 0.100000 0
2.475610 0.100000 0
2.573171 0.100000 0
2.670732 0.100000 0
2.768293 0.100000 0
2.865854 0.100000 0
2.963415 0.100000 0
3.060976 0.100000 0
3.158537 0.100000 0
3.256098 0.100000 0
3.353659 0.100000 0
3.451220 0.100000 0
3.548780 0.100000 0
3.646341 0.100000 0
3.743902 0.100000 0
3.841463 0.100000 0
3.939024 0.100000 0
4.036585 0.100000 0
4.134146 0.100000 0
4.231707 0.100000 0
4.329268 0.100000 0
4.426829 0.100000 0
4.524390 0.100000 0
4.621951 0.100000 0
4.719512 0.100000 0
4.817073 0.100000 0
4.914634 0.100000 0
5.012195 0.100000 0
5.109756 0.100000 0
5.207317 0.100000 0
5.304878 0.100000 0
5.402439 0.100000 0
-2.500000 0.147222 0
-2.402439 0.147222 0
-2.304878 0.147222 0
-2.207317 0.147222 0
-2.109756 0.147222 0
-2.012195 0.147222 0
-1.914634 0.147222 0
-1.817073 0.147222 0
-1.719512 0.147222 0
-1.621951 0.147222 0
-1.524390 0.147222 0
-1.426829 0.147222 0
-1.329268 0.147222 0
-1.231707 0.147222 0
-1.134146 0.147222 0
-1.036585 0.147222 0
-0.939024 0.147222 0
-0.841463 0.147222 0
-0.743902 0.147222 0
-0.646341 0.147222 0
-0.548780 0.147222 0
-0.451220 0.147222 0
-0.353659 0.147222 0
-0.256098 0.147222 0
-0.158537 0.147222 0
-0.060976 0.147222 0
0.036585 0.147222 0
0.134146 0.147222 0
0.231707 0.147222 0
0.329268 0.147222 0
0.426829 0.147222 0
0.524390 0.147222 0
0.621951 0.147222 0
0.719512 0.147222 0
0.817073 0.147222 0
0.914634 0.147222 0
1.012195 0.147222 0
1.109756 0.147222 0
1.207317 0.147222 0
1.304878 0.147222 0
1.402439 0.147222 0
1.500000 0.147222 0
1.597561 0.147222 0
1.695122 0.147222 0
1.792683 0.147222 0
1.890244 0.147222 0
1.987805 0.147222 0
2.085366 0.147222 0
2.182927 0.147222 0
2.280488 0.147222 0
2.378049 0.147222 0
2.475610 0.147222 0
2.573171 0.147222 0
2.670732 0.147222 0
2.768293 0.147222 0
2.865854 0.147222 0
2.963415 0.147222 0
3.060976 0.147222 0
3.158537 0.147222 0
3.256098 0.147222 0
3.353659 0.147222 0
3.451220 0.147222 0
3.548780 0.147222 0
3.646341 0.147222 0
3.743902 0.147222 0
3.841463 0.147222 0
3.939024 0.147222 0
4.036585 0.147222 0
4.134146 0.147222 0
4.231707 0.147222 0
4.329268 0.147222 0
4.426829 0.147222 0
4.524390 0.147222 0
4.621951 0.147222 0
4.719512 0.147222 0
4.817073 0.147222 0
4.914634 0.147222 0
5.012195 0.147222 0
5.109756 0.147222 0
5.207317 0.147222 0
5.304878 0.147222 0
5.402439 0.147222 0
-2.500000 0.194444 0
-2.402439 0.194444 0
-2.304878 0.194444 0
-2.207317 0.194444 0
-2.109756 0.194444 0
-2.012195 0.194444 0
-1.914634 0.194444 0
-1.817073 0.194444 0
-1.719512 0.194444 0
-1.621951 0.194444 0
-1.524390 0.194444 0
-1.426829 0.194444 0
-1.329268 0.194444 0
-1.231707 0.194444 0
-1.134146 0.194444 0
-1.036585 0.194444 0
-0.939024 0.194444 0
-0.841463 0.194444 0
-0.743902 0.194444 0
-0.646341 0.194444 0
-0.548780 0.194444 0
-0.451220 0.194444 0
-0.353659 0.194444 0
-0.256098 0.194444 0
-0.158537 0.194444 0
-0.060976 0.194444 0
0.036585 0.194444 0
0.134146 0.194444 0
0.231707 0.194444 0
0.329268 0.194444 0
0.426829 0.194444 0
0.524390 0.194444 0
0.621951 0.194444 0
0.719512 0.194444 0
0.817073 0.194444 0
0.914634 0.194444 0
1.012195 0.194444 0
1.109756 0.194444 0
1.207317 0.194444 0
1.304878 0.194444 0
1.402439 0.194444 0
1.500000 0.194444 0
1.597561 0.194444 0
1.695122 0.194444 0
1.792683 0.194444 0
1.890244 0.194444 0
1.987805 0.194444 0
2.085366 0.194444 0
2.182927 0.194444 0
2.280488 0.194444 0
2.378049 0.194444 0
2.475610 0.194444 0
2.573171 0.194444 0
2.670732 0.194444 0
2.768293 0.194444 0
2.865854 0.194444 0
2.963415 0.194444 0
3.060976 0.194444 0
3.158537 0.194444 0
3.256098 0.194444 0
3.353659 0.194444 0
3.451220 0.194444 0
3.548780 0.194444 0
3.646341 0.194444 0
3.743902 0.194444 0
3.841463 0.194444 0
3.939024 0.194444 0
4.036585 0.194444 0
4.134146 0.194444 0
4.231707 0.194444 0
4.329268 0.194444 0
4.426829 0.194444 0
4.524390 0.194444 0
4.621951 0.194444 0
4.719512 0.194444 0
4.817073 0.194444 0
4.914634 0.194444 0
5.012195 0.194444 0
5.109756 0.194444 0
5.207317 0.194444 0
5.304878 0.194444 0
5.402439 0.194444 0
-2.500000 0.241667 0
-2.402439 0.241667 0
-2.304878 0.241667 0
-2.207317 0.241667 0
-2.109756 0.241667 0
-2.012195 0.241667 0
-1.914634 0.241667 0
-1.817073 0.241667 0
-1.719512 0.241667 0
-1.621951 0.241667 0
-1.524390 0.241667 0
-1.426829 0.241667 0
-1.329268 0.241667 0
-1.231707 0.241667 0
-1.134146 0.241667 0
-1.036585 0.241667 0
-0.939024 0.241667 0
-0.841463 0.241667 0
-0.743902 0.241667 0
-0.646341 0.241667 0
-0.548780 0.241667 0
-0.451220 0.241667 0
-0.353659 0.241667 0
-0.256098 0.241667 0
-0.158537 0.241667 0
-0.060976 0.241667 0
0.036585 0.241667 0
0.134146 0.241667 0
0.231707 0.241667 0
0.329268 0.241667 0
0.426829 0.241667 0
0.524390 0.241667 0
0.621951 0.241667 0
0.719512 0.241667 0
0.817073 0.241667 0
0.914634 0.241667 0
1.012195 0.241667 0
1.109756 0.241667 0
1.207317 0.241667 0
1.304878 0.241667 0
1.402439 0.241667 0
1.500000 0.241667 0
1.597561 0.241667 0
1.695122 0.241667 0
1.792683 0.241667 0
1.890244 0.241667 0
1.987805 0.241667 0
2.085366 0.241667 0
2.182927 0.241667 0
2.280488 0.241667 0
2.378049 0.241667 0
2.475610 0.241667 0
2.573171 0.241667 0
2.670732 0.241667 0
2.768293 0.241667 0
2.865854 0.241667 0
2.963415 0.241667 0
3.060976 0.241667 0
3.158537 0.241667 0
3.256098 0.241667 0
3.353659 0.241667 0
3.451220 0.241667 0
3.548780 0.241667 0
3.646341 0.241667 0
3.743902 0.241667 0
3.841463 0.241667 0
3.939024 0.241667 0
4.036585 0.241667 0
4.134146 0.241667 0
4.231707 0.241667 0
4.329268 0.241667 0
4.426829 0.241667 0
4.524390 0.241667 0
4.621951 0.241667 0
4.719512 0.241667 0
4.817073 0.241667 0
4.914634 0.241667 0
5.012195 0.241667 0
5.109756 0.241667 0
5.207317 0.241667 0
5.304878 0.241667 0
5.402439 0.241667 0
-2.500000 0.288889 0
-2.402439 0.288889 0
-2.304878 0.288889 0
-2.207317 0.288889 0
-2.109756 0.288889 0
-2.012195 0.288889 0
-1.914634 0.288889 0
-1.817073 0.288889 0
-1.719512 0.288889 0
-1.621951 0.288889 0
-1.524390 0.288889 0
-1.426829 0.288889 0
-1.329268 0.288889 0
-1.231707 0.288889 0
-1.134146 0.288889 0
-1.036585 0.288889 0
-0.939024 0.288889 0
-0.841463 0.288889 0
-0.743902 0.288889 0
-0.646341 0.288889 0
-0.548780 0.288889 0
-0.451220 0.288889 0
-0.353659 0.288889 0
-0.256098 0.288889 0
-0.158537 0.288889 0
-0.060976 0.288889 0
0.036585 0.288889 0
0.134146 0.288889 0
0.231707 0.288889 0
0.329268 0.288889 0
0.426829 0.288889 0
0.524390 0.288889 0
0.621951 0.288889 0
0.719512 0.288889 0
0.817073 0.288889 0
0.914634 0.288889 0
1.012195 0.288889 0
1.109756 0.288889 0
1.207317 0.288889 0
1.304878 0.288889 0
1.402439 0.288889 0
1.500000 0.288889 0
1.597561 0.288889 0
1.695122 0.288889 0
1.792683 0.288889 0
1.890244 0.288889 0
1.987805 0.288889 0
2.085366 0.288889 0
2.182927 0.288889 0
2.280488 0.288889 0
2.378049 0.288889 0
2.475610 0.288889 0
2.573171 0.288889 0
2.670732 0.288889 0
2.768293 0.288889 0
2.865854 0.288889 0
2.963415 0.288889 0
3.060976 0.288889 0
3.158537 0.288889 0
3.256098 0.288889 0
3.353659 0.288889 0
3.451220 0.288889 0
3.548780 0.288889 0
3.646341 0.288889 0
3.743902 0.288889 0
3.841463 0.288889 0
3.939024 0.288889 0
4.036585 0.288889 0
4.134146 0.288889 0
4.231707 0.288889 0
4.329268 0.288889 0
4.426829 0.288889 0
4.524390 0.288889 0
4.621951 0.288889 0
4.719512 0.288889 0
4.817073 0.288889 0
4.914634 0.288889 0
5.012195 0.288889 0
5.109756 0.288889 0
5.207317 0.288889 0
5.304878 0.288889 0
5.402439 0.288889 0
-2.500000 0.336111 0
-2.402439 0.336111 0
-2.304878 0.336111 0
-2.207317 0.336111 0
-2.109756 0.336111 0
-2.012195 0.336111 0
-1.914634 0.336111 0
-1.817073 0.336111 0
-1.719512 0.336111 0
-1.621951 0.336111 0
-1.524390 0.336111 0
-1.426829 0.336111 0
-1.329268 0.336111 0
-1.231707 0.336111 0
-1.134146 0.336111 0
-1.036585 0.336111 0
-0.939024 0.336111 0
-0.841463 0.336111 0
-0.743902 0.336111 0
-0.646341 0.336111 0
-0.548780 0.336111 0
-0.451220 0.336111 0
-0.353659 0.336111 0
-0.256098 0.336111 0
-0.158537 0.336111 0
-0.060976 0.336111 0
0.036585 0.336111 0
0.134146 0.336111 0
0.231707 0.336111 0
0.329268 0.336111 0
0.426829 0.336111 0
0.524390 0.336111 0
0.621951 0.336111 0
0.719512 0.336111 0
0.817073 0.336111 0
0.914634 0.336111 0
1.012195 0.336111 0
1.109756 0.336111 0
1.207317 0.336111 0
1.304878 0.336111 0
1.402439 0.336111 0
1.500000 0.336111 0
1.597561 0.336111 0
1.695122 0.336111 0
1.792683 0.336111 0
1.890244 0.336111 0
1.987805 0.336111 0
2.085366 0.336111 0
2.182927 0.336111 0
2.280488 0.336111 0
2.378049 0.336111 0
2.475610 0.336111 0
2.573171 0.336111 0
2.670732 0.336111 0
2.768293 0.336111 0
2.865854 0.336111 0
2.963415 0.336111 0
3.060976 0.336111 0
3.158537 0.336111 0
3.256098 0.336111 0
3.353659 0.336111 0
3.451220 0.336111 0
3.548780 0.336111 0
3.646341 0.336111 0
3.743902 0.336111 0
3.841463 0.336111 0
3.939024 0.336111 0
4.036585 0.336111 0
4.134146 0.336111 0
4.231707 0.336111 0
4.329268 0.336111 0
4.426829 0.336111 0
4.524390 0.336111 0
4.621951 0.336111 0
[...]
POINT_DATA 2952 

VECTORS velocity float
0.000000 0.000000 0
0.000000 0.000000 0
0.000000 0.000000 0
0.000000 0.000000 0
0.000000 0.000000 0
0.000000 0.000000 0
0.000000 0.000000 0
0.000000 0.000000 0
0.000000 0.000000 0
0.000000 0.000000 0
0.000000 0.000000 0
0.000000 0.000000 0
0.000000 0.000000 0
0.000000 0.000000 0
0.000000 0.000000 0
0.000000 0.000000 0
0.000000 0.000000 0
0.000000 0.000000 0
0.000000 0.000000 0
0.000000 0.000000 0
0.000000 0.000000 0
0.000000 0.000000 0
0.000000 0.000000 0
0.000000 0.000000 0
0.000000 0.000000 0
-0.000001 0.000000 0
-0.000001 0.000000 0
-0.000002 0.000000 0
-0.000001 0.000000 0
-0.000001 0.000000 0
-0.000001 0.000000 0
-0.000001 0.000000 0
-0.000001 0.000000 0
-0.000001 0.000000 0
-0.000001 0.000000 0
-0.000001 0.000000 0
-0.000001 0.000000 0
-0.000001 0.000000 0
-0.000001 0.000000 0
-0.000001 0.000000 0
-0.000001 0.000000 0
-0.000001 0.000000 0
-0.000000 0.000000 0
-0.000000 0.000000 0
-0.000000 0.000000 0
-0.000000 0.000000 0
-0.000000 0.000000 0
-0.000000 0.000000 0
-0.000000 0.000000 0
0.000000 0.000000 0
0.000000 0.000000 0
0.000000 0.000000 0
0.000000 0.000000 0
0.000000 0.000000 0
0.000000 0.000000 0
0.000001 0.000000 0
0.000001 0.000000 0
0.000001 0.000000 0
0.000001 0.000000 0
0.000001 0.000000 0
0.000001 0.000000 0
0.000001 0.000000 0
0.000001 0.000000 0
0.000001 0.000000 0
0.000001 0.000000 0
0.000000 0.000000 0
0.000003 0.000000 0
0.000004 0.000000 0
0.000000 0.000000 0
0.000000 0.000000 0
0.000000 0.000000 0
0.000000 0.000000 0
0.000000 0.000000 0
0.000000 0.000000 0
0.000000 0.000000 0
0.000000 0.000000 0
0.000000 0.000000 0
0.000000 0.000000 0
0.000000 0.000000 0
0.000000 0.000000 0
0.000000 0.000000 0
0.000000 0.000000 0
0.000000 0.000000 0
0.000000 0.000000 0
0.000000 0.000000 0
0.000000 0.000000 0
0.000000 0.000000 0
0.000000 0.000000 0
0.000000 0.000000 0
0.000000 0.000000 0
0.000000 0.000000 0
0.000000 0.000000 0
0.000000 0.000000 0
0.000000 0.000000 0
0.000000 0.000000 0
0.000000 0.000000 0
0.000000 0.000000 0
0.000000 0.000000 0
0.000000 0.000000 0
0.000000 0.000000 0
0.000000 0.000000 0
0.000000 0.000000 0
0.000000 0.000000 0
0.000000 0.000000 0
0.000000 0.000000 0
0.000000 0.000000 0
0.000276 -0.000208 0
0.001378 -0.000266 0
0.001768 0.000005 0
0.001397 0.000161 0
0.000770 0.000171 0
0.000274 0.000109 0
0.000020 0.000044 0
-0.000056 0.000006 0
-0.000048 -0.000008 0
-0.000019 -0.000009 0
0.000006 -0.000006 0
0.000020 -0.000003 0
0.000027 -0.000001 0
0.000029 -0.000000 0
0.000030 -0.000000 0
0.000031 -0.000000 0
0.000031 -0.000000 0
0.000032 -0.000000 0
0.000032 -0.000000 0
0.000032 -0.000000 0
0.000033 -0.000000 0
0.000033 -0.000000 0
0.000033 0.000000 0
0.000033 0.000000 0
0.000033 0.000000 0
0.000033 0.000000 0
0.000033 0.000000 0
0.000033 0.000000 0
0.000033 0.000000 0
0.000033 -0.000000 0
0.000034 -0.000000 0
0.000036 -0.000001 0
0.000039 -0.000001 0
0.000041 -0.000001 0
0.000039 0.000003 0
0.000018 0.000010 0
-0.000040 0.000025 0
-0.000154 0.000042 0
-0.000316 0.000050 0
-0.000459 0.000028 0
-0.000451 -0.000027 0
-0.000199 -0.000074 0
0.000126 -0.000042 0
0.000003 0.000000 0
0.000004 0.000000 0
0.000000 0.000000 0
0.000000 0.000000 0
0.000000 0.000000 0
0.000000 0.000000 0
0.000000 0.000000 0
0.000000 0.000000 0
0.000000 0.000000 0
0.000000 0.000000 0
0.000000 0.000000 0
0.000000 0.000000 0
0.000000 0.000000 0
0.000000 0.000000 0
0.000000 0.000000 0
0.000000 0.000000 0
0.000000 0.000000 0
0.000000 0.000000 0
0.000000 0.000000 0
0.000000 0.000000 0
0.000000 0.000000 0
0.000000 0.000000 0
0.000000 0.000000 0
0.000000 0.000000 0
0.000000 0.000000 0
0.000000 0.000000 0
0.000000 0.000000 0
0.000000 0.000000 0
0.000000 0.000000 0
0.000000 0.000000 0
0.000000 0.000000 0
0.000000 0.000000 0
0.000000 0.000000 0
0.000000 0.000000 0
0.000000 0.000000 0
0.000000 0.000000 0
0.000000 0.000000 0
0.000000 0.000000 0
-0.000832 -0.000137 0
0.000219 -0.000670 0
0.001910 -0.000721 0
0.002584 -0.000009 0
0.002109 0.000483 0
0.001211 0.000543 0
0.000470 0.000363 0
0.000068 0.000160 0
-0.000069 0.000033 0
-0.000073 -0.000018 0
-0.000036 -0.000026 0
-0.000003 -0.000019 0
0.000019 -0.000010 0
0.000029 -0.000005 0
0.000034 -0.000002 0
0.000036 -0.000001 0
0.000037 -0.000000 0
0.000037 -0.000000 0
0.000038 -0.000000 0
0.000039 -0.000000 0
0.000039 -0.000000 0
0.000040 -0.000000 0
0.000040 -0.000000 0
0.000040 -0.000000 0
0.000041 -0.000000 0
0.000041 0.000000 0
0.000041 0.000000 0
0.000041 0.000000 0
0.000040 0.000000 0
0.000040 0.000000 0
0.000041 -0.000000 0
0.000042 -0.000001 0
0.000044 -0.000002 0
0.000047 -0.000003 0
0.000049 0.000000 0
0.000042 0.000011 0
0.000006 0.000038 0
-0.000085 0.000083 0
-0.000255 0.000134 0
-0.000487 0.000148 0
-0.000673 0.000066 0
-0.000607 -0.000126 0
-0.000109 -0.000279 0
0.000624 -0.000098 0
0.000704 0.000059 0
0.000003 0.000000 0
0.000000 0.000000 0
0.000000 0.000000 0
0.000000 0.000000 0
0.000000 0.000000 0
0.000000 0.000000 0
0.000000 0.000000 0
0.000000 0.000000 0
0.000000 0.000000 0
0.000000 0.000000 0
0.000000 0.000000 0
0.000000 0.000000 0
0.000000 0.000000 0
0.000000 0.000000 0
0.000000 0.000000 0
0.000000 0.000000 0
0.000000 0.000000 0
0.000000 0.000000 0
0.000000 0.000000 0
0.000000 0.000000 0
0.000000 0.000000 0
0.000000 0.000000 0
0.000000 0.000000 0
0.000000 0.000000 0
0.000000 0.000000 0
0.000000 0.000000 0
0.000000 0.000000 0
0.000000 0.000000 0
0.000000 0.000000 0
0.000000 0.000000 0
0.000000 0.000000 0
0.000000 0.000000 0
0.000000 0.000000 0
0.000000 0.000000 0
0.000000 0.000000 0
0.000000 0.000000 0
-0.002057 0.000402 0
-0.002959 -0.000111 0
-0.000860 -0.001539 0
0.001506 -0.001411 0
0.002406 -0.000091 0
0.002022 0.000826 0
0.001181 0.000964 0
0.000469 0.000662 0
0.000070 0.000305 0
-0.000076 0.000074 0
-0.000090 -0.000024 0
-0.000061 -0.000043 0
-0.000030 -0.000032 0
-0.000011 -0.000018 0
-0.000000 -0.000009 0
0.000005 -0.000004 0
0.000007 -0.000001 0
0.000008 -0.000001 0
0.000009 -0.000001 0
0.000009 -0.000001 0
0.000010 -0.000001 0
0.000010 -0.000001 0
0.000011 -0.000000 0
0.000011 -0.000000 0
0.000012 -0.000000 0
0.000012 -0.000000 0
0.000012 0.000000 0
0.000012 0.000000 0
0.000012 0.000000 0
0.000011 0.000000 0
0.000011 0.000000 0
0.000012 -0.000001 0
0.000013 -0.000002 0
0.000015 -0.000004 0
0.000017 -0.000004 0
0.000018 0.000002 0
0.000009 0.000023 0
-0.000028 0.000072 0
-0.000118 0.000152 0
-0.000281 0.000237 0
-0.000499 0.000252 0
-0.000661 0.000086 0
-0.000535 -0.000301 0
0.000165 -0.000669 0
0.001436 -0.000439 0
0.002294 0.000300 0
0.001393 0.000341 0
0.000002 0.000000 0
-0.000003 0.000000 0
0.000000 0.000000 0
0.000000 0.000000 0
0.000000 0.000000 0
0.000000 0.000000 0
0.000000 0.000000 0
0.000000 0.000000 0
0.000000 0.000000 0
0.000000 0.000000 0
0.000000 0.000000 0
0.000000 0.000000 0
0.000000 0.000000 0
0.000000 0.000000 0
0.000000 0.000000 0
0.000000 0.000000 0
0.000000 0.000000 0
0.000000 0.000000 0
0.000000 0.000000 0
0.000000 0.000000 0
0.000000 0.000000 0
0.000000 0.000000 0
0.000000 0.000000 0
0.000000 0.000000 0
0.000000 0.000000 0
0.000000 0.000000 0
0.000000 0.000000 0
0.000000 0.000000 0
0.000000 0.000000 0
0.000000 0.000000 0
0.000000 0.000000 0
0.000000 0.000000 0
0.000000 0.000000 0
0.000000 0.000000 0
-0.002561 0.001000 0
-0.006007 0.001436 0
-0.005542 -0.000718 0
-0.002461 -0.002831 0
0.000429 -0.002302 0
0.001412 -0.000259 0
0.001232 0.001076 0
0.000705 0.001295 0
0.000256 0.000901 0
0.000003 0.000424 0
-0.000092 0.000110 0
-0.000105 -0.000025 0
-0.000089 -0.000055 0
-0.000072 -0.000043 0
-0.000060 -0.000025 0
-0.000053 -0.000012 0
-0.000050 -0.000005 0
-0.000049 -0.000002 0
-0.000048 -0.000001 0
-0.000048 -0.000001 0
-0.000047 -0.000001 0
-0.000047 -0.000001 0
-0.000047 -0.000001 0
-0.000046 -0.000001 0
-0.000046 -0.000001 0
-0.000046 -0.000000 0
-0.000046 -0.000000 0
-0.000046 0.000000 0
-0.000046 0.000000 0
-0.000046 0.000000 0
-0.000046 0.000000 0
-0.000046 -0.000000 0
-0.000046 -0.000001 0
-0.000045 -0.000003 0
-0.000044 -0.000004 0
-0.000043 -0.000004 0
-0.000042 0.000004 0
-0.000049 0.000034 0
-0.000072 0.000099 0
-0.000128 0.000206 0
-0.000231 0.000318 0
-0.000369 0.000332 0
-0.000468 0.000083 0
-0.000328 -0.000525 0
0.000442 -0.001233 0
0.002210 -0.001128 0
0.003944 0.000079 0
0.004108 0.001112 0
0.001875 0.000677 0
-0.000000 0.000000 0
-0.000005 0.000000 0
0.000000 0.000000 0
0.000000 0.000000 0
0.000000 0.000000 0
0.000000 0.000000 0
0.000000 0.000000 0
0.000000 0.000000 0
0.000000 0.000000 0
0.000000 0.000000 0
0.000000 0.000000 0
0.000000 0.000000 0
0.000000 0.000000 0
0.000000 0.000000 0
0.000000 0.000000 0
0.000000 0.000000 0
0.000000 0.000000 0
0.000000 0.000000 0
0.000000 0.000000 0
0.000000 0.000000 0
0.000000 0.000000 0
0.000000 0.000000 0
0.000000 0.000000 0
0.000000 0.000000 0
0.000000 0.000000 0
0.000000 0.000000 0
0.000000 0.000000 0
0.000000 0.000000 0
0.000000 0.000000 0
0.000000 0.000000 0
0.000000 0.000000 0
0.000000 0.000000 0
-0.002095 0.001247 0
-0.006913 0.002920 0
-0.009210 0.001849 0
-0.007723 -0.001827 0
-0.003957 -0.004429 0
-0.000842 -0.003285 0
-0.000027 -0.000480 0
0.000015 0.001168 0
-0.000049 0.001437 0
-0.000089 0.001001 0
-0.000105 0.000473 0
-0.000110 0.000126 0
-0.000111 -0.000025 0
-0.000111 -0.000059 0
-0.000111 -0.000047 0
-0.000111 -0.000027 0
-0.000111 -0.000013 0
-0.000111 -0.000006 0
-0.000111 -0.000002 0
-0.000111 -0.000001 0
-0.000111 -0.000001 0
-0.000111 -0.000001 0
-0.000111 -0.000001 0
-0.000111 -0.000001 0
-0.000111 -0.000001 0
-0.000111 -0.000001 0
-0.000111 -0.000000 0
-0.000111 -0.000000 0
-0.000111 0.000000 0
-0.000111 0.000000 0
-0.000111 0.000000 0
-0.000111 0.000000 0
-0.000111 -0.000000 0
-0.000110 -0.000001 0
-0.000110 -0.000003 0
-0.000110 -0.000005 0
-0.000110 -0.000004 0
-0.000110 0.000005 0
-0.000110 0.000038 0
-0.000111 0.000110 0
-0.000113 0.000228 0
-0.000121 0.000354 0
-0.000141 0.000367 0
-0.000161 0.000066 0
-0.000077 -0.000741 0
0.000559 -0.001898 0
0.002644 -0.002133 0
0.005148 -0.000619 0
0.006369 0.001345 0
0.005254 0.001994 0
0.001979 0.000911 0
-0.000002 0.000000 0
-0.000006 0.000000 0
0.000000 0.000000 0
0.000000 0.000000 0
0.000000 0.000000 0
0.000000 0.000000 0
0.000000 0.000000 0
0.000000 0.000000 0
0.000000 0.000000 0
0.000000 0.000000 0
0.000000 0.000000 0
-0.000056 0.000000 0
-0.000056 0.000000 0
-0.000107 0.000000 0
-0.000133 0.000000 0
-0.000146 0.000000 0
-0.000153 0.000000 0
-0.000156 0.000000 0
-0.000158 0.000000 0
-0.000159 0.000000 0
-0.000160 0.000000 0
-0.000160 0.000000 0
-0.000163 0.000000 0
-0.000173 0.000000 0
-0.000202 0.000000 0
-0.000264 0.000000 0
-0.000367 0.000000 0
-0.000489 0.000000 0
-0.000538 0.000000 0
0.000000 0.000000 0
-0.001032 0.001019 0
-0.005308 0.003359 0
-0.009540 0.004452 0
-0.010997 0.001828 0
-0.008858 -0.003260 0
-0.004789 -0.006161 0
-0.001782 -0.004204 0
-0.001454 -0.000674 0
-0.001238 0.001087 0
-0.000817 0.001346 0
-0.000429 0.000928 0
-0.000199 0.000434 0
-0.000111 0.000113 0
-0.000100 -0.000025 0
-0.000116 -0.000054 0
-0.000133 -0.000043 0
-0.000145 -0.000025 0
-0.000151 -0.000012 0
-0.000154 -0.000005 0
-0.000155 -0.000002 0
-0.000156 -0.000001 0
-0.000156 -0.000001 0
-0.000157 -0.000001 0
-0.000157 -0.000001 0
-0.000157 -0.000001 0
-0.000158 -0.000001 0
-0.000158 -0.000000 0
-0.000158 -0.000000 0
-0.000158 -0.000000 0
-0.000158 0.000000 0
-0.000158 0.000000 0
-0.000158 0.000000 0
-0.000158 0.000000 0
-0.000158 -0.000000 0
-0.000158 -0.000001 0
-0.000158 -0.000003 0
-0.000159 -0.000004 0
-0.000161 -0.000004 0
-0.000161 0.000004 0
-0.000154 0.000034 0
-0.000131 0.000101 0
-0.000079 0.000211 0
0.000012 0.000332 0
0.000120 0.000351 0
0.000181 0.000052 0
0.000154 -0.000874 0
0.000418 -0.002550 0
0.002569 -0.003349 0
0.005582 -0.001724 0
0.007686 0.001061 0
0.007655 0.002807 0
0.005363 0.002551 0
0.001746 0.000961 0
-0.000002 0.000000 0
-0.000475 0.000000 0
-0.000185 0.000000 0
-0.000092 0.000000 0
-0.000056 0.000000 0
-0.000035 0.000000 0
-0.000017 0.000000 0
-0.000004 0.000000 0
0.000000 0.000000 0
0.000000 0.000000 0
0.000000 0.000000 0
0.000001 0.000000 0
0.000001 0.000000 0
0.000001 0.000000 0
0.000001 0.000000 0
0.000001 0.000000 0
0.000001 0.000000 0
0.000001 0.000000 0
0.000001 0.000000 0
0.000001 0.000000 0
0.000001 0.000000 0
0.000001 0.000000 0
0.000001 0.000000 0
0.000001 0.000000 0
0.000001 0.000000 0
0.000001 0.000000 0
0.000002 0.000000 0
0.000003 0.000000 0
0.000189 0.000501 0
-0.002341 0.002576 0
-0.006637 0.005371 0
-0.010256 0.005673 0
-0.011062 0.001519 0
-0.008621 -0.004832 0
-0.004632 -0.007854 0
-0.002005 -0.004900 0
-0.002446 -0.000743 0
-0.002127 0.000860 0
-0.001326 0.001045 0
-0.000626 0.000702 0
-0.000229 0.000319 0
-0.000083 0.000078 0
-0.000069 -0.000023 0
-0.000098 -0.000043 0
-0.000129 -0.000032 0
-0.000148 -0.000018 0
-0.000159 -0.000009 0
-0.000163 -0.000004 0
-0.000166 -0.000001 0
-0.000167 -0.000001 0
-0.000167 -0.000001 0
-0.000168 -0.000001 0
-0.000168 -0.000001 0
-0.000169 -0.000001 0
-0.000169 -0.000000 0
-0.000169 -0.000000 0
-0.000170 -0.000000 0
-0.000170 -0.000000 0
-0.000170 0.000000 0
-0.000170 0.000000 0
-0.000170 0.000000 0
-0.000169 0.000000 0
-0.000169 -0.000000 0
-0.000169 -0.000001 0
-0.000170 -0.000002 0
-0.000172 -0.000004 0
-0.000175 -0.000004 0
-0.000176 0.000002 0
-0.000166 0.000024 0
-0.000129 0.000074 0
-0.000040 0.000159 0
0.000122 0.000258 0
0.000333 0.000285 0
0.000473 0.000050 0
0.000332 -0.000856 0
0.000026 -0.003066 0
0.001986 -0.004633 0
0.005150 -0.003096 0
0.007823 0.000342 0
0.008722 0.003119 0
0.007463 0.003777 0
0.004632 0.002602 0
0.001471 0.000846 0
-0.000003 0.000000 0
-0.000001 0.000000 0
-0.000001 0.000000 0
-0.000000 0.000000 0
-0.000000 0.000000 0
-0.000000 0.000000 0
-0.000000 0.000000 0
0.000000 0.000000 0
-2.500000 0.000000 0
0.000208 -0.000065 0
0.000210 -0.000056 0
0.000373 -0.000037 0
0.000467 -0.000019 0
0.000519 -0.000010 0
0.000547 -0.000005 0
0.000562 -0.000003 0
0.000571 -0.000001 0
0.000576 -0.000001 0
0.000580 -0.000001 0
0.000586 -0.000002 0
0.000600 -0.000006 0
0.000643 -0.000019 0
0.000749 -0.000044 0
0.000960 -0.000080 0
0.001289 -0.000109 0
0.001643 -0.000083 0
0.001702 0.000140 0
0.000661 0.001390 0
-0.002399 0.004325 0
-0.006336 0.007190 0
-0.009196 0.006594 0
-0.009458 0.001036 0
-0.007038 -0.006372 0
-0.003495 -0.009363 0
-0.001420 -0.005262 0
-0.002704 -0.000615 0
-0.002322 0.000545 0
-0.001374 0.000619 0
-0.000595 0.000397 0
-0.000176 0.000172 0
-0.000034 0.000036 0
-0.000029 -0.000018 0
-0.000065 -0.000026 0
-0.000099 -0.000019 0
-0.000120 -0.000010 0
-0.000130 -0.000005 0
-0.000135 -0.000002 0
-0.000137 -0.000001 0
-0.000138 -0.000000 0
-0.000138 -0.000000 0
-0.000139 -0.000000 0
-0.000139 -0.000000 0
-0.000140 -0.000000 0
-0.000140 -0.000000 0
-0.000141 -0.000000 0
-0.000141 -0.000000 0
-0.000141 -0.000000 0
-0.000141 0.000000 0
-0.000141 0.000000 0
-0.000141 0.000000 0
-0.000140 0.000000 0
-0.000140 -0.000000 0
-0.000140 -0.000000 0
-0.000141 -0.000001 0
-0.000144 -0.000002 0
-0.000147 -0.000003 0
-0.000149 0.000000 0
-0.000142 0.000011 0
-0.000106 0.000039 0
-0.000012 0.000089 0
0.000167 0.000152 0
0.000417 0.000181 0
0.000615 0.000053 0
0.000441 -0.000657 0
-0.000490 -0.003350 0
0.001059 -0.005830 0
0.003967 -0.004549 0
0.006796 -0.000668 0
0.008361 0.002981 0
0.008080 0.004531 0
0.006202 0.003865 0
0.003682 0.002019 0
0.001606 0.000624 0
0.000742 0.000184 0
0.000389 0.000062 0
0.000232 0.000028 0
0.000139 0.000019 0
0.000068 0.000015 0
0.000020 0.000008 0
-0.000000 0.000002 0
-5.000000 0.000000 0
0.000353 -0.000221 0
0.000355 -0.000189 0
0.000608 -0.000124 0
0.000766 -0.000071 0
0.000860 -0.000039 0
0.000913 -0.000021 0
0.000943 -0.000012 0
0.000961 -0.000007 0
0.000974 -0.000005 0
0.000984 -0.000005 0
0.000998 -0.000010 0
0.001029 -0.000028 0
0.001108 -0.000072 0
0.001287 -0.000153 0
0.001623 -0.000261 0
0.002116 -0.000331 0
0.002594 -0.000200 0
0.002566 0.000469 0
0.001164 0.002480 0
-0.001708 0.005963 0
-0.004839 0.008661 0
-0.006745 0.007185 0
-0.006533 0.000474 0
-0.004447 -0.007718 0
-0.001734 -0.010573 0
-0.000377 -0.005282 0
-0.002020 -0.000306 0
-0.001626 0.000216 0
-0.000894 0.000209 0
-0.000347 0.000123 0
-0.000073 0.000048 0
0.000008 0.000007 0
0.000001 -0.000008 0
-0.000028 -0.000009 0
-0.000053 -0.000006 0
-0.000067 -0.000003 0
-0.000073 -0.000001 0
-0.000076 -0.000000 0
-0.000077 -0.000000 0
-0.000077 -0.000000 0
-0.000078 -0.000000 0
-0.000078 -0.000000 0
-0.000078 -0.000000 0
-0.000078 -0.000000 0
-0.000079 -0.000000 0
-0.000079 -0.000000 0
-0.000079 -0.000000 0
-0.000079 -0.000000 0
-0.000079 0.000000 0
-0.000079 0.000000 0
-0.000079 0.000000 0
-0.000078 0.000000 0
-0.000078 0.000000 0
-0.000078 -0.000000 0
-0.000079 -0.000000 0
-0.000081 -0.000001 0
-0.000084 -0.000001 0
-0.000086 -0.000001 0
-0.000083 0.000003 0
-0.000063 0.000011 0
-0.000002 0.000027 0
0.000122 0.000050 0
0.000311 0.000068 0
0.000497 0.000038 0
0.000420 -0.000321 0
-0.000847 -0.003365 0
0.000060 -0.006791 0
0.002293 -0.005873 0
0.004828 -0.001785 0
0.006714 0.002497 0
0.007250 0.004822 0
0.006345 0.004731 0
0.004542 0.003072 0
0.002554 0.001426 0
0.001344 0.000589 0
0.000738 0.000247 0
0.000435 0.000121 0
0.000253 0.000079 0
0.000124 0.000058 0
0.000040 0.000033 0
-0.000000 0.000010 0
-5.000000 0.000000 0
0.000398 -0.000426 0
0.000400 -0.000359 0
0.000674 -0.000236 0
0.000855 -0.000141 0
0.000967 -0.000080 0
0.001034 -0.000045 0
0.001074 -0.000026 0
0.001099 -0.000016 0
0.001117 -0.000012 0
0.001134 -0.000012 0
0.001154 -0.000023 0
0.001196 -0.000060 0
0.001293 -0.000144 0
0.001495 -0.000293 0
0.001855 -0.000481 0
0.002355 -0.000579 0
0.002797 -0.000301 0
0.002705 0.000832 0
0.001449 0.003459 0
-0.000700 0.007230 0
-0.002646 0.009628 0
-0.003425 0.007413 0
-0.002807 -0.000076 0
-0.001364 -0.008695 0
0.000062 -0.011333 0
0.000091 -0.005114 0
-0.000004 0.000000 0
-0.000002 0.000000 0
-0.000002 0.000000 0
-0.000002 0.000000 0
-0.000002 0.000000 0
-0.000001 0.000000 0
-0.000001 0.000000 0
-0.000001 0.000000 0
-0.000001 0.000000 0
-0.000001 0.000000 0
-0.000001 0.000000 0
-0.000001 0.000000 0
-0.000001 0.000000 0
-0.000001 0.000000 0
-0.000001 0.000000 0
-0.000001 0.000000 0
-0.000000 0.000000 0
-0.000000 0.000000 0
-0.000000 0.000000 0
-0.000000 0.000000 0
-0.000000 0.000000 0
-0.000000 0.000000 0
0.000000 0.000000 0
0.000000 0.000000 0
0.000000 0.000000 0
0.000000 0.000000 0
0.000000 0.000000 0
0.000000 0.000000 0
0.000001 0.000000 0
0.000001 0.000000 0
0.000001 0.000000 0
0.000001 0.000000 0
0.000001 0.000000 0
0.000001 0.000000 0
0.000001 0.000000 0
0.000001 0.000000 0
0.000001 0.000000 0
0.000002 0.000000 0
0.000004 0.000000 0
-0.000469 -0.003169 0
-0.000730 -0.007349 0
0.000431 -0.006857 0
0.002259 -0.002808 0
0.004101 0.001809 0
0.005218 0.004709 0
0.005218 0.005176 0
0.004239 0.003854 0
0.002740 0.002172 0
0.001588 0.001063 0
0.000909 0.000502 0
0.000530 0.000263 0
0.000297 0.000169 0
0.000142 0.000118 0
0.000046 0.000068 0
-0.000000 0.000021 0
-5.000000 0.000000 0
0.000337 -0.000625 0
0.000339 -0.000524 0
0.000570 -0.000344 0
0.000728 -0.000212 0
0.000831 -0.000125 0
0.000896 -0.000073 0
0.000937 -0.000043 0
0.000965 -0.000028 0
0.000986 -0.000021 0
0.001006 -0.000022 0
0.001030 -0.000040 0
0.001073 -0.000095 0
0.001161 -0.000217 0
0.001334 -0.000425 0
0.001624 -0.000677 0
0.002003 -0.000787 0
0.002308 -0.000369 0
0.002203 0.001122 0
0.001386 0.004128 0
0.000295 0.007945 0
-0.000221 0.009980 0
0.000220 0.007263 0
0.001163 -0.000524 0
0.001706 -0.009107 0
0.001422 -0.011280 0
0.000000 0.000005 0
0.000704 0.004907 0
0.000517 0.000000 0
0.000260 0.000000 0
0.000087 0.000000 0
0.000007 0.000000 0
-0.000012 0.000000 0
-0.000006 0.000000 0
0.000004 0.000000 0
0.000012 0.000000 0
0.000017 0.000000 0
0.000019 0.000000 0
0.000019 0.000000 0
0.000020 0.000000 0
0.000020 0.000000 0
0.000020 0.000000 0
0.000020 0.000000 0
0.000020 0.000000 0
0.000020 0.000000 0
0.000020 0.000000 0
0.000020 0.000000 0
0.000021 0.000000 0
0.000021 0.000000 0
0.000021 0.000000 0
0.000021 0.000000 0
0.000021 0.000000 0
0.000021 0.000000 0
0.000021 0.000000 0
0.000021 0.000000 0
0.000021 0.000000 0
0.000022 0.000000 0
0.000023 0.000000 0
0.000024 0.000000 0
0.000024 0.000000 0
0.000019 0.000000 0