# vtk DataFile Version 2.0
generated by CFD-lab course output (written by Tobias Neckel) 
ASCII

DATASET STRUCTURED_GRID
DIMENSIONS  82 36 1 
POINTS 2952 float

-2.500000 0.100000 0
-2.402439 0.100000 0
-2.304878 0.100000 0
-2.207317 0.100000 0
-2.109756 0.100000 0
-2.012195 0.100000 0
-1.914634 0.100000 0
-1.817073 0.100000 0
-1.719512 0.100000 0
-1.621951 0.100000 0
-1.524390 0.100000 0
-1.426829 0.100000 0
-1.329268 0.100000 0
-1.231707 0.100000 0
-1.134146 0.100000 0
-1.036585 0.100000 0
-0.939024 0.100000 0
-0.841463 0.100000 0
-0.743902 0.100000 0
-0.646341 0.100000 0
-0.548780 0.100000 0
-0.451220 0.100000 0
-0.353659 0.100000 0
-0.256098 0.100000 0
-0.158537 0.100000 0
-0.060976 0.100000 0
0.036585 0.100000 0
0.134146 0.100000 0
0.231707 0.100000 0
0.329268 0.100000 0
0.426829 0.100000 0
0.524390 0.100000 0
0.621951 0.100000 0
0.719512 0.100000 0
0.817073 0.100000 0
0.914634 0.100000 0
1.012195 0.100000 0
1.109756 0.100000 0
1.207317 0.100000 0
1.304878 0.100000 0
1.402439 0.100000 0
1.500000 0.100000 0
1.597561 0.100000 0
1.695122 0.100000 0
1.792683 0.100000 0
1.890244 0.100000 0
1.987805 0.100000 0
2.085366 0.100000 0
2.182927 0.100000 0
2.280488 0.100000 0
2.378049 0.100000 0
2.475610 0.100000 0
2.573171 0.100000 0
2.670732 0.100000 0
2.768293 0.100000 0
2.865854 0.100000 0
2.963415 0.100000 0
3.060976 0.100000 0
3.158537 0.100000 0
3.256098 0.100000 0
3.353659 0.100000 0
3.451220 0.100000 0
3.548780 0.100000 0
3.646341 0.100000 0
3.743902 0.100000 0
3.841463 0.100000 0
3.939024 0.100000 0
4.036585 0.100000 0
4.134146 0.100000 0
4.231707 0.100000 0
4.329268 0.100000 0
4.426829 0.100000 0
4.524390 0.100000 0
4.621951 0.100000 0
4.719512 0.100000 0
4.817073 0.100000 0
4.914634 0.100000 0
5.012195 0.100000 0
5.109756 0.100000 0
5.207317 0.100000 0
5.304878 0.100000 0
5.402439 0.100000 0
-2.500000 0.147222 0
-2.402439 0.147222 0
-2.304878 0.147222 0
-2.207317 0.147222 0
-2.109756 0.147222 0
-2.012195 0.147222 0
-1.914634 0.147222 0
-1.817073 0.147222 0
-1.719512 0.147222 0
-1.621951 0.147222 0
-1.524390 0.147222 0
-1.426829 0.147222 0
-1.329268 0.147222 0
-1.231707 0.147222 0
-1.134146 0.147222 0
-1.036585 0.147222 0
-0.939024 0.147222 0
-0.841463 0.147222 0
-0.743902 0.147222 0
-0.646341 0.147222 0
-0.548780 0.147222 0
-0.451220 0.147222 0
-0.353659 0.147222 0
-0.256098 0.147222 0
-0.158537 0.147222 0
-0.060976 0.147222 0
0.036585 0.147222 0
0.134146 0.147222 0
0.231707 0.147222 0
0.329268 0.147222 0
0.426829 0.147222 0
0.524390 0.147222 0
0.621951 0.147222 0
0.719512 0.147222 0
0.817073 0.147222 0
0.914634 0.147222 0
1.012195 0.147222 0
1.109756 0.147222 0
1.207317 0.147222 0
1.304878 0.147222 0
1.402439 0.147222 0
1.500000 0.147222 0
1.597561 0.147222 0
1.695122 0.147222 0
1.792683 0.147222 0
1.890244 0.147222 0
1.987805 0.147222 0
2.085366 0.147222 0
2.182927 0.147222 0
2.280488 0.147222 0
2.378049 0.147222 0
2.475610 0.147222 0
2.573171 0.147222 0
2.670732 0.147222 0
2.768293 0.147222 0
2.865854 0.147222 0
2.963415 0.147222 0
3.060976 0.147222 0
3.158537 0.147222 0
3.256098 0.147222 0
3.353659 0.147222 0
3.451220 0.147222 0
3.548780 0.147222 0
3.646341 0.147222 0
3.743902 0.147222 0
3.841463 0.147222 0
3.939024 0.147222 0
4.036585 0.147222 0
4.134146 0.147222 0
4.231707 0.147222 0
4.329268 0.147222 0
4.426829 0.147222 0
4.524390 0.147222 0
4.621951 0.147222 0
4.719512 0.147222 0
4.817073 0.147222 0
4.914634 0.147222 0
5.012195 0.147222 0
5.109756 0.147222 0
5.207317 0.147222 0
5.304878 0.147222 0
5.402439 0.147222 0
-2.500000 0.194444 0
-2.402439 0.194444 0
-2.304878 0.194444 0
-2.207317 0.194444 0
-2.109756 0.194444 0
-2.012195 0.194444 0
-1.914634 0.194444 0
-1.817073 0.194444 0
-1.719512 0.194444 0
-1.621951 0.194444 0
-1.524390 0.194444 0
-1.426829 0.194444 0
-1.329268 0.194444 0
-1.231707 0.194444 0
-1.134146 0.194444 0
-1.036585 0.194444 0
-0.939024 0.194444 0
-0.841463 0.194444 0
-0.743902 0.194444 0
-0.646341 0.194444 0
-0.548780 0.194444 0
-0.451220 0.194444 0
-0.353659 0.194444 0
-0.256098 0.194444 0
-0.158537 0.194444 0
-0.060976 0.194444 0
0.036585 0.194444 0
0.134146 0.194444 0
0.231707 0.194444 0
0.329268 0.194444 0
0.426829 0.194444 0
0.524390 0.194444 0
0.621951 0.194444 0
0.719512 0.194444 0
0.817073 0.194444 0
0.914634 0.194444 0
1.012195 0.194444 0
1.109756 0.194444 0
1.207317 0.194444 0
1.304878 0.194444 0
1.402439 0.194444 0
1.500000 0.194444 0
1.597561 0.194444 0
1.695122 0.194444 0
1.792683 0.194444 0
1.890244 0.194444 0
1.987805 0.194444 0
2.085366 0.194444 0
2.182927 0.194444 0
2.280488 0.194444 0
2.378049 0.194444 0
2.475610 0.194444 0
2.573171 0.194444 0
2.670732 0.194444 0
2.768293 0.194444 0
2.865854 0.194444 0
2.963415 0.194444 0
3.060976 0.194444 0
3.158537 0.194444 0
3.256098 0.194444 0
3.353659 0.194444 0
3.451220 0.194444 0
3.548780 0.194444 0
3.646341 0.194444 0
3.743902 0.194444 0
3.841463 0.194444 0
3.939024 0.194444 0
4.036585 0.194444 0
4.134146 0.194444 0
4.231707 0.194444 0
4.329268 0.194444 0
4.426829 0.194444 0
4.524390 0.194444 0
4.621951 0.194444 0
4.719512 0.194444 0
4.817073 0.194444 0
4.914634 0.194444 0
5.012195 0.194444 0
5.109756 0.194444 0
5.207317 0.194444 0
5.304878 0.194444 0
5.402439 0.194444 0
-2.500000 0.241667 0
-2.402439 0.241667 0
-2.304878 0.241667 0
-2.207317 0.241667 0
-2.109756 0.241667 0
-2.012195 0.241667 0
-1.914634 0.241667 0
-1.817073 0.241667 0
-1.719512 0.241667 0
-1.621951 0.241667 0
-1.524390 0.241667 0
-1.426829 0.241667 0
-1.329268 0.241667 0
-1.231707 0.241667 0
-1.134146 0.241667 0
-1.036585 0.241667 0
-0.939024 0.241667 0
-0.841463 0.241667 0
-0.743902 0.241667 0
-0.646341 0.241667 0
-0.548780 0.241667 0
-0.451220 0.241667 0
-0.353659 0.241667 0
-0.256098 0.241667 0
-0.158537 0.241667 0
-0.060976 0.241667 0
0.036585 0.241667 0
0.134146 0.241667 0
0.231707 0.241667 0
0.329268 0.241667 0
0.426829 0.241667 0
0.524390 0.241667 0
0.621951 0.241667 0
0.719512 0.241667 0
0.817073 0.241667 0
0.914634 0.241667 0
1.012195 0.241667 0
1.109756 0.241667 0
1.207317 0.241667 0
1.304878 0.241667 0
1.402439 0.241667 0
1.500000 0.241667 0
1.597561 0.241667 0
1.695122 0.241667 0
1.792683 0.241667 0
1.890244 0.241667 0
1.987805 0.241667 0
2.085366 0.241667 0
2.182927 0.241667 0
2.280488 0.241667 0
2.378049 0.241667 0
2.475610 0.241667 0
2.573171 0.241667 0
2.670732 0.241667 0
2.768293 0.241667 0
2.865854 0.241667 0
2.963415 0.241667 0
3.060976 0.241667 0
3.158537 0.241667 0
3.256098 0.241667 0
3.353659 0.241667 0
3.451220 0.241667 0
3.548780 0.241667 0
3.646341 0.241667 0
3.743902 0.241667 0
3.841463 0.241667 0
3.939024 0.241667 0
4.036585 0.241667 0
4.134146 0.241667 0
4.231707 0.241667 0
4.329268 0.241667 0
4.426829 0.241667 0
4.524390 0.241667 0
4.621951 0.241667 0
4.719512 0.241667 0
4.817073 0.241667 0
4.914634 0.241667 0
5.012195 0.241667 0
5.109756 0.241667 0
5.207317 0.241667 0
5.304878 0.241667 0
5.402439 0.241667 0
-2.500000 0.288889 0
-2.402439 0.288889 0
-2.304878 0.288889 0
-2.207317 0.288889 0
-2.109756 0.288889 0
-2.012195 0.288889 0
-1.914634 0.288889 0
-1.817073 0.288889 0
-1.719512 0.288889 0
-1.621951 0.288889 0
-1.524390 0.288889 0
-1.426829 0.288889 0
-1.329268 0.288889 0
-1.231707 0.288889 0
-1.134146 0.288889 0
-1.036585 0.288889 0
-0.939024 0.288889 0
-0.841463 0.288889 0
-0.743902 0.288889 0
-0.646341 0.288889 0
-0.548780 0.288889 0
-0.451220 0.288889 0
-0.353659 0.288889 0
-0.256098 0.288889 0
-0.158537 0.288889 0
-0.060976 0.288889 0
0.036585 0.288889 0
0.134146 0.288889 0
0.231707 0.288889 0
0.329268 0.288889 0
0.426829 0.288889 0
0.524390 0.288889 0
0.621951 0.288889 0
0.719512 0.288889 0
0.817073 0.288889 0
0.914634 0.288889 0
1.012195 0.288889 0
1.109756 0.288889 0
1.207317 0.288889 0
1.304878 0.288889 0
1.402439 0.288889 0
1.500000 0.288889 0
1.597561 0.288889 0
1.695122 0.288889 0
1.792683 0.288889 0
1.890244 0.288889 0
1.987805 0.288889 0
2.085366 0.288889 0
2.182927 0.288889 0
2.280488 0.288889 0
2.378049 0.288889 0
2.475610 0.288889 0
2.573171 0.288889 0
2.670732 0.288889 0
2.768293 0.288889 0
2.865854 0.288889 0
2.963415 0.288889 0
3.060976 0.288889 0
3.158537 0.288889 0
3.256098 0.288889 0
3.353659 0.288889 0
3.451220 0.288889 0
3.548780 0.288889 0
3.646341 0.288889 0
3.743902 0.288889 0
3.841463 0.288889 0
3.939024 0.288889 0
4.036585 0.288889 0
4.134146 0.288889 0
4.231707 0.288889 0
4.329268 0.288889 0
4.426829 0.288889 0
4.524390 0.288889 0
4.621951 0.288889 0
4.719512 0.288889 0
4.817073 0.288889 0
4.914634 0.288889 0
5.012195 0.288889 0
5.109756 0.288889 0
5.207317 0.288889 0
5.304878 0.288889 0
5.402439 0.288889 0
-2.500000 0.336111 0
-2.402439 0.336111 0
-2.304878 0.336111 0
-2.207317 0.336111 0
-2.109756 0.336111 0
-2.012195 0.336111 0
-1.914634 0.336111 0
-1.817073 0.336111 0
-1.719512 0.336111 0
-1.621951 0.336111 0
-1.524390 0.336111 0
-1.426829 0.336111 0
-1.329268 0.336111 0
-1.231707 0.336111 0
-1.134146 0.336111 0
-1.036585 0.336111 0
-0.939024 0.336111 0
-0.841463 0.336111 0
-0.743902 0.336111 0
-0.646341 0.336111 0
-0.548780 0.336111 0
-0.451220 0.336111 0
-0.353659 0.336111 0
-0.256098 0.336111 0
-0.158537 0.336111 0
-0.060976 0.336111 0
0.036585 0.336111 0
0.134146 0.336111 0
0.231707 0.336111 0
0.329268 0.336111 0
0.426829 0.336111 0
0.524390 0.336111 0
0.621951 0.336111 0
0.719512 0.336111 0
0.817073 0.336111 0
0.914634 0.336111 0
1.012195 0.336111 0
1.109756 0.336111 0
1.207317 0.336111 0
1.304878 0.336111 0
1.402439 0.336111 0
1.500000 0.336111 0
1.597561 0.336111 0
1.695122 0.336111 0
1.792683 0.336111 0
1.890244 0.336111 0
1.987805 0.336111 0
2.085366 0.336111 0
2.182927 0.336111 0
2.280488 0.336111 0
2.378049 0.336111 0
2.475610 0.336111 0
2.573171 0.336111 0
2.670732 0.336111 0
2.768293 0.336111 0
2.865854 0.336111 0
2.963415 0.336111 0
3.060976 0.336111 0
3.158537 0.336111 0
3.256098 0.336111 0
3.353659 0.336111 0
3.451220 0.336111 0
3.548780 0.336111 0
3.646341 0.336111 0
3.743902 0.336111 0
3.841463 0.336111 0
3.939024 0.336111 0
4.036585 0.336111 0
4.134146 0.336111 0
4.231707 0.336111 0
4.329268 0.336111 0
4.426829 0.336111 0
4.524390 0.336111 0
4.621951 0.336111 0
[...]
POINT_DATA 2952 

VECTORS velocity float
0.000000 0.000000 0
0.000000 0.000000 0
0.000000 0.000000 0
0.000000 0.000000 0
0.000000 0.000000 0
0.000000 0.000000 0
0.000000 0.000000 0
0.000000 0.000000 0
0.000000 0.000000 0
0.000000 0.000000 0
0.000000 0.000000 0
0.000000 0.000000 0
0.000000 0.000000 0
0.000000 0.000000 0
0.000000 0.000000 0
0.000000 0.000000 0
0.000000 0.000000 0
0.000000 0.000000 0
0.000000 0.000000 0
0.000000 0.000000 0
0.000000 0.000000 0
0.000000 0.000000 0
0.000000 0.000000 0
0.000000 0.000000 0
0.000000 0.000000 0
-0.000006 0.000000 0
-0.000007 0.000000 0
-0.000005 0.000000 0
-0.000002 0.000000 0
-0.000000 0.000000 0
0.000000 0.000000 0
0.000000 0.000000 0
0.000000 0.000000 0
0.000000 0.000000 0
0.000000 0.000000 0
0.000000 0.000000 0
0.000000 0.000000 0
-0.000000 0.000000 0
-0.000000 0.000000 0
-0.000000 0.000000 0
-0.000000 0.000000 0
-0.000000 0.000000 0
-0.000000 0.000000 0
-0.000000 0.000000 0
-0.000000 0.000000 0
-0.000000 0.000000 0
-0.000000 0.000000 0
-0.000001 0.000000 0
-0.000001 0.000000 0
-0.000001 0.000000 0
-0.000001 0.000000 0
-0.000001 0.000000 0
-0.000001 0.000000 0
-0.000001 0.000000 0
-0.000001 0.000000 0
-0.000001 0.000000 0
-0.000001 0.000000 0
-0.000001 0.000000 0
-0.000001 0.000000 0
-0.000001 0.000000 0
-0.000001 0.000000 0
-0.000001 0.000000 0
-0.000000 0.000000 0
0.000000 0.000000 0
0.000000 0.000000 0
-0.000001 0.000000 0
0.000000 0.000000 0
0.000007 0.000000 0
0.000000 0.000000 0
0.000000 0.000000 0
0.000000 0.000000 0
0.000000 0.000000 0
0.000000 0.000000 0
0.000000 0.000000 0
0.000000 0.000000 0
0.000000 0.000000 0
0.000000 0.000000 0
0.000000 0.000000 0
0.000000 0.000000 0
0.000000 0.000000 0
0.000000 0.000000 0
0.000000 0.000000 0
0.000000 0.000000 0
0.000000 0.000000 0
0.000000 0.000000 0
0.000000 0.000000 0
0.000000 0.000000 0
0.000000 0.000000 0
0.000000 0.000000 0
0.000000 0.000000 0
0.000000 0.000000 0
0.000000 0.000000 0
0.000000 0.000000 0
0.000000 0.000000 0
0.000000 0.000000 0
0.000000 0.000000 0
0.000000 0.000000 0
0.000000 0.000000 0
0.000000 0.000000 0
0.000000 0.000000 0
0.000000 0.000000 0
0.000000 0.000000 0
0.000000 0.000000 0
0.000000 0.000000 0
0.000000 0.000000 0
0.000000 0.000000 0
0.000737 -0.000481 0
0.003244 -0.000591 0
0.003965 0.000052 0
0.002990 0.000378 0
0.001588 0.000362 0
0.000586 0.000208 0
0.000120 0.000074 0
-0.000002 0.000005 0
0.000019 -0.000016 0
0.000070 -0.000016 0
0.000109 -0.000010 0
0.000132 -0.000005 0
0.000143 -0.000003 0
0.000149 -0.000001 0
0.000151 -0.000001 0
0.000153 -0.000001 0
0.000154 -0.000001 0
0.000155 -0.000001 0
0.000156 -0.000001 0
0.000157 -0.000001 0
0.000157 -0.000001 0
0.000158 -0.000000 0
0.000158 -0.000000 0
0.000158 -0.000000 0
0.000158 -0.000000 0
0.000157 -0.000000 0
0.000157 -0.000000 0
0.000156 -0.000000 0
0.000156 -0.000000 0
0.000155 -0.000000 0
0.000155 -0.000001 0
0.000157 -0.000001 0
0.000159 -0.000001 0
0.000160 -0.000000 0
0.000153 0.000005 0
0.000115 0.000018 0
0.000011 0.000045 0
-0.000199 0.000078 0
-0.000503 0.000092 0
-0.000760 0.000043 0
-0.000689 -0.000068 0
-0.000127 -0.000116 0
0.000428 -0.000049 0
-0.000001 0.000000 0
0.000004 0.000000 0
0.000000 0.000000 0
0.000000 0.000000 0
0.000000 0.000000 0
0.000000 0.000000 0
0.000000 0.000000 0
0.000000 0.000000 0
0.000000 0.000000 0
0.000000 0.000000 0
0.000000 0.000000 0
0.000000 0.000000 0
0.000000 0.000000 0
0.000000 0.000000 0
0.000000 0.000000 0
0.000000 0.000000 0
0.000000 0.000000 0
0.000000 0.000000 0
0.000000 0.000000 0
0.000000 0.000000 0
0.000000 0.000000 0
0.000000 0.000000 0
0.000000 0.000000 0
0.000000 0.000000 0
0.000000 0.000000 0
0.000000 0.000000 0
0.000000 0.000000 0
0.000000 0.000000 0
0.000000 0.000000 0
0.000000 0.000000 0
0.000000 0.000000 0
0.000000 0.000000 0
0.000000 0.000000 0
0.000000 0.000000 0
0.000000 0.000000 0
0.000000 0.000000 0
0.000000 0.000000 0
0.000000 0.000000 0
-0.001510 -0.000370 0
0.000943 -0.001580 0
0.004624 -0.001560 0
0.005858 0.000123 0
0.004565 0.001150 0
0.002535 0.001163 0
0.001012 0.000710 0
0.000255 0.000284 0
0.000022 0.000048 0
0.000021 -0.000035 0
0.000082 -0.000044 0
0.000136 -0.000031 0
0.000170 -0.000017 0
0.000188 -0.000009 0
0.000197 -0.000004 0
0.000201 -0.000002 0
0.000204 -0.000002 0
0.000206 -0.000001 0
0.000208 -0.000001 0
0.000209 -0.000001 0
0.000211 -0.000001 0
0.000212 -0.000001 0
0.000212 -0.000001 0
0.000213 -0.000001 0
0.000213 -0.000000 0
0.000213 -0.000000 0
0.000213 -0.000000 0
0.000212 0.000000 0
0.000211 0.000000 0
0.000210 0.000000 0
0.000210 -0.000000 0
0.000210 -0.000001 0
0.000211 -0.000002 0
0.000213 -0.000002 0
0.000212 0.000003 0
0.000195 0.000022 0
0.000129 0.000068 0
-0.000035 0.000151 0
-0.000348 0.000248 0
-0.000783 0.000271 0
-0.001113 0.000089 0
-0.000893 -0.000307 0
0.000220 -0.000542 0
0.001690 -0.000066 0
0.001536 0.000204 0
-0.000001 0.000000 0
-0.000001 0.000000 0
0.000000 0.000000 0
0.000000 0.000000 0
0.000000 0.000000 0
0.000000 0.000000 0
0.000000 0.000000 0
0.000000 0.000000 0
0.000000 0.000000 0
0.000000 0.000000 0
0.000000 0.000000 0
0.000000 0.000000 0
0.000000 0.000000 0
0.000000 0.000000 0
0.000000 0.000000 0
0.000000 0.000000 0
0.000000 0.000000 0
0.000000 0.000000 0
0.000000 0.000000 0
0.000000 0.000000 0
0.000000 0.000000 0
0.000000 0.000000 0
0.000000 0.000000 0
0.000000 0.000000 0
0.000000 0.000000 0
0.000000 0.000000 0
0.000000 0.000000 0
0.000000 0.000000 0
0.000000 0.000000 0
0.000000 0.000000 0
0.000000 0.000000 0
0.000000 0.000000 0
0.000000 0.000000 0
0.000000 0.000000 0
0.000000 0.000000 0
0.000000 0.000000 0
-0.003755 0.000723 0
-0.005391 -0.000478 0
-0.001025 -0.003463 0
0.003873 -0.002970 0
0.005532 0.000080 0
0.004428 0.001986 0
0.002503 0.002081 0
0.001016 0.001311 0
0.000248 0.000553 0
-0.000011 0.000118 0
-0.000034 -0.000045 0
0.000014 -0.000071 0
0.000061 -0.000053 0
0.000093 -0.000031 0
0.000110 -0.000016 0
0.000119 -0.000008 0
0.000124 -0.000005 0
0.000127 -0.000003 0
0.000129 -0.000003 0
0.000130 -0.000002 0
0.000132 -0.000002 0
0.000133 -0.000002 0
0.000134 -0.000002 0
0.000135 -0.000001 0
0.000135 -0.000001 0
0.000136 -0.000001 0
0.000136 -0.000000 0
0.000135 0.000000 0
0.000135 0.000000 0
0.000134 0.000001 0
0.000133 0.000000 0
0.000132 -0.000000 0
0.000132 -0.000002 0
0.000133 -0.000003 0
0.000134 -0.000002 0
0.000131 0.000008 0
0.000111 0.000045 0
0.000044 0.000129 0
-0.000118 0.000276 0
-0.000421 0.000440 0
-0.000831 0.000462 0
-0.001118 0.000096 0
-0.000779 -0.000714 0
0.000754 -0.001367 0
0.003330 -0.000696 0
0.004778 0.000809 0
0.002664 0.000744 0
0.000000 0.000000 0
-0.000006 0.000000 0
0.000000 0.000000 0
0.000000 0.000000 0
0.000000 0.000000 0
0.000000 0.000000 0
0.000000 0.000000 0
0.000000 0.000000 0
0.000000 0.000000 0
0.000000 0.000000 0
0.000000 0.000000 0
0.000000 0.000000 0
0.000000 0.000000 0
0.000000 0.000000 0
0.000000 0.000000 0
0.000000 0.000000 0
0.000000 0.000000 0
0.000000 0.000000 0
0.000000 0.000000 0
0.000000 0.000000 0
0.000000 0.000000 0
0.000000 0.000000 0
0.000000 0.000000 0
0.000000 0.000000 0
0.000000 0.000000 0
0.000000 0.000000 0
0.000000 0.000000 0
0.000000 0.000000 0
0.000000 0.000000 0
0.000000 0.000000 0
0.000000 0.000000 0
0.000000 0.000000 0
0.000000 0.000000 0
0.000000 0.000000 0
-0.004429 0.001828 0
-0.010829 0.002612 0
-0.010111 -0.001699 0
-0.004188 -0.006065 0
0.001504 -0.004733 0
0.003335 -0.000146 0
0.002749 0.002616 0
0.001523 0.002815 0
0.000567 0.001801 0
0.000068 0.000781 0
-0.000107 0.000184 0
-0.000130 -0.000047 0
-0.000106 -0.000090 0
-0.000079 -0.000069 0
-0.000060 -0.000041 0
-0.000050 -0.000022 0
-0.000044 -0.000011 0
-0.000041 -0.000006 0
-0.000040 -0.000004 0
-0.000039 -0.000003 0
-0.000038 -0.000003 0
-0.000037 -0.000003 0
-0.000036 -0.000002 0
-0.000036 -0.000002 0
-0.000035 -0.000002 0
-0.000035 -0.000001 0
-0.000035 -0.000001 0
-0.000035 -0.000000 0
-0.000036 0.000000 0
-0.000036 0.000001 0
-0.000037 0.000001 0
-0.000037 0.000001 0
-0.000038 -0.000000 0
-0.000038 -0.000002 0
-0.000037 -0.000004 0
-0.000037 -0.000002 0
-0.000039 0.000014 0
-0.000052 0.000064 0
-0.000095 0.000179 0
-0.000197 0.000376 0
-0.000388 0.000593 0
-0.000654 0.000608 0
-0.000835 0.000064 0
-0.000497 -0.001213 0
0.001135 -0.002531 0
0.004628 -0.002014 0
0.007752 0.000521 0
0.007661 0.002313 0
0.003317 0.001296 0
0.000001 0.000000 0
-0.000008 0.000000 0
0.000000 0.000000 0
0.000000 0.000000 0
0.000000 0.000000 0
0.000000 0.000000 0
0.000000 0.000000 0
0.000000 0.000000 0
0.000000 0.000000 0
0.000000 0.000000 0
0.000000 0.000000 0
0.000000 0.000000 0
0.000000 0.000000 0
0.000000 0.000000 0
0.000000 0.000000 0
0.000000 0.000000 0
0.000000 0.000000 0
0.000000 0.000000 0
0.000000 0.000000 0
0.000000 0.000000 0
0.000000 0.000000 0
0.000000 0.000000 0
0.000000 0.000000 0
0.000000 0.000000 0
0.000000 0.000000 0
0.000000 0.000000 0
0.000000 0.000000 0
0.000000 0.000000 0
0.000000 0.000000 0
0.000000 0.000000 0
0.000000 0.000000 0
0.000000 0.000000 0
-0.003333 0.002165 0
-0.011774 0.005273 0
-0.016310 0.003484 0
-0.014044 -0.003692 0
-0.007268 -0.009085 0
-0.001453 -0.006611 0
0.000072 -0.000522 0
0.000121 0.002863 0
-0.000043 0.003137 0
-0.000150 0.002015 0
-0.000195 0.000880 0
-0.000210 0.000214 0
-0.000213 -0.000046 0
-0.000214 -0.000096 0
-0.000214 -0.000075 0
-0.000214 -0.000045 0
-0.000215 -0.000024 0
-0.000215 -0.000012 0
-0.000215 -0.000007 0
-0.000215 -0.000005 0
-0.000216 -0.000004 0
-0.000216 -0.000003 0
-0.000216 -0.000003 0
-0.000217 -0.000003 0
-0.000217 -0.000002 0
-0.000217 -0.000002 0
-0.000217 -0.000001 0
-0.000218 -0.000001 0
-0.000218 -0.000000 0
-0.000218 0.000000 0
-0.000218 0.000001 0
-0.000218 0.000001 0
-0.000218 0.000001 0
-0.000219 -0.000000 0
-0.000219 -0.000002 0
-0.000219 -0.000004 0
-0.000219 -0.000001 0
-0.000218 0.000016 0
-0.000218 0.000071 0
-0.000219 0.000199 0
-0.000224 0.000418 0
-0.000243 0.000661 0
-0.000289 0.000678 0
-0.000336 0.000020 0
-0.000155 -0.001668 0
0.001118 -0.003848 0
0.005070 -0.003899 0
0.009554 -0.000659 0
0.011436 0.002895 0
0.009135 0.003721 0
0.003331 0.001614 0
0.000002 0.000000 0
-0.000007 0.000000 0
0.000000 0.000000 0
0.000000 0.000000 0
0.000000 0.000000 0
0.000000 0.000000 0
0.000000 0.000000 0
0.000000 0.000000 0
0.000000 0.000000 0
0.000000 0.000000 0
0.000000 0.000000 0
-0.000104 0.000000 0
-0.000104 0.000000 0
-0.000190 0.000000 0
-0.000234 0.000000 0
-0.000256 0.000000 0
-0.000267 0.000000 0
-0.000272 0.000000 0
-0.000275 0.000000 0
-0.000277 0.000000 0
-0.000279 0.000000 0
-0.000280 0.000000 0
-0.000282 0.000000 0
-0.000292 0.000000 0
-0.000326 0.000000 0
-0.000415 0.000000 0
-0.000588 0.000000 0
-0.000838 0.000000 0
-0.001044 0.000000 0
0.000000 0.000000 0
-0.001346 0.001631 0
-0.008276 0.005738 0
-0.015867 0.008131 0
-0.019087 0.003711 0
-0.015975 -0.006076 0
-0.009089 -0.012159 0
-0.003814 -0.008286 0
-0.003205 -0.000908 0
-0.002598 0.002672 0
-0.001634 0.002946 0
-0.000838 0.001875 0
-0.000405 0.000810 0
-0.000250 0.000193 0
-0.000231 -0.000045 0
-0.000257 -0.000090 0
-0.000284 -0.000069 0
-0.000303 -0.000041 0
-0.000314 -0.000022 0
-0.000320 -0.000011 0
-0.000323 -0.000006 0
-0.000325 -0.000004 0
-0.000327 -0.000003 0
-0.000329 -0.000003 0
-0.000330 -0.000003 0
-0.000331 -0.000002 0
-0.000332 -0.000002 0
-0.000333 -0.000002 0
-0.000334 -0.000001 0
-0.000334 -0.000001 0
-0.000335 -0.000000 0
-0.000335 0.000000 0
-0.000335 0.000001 0
-0.000334 0.000001 0
-0.000334 0.000001 0
-0.000334 -0.000000 0
-0.000334 -0.000002 0
-0.000335 -0.000004 0
-0.000335 -0.000002 0
-0.000333 0.000013 0
-0.000319 0.000064 0
-0.000278 0.000182 0
-0.000183 0.000387 0
-0.000020 0.000624 0
0.000177 0.000653 0
0.000276 -0.000001 0
0.000186 -0.001917 0
0.000620 -0.005061 0
0.004466 -0.006098 0
0.009719 -0.002561 0
0.013205 0.002516 0
0.012938 0.005231 0
0.008910 0.004441 0
0.002840 0.001620 0
0.000002 0.000000 0
-0.000726 0.000000 0
-0.000288 0.000000 0
-0.000162 0.000000 0
-0.000117 0.000000 0
-0.000081 0.000000 0
-0.000042 0.000000 0
-0.000010 0.000000 0
0.000000 0.000000 0
0.000000 0.000000 0
0.000000 0.000000 0
-0.000003 0.000000 0
-0.000003 0.000000 0
-0.000003 0.000000 0
-0.000003 0.000000 0
-0.000003 0.000000 0
-0.000003 0.000000 0
-0.000003 0.000000 0
-0.000003 0.000000 0
-0.000003 0.000000 0
-0.000003 0.000000 0
-0.000003 0.000000 0
-0.000003 0.000000 0
-0.000003 0.000000 0
-0.000003 0.000000 0
-0.000004 0.000000 0
-0.000006 0.000000 0
-0.000008 0.000000 0
0.000746 0.000661 0
-0.002850 0.004033 0
-0.009979 0.009211 0
-0.016555 0.010506 0
-0.018713 0.003536 0
-0.015294 -0.008532 0
-0.008924 -0.014972 0
-0.004651 -0.009459 0
-0.005494 -0.001111 0
-0.004519 0.002103 0
-0.002675 0.002285 0
-0.001215 0.001420 0
-0.000454 0.000595 0
-0.000195 0.000130 0
-0.000173 -0.000043 0
-0.000220 -0.000071 0
-0.000268 -0.000053 0
-0.000300 -0.000031 0
-0.000318 -0.000016 0
-0.000327 -0.000008 0
-0.000332 -0.000004 0
-0.000336 -0.000003 0
-0.000338 -0.000002 0
-0.000340 -0.000002 0
-0.000342 -0.000002 0
-0.000344 -0.000002 0
-0.000345 -0.000001 0
-0.000347 -0.000001 0
-0.000348 -0.000001 0
-0.000348 -0.000000 0
-0.000349 -0.000000 0
-0.000349 0.000000 0
-0.000349 0.000000 0
-0.000348 0.000001 0
-0.000348 0.000000 0
-0.000348 -0.000000 0
-0.000348 -0.000002 0
-0.000350 -0.000003 0
-0.000351 -0.000003 0
-0.000349 0.000008 0
-0.000329 0.000045 0
-0.000262 0.000133 0
-0.000100 0.000293 0
0.000198 0.000487 0
0.000594 0.000535 0
0.000841 0.000016 0
0.000488 -0.001835 0
-0.000269 -0.005920 0
0.002967 -0.008303 0
0.008260 -0.004889 0
0.012721 0.001337 0
0.014210 0.005800 0
0.012123 0.006516 0
0.007449 0.004330 0
0.002311 0.001378 0
-0.000002 0.000000 0
-0.000001 0.000000 0
-0.000000 0.000000 0
-0.000001 0.000000 0
-0.000000 0.000000 0
-0.000000 0.000000 0
-0.000000 0.000000 0
-0.000000 0.000000 0
-2.500000 0.000000 0
0.000374 -0.000116 0
0.000368 -0.000100 0
0.000646 -0.000063 0
0.000804 -0.000032 0
0.000889 -0.000016 0
0.000934 -0.000008 0
0.000959 -0.000004 0
0.000973 -0.000003 0
0.000983 -0.000002 0
0.000991 -0.000001 0
0.000998 -0.000002 0
0.001012 -0.000006 0
0.001058 -0.000022 0
0.001191 -0.000060 0
0.001500 -0.000126 0
0.002061 -0.000204 0
0.002802 -0.000219 0
0.003261 0.000031 0
0.002156 0.001880 0
-0.002493 0.006832 0
-0.009051 0.012372 0
-0.014249 0.012359 0
-0.015398 0.003101 0
-0.012085 -0.010815 0
-0.006739 -0.017311 0
-0.003658 -0.009947 0
-0.006069 -0.000972 0
-0.004923 0.001307 0
-0.002755 0.001346 0
-0.001129 0.000800 0
-0.000326 0.000316 0
-0.000077 0.000057 0
-0.000074 -0.000033 0
-0.000134 -0.000044 0
-0.000188 -0.000030 0
-0.000223 -0.000017 0
-0.000241 -0.000008 0
-0.000251 -0.000004 0
-0.000256 -0.000002 0
-0.000259 -0.000001 0
-0.000261 -0.000001 0
-0.000263 -0.000001 0
-0.000265 -0.000001 0
-0.000267 -0.000001 0
-0.000268 -0.000001 0
-0.000269 -0.000001 0
-0.000270 -0.000000 0
-0.000271 -0.000000 0
-0.000272 -0.000000 0
-0.000272 0.000000 0
-0.000272 0.000000 0
-0.000271 0.000000 0
-0.000271 0.000000 0
-0.000271 -0.000000 0
-0.000272 -0.000001 0
-0.000274 -0.000002 0
-0.000277 -0.000002 0
-0.000277 0.000002 0
-0.000260 0.000022 0
-0.000195 0.000071 0
-0.000026 0.000165 0
0.000307 0.000288 0
0.000784 0.000342 0
0.001144 0.000050 0
0.000706 -0.001381 0
-0.001272 -0.006261 0
0.000996 -0.010226 0
0.005582 -0.007282 0
0.010233 -0.000364 0
0.012964 0.005520 0
0.012714 0.007713 0
0.009783 0.006380 0
0.005740 0.003273 0
0.002469 0.000986 0
0.001162 0.000272 0
0.000669 0.000083 0
0.000457 0.000039 0
0.000305 0.000036 0
0.000161 0.000034 0
0.000048 0.000020 0
-0.000000 0.000005 0
-5.000000 0.000000 0
0.000618 -0.000393 0
0.000611 -0.000330 0
0.001038 -0.000211 0
0.001302 -0.000118 0
0.001456 -0.000063 0
0.001542 -0.000034 0
0.001591 -0.000019 0
0.001621 -0.000012 0
0.001642 -0.000009 0
0.001659 -0.000007 0
0.001676 -0.000010 0
0.001710 -0.000029 0
0.001801 -0.000087 0
0.002034 -0.000214 0
0.002533 -0.000422 0
0.003382 -0.000631 0
0.004408 -0.000581 0
0.004856 0.000302 0
0.003165 0.003436 0
-0.001230 0.009458 0
-0.006379 0.014901 0
-0.009772 0.013578 0
-0.009887 0.002489 0
-0.007055 -0.012723 0
-0.003241 -0.019050 0
-0.001482 -0.009783 0
-0.004467 -0.000499 0
-0.003413 0.000498 0
-0.001766 0.000448 0
-0.000632 0.000244 0
-0.000115 0.000086 0
0.000021 0.000008 0
0.000003 -0.000015 0
-0.000048 -0.000015 0
-0.000088 -0.000010 0
-0.000111 -0.000005 0
-0.000123 -0.000002 0
-0.000129 -0.000001 0
-0.000132 -0.000001 0
-0.000134 -0.000000 0
-0.000135 -0.000000 0
-0.000136 -0.000000 0
-0.000138 -0.000000 0
-0.000139 -0.000000 0
-0.000140 -0.000000 0
-0.000140 -0.000000 0
-0.000141 -0.000000 0
-0.000142 -0.000000 0
-0.000142 -0.000000 0
-0.000142 0.000000 0
-0.000142 0.000000 0
-0.000142 0.000000 0
-0.000142 0.000000 0
-0.000142 -0.000000 0
-0.000143 -0.000000 0
-0.000145 -0.000001 0
-0.000148 -0.000001 0
-0.000150 -0.000000 0
-0.000143 0.000005 0
-0.000106 0.000020 0
0.000003 0.000050 0
0.000234 0.000095 0
0.000597 0.000129 0
0.000941 0.000053 0
0.000701 -0.000665 0
-0.001855 -0.006061 0
-0.000885 -0.011621 0
0.002307 -0.009361 0
0.006345 -0.002236 0
0.009657 0.004599 0
0.010898 0.008056 0
0.009729 0.007706 0
0.006978 0.004929 0
0.003906 0.002226 0
0.002099 0.000871 0
0.001243 0.000341 0
0.000818 0.000176 0
0.000526 0.000143 0
0.000276 0.000124 0
0.000090 0.000077 0
-0.000000 0.000023 0
-5.000000 0.000000 0
0.000670 -0.000743 0
0.000663 -0.000619 0
0.001117 -0.000398 0
0.001414 -0.000234 0
0.001597 -0.000132 0
0.001705 -0.000073 0
0.001769 -0.000042 0
0.001810 -0.000027 0
0.001839 -0.000020 0
0.001864 -0.000018 0
0.001891 -0.000027 0
0.001940 -0.000067 0
0.002055 -0.000179 0
0.002323 -0.000414 0
0.002859 -0.000779 0
0.003717 -0.001111 0
0.004674 -0.000932 0
0.004974 0.000633 0
0.003425 0.004826 0
0.000188 0.011451 0
-0.002884 0.016506 0
-0.004135 0.014057 0
-0.003231 0.001786 0
-0.001276 -0.014031 0
0.000352 -0.020009 0
-0.000113 -0.009316 0
0.000012 0.000000 0
0.000008 0.000000 0
0.000004 0.000000 0
0.000001 0.000000 0
0.000001 0.000000 0
0.000001 0.000000 0
0.000001 0.000000 0
0.000001 0.000000 0
0.000001 0.000000 0
0.000001 0.000000 0
0.000001 0.000000 0
0.000001 0.000000 0
0.000001 0.000000 0
0.000001 0.000000 0
0.000000 0.000000 0
0.000000 0.000000 0
0.000000 0.000000 0
0.000000 0.000000 0
0.000000 0.000000 0
0.000000 0.000000 0
0.000000 0.000000 0
0.000000 0.000000 0
0.000000 0.000000 0
0.000000 0.000000 0
-0.000000 0.000000 0
-0.000000 0.000000 0
-0.000000 0.000000 0
-0.000000 0.000000 0
-0.000000 0.000000 0
-0.000000 0.000000 0
-0.000000 0.000000 0
-0.000000 0.000000 0
-0.000001 0.000000 0
-0.000001 0.000000 0
-0.000001 0.000000 0
-0.000001 0.000000 0
-0.000002 0.000000 0
-0.000003 0.000000 0
-0.000004 0.000000 0
-0.000977 -0.005466 0
-0.002174 -0.012240 0
-0.000944 -0.010782 0
0.001812 -0.003922 0
0.005022 0.003317 0
0.007254 0.007678 0
0.007656 0.008278 0
0.006350 0.006091 0
0.004134 0.003347 0
0.002453 0.001561 0
0.001495 0.000702 0
0.000957 0.000386 0
0.000586 0.000298 0
0.000296 0.000244 0
0.000098 0.000153 0
-0.000000 0.000049 0
-5.000000 0.000000 0
0.000533 -0.001069 0
0.000528 -0.000887 0
0.000897 -0.000575 0
0.001151 -0.000350 0
0.001317 -0.000204 0
0.001420 -0.000117 0
0.001484 -0.000070 0
0.001527 -0.000046 0
0.001559 -0.000035 0
0.001587 -0.000032 0
0.001618 -0.000047 0
0.001670 -0.000109 0
0.001778 -0.000272 0
0.002008 -0.000604 0
0.002436 -0.001097 0
0.003075 -0.001509 0
0.003725 -0.001189 0
0.003849 0.000907 0
0.002842 0.005752 0
0.001278 0.012512 0
0.000658 0.016993 0
0.001690 0.013746 0
0.003499 0.001105 0
0.004212 -0.014457 0
0.003003 -0.019617 0
0.000007 0.000043 0
0.001549 0.008884 0
0.001084 0.000000 0
0.000511 0.000000 0
0.000152 0.000000 0
0.000004 0.000000 0
-0.000026 0.000000 0
-0.000013 0.000000 0
0.000006 0.000000 0
0.000019 0.000000 0
0.000027 0.000000 0
0.000030 0.000000 0
0.000032 0.000000 0
0.000032 0.000000 0
0.000033 0.000000 0
0.000033 0.000000 0
0.000033 0.000000 0
0.000034 0.000000 0
0.000034 0.000000 0
0.000034 0.000000 0
0.000035 0.000000 0
0.000035 0.000000 0
0.000035 0.000000 0
0.000035 0.000000 0
0.000035 0.000000 0
0.000035 0.000000 0
0.000035 0.000000 0
0.000035 0.000000 0
0.000035 0.000000 0
0.000035 0.000000 0
0.000036 0.000000 0
0.000037 0.000000 0
0.000039 0.000000 0
0.000038 0.000000 0