# vtk DataFile Version 2.0
generated by CFD-lab course output (written by Tobias Neckel) 
ASCII

DATASET STRUCTURED_GRID
DIMENSIONS  82 36 1 
POINTS 2952 float

-2.500000 0.100000 0
-2.402439 0.100000 0
-2.304878 0.100000 0
-2.207317 0.100000 0
-2.109756 0.100000 0
-2.012195 0.100000 0
-1.914634 0.100000 0
-1.817073 0.100000 0
-1.719512 0.100000 0
-1.621951 0.100000 0
-1.524390 0.100000 0
-1.426829 0.100000 0
-1.329268 0.100000 0
-1.231707 0.100000 0
-1.134146 0.100000 0
-1.036585 0.100000 0
-0.939024 0.100000 0
-0.841463 0.100000 0
-0.743902 0.100000 0
-0.646341 0.100000 0
-0.548780 0.100000 0
-0.451220 0.100000 0
-0.353659 0.100000 0
-0.256098 0.100000 0
-0.158537 0.100000 0
-0.060976 0.100000 0
0.036585 0.100000 0
0.134146 0.100000 0
0.231707 0.100000 0
0.329268 0.100000 0
0.426829 0.100000 0
0.524390 0.100000 0
0.621951 0.100000 0
0.719512 0.100000 0
0.817073 0.100000 0
0.914634 0.100000 0
1.012195 0.100000 0
1.109756 0.100000 0
1.207317 0.100000 0
1.304878 0.100000 0
1.402439 0.100000 0
1.500000 0.100000 0
1.597561 0.100000 0
1.695122 0.100000 0
1.792683 0.100000 0
1.890244 0.100000 0
1.987805 0.100000 0
2.085366 0.100000 0
2.182927 0.100000 0
2.280488 0.100000 0
2.378049 0.100000 0
2.475610 0.100000 0
2.573171 0.100000 0
2.670732 0.100000 0
2.768293 0.100000 0
2.865854 0.100000 0
2.963415 0.100000 0
3.060976 0.100000 0
3.158537 0.100000 0
3.256098 0.100000 0
3.353659 0.100000 0
3.451220 0.100000 0
3.548780 0.100000 0
3.646341 0.100000 0
3.743902 0.100000 0
3.841463 0.100000 0
3.939024 0.100000 0
4.036585 0.100000 0
4.134146 0.100000 0
4.231707 0.100000 0
4.329268 0.100000 0
4.426829 0.100000 0
4.524390 0.100000 0
4.621951 0.100000 0
4.719512 0.100000 0
4.817073 0.100000 0
4.914634 0.100000 0
5.012195 0.100000 0
5.109756 0.100000 0
5.207317 0.100000 0
5.304878 0.100000 0
5.402439 0.100000 0
-2.500000 0.147222 0
-2.402439 0.147222 0
-2.304878 0.147222 0
-2.207317 0.147222 0
-2.109756 0.147222 0
-2.012195 0.147222 0
-1.914634 0.147222 0
-1.817073 0.147222 0
-1.719512 0.147222 0
-1.621951 0.147222 0
-1.524390 0.147222 0
-1.426829 0.147222 0
-1.329268 0.147222 0
-1.231707 0.147222 0
-1.134146 0.147222 0
-1.036585 0.147222 0
-0.939024 0.147222 0
-0.841463 0.147222 0
-0.743902 0.147222 0
-0.646341 0.147222 0
-0.548780 0.147222 0
-0.451220 0.147222 0
-0.353659 0.147222 0
-0.256098 0.147222 0
-0.158537 0.147222 0
-0.060976 0.147222 0
0.036585 0.147222 0
0.134146 0.147222 0
0.231707 0.147222 0
0.329268 0.147222 0
0.426829 0.147222 0
0.524390 0.147222 0
0.621951 0.147222 0
0.719512 0.147222 0
0.817073 0.147222 0
0.914634 0.147222 0
1.012195 0.147222 0
1.109756 0.147222 0
1.207317 0.147222 0
1.304878 0.147222 0
1.402439 0.147222 0
1.500000 0.147222 0
1.597561 0.147222 0
1.695122 0.147222 0
1.792683 0.147222 0
1.890244 0.147222 0
1.987805 0.147222 0
2.085366 0.147222 0
2.182927 0.147222 0
2.280488 0.147222 0
2.378049 0.147222 0
2.475610 0.147222 0
2.573171 0.147222 0
2.670732 0.147222 0
2.768293 0.147222 0
2.865854 0.147222 0
2.963415 0.147222 0
3.060976 0.147222 0
3.158537 0.147222 0
3.256098 0.147222 0
3.353659 0.147222 0
3.451220 0.147222 0
3.548780 0.147222 0
3.646341 0.147222 0
3.743902 0.147222 0
3.841463 0.147222 0
3.939024 0.147222 0
4.036585 0.147222 0
4.134146 0.147222 0
4.231707 0.147222 0
4.329268 0.147222 0
4.426829 0.147222 0
4.524390 0.147222 0
4.621951 0.147222 0
4.719512 0.147222 0
4.817073 0.147222 0
4.914634 0.147222 0
5.012195 0.147222 0
5.109756 0.147222 0
5.207317 0.147222 0
5.304878 0.147222 0
5.402439 0.147222 0
-2.500000 0.194444 0
-2.402439 0.194444 0
-2.304878 0.194444 0
-2.207317 0.194444 0
-2.109756 0.194444 0
-2.012195 0.194444 0
-1.914634 0.194444 0
-1.817073 0.194444 0
-1.719512 0.194444 0
-1.621951 0.194444 0
-1.524390 0.194444 0
-1.426829 0.194444 0
-1.329268 0.194444 0
-1.231707 0.194444 0
-1.134146 0.194444 0
-1.036585 0.194444 0
-0.939024 0.194444 0
-0.841463 0.194444 0
-0.743902 0.194444 0
-0.646341 0.194444 0
-0.548780 0.194444 0
-0.451220 0.194444 0
-0.353659 0.194444 0
-0.256098 0.194444 0
-0.158537 0.194444 0
-0.060976 0.194444 0
0.036585 0.194444 0
0.134146 0.194444 0
0.231707 0.194444 0
0.329268 0.194444 0
0.426829 0.194444 0
0.524390 0.194444 0
0.621951 0.194444 0
0.719512 0.194444 0
0.817073 0.194444 0
0.914634 0.194444 0
1.012195 0.194444 0
1.109756 0.194444 0
1.207317 0.194444 0
1.304878 0.194444 0
1.402439 0.194444 0
1.500000 0.194444 0
1.597561 0.194444 0
1.695122 0.194444 0
1.792683 0.194444 0
1.890244 0.194444 0
1.987805 0.194444 0
2.085366 0.194444 0
2.182927 0.194444 0
2.280488 0.194444 0
2.378049 0.194444 0
2.475610 0.194444 0
2.573171 0.194444 0
2.670732 0.194444 0
2.768293 0.194444 0
2.865854 0.194444 0
2.963415 0.194444 0
3.060976 0.194444 0
3.158537 0.194444 0
3.256098 0.194444 0
3.353659 0.194444 0
3.451220 0.194444 0
3.548780 0.194444 0
3.646341 0.194444 0
3.743902 0.194444 0
3.841463 0.194444 0
3.939024 0.194444 0
4.036585 0.194444 0
4.134146 0.194444 0
4.231707 0.194444 0
4.329268 0.194444 0
4.426829 0.194444 0
4.524390 0.194444 0
4.621951 0.194444 0
4.719512 0.194444 0
4.817073 0.194444 0
4.914634 0.194444 0
5.012195 0.194444 0
5.109756 0.194444 0
5.207317 0.194444 0
5.304878 0.194444 0
5.402439 0.194444 0
-2.500000 0.241667 0
-2.402439 0.241667 0
-2.304878 0.241667 0
-2.207317 0.241667 0
-2.109756 0.241667 0
-2.012195 0.241667 0
-1.914634 0.241667 0
-1.817073 0.241667 0
-1.719512 0.241667 0
-1.621951 0.241667 0
-1.524390 0.241667 0
-1.426829 0.241667 0
-1.329268 0.241667 0
-1.231707 0.241667 0
-1.134146 0.241667 0
-1.036585 0.241667 0
-0.939024 0.241667 0
-0.841463 0.241667 0
-0.743902 0.241667 0
-0.646341 0.241667 0
-0.548780 0.241667 0
-0.451220 0.241667 0
-0.353659 0.241667 0
-0.256098 0.241667 0
-0.158537 0.241667 0
-0.060976 0.241667 0
0.036585 0.241667 0
0.134146 0.241667 0
0.231707 0.241667 0
0.329268 0.241667 0
0.426829 0.241667 0
0.524390 0.241667 0
0.621951 0.241667 0
0.719512 0.241667 0
0.817073 0.241667 0
0.914634 0.241667 0
1.012195 0.241667 0
1.109756 0.241667 0
1.207317 0.241667 0
1.304878 0.241667 0
1.402439 0.241667 0
1.500000 0.241667 0
1.597561 0.241667 0
1.695122 0.241667 0
1.792683 0.241667 0
1.890244 0.241667 0
1.987805 0.241667 0
2.085366 0.241667 0
2.182927 0.241667 0
2.280488 0.241667 0
2.378049 0.241667 0
2.475610 0.241667 0
2.573171 0.241667 0
2.670732 0.241667 0
2.768293 0.241667 0
2.865854 0.241667 0
2.963415 0.241667 0
3.060976 0.241667 0
3.158537 0.241667 0
3.256098 0.241667 0
3.353659 0.241667 0
3.451220 0.241667 0
3.548780 0.241667 0
3.646341 0.241667 0
3.743902 0.241667 0
3.841463 0.241667 0
3.939024 0.241667 0
4.036585 0.241667 0
4.134146 0.241667 0
4.231707 0.241667 0
4.329268 0.241667 0
4.426829 0.241667 0
4.524390 0.241667 0
4.621951 0.241667 0
4.719512 0.241667 0
4.817073 0.241667 0
4.914634 0.241667 0
5.012195 0.241667 0
5.109756 0.241667 0
5.207317 0.241667 0
5.304878 0.241667 0
5.402439 0.241667 0
-2.500000 0.288889 0
-2.402439 0.288889 0
-2.304878 0.288889 0
-2.207317 0.288889 0
-2.109756 0.288889 0
-2.012195 0.288889 0
-1.914634 0.288889 0
-1.817073 0.288889 0
-1.719512 0.288889 0
-1.621951 0.288889 0
-1.524390 0.288889 0
-1.426829 0.288889 0
-1.329268 0.288889 0
-1.231707 0.288889 0
-1.134146 0.288889 0
-1.036585 0.288889 0
-0.939024 0.288889 0
-0.841463 0.288889 0
-0.743902 0.288889 0
-0.646341 0.288889 0
-0.548780 0.288889 0
-0.451220 0.288889 0
-0.353659 0.288889 0
-0.256098 0.288889 0
-0.158537 0.288889 0
-0.060976 0.288889 0
0.036585 0.288889 0
0.134146 0.288889 0
0.231707 0.288889 0
0.329268 0.288889 0
0.426829 0.288889 0
0.524390 0.288889 0
0.621951 0.288889 0
0.719512 0.288889 0
0.817073 0.288889 0
0.914634 0.288889 0
1.012195 0.288889 0
1.109756 0.288889 0
1.207317 0.288889 0
1.304878 0.288889 0
1.402439 0.288889 0
1.500000 0.288889 0
1.597561 0.288889 0
1.695122 0.288889 0
1.792683 0.288889 0
1.890244 0.288889 0
1.987805 0.288889 0
2.085366 0.288889 0
2.182927 0.288889 0
2.280488 0.288889 0
2.378049 0.288889 0
2.475610 0.288889 0
2.573171 0.288889 0
2.670732 0.288889 0
2.768293 0.288889 0
2.865854 0.288889 0
2.963415 0.288889 0
3.060976 0.288889 0
3.158537 0.288889 0
3.256098 0.288889 0
3.353659 0.288889 0
3.451220 0.288889 0
3.548780 0.288889 0
3.646341 0.288889 0
3.743902 0.288889 0
3.841463 0.288889 0
3.939024 0.288889 0
4.036585 0.288889 0
4.134146 0.288889 0
4.231707 0.288889 0
4.329268 0.288889 0
4.426829 0.288889 0
4.524390 0.288889 0
4.621951 0.288889 0
4.719512 0.288889 0
4.817073 0.288889 0
4.914634 0.288889 0
5.012195 0.288889 0
5.109756 0.288889 0
5.207317 0.288889 0
5.304878 0.288889 0
5.402439 0.288889 0
-2.500000 0.336111 0
-2.402439 0.336111 0
-2.304878 0.336111 0
-2.207317 0.336111 0
-2.109756 0.336111 0
-2.012195 0.336111 0
-1.914634 0.336111 0
-1.817073 0.336111 0
-1.719512 0.336111 0
-1.621951 0.336111 0
-1.524390 0.336111 0
-1.426829 0.336111 0
-1.329268 0.336111 0
-1.231707 0.336111 0
-1.134146 0.336111 0
-1.036585 0.336111 0
-0.939024 0.336111 0
-0.841463 0.336111 0
-0.743902 0.336111 0
-0.646341 0.336111 0
-0.548780 0.336111 0
-0.451220 0.336111 0
-0.353659 0.336111 0
-0.256098 0.336111 0
-0.158537 0.336111 0
-0.060976 0.336111 0
0.036585 0.336111 0
0.134146 0.336111 0
0.231707 0.336111 0
0.329268 0.336111 0
0.426829 0.336111 0
0.524390 0.336111 0
0.621951 0.336111 0
0.719512 0.336111 0
0.817073 0.336111 0
0.914634 0.336111 0
1.012195 0.336111 0
1.109756 0.336111 0
1.207317 0.336111 0
1.304878 0.336111 0
1.402439 0.336111 0
1.500000 0.336111 0
1.597561 0.336111 0
1.695122 0.336111 0
1.792683 0.336111 0
1.890244 0.336111 0
1.987805 0.336111 0
2.085366 0.336111 0
2.182927 0.336111 0
2.280488 0.336111 0
2.378049 0.336111 0
2.475610 0.336111 0
2.573171 0.336111 0
2.670732 0.336111 0
2.768293 0.336111 0
2.865854 0.336111 0
2.963415 0.336111 0
3.060976 0.336111 0
3.158537 0.336111 0
3.256098 0.336111 0
3.353659 0.336111 0
3.451220 0.336111 0
3.548780 0.336111 0
3.646341 0.336111 0
3.743902 0.336111 0
3.841463 0.336111 0
3.939024 0.336111 0
4.036585 0.336111 0
4.134146 0.336111 0
4.231707 0.336111 0
4.329268 0.336111 0
4.426829 0.336111 0
4.524390 0.336111 0
4.621951 0.336111 0
[...]
POINT_DATA 2952 

VECTORS velocity float
0.000000 0.000000 0
0.000000 0.000000 0
0.000000 0.000000 0
0.000000 0.000000 0
0.000000 0.000000 0
0.000000 0.000000 0
0.000000 0.000000 0
0.000000 0.000000 0
0.000000 0.000000 0
0.000000 0.000000 0
0.000000 0.000000 0
0.000000 0.000000 0
0.000000 0.000000 0
0.000000 0.000000 0
0.000000 0.000000 0
0.000000 0.000000 0
0.000000 0.000000 0
0.000000 0.000000 0
0.000000 0.000000 0
0.000000 0.000000 0
0.000000 0.000000 0
0.000000 0.000000 0
0.000000 0.000000 0
0.000000 0.000000 0
0.000000 0.000000 0
-0.000010 0.000000 0
-0.000011 0.000000 0
-0.000012 0.000000 0
-0.000012 0.000000 0
-0.000012 0.000000 0
-0.000012 0.000000 0
-0.000012 0.000000 0
-0.000011 0.000000 0
-0.000011 0.000000 0
-0.000011 0.000000 0
-0.000010 0.000000 0
-0.000009 0.000000 0
-0.000009 0.000000 0
-0.000008 0.000000 0
-0.000008 0.000000 0
-0.000007 0.000000 0
-0.000007 0.000000 0
-0.000006 0.000000 0
-0.000005 0.000000 0
-0.000005 0.000000 0
-0.000004 0.000000 0
-0.000003 0.000000 0
-0.000003 0.000000 0
-0.000002 0.000000 0
-0.000001 0.000000 0
-0.000000 0.000000 0
0.000000 0.000000 0
0.000001 0.000000 0
0.000002 0.000000 0
0.000003 0.000000 0
0.000003 0.000000 0
0.000004 0.000000 0
0.000005 0.000000 0
0.000006 0.000000 0
0.000006 0.000000 0
0.000007 0.000000 0
0.000008 0.000000 0
0.000008 0.000000 0
0.000007 0.000000 0
0.000004 0.000000 0
-0.000000 0.000000 0
0.000024 0.000000 0
0.000015 0.000000 0
0.000000 0.000000 0
0.000000 0.000000 0
0.000000 0.000000 0
0.000000 0.000000 0
0.000000 0.000000 0
0.000000 0.000000 0
0.000000 0.000000 0
0.000000 0.000000 0
0.000000 0.000000 0
0.000000 0.000000 0
0.000000 0.000000 0
0.000000 0.000000 0
0.000000 0.000000 0
0.000000 0.000000 0
0.000000 0.000000 0
0.000000 0.000000 0
0.000000 0.000000 0
0.000000 0.000000 0
0.000000 0.000000 0
0.000000 0.000000 0
0.000000 0.000000 0
0.000000 0.000000 0
0.000000 0.000000 0
0.000000 0.000000 0
0.000000 0.000000 0
0.000000 0.000000 0
0.000000 0.000000 0
0.000000 0.000000 0
0.000000 0.000000 0
0.000000 0.000000 0
0.000000 0.000000 0
0.000000 0.000000 0
0.000000 0.000000 0
0.000000 0.000000 0
0.000000 0.000000 0
0.000000 0.000000 0
0.000000 0.000000 0
0.000000 0.000000 0
0.004600 -0.002677 0
0.018842 -0.002794 0
0.019545 0.000791 0
0.013583 0.001685 0
0.008128 0.001180 0
0.005085 0.000551 0
0.003822 0.000181 0
0.003443 0.000026 0
0.003400 -0.000021 0
0.003452 -0.000026 0
0.003513 -0.000020 0
0.003561 -0.000013 0
0.003595 -0.000009 0
0.003621 -0.000006 0
0.003640 -0.000005 0
0.003656 -0.000004 0
0.003669 -0.000003 0
0.003681 -0.000003 0
0.003691 -0.000002 0
0.003700 -0.000002 0
0.003708 -0.000001 0
0.003713 -0.000001 0
0.003717 -0.000000 0
0.003719 0.000000 0
0.003719 0.000001 0
0.003717 0.000001 0
0.003713 0.000002 0
0.003707 0.000003 0
0.003698 0.000003 0
0.003687 0.000004 0
0.003673 0.000005 0
0.003656 0.000006 0
0.003631 0.000009 0
0.003591 0.000016 0
0.003511 0.000035 0
0.003344 0.000076 0
0.002998 0.000153 0
0.002367 0.000243 0
0.001522 0.000216 0
0.001175 -0.000159 0
0.002853 -0.000646 0
0.006638 0.000414 0
0.006660 0.000827 0
0.000016 0.000000 0
-0.000011 0.000000 0
0.000000 0.000000 0
0.000000 0.000000 0
0.000000 0.000000 0
0.000000 0.000000 0
0.000000 0.000000 0
0.000000 0.000000 0
0.000000 0.000000 0
0.000000 0.000000 0
0.000000 0.000000 0
0.000000 0.000000 0
0.000000 0.000000 0
0.000000 0.000000 0
0.000000 0.000000 0
0.000000 0.000000 0
0.000000 0.000000 0
0.000000 0.000000 0
0.000000 0.000000 0
0.000000 0.000000 0
0.000000 0.000000 0
0.000000 0.000000 0
0.000000 0.000000 0
0.000000 0.000000 0
0.000000 0.000000 0
0.000000 0.000000 0
0.000000 0.000000 0
0.000000 0.000000 0
0.000000 0.000000 0
0.000000 0.000000 0
0.000000 0.000000 0
0.000000 0.000000 0
0.000000 0.000000 0
0.000000 0.000000 0
0.000000 0.000000 0
0.000000 0.000000 0
0.000000 0.000000 0
0.000000 0.000000 0
-0.005230 -0.002261 0
0.008504 -0.009147 0
0.029964 -0.007226 0
0.031094 0.002546 0
0.021492 0.005527 0
0.012419 0.004113 0
0.007164 0.002085 0
0.004843 0.000796 0
0.004036 0.000205 0
0.003848 -0.000004 0
0.003864 -0.000054 0
0.003926 -0.000052 0
0.003985 -0.000039 0
0.004032 -0.000028 0
0.004068 -0.000021 0
0.004096 -0.000017 0
0.004119 -0.000014 0
0.004139 -0.000012 0
0.004157 -0.000010 0
0.004172 -0.000009 0
0.004185 -0.000007 0
0.004196 -0.000006 0
0.004204 -0.000004 0
0.004210 -0.000002 0
0.004214 -0.000000 0
0.004214 0.000002 0
0.004212 0.000004 0
0.004206 0.000006 0
0.004197 0.000008 0
0.004185 0.000010 0
0.004169 0.000013 0
0.004149 0.000016 0
0.004122 0.000021 0
0.004084 0.000032 0
0.004020 0.000059 0
0.003898 0.000120 0
0.003648 0.000250 0
0.003152 0.000474 0
0.002268 0.000716 0
0.001076 0.000578 0
0.000495 -0.000644 0
0.002846 -0.002643 0
0.010152 -0.001841 0
0.018487 0.003211 0
0.011089 0.003221 0
0.000007 0.000000 0
-0.000029 0.000000 0
0.000000 0.000000 0
0.000000 0.000000 0
0.000000 0.000000 0
0.000000 0.000000 0
0.000000 0.000000 0
0.000000 0.000000 0
0.000000 0.000000 0
0.000000 0.000000 0
0.000000 0.000000 0
0.000000 0.000000 0
0.000000 0.000000 0
0.000000 0.000000 0
0.000000 0.000000 0
0.000000 0.000000 0
0.000000 0.000000 0
0.000000 0.000000 0
0.000000 0.000000 0
0.000000 0.000000 0
0.000000 0.000000 0
0.000000 0.000000 0
0.000000 0.000000 0
0.000000 0.000000 0
0.000000 0.000000 0
0.000000 0.000000 0
0.000000 0.000000 0
0.000000 0.000000 0
0.000000 0.000000 0
0.000000 0.000000 0
0.000000 0.000000 0
0.000000 0.000000 0
0.000000 0.000000 0
0.000000 0.000000 0
0.000000 0.000000 0
0.000000 0.000000 0
-0.013054 0.002533 0
-0.018933 -0.004148 0
0.002832 -0.019745 0
0.031625 -0.013728 0
0.033269 0.004892 0
0.021828 0.010724 0
0.011191 0.008115 0
0.005103 0.004218 0
0.002408 0.001695 0
0.001430 0.000507 0
0.001157 0.000063 0
0.001128 -0.000063 0
0.001165 -0.000078 0
0.001210 -0.000064 0
0.001249 -0.000049 0
0.001280 -0.000037 0
0.001305 -0.000030 0
0.001326 -0.000025 0
0.001344 -0.000021 0
0.001359 -0.000018 0
0.001373 -0.000016 0
0.001385 -0.000013 0
0.001395 -0.000011 0
0.001403 -0.000008 0
0.001409 -0.000005 0
0.001413 -0.000001 0
0.001415 0.000002 0
0.001414 0.000006 0
0.001410 0.000009 0
0.001405 0.000013 0
0.001396 0.000017 0
0.001385 0.000022 0
0.001369 0.000027 0
0.001349 0.000037 0
0.001317 0.000059 0
0.001261 0.000107 0
0.001153 0.000215 0
0.000933 0.000438 0
0.000490 0.000821 0
-0.000335 0.001248 0
-0.001611 0.001075 0
-0.002730 -0.001016 0
-0.001194 -0.005320 0
0.007714 -0.007156 0
0.024875 0.000373 0
0.029867 0.008968 0
0.013941 0.005389 0
-0.000003 0.000000 0
-0.000037 0.000000 0
0.000000 0.000000 0
0.000000 0.000000 0
0.000000 0.000000 0
0.000000 0.000000 0
0.000000 0.000000 0
0.000000 0.000000 0
0.000000 0.000000 0
0.000000 0.000000 0
0.000000 0.000000 0
0.000000 0.000000 0
0.000000 0.000000 0
0.000000 0.000000 0
0.000000 0.000000 0
0.000000 0.000000 0
0.000000 0.000000 0
0.000000 0.000000 0
0.000000 0.000000 0
0.000000 0.000000 0
0.000000 0.000000 0
0.000000 0.000000 0
0.000000 0.000000 0
0.000000 0.000000 0
0.000000 0.000000 0
0.000000 0.000000 0
0.000000 0.000000 0
0.000000 0.000000 0
0.000000 0.000000 0
0.000000 0.000000 0
0.000000 0.000000 0
0.000000 0.000000 0
0.000000 0.000000 0
0.000000 0.000000 0
-0.013898 0.006369 0
-0.036964 0.009217 0
-0.036414 -0.009948 0
-0.010036 -0.033618 0
0.022923 -0.021958 0
0.025445 0.007288 0
0.014871 0.016213 0
0.005498 0.012209 0
0.000436 0.006336 0
-0.001685 0.002574 0
-0.002427 0.000810 0
-0.002640 0.000142 0
-0.002677 -0.000057 0
-0.002663 -0.000092 0
-0.002641 -0.000080 0
-0.002621 -0.000062 0
-0.002605 -0.000048 0
-0.002592 -0.000039 0
-0.002581 -0.000032 0
-0.002572 -0.000028 0
-0.002564 -0.000024 0
-0.002557 -0.000021 0
-0.002551 -0.000018 0
-0.002545 -0.000014 0
-0.002540 -0.000011 0
-0.002536 -0.000007 0
-0.002533 -0.000003 0
-0.002530 0.000002 0
-0.002528 0.000006 0
-0.002528 0.000011 0
-0.002527 0.000015 0
-0.002528 0.000020 0
-0.002530 0.000026 0
-0.002533 0.000034 0
-0.002539 0.000047 0
-0.002549 0.000075 0
-0.002572 0.000138 0
-0.002622 0.000279 0
-0.002733 0.000571 0
-0.002978 0.001088 0
-0.003524 0.001733 0
-0.004652 0.001738 0
-0.006357 -0.000845 0
-0.006576 -0.007698 0
0.001341 -0.014459 0
0.023767 -0.007511 0
0.039856 0.008543 0
0.036699 0.014508 0
0.014807 0.006769 0
-0.000010 0.000000 0
-0.000040 0.000000 0
0.000000 0.000000 0
0.000000 0.000000 0
0.000000 0.000000 0
0.000000 0.000000 0
0.000000 0.000000 0
0.000000 0.000000 0
0.000000 0.000000 0
0.000000 0.000000 0
0.000000 0.000000 0
0.000000 0.000000 0
0.000000 0.000000 0
0.000000 0.000000 0
0.000000 0.000000 0
0.000000 0.000000 0
0.000000 0.000000 0
0.000000 0.000000 0
0.000000 0.000000 0
0.000000 0.000000 0
0.000000 0.000000 0
0.000000 0.000000 0
0.000000 0.000000 0
0.000000 0.000000 0
0.000000 0.000000 0
0.000000 0.000000 0
0.000000 0.000000 0
0.000000 0.000000 0
0.000000 0.000000 0
0.000000 0.000000 0
0.000000 0.000000 0
0.000000 0.000000 0
-0.009166 0.006777 0
-0.035949 0.017992 0
-0.054714 0.013482 0
-0.052593 -0.017182 0
-0.026504 -0.048466 0
0.005028 -0.030902 0
0.008789 0.008790 0
0.002743 0.020379 0
-0.002037 0.015102 0
-0.004151 0.007695 0
-0.004814 0.003081 0
-0.004968 0.000970 0
-0.004993 0.000183 0
-0.004997 -0.000052 0
-0.004998 -0.000095 0
-0.005000 -0.000084 0
-0.005003 -0.000066 0
-0.005005 -0.000051 0
-0.005007 -0.000041 0
-0.005010 -0.000034 0
-0.005012 -0.000029 0
-0.005013 -0.000025 0
-0.005015 -0.000022 0
-0.005016 -0.000019 0
-0.005016 -0.000015 0
-0.005016 -0.000012 0
-0.005015 -0.000008 0
-0.005014 -0.000004 0
-0.005011 0.000000 0
-0.005008 0.000005 0
-0.005003 0.000009 0
-0.004998 0.000014 0
-0.004992 0.000019 0
-0.004984 0.000024 0
-0.004975 0.000032 0
-0.004964 0.000046 0
-0.004951 0.000075 0
-0.004935 0.000142 0
-0.004913 0.000293 0
-0.004883 0.000610 0
-0.004863 0.001205 0
-0.004975 0.002059 0
-0.005612 0.002446 0
-0.007354 -0.000084 0
-0.009209 -0.009046 0
-0.004521 -0.021843 0
0.017586 -0.018269 0
0.039478 0.002709 0
0.047661 0.017556 0
0.038261 0.017820 0
0.014054 0.007181 0
-0.000016 0.000000 0
-0.000038 0.000000 0
0.000000 0.000000 0
0.000000 0.000000 0
0.000000 0.000000 0
0.000000 0.000000 0
0.000000 0.000000 0
0.000000 0.000000 0
0.000000 0.000000 0
0.000000 0.000000 0
0.000000 0.000000 0
-0.000645 0.000000 0
-0.000645 0.000000 0
-0.001014 0.000000 0
-0.001171 0.000000 0
-0.001244 0.000000 0
-0.001281 0.000000 0
-0.001304 0.000000 0
-0.001322 0.000000 0
-0.001337 0.000000 0
-0.001351 0.000000 0
-0.001361 0.000000 0
-0.001368 0.000000 0
-0.001374 0.000000 0
-0.001402 0.000000 0
-0.001544 0.000000 0
-0.002061 0.000000 0
-0.003391 0.000000 0
-0.005713 0.000000 0
0.000000 0.000000 0
-0.001245 0.004459 0
-0.021255 0.017473 0
-0.046183 0.028466 0
-0.063159 0.017273 0
-0.062732 -0.023602 0
-0.041245 -0.061508 0
-0.016617 -0.039041 0
-0.012577 0.008395 0
-0.010933 0.021453 0
-0.008553 0.015546 0
-0.006510 0.007681 0
-0.005302 0.002969 0
-0.004758 0.000897 0
-0.004573 0.000156 0
-0.004539 -0.000055 0
-0.004553 -0.000090 0
-0.004578 -0.000078 0
-0.004602 -0.000060 0
-0.004621 -0.000046 0
-0.004638 -0.000036 0
-0.004651 -0.000030 0
-0.004663 -0.000026 0
-0.004674 -0.000022 0
-0.004683 -0.000019 0
-0.004690 -0.000017 0
-0.004696 -0.000014 0
-0.004701 -0.000011 0
-0.004704 -0.000008 0
-0.004705 -0.000004 0
-0.004704 -0.000001 0
-0.004701 0.000003 0
-0.004695 0.000006 0
-0.004688 0.000010 0
-0.004677 0.000014 0
-0.004665 0.000018 0
-0.004649 0.000024 0
-0.004628 0.000036 0
-0.004599 0.000061 0
-0.004553 0.000120 0
-0.004471 0.000254 0
-0.004316 0.000547 0
-0.004038 0.001133 0
-0.003638 0.002096 0
-0.003407 0.002889 0
-0.004236 0.000896 0
-0.006774 -0.009069 0
-0.006862 -0.027428 0
0.009908 -0.028808 0
0.030978 -0.006014 0
0.045813 0.015097 0
0.048235 0.023076 0
0.035566 0.018567 0
0.011627 0.006810 0
-0.000021 0.000000 0
-0.002423 0.000000 0
-0.001141 0.000000 0
-0.000921 0.000000 0
-0.000856 0.000000 0
-0.000728 0.000000 0
-0.000470 0.000000 0
-0.000149 0.000000 0
0.000001 0.000000 0
0.000000 0.000000 0
0.000000 0.000000 0
0.000006 0.000000 0
0.000005 0.000000 0
0.000005 0.000000 0
0.000004 0.000000 0
0.000004 0.000000 0
0.000004 0.000000 0
0.000004 0.000000 0
0.000005 0.000000 0
0.000005 0.000000 0
0.000005 0.000000 0
0.000005 0.000000 0
0.000005 0.000000 0
0.000006 0.000000 0
0.000006 0.000000 0
0.000006 0.000000 0
0.000005 0.000000 0
0.000000 0.000000 0
0.007902 0.000605 0
0.000099 0.010313 0
-0.022232 0.028551 0
-0.044822 0.038275 0
-0.060239 0.021493 0
-0.062397 -0.027789 0
-0.047763 -0.070787 0
-0.032857 -0.044778 0
-0.031524 0.006038 0
-0.021610 0.018432 0
-0.011865 0.012961 0
-0.005990 0.006122 0
-0.003285 0.002233 0
-0.002277 0.000617 0
-0.001990 0.000078 0
-0.001955 -0.000061 0
-0.001991 -0.000075 0
-0.002036 -0.000061 0
-0.002075 -0.000045 0
-0.002106 -0.000033 0
-0.002131 -0.000026 0
-0.002151 -0.000021 0
-0.002169 -0.000018 0
-0.002184 -0.000016 0
-0.002198 -0.000014 0
-0.002209 -0.000012 0
-0.002219 -0.000010 0
-0.002226 -0.000008 0
-0.002232 -0.000006 0
-0.002235 -0.000004 0
-0.002236 -0.000002 0
-0.002235 0.000001 0
-0.002230 0.000003 0
-0.002223 0.000006 0
-0.002214 0.000008 0
-0.002201 0.000011 0
-0.002185 0.000014 0
-0.002162 0.000022 0
-0.002129 0.000039 0
-0.002072 0.000081 0
-0.001961 0.000179 0
-0.001734 0.000401 0
-0.001277 0.000876 0
-0.000434 0.001754 0
0.000798 0.002736 0
0.001606 0.001546 0
-0.000421 -0.007775 0
-0.006057 -0.029917 0
0.002709 -0.036584 0
0.018136 -0.014670 0
0.034003 0.009203 0
0.044419 0.022780 0
0.043221 0.024932 0
0.028635 0.017247 0
0.008293 0.005627 0
-0.000022 0.000000 0
-0.000011 0.000000 0
-0.000008 0.000000 0
-0.000006 0.000000 0
-0.000005 0.000000 0
-0.000003 0.000000 0
-0.000001 0.000000 0
0.000000 0.000000 0
-2.500000 0.000000 0
0.002050 -0.000692 0
0.002061 -0.000523 0
0.003227 -0.000254 0
0.003816 -0.000111 0
0.004117 -0.000053 0
0.004279 -0.000029 0
0.004377 -0.000020 0
0.004449 -0.000016 0
0.004509 -0.000014 0
0.004561 -0.000012 0
0.004606 -0.000009 0
0.004646 -0.000006 0
0.004702 -0.000016 0
0.004865 -0.000082 0
0.005444 -0.000319 0
0.007185 -0.000893 0
0.011123 -0.001765 0
0.016940 -0.002243 0
0.019433 0.002658 0
0.005338 0.019047 0
-0.015903 0.039216 0
-0.034019 0.046862 0
-0.045916 0.025780 0
-0.049010 -0.029641 0
-0.041075 -0.075806 0
-0.035580 -0.046901 0
-0.039861 0.002951 0
-0.024768 0.011938 0
-0.010953 0.007986 0
-0.003508 0.003528 0
-0.000472 0.001172 0
0.000508 0.000270 0
0.000727 0.000001 0
0.000716 -0.000054 0
0.000657 -0.000050 0
0.000601 -0.000037 0
0.000558 -0.000026 0
0.000525 -0.000018 0
0.000500 -0.000014 0
0.000480 -0.000011 0
0.000463 -0.000009 0
0.000448 -0.000008 0
0.000435 -0.000007 0
0.000424 -0.000006 0
0.000414 -0.000005 0
0.000406 -0.000004 0
0.000400 -0.000003 0
0.000396 -0.000002 0
0.000394 -0.000001 0
0.000394 -0.000000 0
0.000396 0.000001 0
0.000401 0.000002 0
0.000407 0.000003 0
0.000416 0.000004 0
0.000428 0.000006 0
0.000445 0.000009 0
0.000471 0.000018 0
0.000519 0.000039 0
0.000620 0.000091 0
0.000841 0.000216 0
0.001323 0.000504 0
0.002333 0.001092 0
0.004185 0.001902 0
0.006476 0.001486 0
0.005793 -0.005360 0
-0.004720 -0.028943 0
-0.003833 -0.040517 0
0.004270 -0.021161 0
0.017015 0.002376 0
0.030502 0.018614 0
0.037656 0.026207 0
0.033101 0.023736 0
0.019475 0.012709 0
0.008076 0.003460 0
0.004392 0.000721 0
0.003366 0.000136 0
0.002932 0.000093 0
0.002389 0.000187 0
0.001511 0.000279 0
0.000507 0.000227 0
-0.000002 0.000072 0
-5.000000 0.000000 0
0.002746 -0.002116 0
0.002756 -0.001620 0
0.004425 -0.000849 0
0.005399 -0.000431 0
0.005940 -0.000224 0
0.006240 -0.000126 0
0.006421 -0.000082 0
0.006548 -0.000064 0
0.006650 -0.000054 0
0.006738 -0.000047 0
0.006819 -0.000041 0
0.006905 -0.000046 0
0.007043 -0.000106 0
0.007391 -0.000359 0
0.008389 -0.001123 0
0.010938 -0.002748 0
0.015964 -0.004721 0
0.022085 -0.004084 0
0.021700 0.006158 0
0.008535 0.027417 0
-0.006978 0.047601 0
-0.017674 0.052802 0
-0.023138 0.028749 0
-0.024283 -0.030132 0
-0.021885 -0.077287 0
-0.023628 -0.045365 0
-0.030950 0.000805 0
-0.017415 0.004440 0
-0.006287 0.002671 0
-0.000916 0.001049 0
0.001002 0.000289 0
0.001507 0.000036 0
0.001561 -0.000023 0
0.001509 -0.000027 0
0.001450 -0.000019 0
0.001405 -0.000013 0
0.001374 -0.000008 0
0.001352 -0.000005 0
0.001336 -0.000004 0
0.001324 -0.000003 0
0.001313 -0.000003 0
0.001305 -0.000002 0
0.001297 -0.000002 0
0.001290 -0.000002 0
0.001284 -0.000001 0
0.001279 -0.000001 0
0.001276 -0.000001 0
0.001273 -0.000001 0
0.001272 -0.000000 0
0.001271 -0.000000 0
0.001272 0.000000 0
0.001274 0.000000 0
0.001277 0.000001 0
0.001281 0.000001 0
0.001286 0.000001 0
0.001294 0.000002 0
0.001306 0.000003 0
0.001331 0.000009 0
0.001387 0.000023 0
0.001520 0.000061 0
0.001834 0.000154 0
0.002561 0.000369 0
0.004091 0.000731 0
0.006492 0.000768 0
0.007162 -0.002355 0
-0.004502 -0.025258 0
-0.009771 -0.040935 0
-0.008257 -0.024760 0
-0.000283 -0.003493 0
0.012132 0.012790 0
0.023272 0.023675 0
0.026717 0.026047 0
0.020897 0.017741 0
0.011980 0.007302 0
0.007290 0.002281 0
0.005387 0.000708 0
0.004400 0.000474 0
0.003392 0.000689 0
0.002038 0.000912 0
0.000661 0.000733 0
-0.000002 0.000246 0
-5.000000 0.000000 0
0.002040 -0.003475 0
0.002052 -0.002721 0
0.003558 -0.001533 0
0.004562 -0.000844 0
0.005162 -0.000460 0
0.005507 -0.000262 0
0.005714 -0.000168 0
0.005854 -0.000126 0
0.005963 -0.000106 0
0.006057 -0.000094 0
0.006148 -0.000089 0
0.006258 -0.000114 0
0.006447 -0.000251 0
0.006878 -0.000734 0
0.007921 -0.002036 0
0.010166 -0.004559 0
0.013894 -0.007160 0
0.017407 -0.005019 0
0.015573 0.009217 0
0.007518 0.032928 0
0.000993 0.051902 0
-0.000260 0.054685 0
0.002578 0.028979 0
0.005081 -0.030247 0
0.001952 -0.076123 0
-0.007228 -0.042456 0
-0.000012 0.000000 0
-0.000010 0.000000 0
-0.000013 0.000000 0
-0.000013 0.000000 0
-0.000012 0.000000 0
-0.000011 0.000000 0
-0.000011 0.000000 0
-0.000010 0.000000 0
-0.000009 0.000000 0
-0.000009 0.000000 0
-0.000008 0.000000 0
-0.000008 0.000000 0
-0.000007 0.000000 0
-0.000006 0.000000 0
-0.000006 0.000000 0
-0.000005 0.000000 0
-0.000005 0.000000 0
-0.000004 0.000000 0
-0.000003 0.000000 0
-0.000003 0.000000 0
-0.000002 0.000000 0
-0.000001 0.000000 0
-0.000000 0.000000 0
0.000000 0.000000 0
0.000001 0.000000 0
0.000002 0.000000 0
0.000002 0.000000 0
0.000003 0.000000 0
0.000004 0.000000 0
0.000005 0.000000 0
0.000006 0.000000 0
0.000006 0.000000 0
0.000007 0.000000 0
0.000008 0.000000 0
0.000009 0.000000 0
0.000011 0.000000 0
0.000012 0.000000 0
0.000015 0.000000 0
0.000025 0.000000 0
-0.002350 -0.020708 0
-0.014086 -0.038700 0
-0.017823 -0.025752 0
-0.014366 -0.007493 0
-0.005328 0.007213 0
0.005903 0.019148 0
0.014143 0.024886 0
0.015318 0.019843 0
0.011002 0.010046 0
0.007308 0.003913 0
0.005228 0.001536 0
0.003953 0.001059 0
0.002772 0.001331 0
0.001443 0.001602 0
0.000337 0.001213 0
-0.000001 0.000392 0
-5.000000 0.000000 0
0.000637 -0.004213 0
0.000651 -0.003398 0
0.001529 -0.002064 0
0.002239 -0.001207 0
0.002704 -0.000681 0
0.002983 -0.000392 0
0.003152 -0.000250 0
0.003264 -0.000184 0
0.003349 -0.000152 0
0.003422 -0.000137 0
0.003498 -0.000138 0
0.003599 -0.000190 0
0.003780 -0.000406 0
0.004153 -0.001072 0
0.004891 -0.002714 0
0.006102 -0.005640 0
0.007421 -0.008226 0
0.007575 -0.004897 0
0.005234 0.010945 0
0.003510 0.034474 0
0.006557 0.051365 0
0.014697 0.052035 0
0.025330 0.026164 0
0.030462 -0.029829 0
0.019905 -0.071344 0
-0.000016 0.000064 0
0.010749 0.039232 0
0.005434 0.000000 0
0.001575 0.000000 0
-0.000087 0.000000 0
-0.000592 0.000000 0
-0.000683 0.000000 0
-0.000665 0.000000 0
-0.000634 0.000000 0
-0.000609 0.000000 0
-0.000593 0.000000 0
-0.000582 0.000000 0
-0.000575 0.000000 0
-0.000570 0.000000 0
-0.000566 0.000000 0
-0.000563 0.000000 0
-0.000560 0.000000 0
-0.000557 0.000000 0
-0.000555 0.000000 0
-0.000552 0.000000 0
-0.000551 0.000000 0
-0.000549 0.000000 0
-0.000548 0.000000 0
-0.000546 0.000000 0
-0.000546 0.000000 0
-0.000545 0.000000 0
-0.000545 0.000000 0
-0.000545 0.000000 0
-0.000545 0.000000 0
-0.000545 0.000000 0
-0.000546 0.000000 0
-0.000547 0.000000 0
-0.000551 0.000000 0
-0.000564 0.000000 0
-0.000598 0.000000 0
-0.000688 0.000000 0
-0.000915 0.000000 0
-0.001448 0.000000 0
-0.002422 0.000000 0