# vtk DataFile Version 2.0
generated by CFD-lab course output (written by Tobias Neckel) 
ASCII

DATASET STRUCTURED_GRID
DIMENSIONS  82 36 1 
POINTS 2952 float

-2.500000 0.100000 0
-2.402439 0.100000 0
-2.304878 0.100000 0
-2.207317 0.100000 0
-2.109756 0.100000 0
-2.012195 0.100000 0
-1.914634 0.100000 0
-1.817073 0.100000 0
-1.719512 0.100000 0
-1.621951 0.100000 0
-1.524390 0.100000 0
-1.426829 0.100000 0
-1.329268 0.100000 0
-1.231707 0.100000 0
-1.134146 0.100000 0
-1.036585 0.100000 0
-0.939024 0.100000 0
-0.841463 0.100000 0
-0.743902 0.100000 0
-0.646341 0.100000 0
-0.548780 0.100000 0
-0.451220 0.100000 0
-0.353659 0.100000 0
-0.256098 0.100000 0
-0.158537 0.100000 0
-0.060976 0.100000 0
0.036585 0.100000 0
0.134146 0.100000 0
0.231707 0.100000 0
0.329268 0.100000 0
0.426829 0.100000 0
0.524390 0.100000 0
0.621951 0.100000 0
0.719512 0.100000 0
0.817073 0.100000 0
0.914634 0.100000 0
1.012195 0.100000 0
1.109756 0.100000 0
1.207317 0.100000 0
1.304878 0.100000 0
1.402439 0.100000 0
1.500000 0.100000 0
1.597561 0.100000 0
1.695122 0.100000 0
1.792683 0.100000 0
1.890244 0.100000 0
1.987805 0.100000 0
2.085366 0.100000 0
2.182927 0.100000 0
2.280488 0.100000 0
2.378049 0.100000 0
2.475610 0.100000 0
2.573171 0.100000 0
2.670732 0.100000 0
2.768293 0.100000 0
2.865854 0.100000 0
2.963415 0.100000 0
3.060976 0.100000 0
3.158537 0.100000 0
3.256098 0.100000 0
3.353659 0.100000 0
3.451220 0.100000 0
3.548780 0.100000 0
3.646341 0.100000 0
3.743902 0.100000 0
3.841463 0.100000 0
3.939024 0.100000 0
4.036585 0.100000 0
4.134146 0.100000 0
4.231707 0.100000 0
4.329268 0.100000 0
4.426829 0.100000 0
4.524390 0.100000 0
4.621951 0.100000 0
4.719512 0.100000 0
4.817073 0.100000 0
4.914634 0.100000 0
5.012195 0.100000 0
5.109756 0.100000 0
5.207317 0.100000 0
5.304878 0.100000 0
5.402439 0.100000 0
-2.500000 0.147222 0
-2.402439 0.147222 0
-2.304878 0.147222 0
-2.207317 0.147222 0
-2.109756 0.147222 0
-2.012195 0.147222 0
-1.914634 0.147222 0
-1.817073 0.147222 0
-1.719512 0.147222 0
-1.621951 0.147222 0
-1.524390 0.147222 0
-1.426829 0.147222 0
-1.329268 0.147222 0
-1.231707 0.147222 0
-1.134146 0.147222 0
-1.036585 0.147222 0
-0.939024 0.147222 0
-0.841463 0.147222 0
-0.743902 0.147222 0
-0.646341 0.147222 0
-0.548780 0.147222 0
-0.451220 0.147222 0
-0.353659 0.147222 0
-0.256098 0.147222 0
-0.158537 0.147222 0
-0.060976 0.147222 0
0.036585 0.147222 0
0.134146 0.147222 0
0.231707 0.147222 0
0.329268 0.147222 0
0.426829 0.147222 0
0.524390 0.147222 0
0.621951 0.147222 0
0.719512 0.147222 0
0.817073 0.147222 0
0.914634 0.147222 0
1.012195 0.147222 0
1.109756 0.147222 0
1.207317 0.147222 0
1.304878 0.147222 0
1.402439 0.147222 0
1.500000 0.147222 0
1.597561 0.147222 0
1.695122 0.147222 0
1.792683 0.147222 0
1.890244 0.147222 0
1.987805 0.147222 0
2.085366 0.147222 0
2.182927 0.147222 0
2.280488 0.147222 0
2.378049 0.147222 0
2.475610 0.147222 0
2.573171 0.147222 0
2.670732 0.147222 0
2.768293 0.147222 0
2.865854 0.147222 0
2.963415 0.147222 0
3.060976 0.147222 0
3.158537 0.147222 0
3.256098 0.147222 0
3.353659 0.147222 0
3.451220 0.147222 0
3.548780 0.147222 0
3.646341 0.147222 0
3.743902 0.147222 0
3.841463 0.147222 0
3.939024 0.147222 0
4.036585 0.147222 0
4.134146 0.147222 0
4.231707 0.147222 0
4.329268 0.147222 0
4.426829 0.147222 0
4.524390 0.147222 0
4.621951 0.147222 0
4.719512 0.147222 0
4.817073 0.147222 0
4.914634 0.147222 0
5.012195 0.147222 0
5.109756 0.147222 0
5.207317 0.147222 0
5.304878 0.147222 0
5.402439 0.147222 0
-2.500000 0.194444 0
-2.402439 0.194444 0
-2.304878 0.194444 0
-2.207317 0.194444 0
-2.109756 0.194444 0
-2.012195 0.194444 0
-1.914634 0.194444 0
-1.817073 0.194444 0
-1.719512 0.194444 0
-1.621951 0.194444 0
-1.524390 0.194444 0
-1.426829 0.194444 0
-1.329268 0.194444 0
-1.231707 0.194444 0
-1.134146 0.194444 0
-1.036585 0.194444 0
-0.939024 0.194444 0
-0.841463 0.194444 0
-0.743902 0.194444 0
-0.646341 0.194444 0
-0.548780 0.194444 0
-0.451220 0.194444 0
-0.353659 0.194444 0
-0.256098 0.194444 0
-0.158537 0.194444 0
-0.060976 0.194444 0
0.036585 0.194444 0
0.134146 0.194444 0
0.231707 0.194444 0
0.329268 0.194444 0
0.426829 0.194444 0
0.524390 0.194444 0
0.621951 0.194444 0
0.719512 0.194444 0
0.817073 0.194444 0
0.914634 0.194444 0
1.012195 0.194444 0
1.109756 0.194444 0
1.207317 0.194444 0
1.304878 0.194444 0
1.402439 0.194444 0
1.500000 0.194444 0
1.597561 0.194444 0
1.695122 0.194444 0
1.792683 0.194444 0
1.890244 0.194444 0
1.987805 0.194444 0
2.085366 0.194444 0
2.182927 0.194444 0
2.280488 0.194444 0
2.378049 0.194444 0
2.475610 0.194444 0
2.573171 0.194444 0
2.670732 0.194444 0
2.768293 0.194444 0
2.865854 0.194444 0
2.963415 0.194444 0
3.060976 0.194444 0
3.158537 0.194444 0
3.256098 0.194444 0
3.353659 0.194444 0
3.451220 0.194444 0
3.548780 0.194444 0
3.646341 0.194444 0
3.743902 0.194444 0
3.841463 0.194444 0
3.939024 0.194444 0
4.036585 0.194444 0
4.134146 0.194444 0
4.231707 0.194444 0
4.329268 0.194444 0
4.426829 0.194444 0
4.524390 0.194444 0
4.621951 0.194444 0
4.719512 0.194444 0
4.817073 0.194444 0
4.914634 0.194444 0
5.012195 0.194444 0
5.109756 0.194444 0
5.207317 0.194444 0
5.304878 0.194444 0
5.402439 0.194444 0
-2.500000 0.241667 0
-2.402439 0.241667 0
-2.304878 0.241667 0
-2.207317 0.241667 0
-2.109756 0.241667 0
-2.012195 0.241667 0
-1.914634 0.241667 0
-1.817073 0.241667 0
-1.719512 0.241667 0
-1.621951 0.241667 0
-1.524390 0.241667 0
-1.426829 0.241667 0
-1.329268 0.241667 0
-1.231707 0.241667 0
-1.134146 0.241667 0
-1.036585 0.241667 0
-0.939024 0.241667 0
-0.841463 0.241667 0
-0.743902 0.241667 0
-0.646341 0.241667 0
-0.548780 0.241667 0
-0.451220 0.241667 0
-0.353659 0.241667 0
-0.256098 0.241667 0
-0.158537 0.241667 0
-0.060976 0.241667 0
0.036585 0.241667 0
0.134146 0.241667 0
0.231707 0.241667 0
0.329268 0.241667 0
0.426829 0.241667 0
0.524390 0.241667 0
0.621951 0.241667 0
0.719512 0.241667 0
0.817073 0.241667 0
0.914634 0.241667 0
1.012195 0.241667 0
1.109756 0.241667 0
1.207317 0.241667 0
1.304878 0.241667 0
1.402439 0.241667 0
1.500000 0.241667 0
1.597561 0.241667 0
1.695122 0.241667 0
1.792683 0.241667 0
1.890244 0.241667 0
1.987805 0.241667 0
2.085366 0.241667 0
2.182927 0.241667 0
2.280488 0.241667 0
2.378049 0.241667 0
2.475610 0.241667 0
2.573171 0.241667 0
2.670732 0.241667 0
2.768293 0.241667 0
2.865854 0.241667 0
2.963415 0.241667 0
3.060976 0.241667 0
3.158537 0.241667 0
3.256098 0.241667 0
3.353659 0.241667 0
3.451220 0.241667 0
3.548780 0.241667 0
3.646341 0.241667 0
3.743902 0.241667 0
3.841463 0.241667 0
3.939024 0.241667 0
4.036585 0.241667 0
4.134146 0.241667 0
4.231707 0.241667 0
4.329268 0.241667 0
4.426829 0.241667 0
4.524390 0.241667 0
4.621951 0.241667 0
4.719512 0.241667 0
4.817073 0.241667 0
4.914634 0.241667 0
5.012195 0.241667 0
5.109756 0.241667 0
5.207317 0.241667 0
5.304878 0.241667 0
5.402439 0.241667 0
-2.500000 0.288889 0
-2.402439 0.288889 0
-2.304878 0.288889 0
-2.207317 0.288889 0
-2.109756 0.288889 0
-2.012195 0.288889 0
-1.914634 0.288889 0
-1.817073 0.288889 0
-1.719512 0.288889 0
-1.621951 0.288889 0
-1.524390 0.288889 0
-1.426829 0.288889 0
-1.329268 0.288889 0
-1.231707 0.288889 0
-1.134146 0.288889 0
-1.036585 0.288889 0
-0.939024 0.288889 0
-0.841463 0.288889 0
-0.743902 0.288889 0
-0.646341 0.288889 0
-0.548780 0.288889 0
-0.451220 0.288889 0
-0.353659 0.288889 0
-0.256098 0.288889 0
-0.158537 0.288889 0
-0.060976 0.288889 0
0.036585 0.288889 0
0.134146 0.288889 0
0.231707 0.288889 0
0.329268 0.288889 0
0.426829 0.288889 0
0.524390 0.288889 0
0.621951 0.288889 0
0.719512 0.288889 0
0.817073 0.288889 0
0.914634 0.288889 0
1.012195 0.288889 0
1.109756 0.288889 0
1.207317 0.288889 0
1.304878 0.288889 0
1.402439 0.288889 0
1.500000 0.288889 0
1.597561 0.288889 0
1.695122 0.288889 0
1.792683 0.288889 0
1.890244 0.288889 0
1.987805 0.288889 0
2.085366 0.288889 0
2.182927 0.288889 0
2.280488 0.288889 0
2.378049 0.288889 0
2.475610 0.288889 0
2.573171 0.288889 0
2.670732 0.288889 0
2.768293 0.288889 0
2.865854 0.288889 0
2.963415 0.288889 0
3.060976 0.288889 0
3.158537 0.288889 0
3.256098 0.288889 0
3.353659 0.288889 0
3.451220 0.288889 0
3.548780 0.288889 0
3.646341 0.288889 0
3.743902 0.288889 0
3.841463 0.288889 0
3.939024 0.288889 0
4.036585 0.288889 0
4.134146 0.288889 0
4.231707 0.288889 0
4.329268 0.288889 0
4.426829 0.288889 0
4.524390 0.288889 0
4.621951 0.288889 0
4.719512 0.288889 0
4.817073 0.288889 0
4.914634 0.288889 0
5.012195 0.288889 0
5.109756 0.288889 0
5.207317 0.288889 0
5.304878 0.288889 0
5.402439 0.288889 0
-2.500000 0.336111 0
-2.402439 0.336111 0
-2.304878 0.336111 0
-2.207317 0.336111 0
-2.109756 0.336111 0
-2.012195 0.336111 0
-1.914634 0.336111 0
-1.817073 0.336111 0
-1.719512 0.336111 0
-1.621951 0.336111 0
-1.524390 0.336111 0
-1.426829 0.336111 0
-1.329268 0.336111 0
-1.231707 0.336111 0
-1.134146 0.336111 0
-1.036585 0.336111 0
-0.939024 0.336111 0
-0.841463 0.336111 0
-0.743902 0.336111 0
-0.646341 0.336111 0
-0.548780 0.336111 0
-0.451220 0.336111 0
-0.353659 0.336111 0
-0.256098 0.336111 0
-0.158537 0.336111 0
-0.060976 0.336111 0
0.036585 0.336111 0
0.134146 0.336111 0
0.231707 0.336111 0
0.329268 0.336111 0
0.426829 0.336111 0
0.524390 0.336111 0
0.621951 0.336111 0
0.719512 0.336111 0
0.817073 0.336111 0
0.914634 0.336111 0
1.012195 0.336111 0
1.109756 0.336111 0
1.207317 0.336111 0
1.304878 0.336111 0
1.402439 0.336111 0
1.500000 0.336111 0
1.597561 0.336111 0
1.695122 0.336111 0
1.792683 0.336111 0
1.890244 0.336111 0
1.987805 0.336111 0
2.085366 0.336111 0
2.182927 0.336111 0
2.280488 0.336111 0
2.378049 0.336111 0
2.475610 0.336111 0
2.573171 0.336111 0
2.670732 0.336111 0
2.768293 0.336111 0
2.865854 0.336111 0
2.963415 0.336111 0
3.060976 0.336111 0
3.158537 0.336111 0
3.256098 0.336111 0
3.353659 0.336111 0
3.451220 0.336111 0
3.548780 0.336111 0
3.646341 0.336111 0
3.743902 0.336111 0
3.841463 0.336111 0
3.939024 0.336111 0
4.036585 0.336111 0
4.134146 0.336111 0
4.231707 0.336111 0
4.329268 0.336111 0
4.426829 0.336111 0
4.524390 0.336111 0
4.621951 0.336111 0
[...]
POINT_DATA 2952 

VECTORS velocity float
0.000000 0.000000 0
0.000000 0.000000 0
0.000000 0.000000 0
0.000000 0.000000 0
0.000000 0.000000 0
0.000000 0.000000 0
0.000000 0.000000 0
0.000000 0.000000 0
0.000000 0.000000 0
0.000000 0.000000 0
0.000000 0.000000 0
0.000000 0.000000 0
0.000000 0.000000 0
0.000000 0.000000 0
0.000000 0.000000 0
0.000000 0.000000 0
0.000000 0.000000 0
0.000000 0.000000 0
0.000000 0.000000 0
0.000000 0.000000 0
0.000000 0.000000 0
0.000000 0.000000 0
0.000000 0.000000 0
0.000000 0.000000 0
0.000000 0.000000 0
-0.000001 0.000000 0
-0.000001 0.000000 0
-0.000001 0.000000 0
-0.000000 0.000000 0
-0.000000 0.000000 0
-0.000000 0.000000 0
-0.000000 0.000000 0
-0.000000 0.000000 0
-0.000000 0.000000 0
-0.000000 0.000000 0
-0.000000 0.000000 0
0.000000 0.000000 0
0.000000 0.000000 0
0.000000 0.000000 0
0.000000 0.000000 0
0.000000 0.000000 0
0.000000 0.000000 0
0.000000 0.000000 0
0.000000 0.000000 0
0.000000 0.000000 0
0.000000 0.000000 0
0.000000 0.000000 0
0.000000 0.000000 0
0.000000 0.000000 0
0.000001 0.000000 0
0.000001 0.000000 0
0.000001 0.000000 0
0.000001 0.000000 0
0.000001 0.000000 0
0.000001 0.000000 0
0.000001 0.000000 0
0.000001 0.000000 0
0.000001 0.000000 0
0.000001 0.000000 0
0.000001 0.000000 0
0.000001 0.000000 0
0.000001 0.000000 0
0.000001 0.000000 0
0.000001 0.000000 0
0.000001 0.000000 0
0.000001 0.000000 0
-0.000000 0.000000 0
0.000001 0.000000 0
0.000000 0.000000 0
0.000000 0.000000 0
0.000000 0.000000 0
0.000000 0.000000 0
0.000000 0.000000 0
0.000000 0.000000 0
0.000000 0.000000 0
0.000000 0.000000 0
0.000000 0.000000 0
0.000000 0.000000 0
0.000000 0.000000 0
0.000000 0.000000 0
0.000000 0.000000 0
0.000000 0.000000 0
0.000000 0.000000 0
0.000000 0.000000 0
0.000000 0.000000 0
0.000000 0.000000 0
0.000000 0.000000 0
0.000000 0.000000 0
0.000000 0.000000 0
0.000000 0.000000 0
0.000000 0.000000 0
0.000000 0.000000 0
0.000000 0.000000 0
0.000000 0.000000 0
0.000000 0.000000 0
0.000000 0.000000 0
0.000000 0.000000 0
0.000000 0.000000 0
0.000000 0.000000 0
0.000000 0.000000 0
0.000000 0.000000 0
0.000000 0.000000 0
0.000000 0.000000 0
0.000000 0.000000 0
0.000000 0.000000 0
0.000000 0.000000 0
0.000036 -0.000037 0
0.000236 -0.000048 0
0.000312 -0.000000 0
0.000254 0.000028 0
0.000144 0.000032 0
0.000049 0.000022 0
-0.000006 0.000011 0
-0.000027 0.000003 0
-0.000029 -0.000001 0
-0.000023 -0.000002 0
-0.000017 -0.000001 0
-0.000013 -0.000001 0
-0.000011 -0.000000 0
-0.000011 0.000000 0
-0.000011 0.000000 0
-0.000011 0.000000 0
-0.000011 0.000000 0
-0.000011 0.000000 0
-0.000010 0.000000 0
-0.000010 0.000000 0
-0.000010 0.000000 0
-0.000010 0.000000 0
-0.000010 0.000000 0
-0.000010 0.000000 0
-0.000010 0.000000 0
-0.000010 0.000000 0
-0.000010 0.000000 0
-0.000010 0.000000 0
-0.000010 0.000000 0
-0.000010 -0.000000 0
-0.000009 -0.000000 0
-0.000009 -0.000000 0
-0.000008 -0.000000 0
-0.000006 -0.000000 0
-0.000007 0.000001 0
-0.000011 0.000002 0
-0.000025 0.000006 0
-0.000052 0.000010 0
-0.000093 0.000013 0
-0.000137 0.000011 0
-0.000156 -0.000002 0
-0.000112 -0.000024 0
-0.000012 -0.000018 0
-0.000000 0.000000 0
0.000001 0.000000 0
0.000000 0.000000 0
0.000000 0.000000 0
0.000000 0.000000 0
0.000000 0.000000 0
0.000000 0.000000 0
0.000000 0.000000 0
0.000000 0.000000 0
0.000000 0.000000 0
0.000000 0.000000 0
0.000000 0.000000 0
0.000000 0.000000 0
0.000000 0.000000 0
0.000000 0.000000 0
0.000000 0.000000 0
0.000000 0.000000 0
0.000000 0.000000 0
0.000000 0.000000 0
0.000000 0.000000 0
0.000000 0.000000 0
0.000000 0.000000 0
0.000000 0.000000 0
0.000000 0.000000 0
0.000000 0.000000 0
0.000000 0.000000 0
0.000000 0.000000 0
0.000000 0.000000 0
0.000000 0.000000 0
0.000000 0.000000 0
0.000000 0.000000 0
0.000000 0.000000 0
0.000000 0.000000 0
0.000000 0.000000 0
0.000000 0.000000 0
0.000000 0.000000 0
0.000000 0.000000 0
0.000000 0.000000 0
-0.000215 -0.000019 0
-0.000026 -0.000115 0
0.000304 -0.000133 0
0.000444 -0.000009 0
0.000374 0.000081 0
0.000219 0.000099 0
0.000079 0.000073 0
-0.000007 0.000037 0
-0.000042 0.000011 0
-0.000047 -0.000002 0
-0.000040 -0.000006 0
-0.000032 -0.000005 0
-0.000026 -0.000003 0
-0.000023 -0.000001 0
-0.000022 -0.000000 0
-0.000022 0.000000 0
-0.000022 0.000000 0
-0.000022 0.000000 0
-0.000022 0.000000 0
-0.000022 0.000000 0
-0.000022 0.000000 0
-0.000022 0.000000 0
-0.000022 0.000000 0
-0.000022 0.000000 0
-0.000021 0.000000 0
-0.000021 0.000000 0
-0.000021 0.000000 0
-0.000021 0.000000 0
-0.000021 0.000000 0
-0.000021 -0.000000 0
-0.000021 -0.000000 0
-0.000021 -0.000000 0
-0.000019 -0.000001 0
-0.000018 -0.000001 0
-0.000017 -0.000000 0
-0.000018 0.000002 0
-0.000026 0.000009 0
-0.000048 0.000020 0
-0.000089 0.000033 0
-0.000149 0.000041 0
-0.000209 0.000030 0
-0.000225 -0.000012 0
-0.000138 -0.000070 0
0.000043 -0.000055 0
0.000136 -0.000006 0
-0.000000 0.000000 0
-0.000000 0.000000 0
0.000000 0.000000 0
0.000000 0.000000 0
0.000000 0.000000 0
0.000000 0.000000 0
0.000000 0.000000 0
0.000000 0.000000 0
0.000000 0.000000 0
0.000000 0.000000 0
0.000000 0.000000 0
0.000000 0.000000 0
0.000000 0.000000 0
0.000000 0.000000 0
0.000000 0.000000 0
0.000000 0.000000 0
0.000000 0.000000 0
0.000000 0.000000 0
0.000000 0.000000 0
0.000000 0.000000 0
0.000000 0.000000 0
0.000000 0.000000 0
0.000000 0.000000 0
0.000000 0.000000 0
0.000000 0.000000 0
0.000000 0.000000 0
0.000000 0.000000 0
0.000000 0.000000 0
0.000000 0.000000 0
0.000000 0.000000 0
0.000000 0.000000 0
0.000000 0.000000 0
0.000000 0.000000 0
0.000000 0.000000 0
0.000000 0.000000 0
0.000000 0.000000 0
-0.000545 0.000103 0
-0.000773 0.000010 0
-0.000311 -0.000289 0
0.000200 -0.000275 0
0.000400 -0.000035 0
0.000349 0.000137 0
0.000204 0.000175 0
0.000070 0.000132 0
-0.000014 0.000069 0
-0.000050 0.000022 0
-0.000056 -0.000002 0
-0.000051 -0.000009 0
-0.000044 -0.000008 0
-0.000038 -0.000005 0
-0.000035 -0.000002 0
-0.000034 -0.000001 0
-0.000034 0.000000 0
-0.000034 0.000000 0
-0.000034 0.000000 0
-0.000034 0.000000 0
-0.000034 0.000000 0
-0.000034 0.000000 0
-0.000034 0.000000 0
-0.000034 0.000000 0
-0.000033 0.000000 0
-0.000033 0.000000 0
-0.000033 0.000000 0
-0.000033 0.000000 0
-0.000033 0.000000 0
-0.000033 0.000000 0
-0.000033 -0.000000 0
-0.000033 -0.000000 0
-0.000032 -0.000001 0
-0.000031 -0.000002 0
-0.000030 -0.000002 0
-0.000029 -0.000000 0
-0.000031 0.000005 0
-0.000040 0.000017 0
-0.000061 0.000036 0
-0.000101 0.000059 0
-0.000157 0.000071 0
-0.000213 0.000048 0
-0.000217 -0.000036 0
-0.000086 -0.000154 0
0.000222 -0.000152 0
0.000501 0.000019 0
0.000362 0.000066 0
-0.000000 0.000000 0
-0.000001 0.000000 0
0.000000 0.000000 0
0.000000 0.000000 0
0.000000 0.000000 0
0.000000 0.000000 0
0.000000 0.000000 0
0.000000 0.000000 0
0.000000 0.000000 0
0.000000 0.000000 0
0.000000 0.000000 0
0.000000 0.000000 0
0.000000 0.000000 0
0.000000 0.000000 0
0.000000 0.000000 0
0.000000 0.000000 0
0.000000 0.000000 0
0.000000 0.000000 0
0.000000 0.000000 0
0.000000 0.000000 0
0.000000 0.000000 0
0.000000 0.000000 0
0.000000 0.000000 0
0.000000 0.000000 0
0.000000 0.000000 0
0.000000 0.000000 0
0.000000 0.000000 0
0.000000 0.000000 0
0.000000 0.000000 0
0.000000 0.000000 0
0.000000 0.000000 0
0.000000 0.000000 0
0.000000 0.000000 0
0.000000 0.000000 0
-0.000753 0.000264 0
-0.001637 0.000374 0
-0.001472 -0.000133 0
-0.000703 -0.000586 0
-0.000015 -0.000477 0
0.000218 -0.000081 0
0.000199 0.000176 0
0.000106 0.000234 0
0.000022 0.000178 0
-0.000031 0.000095 0
-0.000054 0.000032 0
-0.000058 -0.000002 0
-0.000055 -0.000012 0
-0.000051 -0.000011 0
-0.000048 -0.000006 0
-0.000046 -0.000003 0
-0.000045 -0.000001 0
-0.000045 -0.000000 0
-0.000045 0.000000 0
-0.000045 0.000000 0
-0.000045 0.000000 0
-0.000045 0.000000 0
-0.000045 -0.000000 0
-0.000045 -0.000000 0
-0.000045 0.000000 0
-0.000045 0.000000 0
-0.000045 0.000000 0
-0.000045 0.000000 0
-0.000044 0.000000 0
-0.000044 0.000000 0
-0.000044 0.000000 0
-0.000044 -0.000000 0
-0.000044 -0.000001 0
-0.000044 -0.000001 0
-0.000043 -0.000002 0
-0.000043 -0.000002 0
-0.000042 0.000000 0
-0.000043 0.000007 0
-0.000049 0.000024 0
-0.000062 0.000049 0
-0.000087 0.000080 0
-0.000124 0.000095 0
-0.000160 0.000059 0
-0.000153 -0.000073 0
0.000005 -0.000283 0
0.000452 -0.000339 0
0.000968 -0.000075 0
0.001122 0.000242 0
0.000566 0.000176 0
-0.000000 0.000000 0
-0.000001 0.000000 0
0.000000 0.000000 0
0.000000 0.000000 0
0.000000 0.000000 0
0.000000 0.000000 0
0.000000 0.000000 0
0.000000 0.000000 0
0.000000 0.000000 0
0.000000 0.000000 0
0.000000 0.000000 0
0.000000 0.000000 0
0.000000 0.000000 0
0.000000 0.000000 0
0.000000 0.000000 0
0.000000 0.000000 0
0.000000 0.000000 0
0.000000 0.000000 0
0.000000 0.000000 0
0.000000 0.000000 0
0.000000 0.000000 0
0.000000 0.000000 0
0.000000 0.000000 0
0.000000 0.000000 0
0.000000 0.000000 0
0.000000 0.000000 0
0.000000 0.000000 0
0.000000 0.000000 0
0.000000 0.000000 0
0.000000 0.000000 0
0.000000 0.000000 0
0.000000 0.000000 0
-0.000716 0.000367 0
-0.002094 0.000795 0
-0.002606 0.000451 0
-0.002096 -0.000442 0
-0.001059 -0.000994 0
-0.000244 -0.000721 0
-0.000035 -0.000138 0
-0.000025 0.000191 0
-0.000041 0.000260 0
-0.000050 0.000198 0
-0.000053 0.000106 0
-0.000054 0.000035 0
-0.000054 -0.000001 0
-0.000054 -0.000013 0
-0.000054 -0.000012 0
-0.000054 -0.000007 0
-0.000054 -0.000003 0
-0.000053 -0.000001 0
-0.000053 -0.000000 0
-0.000053 0.000000 0
-0.000053 0.000000 0
-0.000053 0.000000 0
-0.000053 0.000000 0
-0.000053 -0.000000 0
-0.000053 -0.000000 0
-0.000053 -0.000000 0
-0.000053 0.000000 0
-0.000053 0.000000 0
-0.000053 0.000000 0
-0.000053 0.000000 0
-0.000053 0.000000 0
-0.000053 0.000000 0
-0.000053 -0.000000 0
-0.000053 -0.000001 0
-0.000053 -0.000001 0
-0.000053 -0.000002 0
-0.000053 -0.000002 0
-0.000053 0.000000 0
-0.000053 0.000008 0
-0.000053 0.000026 0
-0.000053 0.000055 0
-0.000055 0.000089 0
-0.000061 0.000107 0
-0.000070 0.000062 0
-0.000060 -0.000116 0
0.000087 -0.000447 0
0.000649 -0.000618 0
0.001397 -0.000305 0
0.001856 0.000260 0
0.001637 0.000545 0
0.000662 0.000276 0
0.000000 0.000000 0
-0.000001 0.000000 0
0.000000 0.000000 0
0.000000 0.000000 0
0.000000 0.000000 0
0.000000 0.000000 0
0.000000 0.000000 0
0.000000 0.000000 0
0.000000 0.000000 0
0.000000 0.000000 0
0.000000 0.000000 0
-0.000017 0.000000 0
-0.000017 0.000000 0
-0.000033 0.000000 0
-0.000042 0.000000 0
-0.000046 0.000000 0
-0.000049 0.000000 0
-0.000050 0.000000 0
-0.000050 0.000000 0
-0.000051 0.000000 0
-0.000051 0.000000 0
-0.000052 0.000000 0
-0.000055 0.000000 0
-0.000062 0.000000 0
-0.000076 0.000000 0
-0.000099 0.000000 0
-0.000127 0.000000 0
-0.000145 0.000000 0
-0.000111 0.000000 0
0.000000 0.000000 0
-0.000468 0.000350 0
-0.001879 0.001019 0
-0.003022 0.001182 0
-0.003242 0.000375 0
-0.002474 -0.000882 0
-0.001255 -0.001482 0
-0.000389 -0.000973 0
-0.000283 -0.000187 0
-0.000256 0.000179 0
-0.000189 0.000246 0
-0.000118 0.000184 0
-0.000070 0.000097 0
-0.000048 0.000032 0
-0.000044 -0.000001 0
-0.000047 -0.000012 0
-0.000051 -0.000011 0
-0.000054 -0.000007 0
-0.000056 -0.000003 0
-0.000056 -0.000001 0
-0.000056 -0.000000 0
-0.000056 0.000000 0
-0.000056 0.000000 0
-0.000056 0.000000 0
-0.000056 0.000000 0
-0.000056 -0.000000 0
-0.000056 -0.000000 0
-0.000056 -0.000000 0
-0.000056 0.000000 0
-0.000056 0.000000 0
-0.000056 0.000000 0
-0.000056 0.000000 0
-0.000056 0.000000 0
-0.000056 0.000000 0
-0.000056 -0.000000 0
-0.000056 -0.000001 0
-0.000056 -0.000001 0
-0.000057 -0.000002 0
-0.000057 -0.000002 0
-0.000058 0.000000 0
-0.000056 0.000008 0
-0.000051 0.000024 0
-0.000039 0.000051 0
-0.000017 0.000083 0
0.000011 0.000102 0
0.000032 0.000059 0
0.000035 -0.000150 0
0.000118 -0.000626 0
0.000745 -0.000973 0
0.001675 -0.000659 0
0.002398 0.000126 0
0.002493 0.000756 0
0.001831 0.000796 0
0.000630 0.000322 0
0.000001 0.000000 0
-0.000192 0.000000 0
-0.000074 0.000000 0
-0.000031 0.000000 0
-0.000013 0.000000 0
-0.000005 0.000000 0
-0.000001 0.000000 0
0.000000 0.000000 0
0.000000 0.000000 0
0.000000 0.000000 0
0.000000 0.000000 0
-0.000001 0.000000 0
-0.000001 0.000000 0
-0.000001 0.000000 0
-0.000001 0.000000 0
-0.000001 0.000000 0
-0.000001 0.000000 0
-0.000001 0.000000 0
-0.000001 0.000000 0
-0.000001 0.000000 0
-0.000001 0.000000 0
-0.000001 0.000000 0
-0.000001 0.000000 0
-0.000001 0.000000 0
-0.000001 0.000000 0
-0.000001 0.000000 0
-0.000002 0.000000 0
-0.000002 0.000000 0
-0.000117 0.000229 0
-0.001144 0.000915 0
-0.002490 0.001606 0
-0.003420 0.001455 0
-0.003422 0.000186 0
-0.002505 -0.001403 0
-0.001219 -0.002004 0
-0.000383 -0.001192 0
-0.000457 -0.000202 0
-0.000422 0.000146 0
-0.000287 0.000194 0
-0.000156 0.000140 0
-0.000073 0.000072 0
-0.000037 0.000023 0
-0.000030 -0.000002 0
-0.000036 -0.000009 0
-0.000043 -0.000008 0
-0.000048 -0.000005 0
-0.000051 -0.000002 0
-0.000052 -0.000001 0
-0.000052 -0.000000 0
-0.000052 0.000000 0
-0.000052 0.000000 0
-0.000052 0.000000 0
-0.000052 0.000000 0
-0.000052 -0.000000 0
-0.000052 -0.000000 0
-0.000052 -0.000000 0
-0.000052 0.000000 0
-0.000052 0.000000 0
-0.000052 0.000000 0
-0.000052 0.000000 0
-0.000051 0.000000 0
-0.000051 0.000000 0
-0.000051 -0.000000 0
-0.000052 -0.000000 0
-0.000052 -0.000001 0
-0.000053 -0.000002 0
-0.000054 -0.000002 0
-0.000055 -0.000000 0
-0.000053 0.000005 0
-0.000045 0.000017 0
-0.000023 0.000038 0
0.000016 0.000065 0
0.000070 0.000083 0
0.000119 0.000051 0
0.000114 -0.000158 0
0.000077 -0.000791 0
0.000705 -0.001372 0
0.001730 -0.001105 0
0.002634 -0.000136 0
0.002992 0.000819 0
0.002633 0.001180 0
0.001696 0.000890 0
0.000567 0.000306 0
0.000001 0.000000 0
0.000000 0.000000 0
0.000000 0.000000 0
0.000000 0.000000 0
0.000000 0.000000 0
0.000000 0.000000 0
0.000000 0.000000 0
0.000000 0.000000 0
-2.500000 0.000000 0
0.000064 -0.000019 0
0.000063 -0.000017 0
0.000114 -0.000012 0
0.000145 -0.000006 0
0.000162 -0.000003 0
0.000172 -0.000002 0
0.000178 -0.000001 0
0.000181 -0.000001 0
0.000183 -0.000000 0
0.000185 -0.000001 0
0.000190 -0.000002 0
0.000202 -0.000005 0
0.000228 -0.000010 0
0.000276 -0.000018 0
0.000350 -0.000024 0
0.000434 -0.000022 0
0.000474 0.000008 0
0.000344 0.000126 0
-0.000230 0.000610 0
-0.001353 0.001501 0
-0.002560 0.002121 0
-0.003269 0.001633 0
-0.003117 -0.000068 0
-0.002176 -0.001948 0
-0.000953 -0.002509 0
-0.000222 -0.001342 0
-0.000510 -0.000168 0
-0.000462 0.000097 0
-0.000295 0.000117 0
-0.000147 0.000080 0
-0.000058 0.000039 0
-0.000021 0.000011 0
-0.000016 -0.000002 0
-0.000023 -0.000006 0
-0.000031 -0.000005 0
-0.000036 -0.000003 0
-0.000039 -0.000001 0
-0.000040 -0.000000 0
-0.000040 0.000000 0
-0.000040 0.000000 0
-0.000040 0.000000 0
-0.000040 0.000000 0
-0.000040 0.000000 0
-0.000040 -0.000000 0
-0.000040 -0.000000 0
-0.000040 -0.000000 0
-0.000040 0.000000 0
-0.000040 0.000000 0
-0.000040 0.000000 0
-0.000040 0.000000 0
-0.000040 0.000000 0
-0.000040 0.000000 0
-0.000040 -0.000000 0
-0.000040 -0.000000 0
-0.000040 -0.000000 0
-0.000041 -0.000001 0
-0.000043 -0.000001 0
-0.000044 -0.000000 0
-0.000043 0.000003 0
-0.000034 0.000009 0
-0.000012 0.000021 0
0.000031 0.000038 0
0.000096 0.000053 0
0.000163 0.000038 0
0.000161 -0.000129 0
-0.000025 -0.000912 0
0.000537 -0.001774 0
0.001545 -0.001593 0
0.002512 -0.000485 0
0.003052 0.000756 0
0.002968 0.001423 0
0.002325 0.001325 0
0.001428 0.000733 0
0.000646 0.000241 0
0.000294 0.000078 0
0.000135 0.000030 0
0.000060 0.000013 0
0.000024 0.000006 0
0.000007 0.000002 0
0.000001 0.000000 0
0.000000 -0.000000 0
-5.000000 0.000000 0
0.000111 -0.000067 0
0.000110 -0.000058 0
0.000190 -0.000040 0
0.000242 -0.000023 0
0.000273 -0.000013 0
0.000292 -0.000007 0
0.000303 -0.000004 0
0.000310 -0.000003 0
0.000315 -0.000002 0
0.000320 -0.000004 0
0.000331 -0.000008 0
0.000352 -0.000018 0
0.000396 -0.000036 0
0.000475 -0.000059 0
0.000588 -0.000076 0
0.000707 -0.000060 0
0.000745 0.000043 0
0.000529 0.000342 0
-0.000167 0.001051 0
-0.001203 0.002043 0
-0.002167 0.002534 0
-0.002629 0.001725 0
-0.002382 -0.000343 0
-0.001546 -0.002451 0
-0.000533 -0.002950 0
0.000008 -0.001406 0
-0.000395 -0.000086 0
-0.000330 0.000042 0
-0.000194 0.000041 0
-0.000088 0.000025 0
-0.000028 0.000011 0
-0.000006 0.000003 0
-0.000005 -0.000001 0
-0.000010 -0.000002 0
-0.000016 -0.000001 0
-0.000020 -0.000001 0
-0.000022 -0.000000 0
-0.000022 -0.000000 0
-0.000022 0.000000 0
-0.000022 0.000000 0
-0.000022 0.000000 0
-0.000022 0.000000 0
-0.000022 0.000000 0
-0.000022 0.000000 0
-0.000022 0.000000 0
-0.000022 0.000000 0
-0.000021 0.000000 0
-0.000021 0.000000 0
-0.000021 0.000000 0
-0.000021 0.000000 0
-0.000021 0.000000 0
-0.000021 0.000000 0
-0.000021 -0.000000 0
-0.000021 -0.000000 0
-0.000021 -0.000000 0
-0.000022 -0.000000 0
-0.000023 -0.000000 0
-0.000024 -0.000000 0
-0.000024 0.000001 0
-0.000019 0.000003 0
-0.000005 0.000006 0
0.000025 0.000012 0
0.000073 0.000019 0
0.000133 0.000019 0
0.000152 -0.000067 0
-0.000129 -0.000973 0
0.000290 -0.002132 0
0.001149 -0.002061 0
0.002043 -0.000866 0
0.002662 0.000598 0
0.002805 0.001532 0
0.002454 0.001636 0
0.001785 0.001122 0
0.001023 0.000552 0
0.000528 0.000247 0
0.000259 0.000113 0
0.000122 0.000053 0
0.000052 0.000025 0
0.000018 0.000011 0
0.000004 0.000003 0
0.000000 0.000000 0
-5.000000 0.000000 0
0.000129 -0.000131 0
0.000128 -0.000112 0
0.000217 -0.000076 0
0.000277 -0.000047 0
0.000315 -0.000027 0
0.000339 -0.000016 0
0.000354 -0.000010 0
0.000363 -0.000006 0
0.000371 -0.000006 0
0.000380 -0.000008 0
0.000394 -0.000017 0
0.000420 -0.000037 0
0.000472 -0.000069 0
0.000557 -0.000110 0
0.000676 -0.000137 0
0.000792 -0.000098 0
0.000813 0.000094 0
0.000584 0.000568 0
-0.000030 0.001448 0
-0.000815 0.002469 0
-0.001432 0.002811 0
-0.001618 0.001737 0
-0.001327 -0.000593 0
-0.000726 -0.002843 0
-0.000090 -0.003262 0
0.000063 -0.001405 0
0.000001 0.000000 0
0.000000 0.000000 0
0.000000 0.000000 0
-0.000000 0.000000 0
-0.000000 0.000000 0
-0.000000 0.000000 0
-0.000000 0.000000 0
-0.000000 0.000000 0
-0.000000 0.000000 0
-0.000000 0.000000 0
0.000000 0.000000 0
0.000000 0.000000 0
0.000000 0.000000 0
0.000000 0.000000 0
0.000000 0.000000 0
0.000000 0.000000 0
0.000000 0.000000 0
0.000000 0.000000 0
0.000000 0.000000 0
0.000000 0.000000 0
0.000000 0.000000 0
0.000000 0.000000 0
0.000000 0.000000 0
0.000001 0.000000 0
0.000001 0.000000 0
0.000001 0.000000 0
0.000001 0.000000 0
0.000001 0.000000 0
0.000001 0.000000 0
0.000001 0.000000 0
0.000001 0.000000 0
0.000001 0.000000 0
0.000001 0.000000 0
0.000001 0.000000 0
0.000001 0.000000 0
0.000001 0.000000 0
0.000001 0.000000 0
0.000000 0.000000 0
0.000000 0.000000 0
-0.000085 -0.000977 0
0.000036 -0.002392 0
0.000604 -0.002441 0
0.001286 -0.001217 0
0.001875 0.000387 0
0.002181 0.001524 0
0.002107 0.001818 0
0.001703 0.001426 0
0.001105 0.000849 0
0.000624 0.000447 0
0.000325 0.000226 0
0.000157 0.000113 0
0.000067 0.000056 0
0.000023 0.000025 0
0.000006 0.000009 0
0.000000 0.000002 0
-5.000000 0.000000 0
0.000115 -0.000197 0
0.000114 -0.000166 0
0.000192 -0.000112 0
0.000247 -0.000071 0
0.000283 -0.000043 0
0.000307 -0.000026 0
0.000323 -0.000016 0
0.000334 -0.000011 0
0.000343 -0.000010 0
0.000354 -0.000014 0
0.000368 -0.000028 0
0.000394 -0.000056 0
0.000439 -0.000102 0
0.000511 -0.000158 0
0.000605 -0.000190 0
0.000691 -0.000126 0
0.000695 0.000144 0
0.000515 0.000750 0
0.000112 0.001728 0
-0.000304 0.002722 0
-0.000495 0.002922 0
-0.000382 0.001674 0
-0.000093 -0.000775 0
0.000166 -0.003050 0
0.000271 -0.003331 0
0.000002 0.000006 0
0.000145 0.001383 0
0.000108 0.000000 0
0.000058 0.000000 0
0.000024 0.000000 0
0.000006 0.000000 0
-0.000000 0.000000 0
-0.000000 0.000000 0
0.000002 0.000000 0
0.000004 0.000000 0
0.000005 0.000000 0
0.000006 0.000000 0
0.000006 0.000000 0
0.000006 0.000000 0
0.000006 0.000000 0
0.000006 0.000000 0
0.000006 0.000000 0
0.000006 0.000000 0
0.000006 0.000000 0
0.000006 0.000000 0
0.000006 0.000000 0
0.000006 0.000000 0
0.000006 0.000000 0
0.000006 0.000000 0
0.000006 0.000000 0
0.000006 0.000000 0
0.000006 0.000000 0
0.000006 0.000000 0
0.000006 0.000000 0
0.000006 0.000000 0
0.000006 0.000000 0
0.000007 0.000000 0
0.000007 0.000000 0
0.000007 0.000000 0