# vtk DataFile Version 2.0
generated by CFD-lab course output (written by Tobias Neckel) 
ASCII

DATASET STRUCTURED_GRID
DIMENSIONS  82 36 1 
POINTS 2952 float

-2.500000 0.100000 0
-2.402439 0.100000 0
-2.304878 0.100000 0
-2.207317 0.100000 0
-2.109756 0.100000 0
-2.012195 0.100000 0
-1.914634 0.100000 0
-1.817073 0.100000 0
-1.719512 0.100000 0
-1.621951 0.100000 0
-1.524390 0.100000 0
-1.426829 0.100000 0
-1.329268 0.100000 0
-1.231707 0.100000 0
-1.134146 0.100000 0
-1.036585 0.100000 0
-0.939024 0.100000 0
-0.841463 0.100000 0
-0.743902 0.100000 0
-0.646341 0.100000 0
-0.548780 0.100000 0
-0.451220 0.100000 0
-0.353659 0.100000 0
-0.256098 0.100000 0
-0.158537 0.100000 0
-0.060976 0.100000 0
0.036585 0.100000 0
0.134146 0.100000 0
0.231707 0.100000 0
0.329268 0.100000 0
0.426829 0.100000 0
0.524390 0.100000 0
0.621951 0.100000 0
0.719512 0.100000 0
0.817073 0.100000 0
0.914634 0.100000 0
1.012195 0.100000 0
1.109756 0.100000 0
1.207317 0.100000 0
1.304878 0.100000 0
1.402439 0.100000 0
1.500000 0.100000 0
1.597561 0.100000 0
1.695122 0.100000 0
1.792683 0.100000 0
1.890244 0.100000 0
1.987805 0.100000 0
2.085366 0.100000 0
2.182927 0.100000 0
2.280488 0.100000 0
2.378049 0.100000 0
2.475610 0.100000 0
2.573171 0.100000 0
2.670732 0.100000 0
2.768293 0.100000 0
2.865854 0.100000 0
2.963415 0.100000 0
3.060976 0.100000 0
3.158537 0.100000 0
3.256098 0.100000 0
3.353659 0.100000 0
3.451220 0.100000 0
3.548780 0.100000 0
3.646341 0.100000 0
3.743902 0.100000 0
3.841463 0.100000 0
3.939024 0.100000 0
4.036585 0.100000 0
4.134146 0.100000 0
4.231707 0.100000 0
4.329268 0.100000 0
4.426829 0.100000 0
4.524390 0.100000 0
4.621951 0.100000 0
4.719512 0.100000 0
4.817073 0.100000 0
4.914634 0.100000 0
5.012195 0.100000 0
5.109756 0.100000 0
5.207317 0.100000 0
5.304878 0.100000 0
5.402439 0.100000 0
-2.500000 0.147222 0
-2.402439 0.147222 0
-2.304878 0.147222 0
-2.207317 0.147222 0
-2.109756 0.147222 0
-2.012195 0.147222 0
-1.914634 0.147222 0
-1.817073 0.147222 0
-1.719512 0.147222 0
-1.621951 0.147222 0
-1.524390 0.147222 0
-1.426829 0.147222 0
-1.329268 0.147222 0
-1.231707 0.147222 0
-1.134146 0.147222 0
-1.036585 0.147222 0
-0.939024 0.147222 0
-0.841463 0.147222 0
-0.743902 0.147222 0
-0.646341 0.147222 0
-0.548780 0.147222 0
-0.451220 0.147222 0
-0.353659 0.147222 0
-0.256098 0.147222 0
-0.158537 0.147222 0
-0.060976 0.147222 0
0.036585 0.147222 0
0.134146 0.147222 0
0.231707 0.147222 0
0.329268 0.147222 0
0.426829 0.147222 0
0.524390 0.147222 0
0.621951 0.147222 0
0.719512 0.147222 0
0.817073 0.147222 0
0.914634 0.147222 0
1.012195 0.147222 0
1.109756 0.147222 0
1.207317 0.147222 0
1.304878 0.147222 0
1.402439 0.147222 0
1.500000 0.147222 0
1.597561 0.147222 0
1.695122 0.147222 0
1.792683 0.147222 0
1.890244 0.147222 0
1.987805 0.147222 0
2.085366 0.147222 0
2.182927 0.147222 0
2.280488 0.147222 0
2.378049 0.147222 0
2.475610 0.147222 0
2.573171 0.147222 0
2.670732 0.147222 0
2.768293 0.147222 0
2.865854 0.147222 0
2.963415 0.147222 0
3.060976 0.147222 0
3.158537 0.147222 0
3.256098 0.147222 0
3.353659 0.147222 0
3.451220 0.147222 0
3.548780 0.147222 0
3.646341 0.147222 0
3.743902 0.147222 0
3.841463 0.147222 0
3.939024 0.147222 0
4.036585 0.147222 0
4.134146 0.147222 0
4.231707 0.147222 0
4.329268 0.147222 0
4.426829 0.147222 0
4.524390 0.147222 0
4.621951 0.147222 0
4.719512 0.147222 0
4.817073 0.147222 0
4.914634 0.147222 0
5.012195 0.147222 0
5.109756 0.147222 0
5.207317 0.147222 0
5.304878 0.147222 0
5.402439 0.147222 0
-2.500000 0.194444 0
-2.402439 0.194444 0
-2.304878 0.194444 0
-2.207317 0.194444 0
-2.109756 0.194444 0
-2.012195 0.194444 0
-1.914634 0.194444 0
-1.817073 0.194444 0
-1.719512 0.194444 0
-1.621951 0.194444 0
-1.524390 0.194444 0
-1.426829 0.194444 0
-1.329268 0.194444 0
-1.231707 0.194444 0
-1.134146 0.194444 0
-1.036585 0.194444 0
-0.939024 0.194444 0
-0.841463 0.194444 0
-0.743902 0.194444 0
-0.646341 0.194444 0
-0.548780 0.194444 0
-0.451220 0.194444 0
-0.353659 0.194444 0
-0.256098 0.194444 0
-0.158537 0.194444 0
-0.060976 0.194444 0
0.036585 0.194444 0
0.134146 0.194444 0
0.231707 0.194444 0
0.329268 0.194444 0
0.426829 0.194444 0
0.524390 0.194444 0
0.621951 0.194444 0
0.719512 0.194444 0
0.817073 0.194444 0
0.914634 0.194444 0
1.012195 0.194444 0
1.109756 0.194444 0
1.207317 0.194444 0
1.304878 0.194444 0
1.402439 0.194444 0
1.500000 0.194444 0
1.597561 0.194444 0
1.695122 0.194444 0
1.792683 0.194444 0
1.890244 0.194444 0
1.987805 0.194444 0
2.085366 0.194444 0
2.182927 0.194444 0
2.280488 0.194444 0
2.378049 0.194444 0
2.475610 0.194444 0
2.573171 0.194444 0
2.670732 0.194444 0
2.768293 0.194444 0
2.865854 0.194444 0
2.963415 0.194444 0
3.060976 0.194444 0
3.158537 0.194444 0
3.256098 0.194444 0
3.353659 0.194444 0
3.451220 0.194444 0
3.548780 0.194444 0
3.646341 0.194444 0
3.743902 0.194444 0
3.841463 0.194444 0
3.939024 0.194444 0
4.036585 0.194444 0
4.134146 0.194444 0
4.231707 0.194444 0
4.329268 0.194444 0
4.426829 0.194444 0
4.524390 0.194444 0
4.621951 0.194444 0
4.719512 0.194444 0
4.817073 0.194444 0
4.914634 0.194444 0
5.012195 0.194444 0
5.109756 0.194444 0
5.207317 0.194444 0
5.304878 0.194444 0
5.402439 0.194444 0
-2.500000 0.241667 0
-2.402439 0.241667 0
-2.304878 0.241667 0
-2.207317 0.241667 0
-2.109756 0.241667 0
-2.012195 0.241667 0
-1.914634 0.241667 0
-1.817073 0.241667 0
-1.719512 0.241667 0
-1.621951 0.241667 0
-1.524390 0.241667 0
-1.426829 0.241667 0
-1.329268 0.241667 0
-1.231707 0.241667 0
-1.134146 0.241667 0
-1.036585 0.241667 0
-0.939024 0.241667 0
-0.841463 0.241667 0
-0.743902 0.241667 0
-0.646341 0.241667 0
-0.548780 0.241667 0
-0.451220 0.241667 0
-0.353659 0.241667 0
-0.256098 0.241667 0
-0.158537 0.241667 0
-0.060976 0.241667 0
0.036585 0.241667 0
0.134146 0.241667 0
0.231707 0.241667 0
0.329268 0.241667 0
0.426829 0.241667 0
0.524390 0.241667 0
0.621951 0.241667 0
0.719512 0.241667 0
0.817073 0.241667 0
0.914634 0.241667 0
1.012195 0.241667 0
1.109756 0.241667 0
1.207317 0.241667 0
1.304878 0.241667 0
1.402439 0.241667 0
1.500000 0.241667 0
1.597561 0.241667 0
1.695122 0.241667 0
1.792683 0.241667 0
1.890244 0.241667 0
1.987805 0.241667 0
2.085366 0.241667 0
2.182927 0.241667 0
2.280488 0.241667 0
2.378049 0.241667 0
2.475610 0.241667 0
2.573171 0.241667 0
2.670732 0.241667 0
2.768293 0.241667 0
2.865854 0.241667 0
2.963415 0.241667 0
3.060976 0.241667 0
3.158537 0.241667 0
3.256098 0.241667 0
3.353659 0.241667 0
3.451220 0.241667 0
3.548780 0.241667 0
3.646341 0.241667 0
3.743902 0.241667 0
3.841463 0.241667 0
3.939024 0.241667 0
4.036585 0.241667 0
4.134146 0.241667 0
4.231707 0.241667 0
4.329268 0.241667 0
4.426829 0.241667 0
4.524390 0.241667 0
4.621951 0.241667 0
4.719512 0.241667 0
4.817073 0.241667 0
4.914634 0.241667 0
5.012195 0.241667 0
5.109756 0.241667 0
5.207317 0.241667 0
5.304878 0.241667 0
5.402439 0.241667 0
-2.500000 0.288889 0
-2.402439 0.288889 0
-2.304878 0.288889 0
-2.207317 0.288889 0
-2.109756 0.288889 0
-2.012195 0.288889 0
-1.914634 0.288889 0
-1.817073 0.288889 0
-1.719512 0.288889 0
-1.621951 0.288889 0
-1.524390 0.288889 0
-1.426829 0.288889 0
-1.329268 0.288889 0
-1.231707 0.288889 0
-1.134146 0.288889 0
-1.036585 0.288889 0
-0.939024 0.288889 0
-0.841463 0.288889 0
-0.743902 0.288889 0
-0.646341 0.288889 0
-0.548780 0.288889 0
-0.451220 0.288889 0
-0.353659 0.288889 0
-0.256098 0.288889 0
-0.158537 0.288889 0
-0.060976 0.288889 0
0.036585 0.288889 0
0.134146 0.288889 0
0.231707 0.288889 0
0.329268 0.288889 0
0.426829 0.288889 0
0.524390 0.288889 0
0.621951 0.288889 0
0.719512 0.288889 0
0.817073 0.288889 0
0.914634 0.288889 0
1.012195 0.288889 0
1.109756 0.288889 0
1.207317 0.288889 0
1.304878 0.288889 0
1.402439 0.288889 0
1.500000 0.288889 0
1.597561 0.288889 0
1.695122 0.288889 0
1.792683 0.288889 0
1.890244 0.288889 0
1.987805 0.288889 0
2.085366 0.288889 0
2.182927 0.288889 0
2.280488 0.288889 0
2.378049 0.288889 0
2.475610 0.288889 0
2.573171 0.288889 0
2.670732 0.288889 0
2.768293 0.288889 0
2.865854 0.288889 0
2.963415 0.288889 0
3.060976 0.288889 0
3.158537 0.288889 0
3.256098 0.288889 0
3.353659 0.288889 0
3.451220 0.288889 0
3.548780 0.288889 0
3.646341 0.288889 0
3.743902 0.288889 0
3.841463 0.288889 0
3.939024 0.288889 0
4.036585 0.288889 0
4.134146 0.288889 0
4.231707 0.288889 0
4.329268 0.288889 0
4.426829 0.288889 0
4.524390 0.288889 0
4.621951 0.288889 0
4.719512 0.288889 0
4.817073 0.288889 0
4.914634 0.288889 0
5.012195 0.288889 0
5.109756 0.288889 0
5.207317 0.288889 0
5.304878 0.288889 0
5.402439 0.288889 0
-2.500000 0.336111 0
-2.402439 0.336111 0
-2.304878 0.336111 0
-2.207317 0.336111 0
-2.109756 0.336111 0
-2.012195 0.336111 0
-1.914634 0.336111 0
-1.817073 0.336111 0
-1.719512 0.336111 0
-1.621951 0.336111 0
-1.524390 0.336111 0
-1.426829 0.336111 0
-1.329268 0.336111 0
-1.231707 0.336111 0
-1.134146 0.336111 0
-1.036585 0.336111 0
-0.939024 0.336111 0
-0.841463 0.336111 0
-0.743902 0.336111 0
-0.646341 0.336111 0
-0.548780 0.336111 0
-0.451220 0.336111 0
-0.353659 0.336111 0
-0.256098 0.336111 0
-0.158537 0.336111 0
-0.060976 0.336111 0
0.036585 0.336111 0
0.134146 0.336111 0
0.231707 0.336111 0
0.329268 0.336111 0
0.426829 0.336111 0
0.524390 0.336111 0
0.621951 0.336111 0
0.719512 0.336111 0
0.817073 0.336111 0
0.914634 0.336111 0
1.012195 0.336111 0
1.109756 0.336111 0
1.207317 0.336111 0
1.304878 0.336111 0
1.402439 0.336111 0
1.500000 0.336111 0
1.597561 0.336111 0
1.695122 0.336111 0
1.792683 0.336111 0
1.890244 0.336111 0
1.987805 0.336111 0
2.085366 0.336111 0
2.182927 0.336111 0
2.280488 0.336111 0
2.378049 0.336111 0
2.475610 0.336111 0
2.573171 0.336111 0
2.670732 0.336111 0
2.768293 0.336111 0
2.865854 0.336111 0
2.963415 0.336111 0
3.060976 0.336111 0
3.158537 0.336111 0
3.256098 0.336111 0
3.353659 0.336111 0
3.451220 0.336111 0
3.548780 0.336111 0
3.646341 0.336111 0
3.743902 0.336111 0
3.841463 0.336111 0
3.939024 0.336111 0
4.036585 0.336111 0
4.134146 0.336111 0
4.231707 0.336111 0
4.329268 0.336111 0
4.426829 0.336111 0
4.524390 0.336111 0
4.621951 0.336111 0
[...]
POINT_DATA 2952 

VECTORS velocity float
0.000000 0.000000 0
0.000000 0.000000 0
0.000000 0.000000 0
0.000000 0.000000 0
0.000000 0.000000 0
0.000000 0.000000 0
0.000000 0.000000 0
0.000000 0.000000 0
0.000000 0.000000 0
0.000000 0.000000 0
0.000000 0.000000 0
0.000000 0.000000 0
0.000000 0.000000 0
0.000000 0.000000 0
0.000000 0.000000 0
0.000000 0.000000 0
0.000000 0.000000 0
0.000000 0.000000 0
0.000000 0.000000 0
0.000000 0.000000 0
0.000000 0.000000 0
0.000000 0.000000 0
0.000000 0.000000 0
0.000000 0.000000 0
0.000000 0.000000 0
-0.000025 0.000000 0
-0.000024 0.000000 0
-0.000016 0.000000 0
-0.000011 0.000000 0
-0.000009 0.000000 0
-0.000008 0.000000 0
-0.000008 0.000000 0
-0.000008 0.000000 0
-0.000008 0.000000 0
-0.000008 0.000000 0
-0.000008 0.000000 0
-0.000009 0.000000 0
-0.000009 0.000000 0
-0.000009 0.000000 0
-0.000009 0.000000 0
-0.000009 0.000000 0
-0.000010 0.000000 0
-0.000010 0.000000 0
-0.000010 0.000000 0
-0.000010 0.000000 0
-0.000010 0.000000 0
-0.000011 0.000000 0
-0.000011 0.000000 0
-0.000011 0.000000 0
-0.000011 0.000000 0
-0.000011 0.000000 0
-0.000012 0.000000 0
-0.000012 0.000000 0
-0.000012 0.000000 0
-0.000012 0.000000 0
-0.000012 0.000000 0
-0.000012 0.000000 0
-0.000012 0.000000 0
-0.000012 0.000000 0
-0.000012 0.000000 0
-0.000012 0.000000 0
-0.000011 0.000000 0
-0.000010 0.000000 0
-0.000010 0.000000 0
-0.000014 0.000000 0
-0.000018 0.000000 0
0.000000 0.000000 0
0.000014 0.000000 0
0.000000 0.000000 0
0.000000 0.000000 0
0.000000 0.000000 0
0.000000 0.000000 0
0.000000 0.000000 0
0.000000 0.000000 0
0.000000 0.000000 0
0.000000 0.000000 0
0.000000 0.000000 0
0.000000 0.000000 0
0.000000 0.000000 0
0.000000 0.000000 0
0.000000 0.000000 0
0.000000 0.000000 0
0.000000 0.000000 0
0.000000 0.000000 0
0.000000 0.000000 0
0.000000 0.000000 0
0.000000 0.000000 0
0.000000 0.000000 0
0.000000 0.000000 0
0.000000 0.000000 0
0.000000 0.000000 0
0.000000 0.000000 0
0.000000 0.000000 0
0.000000 0.000000 0
0.000000 0.000000 0
0.000000 0.000000 0
0.000000 0.000000 0
0.000000 0.000000 0
0.000000 0.000000 0
0.000000 0.000000 0
0.000000 0.000000 0
0.000000 0.000000 0
0.000000 0.000000 0
0.000000 0.000000 0
0.000000 0.000000 0
0.000000 0.000000 0
0.003767 -0.002145 0
0.014914 -0.002278 0
0.015773 0.000648 0
0.010798 0.001484 0
0.005985 0.001072 0
0.003260 0.000499 0
0.002159 0.000154 0
0.001863 0.000012 0
0.001859 -0.000026 0
0.001925 -0.000027 0
0.001986 -0.000019 0
0.002030 -0.000013 0
0.002059 -0.000008 0
0.002078 -0.000006 0
0.002091 -0.000004 0
0.002101 -0.000004 0
0.002110 -0.000003 0
0.002117 -0.000003 0
0.002123 -0.000003 0
0.002128 -0.000003 0
0.002132 -0.000002 0
0.002135 -0.000002 0
0.002137 -0.000002 0
0.002138 -0.000001 0
0.002137 -0.000001 0
0.002135 -0.000001 0
0.002131 -0.000000 0
0.002126 0.000000 0
0.002120 0.000001 0
0.002113 0.000001 0
0.002104 0.000001 0
0.002093 0.000001 0
0.002079 0.000003 0
0.002054 0.000008 0
0.001999 0.000022 0
0.001871 0.000056 0
0.001589 0.000121 0
0.001052 0.000204 0
0.000288 0.000212 0
-0.000206 -0.000018 0
0.000675 -0.000385 0
0.003240 0.000072 0
0.003994 0.000349 0
-0.000002 0.000000 0
-0.000003 0.000000 0
0.000000 0.000000 0
0.000000 0.000000 0
0.000000 0.000000 0
0.000000 0.000000 0
0.000000 0.000000 0
0.000000 0.000000 0
0.000000 0.000000 0
0.000000 0.000000 0
0.000000 0.000000 0
0.000000 0.000000 0
0.000000 0.000000 0
0.000000 0.000000 0
0.000000 0.000000 0
0.000000 0.000000 0
0.000000 0.000000 0
0.000000 0.000000 0
0.000000 0.000000 0
0.000000 0.000000 0
0.000000 0.000000 0
0.000000 0.000000 0
0.000000 0.000000 0
0.000000 0.000000 0
0.000000 0.000000 0
0.000000 0.000000 0
0.000000 0.000000 0
0.000000 0.000000 0
0.000000 0.000000 0
0.000000 0.000000 0
0.000000 0.000000 0
0.000000 0.000000 0
0.000000 0.000000 0
0.000000 0.000000 0
0.000000 0.000000 0
0.000000 0.000000 0
0.000000 0.000000 0
0.000000 0.000000 0
-0.004283 -0.001873 0
0.006727 -0.007258 0
0.022865 -0.005801 0
0.024522 0.001991 0
0.017069 0.004736 0
0.009456 0.003647 0
0.004916 0.001851 0
0.002936 0.000675 0
0.002298 0.000144 0
0.002191 -0.000031 0
0.002242 -0.000063 0
0.002313 -0.000052 0
0.002371 -0.000036 0
0.002412 -0.000025 0
0.002440 -0.000017 0
0.002461 -0.000013 0
0.002477 -0.000011 0
0.002490 -0.000009 0
0.002502 -0.000008 0
0.002512 -0.000007 0
0.002520 -0.000006 0
0.002527 -0.000005 0
0.002532 -0.000004 0
0.002535 -0.000003 0
0.002537 -0.000002 0
0.002536 -0.000000 0
0.002534 0.000001 0
0.002529 0.000002 0
0.002522 0.000004 0
0.002514 0.000005 0
0.002503 0.000006 0
0.002490 0.000007 0
0.002473 0.000010 0
0.002449 0.000017 0
0.002406 0.000037 0
0.002316 0.000087 0
0.002117 0.000197 0
0.001694 0.000394 0
0.000913 0.000628 0
-0.000190 0.000607 0
-0.000907 -0.000189 0
0.000533 -0.001670 0
0.005685 -0.001616 0
0.011807 0.001556 0
0.007626 0.001929 0
0.000000 0.000000 0
-0.000016 0.000000 0
0.000000 0.000000 0
0.000000 0.000000 0
0.000000 0.000000 0
0.000000 0.000000 0
0.000000 0.000000 0
0.000000 0.000000 0
0.000000 0.000000 0
0.000000 0.000000 0
0.000000 0.000000 0
0.000000 0.000000 0
0.000000 0.000000 0
0.000000 0.000000 0
0.000000 0.000000 0
0.000000 0.000000 0
0.000000 0.000000 0
0.000000 0.000000 0
0.000000 0.000000 0
0.000000 0.000000 0
0.000000 0.000000 0
0.000000 0.000000 0
0.000000 0.000000 0
0.000000 0.000000 0
0.000000 0.000000 0
0.000000 0.000000 0
0.000000 0.000000 0
0.000000 0.000000 0
0.000000 0.000000 0
0.000000 0.000000 0
0.000000 0.000000 0
0.000000 0.000000 0
0.000000 0.000000 0
0.000000 0.000000 0
0.000000 0.000000 0
0.000000 0.000000 0
-0.010852 0.002054 0
-0.015589 -0.003325 0
0.001499 -0.015336 0
0.022445 -0.010892 0
0.025170 0.003453 0
0.017242 0.008776 0
0.008971 0.006954 0
0.003978 0.003655 0
0.001746 0.001421 0
0.000975 0.000373 0
0.000798 0.000001 0
0.000811 -0.000087 0
0.000864 -0.000083 0
0.000912 -0.000061 0
0.000948 -0.000042 0
0.000974 -0.000030 0
0.000993 -0.000023 0
0.001008 -0.000019 0
0.001020 -0.000016 0
0.001031 -0.000014 0
0.001040 -0.000012 0
0.001048 -0.000010 0
0.001054 -0.000009 0
0.001059 -0.000007 0
0.001063 -0.000005 0
0.001064 -0.000002 0
0.001065 -0.000000 0
0.001063 0.000002 0
0.001059 0.000005 0
0.001054 0.000007 0
0.001047 0.000009 0
0.001038 0.000012 0
0.001027 0.000015 0
0.001013 0.000020 0
0.000991 0.000035 0
0.000950 0.000072 0
0.000865 0.000162 0
0.000678 0.000357 0
0.000283 0.000703 0
-0.000468 0.001115 0
-0.001614 0.001092 0
-0.002566 -0.000368 0
-0.001298 -0.003576 0
0.005393 -0.005386 0
0.017294 -0.000612 0
0.021250 0.005711 0
0.010164 0.003709 0
0.000003 0.000000 0
-0.000023 0.000000 0
0.000000 0.000000 0
0.000000 0.000000 0
0.000000 0.000000 0
0.000000 0.000000 0
0.000000 0.000000 0
0.000000 0.000000 0
0.000000 0.000000 0
0.000000 0.000000 0
0.000000 0.000000 0
0.000000 0.000000 0
0.000000 0.000000 0
0.000000 0.000000 0
0.000000 0.000000 0
0.000000 0.000000 0
0.000000 0.000000 0
0.000000 0.000000 0
0.000000 0.000000 0
0.000000 0.000000 0
0.000000 0.000000 0
0.000000 0.000000 0
0.000000 0.000000 0
0.000000 0.000000 0
0.000000 0.000000 0
0.000000 0.000000 0
0.000000 0.000000 0
0.000000 0.000000 0
0.000000 0.000000 0
0.000000 0.000000 0
0.000000 0.000000 0
0.000000 0.000000 0
0.000000 0.000000 0
0.000000 0.000000 0
-0.011654 0.005301 0
-0.030760 0.007575 0
-0.029906 -0.007871 0
-0.009353 -0.025668 0
0.014026 -0.017259 0
0.017812 0.004509 0
0.011500 0.012577 0
0.004934 0.010067 0
0.001085 0.005347 0
-0.000593 0.002128 0
-0.001171 0.000602 0
-0.001315 0.000047 0
-0.001321 -0.000095 0
-0.001296 -0.000102 0
-0.001270 -0.000077 0
-0.001251 -0.000055 0
-0.001237 -0.000039 0
-0.001227 -0.000030 0
-0.001219 -0.000024 0
-0.001212 -0.000021 0
-0.001207 -0.000018 0
-0.001202 -0.000016 0
-0.001198 -0.000013 0
-0.001195 -0.000011 0
-0.001193 -0.000009 0
-0.001191 -0.000006 0
-0.001189 -0.000003 0
-0.001189 -0.000000 0
-0.001189 0.000003 0
-0.001190 0.000006 0
-0.001192 0.000009 0
-0.001194 0.000012 0
-0.001197 0.000015 0
-0.001201 0.000019 0
-0.001207 0.000027 0
-0.001217 0.000047 0
-0.001237 0.000097 0
-0.001281 0.000217 0
-0.001384 0.000478 0
-0.001617 0.000949 0
-0.002118 0.001545 0
-0.003043 0.001622 0
-0.004166 -0.000343 0
-0.003707 -0.005523 0
0.002720 -0.010616 0
0.018315 -0.006119 0
0.029782 0.005391 0
0.027347 0.010322 0
0.011024 0.004946 0
0.000005 0.000000 0
-0.000025 0.000000 0
0.000000 0.000000 0
0.000000 0.000000 0
0.000000 0.000000 0
0.000000 0.000000 0
0.000000 0.000000 0
0.000000 0.000000 0
0.000000 0.000000 0
0.000000 0.000000 0
0.000000 0.000000 0
0.000000 0.000000 0
0.000000 0.000000 0
0.000000 0.000000 0
0.000000 0.000000 0
0.000000 0.000000 0
0.000000 0.000000 0
0.000000 0.000000 0
0.000000 0.000000 0
0.000000 0.000000 0
0.000000 0.000000 0
0.000000 0.000000 0
0.000000 0.000000 0
0.000000 0.000000 0
0.000000 0.000000 0
0.000000 0.000000 0
0.000000 0.000000 0
0.000000 0.000000 0
0.000000 0.000000 0
0.000000 0.000000 0
0.000000 0.000000 0
0.000000 0.000000 0
-0.007670 0.005709 0
-0.030220 0.015005 0
-0.045442 0.010937 0
-0.042613 -0.013687 0
-0.022062 -0.036601 0
0.000068 -0.024041 0
0.004323 0.004676 0
0.001702 0.015009 0
-0.000901 0.011994 0
-0.002177 0.006329 0
-0.002611 0.002512 0
-0.002719 0.000721 0
-0.002738 0.000073 0
-0.002740 -0.000096 0
-0.002741 -0.000108 0
-0.002743 -0.000083 0
-0.002745 -0.000059 0
-0.002748 -0.000042 0
-0.002750 -0.000032 0
-0.002752 -0.000026 0
-0.002754 -0.000022 0
-0.002756 -0.000019 0
-0.002757 -0.000017 0
-0.002759 -0.000014 0
-0.002760 -0.000012 0
-0.002761 -0.000009 0
-0.002761 -0.000007 0
-0.002761 -0.000004 0
-0.002761 -0.000001 0
-0.002760 0.000002 0
-0.002759 0.000006 0
-0.002757 0.000009 0
-0.002755 0.000012 0
-0.002752 0.000015 0
-0.002748 0.000019 0
-0.002744 0.000027 0
-0.002738 0.000049 0
-0.002730 0.000102 0
-0.002718 0.000233 0
-0.002702 0.000519 0
-0.002699 0.001058 0
-0.002793 0.001805 0
-0.003214 0.002084 0
-0.004173 -0.000047 0
-0.004725 -0.006910 0
-0.000486 -0.016046 0
0.015304 -0.013711 0
0.031274 0.001339 0
0.036823 0.012825 0
0.028959 0.013297 0
0.010459 0.005359 0
0.000005 0.000000 0
-0.000023 0.000000 0
0.000000 0.000000 0
0.000000 0.000000 0
0.000000 0.000000 0
0.000000 0.000000 0
0.000000 0.000000 0
0.000000 0.000000 0
0.000000 0.000000 0
0.000000 0.000000 0
0.000000 0.000000 0
-0.000437 0.000000 0
-0.000437 0.000000 0
-0.000713 0.000000 0
-0.000837 0.000000 0
-0.000895 0.000000 0
-0.000923 0.000000 0
-0.000940 0.000000 0
-0.000952 0.000000 0
-0.000963 0.000000 0
-0.000971 0.000000 0
-0.000978 0.000000 0
-0.000982 0.000000 0
-0.000988 0.000000 0
-0.001019 0.000000 0
-0.001157 0.000000 0
-0.001586 0.000000 0
-0.002556 0.000000 0
-0.004056 0.000000 0
0.000000 0.000000 0
-0.001459 0.003760 0
-0.018074 0.014743 0
-0.039042 0.023652 0
-0.052183 0.013573 0
-0.049732 -0.019187 0
-0.032099 -0.046327 0
-0.014545 -0.030030 0
-0.011423 0.003717 0
-0.009040 0.015105 0
-0.006300 0.011944 0
-0.004282 0.006174 0
-0.003208 0.002390 0
-0.002773 0.000663 0
-0.002652 0.000057 0
-0.002648 -0.000094 0
-0.002675 -0.000101 0
-0.002703 -0.000076 0
-0.002726 -0.000053 0
-0.002743 -0.000038 0
-0.002757 -0.000028 0
-0.002768 -0.000023 0
-0.002778 -0.000019 0
-0.002786 -0.000017 0
-0.002794 -0.000015 0
-0.002800 -0.000013 0
-0.002806 -0.000011 0
-0.002810 -0.000008 0
-0.002813 -0.000006 0
-0.002815 -0.000004 0
-0.002816 -0.000001 0
-0.002815 0.000001 0
-0.002813 0.000004 0
-0.002809 0.000006 0
-0.002804 0.000009 0
-0.002797 0.000011 0
-0.002788 0.000015 0
-0.002776 0.000022 0
-0.002759 0.000040 0
-0.002728 0.000087 0
-0.002667 0.000203 0
-0.002542 0.000468 0
-0.002302 0.000993 0
-0.001930 0.001794 0
-0.001604 0.002289 0
-0.001892 0.000388 0
-0.003193 -0.007308 0
-0.002693 -0.020311 0
0.009932 -0.021493 0
0.026324 -0.005025 0
0.037219 0.011442 0
0.037699 0.017752 0
0.026875 0.014081 0
0.008636 0.005080 0
0.000005 0.000000 0
-0.001887 0.000000 0
-0.000838 0.000000 0
-0.000636 0.000000 0
-0.000577 0.000000 0
-0.000475 0.000000 0
-0.000289 0.000000 0
-0.000085 0.000000 0
0.000001 0.000000 0
0.000000 0.000000 0
0.000000 0.000000 0
-0.000009 0.000000 0
-0.000010 0.000000 0
-0.000011 0.000000 0
-0.000011 0.000000 0
-0.000011 0.000000 0
-0.000012 0.000000 0
-0.000012 0.000000 0
-0.000012 0.000000 0
-0.000012 0.000000 0
-0.000012 0.000000 0
-0.000012 0.000000 0
-0.000012 0.000000 0
-0.000012 0.000000 0
-0.000012 0.000000 0
-0.000014 0.000000 0
-0.000022 0.000000 0
-0.000037 0.000000 0
0.005128 0.000728 0
-0.001437 0.008817 0
-0.019621 0.023947 0
-0.038345 0.031515 0
-0.049572 0.016111 0
-0.048258 -0.023408 0
-0.035126 -0.053632 0
-0.023831 -0.034049 0
-0.024174 0.002011 0
-0.017087 0.012529 0
-0.009352 0.009691 0
-0.004514 0.004832 0
-0.002291 0.001782 0
-0.001506 0.000451 0
-0.001322 0.000012 0
-0.001334 -0.000085 0
-0.001387 -0.000081 0
-0.001437 -0.000059 0
-0.001474 -0.000040 0
-0.001501 -0.000028 0
-0.001522 -0.000020 0
-0.001539 -0.000016 0
-0.001553 -0.000014 0
-0.001565 -0.000012 0
-0.001575 -0.000010 0
-0.001585 -0.000009 0
-0.001593 -0.000008 0
-0.001599 -0.000006 0
-0.001605 -0.000005 0
-0.001608 -0.000003 0
-0.001610 -0.000001 0
-0.001610 0.000000 0
-0.001608 0.000002 0
-0.001604 0.000004 0
-0.001599 0.000005 0
-0.001591 0.000007 0
-0.001582 0.000008 0
-0.001569 0.000013 0
-0.001548 0.000025 0
-0.001509 0.000058 0
-0.001424 0.000142 0
-0.001236 0.000341 0
-0.000835 0.000761 0
-0.000081 0.001467 0
0.001018 0.002064 0
0.001762 0.000721 0
0.000275 -0.006523 0
-0.003771 -0.022400 0
0.003701 -0.027757 0
0.017070 -0.011870 0
0.029783 0.007318 0
0.036538 0.018303 0
0.033767 0.019472 0
0.021663 0.013062 0
0.006386 0.004188 0
-0.000009 0.000000 0
-0.000005 0.000000 0
-0.000005 0.000000 0
-0.000005 0.000000 0
-0.000004 0.000000 0
-0.000003 0.000000 0
-0.000001 0.000000 0
-0.000001 0.000000 0
-2.500000 0.000000 0
0.001438 -0.000470 0
0.001416 -0.000368 0
0.002292 -0.000193 0
0.002747 -0.000088 0
0.002982 -0.000042 0
0.003106 -0.000022 0
0.003178 -0.000014 0
0.003229 -0.000011 0
0.003270 -0.000010 0
0.003306 -0.000008 0
0.003335 -0.000006 0
0.003362 -0.000005 0
0.003410 -0.000019 0
0.003569 -0.000082 0
0.004099 -0.000274 0
0.005531 -0.000673 0
0.008421 -0.001185 0
0.012186 -0.001304 0
0.013022 0.002614 0
0.002065 0.015760 0
-0.015033 0.032607 0
-0.029870 0.038148 0
-0.038005 0.018371 0
-0.037180 -0.026180 0
-0.028790 -0.058151 0
-0.023611 -0.035331 0
-0.028840 0.000453 0
-0.019159 0.007930 0
-0.009000 0.005858 0
-0.003156 0.002756 0
-0.000717 0.000934 0
0.000039 0.000194 0
0.000166 -0.000027 0
0.000117 -0.000063 0
0.000044 -0.000051 0
-0.000014 -0.000035 0
-0.000054 -0.000022 0
-0.000082 -0.000015 0
-0.000103 -0.000011 0
-0.000119 -0.000009 0
-0.000133 -0.000007 0
-0.000145 -0.000006 0
-0.000155 -0.000005 0
-0.000164 -0.000005 0
-0.000172 -0.000004 0
-0.000179 -0.000003 0
-0.000184 -0.000003 0
-0.000188 -0.000002 0
-0.000190 -0.000001 0
-0.000191 -0.000000 0
-0.000190 0.000001 0
-0.000188 0.000001 0
-0.000184 0.000002 0
-0.000179 0.000003 0
-0.000173 0.000003 0
-0.000163 0.000005 0
-0.000148 0.000010 0
-0.000117 0.000026 0
-0.000041 0.000071 0
0.000140 0.000182 0
0.000560 0.000433 0
0.001441 0.000897 0
0.002969 0.001396 0
0.004606 0.000747 0
0.003586 -0.004631 0
-0.004523 -0.021970 0
-0.002431 -0.031581 0
0.006051 -0.017650 0
0.017427 0.002019 0
0.027420 0.015824 0
0.031145 0.021280 0
0.026062 0.018369 0
0.015245 0.009623 0
0.006347 0.002697 0
0.003297 0.000602 0
0.002399 0.000125 0
0.002027 0.000076 0
0.001597 0.000137 0
0.000963 0.000185 0
0.000308 0.000137 0
-0.000001 0.000040 0
-5.000000 0.000000 0
0.002057 -0.001482 0
0.002034 -0.001162 0
0.003312 -0.000644 0
0.004069 -0.000334 0
0.004493 -0.000174 0
0.004727 -0.000095 0
0.004865 -0.000060 0
0.004959 -0.000045 0
0.005033 -0.000038 0
0.005096 -0.000032 0
0.005153 -0.000028 0
0.005217 -0.000037 0
0.005335 -0.000101 0
0.005656 -0.000334 0
0.006552 -0.000950 0
0.008680 -0.002093 0
0.012508 -0.003223 0
0.016641 -0.002276 0
0.015543 0.005578 0
0.005092 0.022396 0
-0.007704 0.039404 0
-0.016622 0.042634 0
-0.020008 0.019649 0
-0.018505 -0.027869 0
-0.014671 -0.060201 0
-0.014472 -0.034025 0
-0.021759 -0.000145 0
-0.013326 0.002926 0
-0.005377 0.001944 0
-0.001225 0.000823 0
0.000317 0.000235 0
0.000704 0.000024 0
0.000717 -0.000026 0
0.000649 -0.000027 0
0.000586 -0.000019 0
0.000542 -0.000011 0
0.000513 -0.000007 0
0.000495 -0.000004 0
0.000481 -0.000003 0
0.000471 -0.000002 0
0.000463 -0.000002 0
0.000455 -0.000002 0
0.000449 -0.000002 0
0.000443 -0.000001 0
0.000438 -0.000001 0
0.000434 -0.000001 0
0.000430 -0.000001 0
0.000427 -0.000001 0
0.000425 -0.000000 0
0.000424 -0.000000 0
0.000424 0.000000 0
0.000425 0.000000 0
0.000426 0.000000 0
0.000428 0.000000 0
0.000430 0.000000 0
0.000433 0.000000 0
0.000439 0.000001 0
0.000453 0.000005 0
0.000492 0.000017 0
0.000598 0.000050 0
0.000867 0.000131 0
0.001491 0.000300 0
0.002718 0.000532 0
0.004374 0.000422 0
0.004260 -0.002105 0
-0.005031 -0.019488 0
-0.007622 -0.032876 0
-0.004443 -0.021482 0
0.003632 -0.003026 0
0.013877 0.011663 0
0.021485 0.020129 0
0.022502 0.020757 0
0.017024 0.013754 0
0.009626 0.005806 0
0.005655 0.001909 0
0.004018 0.000613 0
0.003191 0.000386 0
0.002388 0.000513 0
0.001386 0.000622 0
0.000447 0.000464 0
-0.000000 0.000148 0
-5.000000 0.000000 0
0.001744 -0.002546 0
0.001727 -0.002021 0
0.002942 -0.001178 0
0.003745 -0.000659 0
0.004228 -0.000360 0
0.004507 -0.000202 0
0.004673 -0.000127 0
0.004784 -0.000093 0
0.004869 -0.000076 0
0.004942 -0.000066 0
0.005013 -0.000064 0
0.005100 -0.000093 0
0.005263 -0.000231 0
0.005654 -0.000671 0
0.006598 -0.001738 0
0.008564 -0.003557 0
0.011663 -0.005039 0
0.014368 -0.002774 0
0.012632 0.008204 0
0.005697 0.027012 0
-0.000457 0.043117 0
-0.002051 0.044103 0
0.000334 0.019283 0
0.002964 -0.028764 0
0.001672 -0.060104 0
-0.004050 -0.031798 0
0.000068 0.000000 0
0.000029 0.000000 0
0.000007 0.000000 0
-0.000001 0.000000 0
-0.000004 0.000000 0
-0.000004 0.000000 0
-0.000004 0.000000 0
-0.000005 0.000000 0
-0.000005 0.000000 0
-0.000005 0.000000 0
-0.000005 0.000000 0
-0.000005 0.000000 0
-0.000005 0.000000 0
-0.000005 0.000000 0
-0.000006 0.000000 0
-0.000006 0.000000 0
-0.000006 0.000000 0
-0.000006 0.000000 0
-0.000006 0.000000 0
-0.000006 0.000000 0
-0.000007 0.000000 0
-0.000007 0.000000 0
-0.000007 0.000000 0
-0.000007 0.000000 0
-0.000007 0.000000 0
-0.000008 0.000000 0
-0.000008 0.000000 0
-0.000008 0.000000 0
-0.000008 0.000000 0
-0.000008 0.000000 0
-0.000008 0.000000 0
-0.000009 0.000000 0
-0.000009 0.000000 0
-0.000009 0.000000 0
-0.000010 0.000000 0
-0.000011 0.000000 0
-0.000014 0.000000 0
-0.000020 0.000000 0
-0.000029 0.000000 0
-0.002563 -0.016140 0
-0.010857 -0.031866 0
-0.012721 -0.023098 0
-0.008606 -0.006850 0
-0.000302 0.007181 0
0.008496 0.017105 0
0.013737 0.020527 0
0.013385 0.015854 0
0.009269 0.008200 0
0.005992 0.003315 0
0.004191 0.001317 0
0.003113 0.000865 0
0.002150 0.001009 0
0.001124 0.001124 0
0.000304 0.000807 0
0.000000 0.000256 0
-5.000000 0.000000 0
0.000834 -0.003255 0
0.000827 -0.002635 0
0.001622 -0.001621 0
0.002228 -0.000957 0
0.002623 -0.000543 0
0.002862 -0.000311 0
0.003008 -0.000194 0
0.003105 -0.000140 0
0.003178 -0.000114 0
0.003242 -0.000101 0
0.003306 -0.000104 0
0.003393 -0.000158 0
0.003552 -0.000369 0
0.003891 -0.000981 0
0.004582 -0.002359 0
0.005768 -0.004545 0
0.007220 -0.006032 0
0.007869 -0.002745 0
0.006214 0.009775 0
0.003971 0.028731 0
0.005173 0.043154 0
0.010984 0.042250 0
0.018762 0.017221 0
0.021713 -0.028517 0
0.013795 -0.056822 0
-0.000014 0.000191 0
0.007535 0.029714 0
0.004183 0.000000 0
0.001430 0.000000 0
0.000136 0.000000 0
-0.000280 0.000000 0
-0.000351 0.000000 0
-0.000329 0.000000 0
-0.000297 0.000000 0
-0.000273 0.000000 0
-0.000259 0.000000 0
-0.000250 0.000000 0
-0.000244 0.000000 0
-0.000240 0.000000 0
-0.000238 0.000000 0
-0.000235 0.000000 0
-0.000233 0.000000 0
-0.000232 0.000000 0
-0.000230 0.000000 0
-0.000229 0.000000 0
-0.000228 0.000000 0
-0.000227 0.000000 0
-0.000226 0.000000 0
-0.000225 0.000000 0
-0.000225 0.000000 0
-0.000225 0.000000 0
-0.000225 0.000000 0
-0.000225 0.000000 0
-0.000225 0.000000 0
-0.000226 0.000000 0
-0.000226 0.000000 0
-0.000226 0.000000 0
-0.000228 0.000000 0
-0.000237 0.000000 0
-0.000264 0.000000 0