# vtk DataFile Version 2.0
generated by CFD-lab course output (written by Tobias Neckel) 
ASCII

DATASET STRUCTURED_GRID
DIMENSIONS  82 36 1 
POINTS 2952 float

-2.500000 0.100000 0
-2.402439 0.100000 0
-2.304878 0.100000 0
-2.207317 0.100000 0
-2.109756 0.100000 0
-2.012195 0.100000 0
-1.914634 0.100000 0
-1.817073 0.100000 0
-1.719512 0.100000 0
-1.621951 0.100000 0
-1.524390 0.100000 0
-1.426829 0.100000 0
-1.329268 0.100000 0
-1.231707 0.100000 0
-1.134146 0.100000 0
-1.036585 0.100000 0
-0.939024 0.100000 0
-0.841463 0.100000 0
-0.743902 0.100000 0
-0.646341 0.100000 0
-0.548780 0.100000 0
-0.451220 0.100000 0
-0.353659 0.100000 0
-0.256098 0.100000 0
-0.158537 0.100000 0
-0.060976 0.100000 0
0.036585 0.100000 0
0.134146 0.100000 0
0.231707 0.100000 0
0.329268 0.100000 0
0.426829 0.100000 0
0.524390 0.100000 0
0.621951 0.100000 0
0.719512 0.100000 0
0.817073 0.100000 0
0.914634 0.100000 0
1.012195 0.100000 0
1.109756 0.100000 0
1.207317 0.100000 0
1.304878 0.100000 0
1.402439 0.100000 0
1.500000 0.100000 0
1.597561 0.100000 0
1.695122 0.100000 0
1.792683 0.100000 0
1.890244 0.100000 0
1.987805 0.100000 0
2.085366 0.100000 0
2.182927 0.100000 0
2.280488 0.100000 0
2.378049 0.100000 0
2.475610 0.100000 0
2.573171 0.100000 0
2.670732 0.100000 0
2.768293 0.100000 0
2.865854 0.100000 0
2.963415 0.100000 0
3.060976 0.100000 0
3.158537 0.100000 0
3.256098 0.100000 0
3.353659 0.100000 0
3.451220 0.100000 0
3.548780 0.100000 0
3.646341 0.100000 0
3.743902 0.100000 0
3.841463 0.100000 0
3.939024 0.100000 0
4.036585 0.100000 0
4.134146 0.100000 0
4.231707 0.100000 0
4.329268 0.100000 0
4.426829 0.100000 0
4.524390 0.100000 0
4.621951 0.100000 0
4.719512 0.100000 0
4.817073 0.100000 0
4.914634 0.100000 0
5.012195 0.100000 0
5.109756 0.100000 0
5.207317 0.100000 0
5.304878 0.100000 0
5.402439 0.100000 0
-2.500000 0.147222 0
-2.402439 0.147222 0
-2.304878 0.147222 0
-2.207317 0.147222 0
-2.109756 0.147222 0
-2.012195 0.147222 0
-1.914634 0.147222 0
-1.817073 0.147222 0
-1.719512 0.147222 0
-1.621951 0.147222 0
-1.524390 0.147222 0
-1.426829 0.147222 0
-1.329268 0.147222 0
-1.231707 0.147222 0
-1.134146 0.147222 0
-1.036585 0.147222 0
-0.939024 0.147222 0
-0.841463 0.147222 0
-0.743902 0.147222 0
-0.646341 0.147222 0
-0.548780 0.147222 0
-0.451220 0.147222 0
-0.353659 0.147222 0
-0.256098 0.147222 0
-0.158537 0.147222 0
-0.060976 0.147222 0
0.036585 0.147222 0
0.134146 0.147222 0
0.231707 0.147222 0
0.329268 0.147222 0
0.426829 0.147222 0
0.524390 0.147222 0
0.621951 0.147222 0
0.719512 0.147222 0
0.817073 0.147222 0
0.914634 0.147222 0
1.012195 0.147222 0
1.109756 0.147222 0
1.207317 0.147222 0
1.304878 0.147222 0
1.402439 0.147222 0
1.500000 0.147222 0
1.597561 0.147222 0
1.695122 0.147222 0
1.792683 0.147222 0
1.890244 0.147222 0
1.987805 0.147222 0
2.085366 0.147222 0
2.182927 0.147222 0
2.280488 0.147222 0
2.378049 0.147222 0
2.475610 0.147222 0
2.573171 0.147222 0
2.670732 0.147222 0
2.768293 0.147222 0
2.865854 0.147222 0
2.963415 0.147222 0
3.060976 0.147222 0
3.158537 0.147222 0
3.256098 0.147222 0
3.353659 0.147222 0
3.451220 0.147222 0
3.548780 0.147222 0
3.646341 0.147222 0
3.743902 0.147222 0
3.841463 0.147222 0
3.939024 0.147222 0
4.036585 0.147222 0
4.134146 0.147222 0
4.231707 0.147222 0
4.329268 0.147222 0
4.426829 0.147222 0
4.524390 0.147222 0
4.621951 0.147222 0
4.719512 0.147222 0
4.817073 0.147222 0
4.914634 0.147222 0
5.012195 0.147222 0
5.109756 0.147222 0
5.207317 0.147222 0
5.304878 0.147222 0
5.402439 0.147222 0
-2.500000 0.194444 0
-2.402439 0.194444 0
-2.304878 0.194444 0
-2.207317 0.194444 0
-2.109756 0.194444 0
-2.012195 0.194444 0
-1.914634 0.194444 0
-1.817073 0.194444 0
-1.719512 0.194444 0
-1.621951 0.194444 0
-1.524390 0.194444 0
-1.426829 0.194444 0
-1.329268 0.194444 0
-1.231707 0.194444 0
-1.134146 0.194444 0
-1.036585 0.194444 0
-0.939024 0.194444 0
-0.841463 0.194444 0
-0.743902 0.194444 0
-0.646341 0.194444 0
-0.548780 0.194444 0
-0.451220 0.194444 0
-0.353659 0.194444 0
-0.256098 0.194444 0
-0.158537 0.194444 0
-0.060976 0.194444 0
0.036585 0.194444 0
0.134146 0.194444 0
0.231707 0.194444 0
0.329268 0.194444 0
0.426829 0.194444 0
0.524390 0.194444 0
0.621951 0.194444 0
0.719512 0.194444 0
0.817073 0.194444 0
0.914634 0.194444 0
1.012195 0.194444 0
1.109756 0.194444 0
1.207317 0.194444 0
1.304878 0.194444 0
1.402439 0.194444 0
1.500000 0.194444 0
1.597561 0.194444 0
1.695122 0.194444 0
1.792683 0.194444 0
1.890244 0.194444 0
1.987805 0.194444 0
2.085366 0.194444 0
2.182927 0.194444 0
2.280488 0.194444 0
2.378049 0.194444 0
2.475610 0.194444 0
2.573171 0.194444 0
2.670732 0.194444 0
2.768293 0.194444 0
2.865854 0.194444 0
2.963415 0.194444 0
3.060976 0.194444 0
3.158537 0.194444 0
3.256098 0.194444 0
3.353659 0.194444 0
3.451220 0.194444 0
3.548780 0.194444 0
3.646341 0.194444 0
3.743902 0.194444 0
3.841463 0.194444 0
3.939024 0.194444 0
4.036585 0.194444 0
4.134146 0.194444 0
4.231707 0.194444 0
4.329268 0.194444 0
4.426829 0.194444 0
4.524390 0.194444 0
4.621951 0.194444 0
4.719512 0.194444 0
4.817073 0.194444 0
4.914634 0.194444 0
5.012195 0.194444 0
5.109756 0.194444 0
5.207317 0.194444 0
5.304878 0.194444 0
5.402439 0.194444 0
-2.500000 0.241667 0
-2.402439 0.241667 0
-2.304878 0.241667 0
-2.207317 0.241667 0
-2.109756 0.241667 0
-2.012195 0.241667 0
-1.914634 0.241667 0
-1.817073 0.241667 0
-1.719512 0.241667 0
-1.621951 0.241667 0
-1.524390 0.241667 0
-1.426829 0.241667 0
-1.329268 0.241667 0
-1.231707 0.241667 0
-1.134146 0.241667 0
-1.036585 0.241667 0
-0.939024 0.241667 0
-0.841463 0.241667 0
-0.743902 0.241667 0
-0.646341 0.241667 0
-0.548780 0.241667 0
-0.451220 0.241667 0
-0.353659 0.241667 0
-0.256098 0.241667 0
-0.158537 0.241667 0
-0.060976 0.241667 0
0.036585 0.241667 0
0.134146 0.241667 0
0.231707 0.241667 0
0.329268 0.241667 0
0.426829 0.241667 0
0.524390 0.241667 0
0.621951 0.241667 0
0.719512 0.241667 0
0.817073 0.241667 0
0.914634 0.241667 0
1.012195 0.241667 0
1.109756 0.241667 0
1.207317 0.241667 0
1.304878 0.241667 0
1.402439 0.241667 0
1.500000 0.241667 0
1.597561 0.241667 0
1.695122 0.241667 0
1.792683 0.241667 0
1.890244 0.241667 0
1.987805 0.241667 0
2.085366 0.241667 0
2.182927 0.241667 0
2.280488 0.241667 0
2.378049 0.241667 0
2.475610 0.241667 0
2.573171 0.241667 0
2.670732 0.241667 0
2.768293 0.241667 0
2.865854 0.241667 0
2.963415 0.241667 0
3.060976 0.241667 0
3.158537 0.241667 0
3.256098 0.241667 0
3.353659 0.241667 0
3.451220 0.241667 0
3.548780 0.241667 0
3.646341 0.241667 0
3.743902 0.241667 0
3.841463 0.241667 0
3.939024 0.241667 0
4.036585 0.241667 0
4.134146 0.241667 0
4.231707 0.241667 0
4.329268 0.241667 0
4.426829 0.241667 0
4.524390 0.241667 0
4.621951 0.241667 0
4.719512 0.241667 0
4.817073 0.241667 0
4.914634 0.241667 0
5.012195 0.241667 0
5.109756 0.241667 0
5.207317 0.241667 0
5.304878 0.241667 0
5.402439 0.241667 0
-2.500000 0.288889 0
-2.402439 0.288889 0
-2.304878 0.288889 0
-2.207317 0.288889 0
-2.109756 0.288889 0
-2.012195 0.288889 0
-1.914634 0.288889 0
-1.817073 0.288889 0
-1.719512 0.288889 0
-1.621951 0.288889 0
-1.524390 0.288889 0
-1.426829 0.288889 0
-1.329268 0.288889 0
-1.231707 0.288889 0
-1.134146 0.288889 0
-1.036585 0.288889 0
-0.939024 0.288889 0
-0.841463 0.288889 0
-0.743902 0.288889 0
-0.646341 0.288889 0
-0.548780 0.288889 0
-0.451220 0.288889 0
-0.353659 0.288889 0
-0.256098 0.288889 0
-0.158537 0.288889 0
-0.060976 0.288889 0
0.036585 0.288889 0
0.134146 0.288889 0
0.231707 0.288889 0
0.329268 0.288889 0
0.426829 0.288889 0
0.524390 0.288889 0
0.621951 0.288889 0
0.719512 0.288889 0
0.817073 0.288889 0
0.914634 0.288889 0
1.012195 0.288889 0
1.109756 0.288889 0
1.207317 0.288889 0
1.304878 0.288889 0
1.402439 0.288889 0
1.500000 0.288889 0
1.597561 0.288889 0
1.695122 0.288889 0
1.792683 0.288889 0
1.890244 0.288889 0
1.987805 0.288889 0
2.085366 0.288889 0
2.182927 0.288889 0
2.280488 0.288889 0
2.378049 0.288889 0
2.475610 0.288889 0
2.573171 0.288889 0
2.670732 0.288889 0
2.768293 0.288889 0
2.865854 0.288889 0
2.963415 0.288889 0
3.060976 0.288889 0
3.158537 0.288889 0
3.256098 0.288889 0
3.353659 0.288889 0
3.451220 0.288889 0
3.548780 0.288889 0
3.646341 0.288889 0
3.743902 0.288889 0
3.841463 0.288889 0
3.939024 0.288889 0
4.036585 0.288889 0
4.134146 0.288889 0
4.231707 0.288889 0
4.329268 0.288889 0
4.426829 0.288889 0
4.524390 0.288889 0
4.621951 0.288889 0
4.719512 0.288889 0
4.817073 0.288889 0
4.914634 0.288889 0
5.012195 0.288889 0
5.109756 0.288889 0
5.207317 0.288889 0
5.304878 0.288889 0
5.402439 0.288889 0
-2.500000 0.336111 0
-2.402439 0.336111 0
-2.304878 0.336111 0
-2.207317 0.336111 0
-2.109756 0.336111 0
-2.012195 0.336111 0
-1.914634 0.336111 0
-1.817073 0.336111 0
-1.719512 0.336111 0
-1.621951 0.336111 0
-1.524390 0.336111 0
-1.426829 0.336111 0
-1.329268 0.336111 0
-1.231707 0.336111 0
-1.134146 0.336111 0
-1.036585 0.336111 0
-0.939024 0.336111 0
-0.841463 0.336111 0
-0.743902 0.336111 0
-0.646341 0.336111 0
-0.548780 0.336111 0
-0.451220 0.336111 0
-0.353659 0.336111 0
-0.256098 0.336111 0
-0.158537 0.336111 0
-0.060976 0.336111 0
0.036585 0.336111 0
0.134146 0.336111 0
0.231707 0.336111 0
0.329268 0.336111 0
0.426829 0.336111 0
0.524390 0.336111 0
0.621951 0.336111 0
0.719512 0.336111 0
0.817073 0.336111 0
0.914634 0.336111 0
1.012195 0.336111 0
1.109756 0.336111 0
1.207317 0.336111 0
1.304878 0.336111 0
1.402439 0.336111 0
1.500000 0.336111 0
1.597561 0.336111 0
1.695122 0.336111 0
1.792683 0.336111 0
1.890244 0.336111 0
1.987805 0.336111 0
2.085366 0.336111 0
2.182927 0.336111 0
2.280488 0.336111 0
2.378049 0.336111 0
2.475610 0.336111 0
2.573171 0.336111 0
2.670732 0.336111 0
2.768293 0.336111 0
2.865854 0.336111 0
2.963415 0.336111 0
3.060976 0.336111 0
3.158537 0.336111 0
3.256098 0.336111 0
3.353659 0.336111 0
3.451220 0.336111 0
3.548780 0.336111 0
3.646341 0.336111 0
3.743902 0.336111 0
3.841463 0.336111 0
3.939024 0.336111 0
4.036585 0.336111 0
4.134146 0.336111 0
4.231707 0.336111 0
4.329268 0.336111 0
4.426829 0.336111 0
4.524390 0.336111 0
4.621951 0.336111 0
[...]
POINT_DATA 2952 

VECTORS velocity float
0.000000 0.000000 0
0.000000 0.000000 0
0.000000 0.000000 0
0.000000 0.000000 0
0.000000 0.000000 0
0.000000 0.000000 0
0.000000 0.000000 0
0.000000 0.000000 0
0.000000 0.000000 0
0.000000 0.000000 0
0.000000 0.000000 0
0.000000 0.000000 0
0.000000 0.000000 0
0.000000 0.000000 0
0.000000 0.000000 0
0.000000 0.000000 0
0.000000 0.000000 0
0.000000 0.000000 0
0.000000 0.000000 0
0.000000 0.000000 0
0.000000 0.000000 0
0.000000 0.000000 0
0.000000 0.000000 0
0.000000 0.000000 0
0.000000 0.000000 0
0.000038 0.000000 0
-0.000020 0.000000 0
-0.000063 0.000000 0
-0.000075 0.000000 0
-0.000075 0.000000 0
-0.000075 0.000000 0
-0.000075 0.000000 0
-0.000075 0.000000 0
-0.000076 0.000000 0
-0.000078 0.000000 0
-0.000079 0.000000 0
-0.000080 0.000000 0
-0.000081 0.000000 0
-0.000083 0.000000 0
-0.000084 0.000000 0
-0.000085 0.000000 0
-0.000086 0.000000 0
-0.000087 0.000000 0
-0.000088 0.000000 0
-0.000089 0.000000 0
-0.000090 0.000000 0
-0.000090 0.000000 0
-0.000091 0.000000 0
-0.000091 0.000000 0
-0.000092 0.000000 0
-0.000092 0.000000 0
-0.000093 0.000000 0
-0.000093 0.000000 0
-0.000093 0.000000 0
-0.000093 0.000000 0
-0.000093 0.000000 0
-0.000092 0.000000 0
-0.000092 0.000000 0
-0.000091 0.000000 0
-0.000090 0.000000 0
-0.000088 0.000000 0
-0.000085 0.000000 0
-0.000082 0.000000 0
-0.000088 0.000000 0
-0.000128 0.000000 0
-0.000197 0.000000 0
-0.000012 0.000000 0
-0.000025 0.000000 0
0.000000 0.000000 0
0.000000 0.000000 0
0.000000 0.000000 0
0.000000 0.000000 0
0.000000 0.000000 0
0.000000 0.000000 0
0.000000 0.000000 0
0.000000 0.000000 0
0.000000 0.000000 0
0.000000 0.000000 0
0.000000 0.000000 0
0.000000 0.000000 0
0.000000 0.000000 0
0.000000 0.000000 0
0.000000 0.000000 0
0.000000 0.000000 0
0.000000 0.000000 0
0.000000 0.000000 0
0.000000 0.000000 0
0.000000 0.000000 0
0.000000 0.000000 0
0.000000 0.000000 0
0.000000 0.000000 0
0.000000 0.000000 0
0.000000 0.000000 0
0.000000 0.000000 0
0.000000 0.000000 0
0.000000 0.000000 0
0.000000 0.000000 0
0.000000 0.000000 0
0.000000 0.000000 0
0.000000 0.000000 0
0.000000 0.000000 0
0.000000 0.000000 0
0.000000 0.000000 0
0.000000 0.000000 0
0.000000 0.000000 0
0.000000 0.000000 0
0.004574 -0.003033 0
0.023248 -0.003886 0
0.027176 -0.000439 0
0.023086 0.001058 0
0.018016 0.001079 0
0.014603 0.000636 0
0.012898 0.000263 0
0.012225 0.000068 0
0.012029 -0.000008 0
0.012016 -0.000029 0
0.012059 -0.000030 0
0.012110 -0.000027 0
0.012158 -0.000023 0
0.012199 -0.000021 0
0.012235 -0.000019 0
0.012265 -0.000018 0
0.012291 -0.000017 0
0.012314 -0.000016 0
0.012332 -0.000015 0
0.012347 -0.000014 0
0.012358 -0.000013 0
0.012364 -0.000011 0
0.012365 -0.000010 0
0.012361 -0.000009 0
0.012352 -0.000007 0
0.012336 -0.000005 0
0.012314 -0.000004 0
0.012285 -0.000002 0
0.012250 0.000000 0
0.012206 0.000003 0
0.012153 0.000006 0
0.012087 0.000010 0
0.012002 0.000019 0
0.011882 0.000034 0
0.011696 0.000067 0
0.011382 0.000131 0
0.010837 0.000241 0
0.009966 0.000344 0
0.009045 0.000120 0
0.009808 -0.001126 0
0.016274 -0.002587 0
0.027705 0.002655 0
0.020603 0.004186 0
-0.000007 0.000000 0
-0.000066 0.000000 0
0.000000 0.000000 0
0.000000 0.000000 0
0.000000 0.000000 0
0.000000 0.000000 0
0.000000 0.000000 0
0.000000 0.000000 0
0.000000 0.000000 0
0.000000 0.000000 0
0.000000 0.000000 0
0.000000 0.000000 0
0.000000 0.000000 0
0.000000 0.000000 0
0.000000 0.000000 0
0.000000 0.000000 0
0.000000 0.000000 0
0.000000 0.000000 0
0.000000 0.000000 0
0.000000 0.000000 0
0.000000 0.000000 0
0.000000 0.000000 0
0.000000 0.000000 0
0.000000 0.000000 0
0.000000 0.000000 0
0.000000 0.000000 0
0.000000 0.000000 0
0.000000 0.000000 0
0.000000 0.000000 0
0.000000 0.000000 0
0.000000 0.000000 0
0.000000 0.000000 0
0.000000 0.000000 0
0.000000 0.000000 0
0.000000 0.000000 0
0.000000 0.000000 0
0.000000 0.000000 0
0.000000 0.000000 0
-0.007675 -0.002318 0
0.008941 -0.011336 0
0.042917 -0.010922 0
0.044448 0.000072 0
0.033219 0.004427 0
0.022807 0.004099 0
0.016430 0.002470 0
0.013268 0.001143 0
0.011928 0.000412 0
0.011447 0.000092 0
0.011320 -0.000023 0
0.011324 -0.000055 0
0.011368 -0.000058 0
0.011420 -0.000053 0
0.011469 -0.000047 0
0.011512 -0.000042 0
0.011551 -0.000038 0
0.011584 -0.000035 0
0.011613 -0.000032 0
0.011638 -0.000028 0
0.011658 -0.000025 0
0.011673 -0.000021 0
0.011683 -0.000017 0
0.011687 -0.000013 0
0.011684 -0.000008 0
0.011676 -0.000002 0
0.011660 0.000003 0
0.011637 0.000009 0
0.011606 0.000015 0
0.011566 0.000022 0
0.011517 0.000030 0
0.011456 0.000041 0
0.011379 0.000056 0
0.011276 0.000082 0
0.011129 0.000130 0
0.010899 0.000224 0
0.010515 0.000397 0
0.009867 0.000667 0
0.008881 0.000848 0
0.007896 0.000058 0
0.008764 -0.003518 0
0.016026 -0.008682 0
0.033264 -0.002122 0
0.050183 0.013402 0
0.026428 0.009981 0
0.000001 0.000000 0
-0.000075 0.000000 0
0.000000 0.000000 0
0.000000 0.000000 0
0.000000 0.000000 0
0.000000 0.000000 0
0.000000 0.000000 0
0.000000 0.000000 0
0.000000 0.000000 0
0.000000 0.000000 0
0.000000 0.000000 0
0.000000 0.000000 0
0.000000 0.000000 0
0.000000 0.000000 0
0.000000 0.000000 0
0.000000 0.000000 0
0.000000 0.000000 0
0.000000 0.000000 0
0.000000 0.000000 0
0.000000 0.000000 0
0.000000 0.000000 0
0.000000 0.000000 0
0.000000 0.000000 0
0.000000 0.000000 0
0.000000 0.000000 0
0.000000 0.000000 0
0.000000 0.000000 0
0.000000 0.000000 0
0.000000 0.000000 0
0.000000 0.000000 0
0.000000 0.000000 0
0.000000 0.000000 0
0.000000 0.000000 0
0.000000 0.000000 0
0.000000 0.000000 0
0.000000 0.000000 0
-0.017635 0.003667 0
-0.026760 -0.004481 0
0.004530 -0.027627 0
0.057605 -0.021074 0
0.052433 0.004253 0
0.031297 0.011531 0
0.015518 0.009203 0
0.007139 0.005250 0
0.003324 0.002440 0
0.001742 0.000947 0
0.001142 0.000284 0
0.000945 0.000028 0
0.000903 -0.000056 0
0.000915 -0.000076 0
0.000942 -0.000075 0
0.000972 -0.000069 0
0.000999 -0.000062 0
0.001024 -0.000056 0
0.001045 -0.000050 0
0.001063 -0.000045 0
0.001078 -0.000040 0
0.001090 -0.000035 0
0.001100 -0.000029 0
0.001106 -0.000022 0
0.001109 -0.000015 0
0.001108 -0.000008 0
0.001104 0.000000 0
0.001096 0.000009 0
0.001083 0.000018 0
0.001066 0.000028 0
0.001044 0.000038 0
0.001017 0.000051 0
0.000982 0.000067 0
0.000936 0.000092 0
0.000871 0.000134 0
0.000774 0.000212 0
0.000616 0.000359 0
0.000347 0.000625 0
-0.000111 0.001026 0
-0.000855 0.001292 0
-0.001896 0.000170 0
-0.002665 -0.005067 0
-0.000272 -0.014452 0
0.014418 -0.013884 0
0.053730 0.007513 0
0.064934 0.024383 0
0.029886 0.012865 0
0.000006 0.000000 0
-0.000075 0.000000 0
0.000000 0.000000 0
0.000000 0.000000 0
0.000000 0.000000 0
0.000000 0.000000 0
0.000000 0.000000 0
0.000000 0.000000 0
0.000000 0.000000 0
0.000000 0.000000 0
0.000000 0.000000 0
0.000000 0.000000 0
0.000000 0.000000 0
0.000000 0.000000 0
0.000000 0.000000 0
0.000000 0.000000 0
0.000000 0.000000 0
0.000000 0.000000 0
0.000000 0.000000 0
0.000000 0.000000 0
0.000000 0.000000 0
0.000000 0.000000 0
0.000000 0.000000 0
0.000000 0.000000 0
0.000000 0.000000 0
0.000000 0.000000 0
0.000000 0.000000 0
0.000000 0.000000 0
0.000000 0.000000 0
0.000000 0.000000 0
0.000000 0.000000 0
0.000000 0.000000 0
0.000000 0.000000 0
0.000000 0.000000 0
-0.019174 0.008607 0
-0.050137 0.012975 0
-0.050718 -0.013096 0
-0.008775 -0.052173 0
0.061323 -0.034110 0
0.050005 0.012804 0
0.021627 0.022293 0
0.003337 0.015790 0
-0.004980 0.008370 0
-0.008253 0.003753 0
-0.009472 0.001466 0
-0.009914 0.000476 0
-0.010068 0.000090 0
-0.010115 -0.000043 0
-0.010124 -0.000080 0
-0.010121 -0.000084 0
-0.010115 -0.000078 0
-0.010109 -0.000071 0
-0.010105 -0.000064 0
-0.010101 -0.000058 0
-0.010099 -0.000052 0
-0.010097 -0.000046 0
-0.010096 -0.000039 0
-0.010095 -0.000033 0
-0.010095 -0.000026 0
-0.010095 -0.000018 0
-0.010095 -0.000010 0
-0.010095 -0.000001 0
-0.010096 0.000009 0
-0.010096 0.000019 0
-0.010096 0.000029 0
-0.010097 0.000041 0
-0.010098 0.000056 0
-0.010100 0.000075 0
-0.010105 0.000104 0
-0.010116 0.000155 0
-0.010139 0.000248 0
-0.010186 0.000425 0
-0.010277 0.000744 0
-0.010462 0.001243 0
-0.010903 0.001706 0
-0.012160 0.000928 0
-0.015421 -0.004310 0
-0.020000 -0.016957 0
-0.012702 -0.028267 0
0.036007 -0.011056 0
0.073845 0.021632 0
0.073319 0.031602 0
0.030912 0.014525 0
0.000009 0.000000 0
-0.000080 0.000000 0
0.000000 0.000000 0
0.000000 0.000000 0
0.000000 0.000000 0
0.000000 0.000000 0
0.000000 0.000000 0
0.000000 0.000000 0
0.000000 0.000000 0
0.000000 0.000000 0
0.000000 0.000000 0
0.000000 0.000000 0
0.000000 0.000000 0
0.000000 0.000000 0
0.000000 0.000000 0
0.000000 0.000000 0
0.000000 0.000000 0
0.000000 0.000000 0
0.000000 0.000000 0
0.000000 0.000000 0
0.000000 0.000000 0
0.000000 0.000000 0
0.000000 0.000000 0
0.000000 0.000000 0
0.000000 0.000000 0
0.000000 0.000000 0
0.000000 0.000000 0
0.000000 0.000000 0
0.000000 0.000000 0
0.000000 0.000000 0
0.000000 0.000000 0
0.000000 0.000000 0
-0.014234 0.009373 0
-0.049694 0.024430 0
-0.074989 0.019004 0
-0.075396 -0.024502 0
-0.032309 -0.081859 0
0.044587 -0.049527 0
0.032992 0.023465 0
0.006513 0.034117 0
-0.008134 0.022079 0
-0.013426 0.010858 0
-0.014888 0.004612 0
-0.015218 0.001749 0
-0.015285 0.000570 0
-0.015303 0.000122 0
-0.015316 -0.000032 0
-0.015328 -0.000076 0
-0.015341 -0.000082 0
-0.015353 -0.000077 0
-0.015366 -0.000070 0
-0.015379 -0.000063 0
-0.015391 -0.000057 0
-0.015402 -0.000051 0
-0.015412 -0.000045 0
-0.015422 -0.000039 0
-0.015429 -0.000033 0
-0.015436 -0.000027 0
-0.015440 -0.000020 0
-0.015442 -0.000012 0
-0.015441 -0.000004 0
-0.015438 0.000004 0
-0.015432 0.000013 0
-0.015423 0.000023 0
-0.015410 0.000034 0
-0.015394 0.000047 0
-0.015374 0.000066 0
-0.015350 0.000094 0
-0.015320 0.000145 0
-0.015282 0.000240 0
-0.015232 0.000420 0
-0.015162 0.000753 0
-0.015088 0.001323 0
-0.015200 0.002108 0
-0.016415 0.002351 0
-0.021198 -0.001278 0
-0.030797 -0.015774 0
-0.030928 -0.040999 0
0.014129 -0.034385 0
0.058714 0.006317 0
0.083538 0.033773 0
0.075070 0.035665 0
0.029753 0.015009 0
0.000010 0.000000 0
-0.000084 0.000000 0
0.000000 0.000000 0
0.000000 0.000000 0
0.000000 0.000000 0
0.000000 0.000000 0
0.000000 0.000000 0
0.000000 0.000000 0
0.000000 0.000000 0
0.000000 0.000000 0
0.000000 0.000000 0
-0.002110 0.000000 0
-0.002110 0.000000 0
-0.002876 0.000000 0
-0.003162 0.000000 0
-0.003301 0.000000 0
-0.003383 0.000000 0
-0.003442 0.000000 0
-0.003492 0.000000 0
-0.003537 0.000000 0
-0.003579 0.000000 0
-0.003616 0.000000 0
-0.003645 0.000000 0
-0.003665 0.000000 0
-0.003690 0.000000 0
-0.003842 0.000000 0
-0.004661 0.000000 0
-0.007660 0.000000 0
-0.014676 0.000000 0
0.000000 0.000000 0
-0.000725 0.006968 0
-0.031408 0.024224 0
-0.063103 0.038105 0
-0.088335 0.025414 0
-0.096609 -0.033756 0
-0.063272 -0.110250 0
0.001952 -0.065720 0
-0.001033 0.031231 0
-0.012542 0.042197 0
-0.016079 0.025438 0
-0.015447 0.011636 0
-0.014205 0.004618 0
-0.013417 0.001655 0
-0.013057 0.000514 0
-0.012929 0.000103 0
-0.012903 -0.000034 0
-0.012915 -0.000071 0
-0.012941 -0.000074 0
-0.012969 -0.000069 0
-0.012998 -0.000062 0
-0.013024 -0.000055 0
-0.013049 -0.000050 0
-0.013072 -0.000045 0
-0.013093 -0.000040 0
-0.013112 -0.000035 0
-0.013128 -0.000030 0
-0.013141 -0.000025 0
-0.013151 -0.000019 0
-0.013158 -0.000013 0
-0.013161 -0.000007 0
-0.013159 -0.000001 0
-0.013154 0.000006 0
-0.013144 0.000014 0
-0.013128 0.000022 0
-0.013107 0.000033 0
-0.013079 0.000048 0
-0.013041 0.000072 0
-0.012990 0.000116 0
-0.012914 0.000200 0
-0.012796 0.000361 0
-0.012602 0.000668 0
-0.012298 0.001256 0
-0.011978 0.002343 0
-0.012417 0.003825 0
-0.016187 0.002645 0
-0.026199 -0.012253 0
-0.032141 -0.050018 0
0.001081 -0.054451 0
0.034475 -0.011970 0
0.065955 0.023679 0
0.083700 0.040681 0
0.070812 0.036502 0
0.025058 0.014442 0
0.000007 0.000000 0
-0.004863 0.000000 0
-0.002825 0.000000 0
-0.002534 0.000000 0
-0.002417 0.000000 0
-0.002187 0.000000 0
-0.001647 0.000000 0
-0.000690 0.000000 0
-0.000004 0.000000 0
0.000000 0.000000 0
0.000000 0.000000 0
-0.000027 0.000000 0
-0.000036 0.000000 0
-0.000038 0.000000 0
-0.000040 0.000000 0
-0.000042 0.000000 0
-0.000043 0.000000 0
-0.000044 0.000000 0
-0.000045 0.000000 0
-0.000047 0.000000 0
-0.000048 0.000000 0
-0.000049 0.000000 0
-0.000050 0.000000 0
-0.000051 0.000000 0
-0.000052 0.000000 0
-0.000059 0.000000 0
-0.000099 0.000000 0
-0.000218 0.000000 0
0.022826 0.000454 0
0.007452 0.015384 0
-0.028293 0.039643 0
-0.058860 0.051982 0
-0.086694 0.035221 0
-0.106587 -0.036635 0
-0.090538 -0.129568 0
-0.052698 -0.079655 0
-0.044385 0.030479 0
-0.030962 0.041398 0
-0.018607 0.023483 0
-0.010924 0.009949 0
-0.007087 0.003627 0
-0.005439 0.001190 0
-0.004817 0.000331 0
-0.004621 0.000045 0
-0.004589 -0.000042 0
-0.004613 -0.000061 0
-0.004654 -0.000059 0
-0.004697 -0.000053 0
-0.004738 -0.000047 0
-0.004776 -0.000042 0
-0.004811 -0.000037 0
-0.004843 -0.000033 0
-0.004872 -0.000030 0
-0.004898 -0.000027 0
-0.004921 -0.000023 0
-0.004941 -0.000020 0
-0.004957 -0.000016 0
-0.004970 -0.000012 0
-0.004978 -0.000008 0
-0.004982 -0.000004 0
-0.004981 0.000001 0
-0.004976 0.000006 0
-0.004965 0.000011 0
-0.004947 0.000018 0
-0.004921 0.000029 0
-0.004884 0.000046 0
-0.004827 0.000078 0
-0.004736 0.000141 0
-0.004580 0.000264 0
-0.004306 0.000506 0
-0.003817 0.001015 0
-0.003008 0.002160 0
-0.002011 0.004382 0
-0.002181 0.005387 0
-0.007509 -0.008058 0
-0.018527 -0.054209 0
-0.002249 -0.066635 0
0.012844 -0.025090 0
0.035331 0.009940 0
0.062782 0.033308 0
0.075723 0.043513 0
0.057279 0.034429 0
0.015988 0.012161 0
-0.000064 0.000000 0
-0.000047 0.000000 0
-0.000044 0.000000 0
-0.000041 0.000000 0
-0.000039 0.000000 0
-0.000033 0.000000 0
-0.000017 0.000000 0
-0.000004 0.000000 0
-2.500000 0.000000 0
0.005601 -0.002011 0
0.005546 -0.001363 0
0.007930 -0.000504 0
0.009050 -0.000204 0
0.009629 -0.000106 0
0.009960 -0.000068 0
0.010181 -0.000053 0
0.010354 -0.000046 0
0.010504 -0.000043 0
0.010641 -0.000039 0
0.010765 -0.000033 0
0.010879 -0.000025 0
0.010998 -0.000023 0
0.011215 -0.000087 0
0.011952 -0.000469 0
0.014688 -0.001829 0
0.022795 -0.004774 0
0.038573 -0.007590 0
0.050178 0.003295 0
0.020653 0.031814 0
-0.014266 0.056319 0
-0.041083 0.066371 0
-0.067408 0.048513 0
-0.093786 -0.031897 0
-0.094362 -0.136336 0
-0.086106 -0.088061 0
-0.076026 0.020708 0
-0.039859 0.029717 0
-0.014772 0.015737 0
-0.002771 0.006058 0
0.002027 0.001961 0
0.003751 0.000554 0
0.004307 0.000116 0
0.004444 -0.000010 0
0.004441 -0.000040 0
0.004396 -0.000042 0
0.004344 -0.000037 0
0.004294 -0.000031 0
0.004249 -0.000027 0
0.004208 -0.000024 0
0.004171 -0.000021 0
0.004137 -0.000019 0
0.004106 -0.000017 0
0.004078 -0.000015 0
0.004053 -0.000013 0
0.004031 -0.000011 0
0.004011 -0.000010 0
0.003996 -0.000008 0
0.003984 -0.000006 0
0.003975 -0.000004 0
0.003970 -0.000001 0
0.003970 0.000001 0
0.003974 0.000004 0
0.003983 0.000007 0
0.004000 0.000012 0
0.004028 0.000021 0
0.004075 0.000039 0
0.004158 0.000075 0
0.004311 0.000147 0
0.004600 0.000293 0
0.005154 0.000622 0
0.006261 0.001462 0
0.008519 0.003419 0
0.012425 0.005300 0
0.014271 -0.004348 0
-0.001080 -0.052570 0
-0.003380 -0.069641 0
-0.003889 -0.030166 0
0.005335 -0.000499 0
0.028322 0.021124 0
0.052282 0.039159 0
0.056899 0.043469 0
0.034923 0.025512 0
0.015195 0.006378 0
0.009580 0.001100 0
0.008057 0.000177 0
0.007299 0.000148 0
0.006338 0.000350 0
0.004559 0.000696 0
0.001839 0.000763 0
0.000001 0.000317 0
-5.000000 0.000000 0
0.005609 -0.005344 0
0.005592 -0.003807 0
0.008752 -0.001697 0
0.010550 -0.000823 0
0.011529 -0.000441 0
0.012082 -0.000268 0
0.012431 -0.000192 0
0.012686 -0.000158 0
0.012897 -0.000141 0
0.013086 -0.000128 0
0.013265 -0.000118 0
0.013452 -0.000115 0
0.013703 -0.000166 0
0.014201 -0.000465 0
0.015539 -0.001685 0
0.019282 -0.005252 0
0.028018 -0.011565 0
0.041165 -0.013456 0
0.043317 0.008928 0
0.020803 0.046576 0
-0.001146 0.069524 0
-0.016950 0.077702 0
-0.032221 0.060729 0
-0.051333 -0.023590 0
-0.059760 -0.133287 0
-0.072885 -0.088532 0
-0.068001 0.008092 0
-0.029734 0.011747 0
-0.006609 0.005530 0
0.002774 0.001815 0
0.005902 0.000467 0
0.006820 0.000084 0
0.007041 -0.000007 0
0.007055 -0.000023 0
0.007014 -0.000021 0
0.006966 -0.000017 0
0.006921 -0.000013 0
0.006883 -0.000010 0
0.006850 -0.000008 0
0.006821 -0.000007 0
0.006794 -0.000006 0
0.006770 -0.000006 0
0.006747 -0.000005 0
0.006727 -0.000005 0
0.006708 -0.000004 0
0.006691 -0.000004 0
0.006676 -0.000003 0
0.006662 -0.000003 0
0.006651 -0.000002 0
0.006641 -0.000002 0
0.006634 -0.000001 0
0.006629 -0.000001 0
0.006626 -0.000000 0
0.006626 0.000001 0
0.006630 0.000002 0
0.006640 0.000004 0
0.006663 0.000010 0
0.006710 0.000021 0
0.006808 0.000044 0
0.007003 0.000092 0
0.007402 0.000205 0
0.008276 0.000526 0
0.010411 0.001393 0
0.015327 0.002596 0
0.021349 -0.001527 0
0.006489 -0.045672 0
-0.009919 -0.065281 0
-0.018227 -0.029314 0
-0.017262 -0.005657 0
-0.004008 0.010578 0
0.017766 0.029675 0
0.034688 0.042825 0
0.032376 0.032379 0
0.020189 0.012292 0
0.013534 0.003434 0
0.010665 0.001083 0
0.009042 0.000811 0
0.007350 0.001305 0
0.004809 0.002157 0
0.001622 0.002186 0
0.000003 0.000879 0
-5.000000 0.000000 0
0.002204 -0.007359 0
0.002255 -0.005556 0
0.004579 -0.002904 0
0.006204 -0.001549 0
0.007150 -0.000848 0
0.007684 -0.000505 0
0.008007 -0.000346 0
0.008227 -0.000273 0
0.008398 -0.000237 0
0.008548 -0.000217 0
0.008699 -0.000211 0
0.008883 -0.000238 0
0.009178 -0.000387 0
0.009781 -0.000977 0
0.011128 -0.002929 0
0.013898 -0.007870 0
0.018235 -0.015367 0
0.021370 -0.014996 0
0.016572 0.013149 0
0.009173 0.053334 0
0.006212 0.074591 0
0.006363 0.081410 0
0.009200 0.065154 0
0.009421 -0.018569 0
0.000447 -0.125905 0
-0.026585 -0.083894 0
0.000356 0.000000 0
0.000095 0.000000 0
-0.000009 0.000000 0
-0.000038 0.000000 0
-0.000045 0.000000 0
-0.000048 0.000000 0
-0.000049 0.000000 0
-0.000051 0.000000 0
-0.000052 0.000000 0
-0.000053 0.000000 0
-0.000054 0.000000 0
-0.000055 0.000000 0
-0.000056 0.000000 0
-0.000056 0.000000 0
-0.000057 0.000000 0
-0.000058 0.000000 0
-0.000059 0.000000 0
-0.000060 0.000000 0
-0.000060 0.000000 0
-0.000061 0.000000 0
-0.000062 0.000000 0
-0.000062 0.000000 0
-0.000063 0.000000 0
-0.000063 0.000000 0
-0.000064 0.000000 0
-0.000064 0.000000 0
-0.000065 0.000000 0
-0.000065 0.000000 0
-0.000065 0.000000 0
-0.000066 0.000000 0
-0.000066 0.000000 0
-0.000066 0.000000 0
-0.000067 0.000000 0
-0.000068 0.000000 0
-0.000068 0.000000 0
-0.000070 0.000000 0
-0.000074 0.000000 0
-0.000098 0.000000 0
-0.000176 0.000000 0
0.003126 -0.037366 0
-0.021596 -0.057684 0
-0.030806 -0.026618 0
-0.031691 -0.007387 0
-0.025982 0.004163 0
-0.012016 0.020423 0
0.006872 0.036391 0
0.018147 0.032523 0
0.015289 0.015492 0
0.010660 0.005703 0
0.007683 0.002345 0
0.005770 0.001746 0
0.003973 0.002393 0
0.001802 0.003462 0
-0.000090 0.003085 0
0.000005 0.001099 0
-5.000000 0.000000 0
-0.001065 -0.007416 0
-0.000985 -0.005973 0
-0.000221 -0.003609 0
0.000647 -0.002068 0
0.001226 -0.001158 0
0.001566 -0.000684 0
0.001766 -0.000455 0
0.001891 -0.000348 0
0.001981 -0.000297 0
0.002058 -0.000275 0
0.002144 -0.000280 0
0.002273 -0.000348 0
0.002517 -0.000602 0
0.003004 -0.001410 0
0.003866 -0.003679 0
0.004807 -0.008693 0
0.004104 -0.015183 0
-0.001228 -0.012652 0
-0.009121 0.014830 0
-0.003921 0.051589 0
0.009296 0.070882 0
0.024303 0.076255 0
0.044188 0.059247 0
0.062201 -0.019355 0
0.048605 -0.115925 0
-0.000201 0.000736 0
0.025604 0.076695 0
0.009546 0.000000 0
0.000970 0.000000 0
-0.002008 0.000000 0
-0.002813 0.000000 0
-0.002980 0.000000 0
-0.002989 0.000000 0
-0.002966 0.000000 0
-0.002941 0.000000 0
-0.002921 0.000000 0
-0.002906 0.000000 0
-0.002893 0.000000 0
-0.002883 0.000000 0
-0.002874 0.000000 0
-0.002867 0.000000 0
-0.002859 0.000000 0
-0.002853 0.000000 0
-0.002846 0.000000 0
-0.002841 0.000000 0
-0.002835 0.000000 0
-0.002830 0.000000 0
-0.002825 0.000000 0
-0.002821 0.000000 0
-0.002817 0.000000 0
-0.002814 0.000000 0
-0.002811 0.000000 0
-0.002808 0.000000 0
-0.002806 0.000000 0
-0.002805 0.000000 0
-0.002805 0.000000 0
-0.002809 0.000000 0
-0.002820 0.000000 0
-0.002848 0.000000 0
-0.002907 0.000000 0
-0.003034 0.000000 0