# vtk DataFile Version 2.0
generated by CFD-lab course output (written by Tobias Neckel) 
ASCII

DATASET STRUCTURED_GRID
DIMENSIONS  82 36 1 
POINTS 2952 float

-2.500000 0.100000 0
-2.402439 0.100000 0
-2.304878 0.100000 0
-2.207317 0.100000 0
-2.109756 0.100000 0
-2.012195 0.100000 0
-1.914634 0.100000 0
-1.817073 0.100000 0
-1.719512 0.100000 0
-1.621951 0.100000 0
-1.524390 0.100000 0
-1.426829 0.100000 0
-1.329268 0.100000 0
-1.231707 0.100000 0
-1.134146 0.100000 0
-1.036585 0.100000 0
-0.939024 0.100000 0
-0.841463 0.100000 0
-0.743902 0.100000 0
-0.646341 0.100000 0
-0.548780 0.100000 0
-0.451220 0.100000 0
-0.353659 0.100000 0
-0.256098 0.100000 0
-0.158537 0.100000 0
-0.060976 0.100000 0
0.036585 0.100000 0
0.134146 0.100000 0
0.231707 0.100000 0
0.329268 0.100000 0
0.426829 0.100000 0
0.524390 0.100000 0
0.621951 0.100000 0
0.719512 0.100000 0
0.817073 0.100000 0
0.914634 0.100000 0
1.012195 0.100000 0
1.109756 0.100000 0
1.207317 0.100000 0
1.304878 0.100000 0
1.402439 0.100000 0
1.500000 0.100000 0
1.597561 0.100000 0
1.695122 0.100000 0
1.792683 0.100000 0
1.890244 0.100000 0
1.987805 0.100000 0
2.085366 0.100000 0
2.182927 0.100000 0
2.280488 0.100000 0
2.378049 0.100000 0
2.475610 0.100000 0
2.573171 0.100000 0
2.670732 0.100000 0
2.768293 0.100000 0
2.865854 0.100000 0
2.963415 0.100000 0
3.060976 0.100000 0
3.158537 0.100000 0
3.256098 0.100000 0
3.353659 0.100000 0
3.451220 0.100000 0
3.548780 0.100000 0
3.646341 0.100000 0
3.743902 0.100000 0
3.841463 0.100000 0
3.939024 0.100000 0
4.036585 0.100000 0
4.134146 0.100000 0
4.231707 0.100000 0
4.329268 0.100000 0
4.426829 0.100000 0
4.524390 0.100000 0
4.621951 0.100000 0
4.719512 0.100000 0
4.817073 0.100000 0
4.914634 0.100000 0
5.012195 0.100000 0
5.109756 0.100000 0
5.207317 0.100000 0
5.304878 0.100000 0
5.402439 0.100000 0
-2.500000 0.147222 0
-2.402439 0.147222 0
-2.304878 0.147222 0
-2.207317 0.147222 0
-2.109756 0.147222 0
-2.012195 0.147222 0
-1.914634 0.147222 0
-1.817073 0.147222 0
-1.719512 0.147222 0
-1.621951 0.147222 0
-1.524390 0.147222 0
-1.426829 0.147222 0
-1.329268 0.147222 0
-1.231707 0.147222 0
-1.134146 0.147222 0
-1.036585 0.147222 0
-0.939024 0.147222 0
-0.841463 0.147222 0
-0.743902 0.147222 0
-0.646341 0.147222 0
-0.548780 0.147222 0
-0.451220 0.147222 0
-0.353659 0.147222 0
-0.256098 0.147222 0
-0.158537 0.147222 0
-0.060976 0.147222 0
0.036585 0.147222 0
0.134146 0.147222 0
0.231707 0.147222 0
0.329268 0.147222 0
0.426829 0.147222 0
0.524390 0.147222 0
0.621951 0.147222 0
0.719512 0.147222 0
0.817073 0.147222 0
0.914634 0.147222 0
1.012195 0.147222 0
1.109756 0.147222 0
1.207317 0.147222 0
1.304878 0.147222 0
1.402439 0.147222 0
1.500000 0.147222 0
1.597561 0.147222 0
1.695122 0.147222 0
1.792683 0.147222 0
1.890244 0.147222 0
1.987805 0.147222 0
2.085366 0.147222 0
2.182927 0.147222 0
2.280488 0.147222 0
2.378049 0.147222 0
2.475610 0.147222 0
2.573171 0.147222 0
2.670732 0.147222 0
2.768293 0.147222 0
2.865854 0.147222 0
2.963415 0.147222 0
3.060976 0.147222 0
3.158537 0.147222 0
3.256098 0.147222 0
3.353659 0.147222 0
3.451220 0.147222 0
3.548780 0.147222 0
3.646341 0.147222 0
3.743902 0.147222 0
3.841463 0.147222 0
3.939024 0.147222 0
4.036585 0.147222 0
4.134146 0.147222 0
4.231707 0.147222 0
4.329268 0.147222 0
4.426829 0.147222 0
4.524390 0.147222 0
4.621951 0.147222 0
4.719512 0.147222 0
4.817073 0.147222 0
4.914634 0.147222 0
5.012195 0.147222 0
5.109756 0.147222 0
5.207317 0.147222 0
5.304878 0.147222 0
5.402439 0.147222 0
-2.500000 0.194444 0
-2.402439 0.194444 0
-2.304878 0.194444 0
-2.207317 0.194444 0
-2.109756 0.194444 0
-2.012195 0.194444 0
-1.914634 0.194444 0
-1.817073 0.194444 0
-1.719512 0.194444 0
-1.621951 0.194444 0
-1.524390 0.194444 0
-1.426829 0.194444 0
-1.329268 0.194444 0
-1.231707 0.194444 0
-1.134146 0.194444 0
-1.036585 0.194444 0
-0.939024 0.194444 0
-0.841463 0.194444 0
-0.743902 0.194444 0
-0.646341 0.194444 0
-0.548780 0.194444 0
-0.451220 0.194444 0
-0.353659 0.194444 0
-0.256098 0.194444 0
-0.158537 0.194444 0
-0.060976 0.194444 0
0.036585 0.194444 0
0.134146 0.194444 0
0.231707 0.194444 0
0.329268 0.194444 0
0.426829 0.194444 0
0.524390 0.194444 0
0.621951 0.194444 0
0.719512 0.194444 0
0.817073 0.194444 0
0.914634 0.194444 0
1.012195 0.194444 0
1.109756 0.194444 0
1.207317 0.194444 0
1.304878 0.194444 0
1.402439 0.194444 0
1.500000 0.194444 0
1.597561 0.194444 0
1.695122 0.194444 0
1.792683 0.194444 0
1.890244 0.194444 0
1.987805 0.194444 0
2.085366 0.194444 0
2.182927 0.194444 0
2.280488 0.194444 0
2.378049 0.194444 0
2.475610 0.194444 0
2.573171 0.194444 0
2.670732 0.194444 0
2.768293 0.194444 0
2.865854 0.194444 0
2.963415 0.194444 0
3.060976 0.194444 0
3.158537 0.194444 0
3.256098 0.194444 0
3.353659 0.194444 0
3.451220 0.194444 0
3.548780 0.194444 0
3.646341 0.194444 0
3.743902 0.194444 0
3.841463 0.194444 0
3.939024 0.194444 0
4.036585 0.194444 0
4.134146 0.194444 0
4.231707 0.194444 0
4.329268 0.194444 0
4.426829 0.194444 0
4.524390 0.194444 0
4.621951 0.194444 0
4.719512 0.194444 0
4.817073 0.194444 0
4.914634 0.194444 0
5.012195 0.194444 0
5.109756 0.194444 0
5.207317 0.194444 0
5.304878 0.194444 0
5.402439 0.194444 0
-2.500000 0.241667 0
-2.402439 0.241667 0
-2.304878 0.241667 0
-2.207317 0.241667 0
-2.109756 0.241667 0
-2.012195 0.241667 0
-1.914634 0.241667 0
-1.817073 0.241667 0
-1.719512 0.241667 0
-1.621951 0.241667 0
-1.524390 0.241667 0
-1.426829 0.241667 0
-1.329268 0.241667 0
-1.231707 0.241667 0
-1.134146 0.241667 0
-1.036585 0.241667 0
-0.939024 0.241667 0
-0.841463 0.241667 0
-0.743902 0.241667 0
-0.646341 0.241667 0
-0.548780 0.241667 0
-0.451220 0.241667 0
-0.353659 0.241667 0
-0.256098 0.241667 0
-0.158537 0.241667 0
-0.060976 0.241667 0
0.036585 0.241667 0
0.134146 0.241667 0
0.231707 0.241667 0
0.329268 0.241667 0
0.426829 0.241667 0
0.524390 0.241667 0
0.621951 0.241667 0
0.719512 0.241667 0
0.817073 0.241667 0
0.914634 0.241667 0
1.012195 0.241667 0
1.109756 0.241667 0
1.207317 0.241667 0
1.304878 0.241667 0
1.402439 0.241667 0
1.500000 0.241667 0
1.597561 0.241667 0
1.695122 0.241667 0
1.792683 0.241667 0
1.890244 0.241667 0
1.987805 0.241667 0
2.085366 0.241667 0
2.182927 0.241667 0
2.280488 0.241667 0
2.378049 0.241667 0
2.475610 0.241667 0
2.573171 0.241667 0
2.670732 0.241667 0
2.768293 0.241667 0
2.865854 0.241667 0
2.963415 0.241667 0
3.060976 0.241667 0
3.158537 0.241667 0
3.256098 0.241667 0
3.353659 0.241667 0
3.451220 0.241667 0
3.548780 0.241667 0
3.646341 0.241667 0
3.743902 0.241667 0
3.841463 0.241667 0
3.939024 0.241667 0
4.036585 0.241667 0
4.134146 0.241667 0
4.231707 0.241667 0
4.329268 0.241667 0
4.426829 0.241667 0
4.524390 0.241667 0
4.621951 0.241667 0
4.719512 0.241667 0
4.817073 0.241667 0
4.914634 0.241667 0
5.012195 0.241667 0
5.109756 0.241667 0
5.207317 0.241667 0
5.304878 0.241667 0
5.402439 0.241667 0
-2.500000 0.288889 0
-2.402439 0.288889 0
-2.304878 0.288889 0
-2.207317 0.288889 0
-2.109756 0.288889 0
-2.012195 0.288889 0
-1.914634 0.288889 0
-1.817073 0.288889 0
-1.719512 0.288889 0
-1.621951 0.288889 0
-1.524390 0.288889 0
-1.426829 0.288889 0
-1.329268 0.288889 0
-1.231707 0.288889 0
-1.134146 0.288889 0
-1.036585 0.288889 0
-0.939024 0.288889 0
-0.841463 0.288889 0
-0.743902 0.288889 0
-0.646341 0.288889 0
-0.548780 0.288889 0
-0.451220 0.288889 0
-0.353659 0.288889 0
-0.256098 0.288889 0
-0.158537 0.288889 0
-0.060976 0.288889 0
0.036585 0.288889 0
0.134146 0.288889 0
0.231707 0.288889 0
0.329268 0.288889 0
0.426829 0.288889 0
0.524390 0.288889 0
0.621951 0.288889 0
0.719512 0.288889 0
0.817073 0.288889 0
0.914634 0.288889 0
1.012195 0.288889 0
1.109756 0.288889 0
1.207317 0.288889 0
1.304878 0.288889 0
1.402439 0.288889 0
1.500000 0.288889 0
1.597561 0.288889 0
1.695122 0.288889 0
1.792683 0.288889 0
1.890244 0.288889 0
1.987805 0.288889 0
2.085366 0.288889 0
2.182927 0.288889 0
2.280488 0.288889 0
2.378049 0.288889 0
2.475610 0.288889 0
2.573171 0.288889 0
2.670732 0.288889 0
2.768293 0.288889 0
2.865854 0.288889 0
2.963415 0.288889 0
3.060976 0.288889 0
3.158537 0.288889 0
3.256098 0.288889 0
3.353659 0.288889 0
3.451220 0.288889 0
3.548780 0.288889 0
3.646341 0.288889 0
3.743902 0.288889 0
3.841463 0.288889 0
3.939024 0.288889 0
4.036585 0.288889 0
4.134146 0.288889 0
4.231707 0.288889 0
4.329268 0.288889 0
4.426829 0.288889 0
4.524390 0.288889 0
4.621951 0.288889 0
4.719512 0.288889 0
4.817073 0.288889 0
4.914634 0.288889 0
5.012195 0.288889 0
5.109756 0.288889 0
5.207317 0.288889 0
5.304878 0.288889 0
5.402439 0.288889 0
-2.500000 0.336111 0
-2.402439 0.336111 0
-2.304878 0.336111 0
-2.207317 0.336111 0
-2.109756 0.336111 0
-2.012195 0.336111 0
-1.914634 0.336111 0
-1.817073 0.336111 0
-1.719512 0.336111 0
-1.621951 0.336111 0
-1.524390 0.336111 0
-1.426829 0.336111 0
-1.329268 0.336111 0
-1.231707 0.336111 0
-1.134146 0.336111 0
-1.036585 0.336111 0
-0.939024 0.336111 0
-0.841463 0.336111 0
-0.743902 0.336111 0
-0.646341 0.336111 0
-0.548780 0.336111 0
-0.451220 0.336111 0
-0.353659 0.336111 0
-0.256098 0.336111 0
-0.158537 0.336111 0
-0.060976 0.336111 0
0.036585 0.336111 0
0.134146 0.336111 0
0.231707 0.336111 0
0.329268 0.336111 0
0.426829 0.336111 0
0.524390 0.336111 0
0.621951 0.336111 0
0.719512 0.336111 0
0.817073 0.336111 0
0.914634 0.336111 0
1.012195 0.336111 0
1.109756 0.336111 0
1.207317 0.336111 0
1.304878 0.336111 0
1.402439 0.336111 0
1.500000 0.336111 0
1.597561 0.336111 0
1.695122 0.336111 0
1.792683 0.336111 0
1.890244 0.336111 0
1.987805 0.336111 0
2.085366 0.336111 0
2.182927 0.336111 0
2.280488 0.336111 0
2.378049 0.336111 0
2.475610 0.336111 0
2.573171 0.336111 0
2.670732 0.336111 0
2.768293 0.336111 0
2.865854 0.336111 0
2.963415 0.336111 0
3.060976 0.336111 0
3.158537 0.336111 0
3.256098 0.336111 0
3.353659 0.336111 0
3.451220 0.336111 0
3.548780 0.336111 0
3.646341 0.336111 0
3.743902 0.336111 0
3.841463 0.336111 0
3.939024 0.336111 0
4.036585 0.336111 0
4.134146 0.336111 0
4.231707 0.336111 0
4.329268 0.336111 0
4.426829 0.336111 0
4.524390 0.336111 0
4.621951 0.336111 0
[...]
POINT_DATA 2952 

VECTORS velocity float
0.000000 0.000000 0
0.000000 0.000000 0
0.000000 0.000000 0
0.000000 0.000000 0
0.000000 0.000000 0
0.000000 0.000000 0
0.000000 0.000000 0
0.000000 0.000000 0
0.000000 0.000000 0
0.000000 0.000000 0
0.000000 0.000000 0
0.000000 0.000000 0
0.000000 0.000000 0
0.000000 0.000000 0
0.000000 0.000000 0
0.000000 0.000000 0
0.000000 0.000000 0
0.000000 0.000000 0
0.000000 0.000000 0
0.000000 0.000000 0
0.000000 0.000000 0
0.000000 0.000000 0
0.000000 0.000000 0
0.000000 0.000000 0
0.000000 0.000000 0
-0.000002 0.000000 0
-0.000003 0.000000 0
-0.000003 0.000000 0
-0.000002 0.000000 0
-0.000002 0.000000 0
-0.000002 0.000000 0
-0.000002 0.000000 0
-0.000002 0.000000 0
-0.000002 0.000000 0
-0.000002 0.000000 0
-0.000002 0.000000 0
-0.000002 0.000000 0
-0.000001 0.000000 0
-0.000001 0.000000 0
-0.000001 0.000000 0
-0.000001 0.000000 0
-0.000001 0.000000 0
-0.000001 0.000000 0
-0.000001 0.000000 0
-0.000001 0.000000 0
-0.000000 0.000000 0
-0.000000 0.000000 0
-0.000000 0.000000 0
-0.000000 0.000000 0
0.000000 0.000000 0
0.000000 0.000000 0
0.000000 0.000000 0
0.000001 0.000000 0
0.000001 0.000000 0
0.000001 0.000000 0
0.000001 0.000000 0
0.000001 0.000000 0
0.000001 0.000000 0
0.000001 0.000000 0
0.000001 0.000000 0
0.000002 0.000000 0
0.000002 0.000000 0
0.000002 0.000000 0
0.000002 0.000000 0
0.000001 0.000000 0
0.000001 0.000000 0
0.000005 0.000000 0
0.000007 0.000000 0
0.000000 0.000000 0
0.000000 0.000000 0
0.000000 0.000000 0
0.000000 0.000000 0
0.000000 0.000000 0
0.000000 0.000000 0
0.000000 0.000000 0
0.000000 0.000000 0
0.000000 0.000000 0
0.000000 0.000000 0
0.000000 0.000000 0
0.000000 0.000000 0
0.000000 0.000000 0
0.000000 0.000000 0
0.000000 0.000000 0
0.000000 0.000000 0
0.000000 0.000000 0
0.000000 0.000000 0
0.000000 0.000000 0
0.000000 0.000000 0
0.000000 0.000000 0
0.000000 0.000000 0
0.000000 0.000000 0
0.000000 0.000000 0
0.000000 0.000000 0
0.000000 0.000000 0
0.000000 0.000000 0
0.000000 0.000000 0
0.000000 0.000000 0
0.000000 0.000000 0
0.000000 0.000000 0
0.000000 0.000000 0
0.000000 0.000000 0
0.000000 0.000000 0
0.000000 0.000000 0
0.000000 0.000000 0
0.000000 0.000000 0
0.000000 0.000000 0
0.000631 -0.000420 0
0.002820 -0.000520 0
0.003479 0.000039 0
0.002646 0.000330 0
0.001412 0.000322 0
0.000513 0.000189 0
0.000088 0.000069 0
-0.000025 0.000006 0
-0.000006 -0.000014 0
0.000041 -0.000014 0
0.000078 -0.000009 0
0.000099 -0.000005 0
0.000110 -0.000002 0
0.000115 -0.000001 0
0.000118 -0.000000 0
0.000119 -0.000000 0
0.000120 -0.000000 0
0.000121 -0.000000 0
0.000122 -0.000000 0
0.000123 -0.000000 0
0.000124 -0.000000 0
0.000125 -0.000000 0
0.000125 -0.000000 0
0.000125 0.000000 0
0.000126 0.000000 0
0.000126 0.000000 0
0.000125 0.000000 0
0.000125 0.000000 0
0.000125 0.000000 0
0.000125 -0.000000 0
0.000125 -0.000000 0
0.000127 -0.000001 0
0.000130 -0.000001 0
0.000132 -0.000000 0
0.000126 0.000005 0
0.000092 0.000017 0
-0.000003 0.000041 0
-0.000194 0.000071 0
-0.000469 0.000084 0
-0.000703 0.000041 0
-0.000647 -0.000059 0
-0.000154 -0.000109 0
0.000358 -0.000050 0
0.000004 0.000000 0
0.000005 0.000000 0
0.000000 0.000000 0
0.000000 0.000000 0
0.000000 0.000000 0
0.000000 0.000000 0
0.000000 0.000000 0
0.000000 0.000000 0
0.000000 0.000000 0
0.000000 0.000000 0
0.000000 0.000000 0
0.000000 0.000000 0
0.000000 0.000000 0
0.000000 0.000000 0
0.000000 0.000000 0
0.000000 0.000000 0
0.000000 0.000000 0
0.000000 0.000000 0
0.000000 0.000000 0
0.000000 0.000000 0
0.000000 0.000000 0
0.000000 0.000000 0
0.000000 0.000000 0
0.000000 0.000000 0
0.000000 0.000000 0
0.000000 0.000000 0
0.000000 0.000000 0
0.000000 0.000000 0
0.000000 0.000000 0
0.000000 0.000000 0
0.000000 0.000000 0
0.000000 0.000000 0
0.000000 0.000000 0
0.000000 0.000000 0
0.000000 0.000000 0
0.000000 0.000000 0
0.000000 0.000000 0
0.000000 0.000000 0
-0.001373 -0.000312 0
0.000766 -0.001370 0
0.004003 -0.001377 0
0.005131 0.000084 0
0.004032 0.001001 0
0.002250 0.001032 0
0.000890 0.000641 0
0.000204 0.000261 0
-0.000011 0.000046 0
-0.000011 -0.000032 0
0.000045 -0.000040 0
0.000096 -0.000028 0
0.000128 -0.000016 0
0.000145 -0.000008 0
0.000153 -0.000004 0
0.000157 -0.000002 0
0.000160 -0.000001 0
0.000162 -0.000001 0
0.000163 -0.000001 0
0.000165 -0.000001 0
0.000166 -0.000001 0
0.000167 -0.000001 0
0.000168 -0.000000 0
0.000169 -0.000000 0
0.000169 -0.000000 0
0.000170 0.000000 0
0.000170 0.000000 0
0.000169 0.000000 0
0.000169 0.000000 0
0.000168 0.000000 0
0.000168 -0.000000 0
0.000169 -0.000001 0
0.000171 -0.000002 0
0.000174 -0.000002 0
0.000174 0.000002 0
0.000158 0.000020 0
0.000100 0.000063 0
-0.000050 0.000138 0
-0.000335 0.000226 0
-0.000729 0.000247 0
-0.001029 0.000086 0
-0.000844 -0.000266 0
0.000132 -0.000486 0
0.001439 -0.000077 0
0.001355 0.000171 0
0.000004 0.000000 0
-0.000001 0.000000 0
0.000000 0.000000 0
0.000000 0.000000 0
0.000000 0.000000 0
0.000000 0.000000 0
0.000000 0.000000 0
0.000000 0.000000 0
0.000000 0.000000 0
0.000000 0.000000 0
0.000000 0.000000 0
0.000000 0.000000 0
0.000000 0.000000 0
0.000000 0.000000 0
0.000000 0.000000 0
0.000000 0.000000 0
0.000000 0.000000 0
0.000000 0.000000 0
0.000000 0.000000 0
0.000000 0.000000 0
0.000000 0.000000 0
0.000000 0.000000 0
0.000000 0.000000 0
0.000000 0.000000 0
0.000000 0.000000 0
0.000000 0.000000 0
0.000000 0.000000 0
0.000000 0.000000 0
0.000000 0.000000 0
0.000000 0.000000 0
0.000000 0.000000 0
0.000000 0.000000 0
0.000000 0.000000 0
0.000000 0.000000 0
0.000000 0.000000 0
0.000000 0.000000 0
-0.003412 0.000663 0
-0.004897 -0.000378 0
-0.001023 -0.003028 0
0.003322 -0.002633 0
0.004832 0.000025 0
0.003902 0.001724 0
0.002218 0.001843 0
0.000895 0.001179 0
0.000202 0.000505 0
-0.000035 0.000110 0
-0.000055 -0.000041 0
-0.000010 -0.000066 0
0.000035 -0.000049 0
0.000065 -0.000028 0
0.000081 -0.000014 0
0.000089 -0.000007 0
0.000094 -0.000004 0
0.000096 -0.000002 0
0.000098 -0.000002 0
0.000100 -0.000002 0
0.000101 -0.000001 0
0.000103 -0.000001 0
0.000104 -0.000001 0
0.000105 -0.000001 0
0.000105 -0.000001 0
0.000106 -0.000000 0
0.000106 0.000000 0
0.000106 0.000000 0
0.000106 0.000001 0
0.000105 0.000001 0
0.000105 0.000001 0
0.000105 -0.000000 0
0.000105 -0.000002 0
0.000107 -0.000003 0
0.000109 -0.000003 0
0.000107 0.000007 0
0.000089 0.000040 0
0.000028 0.000118 0
-0.000119 0.000252 0
-0.000394 0.000400 0
-0.000764 0.000420 0
-0.001024 0.000097 0
-0.000732 -0.000621 0
0.000616 -0.001214 0
0.002904 -0.000645 0
0.004234 0.000694 0
0.002399 0.000657 0
0.000002 0.000000 0
-0.000006 0.000000 0
0.000000 0.000000 0
0.000000 0.000000 0
0.000000 0.000000 0
0.000000 0.000000 0
0.000000 0.000000 0
0.000000 0.000000 0
0.000000 0.000000 0
0.000000 0.000000 0
0.000000 0.000000 0
0.000000 0.000000 0
0.000000 0.000000 0
0.000000 0.000000 0
0.000000 0.000000 0
0.000000 0.000000 0
0.000000 0.000000 0
0.000000 0.000000 0
0.000000 0.000000 0
0.000000 0.000000 0
0.000000 0.000000 0
0.000000 0.000000 0
0.000000 0.000000 0
0.000000 0.000000 0
0.000000 0.000000 0
0.000000 0.000000 0
0.000000 0.000000 0
0.000000 0.000000 0
0.000000 0.000000 0
0.000000 0.000000 0
0.000000 0.000000 0
0.000000 0.000000 0
0.000000 0.000000 0
0.000000 0.000000 0
-0.004061 0.001660 0
-0.009855 0.002378 0
-0.009177 -0.001470 0
-0.003852 -0.005347 0
0.001238 -0.004210 0
0.002896 -0.000197 0
0.002413 0.002266 0
0.001345 0.002488 0
0.000500 0.001617 0
0.000052 0.000710 0
-0.000107 0.000170 0
-0.000127 -0.000044 0
-0.000104 -0.000084 0
-0.000078 -0.000064 0
-0.000061 -0.000038 0
-0.000051 -0.000020 0
-0.000045 -0.000010 0
-0.000043 -0.000005 0
-0.000041 -0.000003 0
-0.000040 -0.000003 0
-0.000039 -0.000002 0
-0.000038 -0.000002 0
-0.000037 -0.000002 0
-0.000036 -0.000002 0
-0.000036 -0.000001 0
-0.000035 -0.000001 0
-0.000035 -0.000000 0
-0.000035 0.000000 0
-0.000035 0.000000 0
-0.000035 0.000001 0
-0.000035 0.000001 0
-0.000035 0.000001 0
-0.000035 -0.000000 0
-0.000035 -0.000002 0
-0.000034 -0.000004 0
-0.000033 -0.000002 0
-0.000035 0.000012 0
-0.000046 0.000058 0
-0.000085 0.000164 0
-0.000177 0.000343 0
-0.000351 0.000538 0
-0.000589 0.000552 0
-0.000751 0.000071 0
-0.000455 -0.001060 0
0.000988 -0.002246 0
0.004104 -0.001828 0
0.006937 0.000415 0
0.006916 0.002054 0
0.003023 0.001165 0
-0.000001 0.000000 0
-0.000009 0.000000 0
0.000000 0.000000 0
0.000000 0.000000 0
0.000000 0.000000 0
0.000000 0.000000 0
0.000000 0.000000 0
0.000000 0.000000 0
0.000000 0.000000 0
0.000000 0.000000 0
0.000000 0.000000 0
0.000000 0.000000 0
0.000000 0.000000 0
0.000000 0.000000 0
0.000000 0.000000 0
0.000000 0.000000 0
0.000000 0.000000 0
0.000000 0.000000 0
0.000000 0.000000 0
0.000000 0.000000 0
0.000000 0.000000 0
0.000000 0.000000 0
0.000000 0.000000 0
0.000000 0.000000 0
0.000000 0.000000 0
0.000000 0.000000 0
0.000000 0.000000 0
0.000000 0.000000 0
0.000000 0.000000 0
0.000000 0.000000 0
0.000000 0.000000 0
0.000000 0.000000 0
-0.003099 0.001978 0
-0.010819 0.004791 0
-0.014879 0.003148 0
-0.012747 -0.003284 0
-0.006584 -0.008069 0
-0.001336 -0.005899 0
0.000038 -0.000544 0
0.000090 0.002475 0
-0.000047 0.002769 0
-0.000136 0.001805 0
-0.000174 0.000799 0
-0.000186 0.000197 0
-0.000189 -0.000043 0
-0.000189 -0.000090 0
-0.000189 -0.000070 0
-0.000189 -0.000041 0
-0.000189 -0.000022 0
-0.000189 -0.000011 0
-0.000189 -0.000006 0
-0.000189 -0.000004 0
-0.000189 -0.000003 0
-0.000189 -0.000002 0
-0.000189 -0.000002 0
-0.000189 -0.000002 0
-0.000189 -0.000002 0
-0.000189 -0.000001 0
-0.000189 -0.000001 0
-0.000189 -0.000000 0
-0.000188 0.000000 0
-0.000188 0.000000 0
-0.000188 0.000001 0
-0.000188 0.000001 0
-0.000188 0.000001 0
-0.000188 -0.000000 0
-0.000188 -0.000002 0
-0.000188 -0.000004 0
-0.000187 -0.000002 0
-0.000187 0.000014 0
-0.000186 0.000065 0
-0.000187 0.000182 0
-0.000191 0.000381 0
-0.000208 0.000599 0
-0.000246 0.000614 0
-0.000286 0.000032 0
-0.000124 -0.001463 0
0.001012 -0.003421 0
0.004565 -0.003524 0
0.008635 -0.000667 0
0.010390 0.002557 0
0.008343 0.003358 0
0.003058 0.001468 0
-0.000003 0.000000 0
-0.000008 0.000000 0
0.000000 0.000000 0
0.000000 0.000000 0
0.000000 0.000000 0
0.000000 0.000000 0
0.000000 0.000000 0
0.000000 0.000000 0
0.000000 0.000000 0
0.000000 0.000000 0
0.000000 0.000000 0
-0.000092 0.000000 0
-0.000092 0.000000 0
-0.000171 0.000000 0
-0.000211 0.000000 0
-0.000231 0.000000 0
-0.000241 0.000000 0
-0.000246 0.000000 0
-0.000249 0.000000 0
-0.000251 0.000000 0
-0.000252 0.000000 0
-0.000253 0.000000 0
-0.000255 0.000000 0
-0.000265 0.000000 0
-0.000299 0.000000 0
-0.000383 0.000000 0
-0.000542 0.000000 0
-0.000763 0.000000 0
-0.000933 0.000000 0
0.000000 0.000000 0
-0.001298 0.001508 0
-0.007719 0.005257 0
-0.014631 0.007375 0
-0.017465 0.003311 0
-0.014512 -0.005485 0
-0.008178 -0.010870 0
-0.003366 -0.007415 0
-0.002824 -0.000887 0
-0.002311 0.002307 0
-0.001464 0.002598 0
-0.000752 0.001678 0
-0.000358 0.000735 0
-0.000216 0.000177 0
-0.000200 -0.000042 0
-0.000223 -0.000084 0
-0.000249 -0.000064 0
-0.000266 -0.000038 0
-0.000276 -0.000019 0
-0.000281 -0.000010 0
-0.000284 -0.000005 0
-0.000285 -0.000003 0
-0.000287 -0.000003 0
-0.000288 -0.000002 0
-0.000288 -0.000002 0
-0.000289 -0.000002 0
-0.000290 -0.000001 0
-0.000290 -0.000001 0
-0.000291 -0.000001 0
-0.000291 -0.000000 0
-0.000291 0.000000 0
-0.000291 0.000000 0
-0.000290 0.000001 0
-0.000290 0.000001 0
-0.000290 0.000001 0
-0.000289 -0.000000 0
-0.000289 -0.000002 0
-0.000290 -0.000004 0
-0.000291 -0.000003 0
-0.000288 0.000011 0
-0.000276 0.000058 0
-0.000238 0.000166 0
-0.000152 0.000353 0
-0.000002 0.000565 0
0.000177 0.000590 0
0.000270 0.000011 0
0.000195 -0.001688 0
0.000595 -0.004515 0
0.004091 -0.005517 0
0.008884 -0.002405 0
0.012091 0.002195 0
0.011873 0.004723 0
0.008195 0.004051 0
0.002618 0.001483 0
-0.000004 0.000000 0
-0.000676 0.000000 0
-0.000267 0.000000 0
-0.000147 0.000000 0
-0.000103 0.000000 0
-0.000070 0.000000 0
-0.000036 0.000000 0
-0.000009 0.000000 0
0.000000 0.000000 0
0.000000 0.000000 0
0.000000 0.000000 0
0.000002 0.000000 0
0.000002 0.000000 0
0.000002 0.000000 0
0.000002 0.000000 0
0.000002 0.000000 0
0.000002 0.000000 0
0.000002 0.000000 0
0.000002 0.000000 0
0.000002 0.000000 0
0.000002 0.000000 0
0.000002 0.000000 0
0.000002 0.000000 0
0.000002 0.000000 0
0.000002 0.000000 0
0.000002 0.000000 0
0.000003 0.000000 0
0.000004 0.000000 0
0.000624 0.000630 0
-0.002786 0.003745 0
-0.009363 0.008439 0
-0.015341 0.009509 0
-0.017194 0.003091 0
-0.013925 -0.007779 0
-0.008001 -0.013464 0
-0.004047 -0.008490 0
-0.004820 -0.001054 0
-0.004007 0.001817 0
-0.002394 0.002015 0
-0.001094 0.001270 0
-0.000406 0.000540 0
-0.000170 0.000120 0
-0.000149 -0.000039 0
-0.000194 -0.000066 0
-0.000239 -0.000049 0
-0.000268 -0.000028 0
-0.000284 -0.000014 0
-0.000293 -0.000007 0
-0.000297 -0.000004 0
-0.000299 -0.000002 0
-0.000301 -0.000002 0
-0.000303 -0.000002 0
-0.000304 -0.000001 0
-0.000305 -0.000001 0
-0.000306 -0.000001 0
-0.000307 -0.000001 0
-0.000308 -0.000001 0
-0.000308 -0.000000 0
-0.000308 0.000000 0
-0.000308 0.000000 0
-0.000308 0.000001 0
-0.000307 0.000001 0
-0.000307 0.000000 0
-0.000306 -0.000000 0
-0.000307 -0.000002 0
-0.000308 -0.000003 0
-0.000310 -0.000003 0
-0.000308 0.000007 0
-0.000290 0.000040 0
-0.000229 0.000122 0
-0.000081 0.000266 0
0.000191 0.000440 0
0.000548 0.000482 0
0.000772 0.000023 0
0.000465 -0.001620 0
-0.000192 -0.005306 0
0.002796 -0.007537 0
0.007666 -0.004539 0
0.011766 0.001111 0
0.013127 0.005244 0
0.011194 0.005957 0
0.006885 0.003976 0
0.002141 0.001267 0
-0.000004 0.000000 0
-0.000002 0.000000 0
-0.000001 0.000000 0
-0.000001 0.000000 0
-0.000001 0.000000 0
-0.000000 0.000000 0
-0.000000 0.000000 0
0.000000 0.000000 0
-2.500000 0.000000 0
0.000335 -0.000105 0
0.000339 -0.000090 0
0.000593 -0.000057 0
0.000738 -0.000029 0
0.000816 -0.000014 0
0.000858 -0.000007 0
0.000881 -0.000004 0
0.000894 -0.000002 0
0.000903 -0.000001 0
0.000910 -0.000001 0
0.000916 -0.000001 0
0.000931 -0.000006 0
0.000976 -0.000021 0
0.001106 -0.000057 0
0.001398 -0.000118 0
0.001914 -0.000184 0
0.002574 -0.000190 0
0.002943 0.000058 0
0.001830 0.001792 0
-0.002525 0.006343 0
-0.008572 0.011334 0
-0.013299 0.011165 0
-0.014241 0.002626 0
-0.011061 -0.009934 0
-0.006034 -0.015651 0
-0.003129 -0.008955 0
-0.005323 -0.000907 0
-0.004366 0.001133 0
-0.002470 0.001188 0
-0.001023 0.000716 0
-0.000298 0.000287 0
-0.000070 0.000053 0
-0.000067 -0.000030 0
-0.000123 -0.000040 0
-0.000173 -0.000028 0
-0.000205 -0.000016 0
-0.000222 -0.000008 0
-0.000230 -0.000004 0
-0.000234 -0.000002 0
-0.000237 -0.000001 0
-0.000238 -0.000001 0
-0.000240 -0.000001 0
-0.000241 -0.000001 0
-0.000242 -0.000001 0
-0.000243 -0.000001 0
-0.000244 -0.000000 0
-0.000245 -0.000000 0
-0.000245 -0.000000 0
-0.000245 0.000000 0
-0.000245 0.000000 0
-0.000244 0.000000 0
-0.000244 0.000000 0
-0.000243 0.000000 0
-0.000243 -0.000000 0
-0.000244 -0.000001 0
-0.000246 -0.000002 0
-0.000249 -0.000003 0
-0.000249 0.000002 0
-0.000234 0.000020 0
-0.000175 0.000065 0
-0.000020 0.000150 0
0.000282 0.000260 0
0.000712 0.000308 0
0.001037 0.000051 0
0.000654 -0.001221 0
-0.001102 -0.005643 0
0.001046 -0.009321 0
0.005317 -0.006746 0
0.009606 -0.000448 0
0.012089 0.005000 0
0.011811 0.007072 0
0.009075 0.005870 0
0.005333 0.003014 0
0.002294 0.000909 0
0.001075 0.000255 0
0.000609 0.000079 0
0.000406 0.000037 0
0.000267 0.000032 0
0.000139 0.000030 0
0.000042 0.000017 0
-0.000000 0.000004 0
-5.000000 0.000000 0
0.000558 -0.000356 0
0.000562 -0.000301 0
0.000953 -0.000193 0
0.001196 -0.000108 0
0.001338 -0.000058 0
0.001417 -0.000031 0
0.001463 -0.000017 0
0.001490 -0.000011 0
0.001510 -0.000008 0
0.001525 -0.000006 0
0.001542 -0.000010 0
0.001575 -0.000029 0
0.001665 -0.000085 0
0.001889 -0.000204 0
0.002360 -0.000391 0
0.003140 -0.000570 0
0.004051 -0.000498 0
0.004390 0.000350 0
0.002735 0.003265 0
-0.001374 0.008780 0
-0.006133 0.013654 0
-0.009233 0.012253 0
-0.009267 0.002007 0
-0.006549 -0.011752 0
-0.002911 -0.017303 0
-0.001196 -0.008834 0
-0.003931 -0.000455 0
-0.003034 0.000435 0
-0.001590 0.000396 0
-0.000580 0.000219 0
-0.000111 0.000078 0
0.000014 0.000008 0
-0.000002 -0.000014 0
-0.000049 -0.000014 0
-0.000085 -0.000009 0
-0.000107 -0.000005 0
-0.000118 -0.000002 0
-0.000123 -0.000001 0
-0.000125 -0.000000 0
-0.000126 -0.000000 0
-0.000127 -0.000000 0
-0.000128 -0.000000 0
-0.000128 -0.000000 0
-0.000129 -0.000000 0
-0.000130 -0.000000 0
-0.000130 -0.000000 0
-0.000131 -0.000000 0
-0.000131 -0.000000 0
-0.000131 0.000000 0
-0.000131 0.000000 0
-0.000130 0.000000 0
-0.000130 0.000000 0
-0.000130 0.000000 0
-0.000129 -0.000000 0
-0.000130 -0.000000 0
-0.000132 -0.000001 0
-0.000135 -0.000001 0
-0.000137 -0.000000 0
-0.000131 0.000004 0
-0.000096 0.000018 0
0.000003 0.000046 0
0.000213 0.000086 0
0.000541 0.000116 0
0.000850 0.000051 0
0.000647 -0.000585 0
-0.001648 -0.005496 0
-0.000654 -0.010643 0
0.002378 -0.008682 0
0.006127 -0.002167 0
0.009141 0.004177 0
0.010215 0.007415 0
0.009076 0.007111 0
0.006502 0.004553 0
0.003638 0.002064 0
0.001946 0.000816 0
0.001137 0.000324 0
0.000735 0.000165 0
0.000466 0.000130 0
0.000242 0.000109 0
0.000079 0.000068 0
-0.000000 0.000020 0
-5.000000 0.000000 0
0.000611 -0.000676 0
0.000614 -0.000565 0
0.001032 -0.000365 0
0.001306 -0.000215 0
0.001475 -0.000121 0
0.001575 -0.000068 0
0.001634 -0.000039 0
0.001672 -0.000025 0
0.001699 -0.000018 0
0.001722 -0.000016 0
0.001748 -0.000026 0
0.001796 -0.000066 0
0.001908 -0.000173 0
0.002166 -0.000393 0
0.002671 -0.000723 0
0.003461 -0.001003 0
0.004312 -0.000795 0
0.004522 0.000695 0
0.003015 0.004582 0
-0.000021 0.010636 0
-0.002885 0.015138 0
-0.004056 0.012682 0
-0.003211 0.001326 0
-0.001340 -0.013011 0
0.000288 -0.018242 0
-0.000054 -0.008445 0
-0.000007 0.000000 0
-0.000003 0.000000 0
-0.000003 0.000000 0
-0.000003 0.000000 0
-0.000002 0.000000 0
-0.000002 0.000000 0
-0.000002 0.000000 0
-0.000002 0.000000 0
-0.000002 0.000000 0
-0.000002 0.000000 0
-0.000001 0.000000 0
-0.000001 0.000000 0
-0.000001 0.000000 0
-0.000001 0.000000 0
-0.000001 0.000000 0
-0.000001 0.000000 0
-0.000001 0.000000 0
-0.000001 0.000000 0
-0.000000 0.000000 0
-0.000000 0.000000 0
-0.000000 0.000000 0
-0.000000 0.000000 0
0.000000 0.000000 0
0.000000 0.000000 0
0.000000 0.000000 0
0.000001 0.000000 0
0.000001 0.000000 0
0.000001 0.000000 0
0.000001 0.000000 0
0.000001 0.000000 0
0.000001 0.000000 0
0.000001 0.000000 0
0.000002 0.000000 0
0.000002 0.000000 0
0.000002 0.000000 0
0.000002 0.000000 0
0.000002 0.000000 0
0.000003 0.000000 0
0.000007 0.000000 0
-0.000875 -0.005001 0
-0.001846 -0.011269 0
-0.000595 -0.010028 0
0.001993 -0.003722 0
0.004923 0.003022 0
0.006910 0.007103 0
0.007207 0.007667 0
0.005949 0.005646 0
0.003864 0.003114 0
0.002282 0.001465 0
0.001375 0.000665 0
0.000867 0.000362 0
0.000524 0.000271 0
0.000263 0.000217 0
0.000087 0.000135 0
-0.000000 0.000043 0
-5.000000 0.000000 0
0.000493 -0.000977 0
0.000496 -0.000814 0
0.000839 -0.000528 0
0.001074 -0.000323 0
0.001228 -0.000188 0
0.001323 -0.000108 0
0.001383 -0.000064 0
0.001423 -0.000042 0
0.001453 -0.000032 0
0.001479 -0.000030 0
0.001509 -0.000046 0
0.001560 -0.000106 0
0.001665 -0.000264 0
0.001886 -0.000573 0
0.002290 -0.001018 0
0.002881 -0.001364 0
0.003464 -0.001012 0
0.003538 0.000978 0
0.002559 0.005465 0
0.001075 0.011636 0
0.000458 0.015607 0
0.001350 0.012411 0
0.002966 0.000693 0
0.003647 -0.013445 0
0.002656 -0.017929 0
-0.000000 0.000009 0
0.001352 0.008033 0
0.000957 0.000000 0
0.000457 0.000000 0
0.000139 0.000000 0
0.000005 0.000000 0
-0.000023 0.000000 0
-0.000011 0.000000 0
0.000006 0.000000 0
0.000018 0.000000 0
0.000025 0.000000 0
0.000028 0.000000 0
0.000030 0.000000 0
0.000030 0.000000 0
0.000031 0.000000 0
0.000031 0.000000 0
0.000031 0.000000 0
0.000032 0.000000 0
0.000032 0.000000 0
0.000032 0.000000 0
0.000032 0.000000 0
0.000033 0.000000 0
0.000033 0.000000 0
0.000033 0.000000 0
0.000033 0.000000 0
0.000033 0.000000 0
0.000033 0.000000 0
0.000033 0.000000 0
0.000033 0.000000 0
0.000033 0.000000 0
0.000034 0.000000 0
0.000035 0.000000 0
0.000037 0.000000 0
0.000037 0.000000 0
0.000028 0.000000 0