/*--------------------------------*- C++ -*----------------------------------*\
| =========                 |                                                 |
| \\      /  F ield         | OpenFOAM: The Open Source CFD Toolbox           |
|  \\    /   O peration     | Version:  5.x                                   |
|   \\  /    A nd           | Web:      www.OpenFOAM.org                      |
|    \\/     M anipulation  |                                                 |
\*---------------------------------------------------------------------------*/
FoamFile
{
    version     2.0;
    format      ascii;
    class       volScalarField;
    location    "10.4";
    object      gradTy;
}
// * * * * * * * * * * * * * * * * * * * * * * * * * * * * * * * * * * * * * //

dimensions      [0 -1 0 1 0 0 0];

internalField   nonuniform List<scalar> 
6300
(
1019.12
1057.56
1096.6
1136.61
1177.98
1221.04
1266.08
1313.37
1363.07
1415.31
1470.07
1527.26
1586.66
1647.93
1710.65
-0.299613
-0.893738
-1.47209
-2.02269
-2.53153
-2.98199
-3.35474
-3.62818
-3.77957
-3.78722
-3.63356
-3.30888
-2.81511
-2.16848
-1.39992
-0.505039
-1.50711
-2.48435
-3.41764
-4.28415
-5.05637
-5.70162
-6.18252
-6.45883
-6.491
-6.24556
-5.70222
-4.86122
-3.74924
-2.42088
-0.71848
-2.1453
-3.54055
-4.8793
-6.131
-7.25767
-8.21276
-8.94136
-9.38215
-9.47226
-9.15536
-8.39309
-7.17823
-5.54626
-3.58026
-0.942041
-2.81504
-4.65321
-6.42798
-8.10285
-9.63047
-10.9503
-11.9879
-12.6561
-12.8604
-12.5104
-11.5365
-9.91225
-7.67731
-4.94995
-1.17667
-3.51959
-5.82921
-8.07649
-10.2219
-12.2109
-13.9701
-15.4038
-16.3936
-16.8028
-16.4893
-15.3299
-13.2568
-10.3005
-6.62268
-1.42171
-4.2574
-7.06752
-9.82682
-12.4971
-15.021
-17.3152
-19.2634
-20.7115
-21.4677
-21.314
-20.0369
-17.4843
-13.6453
-8.72884
-1.67444
-5.02073
-8.35658
-11.6661
-14.9186
-18.0607
-21.006
-23.6229
-25.721
-27.0422
-27.2618
-26.0193
-22.9978
-18.0674
-11.4666
-1.92977
-5.79441
-9.67191
-13.5621
-17.4502
-21.2969
-25.0252
-28.5007
-31.5073
-33.7179
-34.6712
-33.7804
-30.42
-24.1597
-15.1679
-2.17997
-6.55518
-10.9744
-15.4602
-20.023
-24.6515
-29.2966
-33.8471
-38.0894
-41.6503
-43.9244
-44.0109
-40.742
-32.9835
-20.4555
-2.41485
-7.27188
-12.2102
-17.2811
-22.5301
-27.9889
-33.6625
-39.5014
-45.3523
-50.8692
-55.3649
-57.5963
-55.5533
-46.5766
-28.684
-2.62239
-7.90722
-13.3131
-18.9239
-24.8268
-31.1114
-37.8626
-45.1431
-52.9488
-61.1087
-69.0691
-75.4556
-77.2979
-69.0852
-43.3968
-2.78986
-8.42137
-14.2111
-20.2743
-26.7417
-33.7668
-41.5331
-50.2592
-60.1903
-71.5471
-84.3464
-97.8584
-109.097
-109.069
-75.9872
-2.90551
-8.7772
-14.8354
-21.2203
-28.0987
-35.6805
-44.2432
-54.1697
-66.0056
-80.5422
-98.9101
-122.534
-152.161
-182.104
-170.925
-2.96047
-8.9464
-15.1328
-21.6727
-28.752
-36.6127
-45.589
-56.1704
-69.1193
-85.7053
-108.217
-141.204
-194.908
-296.259
-530.374
1768.99
1822.3
1875.54
1928.38
1980.49
2031.57
2081.35
2129.6
2176.1
2220.7
2263.25
2303.65
2341.81
2377.67
2411.17
2442.29
2470.98
2497.26
2521.1
2542.51
2561.5
2578.1
2592.31
2604.17
2613.71
2620.96
2625.97
2628.77
2629.41
2627.93
2624.38
2618.81
2611.27
2601.79
2590.44
2577.25
2562.28
2545.56
2527.15
2507.1
2485.44
2462.23
2437.52
2411.36
2383.79
2354.86
2324.62
2293.11
2260.38
2226.47
2191.41
2155.25
2118
2079.71
2040.41
2000.14
1958.93
1916.81
1873.83
1830.02
1785.43
1740.1
1694.07
1647.39
1600.1
1552.25
1503.88
1455.04
1405.8
1356.21
1306.34
1256.27
1206.08
1155.88
1105.76
1055.85
1006.25
957.106
908.53
860.655
813.608
767.513
722.485
678.635
636.063
594.854
555.081
516.8
480.047
444.84
-0.622953
0.106979
0.832228
1.52747
2.17243
2.753
3.26141
3.69556
4.05786
4.35386
4.5909
4.77697
4.91981
5.02639
5.10262
5.15325
5.18199
5.19169
5.18458
5.16243
5.12673
5.07886
5.0201
4.95172
4.87496
4.79107
4.70127
4.60677
4.50874
4.40829
4.30644
4.20404
4.10178
4.00006
3.89905
3.79863
3.69848
3.59811
3.49706
3.39494
3.29162
3.18729
3.08253
2.97823
2.87554
2.77569
2.67981
2.58875
2.50293
2.42223
2.34596
2.27296
2.2017
2.13054
2.05792
1.98261
1.90382
1.82132
1.73536
1.64658
1.55573
1.46345
1.36998
1.27498
1.17732
1.07512
0.965855
0.84652
0.714005
0.565429
0.398512
0.21187
0.00522463
-0.220522
-0.463336
-0.720205
-0.987365
-1.26055
-1.53524
-1.80679
-2.07054
-2.32183
-2.55597
-2.76816
-2.95357
-3.10742
-3.22531
-3.30361
-3.33989
-3.33333
-1.07617
0.185347
1.43441
2.62548
3.72295
4.70304
5.55381
6.2736
6.86863
7.35028
7.73262
8.03034
8.25727
8.42548
8.54489
8.6233
8.66661
8.67923
8.66451
8.62516
8.56348
8.48162
8.38167
8.26569
8.13577
7.99398
7.84239
7.68301
7.51786
7.34883
7.17769
7.00597
6.83485
6.66508
6.49691
6.33008
6.1639
5.9974
5.82957
5.65958
5.48706
5.3123
5.13627
4.96063
4.78753
4.61931
4.45815
4.30574
4.16292
4.02951
3.90427
3.78501
3.66889
3.55277
3.43373
3.30945
3.17853
3.04063
2.8964
2.74724
2.59483
2.44066
2.28549
2.12893
1.96917
1.80292
1.62557
1.43165
1.21538
0.971401
0.695414
0.384798
0.0389628
-0.340513
-0.749994
-1.1841
-1.63616
-2.0987
-2.56391
-3.02391
-3.47094
-3.89728
-4.29515
-4.65654
-4.97314
-5.23656
-5.43883
-5.57317
-5.63494
-5.62242
-1.58532
0.281994
2.1205
3.85872
5.44294
6.83978
8.03534
9.03187
9.84324
10.4903
10.9968
11.3863
11.6799
11.8955
12.0469
12.1446
12.1961
12.2068
12.1806
12.1208
12.03
11.9112
11.7671
11.6005
11.4145
11.2118
10.9955
10.7684
10.5333
10.2932
10.0506
9.80784
9.56679
9.32861
9.09364
8.86138
8.63057
8.39941
8.16598
7.92864
7.68654
7.4399
7.19021
6.94014
6.69324
6.4535
6.22466
6.00967
5.81009
5.62575
5.45467
5.29326
5.13675
4.97988
4.81775
4.6465
4.46393
4.26967
4.06517
3.85318
3.63706
3.41988
3.20354
2.98803
2.77091
2.54719
2.30965
2.04944
1.75715
1.42391
1.04262
0.608871
0.12156
-0.416896
-1.0008
-1.62176
-2.26948
-2.93266
-3.59974
-4.25941
-4.90083
-5.51343
-6.0866
-6.60914
-7.06903
-7.45353
-7.74994
-7.94702
-8.03675
-8.01587
-2.17189
0.420102
2.95095
5.31372
7.43275
9.26637
10.8035
12.0569
13.0546
13.8328
14.4297
14.8804
15.2152
15.458
15.6263
15.7325
15.7845
15.7876
15.7455
15.661
15.5372
15.3774
15.1849
14.9636
14.7172
14.4496
14.1644
13.8654
13.5565
13.2414
12.9239
12.6075
12.2949
11.9878
11.6867
11.3909
11.098
10.805
10.5083
10.2049
9.89284
9.57219
9.245
8.91536
8.58896
8.27227
7.97153
7.69171
7.43559
7.20317
6.99145
6.79475
6.60539
6.41486
6.21517
6.00015
5.76641
5.51374
5.245
4.96535
4.68107
4.39814
4.12067
3.84972
3.58239
3.31163
3.0266
2.71368
2.3581
1.94585
1.46561
0.910292
0.278031
-0.427607
-1.19803
-2.02067
-2.88033
-3.76079
-4.64601
-5.52099
-6.37199
-7.18618
-7.95074
-8.65178
-9.27332
-9.79716
-10.2039
-10.4753
-10.5976
-10.5648
-2.85394
0.64652
4.02368
7.11995
9.83379
12.1201
13.9808
15.4503
16.5823
17.4372
18.0734
18.542
18.8836
19.1282
19.2959
19.399
19.444
19.4343
19.3718
19.2585
19.0971
18.8912
18.6451
18.3635
18.0514
17.7133
17.3538
16.9775
16.5891
16.1938
15.7966
15.4025
15.0157
14.639
14.2732
13.9169
13.5665
13.2166
12.8611
12.4942
12.1123
11.7147
11.3041
10.8867
10.4715
10.0688
9.68903
9.34037
9.02772
8.75149
8.50732
8.28636
8.07641
7.86371
7.63534
7.38143
7.09678
6.7816
6.44118
6.08479
5.72377
5.36912
5.02902
4.70676
4.39938
4.09718
3.78423
3.43986
3.04116
2.56619
1.99717
1.32298
0.54062
-0.344574
-1.31965
-2.36581
-3.46082
-4.58165
-5.70662
-6.81669
-7.89578
-8.93001
-9.90601
-10.8085
-11.6179
-12.3091
-12.8524
-13.218
-13.3817
-13.332
-3.64298
1.05049
5.50084
9.47678
12.8502
15.5867
17.7209
19.3296
20.5089
21.3563
21.9586
22.3863
22.6915
22.909
23.0586
23.1491
23.1824
23.157
23.0712
22.9252
22.721
22.4628
22.1562
21.8076
21.4229
21.0078
20.5675
20.107
19.632
19.1488
18.6648
18.1871
17.7222
17.2746
16.846
16.4345
16.0343
15.6365
15.2303
14.8054
14.3547
13.876
13.3731
12.855
12.336
11.8327
11.3619
10.9374
10.5676
10.2539
9.98999
9.76235
9.55158
9.33535
9.09251
8.80717
8.47135
8.086
7.66055
7.21112
6.75751
6.31937
5.9119
5.54261
5.20913
4.89843
4.58733
4.2445
3.83428
3.32217
2.68037
1.89167
0.951495
-0.131899
-1.33868
-2.64036
-4.00388
-5.39631
-6.7884
-8.15673
-9.48389
-10.7574
-11.9668
-13.099
-14.1326
-15.0336
-15.7567
-16.251
-16.4727
-16.3993
-4.53281
1.8044
7.66091
12.7008
16.7835
19.92
22.2168
23.8263
24.9127
25.6273
26.0942
26.4061
26.6251
26.7867
26.9054
26.9809
27.0043
26.9655
26.8566
26.6747
26.4217
26.1031
25.7271
25.3025
24.8372
24.3378
23.8092
23.2565
22.6855
22.1043
21.5229
20.9523
20.4028
19.882
19.3934
18.9349
18.4978
18.0677
17.6255
17.1528
16.6365
16.0716
15.4629
14.8241
14.1772
13.549
12.9673
12.4549
12.026
11.6838
11.4198
11.2134
11.034
10.8447
10.6103
10.3051
9.91666
9.44762
8.91392
8.34295
7.76851
7.22497
6.73936
6.3265
5.98566
5.69988
5.43575
5.14585
4.77381
4.26458
3.5748
2.67818
1.56835
0.258214
-1.22126
-2.82605
-4.50546
-6.21154
-7.90449
-9.55609
-11.1492
-12.6771
-14.1387
-15.5315
-16.8379
-18.0142
-18.9901
-19.6765
-19.9883
-19.8808
-5.47139
3.25015
10.9963
17.3027
22.0785
25.4617
27.7011
29.0749
29.8503
30.2532
30.4513
30.5582
30.6394
30.7243
30.8126
30.8857
30.9142
30.8731
30.7452
30.5248
30.2147
29.8242
29.366
28.8538
28.2988
27.7076
27.0838
26.4301
25.7517
25.0582
24.3635
23.6853
23.0401
22.4412
21.8955
21.4023
20.9496
20.5143
20.0628
19.5612
18.9864
18.3286
17.5942
16.803
15.9896
15.1967
14.4714
13.8505
13.358
12.9997
12.7651
12.6241
12.5292
12.4175
12.2286
11.9213
11.4767
10.901
10.2196
9.4785
8.73377
8.04594
7.46087
7.00557
6.6818
6.4691
6.32029
6.1645
5.90994
5.4661
4.76621
3.77092
2.47286
0.891443
-0.924067
-2.90493
-4.96922
-7.0462
-9.08056
-11.04
-12.9089
-14.6924
-16.4098
-18.0886
-19.7308
-21.2834
-22.6405
-23.6412
-24.1076
-23.9473
-6.2757
6.09999
16.404
24.1082
29.378
32.65
34.4316
35.1847
35.3236
35.1731
34.9388
34.7464
34.6474
34.6561
34.7409
34.8535
34.9234
34.9045
34.7657
34.5032
34.1224
33.6416
33.0815
32.4656
31.8113
31.1235
30.4001
29.6383
28.8387
28.0126
27.1792
26.3697
25.6095
24.9228
24.3211
23.8103
23.3752
22.9834
22.5714
22.0739
21.4547
20.6951
19.8065
18.8132
17.7715
16.7465
15.8241
15.0604
14.4961
14.1365
13.9748
13.9677
14.0477
14.1011
14.0166
13.7344
13.225
12.5058
11.6109
10.6187
9.61655
8.71842
7.99503
7.49475
7.21753
7.14587
7.21445
7.32494
7.31825
7.03592
6.38266
5.2993
3.78515
1.86152
-0.388965
-2.86385
-5.41483
-7.94232
-10.3645
-12.6545
-14.7914
-16.803
-18.7365
-20.698
-22.7525
-24.8338
-26.8039
-28.375
-29.1292
-28.8714
-6.33867
11.9329
25.555
34.4183
39.5541
41.9847
42.6435
42.1799
41.2143
40.2148
39.3669
38.8013
38.5012
38.4797
38.6301
38.8838
39.0619
39.1096
38.9658
38.6533
38.1753
37.5749
36.8789
36.1343
35.3738
34.5921
33.7735
32.9027
31.9656
30.9791
29.9622
28.9849
28.0748
27.284
26.6177
26.111
25.7403
25.4833
25.2048
24.7637
24.1273
23.2488
22.1717
20.8948
19.5312
18.1501
16.9504
15.9851
15.341
14.9903
14.9634
15.1879
15.6062
15.9847
16.0909
15.8765
15.2772
14.3652
13.1439
11.7747
10.3511
9.14083
8.20945
7.66422
7.45868
7.62209
8.04958
8.65539
9.12475
9.14112
8.61962
7.44923
5.68825
3.30346
0.470456
-2.71204
-5.89309
-8.98889
-11.8379
-14.4882
-16.8533
-19.0249
-21.0218
-23.1727
-25.7349
-28.5433
-31.5411
-34.2842
-35.6072
-35.1207
-3.46065
24.461
41.5592
50.0956
53.6246
53.8693
52.4704
49.8967
47.1528
45.0368
43.3872
42.473
41.9524
42.0544
42.3695
43.0216
43.3871
43.5891
43.4073
43.0403
42.4033
41.6443
40.745
39.8242
38.9655
38.1123
37.2206
36.2614
35.1622
33.9879
32.6871
31.502
30.367
29.4645
28.6831
28.2146
27.9404
28.0131
28.0709
27.7337
27.1474
26.0875
24.8233
23.1
21.315
19.2917
17.7381
16.4462
15.7624
15.377
15.5893
16.1278
17.2212
18.2596
18.6261
18.5718
17.7787
16.6693
14.8893
13.0081
10.778
9.1609
7.86716
7.34391
7.16798
7.71749
8.62737
10.1818
11.583
12.0204
11.7905
10.4491
8.4892
5.39042
1.8328
-2.56258
-6.49437
-10.391
-13.5977
-16.7325
-19.194
-21.4984
-23.0854
-25.0547
-28.3625
-31.9798
-36.6447
-42.2379
-44.6906
-43.5428
11.49
52.5743
69.8918
72.9834
72.4243
68.1197
63.9883
57.8576
52.1859
49.1863
46.3476
45.5766
44.5065
45.3209
45.6229
47.5708
47.9466
48.6203
48.1143
47.8151
46.8059
45.9143
44.6411
43.4237
42.548
41.687
40.7639
39.8203
38.466
37.1779
35.2441
33.946
32.3232
31.4699
30.2969
30.0374
29.6401
30.5634
31.5049
31.0616
30.8484
29.2194
28.1352
25.3932
23.4413
19.7559
18.1484
16.0307
15.7534
14.9025
15.7447
16.2679
18.9148
21.5015
21.7665
22.3306
20.7349
19.9383
16.7797
14.7437
10.3215
8.71488
6.41497
6.52305
5.83225
7.29356
8.27658
11.9286
15.4289
15.86
16.5616
14.3394
12.9298
8.13782
4.4013
-3.08086
-7.14642
-12.7865
-15.4609
-19.9461
-21.761
-25.0045
-24.5986
-25.0089
-30.5443
-33.9075
-40.4109
-54.7137
-58.9579
-55.7104
81.7943
114.91
118.708
101.127
96.6162
82.1202
78.3845
65.1572
53.3708
53.1041
46.3305
49.1108
44.3466
49.3254
46.5059
54.3836
52.0771
55.35
52.5233
53.6121
51.039
50.7338
48.4569
46.5309
46.1094
45.3512
44.3369
43.9708
41.6747
41.2977
36.886
36.8579
33.1715
33.9359
30.5955
32.0589
29.4384
33.0879
36.9334
34.0581
36.5888
31.5671
33.8346
26.549
28.0643
17.2286
19.2937
12.9656
16.5711
11.9902
16.3601
13.3502
20.6956
28.0869
24.4765
29.2
22.5407
26.6091
17.054
19.9158
5.81119
9.26778
1.49589
6.85314
1.39808
7.55891
4.08299
13.8942
23.6946
19.3104
25.5434
17.0599
22.2413
9.36584
12.364
-8.51845
-5.53051
-19.4521
-14.716
-27.0042
-22.2703
-33.7649
-24.9357
-17.5822
-35.8534
-31.3125
-32.9453
-81.6729
-84.0119
-74.5272
435.243
219.461
198.307
110.447
135.185
80.6238
106.446
70.3804
37.9657
66.3903
32.5543
63.5077
30.1552
64.558
31.9834
75.8597
48.1717
70.8609
51.2922
64.6801
52.0043
58.3907
51.7655
47.4697
50.1538
49.3825
46.9744
50.8987
42.118
51.2257
32.2138
45.0358
27.609
42.3113
23.9751
39.9595
20.2062
35.3285
52.0379
29.2687
53.2029
23.4168
53.2887
15.0302
50.4714
-3.87736
32.5242
-4.40521
29.176
-3.81228
27.6014
-4.48014
22.4091
50.5133
15.1847
52.4591
8.89759
52.8967
-0.553137
49.5185
-23.988
25.9889
-22.3298
22.7523
-19.7636
21.7005
-19.2446
15.8746
52.3856
7.47105
55.716
0.102563
57.5537
-12.2646
54.714
-48.3296
20.4348
-52.9848
10.5439
-58.5738
0.589345
-71.7915
-23.1475
26.7441
-74.0117
-19.8271
42.3373
-175.431
-126.091
-105.972
407.809
369.599
333.498
299.399
267.168
236.651
207.683
180.093
153.708
128.354
103.863
80.0693
56.8127
33.9364
11.287
-3.28008
-3.16606
-3.00395
-2.80343
-2.57482
-2.32785
-2.07092
-1.8107
-1.55198
-1.29782
-1.04979
-0.80823
-0.572571
-0.341564
-0.113517
-5.52881
-5.33013
-5.04919
-4.7036
-4.31178
-3.89084
-3.45525
-3.01621
-2.5816
-2.15626
-1.74247
-1.34051
-0.949123
-0.565988
-0.188069
-7.87399
-7.57633
-7.15896
-6.64992
-6.07778
-5.46841
-4.84295
-4.21724
-3.60191
-3.0031
-2.4233
-1.86219
-1.31741
-0.785189
-0.260837
-10.3619
-9.94212
-9.3603
-8.65921
-7.88094
-7.06197
-6.23085
-5.40782
-4.60564
-3.83089
-3.0854
-2.36751
-1.67312
-0.996507
-0.330924
-13.0479
-12.4698
-11.6807
-10.7455
-9.72465
-8.66756
-7.61055
-6.57747
-5.58187
-4.62937
-3.71986
-2.8493
-2.01103
-1.19678
-0.397271
-16.0018
-15.2081
-14.147
-12.9173
-11.6044
-10.2729
-8.96618
-7.70954
-6.51493
-5.38479
-4.31532
-3.29874
-2.3249
-1.38229
-0.458644
-19.3158
-18.2135
-16.7818
-15.172
-13.5026
-11.8534
-10.2715
-8.77945
-7.3834
-6.07946
-4.85782
-3.70539
-2.60751
-1.54881
-0.513654
-23.1154
-21.548
-19.5945
-17.4862
-15.3802
-13.3665
-11.4869
-9.75318
-8.15963
-6.69176
-5.33102
-4.05743
-2.85091
-1.69177
-0.560806
-27.5748
-25.2683
-22.5617
-19.7978
-17.1653
-14.7451
-12.5564
-10.5866
-8.81006
-7.19682
-5.71697
-4.34234
-3.04689
-1.80652
-0.598601
-32.9256
-29.3883
-25.5858
-21.9778
-18.7377
-15.8923
-13.4066
-11.2265
-9.29705
-7.5684
-5.99763
-4.548
-3.18773
-1.88879
-0.62567
-39.4187
-33.7728
-28.415
-23.7894
-19.9152
-16.6794
-13.9509
-11.6158
-9.58308
-7.78197
-6.15706
-4.66421
-3.2672
-1.93521
-0.64095
-47.0582
-37.8689
-30.5117
-24.8493
-20.454
-16.9589
-14.1017
-11.7024
-9.63736
-7.81921
-6.18434
-4.68453
-3.28159
-1.94389
-0.643856
-54.4473
-40.1322
-30.9131
-24.6415
-20.0923
-16.6004
-13.7943
-11.4547
-9.44457
-7.67304
-6.07648
-4.60789
-3.23069
-1.91486
-0.634433
-54.2452
-37.2988
-28.3666
-22.7111
-18.6729
-15.5559
-13.0201
-10.8773
-9.01303
-7.35179
-5.84056
-4.43979
-3.11835
-1.85042
-0.613432
-2.95627
-8.93318
-15.1087
-21.6345
-28.6954
-36.5321
-45.478
-56.024
-68.9389
-85.5162
-108.123
-141.561
-196.819
-302.49
-542.041
-2.90315
-8.76905
-14.8184
-21.1899
-28.0495
-35.6084
-44.1499
-54.0721
-65.9584
-80.6921
-99.6252
-124.7
-157.724
-194.004
-183.789
-2.80861
-8.47743
-14.3044
-20.4062
-26.9177
-34.0021
-41.8625
-50.7557
-60.9998
-72.9512
-86.8611
-102.318
-116.366
-117.805
-73.7031
-2.6782
-8.07595
-13.5994
-19.3377
-25.3879
-31.8566
-38.8577
-46.5009
-54.8551
-63.8495
-73.0214
-80.9144
-83.7639
-73.2314
-35.3557
-2.51908
-7.58713
-12.745
-18.0524
-23.5674
-29.3412
-35.4065
-41.7518
-48.2656
-54.624
-60.0691
-63.0117
-60.4539
-47.6454
-19.8104
-2.33916
-7.03589
-11.7867
-16.6229
-21.5669
-26.6229
-31.7607
-36.8854
-41.7837
-46.0326
-48.8544
-48.9283
-44.2618
-32.4943
-12.4496
-2.14644
-6.44708
-10.7689
-15.1184
-19.4885
-23.8478
-28.1238
-32.1758
-35.7524
-38.4317
-39.5477
-38.1366
-33.0003
-23.091
-8.45996
-1.94831
-5.8435
-9.7318
-13.5995
-17.4174
-21.1302
-24.6423
-27.7959
-30.3437
-31.9159
-31.9955
-29.9315
-25.0531
-16.9664
-6.05972
-1.75116
-5.24465
-8.70892
-12.1151
-15.419
-18.552
-21.4095
-23.8367
-25.6124
-26.4364
-25.9315
-23.6808
-19.3336
-12.8
-4.50161
-1.56014
-4.66604
-7.72629
-10.7017
-13.5393
-16.165
-18.4754
-20.3297
-21.5417
-21.8796
-21.0795
-18.8859
-15.1323
-9.85915
-3.43291
-1.37907
-4.11909
-6.80248
-9.38398
-11.8066
-13.9966
-15.8581
-17.2685
-18.0778
-18.1129
-17.195
-15.1743
-11.986
-7.71895
-2.66945
-1.21059
-3.61141
-5.94937
-8.17644
-10.2354
-12.0564
-13.5537
-14.6248
-15.1515
-15.0079
-14.0762
-12.2734
-9.58874
-6.12207
-2.10692
-1.05622
-3.14737
-5.17321
-7.08556
-8.82941
-10.3408
-11.5453
-12.3589
-12.6905
-12.4501
-11.5621
-9.9849
-7.73445
-4.90602
-1.68237
-0.91664
-2.72865
-4.47583
-6.11162
-7.58476
-8.8381
-9.80839
-10.4276
-10.6266
-10.3419
-9.52666
-8.1638
-6.28148
-3.9644
-1.35578
-0.791819
-2.35493
-3.85575
-5.25057
-6.49268
-7.53192
-8.31517
-8.78802
-8.89838
-8.60218
-7.87138
-6.70338
-5.13037
-3.2252
-1.10068
-0.681248
-2.02443
-3.30926
-4.49553
-5.54141
-6.40346
-7.03743
-7.40011
-7.45245
-7.16417
-6.51963
-5.52417
-4.20986
-2.63832
-0.898908
-0.584083
-1.73444
-2.83118
-3.83795
-4.71775
-5.43332
-5.94802
-6.22764
-6.24299
-5.97352
-5.4115
-4.56635
-3.46796
-2.16798
-0.737695
-0.499277
-1.48168
-2.41556
-3.2685
-4.0081
-4.60262
-5.02182
-5.23864
-5.23127
-4.98596
-4.49995
-3.78433
-2.86603
-1.7881
-0.607799
-0.425684
-1.26259
-2.05615
-2.77771
-3.39918
-3.89361
-4.23612
-4.40526
-4.38475
-4.16552
-3.7478
-3.14304
-2.37493
-1.4793
-0.502408
-0.362134
-1.07358
-1.7467
-2.35641
-2.87846
-3.29007
-3.57078
-3.70355
-3.6762
-3.48286
-3.12552
-2.61516
-1.97236
-1.22692
-0.416406
-0.307482
-0.911187
-1.48128
-1.99596
-2.43441
-2.77742
-3.00813
-3.11301
-3.08288
-2.91408
-2.60947
-2.17923
-1.64105
-1.01971
-0.345888
-0.260647
-0.772123
-1.25433
-1.68843
-2.05661
-2.34271
-2.53285
-2.6162
-2.58584
-2.43957
-2.18065
-1.81824
-1.36746
-0.848953
-0.287833
-0.220629
-0.653376
-1.06079
-1.42665
-1.7358
-1.97463
-2.13171
-2.19833
-2.16926
-2.04327
-1.82368
-1.5186
-1.1409
-0.707775
-0.239876
-0.186518
-0.552216
-0.896091
-1.20425
-1.4638
-1.66332
-1.79335
-1.8469
-1.81996
-1.71195
-1.52605
-1.26938
-0.95283
-0.590738
-0.200147
-0.157502
-0.466206
-0.756189
-1.01559
-1.23347
-1.40025
-1.50809
-1.55135
-1.52695
-1.4347
-1.27757
-1.06172
-0.796376
-0.493487
-0.167153
-0.13286
-0.393192
-0.637522
-0.855748
-1.03862
-1.17809
-1.26767
-1.30278
-1.28103
-1.2025
-1.06986
-0.888428
-0.665986
-0.412514
-0.139696
-0.11196
-0.331286
-0.536977
-0.720455
-0.8739
-0.990566
-1.06507
-1.09368
-1.07453
-1.00786
-0.896034
-0.743603
-0.557138
-0.344971
-0.116801
-0.0942504
-0.278845
-0.451855
-0.60601
-0.734715
-0.832313
-0.894335
-0.917727
-0.901039
-0.844563
-0.750394
-0.622407
-0.466135
-0.288538
-0.0976793
-0.0792527
-0.234446
-0.379822
-0.509234
-0.617126
-0.698758
-0.750417
-0.769601
-0.755167
-0.707436
-0.628232
-0.520849
-0.389937
-0.241311
-0.0816813
-0.0665544
-0.196862
-0.318872
-0.427398
-0.517767
-0.586012
-0.629046
-0.644814
-0.63241
-0.592159
-0.525634
-0.435625
-0.326037
-0.201725
-0.0682746
-0.0558006
-0.16504
-0.267283
-0.358167
-0.433768
-0.490769
-0.526605
-0.539584
-0.528987
-0.495123
-0.43934
-0.363994
-0.272358
-0.168484
-0.0570189
-0.0466866
-0.138074
-0.223581
-0.299545
-0.362681
-0.41022
-0.440031
-0.450722
-0.441718
-0.413304
-0.366628
-0.303672
-0.227175
-0.140513
-0.0475494
-0.0389512
-0.11519
-0.186504
-0.24983
-0.302423
-0.341979
-0.36673
-0.375533
-0.367925
-0.344162
-0.305218
-0.252752
-0.189049
-0.116917
-0.0395622
-0.0323708
-0.0957253
-0.154974
-0.207564
-0.251216
-0.284015
-0.304502
-0.311737
-0.305348
-0.285561
-0.253194
-0.209633
-0.156775
-0.096948
-0.0328033
-0.0267535
-0.0791108
-0.128066
-0.171505
-0.207543
-0.2346
-0.251475
-0.257399
-0.252073
-0.235693
-0.208942
-0.172969
-0.12934
-0.0799757
-0.0270595
-0.0219344
-0.0648584
-0.104987
-0.140585
-0.170104
-0.192254
-0.20605
-0.210869
-0.206473
-0.193026
-0.171093
-0.141618
-0.105887
-0.0654694
-0.0221505
-0.0177713
-0.0525468
-0.0850534
-0.113883
-0.137783
-0.155706
-0.166859
-0.170738
-0.167156
-0.15625
-0.138479
-0.114612
-0.0856876
-0.0529773
-0.0179235
-0.0141405
-0.0418105
-0.0676724
-0.0906052
-0.109611
-0.123858
-0.132716
-0.135787
-0.132925
-0.124239
-0.110099
-0.0911155
-0.0681167
-0.042112
-0.0142472
-0.0109341
-0.0323293
-0.0523249
-0.0700534
-0.084743
-0.0957507
-0.102591
-0.104957
-0.102735
-0.0960149
-0.0850811
-0.0704069
-0.0526327
-0.0325382
-0.011008
-0.0080562
-0.0238197
-0.0385513
-0.0516113
-0.0624311
-0.0705372
-0.0755719
-0.0773102
-0.0756698
-0.0707159
-0.0626599
-0.0518505
-0.0387595
-0.0239611
-0.0081062
-0.00542047
-0.0160266
-0.0259381
-0.0347245
-0.0420033
-0.0474558
-0.0508416
-0.0520096
-0.0509045
-0.0475706
-0.0421502
-0.0348782
-0.0260718
-0.0161174
-0.00545258
-0.00294778
-0.00871566
-0.0141059
-0.0188845
-0.0228433
-0.0258091
-0.0276511
-0.028287
-0.0276865
-0.0258738
-0.022926
-0.018971
-0.0141812
-0.00876676
-0.00296585
-0.000563723
-0.00166693
-0.00269841
-0.00361363
-0.00437282
-0.00494273
-0.00529806
-0.00542263
-0.00531021
-0.00496493
-0.00440123
-0.00364333
-0.00272428
-0.00168449
-0.000569933
0.0018035
0.005332
0.00862836
0.0115489
0.0139663
0.0157747
0.0168948
0.0172771
0.0169044
0.0157922
0.0139887
0.0115724
0.00864881
0.00534588
0.00180841
0.00422523
0.0124921
0.020216
0.0270609
0.0327281
0.0369699
0.0395998
0.0405011
0.0396323
0.0370293
0.0328041
0.0271403
0.0202852
0.0125391
0.00424185
0.00677441
0.0200291
0.032414
0.0433903
0.0524796
0.0592842
0.0635049
0.0649539
0.0635642
0.0593926
0.0526183
0.0435353
0.0325402
0.0201148
0.00680473
0.00952779
0.02817
0.0455897
0.0610297
0.0738171
0.0833924
0.0893341
0.0913775
0.0894273
0.0835628
0.0740351
0.0612577
0.0457882
0.0283047
0.00957545
0.0125681
0.0371596
0.0601399
0.0805107
0.0973846
0.110023
0.11787
0.120574
0.118008
0.110276
0.0977081
0.080849
0.0604345
0.0373596
0.0126388
0.0159866
0.0472678
0.0765017
0.102419
0.123892
0.139981
0.149975
0.153428
0.150175
0.140346
0.12436
0.102909
0.0769277
0.0475569
0.0160889
0.0198857
0.0587973
0.0951656
0.127414
0.154138
0.174169
0.186622
0.190938
0.186908
0.174692
0.154807
0.128113
0.0957742
0.0592103
0.0200318
0.0243816
0.0720924
0.11669
0.156243
0.189031
0.213619
0.228919
0.23424
0.229325
0.214361
0.18998
0.157235
0.117554
0.0726789
0.024589
0.029608
0.0875488
0.141716
0.189769
0.229617
0.259517
0.278143
0.28465
0.278717
0.260567
0.230961
0.191174
0.14294
0.0883792
0.0299018
0.0357198
0.105625
0.170988
0.228989
0.27711
0.313242
0.33578
0.343696
0.336592
0.314726
0.279009
0.230976
0.172718
0.106799
0.0361351
0.042897
0.126853
0.205371
0.275069
0.332926
0.376404
0.403568
0.413169
0.404715
0.378501
0.335609
0.277876
0.207815
0.128512
0.0434837
0.0513498
0.151858
0.245877
0.329371
0.398723
0.450892
0.483548
0.495177
0.485169
0.453854
0.402513
0.333334
0.249329
0.1542
0.0521784
0.0613242
0.181366
0.293691
0.39349
0.476449
0.538928
0.578125
0.592208
0.580414
0.543109
0.4818
0.399086
0.298564
0.184674
0.0624941
0.0731079
0.216233
0.350201
0.4693
0.568392
0.643127
0.690138
0.707203
0.693369
0.64903
0.575946
0.477201
0.357081
0.220902
0.0747597
0.0870376
0.257455
0.417035
0.559001
0.677244
0.766573
0.822941
0.84365
0.827502
0.774906
0.687909
0.570154
0.426748
0.264048
0.0893697
0.103507
0.306202
0.496096
0.66517
0.80617
0.912901
0.980501
1.00568
0.986939
0.924664
0.821226
0.680915
0.509808
0.315509
0.106799
0.122974
0.363835
0.589611
0.790829
0.958886
1.08639
1.16751
1.19822
1.1766
1.103
0.98014
0.813057
0.60897
0.376975
0.127622
0.145972
0.431941
0.700176
0.939508
1.13975
1.2921
1.38951
1.42707
1.40234
1.31554
1.16976
0.970889
0.727506
0.450493
0.152535
0.17312
0.512358
0.830806
1.11533
1.35387
1.53594
1.65306
1.69918
1.67116
1.56903
1.39622
1.15963
0.869391
0.538551
0.182386
0.205128
0.607208
0.984991
1.32306
1.60719
1.82488
1.96589
2.02277
1.99144
1.87159
1.66698
1.3856
1.03947
0.644191
0.218212
0.242812
0.718925
1.16675
1.56824
1.90664
2.16706
2.33711
2.4076
2.37318
2.23298
1.99103
1.65653
1.24366
0.771147
0.261288
0.2871
0.850284
1.38066
1.85721
2.26022
2.57197
2.77746
2.86526
2.82836
2.665
2.37935
1.98186
1.48927
0.92403
0.313192
0.339035
1.00442
1.63196
2.19724
2.67716
3.05065
3.29952
3.40949
3.37133
3.18193
2.8453
2.37321
1.78532
1.10857
0.37589
0.399781
1.18481
1.92647
2.59652
3.16799
3.61584
3.91799
4.05657
4.01931
3.80108
3.40529
2.84496
2.14305
1.33194
0.451849
0.470612
1.39533
2.27068
3.06425
3.74464
4.28217
4.65003
4.82572
4.79292
4.54348
4.07953
3.41501
2.57659
1.60321
0.544194
0.552901
1.64012
2.67165
3.61055
4.42046
5.0663
5.51547
5.73962
5.71691
5.43483
4.893
4.10579
3.10383
1.93394
0.656928
0.648088
1.92358
3.13692
4.24639
5.21018
5.98695
6.53714
6.82489
6.82099
6.5065
5.87684
4.94566
3.74764
2.33906
0.795239
0.757631
2.25019
3.6743
4.98337
6.12971
7.06491
7.74099
8.11263
8.14069
7.79698
7.07001
5.97079
4.53766
2.83806
0.965944
0.882936
2.6243
4.29153
5.8333
7.19581
8.32276
9.15619
9.63889
9.71848
9.35357
8.52161
7.22776
5.51269
3.45684
1.17815
1.02525
3.04987
4.99586
6.80766
8.42545
9.78435
10.8149
11.445
11.6049
11.2344
10.2939
8.77717
6.72433
4.23033
1.44425
1.18553
3.53002
5.79332
7.91669
9.83478
11.4739
12.7515
13.5776
13.8595
13.511
12.4662
10.6988
8.24228
5.20662
1.78146
1.36427
4.06651
6.68791
9.1682
11.4378
13.4144
15.0015
16.0879
16.5518
16.271
15.1403
13.0989
10.1623
6.45337
2.21432
1.56126
4.6591
7.68042
10.566
13.244
15.6254
17.5992
19.0303
19.7611
19.6209
18.4469
16.1205
12.6187
8.06818
2.77884
1.77538
5.30479
8.76715
12.1077
15.2562
18.1193
20.5736
22.4589
23.5751
23.6887
22.5535
19.9583
15.8032
10.196
3.52968
2.00432
5.99699
9.93837
13.7828
17.4664
20.8969
23.943
26.4212
28.0854
28.6234
27.6737
24.8792
19.9959
13.0593
4.55342
2.24435
6.72475
11.1768
15.5696
19.8521
23.9414
27.7066
30.9487
33.3774
34.5909
34.075
31.2504
25.6143
17.0124
5.99442
2.49012
7.47213
12.4563
17.4328
22.3718
27.2107
31.8332
36.0409
39.5131
41.7592
42.0793
39.5737
33.292
22.6431
8.10958
2.73462
8.21795
13.7411
19.3217
24.961
30.63
36.2476
41.6436
46.4998
50.2648
52.0454
50.5189
44.0023
30.9712
11.3953
2.96931
8.93603
14.9859
21.1699
27.5292
34.0847
40.8158
47.6207
54.2439
60.148
64.3077
64.9291
59.2362
43.844
16.9132
3.18447
9.59629
16.1375
22.896
29.961
37.4173
45.3323
53.7237
62.4869
71.2422
79.0265
83.7237
81.2051
64.7294
27.2195
3.36982
10.1666
17.1379
24.4093
32.1208
40.4309
49.5177
59.5681
70.7347
83.01
95.8884
107.528
112.866
100.221
49.2821
3.51542
10.6158
17.9297
25.6168
33.8646
42.9049
53.0337
64.6367
78.2121
94.3584
113.609
135.709
157.013
162.306
104.417
3.61272
10.9166
18.4623
26.4346
35.0579
44.6226
55.5253
68.3352
83.9036
103.55
129.351
164.44
212.278
268.265
264.374
3.65555
11.0493
18.6985
26.8002
35.5973
45.4107
56.6922
70.1175
86.7624
108.466
138.642
184.317
261.881
415.805
788.813
3.64095
11.0045
18.6203
26.6827
35.4306
45.1789
56.3699
69.6632
86.1078
107.496
137.169
182.047
258.456
411.198
784.949
3.56962
10.7844
18.2319
26.089
34.5689
43.945
54.5872
67.02
82.019
100.773
125.136
157.879
202.018
253.11
247.932
3.44582
10.4026
17.559
25.0626
33.0845
41.8315
51.5606
62.5939
75.3219
90.1543
107.282
125.796
140.749
134.095
51.6691
-34.395
-28.0258
-23.2541
-19.5611
-16.5845
-14.1025
-11.9755
-10.1111
-8.44482
-6.9299
-5.53055
-4.21841
-2.97
-1.76512
-0.585597
-12.9009
-17.8761
-17.6517
-16.1066
-14.2901
-12.501
-10.8202
-9.25992
-7.8107
-6.45675
-5.18121
-3.96785
-2.80151
-1.66799
-0.553859
-5.86953
-11.337
-12.9664
-12.8405
-11.9763
-10.8243
-9.58112
-8.33156
-7.11033
-5.92908
-4.78863
-3.68461
-2.61018
-1.55737
-0.517661
-3.19341
-7.46314
-9.49974
-10.0871
-9.86214
-9.21071
-8.34635
-7.38345
-6.38212
-5.37301
-4.37069
-3.38077
-2.40383
-1.43764
-0.478412
-1.98744
-5.13999
-7.03943
-7.89766
-8.04408
-7.7449
-7.17994
-6.46195
-5.65923
-4.81218
-3.94411
-3.06788
-2.18998
-1.31305
-0.437492
-1.3525
-3.68701
-5.3021
-6.20246
-6.53536
-6.4636
-6.11971
-5.59922
-4.96706
-4.2659
-3.52315
-2.75611
-1.97543
-1.1875
-0.396165
-0.974829
-2.73358
-4.06107
-4.90127
-5.30758
-5.37121
-5.18204
-4.81398
-4.32276
-3.74844
-3.11903
-2.45379
-1.76588
-1.06432
-0.355524
-0.729724
-2.07961
-3.15838
-3.90133
-4.31772
-4.45433
-4.36855
-4.11422
-3.73612
-3.2692
-2.73975
-2.1672
-1.56579
-0.946138
-0.316446
-0.560692
-1.6139
-2.48887
-3.12812
-3.52211
-3.69182
-3.67207
-3.50038
-3.21113
-2.83334
-2.39039
-1.90061
-1.37835
-0.834923
-0.279587
-0.438999
-1.27195
-1.98304
-2.5252
-2.88221
-3.06086
-3.08107
-2.96812
-2.74758
-2.44272
-2.0735
-1.65657
-1.2056
-0.731968
-0.245392
-0.348583
-1.01461
-1.5945
-2.05081
-2.36616
-2.53987
-2.58251
-2.51055
-2.34256
-2.09675
-1.78974
-1.43614
-1.04857
-0.637994
-0.214115
-0.279789
-0.817076
-1.29175
-1.6743
-1.94843
-2.1099
-2.16349
-2.11964
-1.99156
-1.79326
-1.53832
-1.23928
-0.907515
-0.553251
-0.185855
-0.226472
-0.663013
-1.05297
-1.37307
-1.60891
-1.7548
-1.81213
-1.7872
-1.68931
-1.52909
-1.31749
-1.06515
-0.78207
-0.47762
-0.16059
-0.184544
-0.54129
-0.862703
-1.13033
-1.33184
-1.4612
-1.51785
-1.50542
-1.43031
-1.30057
-1.12495
-0.912336
-0.67146
-0.41072
-0.138206
-0.151185
-0.444097
-0.709769
-0.9335
-1.10487
-1.21807
-1.27154
-1.26714
-1.20925
-1.10391
-0.958072
-0.779147
-0.574638
-0.35199
-0.118528
-0.124391
-0.365817
-0.585955
-0.773017