/*--------------------------------*- C++ -*----------------------------------*\
| =========                 |                                                 |
| \\      /  F ield         | OpenFOAM: The Open Source CFD Toolbox           |
|  \\    /   O peration     | Version:  5.x                                   |
|   \\  /    A nd           | Web:      www.OpenFOAM.org                      |
|    \\/     M anipulation  |                                                 |
\*---------------------------------------------------------------------------*/
FoamFile
{
    version     2.0;
    format      ascii;
    class       volScalarField;
    location    "17.6";
    object      gradTy;
}
// * * * * * * * * * * * * * * * * * * * * * * * * * * * * * * * * * * * * * //

dimensions      [0 -1 0 1 0 0 0];

internalField   nonuniform List<scalar> 
6300
(
995.237
985.831
976.782
968.324
960.683
954.074
948.695
944.72
942.294
941.527
942.481
945.165
949.535
955.486
962.86
-0.179268
-0.53574
-0.885792
-1.22438
-1.54534
-1.84114
-2.10267
-2.31945
-2.48004
-2.57305
-2.58856
-2.51992
-2.36564
-2.13089
-1.82797
-0.301081
-0.900061
-1.4891
-2.06024
-2.60357
-3.10665
-3.5542
-3.92815
-4.20841
-4.3744
-4.40758
-4.29477
-4.03191
-3.62708
-3.10184
-0.426064
-1.27431
-2.11032
-2.92392
-3.70205
-4.42771
-5.07933
-5.63055
-6.05106
-6.30858
-6.37259
-6.2197
-5.84013
-5.24368
-4.46282
-0.554928
-1.6608
-2.75391
-3.82305
-4.85295
-5.82279
-6.7048
-7.46364
-8.05667
-8.43622
-8.55444
-8.37126
-7.86519
-7.04463
-5.95519
-0.687778
-2.06005
-3.42147
-4.7614
-6.06393
-7.30567
-8.45345
-9.4625
-10.2757
-10.8252
-11.0377
-10.8457
-10.2047
-9.11447
-7.63567
-0.823903
-2.47014
-4.11052
-5.73711
-7.33566
-8.88246
-10.3408
-11.6572
-12.7585
-13.5511
-13.9253
-13.769
-12.9936
-11.5728
-9.58179
-0.961588
-2.88609
-4.81332
-6.74082
-8.65912
-10.5477
-12.37
-14.0668
-15.5498
-16.6953
-17.3435
-17.3113
-16.4277
-14.6011
-11.9084
-1.09795
-3.29928
-5.51583
-7.75372
-10.0122
-12.2792
-14.5245
-16.6903
-18.6787
-20.3366
-21.442
-21.705
-20.8046
-18.4956
-14.8016
-1.22885
-3.69726
-6.19697
-8.74596
-11.3568
-14.0324
-16.7584
-19.491
-22.1381
-24.5301
-26.3827
-27.2621
-26.5898
-23.7752
-18.5975
-1.34906
-4.06391
-6.82881
-9.67626
-12.6367
-15.7352
-18.9855
-22.3773
-25.8526
-29.2629
-32.2966
-34.3706
-34.5174
-31.4177
-23.9996
-1.45251
-4.3805
-7.37804
-10.4936
-13.7783
-17.2861
-21.071
-25.1798
-29.6317
-34.3722
-39.1701
-43.4062
-45.6912
-43.3787
-32.7798
-1.533
-4.62753
-7.80923
-11.1416
-14.6968
-18.5597
-22.8326
-27.6391
-33.1222
-39.4239
-46.6051
-54.3927
-61.4623
-63.6259
-50.4603
-1.58495
-4.78735
-8.08969
-11.5668
-15.3076
-19.4232
-24.0605
-29.4215
-35.7937
-43.5961
-53.4335
-66.0968
-82.1392
-99.2022
-98.1067
-1.60437
-4.84723
-8.19527
-11.7284
-15.5433
-19.7649
-24.5647
-30.1925
-37.0349
-45.7328
-57.436
-74.4213
-101.795
-152.936
-269.992
970.737
978.593
986.997
995.797
1004.85
1014.01
1023.14
1032.14
1040.9
1049.33
1057.36
1064.93
1071.98
1078.48
1084.39
1089.7
1094.37
1098.41
1101.79
1104.51
1106.57
1107.97
1108.71
1108.8
1108.23
1107.02
1105.16
1102.68
1099.58
1095.87
1091.55
1086.65
1081.16
1075.1
1068.47
1061.29
1053.56
1045.3
1036.51
1027.19
1017.37
1007.04
996.226
984.925
973.152
960.916
948.229
935.099
921.535
907.547
893.141
878.326
863.108
847.496
831.496
815.117
798.369
781.262
763.808
746.02
727.912
709.499
690.795
671.817
652.582
633.107
613.411
593.514
573.438
553.209
532.856
512.41
491.908
471.391
450.904
430.493
410.21
390.108
370.24
350.661
331.424
312.58
294.178
276.264
258.878
242.056
225.828
210.214
195.23
180.883
-1.50465
-1.19025
-0.868503
-0.551666
-0.250035
0.0286387
0.279336
0.499589
0.689059
0.849008
0.981752
1.09019
1.1774
1.24643
1.30004
1.3407
1.37049
1.39119
1.40424
1.41086
1.41203
1.40858
1.40118
1.39043
1.37686
1.36094
1.34313
1.32387
1.30361
1.28277
1.26176
1.2409
1.22046
1.2006
1.18134
1.16257
1.14411
1.12568
1.10697
1.08773
1.06778
1.04708
1.02575
1.00405
0.98233
0.961024
0.940529
0.921149
0.903027
0.886098
0.870079
0.854491
0.838711
0.822057
0.803881
0.783655
0.761042
0.735926
0.708405
0.678738
0.647259
0.614267
0.579918
0.544125
0.506495
0.466316
0.42259
0.374123
0.319655
0.258013
0.188268
0.109867
0.0227269
-0.0727216
-0.175552
-0.284404
-0.397582
-0.513168
-0.629129
-0.743405
-0.853955
-0.958775
-1.05589
-1.14334
-1.21919
-1.28158
-1.32881
-1.35953
-1.37288
-1.36865
-2.54054
-1.99555
-1.43979
-0.895291
-0.380195
0.0922935
0.514093
0.881753
1.19556
1.45846
1.6751
1.85089
1.99144
2.10204
2.18747
2.25187
2.2987
2.33086
2.3507
2.36014
2.36078
2.35392
2.34064
2.3219
2.29851
2.27124
2.24084
2.20804
2.17359
2.13823
2.10266
2.06749
2.03319
2.00003
1.96808
1.93713
1.9068
1.87655
1.84578
1.81399
1.7808
1.74613
1.71018
1.67341
1.63655
1.60041
1.56577
1.53324
1.50314
1.47538
1.44945
1.42446
1.39924
1.37252
1.34306
1.30989
1.27239
1.23038
1.1841
1.13413
1.08119
1.02597
0.968861
0.909835
0.848258
0.782883
0.711907
0.633135
0.544221
0.442963
0.327599
0.197059
0.0511411
-0.109417
-0.28297
-0.467095
-0.658784
-0.85467
-1.05123
-1.24495
-1.43241
-1.61026
-1.77526
-1.9241
-2.05349
-2.16016
-2.24104
-2.2936
-2.31619
-2.30832
-3.62652
-2.81644
-1.99497
-1.1967
-0.449127
0.228808
0.826671
1.34132
1.77519
2.13439
2.42708
2.66219
2.84841
2.9937
3.105
3.18813
3.24786
3.28808
3.31191
3.32191
3.32013
3.30828
3.28778
3.25984
3.22553
3.18585
3.14179
3.09438
3.04468
2.99378
2.94277
2.89261
2.84405
2.79754
2.75317
2.71061
2.66918
2.62795
2.58589
2.54205
2.49577
2.44685
2.39557
2.34274
2.28955
2.23744
2.18777
2.14167
2.09972
2.06185
2.02729
1.99457
1.96178
1.92675
1.88744
1.84221
1.79008
1.73082
1.66497
1.59365
1.51828
1.44023
1.36044
1.27909
1.19537
1.1074
1.01234
0.906642
0.786457
0.648126
0.488688
0.306306
0.100552
-0.127479
-0.37524
-0.638962
-0.914008
-1.19526
-1.47748
-1.75558
-2.02472
-2.28032
-2.5179
-2.73291
-2.92055
-3.07589
-3.19406
-3.27086
-3.30337
-3.29061
-4.78409
-3.6536
-2.51662
-1.42495
-0.417639
0.480783
1.25923
1.91739
2.4625
2.90622
3.26216
3.54402
3.76446
3.93448
4.06327
4.15824
4.22529
4.26905
4.29324
4.3008
4.29416
4.27528
4.24581
4.20713
4.16046
4.10695
4.04777
3.9842
3.91767
3.8497
3.78186
3.71562
3.65214
3.59217
3.53584
3.48264
3.43146
3.38075
3.32874
3.2738
3.21475
3.15114
3.08338
3.01275
2.94121
2.87111
2.80483
2.74428
2.69058
2.64375
2.60263
2.56498
2.52769
2.4873
2.44049
2.38463
2.31817
2.24091
2.15387
2.05915
1.95937
1.85714
1.75441
1.65189
1.54871
1.44224
1.3282
1.20113
1.05493
0.88379
0.682923
0.449312
0.182142
-0.117034
-0.44443
-0.794434
-1.16021
-1.53437
-1.90959
-2.27901
-2.63645
-2.97625
-3.293
-3.58103
-3.83407
-4.04506
-4.20661
-4.31183
-4.35569
-4.33619
-6.03652
-4.50011
-2.97301
-1.53172
-0.229312
0.905572
1.86505
2.65633
3.29586
3.80453
4.20398
4.51437
4.75316
4.9347
5.0703
5.16863
5.23629
5.27829
5.29856
5.30023
5.28588
5.25762
5.2172
5.16602
5.10533
5.03629
4.96015
4.87839
4.79282
4.70552
4.61875
4.53472
4.4553
4.38166
4.31409
4.25185
4.19318
4.13553
4.07592
4.01157
3.94039
3.8615
3.77544
3.68417
3.59087
3.49941
3.41374
3.33715
3.27164
3.21751
3.1731
3.13494
3.09817
3.0572
3.00668
2.94239
2.86194
2.76515
2.65394
2.53201
2.40407
2.27487
2.14815
2.02573
1.90688
1.78804
1.66294
1.52322
1.35942
1.16233
0.924387
0.640719
0.309897
-0.0658752
-0.480988
-0.92712
-1.39426
-1.87188
-2.34996
-2.81965
-3.27351
-3.70532
-4.10937
-4.47949
-4.80806
-5.08539
-5.3002
-5.44112
-5.49917
-5.47036
-7.40784
-5.33308
-3.30569
-1.43835
0.200419
1.58315
2.71334
3.61403
4.31797
4.86041
5.27434
5.58813
5.82463
6.00139
6.13129
6.22352
6.28457
6.31918
6.33101
6.32308
6.29798
6.25785
6.20442
6.139
6.06262
5.97623
5.881
5.77848
5.67086
5.56096
5.45208
5.34761
5.25052
5.1628
5.08507
5.01632
4.95384
4.8935
4.83034
4.75955
4.67753
4.58258
4.47537
4.35892
4.23827
4.11975
4.00995
3.91442
3.83671
3.77763
3.7349
3.70327
3.67505
3.64121
3.59303
3.52373
3.42958
3.31046
3.16976
3.01385
2.8509
2.68932
2.53598
2.39472
2.26533
2.14312
2.01899
1.88023
1.71208
1.49997
1.23192
0.900258
0.502601
0.0421518
-0.472667
-1.02935
-1.61302
-2.20854
-2.80222
-3.38288
-3.94217
-4.47422
-4.97443
-5.43766
-5.85569
-6.21561
-6.50006
-6.68962
-6.76763
-6.72598
-8.92079
-6.09776
-3.40782
-1.01576
0.998943
2.62452
3.8923
4.85526
5.57291
6.10161
6.48921
6.77348
6.98246
7.13589
7.24686
7.32364
7.37128
7.39322
7.39226
7.37104
7.33209
7.27762
7.2093
7.12815
7.0347
6.92934
6.81274
6.68632
6.55259
6.41535
6.27948
6.15032
6.03267
5.92998
5.84354
5.77218
5.71186
5.65598
5.59617
5.52416
5.43371
5.32175
5.18905
5.04013
4.88302
4.72798
4.58601
4.46644
4.37538
4.3146
4.28113
4.2671
4.2604
4.24624
4.21018
4.14124
4.03356
3.8872
3.70785
3.50619
3.2961
3.09224
2.90674
2.74694
2.61376
2.50127
2.3964
2.27988
2.12831
1.91842
1.63134
1.25509
0.785983
0.228723
-0.403817
-1.09247
-1.81447
-2.54763
-3.27301
-3.97668
-4.64986
-5.28873
-5.89258
-6.46072
-6.98681
-7.45435
-7.83642
-8.09862
-8.20826
-8.14858
-10.5878
-6.67077
-3.08099
-0.0498355
2.35766
4.18092
5.51007
6.44962
7.09988
7.54594
7.85283
8.06724
8.22025
8.3315
8.41167
8.46571
8.49498
8.50023
8.48266
8.44453
8.38856
8.31734
8.23266
8.13502
8.02395
7.89866
7.75866
7.60473
7.4394
7.26782
7.09724
6.93647
6.79334
6.67378
6.58037
6.51218
6.46353
6.42416
6.37964
6.31538
6.2209
6.09084
5.92612
5.73323
5.52482
5.31746
5.1299
4.97745
4.87053
4.81232
4.79945
4.82043
4.85657
4.88289
4.87473
4.81458
4.6933
4.51153
4.27811
4.01073
3.73237
3.46881
3.24058
3.06089
2.93247
2.84853
2.79066
2.73005
2.62862
2.44808
2.15921
1.74369
1.19637
0.523761
-0.254095
-1.1075
-1.99975
-2.89785
-3.77495
-4.61428
-5.40685
-6.15356
-6.86206
-7.5442
-8.20214
-8.81606
-9.34527
-9.7272
-9.89258
-9.806
-12.3791
-6.77269
-1.9499
1.81391
4.55724
6.44823
7.68817
8.45984
8.92017
9.18997
9.34895
9.44871
9.51751
9.57118
9.61339
9.64275
9.65255
9.63935
9.60194
9.54297
9.4662
9.37568
9.27391
9.16046
9.0329
8.88837
8.72386
8.53876
8.33445
8.11807
7.90011
7.69646
7.51929
7.37917
7.28012
7.22329
7.20107
7.19901
7.19078
7.14935
7.0586
6.90909
6.70305
6.44793
6.16441
5.87775
5.62251
5.42225
5.29485
5.24412
5.26838
5.35129
5.46627
5.56856
5.61353
5.57537
5.43954
5.20965
4.8967
4.53053
4.14682
3.79396
3.50403
3.30051
3.18667
3.15779
3.18844
3.23857
3.24242
3.13331
2.86909
2.42171
1.7868
0.970006
0.00409538
-1.06691
-2.17688
-3.27855
-4.3315
-5.31937
-6.23004
-7.07355
-7.86956
-8.66261
-9.4809
-10.2998
-11.0662
-11.6676
-11.9397
-11.8067
-14.1031
-5.74659
0.705729
5.14693
7.98387
9.65251
10.5399
10.9175
11.0139
10.9927
10.9294
10.8738
10.8356
10.8264
10.8327
10.8469
10.8423
10.8123
10.7512
10.666
10.5626
10.4492
10.3309
10.2051
10.0652
9.90576
9.71761
9.49935
9.24579
8.9695
8.68125
8.41723
8.19078
8.02432
7.91797
7.88346
7.90851
7.98164
8.04864
8.05327
7.97985
7.8077
7.5496
7.20251
6.80747
6.39178
6.03495
5.76114
5.60779
5.56697
5.65189
5.83503
6.09331
6.33587
6.47114
6.4759
6.32039
6.02653
5.5911
5.07475
4.51603
4.02772
3.64228
3.41026
3.31781
3.38064
3.55749
3.81309
4.01822
4.04129
3.84211
3.36921
2.63857
1.63046
0.413125
-0.97068
-2.3664
-3.72979
-4.98213
-6.13595
-7.15025
-8.06215
-8.88157
-9.74482
-10.7589
-11.8592
-13.0248
-14.0821
-14.5702
-14.3363
-14.9055
-1.97879
6.25686
10.79
13.0932
13.9824
14.126
13.7809
13.2778
12.8565
12.4994
12.2746
12.1126
12.06
12.0411
12.0791
12.0691
12.0308
11.9361
11.816
11.674
11.5306
11.3994
11.2711
11.1264
10.9654
10.7556
10.5117
10.1907
9.83909
9.42841
9.08484
8.77682
8.58386
8.45331
8.45879
8.54767
8.77404
8.99724
9.07053
9.0442
8.83104
8.52521
8.02707
7.48123
6.82198
6.32876
5.92749
5.75958
5.70964
5.89486
6.21142
6.74385
7.25849
7.51749
7.60806
7.40124
7.04806
6.40283
5.6808
4.78463
4.11413
3.56037
3.31974
3.22606
3.43997
3.81377
4.46091
5.05682
5.26987
5.2099
4.68841
3.8905
2.59277
1.06244
-0.856726
-2.60192
-4.34041
-5.77412
-7.15297
-8.21746
-9.18349
-9.83004
-10.6094
-11.9127
-13.3239
-15.1391
-17.3158
-18.2402
-17.731
-10.9231
8.54428
17.1393
19.6436
20.238
19.3854
18.4158
16.8716
15.4236
14.6276
13.8786
13.5847
13.2319
13.2449
13.1673
13.3801
13.3368
13.33
13.1574
12.9974
12.7874
12.5943
12.4635
12.3605
12.2111
12.0949
11.8427
11.6347
11.1798
10.7935
10.0788
9.70113
9.19705
9.0534
8.79262
8.91392
8.98873
9.57086
10.1616
10.2311
10.3775
9.9877
9.77766
8.92023
8.31821
7.01301
6.4901
5.75773
5.74142
5.51362
5.94865
6.27689
7.41994
8.54915
8.80633
9.16839
8.69279
8.4901
7.32507
6.53755
4.72824
4.03238
3.02753
3.01759
2.69135
3.26906
3.6764
5.18248
6.64673
6.89155
7.24223
6.40561
5.86216
3.89001
2.27169
-0.993275
-2.84704
-5.38987
-6.645
-8.62256
-9.42633
-10.7648
-10.5872
-10.7193
-12.9107
-14.2069
-16.7329
-22.3524
-23.9745
-22.6167
16.7841
34.7237
36.7927
31.2472
29.466
24.9563
23.5322
19.8233
16.6297
16.3304
14.6021
14.9788
13.8239
14.5597
13.8747
15.0496
14.551
14.8676
14.36
14.2501
13.8758
13.5675
13.487
13.5162
13.2472
13.4198
12.8654
13.1128
12.0693
12.2204
10.2431
10.4988
9.09763
9.69094
8.58109
9.43534
8.69859
10.3547
12.0759
11.2805
12.4821
10.8849
11.9617
9.44498
10.1672
6.07693
6.95251
4.55626
6.02727
4.36255
6.15568
5.16852
8.1154
11.095
9.94361
11.9344
9.59083
11.3174
7.7032
8.86521
3.06799
4.39515
1.06159
3.17051
0.85454
3.34311
1.95644
5.96391
9.99222
8.36043
10.9839
7.70028
9.89081
4.6774
5.85183
-3.16224
-2.10012
-8.29384
-6.47577
-11.7826
-9.86542
-14.5292
-10.8982
-7.86409
-15.1978
-13.3188
-13.872
-33.145
-33.9999
-30.1568
169.06
83.756
67.4106
37.4299
42.6227
26.0837
31.9388
22.0331
13.6684
20.091
12.2944
18.5788
11.6934
17.9206
11.9039
19.129
14.5914
17.5921
14.9901
15.8838
14.8694
14.2128
14.3526
15.1017
13.6476
15.7919
12.7337
16.4501
11.2388
16.7124
7.19202
13.6828
6.12647
12.7813
5.54161
12.2481
4.96314
11.045
17.6143
9.45429
18.6175
7.93191
19.3207
5.30603
18.9463
-2.00954
12.1267
-2.21366
10.8289
-1.76745
10.3667
-1.60454
8.76406
19.5898
6.55639
20.9422
4.62815
21.8357
1.20388
21.2144
-8.85103
11.4697
-8.74118
9.6956
-7.90049
8.9978
-7.53078
6.71556
21.4885
3.70189
23.232
1.11239
24.5813
-3.73347
24.1036
-19.8406
9.09546
-22.7345
3.95353
-25.3447
-0.827689
-30.2378
-10.3496
9.92114
-30.7512
-8.92791
15.9456
-70.4591
-50.7901
-42.7805
165.798
150.239
135.545
121.67
108.56
96.1508
84.3744
73.1605
62.438
52.1365
42.1867
32.5213
23.0748
13.7832
4.58417
-1.34519
-1.29691
-1.22922
-1.14613
-1.05185
-0.950322
-0.844959
-0.738436
-0.632677
-0.528898
-0.427708
-0.329226
-0.233198
-0.1391
-0.0462268
-2.26713
-2.18304
-2.0658
-1.92266
-1.76112
-1.58814
-1.40956
-1.22989
-1.05227
-0.878627
-0.709843
-0.545989
-0.386524
-0.230474
-0.0765795
-3.22819
-3.10231
-2.92826
-2.71756
-2.48183
-2.23155
-1.97525
-1.71928
-1.46789
-1.22349
-0.987042
-0.758357
-0.536431
-0.31969
-0.106196
-4.24702
-4.06971
-3.82735
-3.53745
-3.21707
-2.88096
-2.54059
-2.20407
-1.87648
-1.5604
-1.25647
-0.963959
-0.681147
-0.405657
-0.134707
-5.34584
-5.10209
-4.77396
-4.38778
-3.96802
-3.53459
-3.10205
-2.67992
-2.27356
-1.88512
-1.51446
-1.15985
-0.818534
-0.48708
-0.161681
-6.55249
-6.21879
-5.77854
-5.27165
-4.73259
-4.1873
-3.65306
-3.13998
-2.65269
-2.19205
-1.75638
-1.34245
-0.946046
-0.562445
-0.186614
-7.90348
-7.44193
-6.84967
-6.18761
-5.50335
-4.82889
-4.18288
-3.5742
-3.00515
-2.47398
-1.97656
-1.50749
-1.06075
-0.630033
-0.208941
-9.44851
-8.7957
-7.99048
-7.1257
-6.26425
-5.44196
-4.67534
-3.96876
-3.31971
-2.72213
-2.16835
-1.65019
-1.15942
-0.687989
-0.228058
-11.2563
-10.3018
-9.19075
-8.06038
-6.9859
-5.99929
-5.10769
-4.30575
-3.58277
-2.92644
-2.32452
-1.76549
-1.23874
-0.734437
-0.243357
-13.4181
-11.9644
-10.4103
-8.93911
-7.61958
-6.46155
-5.45034
-4.56372
-3.77913
-3.07631
-2.43775
-1.84849
-1.2956
-0.767654
-0.254287
-16.0316
-13.7274
-11.5467
-9.66612
-8.09169
-6.77693
-5.66835
-4.71959
-3.8937
-3.16189
-2.50167
-1.89511
-1.32749
-0.786289
-0.260422
-19.0952
-15.3665
-12.3831
-10.0868
-8.30405
-6.88604
-5.72648
-4.75256
-3.91413
-3.17584
-2.5119
-1.90276
-1.33293
-0.789587
-0.261529
-22.0458
-16.2603
-12.532
-9.9939
-8.15158
-6.73661
-5.59892
-4.64997
-3.83438
-3.11541
-2.46731
-1.87108
-1.31189
-0.777586
-0.257632
-21.9334
-15.0968
-11.4906
-9.20511
-7.57167
-6.30984
-5.28255
-4.41398
-3.65796
-2.98406
-2.37084
-1.80233
-1.26595
-0.751228
-0.249042
-1.59349
-4.81376
-8.13656
-11.6399
-15.418
-19.593
-24.3327
-29.8821
-36.6226
-45.1915
-56.7478
-73.6288
-101.155
-153.108
-269.552
-1.55812
-4.70476
-7.94488
-11.3487
-14.9999
-19.0037
-23.5003
-28.6849
-34.8407
-42.3927
-51.983
-64.516
-80.7649
-98.1697
-91.7733
-1.50162
-4.53082
-7.63946
-10.8858
-14.3367
-18.072
-22.19
-26.813
-32.0892
-38.1783
-45.1746
-52.8221
-59.5712
-59.76
-37.0151
-1.42709
-4.3017
-7.23838
-10.2808
-13.476
-16.8745
-20.529
-24.4873
-28.7731
-33.3338
-37.9137
-41.752
-42.9326
-37.2763
-17.8716
-1.33835
-4.02947
-6.76381
-9.56974
-12.4741
-15.4992
-18.6569
-21.9342
-25.2658
-28.4758
-31.1678
-32.5276
-31.0417
-24.3398
-10.0744
-1.23958
-3.7272
-6.2395
-8.79027
-11.3881
-14.0318
-16.7015
-19.3434
-21.8427
-23.9774
-25.3468
-25.2793
-22.773
-16.6555
-6.36285
-1.13493
-3.40778
-5.68846
-7.97806
-10.2704
-12.5463
-14.7654
-16.8516
-18.6728
-20.0104
-20.5235
-19.7242
-17.0122
-11.8705
-4.34088
-1.0282
-3.08291
-5.13119
-7.16394
-9.16389
-11.1003
-12.9214
-14.5439
-15.8388
-16.6158
-16.6115
-15.4974
-12.9384
-8.74388
-3.11896
-0.922632
-2.76248
-4.58468
-6.37257
-8.10151
-9.7343
-11.2154
-12.4635
-13.3643
-13.7637
-13.4701
-12.2737
-10.0005
-6.61051
-2.32271
-0.820823
-2.4543
-4.06196
-5.6221
-7.10585
-8.47361
-9.67097
-10.6244
-11.2379
-11.3929
-10.9556
-9.79791
-7.83809
-5.10057
-1.7748
-0.724681
-2.16404
-3.57224
-4.92465
-6.1907
-7.33123
-8.29594
-9.02125
-9.42983
-9.43334
-8.94134
-7.87906
-6.21572
-3.99912
-1.38231
-0.635485
-1.8954
-3.12123
-4.28715
-5.36268
-6.31091
-7.08711
-7.63804
-7.90303
-7.81787
-7.32307
-6.37759
-4.97751
-3.1756
-1.09245
-0.553961
-1.65043
-2.71182
-3.7124
-4.62303
-5.41004
-6.03468
-6.45335
-6.61934
-6.48683
-6.01775
-5.19178
-4.01834
-2.54735
-0.873262
-0.48039
-1.42981
-2.34462
-3.20011
-3.9692
-4.6219
-5.12526
-5.4441
-5.54292
-5.3895
-4.96024
-4.24724
-3.26579
-2.06014
-0.704368
-0.414706
-1.2332
-2.01862
-2.74781
-3.39617
-3.93744
-4.34396
-4.5876
-4.64164
-4.48368
-4.09975
-3.48911
-2.66891
-1.67716
-0.572253
-0.3566
-1.05957
-1.73165
-2.35162
-2.89749
-3.34654
-3.67574
-3.86276
-3.88756
-3.73477
-3.39668
-2.87649
-2.19114
-1.37275
-0.467638
-0.305595
-0.907382
-1.48086
-2.00688
-2.46604
-2.83884
-3.10624
-3.25055
-3.25678
-3.11452
-2.82005
-2.37855
-1.80576
-1.12857
-0.383964
-0.261121
-0.774848
-1.26302
-1.70857
-2.09454
-2.40433
-2.62222
-2.73421
-2.72911
-2.59995
-2.34552
-1.97178
-1.49286
-0.931188
-0.316488
-0.222557
-0.660059
-1.07477
-1.45163
-1.77594
-2.03362
-2.21173
-2.29917
-2.28757
-2.17237
-1.95383
-1.63804
-1.23742
-0.770631
-0.261702
-0.189277
-0.561097
-0.912785
-1.23118
-1.50361
-1.71816
-1.86419
-1.93289
-1.91798
-1.81653
-1.62967
-1.36321
-1.02792
-0.639333
-0.216968
-0.160674
-0.476112
-0.773917
-1.04266
-1.27145
-1.45027
-1.57034
-1.62465
-1.60849
-1.52
-1.36078
-1.13617
-0.855436
-0.531486
-0.180269
-0.136173
-0.403371
-0.655228
-0.881873
-1.074
-1.22317
-1.32216
-1.36536
-1.3492
-1.27259
-1.13729
-0.94811
-0.712951
-0.442572
-0.150044
-0.115246
-0.341281
-0.554045
-0.745051
-0.906374
-1.03092
-1.11272
-1.14727
-1.13188
-1.06594
-0.951214
-0.791969
-0.594923
-0.369038
-0.125067
-0.0974157
-0.288405
-0.46797
-0.628841
-0.764284
-0.868338
-0.936077
-0.963871
-0.949654
-0.893151
-0.796051
-0.662074
-0.49692
-0.30806
-0.104369
-0.0822526
-0.243461
-0.394874
-0.530286
-0.643988
-0.730976
-0.787171
-0.809639
-0.796791
-0.748556
-0.666492
-0.553826
-0.415378
-0.257381
-0.087177
-0.069379
-0.205318
-0.332887
-0.446806
-0.542241
-0.614993
-0.661684
-0.67993
-0.6685
-0.627448
-0.558183
-0.46348
-0.34741
-0.215176
-0.0728665
-0.0584628
-0.172985
-0.280379
-0.376159
-0.456242
-0.517107
-0.555948
-0.570824
-0.560777
-0.52593
-0.467535
-0.38797
-0.290666
-0.179968
-0.0609329
-0.0492152
-0.145603
-0.235935
-0.316412
-0.383588
-0.434511
-0.466853
-0.479023
-0.470273
-0.440762
-0.391587
-0.324778
-0.243221
-0.150549
-0.0509646
-0.0413856
-0.122425
-0.198334
-0.265899
-0.322218
-0.364818
-0.391763
-0.401749
-0.394186
-0.369246
-0.327885
-0.271825
-0.203495
-0.125928
-0.0426248
-0.0347583
-0.102811
-0.166526
-0.223194
-0.270374
-0.305995
-0.328447
-0.33666
-0.330164
-0.309132
-0.274388
-0.227392
-0.170182
-0.105292
-0.0356359
-0.0291475
-0.0862077
-0.139611
-0.187077
-0.226556
-0.256316
-0.275019
-0.281783
-0.276235
-0.258538
-0.229399
-0.19005
-0.1422
-0.0879651
-0.0297691
-0.024394
-0.0721436
-0.116819
-0.156506
-0.189486
-0.214315
-0.22988
-0.235455
-0.230741
-0.215889
-0.1915
-0.158611
-0.118653
-0.0733882
-0.0248342
-0.0203614
-0.060214
-0.0974911
-0.13059
-0.158077
-0.178747
-0.191677
-0.19627
-0.192287
-0.179861
-0.159503
-0.132081
-0.0987895
-0.0610954
-0.0206731
-0.0169329
-0.0500728
-0.081064
-0.108571
-0.131401
-0.148552
-0.159263
-0.163041
-0.159694
-0.149341
-0.13241
-0.109627
-0.0819832
-0.0506967
-0.0171536
-0.0140086
-0.0414235
-0.0670562
-0.0897998
-0.108667
-0.12283
-0.131662
-0.134759
-0.131967
-0.123388
-0.109381
-0.0905466
-0.0677065
-0.0418649
-0.0141647
-0.0115025
-0.0340117
-0.0550544
-0.0737204
-0.0891984
-0.10081
-0.108042
-0.110566
-0.108258
-0.101205
-0.0897029
-0.074248
-0.0555139
-0.0343235
-0.0116128
-0.00934047
-0.0276182
-0.0447029
-0.0598546
-0.0724143
-0.0818321
-0.0876914
-0.0897282
-0.0878435
-0.0821099
-0.0727699
-0.0602264
-0.0450266
-0.0278379
-0.0094182
-0.00745847
-0.0220529
-0.0356934
-0.0477886
-0.0578118
-0.0653246
-0.0699949
-0.0716131
-0.0701015
-0.0655193
-0.0580611
-0.0480492
-0.0359204
-0.022207
-0.00751296
-0.00580038
-0.0171501
-0.027757
-0.037161
-0.0449526
-0.0507906
-0.0544176
-0.0556711
-0.0544916
-0.0509257
-0.0451255
-0.0373419
-0.0279145
-0.0172569
-0.00583818
-0.00431662
-0.0127629
-0.020656
-0.0276532
-0.0334497
-0.0377919
-0.0404883
-0.0414185
-0.0405385
-0.0378836
-0.033567
-0.0277759
-0.0207628
-0.0128354
-0.00434228
-0.00296272
-0.00875973
-0.0141769
-0.0189789
-0.0229566
-0.0259359
-0.0277854
-0.0284227
-0.0278179
-0.0259951
-0.0230325
-0.0190583
-0.014246
-0.00880662
-0.0029793
-0.00169798
-0.00502033
-0.008125
-0.0108771
-0.0131568
-0.0148642
-0.0159243
-0.0162895
-0.0159429
-0.0148982
-0.0132003
-0.0109226
-0.00816461
-0.00504721
-0.00170749
-0.00048434
-0.00143208
-0.00231788
-0.00310334
-0.00375427
-0.00424218
-0.0045455
-0.00465063
-0.0045525
-0.00425496
-0.00377063
-0.00312045
-0.00233278
-0.00144219
-0.000487915
0.000714756
0.00211315
0.00341955
0.00457701
0.00553503
0.00625171
0.00669561
0.00684712
0.00669938
0.00625861
0.00554385
0.00458624
0.00342758
0.00211861
0.000716686
0.00193545
0.00572227
0.00926038
0.0123958
0.0149919
0.016935
0.0181397
0.0185526
0.0181547
0.0169624
0.0150269
0.0124325
0.00929231
0.00574394
0.00194312
0.00321454
0.00950405
0.0153808
0.0205892
0.0249021
0.0281309
0.0301336
0.0308211
0.0301616
0.0281821
0.0249676
0.0206577
0.0154404
0.00954454
0.00322886
0.00459053
0.0135724
0.0219653
0.0294042
0.035565
0.0401782
0.0430406
0.0440248
0.043085
0.0402593
0.0356688
0.0295128
0.0220598
0.0136366
0.00461323
0.00610481
0.0180498
0.0292121
0.0391067
0.0473025
0.053441
0.0572517
0.0585645
0.0573178
0.0535618
0.0474571
0.0392683
0.0293528
0.0181453
0.00613861
0.00780284
0.0230706
0.037339
0.0499886
0.0604685
0.0683201
0.0731971
0.0748813
0.0732929
0.0684951
0.0606924
0.0502227
0.0375429
0.023209
0.00785179
0.00973547
0.0287854
0.0465899
0.062377
0.0754594
0.0852645
0.0913594
0.0934703
0.0914963
0.0855147
0.0757795
0.0627117
0.0468814
0.0289832
0.00980545
0.0119604
0.0353648
0.0572417
0.0766433
0.0927258
0.104785
0.112288
0.114896
0.112482
0.10514
0.0931806
0.0771188
0.0576558
0.0356459
0.0120598
0.0145439
0.043005
0.069612
0.0932142
0.112786
0.127469
0.136615
0.139807
0.13689
0.127973
0.11343
0.0938876
0.0701984
0.043403
0.0146847
0.0175624
0.0519324
0.0840686
0.112584
0.136239
0.153999
0.165075
0.168961
0.165464
0.154711
0.13715
0.113536
0.0848977
0.0524951
0.0177615
0.0211051
0.0624108
0.10104
0.135327
0.163786
0.18517
0.198526
0.203242
0.199076
0.186175
0.165073
0.136672
0.102211
0.0632059
0.0213863
0.0252758
0.074748
0.121025
0.162117
0.196246
0.221915
0.237977
0.24369
0.238754
0.223334
0.198063
0.164017
0.122679
0.0758708
0.025673
0.030196
0.0893038
0.144609
0.193742
0.23458
0.26533
0.284613
0.291531
0.28571
0.267334
0.237145
0.196425
0.146945
0.0908893
0.0307568
0.0360079
0.1065
0.172479
0.231128
0.279917
0.316705
0.339836
0.348218
0.341385
0.319535
0.283539
0.234915
0.175777
0.108738
0.0367997
0.0428779
0.12683
0.205437
0.27536
0.333588
0.377564
0.405299
0.415468
0.407485
0.381559
0.3387
0.280706
0.210093
0.12999
0.0439958
0.0510003
0.15087
0.244426
0.327712
0.397153
0.449699
0.482959
0.495321
0.486046
0.455338
0.40437
0.335259
0.250999
0.155332
0.0525786
0.0606021
0.179296
0.290545
0.389676
0.472449
0.535226
0.57513
0.590196
0.579487
0.543186
0.482637
0.400331
0.299825
0.185595
0.0628303
0.0719469
0.21289
0.345077
0.462998
0.561629
0.636632
0.684547
0.702967
0.690697
0.647869
0.576012
0.478041
0.358179
0.221783
0.0750929
0.0853407
0.252563
0.409516
0.549713
0.667213
0.756847
0.814444
0.837048
0.823124
0.772709
0.687517
0.570949
0.428013
0.265119
0.0897825
0.101136
0.299367
0.485588
0.652187
0.792146
0.899307
0.968635
0.996492
0.980887
0.921696
0.820807
0.682167
0.511703
0.317095
0.107408
0.119738
0.354508
0.575286
0.773157
0.939852
1.06803
1.15162
1.18611
1.16891
1.09964
0.980309
0.815482
0.612157
0.379542
0.128594
0.141606
0.419365
0.680887
0.915773
1.1143
1.26773
1.3687
1.41162
1.3931
1.31232
1.1714
0.975526
0.73295
0.454717
0.154114
0.167262
0.495496
0.804982
1.08364
1.32005
1.50384
1.62608
1.67979
1.66051
1.56678
1.40065
1.168
0.878499
0.545425
0.184929
0.197284
0.584643
0.950482
1.28083
1.56234
1.78269
1.93104
1.99865
1.97961
1.87149
1.6761
1.39993
1.05431
0.655172
0.222244
0.232312
0.688732
1.12063
1.51193
1.8471
2.11153
2.29205
2.37768
2.36055
2.23681
2.00765
1.68008
1.26727
0.788384
0.267584
0.273034
0.809851
1.31895
1.782
2.18099
2.49863
2.71893
2.82807
2.81551
2.67531
2.40753
2.01941
1.52612
0.950697
0.322899
0.320178
0.950214
1.54925
2.09654
2.57135
2.95331
3.223
3.36297
3.3591
3.2024
2.89096
2.43176
1.84201
1.14937
0.390713
0.374488
1.1121
1.81548
2.4614
3.02618
3.48595
3.81715
3.99772
4.00879
3.83694
3.47698
2.93476
2.22934
1.39389
0.474337
0.436688
1.29775
2.1216
2.88258
3.55394
4.10784
4.51587
4.75018
4.78549
4.60208
4.18956
3.55107
2.70696
1.6968
0.578183
0.507436
1.50924
2.47138
3.36599
4.16323
4.83101
5.33521
5.64079
5.71405
5.52631
5.05905
4.31015
3.29989
2.07501
0.708242
0.587258
1.74826
2.86805
3.917
4.86241
5.66775
6.29246
6.69272
6.82384
6.64461
6.12411
5.2507
4.04183
2.55174
0.872823
0.676463
2.01589
3.31389
4.53988
5.65884
6.62991
7.40553
7.9315
8.14911
7.99988
7.43421
6.42417
4.97905
3.1596
1.08374
0.77504
2.31226
3.80974
5.23707
6.55792
7.72778
8.69191
9.3844
9.7291
9.64429
9.05285
7.89975
6.17621
3.94549
1.35827
0.882543
2.63623
4.35428
6.00816
7.56184
8.96847
10.1669
11.0788
11.6073
11.6405
11.0615
9.77144
7.72555
4.97894
1.7226
0.99796
2.98492
4.94338
6.8488
8.66784
10.3537
11.8408
13.0392
13.8295
14.0617
13.5639
12.168
9.76147
6.36635
2.21807
1.1196
3.35339
5.56926
7.74941
9.86627
11.8769
13.7153
15.2831
16.4391
16.9898
16.69
15.2662
12.4839
8.27675
2.91343
1.24498
3.73427
6.21994
8.69392
11.1385
13.5195
15.7775
17.813
19.469
20.5084
20.5967
19.3077
16.1958
10.99
3.93067
1.37083
4.11765
6.8787
9.65885
12.4546
15.2477
17.994
20.6063
22.9269
24.6875
25.4596
24.615
21.3617
14.9905
5.50484
1.49309
4.49114
7.52416
10.6129
13.7727
17.0083
20.3035
23.6021
26.7736
29.553
31.4451
31.5951
28.6926
21.1536
8.13735
1.60708
4.84032
8.13091
11.5174
15.038
18.7274
22.6106
26.6862
30.8925
35.0346
38.6402
40.6947
39.2432
31.1203
13.0326
1.70784
5.14964
8.67101
12.3289
16.1859
20.3119
24.7839
29.6794
35.0557
40.8885
46.9124
52.2289
54.4265
48.0067
23.4678
1.79043
5.40368
9.11628
13.002
17.1469
21.6562
26.6629
32.3387
38.9019
46.6094
55.6757
65.9287
75.594
77.4754
49.4561
1.85053
5.58871
9.44128
13.4951
17.8548
22.6548
28.0773
34.3816
41.9532
51.3867
63.6146
80.0362
102.166
127.708
124.675
1.88484
5.69429
9.62651
13.7756
18.2568
23.2211
28.8792
35.5442
43.7113
54.223
68.6407
90.179
126.369
197.784
370.948
1.89153
5.71457
9.66106
13.8255
18.3233
23.3054
28.9819
35.6636
43.8411
54.3466
68.7217
90.1465
126.109
197.2
370.292
1.87043
5.64911
9.54423
13.6438
18.0534
22.9074
28.3863
34.7441
42.3539
51.7827
63.9067
80.0177
101.455
125.78
121.749
1.82306
5.50276
9.28536
13.2468
17.4749
22.0755
27.1803
32.9552
39.6033
47.3467
56.3227
66.1897
74.7945
74.0507
39.5007
-13.9016
-11.3392
-9.41611
-7.92551
-6.72257
-5.71847
-4.85727
-4.10188
-3.42645
-2.81212
-2.24447
-1.71208
-1.20546
-0.716445
-0.237691
-5.2161
-7.23342
-7.14715
-6.52492
-5.79142
-5.06806
-4.38778
-3.75583
-3.16853
-2.61961
-2.1023
-1.61009
-1.13687
-0.6769
-0.224769
-2.37423
-4.58837
-5.25032
-5.20156
-4.8532
-4.38768
-3.88471
-3.37874
-2.88394
-2.40513
-1.94269
-1.49491
-1.05906
-0.631909
-0.210046
-1.29229
-3.02121
-3.84701
-4.08622
-3.99629
-3.73329
-3.38369
-2.99387
-2.58823
-2.17926
-1.77289
-1.37144
-0.975188
-0.583243
-0.194093
-0.804548
-2.0812
-2.85101
-3.19942
-3.25953
-3.139
-2.91058
-2.61996
-2.29481
-1.95156
-1.59966
-1.24436
-0.88832
-0.53263
-0.177468
-0.547659
-1.49316
-2.14762
-2.51281
-2.6482
-2.61961
-2.48065
-2.27
-2.01396
-1.72984
-1.42878
-1.11778
-0.801202
-0.481648
-0.160686
-0.39481
-1.10721
-1.6451
-1.98577
-2.15073
-2.17685
-2.10048
-1.95154
-1.75259
-1.51988
-1.26477
-0.995078
-0.716142
-0.43164
-0.144187
-0.295585
-0.842425
-1.27954
-1.58072
-1.74965
-1.80524
-1.77069
-1.66778
-1.51466
-1.32547
-1.11089
-0.878782
-0.634942
-0.383678
-0.128327
-0.227142
-0.653835
-1.00838
-1.26749
-1.42728
-1.49621
-1.48835
-1.4189
-1.30176
-1.14869
-0.969166
-0.770628
-0.558891
-0.338551
-0.113371
-0.177858
-0.51534
-0.803487
-1.02323
-1.16799
-1.24049
-1.24879
-1.20311
-1.11379
-0.990272
-0.840639
-0.671634
-0.488811
-0.296783
-0.0994974
-0.141236
-0.411101
-0.646088
-0.831034
-0.958882
-1.02935
-1.0467
-1.01761
-0.949575
-0.84998
-0.725559
-0.582231
-0.425118
-0.258664
-0.08681
-0.113369
-0.331079
-0.523436
-0.678481
-0.789607
-0.855091
-0.876864
-0.859139
-0.807268
-0.726922
-0.623602
-0.502397
-0.36791
-0.224293
-0.0753482