/*--------------------------------*- C++ -*----------------------------------*\
| =========                 |                                                 |
| \\      /  F ield         | OpenFOAM: The Open Source CFD Toolbox           |
|  \\    /   O peration     | Version:  5.x                                   |
|   \\  /    A nd           | Web:      www.OpenFOAM.org                      |
|    \\/     M anipulation  |                                                 |
\*---------------------------------------------------------------------------*/
FoamFile
{
    version     2.0;
    format      ascii;
    class       volScalarField;
    location    "3.7";
    object      gradTx;
}
// * * * * * * * * * * * * * * * * * * * * * * * * * * * * * * * * * * * * * //

dimensions      [0 -1 0 1 0 0 0];

internalField   nonuniform List<scalar> 
3200
(
1.54097e-09
-3.60843e-10
-1.73032e-10
-1.63228e-10
-1.4016e-10
-1.36101e-10
-8.39334e-11
-8.02538e-11
-5.83004e-11
-8.82995e-11
-4.01817e-11
-2.83436e-11
-2.71597e-11
-2.04839e-11
-1.98765e-11
-1.52164e-11
-1.47944e-11
-1.14108e-11
-1.11026e-11
-8.59913e-12
-8.37013e-12
-6.49595e-12
-6.32403e-12
-4.91083e-12
-4.78099e-12
-3.71082e-12
-3.6124e-12
-2.80017e-12
-2.72545e-12
-2.10845e-12
-2.0517e-12
-1.58309e-12
-1.54e-12
-1.18443e-12
-1.15176e-12
-8.82377e-13
-8.57647e-13
-6.53987e-13
-6.35312e-13
-4.81742e-13
-4.67679e-13
-3.52248e-13
-3.41695e-13
-2.5527e-13
-2.47385e-13
-1.82995e-13
-1.77153e-13
-1.29547e-13
-1.25563e-13
-9.28025e-14
-1.40245e-13
-6.33021e-14
-4.1694e-14
-3.95527e-14
-2.66665e-14
-2.55139e-14
-1.67775e-14
-1.6016e-14
-1.02346e-14
-9.73795e-15
-6.04573e-15
-5.73281e-15
-3.46199e-15
-3.2719e-15
-1.92476e-15
-1.81317e-15
-1.03924e-15
-9.75664e-16
-5.42732e-16
-5.07373e-16
-2.70043e-16
-2.50261e-16
-1.12533e-16
-1.01382e-16
-2.68569e-17
-2.18332e-17
-1.42198e-18
-2.60688e-19
-5.90066e-20
1.35008e-17
1.52877e-09
-3.309e-10
-1.86036e-10
-1.64273e-10
-1.41669e-10
-1.32178e-10
-8.81676e-11
-7.97994e-11
-6.23913e-11
-8.14972e-11
-4.29996e-11
-2.98764e-11
-2.69708e-11
-2.10373e-11
-1.962e-11
-1.55757e-11
-1.45976e-11
-1.16686e-11
-1.0955e-11
-8.78905e-12
-8.25882e-12
-6.63776e-12
-6.23975e-12
-5.0176e-12
-4.717e-12
-3.7916e-12
-3.56378e-12
-2.86146e-12
-2.68849e-12
-2.155e-12
-2.02363e-12
-1.61845e-12
-1.51872e-12
-1.21128e-12
-1.13565e-12
-9.02726e-13
-8.4548e-13
-6.69383e-13
-6.26151e-13
-4.93361e-13
-4.60805e-13
-3.60991e-13
-3.3656e-13
-2.61825e-13
-2.43572e-13
-1.87898e-13
-1.74382e-13
-1.33364e-13
-1.24306e-13
-9.89335e-14
-1.29303e-13
-6.7551e-14
-4.4325e-14
-3.91096e-14
-2.77248e-14
-2.50397e-14
-1.7464e-14
-1.56992e-14
-1.0691e-14
-9.54026e-15
-6.33993e-15
-5.61466e-15
-3.64462e-15
-3.20385e-15
-2.03402e-15
-1.77516e-15
-1.10245e-15
-9.54924e-16
-5.78285e-16
-4.96191e-16
-2.89418e-16
-2.43492e-16
-1.23851e-16
-9.7994e-17
-3.34381e-17
-2.17625e-17
-3.49588e-18
-7.43647e-19
-1.70869e-19
1.3464e-17
1.51878e-09
-3.08966e-10
-1.94115e-10
-1.65351e-10
-1.42653e-10
-1.29634e-10
-9.09755e-11
-7.97059e-11
-6.5021e-11
-7.69986e-11
-4.48021e-11
-3.10002e-11
-2.69027e-11
-2.14099e-11
-1.94684e-11
-1.58122e-11
-1.44787e-11
-1.18377e-11
-1.08654e-11
-8.91346e-12
-8.19108e-12
-6.7306e-12
-6.18839e-12
-5.08747e-12
-4.67798e-12
-3.84445e-12
-3.53411e-12
-2.90155e-12
-2.66594e-12
-2.18546e-12
-2.0065e-12
-1.64159e-12
-1.50573e-12
-1.22884e-12
-1.12582e-12
-9.1604e-13
-8.38061e-13
-6.79458e-13
-6.20567e-13
-5.00966e-13
-4.56618e-13
-3.66715e-13
-3.33434e-13
-2.66118e-13
-2.41254e-13
-1.91112e-13
-1.7271e-13
-1.359e-13
-1.237e-13
-1.02834e-13
-1.22045e-13
-7.02583e-14
-4.62351e-14
-3.89129e-14
-2.84349e-14
-2.4761e-14
-1.79179e-14
-1.55119e-14
-1.09931e-14
-9.42447e-15
-6.53506e-15
-5.54624e-15
-3.76603e-15
-3.16493e-15
-2.10681e-15
-1.7537e-15
-1.14465e-15
-9.43341e-16
-6.02051e-16
-4.89993e-16
-3.02356e-16
-2.3967e-16
-1.31416e-16
-9.61533e-17
-3.79035e-17
-2.19551e-17
-4.94901e-18
-1.13934e-18
-2.65369e-19
1.34328e-17
1.51177e-09
-2.94611e-10
-1.98749e-10
-1.66185e-10
-1.43248e-10
-1.28115e-10
-9.26867e-11
-7.97481e-11
-6.65834e-11
-7.42662e-11
-4.58683e-11
-3.17354e-11
-2.689e-11
-2.16402e-11
-1.93851e-11
-1.59556e-11
-1.44119e-11
-1.19399e-11
-1.08148e-11
-8.98858e-12
-8.15277e-12
-6.78662e-12
-6.1593e-12
-5.12961e-12
-4.65586e-12
-3.87632e-12
-3.51728e-12
-2.92572e-12
-2.65315e-12
-2.20382e-12
-1.99679e-12
-1.65554e-12
-1.49837e-12
-1.23943e-12
-1.12025e-12
-9.24071e-13
-8.33857e-13
-6.85535e-13
-6.17405e-13
-5.05555e-13
-4.54248e-13
-3.70169e-13
-3.31666e-13
-2.6871e-13
-2.39945e-13
-1.93054e-13
-1.71772e-13
-1.37451e-13
-1.2344e-13
-1.0513e-13
-1.17626e-13
-7.18541e-14
-4.74765e-14
-3.88418e-14
-2.88724e-14
-2.46087e-14
-1.8194e-14
-1.5409e-14
-1.11769e-14
-9.3614e-15
-6.65407e-15
-5.50941e-15
-3.84023e-15
-3.14425e-15
-2.15137e-15
-1.74244e-15
-1.17052e-15
-9.37343e-16
-6.16637e-16
-4.8681e-16
-3.10292e-16
-2.37667e-16
-1.36059e-16
-9.52306e-17
-4.06759e-17
-2.21896e-17
-5.87401e-18
-1.41747e-18
-3.33531e-19
1.34102e-17
1.50816e-09
-2.87517e-10
-2.00849e-10
-1.66632e-10
-1.4353e-10
-1.27405e-10
-9.34968e-11
-7.9798e-11
-6.73107e-11
-7.29761e-11
-4.63631e-11
-3.20984e-11
-2.6893e-11
-2.17503e-11
-1.93485e-11
-1.60232e-11
-1.43821e-11
-1.19881e-11
-1.07921e-11
-9.02394e-12
-8.13555e-12
-6.81298e-12
-6.1462e-12
-5.14944e-12
-4.6459e-12
-3.89131e-12
-3.5097e-12
-2.93709e-12
-2.64739e-12
-2.21246e-12
-1.99241e-12
-1.6621e-12
-1.49505e-12
-1.24441e-12
-1.11774e-12
-9.27848e-13
-8.31964e-13
-6.88394e-13
-6.15981e-13
-5.07714e-13
-4.53182e-13
-3.71795e-13
-3.30871e-13
-2.69929e-13
-2.39356e-13
-1.93968e-13
-1.71353e-13
-1.38187e-13
-1.23349e-13
-1.06192e-13
-1.15536e-13
-7.25929e-14
-4.80872e-14
-3.88234e-14
-2.90811e-14
-2.4542e-14
-1.83246e-14
-1.53637e-14
-1.12639e-14
-9.33383e-15
-6.71046e-15
-5.49347e-15
-3.87543e-15
-3.1354e-15
-2.17254e-15
-1.73767e-15
-1.18282e-15
-9.34831e-16
-6.23577e-16
-4.85486e-16
-3.14066e-16
-2.3682e-16
-1.38267e-16
-9.48551e-17
-4.20044e-17
-2.23365e-17
-6.3243e-18
-1.56053e-18
-3.69171e-19
1.33983e-17
1.50816e-09
-2.87518e-10
-2.00849e-10
-1.66632e-10
-1.4353e-10
-1.27405e-10
-9.34968e-11
-7.9798e-11
-6.73107e-11
-7.29761e-11
-4.63631e-11
-3.20984e-11
-2.6893e-11
-2.17503e-11
-1.93485e-11
-1.60232e-11
-1.43821e-11
-1.19881e-11
-1.07921e-11
-9.02394e-12
-8.13555e-12
-6.81298e-12
-6.1462e-12
-5.14944e-12
-4.6459e-12
-3.89131e-12
-3.50971e-12
-2.93709e-12
-2.64739e-12
-2.21246e-12
-1.99241e-12
-1.6621e-12
-1.49505e-12
-1.24441e-12
-1.11774e-12
-9.27848e-13
-8.31964e-13
-6.88394e-13
-6.15981e-13
-5.07714e-13
-4.53182e-13
-3.71795e-13
-3.30871e-13
-2.69929e-13
-2.39356e-13
-1.93968e-13
-1.71353e-13
-1.38187e-13
-1.23349e-13
-1.06192e-13
-1.15536e-13
-7.25929e-14
-4.80872e-14
-3.88234e-14
-2.90811e-14
-2.4542e-14
-1.83246e-14
-1.53637e-14
-1.12639e-14
-9.33383e-15
-6.71046e-15
-5.49347e-15
-3.87543e-15
-3.1354e-15
-2.17254e-15
-1.73767e-15
-1.18282e-15
-9.3483e-16
-6.23577e-16
-4.85486e-16
-3.14065e-16
-2.3682e-16
-1.38267e-16
-9.4855e-17
-4.20044e-17
-2.23364e-17
-6.32427e-18
-1.56051e-18
-3.69154e-19
1.33983e-17
1.51177e-09
-2.94613e-10
-1.98749e-10
-1.66185e-10
-1.43249e-10
-1.28115e-10
-9.26867e-11
-7.97481e-11
-6.65834e-11
-7.42662e-11
-4.58683e-11
-3.17353e-11
-2.689e-11
-2.16402e-11
-1.93851e-11
-1.59556e-11
-1.44119e-11
-1.19399e-11
-1.08148e-11
-8.98858e-12
-8.15277e-12
-6.78662e-12
-6.1593e-12
-5.12961e-12
-4.65586e-12
-3.87632e-12
-3.51728e-12
-2.92572e-12
-2.65315e-12
-2.20382e-12
-1.99679e-12
-1.65554e-12
-1.49837e-12
-1.23943e-12
-1.12025e-12
-9.24071e-13
-8.33857e-13
-6.85535e-13
-6.17405e-13
-5.05555e-13
-4.54248e-13
-3.70169e-13
-3.31666e-13
-2.6871e-13
-2.39945e-13
-1.93054e-13
-1.71772e-13
-1.37451e-13
-1.2344e-13
-1.0513e-13
-1.17626e-13
-7.1854e-14
-4.74764e-14
-3.88418e-14
-2.88724e-14
-2.46087e-14
-1.8194e-14
-1.5409e-14
-1.11769e-14
-9.36139e-15
-6.65407e-15
-5.50941e-15
-3.84023e-15
-3.14425e-15
-2.15137e-15
-1.74244e-15
-1.17052e-15
-9.37342e-16
-6.16637e-16
-4.86809e-16
-3.10291e-16
-2.37667e-16
-1.36058e-16
-9.52304e-17
-4.06757e-17
-2.21894e-17
-5.87393e-18
-1.41742e-18
-3.33485e-19
1.34102e-17
1.51879e-09
-3.08969e-10
-1.94116e-10
-1.65351e-10
-1.42653e-10
-1.29634e-10
-9.09756e-11
-7.9706e-11
-6.5021e-11
-7.69986e-11
-4.48021e-11
-3.10002e-11
-2.69027e-11
-2.14099e-11
-1.94684e-11
-1.58122e-11
-1.44787e-11
-1.18377e-11
-1.08654e-11
-8.91347e-12
-8.19109e-12
-6.7306e-12
-6.18839e-12
-5.08747e-12
-4.67798e-12
-3.84445e-12
-3.53411e-12
-2.90155e-12
-2.66594e-12
-2.18546e-12
-2.0065e-12
-1.64159e-12
-1.50573e-12
-1.22884e-12
-1.12582e-12
-9.16041e-13
-8.38062e-13
-6.79458e-13
-6.20567e-13
-5.00966e-13
-4.56618e-13
-3.66715e-13
-3.33434e-13
-2.66118e-13
-2.41254e-13
-1.91112e-13
-1.7271e-13
-1.359e-13
-1.237e-13
-1.02834e-13
-1.22045e-13
-7.02582e-14
-4.62351e-14
-3.89128e-14
-2.84349e-14
-2.4761e-14
-1.79179e-14
-1.55119e-14
-1.09931e-14
-9.42447e-15
-6.53506e-15
-5.54624e-15
-3.76603e-15
-3.16493e-15
-2.10681e-15
-1.75369e-15
-1.14465e-15
-9.43339e-16
-6.0205e-16
-4.89992e-16
-3.02356e-16
-2.3967e-16
-1.31415e-16
-9.6153e-17
-3.79033e-17
-2.1955e-17
-4.94891e-18
-1.13928e-18
-2.65308e-19
1.34328e-17
1.52878e-09
-3.30902e-10
-1.86037e-10
-1.64273e-10
-1.41669e-10
-1.32178e-10
-8.81677e-11
-7.97994e-11
-6.23913e-11
-8.14972e-11
-4.29996e-11
-2.98764e-11
-2.69707e-11
-2.10373e-11
-1.962e-11
-1.55757e-11
-1.45976e-11
-1.16686e-11
-1.0955e-11
-8.78905e-12
-8.25882e-12
-6.63777e-12
-6.23975e-12
-5.01761e-12
-4.71701e-12
-3.7916e-12
-3.56378e-12
-2.86146e-12
-2.68849e-12
-2.15501e-12
-2.02363e-12
-1.61845e-12
-1.51872e-12
-1.21128e-12
-1.13565e-12
-9.02726e-13
-8.45481e-13
-6.69383e-13
-6.26151e-13
-4.93361e-13
-4.60805e-13
-3.60991e-13
-3.3656e-13
-2.61825e-13
-2.43572e-13
-1.87898e-13
-1.74382e-13
-1.33364e-13
-1.24306e-13
-9.89335e-14
-1.29303e-13
-6.7551e-14
-4.4325e-14
-3.91095e-14
-2.77248e-14
-2.50397e-14
-1.7464e-14
-1.56991e-14
-1.0691e-14
-9.54025e-15
-6.33992e-15
-5.61465e-15
-3.64461e-15
-3.20385e-15
-2.03401e-15
-1.77516e-15
-1.10245e-15
-9.54923e-16
-5.78285e-16
-4.96191e-16
-2.89417e-16
-2.43492e-16
-1.23851e-16
-9.79937e-17
-3.34379e-17
-2.17624e-17
-3.49579e-18
-7.43592e-19
-1.70815e-19
1.3464e-17
1.54097e-09
-3.60844e-10
-1.73033e-10
-1.63228e-10
-1.4016e-10
-1.36101e-10
-8.39334e-11
-8.02538e-11
-5.83004e-11
-8.82995e-11
-4.01817e-11
-2.83435e-11
-2.71597e-11
-2.04839e-11
-1.98765e-11
-1.52165e-11
-1.47944e-11
-1.14108e-11
-1.11026e-11
-8.59914e-12
-8.37013e-12
-6.49595e-12
-6.32403e-12
-4.91084e-12
-4.78099e-12
-3.71082e-12
-3.6124e-12
-2.80017e-12
-2.72545e-12
-2.10845e-12
-2.0517e-12
-1.58309e-12
-1.54e-12
-1.18443e-12
-1.15176e-12
-8.82377e-13
-8.57647e-13
-6.53988e-13
-6.35312e-13
-4.81742e-13
-4.67679e-13
-3.52248e-13
-3.41695e-13
-2.5527e-13
-2.47385e-13
-1.82995e-13
-1.77153e-13
-1.29547e-13
-1.25563e-13
-9.28026e-14
-1.40245e-13
-6.33021e-14
-4.1694e-14
-3.95527e-14
-2.66665e-14
-2.55139e-14
-1.67775e-14
-1.6016e-14
-1.02346e-14
-9.73795e-15
-6.04573e-15
-5.73281e-15
-3.46199e-15
-3.2719e-15
-1.92476e-15
-1.81317e-15
-1.03924e-15
-9.75664e-16
-5.42732e-16
-5.07373e-16
-2.70042e-16
-2.5026e-16
-1.12533e-16
-1.01382e-16
-2.68568e-17
-2.18331e-17
-1.42194e-18
-2.60666e-19
-5.89841e-20
1.35008e-17
6.95177e-06
-6.19877e-06
-4.90392e-07
-2.08859e-07
-3.2845e-08
-1.58882e-08
-2.64307e-09
-1.31181e-09
-2.90917e-10
-2.35354e-10
-7.37557e-11
-4.68683e-11
-4.34667e-11
-3.58782e-11
-3.50886e-11
-2.95566e-11
-2.9014e-11
-2.42797e-11
-2.38217e-11
-1.97853e-11
-1.93982e-11
-1.60168e-11
-1.56947e-11
-1.29029e-11
-1.26381e-11
-1.03575e-11
-1.01418e-11
-8.29265e-12
-8.11821e-12
-6.62679e-12
-6.48631e-12
-5.28792e-12
-5.17517e-12
-4.21478e-12
-4.12449e-12
-3.3563e-12
-3.28412e-12
-2.67055e-12
-2.61293e-12
-2.12343e-12
-2.07749e-12
-1.68742e-12
-1.65083e-12
-1.34039e-12
-1.3113e-12
-1.06463e-12
-1.04168e-12
-8.46659e-13
-8.31364e-13
-6.96476e-13
-1.12818e-12
-5.55005e-13
-4.3339e-13
-4.20549e-13
-3.44356e-13
-3.37147e-13
-2.78333e-13
-2.72869e-13
-2.27273e-13
-2.23054e-13
-1.87919e-13
-1.84677e-13
-1.57789e-13
-1.55304e-13
-1.34721e-13
-1.32701e-13
-1.14804e-13
-1.12842e-13
-9.32384e-14
-9.11315e-14
-7.0198e-14
-6.81932e-14
-5.0916e-14
-4.86056e-14
-2.13904e-14
-1.90783e-14
-1.16316e-15
-2.0735e-16
-4.67288e-17
-3.37499e-15
6.80207e-06
-5.46969e-06
-9.32022e-07
-3.00277e-07
-6.80152e-08
-2.3359e-08
-5.44077e-09
-1.91123e-09
-5.14329e-10
-2.70629e-10
-9.59916e-11
-5.35547e-11
-4.44577e-11
-3.67393e-11
-3.48323e-11
-2.99779e-11
-2.87173e-11
-2.46253e-11
-2.35656e-11
-2.00806e-11
-1.91852e-11
-1.62654e-11
-1.552e-11
-1.31088e-11
-1.24962e-11
-1.05261e-11
-1.00272e-11
-8.42966e-12
-8.026e-12
-6.73743e-12
-6.41236e-12
-5.3769e-12
-5.11599e-12
-4.28613e-12
-4.0772e-12
-3.4134e-12
-3.24638e-12
-2.71617e-12
-2.58283e-12
-2.15984e-12
-2.05352e-12
-1.71645e-12
-1.63177e-12
-1.36351e-12
-1.29618e-12
-1.0831e-12
-1.03008e-12
-8.629e-13
-8.28988e-13
-7.38715e-13
-1.03839e-12
-5.8867e-13
-4.49735e-13
-4.18097e-13
-3.50502e-13
-3.337e-13
-2.82769e-13
-2.70116e-13
-2.30701e-13
-2.20936e-13
-1.90566e-13
-1.83062e-13
-1.59814e-13
-1.54059e-13
-1.36222e-13
-1.31541e-13
-1.1601e-13
-1.11467e-13
-9.45535e-14
-8.96858e-14
-7.16987e-14
-6.70523e-14
-5.19117e-14
-4.65754e-14
-2.34339e-14
-1.81178e-14
-2.81106e-15
-5.90224e-16
-1.3528e-16
-3.40468e-15
6.67957e-06
-4.94933e-06
-1.21741e-06
-3.75711e-07
-9.56788e-08
-2.9759e-08
-7.6624e-09
-2.42515e-09
-6.9154e-10
-3.03117e-10
-1.12931e-10
-5.89049e-11
-4.53924e-11
-3.73674e-11
-3.46935e-11
-3.02551e-11
-2.85337e-11
-2.48495e-11
-2.34064e-11
-2.02722e-11
-1.9053e-11
-1.64268e-11
-1.54119e-11
-1.32427e-11
-1.24085e-11
-1.06359e-11
-9.95642e-12
-8.51884e-12
-7.96912e-12
-6.80947e-12
-6.36677e-12
-5.43486e-12
-5.07952e-12
-4.33262e-12
-4.04807e-12
-3.4506e-12
-3.22313e-12
-2.7459e-12
-2.5643e-12
-2.18357e-12
-2.03877e-12
-1.73537e-12
-1.62004e-12
-1.37858e-12
-1.28689e-12
-1.09516e-12
-1.02303e-12
-8.73803e-13
-8.28859e-13
-7.6535e-13
-9.7858e-13
-6.09899e-13
-4.61784e-13
-4.17079e-13
-3.54613e-13
-3.31614e-13
-2.85672e-13
-2.68432e-13
-2.32942e-13
-2.19642e-13
-1.92296e-13
-1.82076e-13
-1.61138e-13
-1.53296e-13
-1.37195e-13
-1.30813e-13
-1.16775e-13
-1.10586e-13
-9.5386e-14
-8.87642e-14
-7.26652e-14
-6.63308e-14
-5.25148e-14
-4.5257e-14
-2.47642e-14
-1.75568e-14
-3.93543e-15
-9.0241e-16
-2.1003e-16
-3.42991e-15
6.59357e-06
-4.61478e-06
-1.38718e-06
-4.28672e-07
-1.14774e-07
-3.44043e-08
-9.20887e-09
-2.79862e-09
-8.14832e-10
-3.27638e-10
-1.24412e-10
-6.26303e-11
-4.61061e-11
-3.77807e-11
-3.46248e-11
-3.04233e-11
-2.84282e-11
-2.49838e-11
-2.33145e-11
-2.03869e-11
-1.89769e-11
-1.65236e-11
-1.53497e-11
-1.33231e-11
-1.23581e-11
-1.07017e-11
-9.91586e-12
-8.5724e-12
-7.93654e-12
-6.85275e-12
-6.34068e-12
-5.46968e-12
-5.05865e-12
-4.36055e-12
-4.0314e-12
-3.47296e-12
-3.20984e-12
-2.76377e-12
-2.55371e-12
-2.19784e-12
-2.03033e-12
-1.74674e-12
-1.61334e-12
-1.38764e-12
-1.28158e-12
-1.10242e-12
-1.01906e-12
-8.80524e-13
-8.29463e-13
-7.80906e-13
-9.42035e-13
-6.22298e-13
-4.6969e-13
-4.16767e-13
-3.5714e-13
-3.30443e-13
-2.87424e-13
-2.67475e-13
-2.34292e-13
-2.18906e-13
-1.9334e-13
-1.81516e-13
-1.61936e-13
-1.52862e-13
-1.37778e-13
-1.3039e-13
-1.17225e-13
-1.10064e-13
-9.58743e-14
-8.82208e-14
-7.32401e-14
-6.59077e-14
-5.28549e-14
-4.44676e-14
-2.55627e-14
-1.7252e-14
-4.63612e-15
-1.12089e-15
-2.63903e-16
-3.44821e-15
6.54938e-06
-4.45116e-06
-1.46618e-06
-4.55841e-07
-1.24524e-07
-3.68403e-08
-1.0003e-08
-2.99465e-09
-8.78124e-10
-3.40754e-10
-1.3022e-10
-6.45402e-11
-4.64899e-11
-3.79863e-11
-3.45973e-11
-3.05028e-11
-2.83802e-11
-2.50466e-11
-2.32726e-11
-2.04406e-11
-1.89423e-11
-1.65689e-11
-1.53215e-11
-1.33607e-11
-1.23353e-11
-1.07326e-11
-9.89744e-12
-8.59752e-12
-7.92176e-12
-6.87305e-12
-6.32884e-12
-5.48602e-12
-5.04919e-12
-4.37366e-12
-4.02385e-12
-3.48346e-12
-3.20381e-12
-2.77216e-12
-2.54891e-12
-2.20453e-12
-2.02651e-12
-1.75208e-12
-1.6103e-12
-1.39189e-12
-1.27918e-12
-1.10583e-12
-1.01728e-12
-8.83731e-13
-8.29954e-13
-7.88061e-13
-9.24713e-13
-6.28001e-13
-4.736e-13
-4.16715e-13
-3.58345e-13
-3.29919e-13
-2.88247e-13
-2.67043e-13
-2.34927e-13
-2.18574e-13
-1.9383e-13
-1.81264e-13
-1.62311e-13
-1.52666e-13
-1.38051e-13
-1.30196e-13
-1.17433e-13
-1.09821e-13
-9.60996e-14
-8.7969e-14
-7.35081e-14
-6.57124e-14
-5.30076e-14
-4.40982e-14
-2.59369e-14
-1.71192e-14
-4.97259e-15
-1.23294e-15
-2.9206e-16
-3.45782e-15
6.54938e-06
-4.45116e-06
-1.46618e-06
-4.5584e-07
-1.24524e-07
-3.68401e-08
-1.00029e-08
-2.9946e-09
-8.78105e-10
-3.40747e-10
-1.30218e-10
-6.45395e-11
-4.64897e-11
-3.79863e-11
-3.45972e-11
-3.05028e-11
-2.83802e-11
-2.50466e-11
-2.32726e-11
-2.04406e-11
-1.89423e-11
-1.65689e-11
-1.53215e-11
-1.33607e-11
-1.23353e-11
-1.07326e-11
-9.89744e-12
-8.59752e-12
-7.92176e-12
-6.87306e-12
-6.32885e-12
-5.48602e-12
-5.04919e-12
-4.37366e-12
-4.02385e-12
-3.48346e-12
-3.20381e-12
-2.77216e-12
-2.54891e-12
-2.20453e-12
-2.02651e-12
-1.75208e-12
-1.6103e-12
-1.39189e-12
-1.27918e-12
-1.10583e-12
-1.01728e-12
-8.83731e-13
-8.29954e-13
-7.88062e-13
-9.24713e-13
-6.28001e-13
-4.736e-13
-4.16715e-13
-3.58345e-13
-3.29919e-13
-2.88248e-13
-2.67044e-13
-2.34927e-13
-2.18574e-13
-1.9383e-13
-1.81264e-13
-1.62311e-13
-1.52666e-13
-1.38051e-13
-1.30196e-13
-1.17433e-13
-1.09821e-13
-9.60996e-14
-8.7969e-14
-7.35081e-14
-6.57124e-14
-5.30076e-14
-4.40982e-14
-2.59369e-14
-1.71192e-14
-4.97258e-15
-1.23293e-15
-2.92058e-16
-3.45782e-15
6.59358e-06
-4.61478e-06
-1.38718e-06
-4.28671e-07
-1.14773e-07
-3.44037e-08
-9.20857e-09
-2.79849e-09
-8.1478e-10
-3.2762e-10
-1.24406e-10
-6.26284e-11
-4.61056e-11
-3.77806e-11
-3.46247e-11
-3.04233e-11
-2.84282e-11
-2.49838e-11
-2.33145e-11
-2.03869e-11
-1.89769e-11
-1.65236e-11
-1.53497e-11
-1.33231e-11
-1.23581e-11
-1.07018e-11
-9.91586e-12
-8.5724e-12
-7.93655e-12
-6.85275e-12
-6.34068e-12
-5.46968e-12
-5.05866e-12
-4.36055e-12
-4.03141e-12
-3.47297e-12
-3.20984e-12
-2.76377e-12
-2.55371e-12
-2.19784e-12
-2.03034e-12
-1.74674e-12
-1.61334e-12
-1.38764e-12
-1.28158e-12
-1.10242e-12
-1.01906e-12
-8.80525e-13
-8.29464e-13
-7.80906e-13
-9.42035e-13
-6.22298e-13
-4.6969e-13
-4.16767e-13
-3.57141e-13
-3.30443e-13
-2.87424e-13
-2.67475e-13
-2.34293e-13
-2.18906e-13
-1.9334e-13
-1.81516e-13
-1.61936e-13
-1.52862e-13
-1.37778e-13
-1.3039e-13
-1.17225e-13
-1.10064e-13
-9.58743e-14
-8.82208e-14
-7.32402e-14
-6.59077e-14
-5.28549e-14
-4.44676e-14
-2.55626e-14
-1.7252e-14
-4.63608e-15
-1.12087e-15
-2.63897e-16
-3.4482e-15
6.67957e-06
-4.94934e-06
-1.21741e-06
-3.75709e-07
-9.56776e-08
-2.97582e-08
-7.66201e-09
-2.42498e-09
-6.91473e-10
-3.03094e-10
-1.12924e-10
-5.89024e-11
-4.53917e-11
-3.73672e-11
-3.46934e-11
-3.02551e-11
-2.85337e-11
-2.48495e-11
-2.34064e-11
-2.02722e-11
-1.90531e-11
-1.64268e-11
-1.54119e-11
-1.32427e-11
-1.24085e-11
-1.06359e-11
-9.95643e-12
-8.51884e-12
-7.96912e-12
-6.80947e-12
-6.36678e-12
-5.43486e-12
-5.07952e-12
-4.33262e-12
-4.04807e-12
-3.45061e-12
-3.22313e-12
-2.7459e-12
-2.56431e-12
-2.18357e-12
-2.03877e-12
-1.73537e-12
-1.62004e-12
-1.37858e-12
-1.28689e-12
-1.09516e-12
-1.02303e-12
-8.73804e-13
-8.2886e-13
-7.65351e-13
-9.78581e-13
-6.09899e-13
-4.61784e-13
-4.17079e-13
-3.54613e-13
-3.31615e-13
-2.85672e-13
-2.68433e-13
-2.32942e-13
-2.19642e-13
-1.92297e-13
-1.82076e-13
-1.61138e-13
-1.53296e-13
-1.37195e-13
-1.30813e-13
-1.16775e-13
-1.10586e-13
-9.53861e-14
-8.87643e-14
-7.26652e-14
-6.63308e-14
-5.25148e-14
-4.5257e-14
-2.47642e-14
-1.75567e-14
-3.93539e-15
-9.02381e-16
-2.10022e-16
-3.42989e-15
6.80208e-06
-5.4697e-06
-9.32023e-07
-3.00276e-07
-6.80142e-08
-2.33583e-08
-5.44043e-09
-1.91109e-09
-5.14272e-10
-2.70609e-10
-9.59849e-11
-5.35526e-11
-4.44571e-11
-3.67391e-11
-3.48322e-11
-2.99779e-11
-2.87173e-11
-2.46254e-11
-2.35656e-11
-2.00806e-11
-1.91852e-11
-1.62654e-11
-1.552e-11
-1.31089e-11
-1.24962e-11
-1.05261e-11
-1.00272e-11
-8.42966e-12
-8.026e-12
-6.73743e-12
-6.41236e-12
-5.37691e-12
-5.11599e-12
-4.28614e-12
-4.0772e-12
-3.4134e-12
-3.24638e-12
-2.71617e-12
-2.58283e-12
-2.15985e-12
-2.05352e-12
-1.71645e-12
-1.63177e-12
-1.36351e-12
-1.29619e-12
-1.0831e-12
-1.03008e-12
-8.62901e-13
-8.28989e-13
-7.38716e-13
-1.03839e-12
-5.8867e-13
-4.49735e-13
-4.18097e-13
-3.50502e-13
-3.337e-13
-2.82769e-13
-2.70116e-13
-2.30701e-13
-2.20937e-13
-1.90566e-13
-1.83062e-13
-1.59814e-13
-1.54059e-13
-1.36222e-13
-1.31541e-13
-1.1601e-13
-1.11467e-13
-9.45535e-14
-8.96858e-14
-7.16987e-14
-6.70523e-14
-5.19117e-14
-4.65753e-14
-2.34339e-14
-1.81177e-14
-2.81102e-15
-5.90199e-16
-1.35274e-16
-3.40466e-15
6.95177e-06
-6.19877e-06
-4.90393e-07
-2.08859e-07
-3.28447e-08
-1.5888e-08
-2.64293e-09
-1.31175e-09
-2.90894e-10
-2.35346e-10
-7.3753e-11
-4.68674e-11
-4.34665e-11
-3.58781e-11
-3.50886e-11
-2.95566e-11
-2.9014e-11
-2.42797e-11
-2.38217e-11
-1.97853e-11
-1.93982e-11
-1.60168e-11
-1.56947e-11
-1.29029e-11
-1.26381e-11
-1.03575e-11
-1.01418e-11
-8.29266e-12
-8.11821e-12
-6.62679e-12
-6.48632e-12
-5.28793e-12
-5.17518e-12
-4.21478e-12
-4.1245e-12
-3.3563e-12
-3.28413e-12
-2.67055e-12
-2.61293e-12
-2.12343e-12
-2.07749e-12
-1.68743e-12
-1.65083e-12
-1.34039e-12
-1.3113e-12
-1.06463e-12
-1.04168e-12
-8.4666e-13
-8.31364e-13
-6.96477e-13
-1.12818e-12
-5.55005e-13
-4.33391e-13
-4.20549e-13
-3.44356e-13
-3.37147e-13
-2.78333e-13
-2.72869e-13
-2.27273e-13
-2.23054e-13
-1.87919e-13
-1.84677e-13
-1.57789e-13
-1.55304e-13
-1.34721e-13
-1.32702e-13
-1.14804e-13
-1.12842e-13
-9.32384e-14
-9.11315e-14
-7.0198e-14
-6.81932e-14
-5.0916e-14
-4.86056e-14
-2.13904e-14
-1.90783e-14
-1.16314e-15
-2.0734e-16
-4.67267e-17
-3.37498e-15
6.95478e-06
-6.20124e-06
-4.90702e-07
-2.09058e-07
-3.28736e-08
-1.59047e-08
-2.64457e-09
-1.31211e-09
-2.90011e-10
-2.33499e-10
-7.27171e-11
-4.59652e-11
-4.25794e-11
-3.5107e-11
-3.43294e-11
-2.89071e-11
-2.83754e-11
-2.37398e-11
-2.32914e-11
-1.93408e-11
-1.89621e-11
-1.56536e-11
-1.53385e-11
-1.26078e-11
-1.23488e-11
-1.01187e-11
-9.90786e-12
-8.10011e-12
-7.92959e-12
-6.47194e-12
-6.33466e-12
-5.16368e-12
-5.05352e-12
-4.11529e-12
-4.02709e-12
-3.27676e-12
-3.20627e-12
-2.60707e-12
-2.5508e-12
-2.07285e-12
-2.02799e-12
-1.64717e-12
-1.61144e-12
-1.30839e-12
-1.27999e-12
-1.03921e-12
-1.01681e-12
-8.26452e-13
-8.11524e-13
-6.79872e-13
-1.1013e-12
-5.41794e-13
-4.23095e-13
-4.10561e-13
-3.36198e-13
-3.29162e-13
-2.71762e-13
-2.6643e-13
-2.21934e-13
-2.17817e-13
-1.83537e-13
-1.80374e-13
-1.5415e-13
-1.51728e-13
-1.31669e-13
-1.29702e-13
-1.12282e-13
-1.1037e-13
-9.12603e-14
-8.92039e-14
-6.87477e-14
-6.67889e-14
-4.99127e-14
-4.7651e-14
-2.09735e-14
-1.87068e-14
-1.14049e-15
-2.03308e-16
-4.58179e-17
-3.30784e-15
6.80502e-06
-5.47188e-06
-9.32496e-07
-3.00501e-07
-6.80657e-08
-2.33795e-08
-5.44457e-09
-1.91199e-09
-5.13575e-10
-2.68977e-10
-9.49164e-11
-5.26347e-11
-4.35761e-11
-3.59595e-11
-3.40802e-11
-2.93205e-11
-2.80851e-11
-2.40783e-11
-2.30408e-11
-1.96299e-11
-1.87537e-11
-1.58968e-11
-1.51677e-11
-1.28092e-11
-1.22101e-11
-1.02836e-11
-9.7958e-12
-8.23405e-12
-7.83948e-12
-6.58008e-12
-6.26241e-12
-5.25063e-12
-4.9957e-12
-4.185e-12
-3.9809e-12
-3.33254e-12
-3.16941e-12
-2.65163e-12
-2.52142e-12
-2.1084e-12
-2.00459e-12
-1.67551e-12
-1.59284e-12
-1.33096e-12
-1.26524e-12
-1.05724e-12
-1.00548e-12
-8.42305e-13
-8.09206e-13
-7.21104e-13
-1.01365e-12
-5.74658e-13
-4.39049e-13
-4.08168e-13
-3.42196e-13
-3.25798e-13
-2.76092e-13
-2.63744e-13
-2.2528e-13
-2.15752e-13
-1.86119e-13
-1.788e-13
-1.56126e-13
-1.50515e-13
-1.33132e-13
-1.28573e-13
-1.13455e-13
-1.09029e-13
-9.25411e-14
-8.77902e-14
-7.0214e-14
-6.56743e-14
-5.08833e-14
-4.56596e-14
-2.29763e-14
-1.77648e-14
-2.75627e-15
-5.78718e-16
-1.32643e-16
-3.33695e-15
6.68247e-06
-4.95132e-06
-1.21799e-06
-3.75957e-07
-9.57455e-08
-2.97831e-08
-7.66795e-09
-2.4263e-09
-6.90912e-10
-3.0161e-10
-1.11836e-10
-5.79725e-11
-4.4514e-11
-3.65821e-11
-3.39459e-11
-2.95927e-11
-2.79055e-11
-2.42979e-11
-2.2885e-11
-1.98174e-11
-1.86244e-11
-1.60548e-11
-1.50619e-11
-1.29402e-11
-1.21243e-11
-1.0391e-11
-9.72663e-12
-8.32124e-12
-7.7839e-12
-6.6505e-12
-6.21787e-12
-5.30726e-12
-4.96008e-12
-4.23041e-12
-3.95245e-12
-3.36888e-12
-3.14672e-12
-2.68066e-12
-2.50333e-12
-2.13157e-12
-1.99019e-12
-1.69398e-12
-1.58139e-12
-1.34567e-12
-1.25616e-12
-1.06901e-12
-9.98606e-13
-8.52948e-13
-8.09082e-13
-7.47103e-13
-9.55266e-13
-5.95381e-13
-4.50809e-13
-4.07175e-13
-3.46208e-13
-3.23763e-13
-2.78925e-13
-2.62101e-13
-2.27467e-13
-2.14489e-13
-1.87808e-13
-1.77838e-13
-1.57417e-13
-1.49772e-13
-1.34081e-13
-1.27865e-13
-1.14199e-13
-1.08169e-13
-9.33517e-14
-8.68888e-14
-7.11583e-14
-6.49692e-14
-5.14708e-14
-4.43662e-14
-2.428e-14
-1.72145e-14
-3.85872e-15
-8.84818e-16
-2.05935e-16
-3.36169e-15
6.59643e-06
-4.61664e-06
-1.38782e-06
-4.28934e-07
-1.14852e-07
-3.4431e-08
-9.21561e-09
-2.80004e-09
-8.14295e-10
-3.26223e-10
-1.23308e-10
-6.169e-11
-4.52294e-11
-3.6992e-11
-3.38798e-11
-2.97579e-11
-2.78024e-11
-2.44294e-11
-2.27951e-11
-1.99298e-11
-1.85499e-11
-1.61495e-11
-1.50012e-11
-1.30188e-11
-1.20751e-11
-1.04554e-11
-9.68698e-12
-8.37361e-12
-7.75206e-12
-6.69281e-12
-6.19238e-12
-5.3413e-12
-4.9397e-12
-4.2577e-12
-3.93618e-12
-3.39072e-12
-3.13374e-12
-2.69812e-12
-2.49299e-12
-2.1455e-12
-1.98196e-12
-1.70508e-12
-1.57484e-12
-1.35451e-12
-1.25098e-12
-1.0761e-12
-9.94728e-13
-8.59508e-13
-8.09672e-13
-7.62288e-13
-9.19592e-13
-6.07484e-13
-4.58526e-13
-4.0687e-13
-3.48676e-13
-3.22619e-13
-2.80635e-13
-2.61167e-13
-2.28785e-13
-2.13771e-13
-1.88827e-13
-1.77293e-13
-1.58196e-13
-1.49349e-13
-1.34649e-13
-1.27453e-13
-1.14637e-13
-1.0766e-13
-9.3827e-14
-8.63571e-14
-7.17201e-14
-6.45558e-14
-5.1802e-14
-4.35917e-14
-2.50625e-14
-1.69156e-14
-4.54574e-15
-1.09904e-15
-2.58758e-16
-3.37963e-15
6.55223e-06
-4.45296e-06
-1.46685e-06
-4.56112e-07
-1.24607e-07
-3.68684e-08
-1.00103e-08
-2.99622e-09
-8.77635e-10
-3.39385e-10
-1.29112e-10
-6.35962e-11
-4.56139e-11
-3.7196e-11
-3.38535e-11
-2.9836e-11
-2.77555e-11
-2.44909e-11
-2.27541e-11
-1.99823e-11
-1.8516e-11
-1.61939e-11
-1.49735e-11
-1.30556e-11
-1.20527e-11
-1.04856e-11
-9.66898e-12
-8.39817e-12
-7.73762e-12
-6.71265e-12
-6.18082e-12
-5.35726e-12
-4.93046e-12
-4.27051e-12
-3.9288e-12
-3.40097e-12
-3.12785e-12
-2.70631e-12
-2.4883e-12
-2.15204e-12
-1.97822e-12
-1.71029e-12
-1.57188e-12
-1.35867e-12
-1.24864e-12
-1.07943e-12
-9.9299e-13
-8.62638e-13
-8.10151e-13
-7.69273e-13
-9.02683e-13
-6.13052e-13
-4.62343e-13
-4.0682e-13
-3.49851e-13
-3.22108e-13
-2.81439e-13
-2.60746e-13
-2.29405e-13
-2.13447e-13
-1.89305e-13
-1.77047e-13
-1.58562e-13
-1.49158e-13
-1.34916e-13
-1.27264e-13
-1.14839e-13
-1.07424e-13
-9.40463e-14
-8.61108e-14
-7.19819e-14
-6.4365e-14
-5.19506e-14
-4.32292e-14
-2.54292e-14
-1.67853e-14
-4.87564e-15
-1.2089e-15
-2.86367e-16
-3.38906e-15
6.55223e-06
-4.45296e-06
-1.46685e-06
-4.56111e-07
-1.24607e-07
-3.68682e-08
-1.00102e-08
-2.99617e-09
-8.77615e-10
-3.39378e-10
-1.2911e-10
-6.35955e-11
-4.56137e-11
-3.7196e-11
-3.38535e-11
-2.9836e-11
-2.77555e-11
-2.44909e-11
-2.27541e-11
-1.99823e-11
-1.8516e-11
-1.61939e-11
-1.49735e-11
-1.30556e-11
-1.20527e-11
-1.04856e-11
-9.66898e-12
-8.39817e-12
-7.73762e-12
-6.71265e-12
-6.18082e-12
-5.35726e-12
-4.93046e-12
-4.27051e-12
-3.9288e-12
-3.40097e-12
-3.12785e-12
-2.70631e-12
-2.4883e-12
-2.15204e-12
-1.97823e-12
-1.71029e-12
-1.57188e-12
-1.35867e-12
-1.24864e-12
-1.07943e-12
-9.9299e-13
-8.62638e-13
-8.10151e-13
-7.69273e-13
-9.02683e-13
-6.13052e-13
-4.62343e-13
-4.0682e-13
-3.49851e-13
-3.22108e-13
-2.81439e-13
-2.60746e-13
-2.29405e-13
-2.13447e-13
-1.89305e-13
-1.77047e-13
-1.58562e-13
-1.49158e-13
-1.34916e-13
-1.27264e-13
-1.14839e-13
-1.07424e-13
-9.40463e-14
-8.61109e-14
-7.19819e-14
-6.4365e-14
-5.19506e-14
-4.32292e-14
-2.54292e-14
-1.67853e-14
-4.87563e-15
-1.2089e-15
-2.86365e-16
-3.38905e-15
6.59644e-06
-4.61664e-06
-1.38782e-06
-4.28933e-07
-1.14851e-07
-3.44304e-08
-9.21531e-09
-2.79991e-09
-8.14243e-10
-3.26205e-10
-1.23302e-10
-6.16882e-11
-4.52288e-11
-3.69919e-11
-3.38798e-11
-2.97579e-11
-2.78024e-11
-2.44294e-11
-2.27951e-11
-1.99298e-11
-1.85499e-11
-1.61495e-11
-1.50012e-11
-1.30188e-11
-1.20751e-11
-1.04554e-11
-9.68698e-12
-8.37362e-12
-7.75207e-12
-6.69281e-12
-6.19238e-12
-5.3413e-12
-4.9397e-12
-4.25771e-12
-3.93618e-12
-3.39072e-12
-3.13374e-12
-2.69812e-12
-2.49299e-12
-2.1455e-12
-1.98196e-12
-1.70508e-12
-1.57484e-12
-1.35451e-12
-1.25098e-12
-1.0761e-12
-9.94729e-13
-8.59508e-13
-8.09672e-13
-7.62289e-13
-9.19592e-13
-6.07484e-13
-4.58526e-13
-4.0687e-13
-3.48676e-13
-3.22619e-13
-2.80635e-13
-2.61167e-13
-2.28785e-13
-2.13771e-13
-1.88827e-13
-1.77293e-13
-1.58196e-13
-1.49349e-13
-1.3465e-13
-1.27453e-13
-1.14637e-13
-1.0766e-13
-9.38271e-14
-8.63572e-14
-7.17201e-14
-6.45558e-14
-5.18019e-14
-4.35916e-14
-2.50624e-14
-1.69156e-14
-4.5457e-15
-1.09902e-15
-2.58752e-16
-3.37962e-15
6.68247e-06
-4.95133e-06
-1.21799e-06
-3.75956e-07
-9.57444e-08
-2.97823e-08
-7.66756e-09
-2.42613e-09
-6.90845e-10
-3.01586e-10
-1.11829e-10
-5.79701e-11
-4.45133e-11
-3.65819e-11
-3.39459e-11
-2.95928e-11
-2.79055e-11
-2.42979e-11
-2.2885e-11
-1.98175e-11
-1.86244e-11
-1.60548e-11
-1.50619e-11
-1.29402e-11
-1.21243e-11
-1.0391e-11
-9.72663e-12
-8.32125e-12
-7.7839e-12
-6.65051e-12
-6.21788e-12
-5.30727e-12
-4.96009e-12
-4.23041e-12
-3.95245e-12
-3.36888e-12
-3.14672e-12
-2.68067e-12
-2.50333e-12
-2.13157e-12
-1.99019e-12
-1.69398e-12
-1.58139e-12
-1.34567e-12
-1.25617e-12
-1.06901e-12
-9.98607e-13
-8.52948e-13
-8.09082e-13
-7.47104e-13
-9.55267e-13
-5.95381e-13
-4.50809e-13
-4.07175e-13
-3.46209e-13
-3.23763e-13
-2.78926e-13
-2.62101e-13
-2.27467e-13
-2.14489e-13
-1.87809e-13
-1.77838e-13
-1.57417e-13
-1.49772e-13
-1.34081e-13
-1.27865e-13
-1.14199e-13
-1.0817e-13
-9.33518e-14
-8.68888e-14
-7.11584e-14
-6.49692e-14
-5.14708e-14
-4.43662e-14
-2.42799e-14
-1.72145e-14
-3.85867e-15
-8.8479e-16
-2.05928e-16
-3.36167e-15
6.80502e-06
-5.47189e-06
-9.32497e-07
-3.005e-07
-6.80647e-08
-2.33788e-08
-5.44423e-09
-1.91184e-09
-5.13517e-10
-2.68957e-10
-9.49097e-11
-5.26326e-11
-4.35754e-11
-3.59594e-11
-3.40801e-11
-2.93205e-11
-2.80851e-11
-2.40783e-11
-2.30409e-11
-1.96299e-11
-1.87537e-11
-1.58969e-11
-1.51677e-11
-1.28093e-11
-1.22101e-11
-1.02836e-11