/*--------------------------------*- C++ -*----------------------------------*\
| =========                 |                                                 |
| \\      /  F ield         | OpenFOAM: The Open Source CFD Toolbox           |
|  \\    /   O peration     | Version:  5.x                                   |
|   \\  /    A nd           | Web:      www.OpenFOAM.org                      |
|    \\/     M anipulation  |                                                 |
\*---------------------------------------------------------------------------*/
FoamFile
{
    version     2.0;
    format      ascii;
    class       volScalarField;
    location    "3.7";
    object      gradTy;
}
// * * * * * * * * * * * * * * * * * * * * * * * * * * * * * * * * * * * * * //

dimensions      [0 -1 0 1 0 0 0];

internalField   nonuniform List<scalar> 
3200
(
-4.33358e-10
3.06557e-10
-9.15128e-11
1.40917e-10
-9.93156e-11
1.22021e-10
-5.04595e-11
6.99788e-11
-4.22618e-11
1.8679e-11
4.13837e-11
-1.67567e-11
2.39241e-11
-1.3769e-11
1.71758e-11
-1.03936e-11
1.27353e-11
-7.83335e-12
9.54186e-12
-5.91806e-12
7.18769e-12
-4.47606e-12
5.42903e-12
-3.38506e-12
4.10461e-12
-2.55724e-12
3.10237e-12
-1.92828e-12
2.34194e-12
-1.45031e-12
1.76431e-12
-1.08732e-12
1.32553e-12
-8.11991e-13
9.92486e-13
-6.03547e-13
7.40053e-13
-4.46104e-13
5.49096e-13
-3.27523e-13
4.05001e-13
-2.38519e-13
2.96596e-13
-1.72e-13
2.15337e-13
-1.22573e-13
1.54604e-13
-8.6515e-14
1.07715e-13
-6.819e-14
3.03642e-14
6.61065e-14
-2.31929e-14
3.59023e-14
-1.66132e-14
2.29719e-14
-1.03552e-14
1.4512e-14
-6.18313e-15
8.89062e-15
-3.56723e-15
5.27272e-15
-1.99416e-15
3.03029e-15
-1.08228e-15
1.69061e-15
-5.69747e-16
9.16357e-16
-2.88493e-16
4.81299e-16
-1.36287e-16
2.4403e-16
-4.50178e-17
1.05535e-16
1.5317e-18
2.58219e-17
5.31514e-18
1.23266e-18
2.93461e-19
8.32856e-20
-3.10953e-10
2.00026e-10
-5.15706e-11
9.46123e-11
-6.21879e-11
8.21465e-11
-2.98517e-11
4.69356e-11
-2.71125e-11
1.33328e-11
2.9392e-11
-9.76951e-12
1.61088e-11
-8.48424e-12
1.14786e-11
-6.4437e-12
8.49988e-12
-4.86518e-12
6.36521e-12
-3.67888e-12
4.79356e-12
-2.78367e-12
3.62032e-12
-2.10544e-12
2.73714e-12
-1.59041e-12
2.06898e-12
-1.19893e-12
1.56208e-12
-9.01391e-13
1.17704e-12
-6.75425e-13
8.84544e-13
-5.04063e-13
6.62507e-13
-3.74363e-13
4.94189e-13
-2.76434e-13
3.66838e-13
-2.02712e-13
2.70718e-13
-1.4741e-13
1.98385e-13
-1.06109e-13
1.44145e-13
-7.54554e-14
1.03563e-13
-5.32411e-14
7.17987e-14
-4.39276e-14
2.16421e-14
4.70722e-14
-1.31389e-14
2.43667e-14
-9.93961e-15
1.55247e-14
-6.17508e-15
9.82297e-15
-3.65481e-15
6.03069e-15
-2.08742e-15
3.58406e-15
-1.15457e-15
2.06386e-15
-6.19736e-16
1.15362e-15
-3.22346e-16
6.26551e-16
-1.6073e-16
3.29957e-16
-7.38261e-17
1.68388e-16
-2.0874e-17
7.39752e-17
5.26768e-18
1.87421e-17
4.65776e-18
1.10695e-18
2.64502e-19
7.51351e-20
-2.09008e-10
1.2397e-10
-2.75642e-11
6.04058e-11
-3.71242e-11
5.251e-11
-1.68086e-11
2.99148e-11
-1.65522e-11
8.95434e-12
1.96028e-11
-5.38921e-12
1.03079e-11
-4.98545e-12
7.29362e-12
-3.81121e-12
5.39434e-12
-2.88292e-12
4.03772e-12
-2.18194e-12
3.04005e-12
-1.6517e-12
2.29577e-12
-1.24943e-12
1.73572e-12
-9.43713e-13
1.31211e-12
-7.11236e-13
9.90772e-13
-5.34511e-13
7.46691e-13
-4.00302e-13
5.61265e-13
-2.98541e-13
4.20495e-13
-2.21541e-13
3.13768e-13
-1.63425e-13
2.33004e-13
-1.19696e-13
1.72034e-13
-8.69117e-14
1.26141e-13
-6.24457e-14
9.17153e-14
-4.43083e-14
6.59341e-14
-3.12587e-14
4.54983e-14
-2.69285e-14
1.45165e-14
3.14567e-14
-6.99886e-15
1.56994e-14
-5.66003e-15
9.96156e-15
-3.50481e-15
6.31154e-15
-2.05415e-15
3.88205e-15
-1.15984e-15
2.31132e-15
-6.33632e-16
1.33325e-15
-3.35665e-16
7.46465e-16
-1.72039e-16
4.06122e-16
-8.41348e-17
2.14361e-16
-3.72263e-17
1.09991e-16
-8.10287e-18
4.89527e-17
5.714e-18
1.27636e-17
3.57874e-18
8.72944e-19
2.09626e-19
5.96336e-20
-1.20403e-10
6.72727e-11
-1.31586e-11
3.36011e-11
-1.95625e-11
2.92185e-11
-8.41818e-12
1.66124e-11
-8.87852e-12
5.16387e-12
1.12339e-11
-2.64085e-12
5.74284e-12
-2.59272e-12
4.04125e-12
-1.99348e-12
2.98609e-12
-1.51034e-12
2.23432e-12
-1.14398e-12
1.68195e-12
-8.663e-13
1.27007e-12
-6.55386e-13
9.60242e-13
-4.94984e-13
7.2593e-13
-3.72967e-13
5.48201e-13
-2.80198e-13
4.13206e-13
-2.09748e-13
3.10648e-13
-1.56339e-13
2.32783e-13
-1.15935e-13
1.73743e-13
-8.54495e-14
1.29061e-13
-6.25197e-14
9.53237e-14
-4.5338e-14
6.99246e-14
-3.25236e-14
5.08672e-14
-2.30334e-14
3.65846e-14
-1.62491e-14
2.51534e-14
-1.44939e-14
8.36361e-15
1.80511e-14
-3.30941e-15
8.79094e-15
-2.86232e-15
5.55992e-15
-1.76742e-15
3.52618e-15
-1.02649e-15
2.17183e-15
-5.73308e-16
1.29482e-15
-3.09455e-16
7.4785e-16
-1.61793e-16
4.1922e-16
-8.16791e-17
2.28373e-16
-3.91288e-17
1.20742e-16
-1.6596e-17
6.21961e-17
-2.34423e-18
2.79384e-17
4.14696e-18
7.43373e-18
2.24034e-18
5.57312e-19
1.34404e-19
3.83013e-20
-3.93186e-11
2.12842e-11
-3.8539e-12
1.07818e-11
-6.08853e-12
9.37538e-12
-2.54152e-12
5.325e-12
-2.79107e-12
1.68825e-12
3.65941e-12
-7.85648e-13
1.84423e-12
-8.00792e-13
1.29389e-12
-6.17829e-13
9.55567e-13
-4.68531e-13
7.14859e-13
-3.55041e-13
5.38079e-13
-2.6892e-13
4.06297e-13
-2.03461e-13
3.07181e-13
-1.53659e-13
2.32231e-13
-1.15766e-13
1.75383e-13
-8.69543e-14
1.32204e-13
-6.50745e-14
9.93998e-14
-4.84882e-14
7.44932e-14
-3.59425e-14
5.56072e-14
-2.64782e-14
4.13129e-14
-1.93613e-14
3.05193e-14
-1.40299e-14
2.23925e-14
-1.00551e-14
1.6294e-14
-7.11321e-15
1.17216e-14
-5.01817e-15
8.0428e-15
-4.56547e-15
2.73282e-15
5.88393e-15
-9.61193e-16
2.83053e-15
-8.69277e-16
1.78698e-15
-5.3586e-16
1.13392e-15
-3.09453e-16
6.98904e-16
-1.71638e-16
4.16979e-16
-9.19246e-17
2.40997e-16
-4.76446e-17
1.35182e-16
-2.38074e-17
7.36908e-17
-1.12418e-17
3.89949e-17
-4.62144e-18
2.01277e-17
-3.82407e-19
9.08484e-18
1.49576e-18
2.44262e-18
7.6144e-19
1.91341e-19
4.62415e-20
1.32248e-20
3.93346e-11
-2.128e-11
3.85524e-12
-1.07812e-11
6.08875e-12
-9.37535e-12
2.54147e-12
-5.32509e-12
2.79094e-12
-1.68839e-12
-3.65951e-12
7.85627e-13
-1.84419e-12
8.00861e-13
-1.29381e-12
6.17907e-13
-9.55495e-13
4.68595e-13
-7.14803e-13
3.55089e-13
-5.38037e-13
2.68955e-13
-4.06267e-13
2.03486e-13
-3.0716e-13
1.53677e-13
-2.32216e-13
1.15779e-13
-1.75373e-13
8.69627e-14
-1.32197e-13
6.508e-14
-9.93955e-14
4.84916e-14
-7.44906e-14
3.59444e-14
-5.56058e-14
2.64792e-14
-4.13123e-14
1.93615e-14
-3.05192e-14
1.40298e-14
-2.23927e-14
1.00548e-14
-1.62944e-14
7.11277e-15
-1.17221e-14
5.01762e-15
-8.04344e-15
4.56475e-15
-2.73356e-15
-5.88458e-15
9.60684e-16
-2.8309e-15
8.68999e-16
-1.7872e-15
5.35688e-16
-1.13406e-15
3.09338e-16
-6.98997e-16
1.71563e-16
-4.17039e-16
9.18771e-17
-2.41034e-16
4.76155e-17
-1.35205e-16
2.379e-17
-7.37041e-17
1.12316e-17
-3.90026e-17
4.61565e-18
-2.0132e-17
3.79369e-19
-9.08691e-18
-1.49709e-18
-2.44342e-18
-7.61886e-19
-1.91581e-19
-4.63487e-20
-1.31493e-20
1.20414e-10
-6.72696e-11
1.31598e-11
-3.36004e-11
1.95629e-11
-2.92183e-11
8.4183e-12
-1.66124e-11
8.87854e-12
-5.16388e-12
-1.12339e-11
2.6409e-12
-5.74277e-12
2.59281e-12
-4.04116e-12
1.99357e-12
-2.98601e-12
1.51041e-12
-2.23426e-12
1.14403e-12
-1.68191e-12
8.66339e-13
-1.27004e-12
6.55414e-13
-9.60218e-13
4.95005e-13
-7.25913e-13
3.72981e-13
-5.48189e-13
2.80208e-13
-4.13197e-13
2.09755e-13
-3.10642e-13
1.56343e-13
-2.32779e-13
1.15938e-13
-1.73741e-13
8.54514e-14
-1.29059e-13
6.25208e-14
-9.53229e-14
4.53385e-14
-6.99242e-14
3.25238e-14
-5.08671e-14
2.30334e-14
-3.65846e-14
1.62489e-14
-2.51536e-14
1.44935e-14
-8.36401e-15
-1.80515e-14
3.30913e-15
-8.79115e-15
2.86216e-15
-5.56004e-15
1.76733e-15
-3.52626e-15
1.02643e-15
-2.17188e-15
5.73264e-16
-1.29486e-15
3.09426e-16
-7.47873e-16
1.61775e-16
-4.19234e-16
8.16683e-17
-2.28381e-16
3.91224e-17
-1.20747e-16
1.65923e-17
-6.21988e-17
2.34224e-18
-2.79397e-17
-4.14785e-18
-7.43426e-18
-2.24064e-18
-5.57478e-19
-1.34481e-19
-3.82494e-20
2.09011e-10
-1.2397e-10
2.75648e-11
-6.04052e-11
3.71246e-11
-5.25097e-11
1.68089e-11
-2.99146e-11
1.65524e-11
-8.95419e-12
-1.96026e-11
5.38931e-12
-1.03078e-11
4.98554e-12
-7.29354e-12
3.81128e-12
-5.39428e-12
2.88297e-12
-4.03768e-12
2.18198e-12
-3.04002e-12
1.65173e-12
-2.29575e-12
1.24945e-12
-1.7357e-12
9.43729e-13
-1.3121e-12
7.11248e-13
-9.90762e-13
5.34519e-13
-7.46684e-13
4.00308e-13
-5.6126e-13
2.98545e-13
-4.20491e-13
2.21544e-13
-3.13765e-13
1.63428e-13
-2.33002e-13
1.19697e-13
-1.72033e-13
8.69128e-14
-1.2614e-13
6.24464e-14
-9.17147e-14
4.43087e-14
-6.59338e-14
3.1259e-14
-4.54981e-14
2.69287e-14
-1.45164e-14
-3.14566e-14
6.99891e-15
-1.56993e-14
5.66007e-15
-9.96153e-15
3.50483e-15
-6.31153e-15
2.05416e-15
-3.88204e-15
1.15984e-15
-2.31131e-15
6.33634e-16
-1.33325e-15
3.35666e-16
-7.46464e-16
1.72039e-16
-4.06122e-16
8.41347e-17
-2.14361e-16
3.72261e-17
-1.09991e-16
8.10268e-18
-4.89528e-17
-5.7141e-18
-1.27637e-17
-3.57878e-18
-8.72972e-19
-2.09643e-19
-5.96247e-20
3.10943e-10
-2.00028e-10
5.157e-11
-9.46125e-11
6.2188e-11
-8.21463e-11
2.98519e-11
-4.69355e-11
2.71127e-11
-1.33326e-11
-2.93919e-11
9.76957e-12
-1.61088e-11
8.48424e-12
-1.14786e-11
6.44368e-12
-8.4999e-12
4.86516e-12
-6.36523e-12
3.67887e-12
-4.79357e-12
2.78366e-12
-3.62032e-12
2.10543e-12
-2.73715e-12
1.5904e-12
-2.06899e-12
1.19893e-12
-1.56208e-12
9.01389e-13
-1.17704e-12
6.75424e-13
-8.84544e-13
5.04063e-13
-6.62507e-13
3.74363e-13
-4.94188e-13
2.76435e-13
-3.66838e-13
2.02712e-13
-2.70718e-13
1.47411e-13
-1.98385e-13
1.0611e-13
-1.44144e-13
7.5456e-14
-1.03563e-13
5.32416e-14
-7.17982e-14
4.39281e-14
-2.16415e-14
-4.70718e-14
1.31392e-14
-2.43664e-14
9.93981e-15
-1.55245e-14
6.1752e-15
-9.82288e-15
3.65489e-15
-6.03063e-15
2.08747e-15
-3.58402e-15
1.15461e-15
-2.06383e-15
6.19755e-16
-1.15361e-15
3.22357e-16
-6.26542e-16
1.60737e-16
-3.29952e-16
7.38298e-17
-1.68385e-16
2.08759e-17
-7.39739e-17
-5.26686e-18
-1.87416e-17
-4.65749e-18
-1.1068e-18
-2.64439e-19
-7.51811e-20
4.33338e-10
-3.06563e-10
9.15102e-11
-1.40918e-10
9.93145e-11
-1.22021e-10
5.0459e-11
-6.99791e-11
4.22616e-11
-1.86791e-11
-4.13839e-11
1.67565e-11
-2.39243e-11
1.37688e-11
-1.7176e-11
1.03934e-11
-1.27355e-11
7.83318e-12
-9.54201e-12
5.91794e-12
-7.1878e-12
4.47597e-12
-5.42911e-12
3.38499e-12
-4.10466e-12
2.55719e-12
-3.10241e-12
1.92825e-12
-2.34197e-12
1.45029e-12
-1.76433e-12
1.0873e-12
-1.32555e-12
8.11979e-13
-9.92496e-13
6.03538e-13
-7.4006e-13
4.46098e-13
-5.491e-13
3.27519e-13
-4.05004e-13
2.38517e-13
-2.96598e-13
1.71999e-13
-2.15337e-13
1.22573e-13
-1.54604e-13
8.65149e-14
-1.07715e-13
6.81904e-14
-3.03636e-14
-6.6106e-14
2.31933e-14
-3.59021e-14
1.66134e-14
-2.29717e-14
1.03553e-14
-1.45119e-14
6.18322e-15
-8.89055e-15
3.56729e-15
-5.27267e-15
1.9942e-15
-3.03026e-15
1.0823e-15
-1.69059e-15
5.69764e-16
-9.16344e-16
2.88503e-16
-4.81291e-16
1.36294e-16
-2.44025e-16
4.50211e-17
-1.05533e-16
-1.5302e-18
-2.5821e-17
-5.31461e-18
-1.23237e-18
-2.93323e-19
-8.33759e-20
-7.47518e-06
5.91822e-06
1.01723e-06
4.16539e-07
8.19512e-08
3.30217e-08
6.49938e-09
2.66097e-09
4.4266e-10
2.33653e-10
1.11072e-10
-1.56632e-11
3.95058e-11
-2.47369e-11
2.95344e-11
-2.12254e-11
2.43233e-11
-1.74206e-11
2.00111e-11
-1.41443e-11
1.63277e-11
-1.14156e-11
1.32303e-11
-9.17536e-12
1.06654e-11
-7.35305e-12
8.56557e-12
-5.88003e-12
6.86048e-12
-4.69459e-12
5.48382e-12
-3.74353e-12
4.37683e-12
-2.9822e-12
3.48921e-12
-2.37371e-12
2.77895e-12
-1.88799e-12
2.21146e-12
-1.50069e-12
1.7586e-12
-1.19222e-12
1.39762e-12
-9.46856e-13
1.11016e-12
-7.52214e-13
8.80699e-13
-6.01787e-13
6.82334e-13
-5.54116e-13
1.46618e-13
5.44683e-13
-2.80354e-13
3.59473e-13
-2.43166e-13
2.84214e-13
-1.98371e-13
2.29176e-13
-1.62825e-13
1.86611e-13
-1.3547e-13
1.5376e-13
-1.14596e-13
1.28629e-13
-9.85287e-14
1.09908e-13
-8.37465e-14
9.46625e-14
-6.64677e-14
7.80108e-14
-4.82467e-14
5.92174e-14
-3.37843e-14
4.62664e-14
-8.50175e-15
2.08501e-14
4.22344e-15
9.79075e-16
2.35572e-16
6.90291e-17
-5.33757e-06
3.97655e-06
9.09603e-07
3.41459e-07
7.53466e-08
2.72899e-08
5.99278e-09
2.19326e-09
4.26046e-10
1.90144e-10
8.72317e-11
-5.73385e-12
2.70488e-11
-1.53623e-11
1.96028e-11
-1.33866e-11
1.611e-11
-1.0985e-11
1.32608e-11
-8.90832e-12
1.08262e-11
-7.1824e-12
8.77636e-12
-5.76852e-12
7.07724e-12
-4.62025e-12
5.68523e-12
-3.69316e-12
4.5543e-12
-2.9477e-12
3.64089e-12
-2.34999e-12
2.90622e-12
-1.87172e-12
2.31703e-12
-1.48959e-12
1.84551e-12
-1.18463e-12
1.46873e-12
-9.41507e-13
1.16802e-12
-7.47904e-13
9.28302e-13
-5.93947e-13
7.37371e-13
-4.71907e-13
5.84724e-13
-3.78672e-13
4.49003e-13
-3.6615e-13
1.04635e-13
3.81832e-13
-1.69836e-13
2.39864e-13
-1.52486e-13
1.8858e-13
-1.24821e-13
1.51882e-13
-1.0264e-13
1.23534e-13
-8.55797e-14
1.01646e-13
-7.25741e-14
8.4902e-14
-6.25357e-14
7.25326e-14
-5.30926e-14
6.26772e-14
-4.18111e-14
5.19389e-14
-2.99749e-14
3.96032e-14
-2.06627e-14
3.16091e-14
-3.91993e-15
1.47401e-14
3.68763e-15
8.7876e-16
2.12329e-16
6.22556e-17
-3.57257e-06
2.53008e-06
7.01987e-07
2.5428e-07
6.00115e-08
2.04843e-08
4.78493e-09
1.64377e-09
3.48008e-10
1.41254e-10
6.29664e-11
-8.49436e-13
1.75888e-11
-9.09167e-12
1.23815e-11
-8.05425e-12
1.01541e-11
-6.6087e-12
8.36199e-12
-5.353e-12
6.83039e-12
-4.31157e-12
5.53936e-12
-3.4602e-12
4.46825e-12
-2.76988e-12
3.59016e-12
-2.21318e-12
2.87645e-12
-1.76592e-12
2.29982e-12
-1.40752e-12
1.83592e-12
-1.12085e-12
1.46383e-12
-8.91882e-13
1.16601e-12
-7.09195e-13
9.28007e-13
-5.63582e-13
7.38044e-13
-4.4765e-13
5.8659e-13
-3.55479e-13
4.65942e-13
-2.82474e-13
3.69339e-13
-2.27389e-13
2.81219e-13
-2.29768e-13
7.02668e-14
2.52023e-13
-9.78709e-14
1.52249e-13
-9.12202e-14
1.19056e-13
-7.49365e-14
9.57831e-14
-6.1732e-14
7.78272e-14
-5.158e-14
6.39567e-14
-4.38495e-14
5.33468e-14
-3.78647e-14
4.55661e-14
-3.21102e-14
3.94893e-14
-2.50944e-14
3.28853e-14
-1.77693e-14
2.51779e-14
-1.2046e-14
2.04616e-14
-1.50712e-15
9.81779e-15
2.82161e-15
6.92496e-16
1.68282e-16
4.93833e-17
-2.05172e-06
1.40079e-06
4.39131e-07
1.5695e-07
3.84805e-08
1.27229e-08
3.07375e-09
1.0201e-09
2.26284e-10
8.71779e-11
3.81014e-11
7.32646e-13
9.92446e-12
-4.7547e-12
6.82994e-12
-4.27356e-12
5.59169e-12
-3.50645e-12
4.60637e-12
-2.83744e-12
3.76417e-12
-2.28351e-12
3.05363e-12
-1.83146e-12
2.46373e-12
-1.4654e-12
1.97989e-12
-1.17048e-12
1.58648e-12
-9.337e-13
1.26856e-12
-7.44058e-13
1.01275e-12
-5.92428e-13
8.0754e-13
-4.71346e-13
6.43274e-13
-3.74757e-13
5.11992e-13
-2.97783e-13
4.07202e-13
-2.36508e-13
3.23649e-13
-1.87802e-13
2.57082e-13
-1.4925e-13
2.03717e-13
-1.20478e-13
1.54078e-13
-1.25951e-13
4.05209e-14
1.43385e-13
-4.99894e-14
8.43056e-14
-4.81687e-14
6.56448e-14
-3.96913e-14
5.27682e-14
-3.27469e-14
4.28428e-14
-2.74097e-14
3.51732e-14
-2.33493e-14
2.93069e-14
-2.01976e-14
2.50284e-14
-1.71118e-14
2.1738e-14
-1.32891e-14
1.81701e-14
-9.31301e-15
1.39556e-14
-6.22124e-15
1.14913e-14
-4.27184e-16
5.62763e-15
1.76055e-15
4.41839e-16
1.07901e-16
3.16842e-17
-6.69e-07
4.48051e-07
1.4908e-07
5.30634e-08
1.32374e-08
4.31574e-09
1.0582e-09
3.45841e-10
7.83016e-11
2.94741e-11
1.27557e-11
4.44757e-13
3.20928e-12
-1.47311e-12
2.18166e-12
-1.33543e-12
1.78443e-12
-1.09572e-12
1.47025e-12
-8.86173e-13
1.2017e-12
-7.12833e-13
9.75026e-13
-5.71511e-13
7.86764e-13
-4.5716e-13
6.32312e-13
-3.65083e-13
5.06704e-13
-2.91187e-13
4.05183e-13
-2.32019e-13
3.23488e-13
-1.8472e-13
2.57948e-13
-1.46956e-13
2.05483e-13
-1.16834e-13
1.63551e-13
-9.28314e-14
1.30079e-13
-7.3726e-14
1.0339e-13
-5.85413e-14
8.21251e-14
-4.65269e-14
6.50661e-14
-3.76196e-14
4.90292e-14
-4.00732e-14
1.32494e-14
4.65354e-14
-1.52682e-14
2.69854e-14
-1.50104e-14
2.09628e-14
-1.23909e-14
1.6843e-14
-1.02321e-14
1.36691e-14
-8.57322e-15
1.1216e-14
-7.31191e-15
9.33977e-15
-6.33138e-15
7.97535e-15
-5.36128e-15
6.9349e-15
-4.14874e-15
5.80819e-15
-2.89014e-15
4.46864e-15
-1.9138e-15
3.70511e-15
-6.68613e-17
1.83396e-15
5.97347e-16
1.51672e-16
3.71374e-17
1.08958e-17
6.69027e-07
-4.48057e-07
-1.49092e-07
-5.30721e-08
-1.32425e-08
-4.31822e-09
-1.05924e-09
-3.46237e-10
-7.84396e-11
-2.95188e-11
-1.27692e-11
-4.48354e-13
-3.20989e-12
1.47335e-12
-2.18122e-12
1.33589e-12
-1.78401e-12
1.0961e-12
-1.46992e-12
8.86471e-13
-1.20144e-12
7.13066e-13
-9.74818e-13
5.71695e-13
-7.86601e-13
4.57305e-13
-6.32183e-13
3.65197e-13
-5.06602e-13
2.91278e-13
-4.05103e-13
2.32091e-13
-3.23424e-13
1.84777e-13
-2.57897e-13
1.47001e-13
-2.05443e-13
1.1687e-13
-1.63519e-13
9.286e-14
-1.30054e-13
7.37488e-14
-1.0337e-13
5.85595e-14
-8.21089e-14
4.65413e-14
-6.50535e-14
3.76302e-14
-4.90206e-14
4.00797e-14
-1.32444e-14
-4.65311e-14
1.52725e-14
-2.6981e-14
1.50147e-14
-2.09589e-14
1.23945e-14
-1.684e-14
1.02347e-14
-1.36669e-14
8.57503e-15
-1.12146e-14
7.31298e-15
-9.33904e-15
6.33179e-15
-7.97524e-15
5.36114e-15
-6.93526e-15
4.14821e-15
-5.80884e-15
2.88942e-15
-4.46938e-15
1.9131e-15
-3.70573e-15
6.63774e-17
-1.8343e-15
-5.97545e-16
-1.51769e-16
-3.71791e-17
-1.09499e-17
2.05174e-06
-1.4008e-06
-4.39138e-07
-1.56955e-07
-3.84839e-08
-1.27246e-08
-3.07445e-09
-1.02037e-09
-2.26377e-10
-8.72079e-11
-3.81104e-11
-7.34932e-13
-9.92475e-12
4.75497e-12
-6.82954e-12
4.27396e-12
-5.59133e-12
3.50678e-12
-4.60607e-12
2.8377e-12
-3.76394e-12
2.28372e-12
-3.05345e-12
1.83162e-12
-2.46358e-12
1.46553e-12
-1.97978e-12
1.17058e-12
-1.58639e-12
9.3378e-13
-1.26849e-12
7.44121e-13
-1.0127e-12
5.92479e-13
-8.07495e-13
4.71386e-13
-6.43238e-13
3.74789e-13
-5.11964e-13
2.97808e-13
-4.0718e-13
2.36528e-13
-3.23631e-13
1.87818e-13
-2.57067e-13
1.49262e-13
-2.03706e-13
1.20488e-13
-1.5407e-13
1.25957e-13
-4.05159e-14
-1.4338e-13
4.99936e-14
-8.43015e-14
4.81725e-14
-6.56413e-14
3.96944e-14
-5.27655e-14
3.27493e-14
-4.28408e-14
2.74114e-14
-3.51719e-14
2.33504e-14
-2.93061e-14
2.01981e-14
-2.50281e-14
1.71118e-14
-2.17381e-14
1.32889e-14
-1.81704e-14
9.31259e-15
-1.3956e-14
6.22079e-15
-1.14917e-14
4.26867e-16
-5.62785e-15
-1.76068e-15
-4.41902e-16
-1.07928e-16
-3.1721e-17
3.57258e-06
-2.53008e-06
-7.01988e-07
-2.5428e-07
-6.00119e-08
-2.04845e-08
-4.78502e-09
-1.6438e-09
-3.4802e-10
-1.41257e-10
-6.29674e-11
8.49351e-13
-1.75886e-11
9.09189e-12
-1.23813e-11
8.05445e-12
-1.01539e-11
6.60886e-12
-8.36184e-12
5.35313e-12
-6.83028e-12
4.31167e-12
-5.53926e-12
3.46028e-12
-4.46817e-12
2.76994e-12
-3.59011e-12
2.21323e-12
-2.8764e-12
1.76596e-12
-2.29979e-12
1.40755e-12
-1.83589e-12
1.12088e-12
-1.46381e-12
8.91903e-13
-1.16599e-12
7.09211e-13
-9.27992e-13
5.63595e-13
-7.38032e-13
4.4766e-13
-5.86581e-13
3.55487e-13
-4.65934e-13
2.8248e-13
-3.69333e-13
2.27394e-13
-2.81215e-13
2.29771e-13
-7.02635e-14
-2.5202e-13
9.78735e-14
-1.52247e-13
9.12223e-14
-1.19054e-13
7.49381e-14
-9.57816e-14
6.17333e-14
-7.7826e-14
5.1581e-14
-6.39559e-14
4.38502e-14
-5.33462e-14
3.78652e-14
-4.55657e-14
3.21105e-14
-3.94891e-14
2.50946e-14
-3.28852e-14
1.77693e-14
-2.51779e-14
1.20459e-14
-2.04616e-14
1.50709e-15
-9.81781e-15
-2.82162e-15
-6.92501e-16
-1.68283e-16
-4.93889e-17
5.33756e-06
-3.97655e-06
-9.09596e-07
-3.41453e-07
-7.53434e-08
-2.72884e-08
-5.99214e-09
-2.19301e-09
-4.2596e-10
-1.90116e-10
-8.72233e-11
5.73618e-12
-2.70483e-11
1.53623e-11
-1.9603e-11
1.33864e-11
-1.61102e-11
1.09848e-11
-1.32609e-11
8.90818e-12
-1.08263e-11
7.18229e-12
-8.77645e-12
5.76843e-12
-7.07731e-12
4.62018e-12
-5.68528e-12
3.69311e-12
-4.55435e-12
2.94766e-12
-3.64093e-12
2.34996e-12
-2.90625e-12
1.8717e-12
-2.31705e-12
1.48957e-12
-1.84552e-12
1.18461e-12
-1.46874e-12
9.41495e-13
-1.16804e-12
7.47894e-13
-9.28311e-13
5.93939e-13
-7.37378e-13
4.71901e-13
-5.8473e-13
3.78668e-13
-4.49007e-13
3.66147e-13
-1.04637e-13
-3.81833e-13
1.69834e-13
-2.39865e-13
1.52485e-13
-1.88581e-13
1.2482e-13
-1.51883e-13
1.02639e-13
-1.23535e-13
8.55789e-14
-1.01647e-13
7.25738e-14
-8.49022e-14
6.25357e-14
-7.25325e-14
5.30928e-14
-6.26769e-14
4.18115e-14
-5.19385e-14
2.99754e-14
-3.96027e-14
2.06631e-14
-3.16087e-14
3.92024e-15
-1.47399e-14
-3.68751e-15
-8.78698e-16
-2.12302e-16
-6.22225e-17
7.47515e-06
-5.91821e-06
-1.01722e-06
-4.16529e-07
-8.19454e-08
-3.30189e-08
-6.49819e-09
-2.66052e-09
-4.42503e-10
-2.33602e-10
-1.11057e-10
1.56669e-11
-3.95056e-11
2.47363e-11
-2.95353e-11
2.12245e-11
-2.43241e-11
1.74199e-11
-2.00117e-11
1.41438e-11
-1.63282e-11
1.14151e-11
-1.32306e-11
9.17502e-12
-1.06657e-11
7.35278e-12
-8.56581e-12
5.87981e-12
-6.86067e-12
4.69441e-12
-5.48398e-12
3.7434e-12
-4.37695e-12
2.98209e-12
-3.48931e-12
2.37363e-12
-2.77903e-12
1.88792e-12
-2.21152e-12
1.50064e-12
-1.75865e-12
1.19218e-12
-1.39766e-12
9.46822e-13
-1.11019e-12
7.52187e-13
-8.80723e-13
6.01766e-13
-6.82351e-13
5.54102e-13
-1.4663e-13
-5.44693e-13
2.80345e-13
-3.59482e-13
2.43158e-13
-2.84222e-13
1.98364e-13
-2.29181e-13
1.6282e-13
-1.86615e-13
1.35467e-13
-1.53764e-13
1.14593e-13
-1.2863e-13
9.85273e-14
-1.09909e-13
8.3746e-14
-9.46626e-14
6.64679e-14
-7.80103e-14
4.82473e-14
-5.92167e-14
3.37851e-14
-4.62657e-14
8.50227e-15
-2.08498e-14
-4.22322e-15
-9.78969e-16
-2.35529e-16
-6.89657e-17
-7.47816e-06
5.92054e-06
1.01752e-06
4.16817e-07
8.19975e-08
3.30491e-08
6.50533e-09
2.66267e-09
4.4412e-10
2.33791e-10
1.10141e-10
-1.50229e-11
3.87679e-11
-2.41742e-11
2.8903e-11
-2.07541e-11
2.37902e-11
-1.70311e-11
1.95671e-11
-1.3825e-11
1.59616e-11
-1.11556e-11
1.29308e-11
-8.96463e-12
1.04218e-11
-7.18289e-12
8.36839e-12
-5.74302e-12
6.70139e-12
-4.58455e-12
5.35583e-12
-3.65534e-12
4.2741e-12
-2.91164e-12
3.40692e-12
-2.31735e-12
2.71314e-12
-1.84305e-12
2.15892e-12
-1.4649e-12
1.71672e-12
-1.16375e-12
1.36428e-12
-9.24238e-13
1.08365e-12
-7.34249e-13
8.5967e-13
-5.87426e-13
6.66046e-13
-5.40912e-13
1.43103e-13
5.3171e-13
-2.73702e-13
3.5093e-13
-2.37412e-13
2.77477e-13
-1.93695e-13
2.23761e-13
-1.59009e-13
1.82221e-13
-1.32322e-13
1.50167e-13
-1.11967e-13
1.25651e-13
-9.63155e-14
1.07402e-13
-8.19317e-14
9.2568e-14
-6.50809e-14
7.63479e-14
-4.72646e-14
5.79841e-14
-3.31357e-14
4.53544e-14
-8.33873e-15
2.04438e-14
4.14111e-15
9.5999e-16
2.3098e-16
6.76839e-17
-5.3397e-06
3.97811e-06
9.09886e-07
3.41671e-07
7.53902e-08
2.73117e-08
5.99808e-09
2.19477e-09
4.27154e-10
1.90265e-10
8.65978e-11
-5.33222e-12
2.65609e-11
-1.50055e-11
1.91856e-11
-1.30883e-11
1.57573e-11
-1.07389e-11
1.29668e-11
-8.70692e-12
1.05837e-11
-7.01857e-12
8.57786e-12
-5.63584e-12
6.91575e-12
-4.51318e-12
5.55444e-12
-3.60701e-12
4.44876e-12
-2.87853e-12
3.55596e-12
-2.29458e-12
2.83803e-12
-1.8274e-12
2.2624e-12
-1.4542e-12
1.80182e-12
-1.15641e-12
1.43384e-12
-9.19042e-13
1.14021e-12
-7.30041e-13
9.06163e-13
-5.79757e-13
7.19769e-13
-4.60636e-13
5.70762e-13
-3.69636e-13
4.38285e-13
-3.57426e-13
1.02127e-13
3.72736e-13
-1.65808e-13
2.34162e-13
-1.48879e-13
1.84108e-13
-1.21881e-13
1.48292e-13
-1.00237e-13
1.20627e-13
-8.3593e-14
9.92683e-14
-7.09125e-14
8.29339e-14
-6.11351e-14
7.08747e-14
-5.19474e-14
6.12865e-14
-4.09436e-14
5.08292e-14
-2.93681e-14
3.87759e-14
-2.02697e-14
3.09852e-14
-3.84579e-15
1.44528e-14
3.61574e-15
8.6163e-16
2.08191e-16
6.10424e-17
-3.574e-06
2.53107e-06
7.02215e-07
2.5443e-07
6.00464e-08
2.05001e-08
4.78906e-09
1.64495e-09
3.48789e-10
1.41347e-10
6.25584e-11
-6.09244e-13
1.72816e-11
-8.87588e-12
1.21191e-11
-7.87413e-12
9.93207e-12
-6.46037e-12
8.17676e-12
-5.23179e-12
6.6775e-12
-4.21307e-12
5.41416e-12
-3.38051e-12
4.36635e-12
-2.70561e-12
3.50762e-12
-2.16149e-12
2.80982e-12
-1.72444e-12
2.2462e-12
-1.37429e-12
1.79287e-12
-1.09429e-12
1.42933e-12
-8.70677e-13
1.13841e-12
-6.92293e-13
9.0597e-13
-5.50129e-13
7.20475e-13
-4.36955e-13
5.72602e-13
-3.46984e-13
4.5482e-13
-2.75726e-13
3.6052e-13
-2.21963e-13
2.74506e-13
-2.24294e-13
6.85828e-14
2.46019e-13
-9.55511e-14
1.4863e-13
-8.90633e-14
1.16232e-13
-7.31721e-14
9.35185e-14
-6.02873e-14
7.59947e-14
-5.0384e-14
6.24594e-14
-4.28473e-14
5.21086e-14
-3.7019e-14
4.45223e-14
-3.14207e-14
3.86109e-14
-2.45767e-14
3.21812e-14
-1.74115e-14
2.46506e-14
-1.18192e-14
2.00573e-14
-1.47945e-15
9.62632e-15
2.7666e-15
6.78997e-16
1.65002e-16
4.8421e-17
-2.05254e-06
1.40134e-06
4.39277e-07
1.5704e-07
3.85029e-08
1.27326e-08
3.07637e-09
1.02085e-09
2.2675e-10
8.72371e-11
3.78736e-11
8.59416e-13
9.75548e-12
-4.6397e-12
6.68569e-12
-4.1777e-12
5.46956e-12
-3.42763e-12
4.50439e-12
-2.77311e-12
3.67996e-12
-2.23128e-12
2.98465e-12
-1.78923e-12
2.40757e-12
-1.43136e-12
1.93439e-12
-1.14312e-12
1.54975e-12
-9.11748e-13
1.239e-12
-7.26481e-13
9.89007e-13
-5.78378e-13
7.88511e-13
-4.60133e-13
6.28052e-13
-3.65822e-13
4.99837e-13
-2.90672e-13
3.9751e-13
-2.30856e-13
3.15932e-13
-1.83314e-13
2.50945e-13
-1.45684e-13
1.98853e-13
-1.17603e-13
1.50399e-13
-1.2295e-13
3.95499e-14
1.39969e-13
-4.88051e-14
8.23011e-14
-4.70301e-14
6.40877e-14
-3.87571e-14
5.15204e-14
-3.1981e-14
4.18337e-14
-2.67747e-14
3.43493e-14
-2.28164e-14
2.86259e-14
-1.97475e-14
2.44541e-14
-1.67457e-14
2.12535e-14
-1.30162e-14
1.77804e-14
-9.12642e-15
1.36627e-14
-6.10514e-15
1.1264e-14
-4.19913e-16
5.51785e-15
1.72623e-15
4.33226e-16
1.05798e-16
3.10668e-17
-6.69267e-07
4.48226e-07
1.4913e-07
5.30934e-08
1.32451e-08
4.31899e-09
1.05909e-09
3.46098e-10
7.84563e-11
2.94943e-11
1.26825e-11
4.84244e-13
3.15538e-12
-1.43709e-12
2.13567e-12
-1.30543e-12
1.74548e-12
-1.07107e-12
1.43772e-12
-8.66065e-13
1.17482e-12
-6.96516e-13
9.53007e-13
-5.58324e-13
7.68837e-13
-4.46534e-13
6.17784e-13
-3.56543e-13
4.94974e-13
-2.84337e-13
3.95741e-13
-2.26535e-13
3.15905e-13
-1.80338e-13
2.51871e-13
-1.43459e-13
2.00621e-13
-1.14047e-13
1.59668e-13
-9.06142e-14
1.26983e-13
-7.19639e-14
1.00925e-13
-5.7142e-14
8.01649e-14
-4.54154e-14
6.35125e-14
-3.67219e-14
4.78587e-14
-3.91187e-14
1.29319e-14
4.54267e-14
-1.49065e-14
2.63437e-14
-1.46557e-14
2.04656e-14
-1.20994e-14
1.64447e-14
-9.99285e-15
1.33471e-14
-8.3747e-15
1.09532e-14
-7.14516e-15
9.12264e-15
-6.19048e-15
7.79219e-15
-5.24684e-15
6.78018e-15
-4.06377e-15
5.68354e-15
-2.8324e-15
4.37478e-15
-1.87828e-15
3.6318e-15
-6.59155e-17
1.79818e-15
5.857e-16
1.48715e-16
3.64135e-17
1.06834e-17
6.69293e-07
-4.48231e-07
-1.49142e-07
-5.31021e-08
-1.32502e-08
-4.32147e-09
-1.06014e-09
-3.46495e-10
-7.85943e-11
-2.95391e-11
-1.2696e-11
-4.87861e-13
-3.156e-12
1.43731e-12
-2.13524e-12
1.30587e-12
-1.74506e-12
1.07144e-12
-1.43739e-12
8.66356e-13
-1.17457e-12
6.96745e-13
-9.52805e-13
5.58503e-13
-7.68677e-13
4.46676e-13
-6.17658e-13
3.56655e-13
-4.94875e-13
2.84426e-13
-3.95662e-13
2.26605e-13
-3.15843e-13
1.80393e-13
-2.51821e-13
1.43503e-13
-2.00582e-13
1.14083e-13
-1.59637e-13
9.06421e-14
-1.26959e-13
7.19862e-14
-1.00905e-13
5.71598e-14
-8.01491e-14
4.54295e-14
-6.35002e-14
3.67323e-14
-4.78503e-14
3.91251e-14
-1.29271e-14
-4.54224e-14
1.49108e-14
-2.63394e-14
1.46598e-14
-2.04617e-14
1.21028e-14
-1.64417e-14
9.99543e-15
-1.33449e-14
8.37648e-15
-1.09518e-14
7.14622e-15
-9.12192e-15
6.19088e-15
-7.79208e-15
5.2467e-15
-6.78053e-15
4.06326e-15
-5.68418e-15
2.8317e-15
-4.3755e-15
1.87759e-15
-3.6324e-15
6.54409e-17
-1.79851e-15
-5.85895e-16
-1.4881e-16
-3.64545e-17
-1.07365e-17
2.05256e-06
-1.40134e-06
-4.39284e-07
-1.57045e-07
-3.85063e-08
-1.27342e-08
-3.07707e-09
-1.02112e-09
-2.26842e-10
-8.72671e-11
-3.78825e-11
-8.61718e-13
-9.75578e-12
4.63996e-12
-6.6853e-12
4.17809e-12
-5.4692e-12
3.42795e-12
-4.50411e-12
2.77336e-12
-3.67973e-12
2.23148e-12
-2.98448e-12
1.78938e-12
-2.40743e-12
1.43148e-12
-1.93428e-12
1.14321e-12
-1.54966e-12
9.11826e-13
-1.23893e-12
7.26543e-13
-9.88952e-13
5.78428e-13
-7.88467e-13
4.60172e-13
-6.28017e-13
3.65853e-13
-4.99809e-13
2.90697e-13
-3.97488e-13
2.30876e-13
-3.15914e-13
1.83329e-13
-2.50931e-13
1.45697e-13
-1.98842e-13
1.17613e-13
-1.50392e-13
1.22956e-13
-3.9545e-14
-1.39964e-13
4.88092e-14
-8.22971e-14
4.70339e-14
-6.40843e-14
3.87602e-14
-5.15177e-14
3.19834e-14
-4.18317e-14
2.67764e-14
-3.43479e-14
2.28175e-14
-2.86251e-14
1.97481e-14
-2.44538e-14
1.67458e-14
-2.12536e-14
1.3016e-14
-1.77808e-14
9.12601e-15
-1.36632e-14
6.10471e-15
-1.12644e-14
4.19603e-16
-5.51807e-15
-1.72636e-15
-4.33288e-16
-1.05824e-16
-3.11029e-17
3.574e-06
-2.53107e-06
-7.02216e-07
-2.54431e-07
-6.00469e-08
-2.05004e-08
-4.78915e-09
-1.64498e-09
-3.48801e-10
-1.41351e-10
-6.25594e-11
6.09152e-13
-1.72815e-11
8.87609e-12
-1.21189e-11
7.87432e-12
-9.93189e-12
6.46052e-12
-8.17662e-12
5.23192e-12
-6.67738e-12
4.21317e-12
-5.41407e-12
3.38059e-12
-4.36628e-12
2.70567e-12
-3.50757e-12
2.16154e-12
-2.80978e-12
1.72448e-12
-2.24616e-12
1.37432e-12
-1.79284e-12
1.09431e-12
-1.4293e-12
8.70698e-13
-1.13839e-12
6.92309e-13
-9.05956e-13
5.50142e-13
-7.20463e-13
4.36965e-13
-5.72593e-13
3.46993e-13
-4.54812e-13
2.75733e-13
-3.60514e-13
2.21968e-13
-2.74501e-13
2.24298e-13
-6.85796e-14
-2.46016e-13
9.55536e-14
-1.48627e-13
8.90654e-14
-1.1623e-13
7.31737e-14
-9.35171e-14
6.02886e-14
-7.59936e-14
5.03849e-14
-6.24585e-14
4.2848e-14
-5.2108e-14
3.70195e-14
-4.45219e-14
3.1421e-14
-3.86107e-14
2.45768e-14
-3.21811e-14
1.74116e-14
-2.46506e-14
1.18191e-14
-2.00573e-14
1.47942e-15
-9.62634e-15
-2.76662e-15
-6.79002e-16
-1.65003e-16
-4.84265e-17
5.33968e-06
-3.97811e-06
-9.09878e-07
-3.41666e-07
-7.5387e-08
-2.73101e-08
-5.99743e-09
-2.19452e-09
-4.27069e-10
-1.90237e-10
-8.65893e-11
5.33456e-12
-2.65604e-11
1.50055e-11
-1.91857e-11
1.30881e-11
-1.57575e-11
1.07388e-11
-1.29669e-11
8.70679e-12
-1.05838e-11
7.01846e-12
-8.57796e-12
5.63576e-12
-6.91582e-12
4.51312e-12
-5.55449e-12
3.60696e-12
-4.4488e-12
2.87849e-12
-3.55599e-12
2.29455e-12
-2.83806e-12
1.82738e-12
-2.26242e-12
1.45418e-12
-1.80183e-12
1.15639e-12
-1.43386e-12
9.1903e-13
-1.14023e-12
7.30031e-13
-9.06171e-13
5.79749e-13
-7.19776e-13
4.60629e-13
-5.70768e-13
3.69632e-13
-4.38288e-13
3.57423e-13
-1.02129e-13
-3.72738e-13
1.65806e-13
-2.34164e-13
1.48878e-13
-1.8411e-13
1.21879e-13
-1.48293e-13
1.00236e-13
-1.20628e-13
8.35923e-14
-9.92688e-14
7.09121e-14
-8.29341e-14
6.1135e-14
-7.08746e-14
5.19477e-14
-6.12862e-14
4.0944e-14
-5.08288e-14
2.93685e-14
-3.87754e-14
2.02702e-14
-3.09848e-14
3.84609e-15
-1.44526e-14
-3.61562e-15
-8.6157e-16
-2.08164e-16
-6.101e-17
7.47812e-06
-5.92054e-06
-1.01751e-06
-4.16808e-07
-8.19917e-08
-3.30463e-08
-6.50414e-09
-2.66222e-09
-4.43962e-10
-2.3374e-10
-1.10126e-10
1.50266e-11
-3.87676e-11
2.41735e-11
-2.89038e-11
2.07533e-11
-2.37909e-11
1.70304e-11
-1.95677e-11
1.38245e-11
-1.59621e-11
1.11551e-11
-1.29312e-11
8.96429e-12
-1.04221e-11
7.18262e-12
-8.36863e-12
5.74281e-12
-6.70158e-12
4.58438e-12