/*--------------------------------*- C++ -*----------------------------------*\
| =========                 |                                                 |
| \\      /  F ield         | OpenFOAM: The Open Source CFD Toolbox           |
|  \\    /   O peration     | Version:  5.x                                   |
|   \\  /    A nd           | Web:      www.OpenFOAM.org                      |
|    \\/     M anipulation  |                                                 |
\*---------------------------------------------------------------------------*/
FoamFile
{
    version     2.0;
    format      ascii;
    class       volScalarField;
    location    "3.7";
    object      T;
}
// * * * * * * * * * * * * * * * * * * * * * * * * * * * * * * * * * * * * * //

dimensions      [0 0 0 1 0 0 0];

internalField   nonuniform List<scalar> 
3200
(
9.3877e-11
6.02199e-11
5.77928e-11
4.29167e-11
4.147e-11
2.89007e-11
2.78599e-11
2.05073e-11
1.98345e-11
1.46773e-11
1.10045e-11
1.06591e-11
8.17018e-12
7.94315e-12
6.12179e-12
5.9555e-12
4.60014e-12
4.47606e-12
3.45906e-12
3.36579e-12
2.59915e-12
2.52878e-12
1.94955e-12
1.89638e-12
1.45847e-12
1.41828e-12
1.08739e-12
1.05704e-12
8.07373e-13
7.84493e-13
5.96528e-13
5.79323e-13
4.38219e-13
4.25323e-13
3.19776e-13
3.10147e-13
2.31538e-13
2.24382e-13
1.6614e-13
1.60851e-13
1.17965e-13
1.14083e-13
8.27406e-14
7.99137e-14
5.72136e-14
5.51752e-14
3.89141e-14
3.74599e-14
2.59593e-14
2.49036e-14
1.66791e-14
1.08791e-14
1.03488e-14
6.70973e-15
6.39358e-15
4.04308e-15
3.84218e-15
2.36532e-15
2.24059e-15
1.34186e-15
1.26679e-15
7.37288e-16
6.9351e-16
3.91089e-16
3.6632e-16
1.98613e-16
1.85003e-16
9.4689e-17
8.74364e-17
4.04158e-17
3.66991e-17
1.34115e-17
1.1673e-17
2.15821e-18
1.53489e-18
-5.27478e-19
-6.4843e-19
-6.69676e-19
-6.74499e-19
-6.75577e-19
9.02165e-11
6.26608e-11
5.71265e-11
4.40572e-11
4.06992e-11
2.98903e-11
2.74815e-11
2.10735e-11
1.95015e-11
1.48344e-11
1.13518e-11
1.05344e-11
8.36417e-12
7.83733e-12
6.26043e-12
5.87534e-12
4.70286e-12
4.41558e-12
3.536e-12
3.32008e-12
2.6571e-12
2.49419e-12
1.99332e-12
1.87022e-12
1.49156e-12
1.39852e-12
1.1124e-12
1.04214e-12
8.26255e-13
7.7329e-13
6.10755e-13
5.70927e-13
4.4891e-13
4.19055e-13
3.27782e-13
3.05491e-13
2.3751e-13
2.20943e-13
1.70571e-13
1.58328e-13
1.21235e-13
1.12247e-13
8.51361e-14
7.85911e-14
5.89536e-14
5.42338e-14
4.01639e-14
3.67957e-14
2.68275e-14
2.43651e-14
1.69342e-14
1.14348e-14
1.01791e-14
7.00228e-15
6.26812e-15
4.2298e-15
3.76415e-15
2.4834e-15
2.19423e-15
1.41429e-15
1.24021e-15
7.803e-16
6.7874e-16
4.15838e-16
3.58356e-16
2.12436e-16
1.80839e-16
1.02191e-16
8.53467e-17
4.43626e-17
3.57276e-17
1.54208e-17
1.13784e-17
3.03572e-18
1.57898e-18
-3.0809e-19
-5.97274e-19
-6.57678e-19
-6.71639e-19
-6.74765e-19
8.7658e-11
6.42204e-11
5.67613e-11
4.48089e-11
4.02262e-11
3.05436e-11
2.72628e-11
2.1446e-11
1.92922e-11
1.49439e-11
1.15924e-11
1.04637e-11
8.49235e-12
7.77346e-12
6.35136e-12
5.82662e-12
4.77014e-12
4.37875e-12
3.58637e-12
3.29221e-12
2.69502e-12
2.47311e-12
2.02196e-12
1.85427e-12
1.51321e-12
1.38647e-12
1.12877e-12
1.03306e-12
8.38614e-13
7.66465e-13
6.20069e-13
5.65815e-13
4.5591e-13
4.15242e-13
3.33026e-13
3.0266e-13
2.41422e-13
2.18853e-13
1.73476e-13
1.56797e-13
1.2338e-13
1.11135e-13
8.67083e-14
7.77915e-14
6.00965e-14
5.36661e-14
4.09853e-14
3.63951e-14
2.73953e-14
2.40251e-14
1.71119e-14
1.18206e-14
1.00861e-14
7.19706e-15
6.19478e-15
4.35357e-15
3.71868e-15
2.56178e-15
2.16749e-15
1.46248e-15
1.22504e-15
8.0897e-16
6.70419e-16
4.32366e-16
3.53925e-16
2.21685e-16
1.78556e-16
1.0722e-16
8.42218e-17
4.70149e-17
3.52226e-17
1.67793e-17
1.12556e-17
3.63772e-18
1.64024e-18
-1.52636e-19
-5.55275e-19
-6.47537e-19
-6.69209e-19
-6.74074e-19
8.60364e-11
6.51402e-11
5.65753e-11
4.52653e-11
3.99567e-11
3.09405e-11
2.71453e-11
2.16718e-11
1.91705e-11
1.50135e-11
1.17439e-11
1.04266e-11
8.57033e-12
7.73763e-12
6.40631e-12
5.79911e-12
4.81075e-12
4.35792e-12
3.61676e-12
3.27644e-12
2.7179e-12
2.46116e-12
2.03924e-12
1.84523e-12
1.52628e-12
1.37964e-12
1.13864e-12
1.02792e-12
8.46071e-13
7.626e-13
6.25689e-13
5.62921e-13
4.60135e-13
4.13085e-13
3.36192e-13
3.0106e-13
2.43785e-13
2.17674e-13
1.75231e-13
1.55934e-13
1.24676e-13
1.10509e-13
8.76589e-14
7.73421e-14
6.07879e-14
5.33477e-14
4.14826e-14
3.61705e-14
2.77375e-14
2.38265e-14
1.72245e-14
1.20639e-14
1.00391e-14
7.31627e-15
6.15492e-15
4.42903e-15
3.69405e-15
2.60963e-15
2.15315e-15
1.49193e-15
1.21701e-15
8.26526e-16
6.66068e-16
4.42503e-16
3.51642e-16
2.27366e-16
1.77398e-16
1.10314e-16
8.3664e-17
4.86498e-17
3.49831e-17
1.76206e-17
1.12163e-17
4.01477e-18
1.69326e-18
-5.28178e-20
-5.25699e-19
-6.40219e-19
-6.67446e-19
-6.73572e-19
8.52499e-11
6.55659e-11
5.64982e-11
4.54809e-11
3.9835e-11
3.1128e-11
2.70945e-11
2.17783e-11
1.91147e-11
1.50472e-11
1.18171e-11
1.04109e-11
8.60721e-12
7.72161e-12
6.43218e-12
5.78675e-12
4.82986e-12
4.34855e-12
3.63105e-12
3.26934e-12
2.72866e-12
2.45578e-12
2.04736e-12
1.84116e-12
1.53242e-12
1.37657e-12
1.14329e-12
1.0256e-12
8.49579e-13
7.60861e-13
6.28333e-13
5.6162e-13
4.62123e-13
4.12115e-13
3.37682e-13
3.00341e-13
2.44897e-13
2.17145e-13
1.76058e-13
1.55546e-13
1.25286e-13
1.10228e-13
8.81068e-14
7.7141e-14
6.11138e-14
5.32054e-14
4.1717e-14
3.60701e-14
2.78984e-14
2.37352e-14
1.72792e-14
1.21816e-14
1.00199e-14
7.37288e-15
6.13754e-15
4.46477e-15
3.68333e-15
2.63231e-15
2.14696e-15
1.50591e-15
1.21358e-15
8.34866e-16
6.6423e-16
4.47323e-16
3.5069e-16
2.3007e-16
1.76922e-16
1.11787e-16
8.34393e-17
4.94298e-17
3.48907e-17
1.80232e-17
1.12087e-17
4.19648e-18
1.72318e-18
-3.96101e-21
-5.10468e-19
-6.36391e-19
-6.66521e-19
-6.73308e-19
8.525e-11
6.55659e-11
5.64982e-11
4.54809e-11
3.9835e-11
3.1128e-11
2.70945e-11
2.17783e-11
1.91147e-11
1.50472e-11
1.1817e-11
1.04109e-11
8.60721e-12
7.72161e-12
6.43218e-12
5.78675e-12
4.82986e-12
4.34855e-12
3.63105e-12
3.26934e-12
2.72866e-12
2.45578e-12
2.04736e-12
1.84116e-12
1.53242e-12
1.37657e-12
1.14329e-12
1.0256e-12
8.49579e-13
7.60861e-13
6.28333e-13
5.6162e-13
4.62123e-13
4.12115e-13
3.37682e-13
3.00341e-13
2.44897e-13
2.17145e-13
1.76058e-13
1.55546e-13
1.25286e-13
1.10228e-13
8.81068e-14
7.7141e-14
6.11138e-14
5.32054e-14
4.1717e-14
3.60701e-14
2.78983e-14
2.37352e-14
1.72792e-14
1.21816e-14
1.00199e-14
7.37288e-15
6.13754e-15
4.46477e-15
3.68333e-15
2.63231e-15
2.14696e-15
1.50591e-15
1.21358e-15
8.34866e-16
6.64229e-16
4.47323e-16
3.50689e-16
2.30069e-16
1.76922e-16
1.11787e-16
8.34392e-17
4.94297e-17
3.48906e-17
1.80232e-17
1.12087e-17
4.19647e-18
1.72317e-18
-3.96534e-21
-5.10471e-19
-6.36392e-19
-6.66521e-19
-6.73308e-19
8.60366e-11
6.51403e-11
5.65753e-11
4.52653e-11
3.99568e-11
3.09405e-11
2.71453e-11
2.16718e-11
1.91705e-11
1.50135e-11
1.17439e-11
1.04266e-11
8.57033e-12
7.73763e-12
6.40631e-12
5.79911e-12
4.81075e-12
4.35792e-12
3.61676e-12
3.27644e-12
2.7179e-12
2.46116e-12
2.03924e-12
1.84523e-12
1.52628e-12
1.37964e-12
1.13864e-12
1.02792e-12
8.46071e-13
7.626e-13
6.25689e-13
5.62921e-13
4.60135e-13
4.13085e-13
3.36192e-13
3.0106e-13
2.43785e-13
2.17674e-13
1.75231e-13
1.55934e-13
1.24676e-13
1.10509e-13
8.76589e-14
7.73421e-14
6.07879e-14
5.33477e-14
4.14826e-14
3.61705e-14
2.77375e-14
2.38265e-14
1.72245e-14
1.20639e-14
1.00391e-14
7.31626e-15
6.15492e-15
4.42902e-15
3.69405e-15
2.60963e-15
2.15315e-15
1.49193e-15
1.21701e-15
8.26525e-16
6.66067e-16
4.42503e-16
3.51642e-16
2.27365e-16
1.77398e-16
1.10313e-16
8.36639e-17
4.86497e-17
3.4983e-17
1.76206e-17
1.12163e-17
4.01474e-18
1.69324e-18
-5.28294e-20
-5.25706e-19
-6.40222e-19
-6.67448e-19
-6.73571e-19
8.76583e-11
6.42205e-11
5.67614e-11
4.48089e-11
4.02262e-11
3.05436e-11
2.72628e-11
2.1446e-11
1.92922e-11
1.49439e-11
1.15924e-11
1.04637e-11
8.49235e-12
7.77347e-12
6.35136e-12
5.82663e-12
4.77014e-12
4.37875e-12
3.58637e-12
3.29222e-12
2.69502e-12
2.47311e-12
2.02196e-12
1.85427e-12
1.51321e-12
1.38647e-12
1.12877e-12
1.03306e-12
8.38615e-13
7.66465e-13
6.20069e-13
5.65815e-13
4.5591e-13
4.15242e-13
3.33026e-13
3.0266e-13
2.41422e-13
2.18854e-13
1.73476e-13
1.56797e-13
1.2338e-13
1.11135e-13
8.67083e-14
7.77915e-14
6.00965e-14
5.36661e-14
4.09853e-14
3.63951e-14
2.73953e-14
2.40251e-14
1.71119e-14
1.18206e-14
1.00861e-14
7.19706e-15
6.19478e-15
4.35357e-15
3.71868e-15
2.56178e-15
2.16749e-15
1.46247e-15
1.22504e-15
8.08969e-16
6.70418e-16
4.32366e-16
3.53925e-16
2.21685e-16
1.78556e-16
1.0722e-16
8.42217e-17
4.70148e-17
3.52225e-17
1.67792e-17
1.12555e-17
3.63768e-18
1.64021e-18
-1.52651e-19
-5.55283e-19
-6.47542e-19
-6.69211e-19
-6.74072e-19
9.02168e-11
6.26609e-11
5.71266e-11
4.40572e-11
4.06992e-11
2.98903e-11
2.74815e-11
2.10735e-11
1.95015e-11
1.48344e-11
1.13518e-11
1.05344e-11
8.36417e-12
7.83734e-12
6.26044e-12
5.87534e-12
4.70287e-12
4.41558e-12
3.536e-12
3.32008e-12
2.6571e-12
2.49419e-12
1.99332e-12
1.87022e-12
1.49156e-12
1.39852e-12
1.1124e-12
1.04214e-12
8.26256e-13
7.73291e-13
6.10755e-13
5.70927e-13
4.4891e-13
4.19056e-13
3.27782e-13
3.05491e-13
2.3751e-13
2.20943e-13
1.70571e-13
1.58328e-13
1.21235e-13
1.12247e-13
8.51361e-14
7.85911e-14
5.89537e-14
5.42338e-14
4.01639e-14
3.67956e-14
2.68275e-14
2.43651e-14
1.69342e-14
1.14348e-14
1.01791e-14
7.00228e-15
6.26812e-15
4.22979e-15
3.76414e-15
2.48339e-15
2.19423e-15
1.41429e-15
1.2402e-15
7.80299e-16
6.7874e-16
4.15838e-16
3.58355e-16
2.12436e-16
1.80839e-16
1.02191e-16
8.53466e-17
4.43625e-17
3.57275e-17
1.54208e-17
1.13783e-17
3.03569e-18
1.57895e-18
-3.08103e-19
-5.97281e-19
-6.57682e-19
-6.71641e-19
-6.74763e-19
9.38771e-11
6.02199e-11
5.77928e-11
4.29167e-11
4.147e-11
2.89007e-11
2.78599e-11
2.05073e-11
1.98345e-11
1.46773e-11
1.10045e-11
1.06591e-11
8.17018e-12
7.94315e-12
6.12179e-12
5.9555e-12
4.60014e-12
4.47606e-12
3.45906e-12
3.36579e-12
2.59915e-12
2.52878e-12
1.94956e-12
1.89638e-12
1.45847e-12
1.41828e-12
1.08739e-12
1.05704e-12
8.07373e-13
7.84493e-13
5.96528e-13
5.79323e-13
4.38219e-13
4.25323e-13
3.19776e-13
3.10147e-13
2.31538e-13
2.24382e-13
1.6614e-13
1.60851e-13
1.17965e-13
1.14083e-13
8.27406e-14
7.99137e-14
5.72136e-14
5.51752e-14
3.89141e-14
3.74599e-14
2.59593e-14
2.49036e-14
1.66791e-14
1.08791e-14
1.03488e-14
6.70973e-15
6.39357e-15
4.04308e-15
3.84218e-15
2.36532e-15
2.24059e-15
1.34186e-15
1.26679e-15
7.37288e-16
6.9351e-16
3.91089e-16
3.6632e-16
1.98613e-16
1.85003e-16
9.46889e-17
8.74364e-17
4.04158e-17
3.66991e-17
1.34115e-17
1.1673e-17
2.1582e-18
1.53488e-18
-5.27483e-19
-6.48433e-19
-6.69678e-19
-6.745e-19
-6.75576e-19
6.4253e-07
5.26474e-08
2.26531e-08
3.6082e-09
1.76719e-09
3.23696e-10
1.78364e-10
5.93896e-11
4.71831e-11
3.02979e-11
2.36476e-11
2.29223e-11
1.89608e-11
1.85756e-11
1.5373e-11
1.50668e-11
1.24173e-11
1.21654e-11
9.98935e-12
9.78321e-12
8.01083e-12
7.84339e-12
6.40914e-12
6.27393e-12
5.11885e-12
5.01011e-12
4.08311e-12
3.99593e-12
3.25384e-12
3.18411e-12
2.59116e-12
2.53548e-12
2.06237e-12
2.01796e-12
1.64089e-12
1.60551e-12
1.30526e-12
1.2771e-12
1.03821e-12
1.01581e-12
8.25864e-13
8.08057e-13
6.57122e-13
6.42974e-13
5.23082e-13
5.11844e-13
4.16619e-13
4.07676e-13
3.31953e-13
3.2454e-13
2.62306e-13
2.11722e-13
2.06805e-13
1.68383e-13
1.6475e-13
1.33947e-13
1.31035e-13
1.06114e-13
1.03749e-13
8.33869e-14
8.14432e-14
6.4595e-14
6.29755e-14
4.88161e-14
4.74451e-14
3.5344e-14
3.4175e-14
2.38636e-14
2.28908e-14
1.45398e-14
1.37776e-14
7.51995e-15
6.9583e-15
2.42835e-15
2.09774e-15
2.89311e-16
1.89911e-16
1.72995e-16
1.69176e-16
1.68322e-16
5.79576e-07
1.00632e-07
3.26064e-08
7.42946e-09
2.57872e-09
6.27939e-10
2.42826e-10
8.38624e-11
5.17027e-11
3.24295e-11
2.46398e-11
2.28304e-11
1.92843e-11
1.83846e-11
1.56104e-11
1.49014e-11
1.26126e-11
1.20296e-11
1.01501e-11
9.67308e-12
8.14199e-12
7.75456e-12
6.51546e-12
6.20256e-12
5.20457e-12
4.95294e-12
4.15196e-12
3.95022e-12
3.30899e-12
3.14762e-12
2.63525e-12
2.50639e-12
2.09756e-12
1.99479e-12
1.66895e-12
1.58707e-12
1.32761e-12
1.26243e-12
1.05599e-12
1.00415e-12
8.40006e-13
7.98797e-13
6.68361e-13
6.35619e-13
5.3201e-13
5.06001e-13
4.237e-13
4.02993e-13
3.3741e-13
3.20095e-13
2.63538e-13
2.16255e-13
2.04671e-13
1.71282e-13
1.62862e-13
1.36232e-13
1.29492e-13
1.07955e-13
1.0248e-13
8.48845e-14
8.03865e-14
6.58279e-14
6.20803e-14
4.98466e-14
4.66744e-14
3.62244e-14
3.35203e-14
2.46234e-14
2.23736e-14
1.51681e-14
1.3405e-14
7.99819e-15
6.69981e-15
2.80702e-15
2.04227e-15
4.63629e-16
2.30495e-16
1.82523e-16
1.71472e-16
1.68995e-16
5.35778e-07
1.32178e-07
4.08452e-08
1.04374e-08
3.27412e-09
8.69495e-10
2.98219e-10
1.03255e-10
5.5704e-11
3.41008e-11
2.53923e-11
2.28076e-11
1.95018e-11
1.82684e-11
1.5765e-11
1.47991e-11
1.27395e-11
1.19457e-11
1.02546e-11
9.60505e-12
8.22735e-12
7.69974e-12
6.58467e-12
6.15856e-12
5.2604e-12
4.91771e-12
4.19681e-12
3.92207e-12
3.34493e-12
3.12516e-12
2.66398e-12
2.48848e-12
2.12049e-12
1.98053e-12
1.68723e-12
1.57572e-12
1.34217e-12
1.25341e-12
1.06758e-12
9.96976e-13
8.49225e-13
7.93099e-13
6.75688e-13
6.31095e-13
5.3783e-13
5.02406e-13
4.28314e-13
4.00103e-13
3.40933e-13
3.17217e-13
2.64398e-13
2.19359e-13
2.03408e-13
1.7318e-13
1.617e-13
1.37719e-13
1.28539e-13
1.09152e-13
1.01696e-13
8.58575e-14
7.97316e-14
6.66279e-14
6.1524e-14
5.05142e-14
4.61944e-14
3.67947e-14
3.31131e-14
2.51171e-14
2.20545e-14
1.55785e-14
1.31781e-14
8.31201e-15
6.54504e-15
3.06053e-15
2.01934e-15
5.84114e-16
2.63664e-16
1.90571e-16
1.73423e-16
1.69568e-16
5.08124e-07
1.51233e-07
4.66461e-08
1.25151e-08
3.77895e-09
1.03763e-09
3.38525e-10
1.16738e-10
5.86629e-11
3.52546e-11
2.58991e-11
2.28134e-11
1.96361e-11
1.82028e-11
1.5858e-11
1.47403e-11
1.28157e-11
1.18975e-11
1.03173e-11
9.56602e-12
8.2786e-12
7.66833e-12
6.62624e-12
6.13336e-12
5.29394e-12
4.89755e-12
4.22376e-12
3.90596e-12
3.36652e-12
3.11231e-12
2.68125e-12
2.47824e-12
2.13428e-12
1.97237e-12
1.69822e-12
1.56923e-12
1.35093e-12
1.24825e-12
1.07455e-12
9.92877e-13
8.54767e-13
7.89844e-13
6.80093e-13
6.2851e-13
5.41329e-13
5.00351e-13
4.31087e-13
3.98446e-13
3.43034e-13
3.15499e-13
2.64944e-13
2.21296e-13
2.02714e-13
1.74327e-13
1.61037e-13
1.38613e-13
1.27993e-13
1.0987e-13
1.01246e-13
8.6441e-14
7.93549e-14
6.71071e-14
6.12033e-14
5.09135e-14
4.59171e-14
3.71357e-14
3.28781e-14
2.54132e-14
2.18717e-14
1.58258e-14
1.30497e-14
8.50175e-15
6.45889e-15
3.21625e-15
2.01213e-15
6.59985e-16
2.86927e-16
1.96373e-16
1.74838e-16
1.69983e-16
4.94744e-07
1.60194e-07
4.96278e-08
1.35764e-08
4.04373e-09
1.12395e-09
3.59694e-10
1.23657e-10
6.02297e-11
3.58443e-11
2.61543e-11
2.28223e-11
1.97003e-11
1.81733e-11
1.59016e-11
1.47136e-11
1.28514e-11
1.18756e-11
1.03467e-11
9.5483e-12
8.30263e-12
7.65407e-12
6.64574e-12
6.12193e-12
5.30967e-12
4.8884e-12
4.23641e-12
3.89866e-12
3.37666e-12
3.10648e-12
2.68935e-12
2.4736e-12
2.14075e-12
1.96868e-12
1.70338e-12
1.56629e-12
1.35504e-12
1.24591e-12
1.07782e-12
9.9102e-13
8.57369e-13
7.88369e-13
6.82161e-13
6.27339e-13
5.42971e-13
4.99421e-13
4.32388e-13
3.97693e-13
3.44015e-13
3.14698e-13
2.65209e-13
2.22226e-13
2.02409e-13
1.74866e-13
1.60737e-13
1.39032e-13
1.27745e-13
1.10207e-13
1.01041e-13
8.67144e-14
7.91834e-14
6.73314e-14
6.1057e-14
5.11003e-14
4.57905e-14
3.72952e-14
3.27709e-14
2.55519e-14
2.17888e-14
1.59419e-14
1.29919e-14
8.59112e-15
6.42062e-15
3.29036e-15
2.0108e-15
6.96666e-16
2.98875e-16
1.99407e-16
1.75581e-16
1.70201e-16
4.94744e-07
1.60194e-07
4.96277e-08
1.35763e-08
4.0437e-09
1.12394e-09
3.59689e-10
1.23655e-10
6.02289e-11
3.58441e-11
2.61542e-11
2.28223e-11
1.97003e-11
1.81733e-11
1.59016e-11
1.47136e-11
1.28514e-11
1.18756e-11
1.03467e-11
9.5483e-12
8.30264e-12
7.65407e-12
6.64574e-12
6.12193e-12
5.30967e-12
4.8884e-12
4.23641e-12
3.89866e-12
3.37666e-12
3.10648e-12
2.68935e-12
2.4736e-12
2.14075e-12
1.96868e-12
1.70338e-12
1.56629e-12
1.35504e-12
1.24591e-12
1.07782e-12
9.9102e-13
8.57369e-13
7.88369e-13
6.82161e-13
6.27339e-13
5.42971e-13
4.99421e-13
4.32388e-13
3.97693e-13
3.44015e-13
3.14698e-13
2.65209e-13
2.22226e-13
2.02409e-13
1.74866e-13
1.60737e-13
1.39032e-13
1.27745e-13
1.10207e-13
1.01041e-13
8.67144e-14
7.91834e-14
6.73314e-14
6.1057e-14
5.11003e-14
4.57905e-14
3.72952e-14
3.27709e-14
2.55519e-14
2.17888e-14
1.59419e-14
1.29919e-14
8.59112e-15
6.42061e-15
3.29036e-15
2.01079e-15
6.96665e-16
2.98874e-16
1.99407e-16
1.75581e-16
1.70201e-16
5.08124e-07
1.51233e-07
4.6646e-08
1.25149e-08
3.77888e-09
1.03759e-09
3.3851e-10
1.16732e-10
5.86609e-11
3.5254e-11
2.58989e-11
2.28133e-11
1.96361e-11
1.82028e-11
1.5858e-11
1.47403e-11
1.28157e-11
1.18975e-11
1.03173e-11
9.56603e-12
8.27861e-12
7.66833e-12
6.62625e-12
6.13336e-12
5.29394e-12
4.89755e-12
4.22376e-12
3.90596e-12
3.36652e-12
3.11231e-12
2.68125e-12
2.47824e-12
2.13428e-12
1.97237e-12
1.69823e-12
1.56923e-12
1.35093e-12
1.24825e-12
1.07455e-12
9.92877e-13
8.54767e-13
7.89844e-13
6.80093e-13
6.2851e-13
5.41329e-13
5.00352e-13
4.31087e-13
3.98446e-13
3.43034e-13
3.15499e-13
2.64944e-13
2.21296e-13
2.02714e-13
1.74327e-13
1.61037e-13
1.38613e-13
1.27993e-13
1.0987e-13
1.01246e-13
8.64411e-14
7.93549e-14
6.71071e-14
6.12033e-14
5.09135e-14
4.59171e-14
3.71357e-14
3.28781e-14
2.54132e-14
2.18717e-14
1.58258e-14
1.30496e-14
8.50174e-15
6.45888e-15
3.21625e-15
2.01212e-15
6.5998e-16
2.86924e-16
1.96372e-16
1.74837e-16
1.69982e-16
5.35779e-07
1.32178e-07
4.0845e-08
1.04372e-08
3.27402e-09
8.69448e-10
2.982e-10
1.03247e-10
5.57014e-11
3.40999e-11
2.5392e-11
2.28076e-11
1.95018e-11
1.82684e-11
1.5765e-11
1.47991e-11
1.27395e-11
1.19457e-11
1.02546e-11
9.60505e-12
8.22736e-12
7.69975e-12
6.58468e-12
6.15856e-12
5.2604e-12
4.91771e-12
4.19681e-12
3.92207e-12
3.34493e-12
3.12516e-12
2.66398e-12
2.48848e-12
2.1205e-12
1.98053e-12
1.68723e-12
1.57572e-12
1.34217e-12
1.25341e-12
1.06758e-12
9.96977e-13
8.49225e-13
7.931e-13
6.75688e-13
6.31095e-13
5.3783e-13
5.02406e-13
4.28314e-13
4.00103e-13
3.40934e-13
3.17217e-13
2.64398e-13
2.19359e-13
2.03408e-13
1.7318e-13
1.61701e-13
1.37719e-13
1.28539e-13
1.09152e-13
1.01696e-13
8.58576e-14
7.97317e-14
6.66279e-14
6.15241e-14
5.05142e-14
4.61944e-14
3.67947e-14
3.31131e-14
2.51171e-14
2.20545e-14
1.55785e-14
1.31781e-14
8.312e-15
6.54503e-15
3.06052e-15
2.01933e-15
5.84107e-16
2.6366e-16
1.90569e-16
1.73422e-16
1.69567e-16
5.79576e-07
1.00632e-07
3.26062e-08
7.42932e-09
2.57864e-09
6.27899e-10
2.42809e-10
8.3856e-11
5.17005e-11
3.24288e-11
2.46396e-11
2.28303e-11
1.92843e-11
1.83846e-11
1.56104e-11
1.49014e-11
1.26126e-11
1.20297e-11
1.01501e-11
9.67309e-12
8.142e-12
7.75457e-12
6.51546e-12
6.20257e-12
5.20458e-12
4.95295e-12
4.15196e-12
3.95023e-12
3.309e-12
3.14763e-12
2.63525e-12
2.50639e-12
2.09756e-12
1.99479e-12
1.66895e-12
1.58707e-12
1.32761e-12
1.26243e-12
1.05599e-12
1.00415e-12
8.40007e-13
7.98797e-13
6.68362e-13
6.3562e-13
5.3201e-13
5.06001e-13
4.237e-13
4.02994e-13
3.3741e-13
3.20095e-13
2.63539e-13
2.16255e-13
2.04672e-13
1.71282e-13
1.62862e-13
1.36232e-13
1.29492e-13
1.07955e-13
1.0248e-13
8.48845e-14
8.03866e-14
6.5828e-14
6.20803e-14
4.98466e-14
4.66744e-14
3.62244e-14
3.35203e-14
2.46234e-14
2.23736e-14
1.5168e-14
1.3405e-14
7.99818e-15
6.6998e-15
2.80701e-15
2.04227e-15
4.63624e-16
2.30492e-16
1.82522e-16
1.71472e-16
1.68995e-16
6.4253e-07
5.26474e-08
2.2653e-08
3.60815e-09
1.76715e-09
3.2368e-10
1.78357e-10
5.9387e-11
4.71822e-11
3.02976e-11
2.36475e-11
2.29223e-11
1.89608e-11
1.85757e-11
1.5373e-11
1.50668e-11
1.24173e-11
1.21654e-11
9.98936e-12
9.78322e-12
8.01083e-12
7.84339e-12
6.40915e-12
6.27393e-12
5.11886e-12
5.01012e-12
4.08311e-12
3.99593e-12
3.25384e-12
3.18411e-12
2.59116e-12
2.53548e-12
2.06237e-12
2.01796e-12
1.64089e-12
1.60551e-12
1.30526e-12
1.2771e-12
1.03821e-12
1.01581e-12
8.25864e-13
8.08058e-13
6.57122e-13
6.42974e-13
5.23082e-13
5.11844e-13
4.16619e-13
4.07676e-13
3.31953e-13
3.2454e-13
2.62306e-13
2.11722e-13
2.06805e-13
1.68383e-13
1.6475e-13
1.33947e-13
1.31035e-13
1.06114e-13
1.03749e-13
8.33869e-14
8.14432e-14
6.4595e-14
6.29755e-14
4.88161e-14
4.74452e-14
3.5344e-14
3.4175e-14
2.38636e-14
2.28908e-14
1.45397e-14
1.37776e-14
7.51995e-15
6.95829e-15
2.42835e-15
2.09774e-15
2.89309e-16
1.8991e-16
1.72995e-16
1.69176e-16
1.68322e-16
6.42798e-07
5.26807e-08
2.2674e-08
3.61051e-09
1.76816e-09
3.23145e-10
1.77692e-10
5.8688e-11
4.64809e-11
2.96869e-11
2.31311e-11
2.24152e-11
1.85346e-11
1.81573e-11
1.50239e-11
1.47243e-11
1.21332e-11
1.18868e-11
9.75919e-12
9.55766e-12
7.82511e-12
7.66145e-12
6.25974e-12
6.1276e-12
4.99896e-12
4.89272e-12
3.98709e-12
3.90193e-12
3.17708e-12
3.10898e-12
2.52989e-12
2.47551e-12
2.01352e-12
1.97016e-12
1.60199e-12
1.56745e-12
1.27432e-12
1.24682e-12
1.01361e-12
9.91741e-13
8.06324e-13
7.88942e-13
6.41607e-13
6.27797e-13
5.10768e-13
4.99798e-13
4.06847e-13
3.98118e-13
3.24202e-13
3.16966e-13
2.56215e-13
2.06836e-13
2.02036e-13
1.64526e-13
1.6098e-13
1.30906e-13
1.28063e-13
1.0373e-13
1.0142e-13
8.15368e-14
7.96387e-14
6.31831e-14
6.16012e-14
4.77681e-14
4.64285e-14
3.46012e-14
3.34582e-14
2.3373e-14
2.24212e-14
1.4247e-14
1.35008e-14
7.37222e-15
6.82193e-15
2.38095e-15
2.05683e-15
2.83604e-16
1.86141e-16
1.69555e-16
1.65811e-16
1.64973e-16
5.79818e-07
1.00684e-07
3.26302e-08
7.43421e-09
2.58016e-09
6.27634e-10
2.42212e-10
8.31773e-11
5.10134e-11
3.18199e-11
2.41156e-11
2.23282e-11
1.88522e-11
1.79706e-11
1.52562e-11
1.45626e-11
1.23242e-11
1.17541e-11
9.91633e-12
9.45002e-12
7.95333e-12
7.57465e-12
6.36365e-12
6.05788e-12
5.08273e-12
4.83687e-12
4.05436e-12
3.85729e-12
3.23096e-12
3.07335e-12
2.57295e-12
2.4471e-12
2.04789e-12
1.94753e-12
1.62939e-12
1.54944e-12
1.29613e-12
1.2325e-12
1.03097e-12
9.80361e-13
8.2013e-13
7.79902e-13
6.52579e-13
6.20619e-13
5.19483e-13
4.94095e-13
4.13759e-13
3.93547e-13
3.29529e-13
3.12626e-13
2.57418e-13
2.11261e-13
1.99953e-13
1.67356e-13
1.59136e-13
1.33136e-13
1.26556e-13
1.05527e-13
1.00182e-13
8.29992e-14
7.86065e-14
6.43873e-14
6.07265e-14
4.87747e-14
4.5675e-14
3.54615e-14
3.28177e-14
2.4116e-14
2.19148e-14
1.48619e-14
1.31358e-14
7.84048e-15
6.56838e-15
2.75215e-15
2.00242e-15
4.54525e-16
2.25934e-16
1.78897e-16
1.68062e-16
1.65633e-16
5.36004e-07
1.32243e-07
4.08717e-08
1.04439e-08
3.27596e-09
8.69379e-10
2.97654e-10
1.02583e-10
5.5024e-11
3.34922e-11
2.48631e-11
2.23086e-11
1.90658e-11
1.78572e-11
1.54076e-11
1.44626e-11
1.24483e-11
1.1672e-11
1.00185e-11
9.38352e-12
8.03678e-12
7.52108e-12
6.4313e-12
6.01489e-12
5.13728e-12
4.80246e-12
4.09818e-12
3.82979e-12
3.26606e-12
3.0514e-12
2.60101e-12
2.42962e-12
2.07028e-12
1.93361e-12
1.64724e-12
1.53836e-12
1.31035e-12
1.22369e-12
1.04229e-12
9.7336e-13
8.29128e-13
7.74341e-13
6.59731e-13
6.16202e-13
5.25164e-13
4.90586e-13
4.18263e-13
3.90725e-13
3.32968e-13
3.09817e-13
2.58258e-13
2.1429e-13
1.9872e-13
1.69209e-13
1.58002e-13
1.34589e-13
1.25626e-13
1.06696e-13
9.94157e-14
8.39494e-14
7.79668e-14
6.51685e-14
6.0183e-14
4.94268e-14
4.52058e-14
3.60187e-14
3.24193e-14
2.45987e-14
2.16023e-14
1.52636e-14
1.29135e-14
8.14774e-15
6.41654e-15
3.00066e-15
1.97991e-15
5.72659e-16
2.58456e-16
1.86788e-16
1.69974e-16
1.66194e-16
5.08338e-07
1.51305e-07
4.66745e-08
1.25228e-08
3.78109e-09
1.03764e-09
3.37994e-10
1.16076e-10
5.79891e-11
3.46468e-11
2.53668e-11
2.2316e-11
1.91978e-11
1.77931e-11
1.54986e-11
1.44051e-11
1.25228e-11
1.16249e-11
1.00799e-11
9.34538e-12
8.08688e-12
7.49039e-12
6.47193e-12
5.99027e-12
5.17005e-12
4.78276e-12
4.12451e-12
3.81406e-12
3.28715e-12
3.03886e-12
2.61787e-12
2.41962e-12
2.08374e-12
1.92565e-12
1.65797e-12
1.53203e-12
1.3189e-12
1.21866e-12
1.04909e-12
9.69359e-13
8.34539e-13
7.71163e-13
6.64031e-13
6.13679e-13
5.28579e-13
4.8858e-13
4.2097e-13
3.89108e-13
3.35019e-13
3.0814e-13
2.5879e-13
2.16181e-13
1.98042e-13
1.70329e-13
1.57355e-13
1.35461e-13
1.25093e-13
1.07398e-13
9.89759e-14
8.45191e-14
7.75988e-14
6.56364e-14
5.98696e-14
4.98169e-14
4.49346e-14
3.63519e-14
3.21893e-14
2.48882e-14
2.14233e-14
1.55055e-14
1.27876e-14
8.33349e-15
6.33199e-15
3.1533e-15
1.97283e-15
6.47051e-16
2.81266e-16
1.92477e-16
1.71362e-16
1.66602e-16
4.94953e-07
1.6027e-07
4.96572e-08
1.35847e-08
4.04602e-09
1.12403e-09
3.59181e-10
1.23e-10
5.9559e-11
3.5237e-11
2.56205e-11
2.23258e-11
1.92609e-11
1.77644e-11
1.55413e-11
1.4379e-11
1.25577e-11
1.16035e-11
1.01086e-11
9.32806e-12
8.11038e-12
7.47645e-12
6.49099e-12
5.9791e-12
5.18543e-12
4.77383e-12
4.13687e-12
3.80693e-12
3.29705e-12
3.03317e-12
2.62579e-12
2.41509e-12
2.09006e-12
1.92204e-12
1.66301e-12
1.52916e-12
1.32291e-12
1.21638e-12
1.05228e-12
9.67546e-13
8.37079e-13
7.69724e-13
6.66049e-13
6.12536e-13
5.30183e-13
4.87672e-13
4.2224e-13
3.88373e-13
3.35976e-13
3.07358e-13
2.59049e-13
2.1709e-13
1.97743e-13
1.70855e-13
1.57061e-13
1.3587e-13
1.24851e-13
1.07726e-13
9.8776e-14
8.4786e-14
7.74313e-14
6.58555e-14
5.97266e-14
4.99993e-14
4.48108e-14
3.65078e-14
3.20844e-14
2.50238e-14
2.1342e-14
1.56192e-14
1.27309e-14
8.42099e-15
6.29443e-15
3.22594e-15
1.97151e-15
6.83017e-16
2.92981e-16
1.95452e-16
1.7209e-16
1.66816e-16
4.94953e-07
1.6027e-07
4.96571e-08
1.35847e-08
4.04599e-09
1.12402e-09
3.59175e-10
1.22998e-10
5.95583e-11
3.52367e-11
2.56204e-11
2.23257e-11
1.92609e-11
1.77644e-11
1.55413e-11
1.4379e-11
1.25577e-11
1.16035e-11
1.01086e-11
9.32806e-12
8.11038e-12
7.47646e-12
6.49099e-12
5.9791e-12
5.18543e-12
4.77383e-12
4.13687e-12
3.80693e-12
3.29705e-12
3.03317e-12
2.62579e-12
2.41509e-12
2.09006e-12
1.92204e-12
1.66301e-12
1.52916e-12
1.32291e-12
1.21638e-12
1.05228e-12
9.67546e-13
8.37079e-13
7.69724e-13
6.66049e-13
6.12536e-13
5.30183e-13
4.87672e-13
4.2224e-13
3.88373e-13
3.35976e-13
3.07358e-13
2.59049e-13
2.1709e-13
1.97743e-13
1.70856e-13
1.57061e-13
1.3587e-13
1.24851e-13
1.07726e-13
9.87761e-14
8.4786e-14
7.74313e-14
6.58555e-14
5.97267e-14
4.99993e-14
4.48108e-14
3.65078e-14
3.20844e-14
2.50238e-14
2.1342e-14
1.56192e-14
1.27309e-14
8.42099e-15
6.29443e-15
3.22593e-15
1.97151e-15
6.83015e-16
2.9298e-16
1.95452e-16
1.7209e-16
1.66815e-16
5.08339e-07
1.51305e-07
4.66744e-08
1.25227e-08
3.78102e-09
1.0376e-09
3.37978e-10
1.16071e-10
5.79871e-11
3.46462e-11
2.53666e-11
2.2316e-11
1.91978e-11
1.77931e-11
1.54986e-11
1.44051e-11
1.25228e-11
1.16249e-11
1.00799e-11
9.34538e-12
8.08689e-12
7.49039e-12
6.47194e-12
5.99027e-12
5.17006e-12
4.78276e-12
4.12452e-12
3.81407e-12
3.28716e-12
3.03886e-12
2.61787e-12
2.41962e-12
2.08374e-12
1.92565e-12
1.65797e-12
1.53203e-12
1.3189e-12
1.21866e-12
1.04909e-12
9.69359e-13
8.34539e-13
7.71164e-13
6.64031e-13
6.13679e-13
5.2858e-13
4.88581e-13
4.2097e-13
3.89108e-13
3.35019e-13
3.08141e-13
2.5879e-13
2.16181e-13
1.98042e-13
1.70329e-13
1.57355e-13
1.35461e-13
1.25093e-13
1.07398e-13
9.8976e-14
8.45191e-14
7.75988e-14
6.56365e-14
5.98696e-14
4.98169e-14
4.49346e-14
3.63519e-14
3.21893e-14
2.48882e-14
2.14233e-14
1.55055e-14
1.27876e-14
8.33348e-15
6.33198e-15
3.15329e-15
1.97282e-15
6.47046e-16
2.81263e-16
1.92476e-16
1.71361e-16
1.66601e-16
5.36004e-07
1.32243e-07
4.08714e-08
1.04438e-08
3.27587e-09
8.69332e-10
2.97634e-10
1.02576e-10
5.50214e-11
3.34914e-11
2.48628e-11
2.23085e-11
1.90658e-11
1.78572e-11
1.54076e-11
1.44626e-11
1.24483e-11
1.1672e-11
1.00185e-11
9.38353e-12
8.03679e-12
7.52108e-12
6.4313e-12
6.01489e-12
5.13728e-12
4.80246e-12
4.09819e-12
3.8298e-12
3.26606e-12
3.05141e-12
2.60101e-12
2.42962e-12
2.07028e-12
1.93361e-12
1.64724e-12
1.53837e-12
1.31035e-12
1.22369e-12
1.04229e-12
9.7336e-13
8.29129e-13
7.74341e-13
6.59731e-13
6.16203e-13
5.25164e-13
4.90586e-13
4.18263e-13
3.90725e-13
3.32968e-13
3.09817e-13
2.58258e-13
2.14291e-13
1.9872e-13
1.6921e-13
1.58002e-13
1.34589e-13
1.25626e-13
1.06696e-13
9.94157e-14
8.39494e-14
7.79668e-14
6.51685e-14
6.0183e-14
4.94268e-14
4.52058e-14
3.60187e-14
3.24193e-14
2.45987e-14
2.16023e-14
1.52636e-14
1.29134e-14
8.14773e-15
6.41652e-15
3.00065e-15
1.9799e-15
5.72653e-16
2.58453e-16
1.86786e-16
1.69974e-16
1.66193e-16
5.79819e-07
1.00684e-07
3.263e-08
7.43407e-09
2.58008e-09
6.27594e-10
2.42195e-10
8.31709e-11
5.10111e-11
3.18191e-11
2.41154e-11
2.23282e-11
1.88522e-11
1.79706e-11
1.52562e-11
1.45626e-11
1.23242e-11
1.17541e-11
9.91633e-12
9.45002e-12
7.95334e-12
7.57465e-12
6.36366e-12
6.05788e-12
5.08273e-12
4.83688e-12
4.05437e-12
3.8573e-12
3.23096e-12
3.07335e-12
2.57295e-12
2.44711e-12
2.04789e-12
1.94754e-12
1.62939e-12
1.54945e-12
1.29613e-12
1.2325e-12
1.03097e-12
9.80362e-13
8.2013e-13
7.79903e-13
6.52579e-13
6.20619e-13
5.19483e-13
4.94095e-13
4.1376e-13
3.93547e-13
3.29529e-13
3.12626e-13
2.57419e-13
2.11261e-13
1.99953e-13
1.67356e-13
1.59136e-13
1.33137e-13
1.26556e-13
1.05527e-13
1.00182e-13
8.29993e-14
7.86065e-14
6.43873e-14
6.07265e-14
4.87747e-14
4.5675e-14
3.54615e-14
3.28177e-14
2.4116e-14
2.19148e-14
1.48619e-14
1.31358e-14
7.84047e-15
6.56837e-15
2.75214e-15
2.00241e-15
4.54519e-16
2.25931e-16
1.78896e-16
1.68061e-16
1.65632e-16
6.42798e-07
5.26807e-08
2.26739e-08
3.61045e-09
1.76812e-09
3.23129e-10
1.77685e-10
5.86855e-11
4.648e-11
2.96866e-11
2.3131e-11
2.24152e-11
1.85346e-11
1.81573e-11
1.50239e-11
1.47243e-11
1.21332e-11
1.18868e-11
9.75919e-12
9.55766e-12
7.82511e-12
7.66145e-12
6.25975e-12
6.12761e-12
4.99896e-12
4.89272e-12
3.9871e-12
3.90194e-12
3.17708e-12
3.10898e-12
2.52989e-12
2.47551e-12
2.01352e-12
1.97016e-12
1.60199e-12
1.56745e-12
1.27432e-12
1.24682e-12
1.01361e-12
9.91741e-13
8.06324e-13
7.88942e-13
6.41608e-13
6.27798e-13
5.10769e-13
4.99799e-13
4.06848e-13
3.98118e-13
3.24202e-13
3.16966e-13
2.56215e-13
2.06836e-13
2.02036e-13
1.64526e-13
1.6098e-13
1.30907e-13
1.28063e-13
1.0373e-13
1.0142e-13
8.15368e-14
7.96387e-14
6.31832e-14
6.16012e-14
4.77681e-14
4.64285e-14
3.46012e-14
3.34582e-14
2.3373e-14
2.24212e-14
1.4247e-14
1.35008e-14
7.37222e-15
6.82193e-15
2.38095e-15
2.05682e-15
2.83602e-16
1.8614e-16
1.69555e-16
1.6581e-16
1.64973e-16
9.28457e-11
5.92644e-11
5.68523e-11
4.2195e-11
4.07688e-11
2.83805e-11
2.73559e-11
2.01319e-11
1.94708e-11
1.4405e-11
1.07989e-11
1.04598e-11
8.0166e-12
7.79375e-12
6.00615e-12
5.84295e-12
4.51288e-12
4.39111e-12
3.39319e-12
3.30168e-12
2.54948e-12
2.48044e-12
1.91217e-12
1.86e-12
1.43041e-12
1.39098e-12
1.0664e-12
1.03663e-12
7.91737e-13
7.69295e-13
5.84938e-13
5.68064e-13
4.29678e-13
4.1703e-13
3.13523e-13
3.04081e-13
2.26997e-13
2.1998e-13
1.62871e-13
1.57685e-13
1.15637e-13
1.11831e-13
8.11028e-14
7.83314e-14
5.60778e-14
5.40795e-14