/*--------------------------------*- C++ -*----------------------------------*\
| =========                 |                                                 |
| \\      /  F ield         | OpenFOAM: The Open Source CFD Toolbox           |
|  \\    /   O peration     | Version:  5.x                                   |
|   \\  /    A nd           | Web:      www.OpenFOAM.org                      |
|    \\/     M anipulation  |                                                 |
\*---------------------------------------------------------------------------*/
FoamFile
{
    version     2.0;
    format      ascii;
    class       volScalarField;
    location    "3";
    object      gradTx;
}
// * * * * * * * * * * * * * * * * * * * * * * * * * * * * * * * * * * * * * //

dimensions      [0 -1 0 1 0 0 0];

internalField   nonuniform List<scalar> 
6300
(
207.59
208.563
210.489
213.323
216.997
221.41
226.431
231.888
237.572
243.234
248.59
253.338
257.171
259.801
260.988
206.615
207.609
209.579
212.483
216.255
220.801
225.992
231.66
237.593
243.537
249.197
254.252
258.371
261.243
262.603
204.643
205.678
207.733
210.771
214.737
219.545
225.074
231.164
237.601
244.121
250.407
256.099
260.817
264.194
265.915
201.634
202.727
204.901
208.131
212.375
217.564
223.595
230.318
237.525
244.939
252.209
258.917
264.601
268.798
271.103
197.53
198.691
201.01
204.476
209.067
214.741
221.422
228.986
237.239
245.898
254.571
262.758
269.872
275.292
278.463
192.264
193.497
195.971
199.694
204.674
210.907
218.364
226.963
236.546
246.84
257.416
267.671
276.833
284.035
288.459
185.761
187.061
189.68
193.652
199.026
205.85
214.161
223.954
235.141
247.497
260.581
273.675
285.753
295.552
301.805
177.958
179.305
182.033
186.208
191.925
199.304
208.474
219.548
232.567
247.423
263.734
280.694
296.948
310.615
319.611
168.805
170.167
172.939
177.219
183.16
190.964
200.883
213.194
228.154
245.894
266.237
288.415
310.728
330.346
343.67
158.289
159.616
162.333
166.57
172.53
180.508
190.896
204.189
220.958
241.758
266.902
295.998
327.201
356.369
377.015
146.444
147.674
150.207
154.194
159.881
167.641
178.004
191.707
209.729
233.278
263.613
301.47
345.707
390.91
425.163
133.366
134.429
136.626
140.115
145.158
152.168
161.769
174.903
192.971
218.009
252.798
300.56
363.245
436.397
499.123
119.225
120.046
121.752
124.48
128.468
134.102
142.001
153.165
169.241
192.986
229.009
284.722
370.313
492.306
623.82
104.261
104.778
105.855
107.584
110.131
113.77
118.965
126.511
137.842
155.683
185.527
239.004
340.977
538.687
865.682
88.7794
88.9498
89.3034
89.869
90.6985
91.8819
93.5769
96.0718
99.931
106.374
118.409
144.788
215.898
455.782
1439.96
260.723
259.181
256.444
252.543
247.541
241.526
234.604
226.888
218.49
209.517
200.067
190.228
180.078
169.684
159.108
148.403
137.62
126.803
115.995
105.237
94.566
84.0146
73.6135
63.3892
53.3641
43.5565
33.981
24.6481
15.5648
6.73505
-1.84037
-10.163
-18.2362
-26.0648
-33.6545
-41.0113
-48.141
-55.0489
-61.7397
-68.2177
-74.4865
-80.5499
-86.4121
-92.0782
-97.5544
-102.848
-107.969
-112.926
-117.73
-122.391
-126.917
-131.317
-135.595
-139.755
-143.796
-147.718
-151.516
-155.188
-158.73
-162.137
-165.408
-168.539
-171.528
-174.372
-177.065
-179.599
-181.961
-184.134
-186.095
-187.817
-189.268
-190.413
-191.216
-191.64
-191.652
-191.22
-190.319
-188.929
-187.037
-184.638
-181.735
-178.336
-174.464
-170.145
-165.419
-160.335
-154.953
-149.338
-143.567
-137.719
262.427
260.899
258.12
254.127
248.997
242.831
235.747
227.869
219.317
210.203
200.626
190.676
180.428
169.947
159.293
148.517
137.667
126.788
115.924
105.113
94.3926
83.7977
73.3586
63.1019
53.0502
43.2219
33.631
24.288
15.1993
6.36822
-2.20502
-10.5226
-18.5889
-26.4094
-33.9905
-41.3389
-48.4608
-55.3619
-62.0467
-68.5192
-74.7826
-80.8399
-86.6948
-92.3519
-97.8171
-103.098
-108.205
-113.147
-117.936
-122.584
-127.1
-131.492
-135.766
-139.925
-143.969
-147.894
-151.698
-155.376
-158.922
-162.334
-165.608
-168.742
-171.736
-174.588
-177.293
-179.845
-182.232
-184.438
-186.439
-188.206
-189.707
-190.905
-191.76
-192.233
-192.288
-191.893
-191.021
-189.649
-187.766
-185.364
-182.445
-179.018
-175.104
-170.729
-165.933
-160.765
-155.284
-149.562
-143.678
-137.714
265.923
264.418
261.54
257.348
251.943
245.456
238.033
229.82
220.952
211.552
201.723
191.552
181.111
170.46
159.652
148.736
137.755
126.754
115.774
104.856
94.0384
83.356
72.8404
62.5189
52.4143
42.5446
32.9237
23.561
14.4623
5.62948
-2.93834
-11.2449
-19.2961
-27.0992
-34.6622
-41.9931
-49.0992
-55.9867
-62.6601
-69.1224
-75.3758
-81.4219
-87.2629
-92.9021
-98.3451
-103.6
-108.677
-113.588
-118.347
-122.967
-127.46
-131.837
-136.103
-140.261
-144.31
-148.246
-152.062
-155.752
-159.308
-162.728
-166.008
-169.148
-172.149
-175.014
-177.741
-180.327
-182.764
-185.035
-187.116
-188.978
-190.583
-191.888
-192.851
-193.426
-193.572
-193.253
-192.439
-191.106
-189.24
-186.832
-183.883
-180.402
-176.405
-171.919
-166.981
-161.641
-155.962
-150.019
-143.9
-137.699
271.397
269.912
266.853
262.313
256.444
249.428
241.456
232.711
223.354
213.519
203.312
192.816
182.095
171.197
160.168
149.046
137.872
126.688
115.535
104.455
93.4889
82.6736
72.0423
61.6232
51.4394
41.5087
31.844
22.4535
13.3416
4.50865
-4.04841
-12.3356
-20.3612
-28.1353
-35.6686
-42.9715
-50.0531
-56.9204
-63.5778
-70.027
-76.268
-82.2997
-88.1217
-93.7351
-99.1445
-104.358
-109.387
-114.248
-118.957
-123.532
-127.989
-132.34
-136.595
-140.754
-144.815
-148.769
-152.607
-156.318
-159.892
-163.322
-166.608
-169.751
-172.758
-175.636
-178.391
-181.025
-183.533
-185.903
-188.109
-190.118
-191.887
-193.364
-194.498
-195.234
-195.524
-195.325
-194.603
-193.33
-191.491
-189.077
-186.086
-182.526
-178.408
-173.757
-168.606
-163.004
-157.017
-150.729
-144.241
-137.663
279.163
277.672
274.295
269.192
262.596
254.775
245.991
236.483
226.443
216.02
205.317
194.406
183.331
172.125
160.815
149.431
138.005
126.577
115.19
103.89
92.7217
81.7257
70.938
60.3883
50.0997
40.0893
30.3686
20.9444
11.8187
2.98992
-5.54775
-13.8034
-21.789
-29.5187
-37.0073
-44.269
-51.3161
-58.1569
-64.7956
-71.2319
-77.4619
-83.48
-89.281
-94.8623
-100.226
-105.381
-110.341
-115.127
-119.76
-124.267
-128.669
-132.984
-137.223
-141.388
-145.471
-149.46
-153.336
-157.081
-160.681
-164.125
-167.413
-170.551
-173.553
-176.434
-179.213
-181.901
-184.502
-187.004
-189.385
-191.604
-193.608
-195.334
-196.715
-197.684
-198.179
-198.15
-197.556
-196.368
-194.569
-192.15
-189.109
-185.449
-181.179
-176.314
-170.88
-164.921
-158.504
-151.726
-144.708
-137.589
289.714
288.146
284.222
278.22
270.513
261.505
251.57
241.018
230.084
218.922
207.623
196.229
184.755
173.201
161.57
149.875
138.14
126.406
114.72
103.136
91.7056
80.4773
69.4905
58.7767
48.3588
38.2521
28.466
19.0046
9.8679
1.05134
-7.4538
-15.6606
-23.586
-31.2498
-38.6732
-45.8764
-52.8765
-59.6848
-66.3053
-72.7342
-78.9614
-84.9734
-90.7569
-96.3029
-101.61
-106.685
-111.547
-116.223
-120.747
-125.153
-129.474
-133.738
-137.959
-142.139
-146.265
-150.313
-154.253
-158.054
-161.692
-165.152
-168.433
-171.547
-174.518
-177.38
-180.166
-182.903
-185.609
-188.28
-190.893
-193.399
-195.729
-197.8
-199.524
-200.813
-201.589
-201.787
-201.362
-200.284
-198.537
-196.116
-193.02
-189.25
-184.806
-179.688
-173.907
-167.493
-160.511
-153.067
-145.317
-137.447
303.81
302.01
297.142
289.699
280.302
269.569
258.034
246.105
234.051
222.02
210.063
198.168
186.293
174.388
162.418
150.374
138.275
126.164
114.103
102.159
90.3987
78.8804
67.6495
56.7387
46.1692
35.9529
26.0951
16.5969
7.45543
-1.33626
-9.79006
-17.9236
-25.7602
-33.3277
-40.6566
-47.7768
-54.7136
-61.4838
-68.0915
-74.5275
-80.7713
-86.7961
-92.5752
-98.0881
-103.326
-108.296
-113.022
-117.541
-121.902
-126.159
-130.363
-134.553
-138.754
-142.967
-147.169
-151.32
-155.368
-159.262
-162.96
-166.437
-169.692
-172.746
-175.642
-178.435
-181.187
-183.95
-186.764
-189.64
-192.554
-195.445
-198.22
-200.766
-202.958
-204.68
-205.827
-206.32
-206.107
-205.161
-203.475
-201.053
-197.902
-194.021
-189.399
-184.015
-177.844
-170.884
-163.179
-154.849
-146.098
-137.192
322.645
320.289
313.767
303.992
292.013
278.786
265.067
251.371
237.986
225.012
212.414
200.08
187.873
175.666
163.372
150.954
138.426
125.851
113.316
100.917
88.7434
76.8693
65.347
54.2088
43.4705
33.1366
23.2059
13.6749
4.53863
-4.21106
-12.5882
-20.6149
-28.3224
-35.7498
-42.9413
-49.9418
-56.7914
-63.5171
-70.1253
-76.598
-82.8969
-88.973
-94.777
-100.269
-105.429
-110.26
-114.793
-119.085
-123.208
-127.243
-131.27
-135.353
-139.532
-143.81
-148.148
-152.476
-156.706
-160.752
-164.544
-168.041
-171.239
-174.173
-176.912
-179.55
-182.189
-184.924
-187.83
-190.943
-194.245
-197.655
-201.041
-204.237
-207.07
-209.372
-211.005
-211.868
-211.905
-211.101
-209.47
-207.039
-203.831
-199.856
-195.09
-189.473
-182.917
-175.344
-166.745
-157.237
-147.101
-136.746
348.161
344.564
335.073
321.458
305.517
288.712
272.066
256.187
241.328
227.462
214.384
201.809
189.451
177.071
164.507
151.69
138.646
125.48
112.332
99.3489
86.6571
74.3512
62.4907
51.1026
40.189
29.7391
19.7403
10.1838
1.06449
-7.62311
-15.8915
-23.7665
-31.2887
-38.5124
-45.5015
-52.3247
-59.048
-65.7202
-72.3549
-78.9191
-85.3438
-91.5421
-97.428
-102.93
-108.006
-112.653
-116.913
-120.872
-124.64
-128.34
-132.096
-136.014
-140.168
-144.566
-149.142
-153.772
-158.307
-162.606
-166.553
-170.076
-173.166
-175.878
-178.327
-180.663
-183.051
-185.65
-188.596
-191.974
-195.78
-199.9
-204.132
-208.231
-211.942
-215.027
-217.292
-218.604
-218.911
-218.23
-216.616
-214.14
-210.865
-206.826
-202.003
-196.282
-189.451
-181.279
-171.618
-160.53
-148.415
-135.97
383.694
377.322
362.318
342.272
320.262
298.406
277.959
259.532
243.24
228.779
215.629
203.225
191.062
178.742
166.005
152.751
139.044
125.082
111.111
97.3618
84.0149
71.1916
58.9537
47.3125
36.2391
25.6913
15.6373
6.06225
-3.0321
-11.6396
-19.7624
-27.4267
-34.6857
-41.6138
-48.3012
-54.8524
-61.379
-67.9779
-74.6865
-81.442
-88.1171
-94.5617
-100.632
-106.205
-111.202
-115.602
-119.467
-122.933
-126.169
-129.359
-132.688
-136.337
-140.45
-145.065
-150.058
-155.203
-160.25
-164.968
-169.17
-172.735
-175.636
-177.962
-179.904
-181.702
-183.608
-185.874
-188.739
-192.388
-196.863
-201.98
-207.413
-212.783
-217.714
-221.862
-224.947
-226.785
-227.34
-226.699
-225.001
-222.39
-218.995
-214.924
-210.208
-204.687
-197.916
-189.356
-178.543
-165.298
-150.205
-134.584
435.41
422.504
396.823
365.912
334.786
306.07
280.941
259.803
242.514
228.208
215.8
204.296
192.898
181.012
168.25
154.464
139.808
124.698
109.57
94.7951
80.6183
67.1885
54.557
42.7042
31.5317
20.9319
10.8435
1.24772
-7.83057
-16.3549
-24.2943
-31.6715
-38.5601
-45.0624
-51.2978
-57.4163
-63.6065
-70.0783
-76.9513
-84.081
-91.223
-98.121
-104.551
-110.312
-115.257
-119.321
-122.598
-125.325
-127.765
-130.176
-132.819
-135.993
-140.009
-145.022
-150.754
-156.776
-162.666
-168.073
-172.703
-176.35
-178.932
-180.597
-181.688
-182.584
-183.646
-185.234
-187.751
-191.61
-197.019
-203.605
-210.785
-217.964
-224.611
-230.229
-234.393
-236.811
-237.488
-236.687
-234.7
-231.767
-228.098
-223.946
-219.569
-214.892
-208.955
-200.673
-188.97
-172.724
-152.755
-131.959
515.832
486.079
438.857
389.857
345.842
308.57
278.175
254.531
237.495
224.901
214.673
205.212
195.436
184.546
171.971
157.43
141.225
124.342
107.52
91.3667
76.1458
62.0354
49.0383
37.1156
25.9988
15.4351
5.33981
-4.31294
-13.4276
-21.9136
-29.6366
-36.6207
-42.9916
-48.8961
-54.4635
-59.8777
-65.429
-71.6015
-78.8472
-86.7026
-94.6809
-102.355
-109.433
-115.595
-120.582
-124.173
-126.522
-128.13
-129.404
-130.658
-132.185
-134.437
-138.132
-143.943
-151.031
-158.538
-165.777
-172.295
-177.652
-181.496
-183.551
-184.057
-183.753
-183.227
-182.926
-183.256
-184.827
-188.601
-195.479
-204.373
-214.157
-223.909
-232.987
-240.685
-246.354
-249.344
-249.761
-248.38
-245.762
-242.198
-237.896
-233.289
-229.362
-226.907
-223.368
-216.914
-205.935
-185.511
-156.495
-126.531
653.477
574.806
483.448
406.618
347.187
301.162
265.69
239.742
226.078
218.191
212.439
206.586
199.578
190.506
178.522
162.796
143.617
123.898
104.508
86.5955
70.0738
55.2791
41.9717
30.3659
19.6687
9.26312
-0.802253
-10.6495
-19.931
-28.572
-36.0439
-42.4543
-48.0957
-53.2165
-57.8505
-62.1427
-66.3577
-71.5803
-79.8656
-89.1481
-98.5775
-107.448
-115.635
-122.57
-127.918
-130.814
-131.512
-131.415
-131.074
-130.745
-130.507
-130.803
-133.21
-141.024
-150.705
-160.688
-169.923
-178.191
-184.78
-189.219
-190.398
-188.681
-186.139
-183.544
-181.296
-179.489
-178.732
-181.119
-191.037
-203.856
-217.573
-230.822
-243.351
-254.061
-262.168
-265.58
-264.622
-261.851
-258.181
-253.692
-248.128
-241.652
-237.031
-240.479
-241.977
-239.668
-236.499
-210.67
-161.594
-114.057
921.615
681.8
507.118
398.321
329.226
278.56
239.489
207.264
206.342
208.407
210.352
209.626
206.692
200.662
190.465
173.132
146.788
122.982
99.368
79.821
61.5146
46.3806
32.4544
22.3072
12.9179
2.60019
-7.25947
-17.8018
-27.3579
-36.9151
-43.9809
-49.396
-53.9505
-58.2386
-61.7304
-64.5198
-65.836
-67.1494
-79.4485
-91.3829
-103.28
-113.524
-123.643
-131.832
-138.784
-140.619
-137.649
-135.052
-132.728
-130.703
-128.062
-124.128
-120.499
-135.419
-149.944
-163.913
-175.463
-186.503
-195.005
-201.634
-201.416
-194.493
-188.598
-183.362
-179.032
-174.207
-168.109
-162.79
-182.417
-202.044
-221.662
-238.769
-256.331
-271.185
-284.741
-288.106
-282.09
-276.615
-271.775
-266.733
-259.671
-247.34
-233.077
-256.858
-266.065
-263.657
-299.692
-269.302
-164.476
-82.5414
1528.56
694.995
435.911
332.854
284.729
239.26
203.428
129.714
182.305
198.797
212.115
215.846
218.267
216.821
212.684
196.445
146.304
121.792
88.3709
71.2602
48.3867
35.7424
17.4947
13.1563
7.50285
-4.72346
-12.735
-26.3755
-34.785
-48.8471
-54.2964
-57.5785
-60.19
-64.4088
-66.6226
-69.0191
-65.319
-46.8998
-79.5573
-93.6723
-110.363
-119.78
-134.43
-142.874
-157.02
-157.345
-143.251
-138.294
-133.951
-131.547
-127.478
-117.013
-81.0797
-130.383
-149.982
-170.621
-181.737
-198.468
-207.926
-223.91
-222.09
-198.823
-190.107
-181.876
-177.478
-170.758
-156.364
-108.54
-173.793
-200.243
-229.367
-246.058
-273.208
-290.174
-321.986
-324.138
-298.778
-290.46
-285.659
-282.677
-278.802
-255.804
-174.339
-294.218
-306.876
-232.287
-458.53
-435.12
-134.391
0.579414
-131.292
-124.403
-117.761
-111.471
-105.614
-100.251
-95.4202
-91.1433
-87.4279
-84.272
-81.6675
-79.6032
-78.0674
-77.0499
-76.5432
-131.165
-124.153
-117.408
-111.036
-105.12
-99.7176
-94.8654
-90.5807
-86.8674
-83.7197
-81.1264
-79.0738
-77.5483
-76.5384
-76.0356
-130.898
-123.637
-116.681
-110.144
-104.11
-98.633
-93.7419
-89.4458
-85.7403
-82.6122
-80.0437
-78.0163
-76.5128
-75.5188
-75.0244
-130.465
-122.813
-115.532
-108.748
-102.542
-96.9616
-92.0222
-87.7194
-84.035
-80.944
-78.4191
-76.4343
-74.9669
-73.9989
-73.518
-129.822
-121.616
-113.887
-106.772
-100.348
-94.6478
-89.6651
-85.3736
-81.7353
-78.7087
-76.2535
-74.334
-72.9207
-71.9911
-71.53
-128.895
-119.941
-111.627
-104.102
-97.4309
-91.6151
-86.6157
-82.3736
-78.8232
-75.9012
-73.5514
-71.7267
-70.39
-69.5139
-69.0802
-127.569
-117.626
-108.577
-100.577
-93.6571
-87.7649
-82.8081
-78.681
-75.2817
-72.5206
-70.3233
-68.6307
-67.3981
-66.5934
-66.196
-125.656
-114.414
-104.476
-95.9721
-88.8543
-82.9786
-78.17
-74.2597
-71.1011
-68.5754
-66.5897
-65.074
-63.9775
-63.2648
-62.9137
-122.83
-109.899
-98.9385
-89.9801
-82.8087
-77.1242
-72.6329
-69.0858
-66.287
-64.0894
-62.3853
-61.0975
-60.1724
-59.5738
-59.2797
-118.507
-103.411
-91.3982
-82.1999
-75.275
-70.0757
-66.1508
-63.1627
-60.8711
-59.1094
-57.7638
-56.7577
-56.04
-55.5776
-55.351
-111.564
-93.8389
-81.0422
-72.1454
-66.0149
-61.752
-58.7313
-56.5426
-54.9246
-53.7124
-52.8023
-52.129
-51.6516
-51.3451
-51.1952
-99.7233
-79.3379
-66.7855
-59.3239
-54.8864
-52.1856
-50.4789
-49.3511
-48.5716
-48.0128
-47.6034
-47.3037
-47.0918
-46.9555
-46.8887
-78.1815
-57.0026
-47.437
-43.4776
-42.0206
-41.6244
-41.6473
-41.8106
-41.9975
-42.1632
-42.2942
-42.3903
-42.4558
-42.496
-42.515
-36.6407
-23.0536
-22.4819
-25.1284
-28.0936
-30.6437
-32.6748
-34.246
-35.4442
-36.3479
-37.0195
-37.5069
-37.8446
-38.0572
-38.1597
46.6317
23.9112
5.69187
-6.46035
-14.5811
-20.1816
-24.1617
-27.054
-29.1851
-30.764
-31.9288
-32.7726
-33.3584
-33.7279
-33.9066
74.4302
74.2711
73.9359
73.3873
72.5603
71.3475
69.57
66.9172
62.8096
56.0459
43.7337
17.4187
-53.4696
-302.488
-1400.47
61.4952
61.0485
60.113
58.5966
56.3382
53.0713
48.3527
41.4225
30.9066
14.1458
-14.4292
-67.418
-174.649
-402.268
-826.727
48.8698
48.1647
46.6929
44.3205
40.816
35.8025
28.6707
18.4172
3.33948
-19.5508
-55.6383
-114.586
-212.224
-365.351
-547.744
36.7334
35.8126
33.8976
30.8301
26.3412
20.0044
11.1559
-1.23857
-18.8027
-44.0831
-80.9728
-134.887
-211.261
-308.11
-395.42
25.2359
24.1504
21.9022
18.3264
13.1492
5.94992
-3.89665
-17.3047
-35.5864
-60.5532
-94.4848
-139.59
-196.081
-257.492
-303.726
14.4916
13.2952
10.8281
6.93439
1.36101
-6.26646
-16.4764
-29.987
-47.728
-70.7976
-100.237
-136.386
-177.483
-217.412
-244.137
4.57779
3.32195
0.744301
-3.29156
-9.00099
-16.6897
-26.7642
-39.7318
-56.1696
-76.6188
-101.329
-129.746
-159.696
-186.502
-203.106
-4.46434
-5.73376
-8.32721
-12.3556
-17.9888
-25.4564
-35.043
-47.0669
-61.8258
-79.4814
-99.8452
-122.041
-144.091
-162.675
-173.605
-12.6253
-13.8704
-16.4026
-20.3056
-25.7028
-32.7516
-41.6293
-52.5027
-65.4706
-80.4634
-97.0895
-114.437
-130.894
-144.162
-151.694
-19.9219
-21.1134
-23.5263
-27.2181
-32.2701
-38.777
-46.8298
-56.4842
-67.7091
-80.3111
-93.833
-107.45
-119.911
-129.631
-135.014
-26.3913
-27.5086
-29.762
-33.1864
-37.8272
-43.729
-50.9183
-59.3748
-68.9914
-79.5198
-90.5107
-101.265
-110.833
-118.112
-122.071
-32.0851
-33.1151
-35.1847
-38.3102
-42.5086
-47.787
-54.1266
-61.46
-69.6404
-78.4074
-87.3527
-95.9034
-103.343
-108.897
-111.878
-37.0638
-37.9998
-39.8743
-42.6892
-46.4403
-51.1082
-56.6451
-62.9568
-69.8821
-77.1711
-84.4685
-91.313
-97.1643
-101.468
-103.756
-41.3926
-42.2331
-43.9111
-46.4181
-49.7353
-53.8261
-58.6254
-64.0274
-69.8713
-75.9289
-81.8988
-87.4123
-92.0597
-95.4387
-97.2213
-45.1378
-45.8849
-47.3723
-49.5845
-52.4933
-56.0519
-60.1873
-64.7913
-69.712
-74.7476
-79.6458
-84.1129
-87.8358
-90.5181
-91.9247
-48.3643
-49.0227
-50.3302
-52.2672
-54.8001
-57.8773
-61.4238
-65.3352
-69.4729
-73.6617
-77.6922
-81.3301
-84.3343
-86.4832
-87.6048
-51.1338
-51.7097
-52.8512
-54.5361
-56.7289
-59.3769
-62.407
-65.7219
-69.1982
-72.6857
-76.0112
-78.9873
-81.4268
-83.1616
-84.0636
-53.5035
-54.0042
-54.9947
-56.4525
-58.3417
-60.6112
-63.1923
-65.9966
-68.9158
-71.8221
-74.5727
-77.0171
-79.0086
-80.4181
-81.1488
-55.5254
-55.9585
-56.8139
-58.0693
-59.6905
-61.6292
-63.8225
-66.1916
-68.6423
-71.0667
-73.3468
-75.3613
-76.9945
-78.1459
-78.7414
-57.2468
-57.6197
-58.3552
-59.4323
-60.8188
-62.4705
-64.3307
-66.33
-68.3872
-70.4114
-72.3052
-73.9704
-75.3149
-76.2598
-76.7475
-58.7092
-59.0291
-59.6593
-60.5804
-61.763
-63.167
-64.7422
-66.428
-68.155
-69.8465
-71.4222
-72.8023
-73.9127
-74.691
-75.0921
-59.9494
-60.223
-60.7615
-61.5471
-62.5533
-63.7447
-65.0769
-66.4976
-67.9474
-69.3621
-70.6752
-71.8213
-72.741
-73.3842
-73.7153
-60.9997
-61.2331
-61.692
-62.3605
-63.2152
-64.2245
-65.3502
-66.5469
-67.7642
-68.9483
-70.044
-70.9977
-71.7612
-72.2942
-72.5683
-61.888
-62.0867
-62.4769
-63.0448
-63.7695
-64.6237
-65.574
-66.5818
-67.6042
-68.5959
-69.5113
-70.3062
-70.9413
-71.3841
-71.6115
-62.6384
-62.8071
-63.1385
-63.6202
-64.234
-64.9562
-65.7581
-66.6065
-67.4654
-68.2966
-69.0621
-69.7257
-70.255
-70.6235
-70.8127
-63.2716
-63.4147
-63.6957
-64.1038
-64.6232
-65.2334
-65.9097
-66.6241
-67.3458
-68.0429
-68.6838
-69.2384
-69.6802
-69.9875
-70.1452
-63.8053
-63.9267
-64.1647
-64.5101
-64.9493
-65.4647
-66.035
-66.6365
-67.2432
-67.8283
-68.3654
-68.8295
-69.1988
-69.4555
-69.5871
-64.2548
-64.3576
-64.5591
-64.8513
-65.2226
-65.6577
-66.1387
-66.6453
-67.1555
-67.647
-68.0975
-68.4865
-68.7956
-69.0103
-69.1203
-64.633
-64.72
-64.8905
-65.1377
-65.4515
-65.8189
-66.2247
-66.6515
-67.081
-67.4941
-67.8725
-68.1988
-68.4579
-68.6378
-68.73
-64.9507
-65.0244
-65.1687
-65.3778
-65.6431
-65.9535
-66.296
-66.6559
-67.0177
-67.3654
-67.6836
-67.9577
-68.1753
-68.3263
-68.4036
-65.2173
-65.2797
-65.402
-65.579
-65.8034
-66.0659
-66.3552
-66.6591
-66.9642
-67.2573
-67.5252
-67.7559
-67.939
-68.0659
-68.1309
-65.4406
-65.4935
-65.5972
-65.7472
-65.9373
-66.1595
-66.4044
-66.6613
-66.9191
-67.1666
-67.3927
-67.5873
-67.7416
-67.8485
-67.9033
-65.6272
-65.6721
-65.7601
-65.8875
-66.0489
-66.2375
-66.4451
-66.6629
-66.8813
-67.0908
-67.282
-67.4466
-67.577
-67.6674
-67.7136
-65.7825
-65.8208
-65.8958
-66.0043
-66.1417
-66.3022
-66.4788
-66.664
-66.8496
-67.0275
-67.19
-67.3296
-67.4403
-67.5169
-67.5561
-65.9112
-65.944
-66.0082
-66.101
-66.2185
-66.3557
-66.5066
-66.6647
-66.8232
-66.9751
-67.1137
-67.2328
-67.3271
-67.3924
-67.4259
-66.0172
-66.0454
-66.1006
-66.1805
-66.2816
-66.3996
-66.5294
-66.6653
-66.8015
-66.9319
-67.0509
-67.1531
-67.2341
-67.2901
-67.3188
-66.1036
-66.1281
-66.176
-66.2453
-66.333
-66.4353
-66.5479
-66.6657
-66.7837
-66.8967
-66.9997
-67.0882
-67.1583
-67.2068
-67.2317
-66.1729
-66.1944
-66.2365
-66.2973
-66.3743
-66.464
-66.5627
-66.666
-66.7694
-66.8684
-66.9586
-67.0362
-67.0975
-67.14
-67.1617
-66.2274
-66.2465
-66.284
-66.3381
-66.4066
-66.4865
-66.5743
-66.6662
-66.7581
-66.8462
-66.9264
-66.9953
-67.0498
-67.0876
-67.1069
-66.2686
-66.2859
-66.3199
-66.369
-66.4311
-66.5035
-66.583
-66.6663
-66.7496
-66.8294
-66.902
-66.9644
-67.0138
-67.048
-67.0655
-66.2977
-66.3138
-66.3453
-66.3908
-66.4484
-66.5155
-66.5892
-66.6664
-66.7436
-66.8175
-66.8848
-66.9426
-66.9883
-67.02
-67.0362
-66.3157
-66.331
-66.3609
-66.4042
-66.459
-66.5229
-66.593
-66.6664
-66.7399
-66.8102
-66.8742
-66.9291
-66.9726
-67.0027
-67.0181
-66.323
-66.338
-66.3673
-66.4097
-66.4634
-66.5259
-66.5946
-66.6665
-66.7384
-66.8072
-66.8698
-66.9236
-66.9662
-66.9957
-67.0107
-66.3199
-66.335
-66.3646
-66.4074
-66.4615
-66.5246
-66.5939
-66.6665
-66.739
-66.8084
-66.8717
-66.9259
-66.9689
-66.9986
-67.0138
-66.3063
-66.322
-66.3528
-66.3973
-66.4535
-66.5191
-66.5911
-66.6664
-66.7418
-66.814
-66.8797
-66.9361
-66.9808
-67.0117
-67.0275
-66.2818
-66.2986
-66.3315
-66.3789
-66.439
-66.509
-66.5859
-66.6664
-66.7469
-66.824
-66.8942
-66.9545
-67.0022
-67.0352
-67.0521
-66.2457
-66.264
-66.2999
-66.3519
-66.4175
-66.4941
-66.5782
-66.6663
-66.7544
-66.8387
-66.9156
-66.9816
-67.0338
-67.0699
-67.0884
-66.1968
-66.2173
-66.2573
-66.3152
-66.3885
-66.474
-66.5679
-66.6662
-66.7645
-66.8587
-66.9445
-67.0182
-67.0765
-67.1169
-67.1375
-66.1337
-66.1569
-66.2023
-66.268
-66.3511
-66.448
-66.5545
-66.666
-66.7776
-66.8845
-66.9819
-67.0655
-67.1317
-67.1776
-67.201
-66.0545
-66.0811
-66.1332
-66.2086
-66.304
-66.4153
-66.5376
-66.6657
-66.794
-66.9168
-67.0288
-67.1249
-67.2011
-67.2538
-67.2807
-65.9567
-65.9876
-66.048
-66.1353
-66.2459
-66.3749
-66.5168
-66.6653
-66.8141
-66.9566
-67.0866
-67.1983
-67.2867
-67.3479
-67.3792
-65.8376
-65.8736
-65.9441
-66.046
-66.175
-66.3256
-66.4912
-66.6648
-66.8386
-67.0052
-67.1572
-67.2877
-67.3912
-67.4628
-67.4994
-65.6935
-65.7357
-65.8183
-65.9378
-66.0891
-66.2658
-66.4603
-66.664
-66.8682
-67.064
-67.2426
-67.3961
-67.5177
-67.602
-67.6451
-65.52
-65.5697
-65.6669
-65.8075
-65.9857
-66.1937
-66.4228
-66.6629
-66.9037
-67.1346
-67.3453
-67.5266
-67.6702
-67.7697
-67.8206
-65.3121
-65.3707
-65.4853
-65.6512
-65.8615
-66.1071
-66.3776
-66.6614
-66.9461
-67.2192
-67.4686
-67.6832
-67.8533
-67.9712
-68.0315
-65.0636
-65.1327
-65.2681
-65.4642
-65.7127
-66.0031
-66.3232
-66.6592
-66.9965
-67.3202
-67.6161
-67.8707
-68.0727
-68.2127
-68.2843
-64.7671
-64.8488
-65.0089
-65.2407
-65.5347
-65.8786
-66.2578
-66.6561
-67.0563
-67.4406
-67.7921
-68.0948
-68.335
-68.5016
-68.5869
-64.4138
-64.5104
-64.6998
-64.9741
-65.3222
-65.7296
-66.1792
-66.6518
-67.127
-67.5839
-68.002
-68.3624
-68.6484
-68.847
-68.9486
-63.9935
-64.1077
-64.3316
-64.6563
-65.0684
-65.5512
-66.0845
-66.6457
-67.2105
-67.754
-68.2519
-68.6815
-69.0227
-69.2596
-69.3809
-63.4938
-63.6289
-63.8936
-64.2776
-64.7656
-65.3378
-65.9705
-66.637
-67.3087
-67.9559
-68.5494
-69.0619
-69.4693
-69.7524
-69.8975
-62.9004
-63.0599
-63.3728
-63.8269
-64.4044
-65.0823
-65.833
-66.6249
-67.424
-68.195
-68.9031
-69.5152
-70.0024
-70.3411
-70.5147
-62.1963
-62.3845
-62.7538
-63.2904
-63.9735
-64.7764
-65.6668
-66.6076
-67.5587
-68.4779
-69.3233
-70.0553
-70.6385
-71.0443
-71.2525
-61.3616
-61.5834
-62.0189
-62.6521
-63.4594
-64.4098
-65.4656
-66.5834
-67.7155
-68.812
-69.8223
-70.6986
-71.3978
-71.8848
-72.1348
-60.3729
-60.6338
-61.1466
-61.893
-62.8461
-63.97
-65.2213
-66.5491
-67.8972
-69.2058
-70.4145
-71.4648
-72.3044
-72.8899
-73.1907
-59.203
-59.5094
-60.1121
-60.9905
-62.114
-63.4419
-64.9238
-66.5007
-68.1062
-69.6692
-71.1165
-72.3774
-73.3872
-74.0927
-74.4555
-57.8204
-58.1794
-58.8861
-59.9178
-61.24
-62.8068
-64.5605
-66.4324
-68.3448
-70.2127
-71.948
-73.4642
-74.6815
-75.5334
-75.972
-56.1885
-56.608
-57.4345
-58.6433
-60.1963
-62.042
-64.1149
-66.3361
-68.6142
-70.8483
-72.9318
-74.7584
-76.2294
-77.2612
-77.7931
-54.2655
-54.7539
-55.7176
-57.1298
-58.9494
-61.1194
-63.5665
-66.2002
-68.9142
-71.5884
-74.0938
-76.2995
-78.0822
-79.336
-79.9835
-52.0034
-52.5699
-53.6892
-55.3336
-57.4592
-60.0045
-62.8884
-66.0087
-69.2419
-72.4457
-75.4639
-78.1345
-80.3021
-81.8318
-82.6233
-49.348
-50.002
-51.2964
-53.2033
-55.6776
-58.6546
-62.0463
-65.7386
-69.5899
-73.432
-77.0752
-80.3186
-82.9649
-84.84
-85.8128
-46.2386
-46.9894
-48.4784
-50.679
-53.547
-57.0167
-60.9954
-65.3582
-69.9443
-74.5562
-78.9641
-82.9172
-86.1632
-88.4747
-89.6776
-42.608
-43.4644
-45.1665
-47.6913
-50.9987
-55.0255
-59.6778
-64.8227
-70.2807
-75.8221
-81.1687
-86.0066
-90.0104
-92.8789
-94.3777
-38.383
-39.3521
-41.2835
-44.1603
-47.9509
-52.5999
-58.0181
-64.0697
-70.5593
-77.2232
-83.7265
-89.6752
-94.6458
-98.2342
-100.118
-33.4851
-34.5719
-36.7441
-39.9951
-44.3071
-49.6403
-55.9188
-63.0124
-70.7169
-78.7356
-86.6692
-94.0229
-100.241
-104.773
-107.167
-27.8327
-29.0383
-31.4557
-35.0932
-39.9542
-46.0244
-53.2535
-61.531
-70.6563
-80.3071
-90.0145
-99.1592
-107.006
-112.795
-115.878
-21.3434
-22.6636
-25.3202
-29.342
-34.7619
-41.6038
-49.8601
-59.4609
-70.2308
-81.8391
-93.7503
-105.196
-115.201
-122.697
-126.73
-13.9376
-15.3612
-18.2372
-22.62
-28.5824
-36.2011
-45.5334
-56.5789
-69.2229
-83.1607
-97.809
-112.233
-125.139
-135.001
-140.382
-5.54358
-7.0505
-10.108
-14.8016
-21.2529
-29.6086
-40.017
-52.5868
-67.3167
-83.9886
-102.023
-120.324
-137.189
-150.418
-157.771
3.89637
2.33648
-0.843266
-5.76291
-12.6014
-21.5909
-32.9999
-47.0947
-64.0619
-83.8701
-106.052
-129.413
-151.765
-169.913
-180.266
14.419
12.8478
9.62925
4.60786
-2.45656
-11.8933
-24.1178
-39.6079
-58.8341
-82.1034
-109.26
-139.201
-169.26
-194.82
-209.95
26.0321
24.5025
21.3531
16.3968
9.33528
-0.260164
-12.9684
-29.5268
-50.7985
-77.6369
-110.536
-148.907
-189.879
-226.968
-250.139
38.7067
37.2812
34.3311
29.6472
22.8862
13.5342
0.854491
-16.1728
-38.8972
-68.9615
-108.011
-156.805
-213.193
-268.782
-306.418
52.3703
51.1178
48.5125
44.3391
38.2358
29.6388
17.6961
1.13735
-21.899
-54.046
-98.7201
-159.428
-237.062
-323.061
-388.832
66.9028
65.893
63.7819
60.3705
55.3162
48.0663
37.7426
22.9454
1.42571
-30.4312
-78.2942
-150.296
-255.12
-391.385
-516.917
82.1354
81.4318
79.9532
77.5419
73.9206
68.6275
60.8949
49.4211
31.9285
4.2985
-41.1048
-118.371
-251.343
-467.161
-732.173
97.8554
97.5078
96.771
95.5524
93.685
90.8818
86.6445
80.0756
69.4705
51.3701
18.2117
-47.7623
-190.03
-508.773
-1131.46
113.815
113.853
113.922
114.012
114.098
114.131
114.012
113.532
112.216
108.898
100.316
75.8289
-6.16394
-339.307
-1963.16
129.748
130.174
131.058
132.474
134.546
137.484
141.629
147.566
156.352
170.079
193.465
239.354
352.112
726.488
2392.05
145.384
146.175
147.823
150.477
154.393
159.998
168.001
179.62
197.054
224.551
270.987
356.44
528.707
895.624
1589.35
160.469
161.578
163.889
167.602
173.064
180.843
191.859
207.634
230.767
265.869
321.411
413.235
570.124
837.803
1268.43
155.099
62.8361
25.9562
6.95668
-4.5049
-12.0765
-17.3551
-21.1587
-23.9535
-26.0249
-27.5562
-28.6689
-29.4438
-29.934
-30.1714
97.9149
59.7612
31.9612
13.9193
1.95402
-6.30058
-12.1914
-16.4998
-19.6997
-22.0914
-23.8718
-25.1726
-26.0827
-26.6602
-26.9405
67.2256
49.4959
31.1895
16.6618
5.83609
-2.16605
-8.1266
-12.6106
-16.007
-18.5822
-20.52
-21.9476
-22.9523
-23.5925
-23.9041
48.848
39.6306
27.7936
16.8334
7.75732
0.550722
-5.0871
-9.47651
-12.8844
-15.5156
-17.5226
-19.016
-20.0748
-20.7529
-21.0838
36.8711
31.5841
23.7885
15.6963
8.38027
2.17806
-2.91451
-7.02399
-10.3009
-12.8825
-14.8815
-16.386
-17.4615
-18.1541
-18.4933
28.5654
25.2795
19.9893
14.0201
8.22967
3.03478
-1.42459
-5.14958
-8.20036
-10.6538
-12.5839
-14.0539
-15.1139
-15.8007
-16.1382
22.5413
20.3667
16.6613
12.2198
7.66542
3.38071
-0.44466
-3.74333
-6.51453
-8.78842
-10.6056
-12.0063
-13.0254
-13.6897
-14.0173
18.0273
16.5166
13.8446
10.4976
6.91386
3.40763
0.169507
-2.70333
-5.17402
-7.24016
-8.91642
-10.2238
-11.1832
-11.8124
-12.1238
14.5622
13.4728
11.4965
8.93975
6.10841
3.24835
0.529998
-1.94259
-4.1144
-5.96259
-7.48337
-8.6827
-9.57025
-10.1557
-10.4464
11.8535
11.0448
9.55137
7.57252
5.32286
2.99064
0.719816
-1.39072
-3.27947
-4.91235
-6.2735
-7.35808
-8.16703
-8.70355
-8.97086
9.70643
9.09216
7.94329
6.3933
4.5946
2.69026
0.798316
-0.992847
-2.62221
-4.05076
-5.25564
-6.22481
-6.95292
-7.43831
-7.68087
7.98582
7.51072
6.6137
5.38674
3.93967
2.38126
0.806821
-0.707335
-2.10436
-3.34448
-4.40144
-5.25889
-5.90733
-6.34163
-6.55927
6.59507
6.22221
5.51319
4.533
3.36203
2.08337
0.773457
-0.503155
-1.69547
-2.76538
-3.68573
-4.43808
-5.01041
-5.39535
-5.58875
5.4632
5.1671
4.60094
3.81171
2.85914
1.80717
0.716961
-0.357511
-1.37157
-2.2901
-3.08668
-3.74223
-4.24358
-4.58206
-4.7525
4.53692
4.29949
3.84358
3.20382
2.42526
1.5575
0.649535
-0.253814
-1.11401
-1.89949
-2.58552
-3.15346
-3.58982
-3.88542
-4.03457
3.77547
3.58358
3.21385
2.69228
2.05331
1.33573