/*--------------------------------*- C++ -*----------------------------------*\
| =========                 |                                                 |
| \\      /  F ield         | OpenFOAM: The Open Source CFD Toolbox           |
|  \\    /   O peration     | Version:  5.x                                   |
|   \\  /    A nd           | Web:      www.OpenFOAM.org                      |
|    \\/     M anipulation  |                                                 |
\*---------------------------------------------------------------------------*/
FoamFile
{
    version     2.0;
    format      ascii;
    class       volScalarField;
    location    "3";
    object      T;
}
// * * * * * * * * * * * * * * * * * * * * * * * * * * * * * * * * * * * * * //

dimensions      [0 0 0 1 0 0 0];

internalField   nonuniform List<scalar> 
6300
(
11.0367
13.1151
15.208
17.3249
19.4745
21.6648
23.9027
26.1934
28.5404
30.9448
33.4051
35.9166
38.4719
41.0601
43.6679
11.0318
13.1005
15.184
17.292
19.4337
21.6171
23.8497
26.137
28.4829
30.8888
33.3536
35.8728
38.4386
41.0402
43.6635
11.0219
13.0709
15.1355
17.2256
19.3509
21.5203
23.7418
26.0218
28.3651
30.7738
33.2475
35.782
38.3695
40.9983
43.6533
11.0068
13.0259
15.0613
17.1239
19.224
21.3714
23.5752
25.8433
28.1816
30.5938
33.0804
35.638
38.2587
40.93
43.6347
10.9862
12.9644
14.96
16.9846
19.0495
21.1659
23.3444
25.5944
27.9241
30.3392
32.842
35.4306
38.0972
40.828
43.603
10.9598
12.8855
14.8297
16.8049
18.8236
20.8984
23.0417
25.2657
27.581
29.9966
32.5178
35.1449
37.8712
40.6816
43.5519
10.9272
12.788
14.6684
16.5816
18.5415
20.5621
22.6585
24.8454
27.1375
29.5482
32.0875
34.7598
37.561
40.4749
43.472
10.8881
12.671
14.4742
16.3117
18.1984
20.1502
22.1844
24.3197
26.5754
28.971
31.5239
34.2457
37.1377
40.1847
43.35
10.8423
12.5338
14.2457
15.9925
17.7901
19.6557
21.6093
23.6734
25.8732
28.2365
30.7911
33.5612
36.5594
39.7758
43.1663
10.7898
12.376
13.9821
15.6226
17.3135
19.0732
20.9237
22.8912
25.0075
27.3103
29.8426
32.6484
35.7626
39.1924
42.89
10.7307
12.1982
13.6842
15.2023
16.7681
18.3999
20.1209
21.96
23.955
26.1546
28.6206
31.4268
34.65
38.341
42.4682
10.6655
12.0018
13.3541
14.7343
16.1564
17.6375
19.1998
20.8729
22.6978
24.7323
27.058
29.7883
33.0692
37.0532
41.7971
10.5951
11.7894
12.996
14.2244
15.4857
16.7938
18.1677
19.6338
21.231
23.0186
25.0907
27.5988
30.7852
35.0051
40.6313
10.5207
11.5646
12.6162
13.6817
14.7679
15.8843
17.0433
18.2636
19.5736
21.0204
22.6872
24.7309
27.4673
31.5505
38.241
10.4437
11.3319
12.2227
13.118
14.0201
14.9319
15.8577
16.8035
17.7791
18.8021
19.9066
21.1703
22.8024
25.4882
31.918
46.0622
48.2309
50.3818
52.505
54.5909
56.6307
58.6163
60.5407
62.3978
64.1822
65.8897
67.5167
69.0602
70.518
71.8883
73.1698
74.3617
75.4635
76.4751
77.3967
78.229
78.9728
79.6293
80.1997
80.6857
81.0891
81.4117
81.6555
81.8225
81.9149
81.9347
81.8842
81.7654
81.5803
81.3309
81.0194
80.6474
80.217
79.7299
79.188
78.593
77.9466
77.2505
76.5064
75.7158
74.8805
74.0017
73.081
72.1196
71.1188
70.0798
69.0035
67.8911
66.7436
65.5619
64.347
63.0999
61.8217
60.5135
59.1762
57.8112
56.4194
55.0022
53.5606
52.096
50.6095
49.1027
47.5769
46.0338
44.4753
42.9035
41.3208
39.7299
38.1339
36.5359
34.9397
33.3489
31.7677
30.2001
28.6504
27.1228
25.6215
24.1505
22.7138
21.3148
19.9568
18.6425
17.3743
16.1536
14.9815
46.0732
48.2563
50.4215
52.5583
54.657
56.7083
58.7041
60.6374
62.502
64.2927
66.0053
67.6365
69.1833
70.6436
72.0157
73.2985
74.491
75.5929
76.6041
77.525
78.356
79.0982
79.7526
80.3208
80.8043
81.205
81.5247
81.7655
81.9295
82.0188
82.0356
81.9821
81.8603
81.6723
81.4201
81.1058
80.7311
80.2981
79.8084
79.264
78.6664
78.0176
77.3191
76.5727
75.7799
74.9424
74.0616
73.139
72.1758
71.1734
70.1328
69.055
67.9412
66.7923
65.6091
64.3928
63.1442
61.8645
60.5546
59.2158
57.8491
56.4557
55.0367
53.5934
52.1269
50.6385
49.1295
47.6013
46.0555
44.494
42.9188
41.3322
39.737
38.1362
36.5331
34.9314
33.3349
31.7477
30.1741
28.6183
27.0847
25.5775
24.101
22.6591
21.2556
19.8936
18.5761
17.3055
16.0834
14.9109
46.0947
48.3073
50.5016
52.6663
54.7908
56.8654
58.8817
60.8326
62.712
64.5151
66.2379
67.8772
69.4304
70.8957
72.2714
73.5566
74.7504
75.8525
76.8629
77.7821
78.6105
79.3494
79.9998
80.5634
81.0418
81.4369
81.7509
81.9857
82.1435
82.2267
82.2374
82.1777
82.0499
81.8561
81.5983
81.2784
80.8984
80.4601
79.9653
79.4158
78.8133
78.1595
77.4562
76.7051
75.9079
75.066
74.1812
73.2548
72.2881
71.2823
70.2386
69.158
68.0413
66.8896
65.7037
64.4844
63.2329
61.9501
60.637
59.2949
57.9249
56.5281
55.1058
53.659
52.1889
50.6966
49.1834
47.6506
46.0995
44.532
42.9499
41.3556
39.7517
38.1414
36.528
34.9152
33.3071
31.7079
30.122
28.5539
27.0081
25.4892
24.0014
22.5491
21.1361
19.7661
18.4421
17.1667
15.9418
14.7684
46.1256
48.3844
50.6241
52.8319
54.996
57.106
59.1532
61.1303
63.0317
64.8529
66.5903
68.2414
69.8039
71.2763
72.6572
73.9458
75.1413
76.2436
77.2528
78.1692
78.9937
79.7274
80.3716
80.9281
81.3987
81.7854
82.0905
82.3161
82.4647
82.5385
82.5398
82.471
82.3343
82.1317
81.8653
81.5372
81.1491
80.703
80.2005
79.6433
79.0333
78.3722
77.6617
76.9035
76.0994
75.2511
74.3601
73.428
72.456
71.4454
70.3971
69.3122
68.1915
67.0356
65.8456
64.6221
63.3661
62.0786
60.7608
59.4138
58.0387
56.637
55.2095
53.7576
52.2823
50.7845
49.2652
47.7256
46.1668
44.5904
42.9982
41.3923
39.7754
38.1507
36.5215
34.8919
33.2661
31.6486
30.0439
28.457
26.8927
25.3556
23.8506
22.3821
20.9546
19.572
18.2379
16.9551
15.7257
14.5511
46.1644
48.4886
50.7923
53.0602
55.2788
57.4368
59.5251
61.5367
63.4665
65.3107
67.0668
68.7327
70.3069
71.7882
73.1756
74.4684
75.6661
76.7685
77.7757
78.6884
79.5073
80.2337
80.8693
81.416
81.8758
82.251
82.544
82.7572
82.893
82.9541
82.9429
82.8617
82.7128
82.4985
82.2208
81.8817
81.483
81.0265
80.5137
79.9465
79.3265
78.6555
77.9352
77.1675
76.3542
75.4971
74.5978
73.658
72.679
71.662
70.6079
69.5175
68.3915
67.2305
66.0351
64.806
63.5441
62.2504
60.926
59.5723
58.1906
56.7821
55.3481
53.8896
52.4075
50.9027
49.3758
47.8277
46.2591
44.6713
43.0657
41.4444
39.8101
38.1659
36.5154
34.8629
33.2129
31.5703
29.9401
28.3275
26.7376
25.1757
23.6468
22.156
20.7082
19.308
17.9595
16.6663
15.4308
14.2545
46.2092
48.6221
51.0116
53.3591
55.6486
57.8676
60.007
62.0605
64.024
65.8952
67.6727
69.3556
70.9432
72.4348
73.8299
75.1277
76.3278
77.43
78.4345
79.342
80.1535
80.8704
81.4947
82.0286
82.4744
82.8346
83.1119
83.309
83.4286
83.4735
83.4462
83.3492
83.1852
82.9561
82.6643
82.3116
81.8997
81.4303
80.905
80.3252
79.6927
79.0092
78.2765
77.4966
76.6715
75.8031
74.8934
73.944
72.9563
71.9315
70.8704
69.7736
68.6415
67.4743
66.2725
65.0366
63.7673
62.4657
61.1331
59.7708
58.3805
56.9636
55.5214
54.055
52.5651
51.0522
49.5167
47.9587
46.3787
44.7772
43.1554
41.515
39.8587
38.1896
36.5118
34.8298
33.1487
31.4738
29.8106
28.1648
26.542
24.9478
23.3878
21.8677
20.393
18.9693
17.6015
16.2941
15.0504
13.8721
46.2577
48.7888
51.2912
53.7411
56.1195
58.4128
60.6124
62.7134
64.7141
66.6143
68.4144
70.1153
71.7173
73.2202
74.6237
75.9272
77.1299
78.2317
79.2327
80.1335
80.9353
81.6401
82.25
82.7676
83.1956
83.5371
83.7949
83.972
84.0715
84.0963
84.0492
83.9331
83.7505
83.5038
83.195
82.8261
82.3987
81.9142
81.374
80.7794
80.1319
79.4332
78.6853
77.8903
77.0505
76.1682
75.2455
74.2845
73.2865
72.2528
71.1839
70.0801
68.9413
67.7675
66.5585
65.3147
64.0365
62.7252
61.3822
60.0092
58.6082
57.181
55.7291
54.2537
52.7552
51.2339
49.6894
48.1211
46.5287
44.9119
43.2713
41.6082
39.9252
38.2256
36.5139
34.7952
33.0752
31.36
29.6559
27.9688
26.305
24.6704
23.0713
21.5138
20.0044
18.5497
17.1563
15.8301
14.5755
13.3951
46.308
48.9964
51.6461
54.2258
56.7127
59.0927
61.3591
63.5105
65.5486
67.4769
69.2988
71.0171
72.6335
74.1483
75.5612
76.8712
78.0771
79.1783
80.1747
81.0669
81.8566
82.546
83.1378
83.6351
84.0412
84.3596
84.5935
84.7464
84.8214
84.822
84.7512
84.6122
84.4077
84.1402
83.8118
83.4245
82.9795
82.4779
81.9208
81.3092
80.6442
79.9276
79.1613
78.348
77.4902
76.5908
75.6525
74.6776
73.6678
72.6241
71.547
70.4363
69.2912
68.1108
66.8943
65.6416
64.3531
63.0299
61.6739
60.2875
58.8732
57.4335
55.9703
54.4849
52.9778
51.4485
49.8957
48.318
46.7134
45.0805
43.4191
41.7299
40.0151
38.2787
36.5256
34.7619
32.9945
31.2302
29.4761
27.739
26.0255
24.3418
22.6946
21.0904
19.5367
18.0417
16.6143
15.2627
13.9936
12.811
46.3589
49.2592
52.1016
54.8438
57.4593
59.9357
62.2711
64.4701
66.5409
68.4923
70.3319
72.0653
73.6954
75.2229
76.6466
77.9646
79.1748
80.2754
81.2661
82.1476
82.9219
83.5919
84.1611
84.6334
85.0128
85.3032
85.5085
85.6322
85.6782
85.65
85.5511
85.3851
85.155
84.8636
84.5132
84.1053
83.6411
83.1211
82.5457
81.9152
81.2304
80.4928
79.7047
78.869
77.9892
77.0689
76.1117
75.1204
74.0971
73.0431
71.9581
70.8414
69.6912
68.5053
67.2818
66.0196
64.7189
63.3812
62.0088
60.6053
59.1742
57.7192
56.2429
54.7471
53.2319
51.6962
50.1377
48.553
46.9381
45.29
43.6065
41.8878
40.136
38.3554
36.5522
34.7339
32.9088
31.0853
29.2716
27.4751
25.7026
23.9607
22.2555
20.5939
18.9841
17.4364
15.9628
14.5761
13.2873
12.1025
46.4125
49.6051
52.7012
55.6437
58.4057
60.9814
63.3791
65.6141
67.7047
69.6681
71.5176
73.2619
74.9047
76.4463
77.8838
79.213
80.4296
81.5304
82.5143
83.3823
84.137
84.7825
85.3235
85.7651
86.1121
86.3691
86.5403
86.6297
86.6413
86.5791
86.4473
86.2498
85.9902
85.6717
85.2966
84.8667
84.3824
83.8437
83.2495
82.5989
81.8921
81.1303
80.3161
79.4531
78.546
77.5997
76.6193
75.6086
74.5704
73.5058
72.4144
71.2943
70.1421
68.9535
67.7244
66.4525
65.1376
63.7817
62.3882
60.9622
59.5093
58.0349
56.5432
55.0365
53.5149
51.9764
50.417
48.8307
47.2105
45.5497
43.8442
42.0928
40.2978
38.4642
36.6001
34.7151
32.8203
30.9261
29.042
27.1761
25.3355
23.5262
21.7535
20.0227
18.342
16.7241
15.1861
13.7484
12.4311
11.245
46.4796
50.0897
53.5213
56.7034
59.6198
62.2832
64.721
66.9655
69.051
71.0074
72.8545
74.6041
76.2594
77.8191
79.2763
80.6232
81.8507
82.9534
83.929
84.7795
85.5089
86.1232
86.6287
87.0324
87.3405
87.558
87.6893
87.7387
87.7101
87.6082
87.4376
87.2033
86.9097
86.5606
86.1587
85.7057
85.2017
84.6455
84.0337
83.363
82.6324
81.8426
80.997
80.1001
79.1585
78.1792
77.1698
76.1359
75.0811
74.0064
72.9115
71.7928
70.6449
69.4593
68.2279
66.9468
65.615
64.2357
62.8138
61.3573
59.8746
58.3751
56.8647
55.3469
53.8216
52.2862
50.7343
49.157
47.5408
45.8733
44.1474
42.3602
40.5147
38.6167
36.6775
34.7102
32.7307
30.752
28.7859
26.8404
24.9231
23.0387
21.1907
19.3792
17.6092
15.8967
14.2646
12.7472
11.3859
10.2013
46.5991
50.8309
54.7004
58.1452
61.198
63.9092
66.3408
68.5455
70.583
72.5037
74.3314
76.0816
77.7516
79.3388
80.8273
82.205
83.4512
84.5588
85.5236
86.3508
87.0463
87.6199
88.0803
88.4372
88.6988
88.8705
88.9561
88.9595
88.8842
88.7357
88.519
88.2418
87.9086
87.5252
87.0937
86.6175
86.0957
85.527
84.9024
84.2129
83.4573
82.6349
81.7514
80.811
79.8248
78.8013
77.7553
76.6926
75.6198
74.5359
73.4422
72.3328
71.2016
70.0306
68.8025
67.5134
66.1602
64.7504
63.2886
61.7896
60.2637
58.7304
57.1961
55.6678
54.1423
52.6191
51.088
49.5386
47.9447
46.2806
44.5385
42.7113
40.8066
38.8282
36.7952
34.7223
32.6395
30.5596
28.4998
26.4636
24.4632
22.4987
20.575
18.676
16.7933
14.9532
13.178
11.5209
10.0862
8.9127
46.9106
52.0934
56.4907
60.1509
63.2677
65.9373
68.2871
70.3655
72.2828
74.1334
75.9193
77.6741
79.3624
81.0004
82.5375
83.9758
85.2507
86.3694
87.3157
88.1112
88.759
89.2791
89.6803
89.9786
90.1864
90.3064
90.3408
90.2931
90.1633
89.9609
89.6871
89.3601
88.9795
88.5585
88.0926
87.5944
87.0569
86.4884
85.8639
85.1573
84.3781
83.5144
82.5873
81.5871
80.5444
79.4551
78.3642
77.2633
76.1739
75.0787
73.9949
72.9036
71.8148
70.6834
69.4644
68.1717
66.7863
65.3396
63.8164
62.2599
60.6628
59.0866
57.5181
55.9843
54.459
52.9627
51.4676
49.9839
48.4489
46.7999
45.0513
43.1737
41.2043
39.1178
36.9699
34.7484
32.5436
30.338
28.1794
26.035
23.9512
21.8995
19.9237
17.949
15.9157
13.9161
11.9212
9.97441
8.41005
7.28117
47.9788
54.4865
59.3422
62.9385
65.9809
68.4256
70.6235
72.4171
74.0779
75.8561
77.5514
79.362
81.0452
82.8069
84.3895
85.9813
87.2751
88.4277
89.3248
90.0839
90.6551
91.1091
91.4281
91.65
91.7999
91.8653
91.8432
91.7443
91.5466
91.2884
90.9313
90.5553
90.108
89.6562
89.1374
88.6273
88.0621
87.5301
86.9429
86.2059
85.4199
84.4846
83.5278
82.4239
81.3306
80.1108
78.9869
77.8167
76.7361
75.6045
74.5577
73.4702
72.4889
71.4618
70.2319
68.9628
67.5
66.0384
64.3917
62.7883
61.0311
59.4314
57.7896
56.2881
54.7335
53.3042
51.8301
50.5024
49.1169
47.4621
45.7495
43.7678
41.77
39.4956
37.2503
34.7499
32.4485
30.0484
27.8382
25.5188
23.3927
21.1909
19.2704
17.3063
14.9894
12.8719
10.5951
7.87705
6.10676
5.13578
52.4233
59.2581
64.0065
66.5233
69.5541
71.2687
73.5418
74.6592
75.7037
77.6976
79.0169
81.2329
82.6144
84.8707
86.2281
88.4154
89.5021
90.8538
91.532
92.3267
92.7197
93.1331
93.3154
93.4247
93.5347
93.5497
93.4559
93.3375
93.0163
92.7577
92.2022
91.8528
91.2426
90.8496
90.1691
89.7392
89.0188
88.6506
88.2371
87.3246
86.6759
85.4853
84.6796
83.2448
82.2983
80.6278
79.6759
78.2402
77.371
76.0077
75.1786
73.8831
73.2284
72.5318
71.0553
70.0321
68.2116
67.0031
64.9038
63.5377
61.172
59.8362
57.8583
56.6677
54.827
53.7098
51.981
51.1037
50.172
48.2072
46.8346
44.3844
42.7337
39.8309
37.8975
34.4645
32.4951
29.4849
27.6541
24.7239
22.9429
20.0772
18.6795
17.1715
13.7758
12.0569
9.90437
4.41476
2.65237
2.17492
13.7459
12.4679
11.2579
10.1127
9.02847
8.00044
7.02345
6.09203
5.20059
4.34348
3.51515
2.71013
1.92308
1.14878
0.382084
13.6759
12.3999
11.1929
10.0517
8.97215
7.94931
6.9778
6.052
5.16619
4.31465
3.49179
2.69213
1.91032
1.14116
0.379551
13.5346
12.2626
11.0619
9.92896
8.85903
7.84676
6.88637
5.97192
5.09745
4.25711
3.44521
2.65624
1.88488
1.12598
0.374506
13.3194
12.0537
10.8631
9.74308
8.68815
7.69223
6.74892
5.85179
4.99453
4.17109
3.37565
2.60271
1.84697
1.10337
0.366991
13.0259
11.7697
10.5936
9.49198
8.45818
7.48502
6.56522
5.69171
4.85775
4.05701
3.28358
2.53194
1.7969
1.07352
0.357076
12.6483
11.4055
10.2495
9.17297
8.16747
7.22435
6.33517
5.49203
4.6877
3.91557
3.16967
2.44454
1.73514
1.03674
0.344862
12.1784
10.9543
9.82584
8.7828
7.8143
6.90966
6.059
5.25349
4.48538
3.74786
3.03497
2.3414
1.66235
0.993434
0.330486
11.6049
10.4075
9.31662
8.31799
7.39718
6.54091
5.73761
4.97751
4.25242
3.55548
2.88091
2.22369
1.57943
0.944141
0.314133
10.913
9.75406
8.71505
7.77529
6.91545
6.11911
5.37296
4.66645
3.99125
3.34071
2.70946
2.09301
1.48751
0.88956
0.296034
10.0824
8.98053
8.01414
7.15256
6.37014
5.64706
4.96862
4.32404
3.70537
3.10662
2.52318
1.95135
1.38803
0.830546
0.276475
9.0851
8.07145
7.20832
6.45061
5.76541
5.13031
4.53037
3.95568
3.39952
2.85719
2.32527
1.80115
1.28269
0.768113
0.25579
7.88377
7.01177
6.29701
5.67606
5.11054
4.57833
4.06682
3.56875
3.0798
2.59732
2.11955
1.64525
1.17347
0.703414
0.234361
6.43189
5.79475
5.29184
4.84601
4.42229
4.0056
3.5898
3.17265
2.75359
2.3327
1.91032
1.48682
1.06252
0.637702
0.212598
4.69059
4.44344
4.22952
3.9938
3.72696
3.43193
3.11408
2.77844
2.42916
2.06955
1.70221
1.32916
0.952068
0.57227
0.190925
2.71074
3.05885
3.18896
3.17268
3.05976
2.88106
2.65612
2.39783
2.11504
1.81412
1.49976
1.17555
0.844311
0.50838
0.169753
10.3723
11.1163
11.8578
12.595
13.3255
14.0462
14.7525
15.4376
16.0908
16.6938
17.2117
17.5684
17.5601
16.4991
11.5103
10.308
10.9219
11.529
12.1241
12.7009
13.2509
13.7623
14.218
14.5908
14.8361
14.8737
14.5475
13.5254
11.0545
5.48
10.2452
10.7322
11.2085
11.666
12.0949
12.4824
12.811
13.0558
13.1793
13.1226
12.7883
12.0098
10.4966
7.76533
3.18955
10.1848
10.5499
10.901
11.2278
11.5177
11.7546
11.9177
11.9778
11.893
11.6017
11.0113
9.98226
8.31357
5.75703
2.15137
10.1275
10.3772
10.6105
10.8152
10.977
11.0782
11.096
11.0003
10.75
10.2886
9.53889
8.39887
6.74709
4.47726
1.59725
10.0739
10.2159
10.3398
10.4325
10.4785
10.4597
10.3532
10.1302
9.75345
9.1756
8.3375
7.17086
5.60978
3.6212
1.26154
10.0244
10.0671
10.0909
10.082
10.025
9.90198
9.69125
9.3667
8.89662
8.24331
7.36424
6.21674
4.76933
3.02283
1.03929
9.97925
9.93147
9.86457
9.76492
9.61746
9.40515
9.10833
8.70429
8.167
7.46777
6.57737
5.47087
4.13655
2.58904
0.883059
9.93842
9.80908
9.66101
9.48103
9.2549
8.96697
8.59987
8.13438
7.54981
6.82497
5.94054
4.88318
3.65181
2.2653
0.76858
9.90187
9.69969
9.4796
9.22917
8.93524
8.58376
8.1597
7.64717
7.03002
6.29299
5.4238
4.41633
3.2748
2.0181
0.682181
9.86943
9.60274
9.31926
9.0075
8.65553
8.25096
7.78095
7.23259
6.59346
5.85276
5.00306
4.04255
2.97776
1.8259
0.615533
9.84086
9.51744
9.17856
8.81375
8.41235
7.96357
7.45661
6.88104
6.22741
5.48823
4.65926
3.74118
2.7412
1.67431
0.56326
9.81585
9.44287
9.05585
8.64539
8.20207
7.71658
7.17991
6.58368
5.92077
5.18604
4.37735
3.49667
2.55109
1.55338
0.52173
9.79409
9.37806
8.94943
8.49984
8.02107
7.50513
6.94454
6.33262
5.664
4.9352
4.14542
3.29722
2.39717
1.45603
0.488397
9.77525
9.322
8.85755
8.37455
7.86586
7.32469
6.74482
6.12094
5.449
4.7267
3.95404
3.13378
2.27179
1.37707
0.461425
9.759
9.27371
8.77855
8.2671
7.73321
7.1711
6.57566
5.94263
5.26896
4.55317
3.79572
2.99933
2.16912
1.31264
0.439457
9.74505
9.23227
8.71086
8.17525
7.62014
7.04067
6.4326
5.79253
5.11816
4.40856
3.66445
2.88834
2.0847
1.2598
0.421468
9.73311
9.19682
8.65303
8.09692
7.52398
6.93009
6.31175
5.66624
4.99182
4.28793
3.55538
2.79647
2.01504
1.2163
0.406674
9.72292
9.16657
8.60375
8.0303
7.44236
6.83649
6.20978
5.56004
4.88594
4.18719
3.46461
2.72025
1.95738
1.18036
0.394464
9.71424
9.14083
8.56184
7.97373
7.3732
6.75735
6.12379
5.47074
4.79719
4.10299
3.38896
2.65689
1.90955
1.15059
0.384357
9.70686
9.11896
8.52628
7.92577
7.31467
6.69051
6.05133
5.39567
4.72277
4.03257
3.32584
2.60413
1.86979
1.12587
0.37597
9.7006
9.10041
8.49614
7.88518
7.2652
6.63412
5.9903
5.33258
4.66035
3.97363
3.27311
2.56013
1.83668
1.10531
0.368996
9.6953
9.08471
8.47063
7.85087
7.22342
6.58657
5.93893
5.27956
4.60799
3.92428
3.22903
2.5234
1.80907
1.08818
0.363189
9.69081
9.07143
8.44908
7.82189
7.18818
6.5465
5.89571
5.23502
4.56407
3.88294
3.19215
2.49271
1.78603
1.07388
0.358346
9.68702
9.06021
8.43088
7.79744
7.15847
6.51276
5.85935
5.1976
4.52722
3.84829
3.16129
2.46705
1.76677
1.06195
0.354303
9.68382
9.05075
8.41553
7.77683
7.13345
6.48437
5.82878
5.16617
4.4963
3.81926
3.13544
2.44558
1.75068
1.05198
0.350925
9.68113
9.04277
8.40259
7.75947
7.11239
6.46049
5.8031
5.13979
4.47037
3.79492
3.1138
2.42762
1.73721
1.04364
0.348102
9.67886
9.03605
8.3917
7.74487
7.09468
6.44041
5.78152
5.11764
4.44862
3.77453
3.09568
2.41258
1.72595
1.03667
0.345741
9.67694
9.0304
8.38254
7.73258
7.07979
6.42355
5.76341
5.09906
4.43038
3.75744
3.0805
2.39999
1.71652
1.03083
0.343766
9.67534
9.02565
8.37485
7.72227
7.06729
6.40941
5.74822
5.08349
4.41511
3.74313
3.0678
2.38946
1.70864
1.02596
0.342116
9.67399
9.02166
8.3684
7.71362
7.05682
6.39755
5.7355
5.07045
4.40232
3.73116
3.05717
2.38066
1.70205
1.02188
0.340736
9.67286
9.01832
8.36299
7.70638
7.04805
6.38763
5.72486
5.05955
4.39163
3.72116
3.0483
2.37331
1.69656
1.01848
0.339585
9.67192
9.01554
8.35848
7.70033
7.04073
6.37935
5.71598
5.05045
4.38272
3.71283
3.04091
2.36719
1.69197
1.01565
0.338627
9.67114
9.01321
8.35472
7.6953
7.03463
6.37246
5.70859
5.04289
4.37531
3.7059
3.03476
2.3621
1.68817
1.01329
0.33783
9.67049
9.01129
8.35161
7.69113
7.02959
6.36676
5.70247
5.03663
4.36918
3.70016
3.02968
2.35789
1.68502
1.01135
0.337172
9.66995
9.00971
8.34904
7.68769
7.02543
6.36206
5.69744
5.03147
4.36413
3.69545
3.0255
2.35443
1.68243
1.00975
0.33663
9.66951
9.00842
8.34695
7.6849
7.02205
6.35824
5.69334
5.02728
4.36003
3.6916
3.02209
2.35161
1.68033
1.00844
0.33619
9.66916
9.00738
8.34527
7.68265
7.01933
6.35516
5.69005
5.02391
4.35673
3.68852
3.01936
2.34935
1.67864
1.0074
0.335836
9.66889
9.00656
8.34396
7.68088
7.01719
6.35275
5.68746
5.02127
4.35414
3.6861
3.01722
2.34758
1.67731
1.00658
0.335559
9.66868
9.00595
8.34296
7.67955
7.01558
6.35093
5.68551
5.01927
4.35219
3.68428
3.0156
2.34624
1.67631
1.00596
0.335349
9.66853
9.00551
8.34226
7.67861
7.01444
6.34964
5.68413
5.01786
4.3508
3.68298
3.01445
2.34529
1.6756
1.00552
0.335201
9.66844
9.00525
8.34182
7.67803
7.01374
6.34885
5.68328
5.01699
4.34995
3.68219
3.01375
2.3447
1.67516
1.00525
0.33511
9.6684
9.00514
8.34164
7.67779
7.01345
6.34852
5.68293
5.01663
4.3496
3.68186
3.01346
2.34447
1.67499
1.00514
0.335073
9.66842
9.00518
8.34172
7.67789
7.01357
6.34866
5.68308
5.01678
4.34975
3.682
3.01358
2.34457
1.67506
1.00519
0.335088
9.66849
9.00539
8.34205
7.67833
7.0141
6.34926
5.68372
5.01744
4.35039
3.6826
3.01411
2.34501
1.67539
1.00539
0.335157
9.66861
9.00575
8.34264
7.67912
7.01506
6.35034
5.68488
5.01862
4.35155
3.68369
3.01507
2.3458
1.67599
1.00576
0.335282
9.66879
9.00629
8.34351
7.68029
7.01648
6.35194
5.68659
5.02038
4.35327
3.68529
3.01649
2.34698
1.67686
1.0063
0.335465
9.66904
9.00702
8.3447
7.68188
7.01839
6.35411
5.68891
5.02275
4.35559
3.68746
3.01842
2.34857
1.67805
1.00704
0.335714
9.66936
9.00797
8.34622
7.68392
7.02086
6.3569
5.6919
5.02581
4.35859
3.69026
3.0209
2.35062
1.67959
1.00799
0.336035
9.66976
9.00915
8.34814
7.68649
7.02397
6.36041
5.69566
5.02965
4.36235
3.69377
3.02401
2.3532
1.68151
1.00918
0.336438
9.67026
9.01061
8.3505
7.68965
7.0278
6.36473
5.7003
5.0344
4.36699
3.69811
3.02786
2.35638
1.68389
1.01065
0.336936
9.67086
9.01239
8.35339
7.69351
7.03247
6.37001
5.70595
5.04018
4.37266
3.70341
3.03255
2.36027
1.6868
1.01244
0.337543
9.67159
9.01454
8.35687
7.69818
7.03812
6.3764
5.7128
5.04719
4.37952
3.70983
3.03824
2.36498
1.69032
1.01462
0.33828
9.67246
9.01714
8.36107
7.7038
7.04492
6.38409
5.72104
5.05563
4.38778
3.71756
3.04509
2.37065
1.69456
1.01724
0.339167
9.67351
9.02024
8.3661
7.71054
7.05307
6.39331
5.73093
5.06576
4.39771
3.72683
3.05332
2.37746
1.69966
1.0204
0.340234
9.67477
9.02396
8.37211
7.7186
7.06283
6.40434
5.74277
5.07788
4.40958
3.73795
3.06318
2.38563
1.70577
1.02417
0.341512
9.67627
9.02839
8.37929
7.72821
7.07448
6.41752
5.75691
5.09236
4.42378
3.75124
3.07497
2.3954
1.71307
1.0287
0.343042
9.67805
9.03367
8.38784
7.73968
7.08836
6.43323
5.77377
5.10965
4.44074
3.76711
3.08906
2.40707
1.72181
1.0341
0.344872
9.68018
9.03995
8.39802
7.75332
7.1049
6.45195
5.79387
5.13026
4.46096
3.78605
3.10588
2.42101
1.73225
1.04056
0.347058
9.6827
9.04742
8.41012
7.76955
7.12457
6.47424
5.81782
5.15483
4.48507
3.80865
3.12596
2.43767
1.74472
1.04828
0.349671
9.6857
9.05629
8.4245
7.78884
7.14796
6.50075
5.84632
5.18409
4.51382
3.83561
3.14992
2.45755
1.75961
1.0575
0.352793
9.68926
9.06682
8.44157
7.81174
7.17576
6.53227
5.88023
5.21893
4.54808
3.86776
3.17852
2.48129
1.77741
1.06852
0.356526
9.69347
9.0793
8.4618
7.83892
7.20876
6.56973
5.92057
5.26042
4.5889
3.90611
3.21266
2.50966
1.79869
1.08171
0.360991
9.69846
9.09408
8.48579
7.87115
7.24793
6.61423
5.96853
5.3098
4.63755
3.95186
3.25343
2.54357
1.82413
1.09748
0.366335
9.70437
9.11157
8.51418
7.90933
7.29437
6.66705
6.02554
5.36857
4.69552
4.00645
3.30214
2.58412
1.85459
1.11637
0.372737
9.71135
9.13224
8.54776
7.95452
7.34941
6.72972
6.09327
5.43851
4.76462
4.07161
3.36037
2.63265
1.89109
1.13902
0.380416
9.71959
9.15664
8.58743
8.00795
7.41456
6.80403
6.17372
5.52173
4.847
4.14944
3.43003
2.69081
1.93486
1.16622
0.389641
9.72929
9.1854
8.63421
8.07105
7.49161
6.89206
6.26922
5.62073
4.94522
4.24245
3.51345
2.76057
1.98746
1.19893
0.40074
9.7407
9.21924
8.6893
8.14545
7.58263
6.99627
6.38254
5.7385
5.06236
4.35366
3.61345
2.84438
2.05076
1.23834
0.414123
9.75408
9.25896
8.75404
8.23303
7.68998
7.11948
6.51689
5.87855
5.20211
4.48675
3.73347
2.94525
2.1271
1.28595
0.430303
9.76975
9.30548
8.82996
8.33591
7.81638
7.26497
6.67605
6.04506
5.36888
4.64618
3.87776
3.06689
2.21942
1.34363
0.449923
9.78803
9.35981
8.91875
8.45648
7.96492
7.4365
6.86441
6.24295
5.56796
4.83733
4.05152
3.21396
2.33138
1.41375
0.473804
9.8093
9.42304
9.02226
8.59737
8.13905
7.63835
7.08705
6.47799
5.80566
5.06681
4.26119
3.39228
2.46769
1.49936
0.503006
9.83393
9.49637
9.14249
8.76148
8.34259
7.87534
7.34979
6.75697
6.08954
5.34263
4.51483
3.60924
2.63437
1.60443
0.538914
9.86234
9.581
9.28157
8.95189
8.57971
8.15281
7.65922
7.08774
6.4286
5.67461
4.82246
3.87432
2.83928
1.73419
0.583373
9.89493
9.6782
9.44166
9.1718
8.85482
8.47656
8.02274
7.47936
6.83352
6.07474
5.19674
4.19974
3.09282
1.89571
0.638889
9.93208
9.78917
9.62486
9.42442
9.17246
8.85278
8.44844
7.94211
7.31686
6.55765
5.65365
4.60147
3.40898
2.09869
0.708957
9.97415
9.91498
9.83314
9.71282
9.53711
9.28776
8.94494
8.48742
7.8932
7.14108
6.21343
5.10062
3.80694
2.35683
0.798591
10.0214
10.0565
10.0681
10.0396
9.95288
9.78762
9.52107
9.12762
8.57917
7.84639
6.90177
5.72536
4.31352
2.69005
0.915265
10.074
10.2143
10.331
10.4069
10.4231
10.3578
10.1853
9.87544
9.39312
8.69876
7.75106
6.51355
4.96704
3.12835
1.07064
10.132
10.3886
10.6221
10.8157
10.95
11.0024
10.9448
10.743
10.3543
9.72703
8.80155
7.51631
5.82342
3.71873
1.28405
10.1953
10.5788
10.9409
11.2655
11.5339
11.7232
11.8045
11.7403
11.4811
10.9623
10.1019
8.80211
6.96576
4.53825
1.59012
10.2634
10.784
11.2857
11.7543
12.1725
12.519
12.7653
12.8729
12.788
12.4349
11.7071
10.4605
8.51857
5.71928
2.05735
10.3357
11.0023
11.6536
12.2779
12.861
13.3843
13.8223
14.1391
14.2813
14.1676
13.6726
12.6018
10.6667
7.49935
2.83899
10.4115
11.2312
12.0402
12.8302
13.591
14.3086
14.9636
15.5265
15.952
16.1651
16.038
15.343
13.6705
10.3162
4.32729
10.4897
11.4674
12.4399
13.4028
14.3509
15.2765
16.1685
17.0094
17.7701
18.3988
18.7975
18.7631
17.8422
14.9625
7.66675
10.569
11.7073
12.8461
13.9857
15.1263
16.2677
17.4089
18.5479
19.6796
20.7923
21.8575
22.7986
23.3741
22.6753
16.588
10.6482
11.9467
13.2517
14.5679
15.9012
17.2588
18.6508
20.0914
21.6022
23.2185
25.0038
27.0878
29.7908
34.13
44.3206
10.726
12.1817
13.6494
15.1382
16.659
18.226
19.8589
21.5861
23.4513
25.5272
27.9424
30.9469
35.0711
41.521
52.9836
10.801
12.4084
14.0325
15.6862
17.3846
19.1475
21.0015
22.9846
25.1541
27.6
30.4715
34.0282
38.7362
45.4307
55.4923
1.11256
1.98943
2.36928
2.50855
2.50841
2.41845
2.26688
2.07135
1.8437
1.59228
1.32321
1.04116
0.749829
0.452279
0.15115
0.59593
1.36237
1.79115
2.00159
2.06954
2.04067
1.94353
1.79684
1.61353
1.40285
1.1717
0.925416
0.668251
0.403762
0.135048
0.37473
0.969782
1.36465
1.59357
1.69788
1.71029
1.65456
1.54776
1.40235
1.22762
1.03071
0.817222
0.591754
0.358177
0.119905
0.260754
0.716207
1.05337
1.27208
1.39003
1.42722
1.40105
1.32548
1.21152
1.0678
0.901204
0.717344
0.520885
0.315849
0.105828
0.192649
0.544773
0.824331
1.02054
1.13826
1.18815
1.18182
1.12986
1.04134
0.92384
0.783689
0.626209
0.455968
0.27698
0.0928861
0.147578
0.42373
0.653169
0.823515
0.933572
0.988109
0.994267
0.959617
0.891276
0.79561
0.6782
0.543932
0.397123
0.241654
0.081109
0.115706
0.335121
0.523039
0.668348
0.767434
0.821656
0.835048
0.812763
0.760182
0.682472
0.584413
0.470361
0.344287
0.209852
0.070493
0.0921627
0.268383
0.422494
0.545275
0.632446
0.683552
0.700599
0.686942
0.646532
0.583462
0.501729
0.405133
0.297254
0.181469
0.061006
0.0742476
0.216996
0.343703
0.446926
0.522498
0.569094
0.587465
0.579694
0.548613
0.497406
0.429362
0.347739
0.255708
0.156334
0.0525942
0.0603226
0.176748
0.281218
0.367776
0.432669
0.474233
0.492482
0.488629
0.464667
0.42304
0.36642
0.29757
0.219259
0.134229
0.0451878
0.0493274
0.144801
0.231171
0.303667
0.359037
0.395559
0.412842
0.411525
0.392985
0.359081
0.31197
0.253968
0.187474
0.11491
0.0387074
0.0405409
0.119175
0.190755
0.251449
0.29849
0.330243
0.346115
0.346379
0.331969
0.304292
0.265079
0.216263
0.159901
0.0981167
0.0330687
0.0334537
0.0984478
0.157898
0.208712
0.248558
0.275952
0.290225
0.291421
0.280162
0.257512
0.224855
0.183797
0.136093
0.083589
0.0281861
0.0276947
0.0815693
0.131037
0.173588
0.207271
0.230771
0.243414
0.24511
0.236264
0.217679
0.190462
0.155945
0.115617
0.0710737
0.0239763
0.0229875
0.0677508
0.108977
0.144622
0.173054
0.193127
0.204204
0.206118
0.199127
0.183838
0.161137
0.132128
0.0980684
0.0603312
0.0203601
0.0191218
0.0563876
0.0907934
0.120665
0.144639
0.161731
0.171354
0.173309
0.167752
0.155143
0.136193
0.111815
0.0830728
0.0511396
0.0172639
0.0159348
0.0470102
0.0757576
0.100801
0.121003
0.13552
0.143827
0.145715
0.141272
0.130849
0.115017
0.0945331
0.0702922
0.0432967
0.0146205
0.0132993
0.039249
0.0632937
0.0842982
0.101313
0.11362
0.120756
0.122517
0.118945
0.110309
0.0970722
0.0798588
0.059424
0.0366205
0.0123692
0.0111144
0.0328104
0.0529405
0.0705655
0.0848922
0.0953108
0.101417
0.10302
0.100134
0.0929644
0.0818874
0.067421
0.0502003
0.0309496
0.010456
0.00929944
0.0274591
0.0443265
0.0591227
0.0711845
0.0799953
0.0852054
0.0866398
0.0842957
0.0783326
0.0690556
0.0568954
0.0423859
0.0261414
0.00883325
0.00778941
0.0230049
0.0371504
0.0495785
0.0597338
0.0671796
0.0716149
0.0728828
0.0709703
0.0660015
0.0582256
0.0480008
0.035776
0.0220718
0.0074593
0.00653165
0.0192934
0.0311668
0.0416121
0.0501642
0.0564539
0.0602235
0.061334
0.0597668
0.0556193
0.0490958
0.0404946
0.0301934
0.0186326
0.00629787
0.00548323
0.0161988
0.0261746
0.0349602
0.0421652
0.047478
0.0506782
0.0516441
0.0503546
0.0468867
0.0414083
0.0341686
0.0254852
0.0157307
0.00531766
0.00460901
0.0136177
0.0220089
0.0294056
0.03548
0.0399688
0.0426841
0.0435199
0.0424548
0.0395499
0.0349438
0.0288448
0.0215205
0.0132862
0.00449174
0.00388014
0.0114653
0.0185336
0.0247689
0.0298956
0.0336909
0.0359948
0.0367156
0.0358324
0.0333941
0.0295158
0.0243717
0.0181877
0.0112305
0.00379708
0.00327287
0.00967164
0.0156367
0.0209021
0.0252354
0.0284484
0.0304046
0.0310249
0.0302896
0.0282382
0.0249664
0.0206207
0.0153916
0.00950532
0.00321403
0.00276763
0.00817916
0.0132254
0.0176822
0.0213532
0.0240785
0.0257419
0.0262752
0.0256604
0.0239296
0.0211626
0.0174829
0.0130518
0.00806134
0.00272595
0.00234829
0.00694028
0.0112234
0.015008
0.0181274
0.0204458
0.0218638
0.0223227
0.0218061
0.0203403
0.0179924
0.0148668
0.0111005
0.00685681
0.00231876
0.00200155
0.0059158
0.00956761
0.0127956
0.0154577
0.0174382
0.0186516
0.0190474
0.0186107
0.0173634
0.0153621
0.0126955
0.00948049
0.00585667
0.00198064
0.0017165
0.00507352
0.00820605
0.0109759
0.0132614
0.014963
0.0160072
0.0163499
0.0159782
0.01491
0.0131936
0.010905
0.00814433