/*--------------------------------*- C++ -*----------------------------------*\
| =========                 |                                                 |
| \\      /  F ield         | OpenFOAM: The Open Source CFD Toolbox           |
|  \\    /   O peration     | Version:  5.x                                   |
|   \\  /    A nd           | Web:      www.OpenFOAM.org                      |
|    \\/     M anipulation  |                                                 |
\*---------------------------------------------------------------------------*/
FoamFile
{
    version     2.0;
    format      ascii;
    class       volScalarField;
    location    "0.3";
    object      T;
}
// * * * * * * * * * * * * * * * * * * * * * * * * * * * * * * * * * * * * * //

dimensions      [0 0 0 1 0 0 0];

internalField   nonuniform List<scalar> 
3200
(
5.32857
5.86503
5.89586
5.98314
5.98888
6.00044
6.00127
6.00299
6.00314
6.00382
6.00441
6.00447
6.00504
6.0051
6.00567
6.00573
6.00631
6.00637
6.00694
6.007
6.00756
6.00762
6.00812
6.00817
6.00854
6.00856
6.00863
6.00861
6.00807
6.00795
6.00623
6.00593
6.00199
6.00137
5.99356
5.9924
5.97815
5.97613
5.95185
5.94854
5.90961
5.90449
5.84559
5.83812
5.75401
5.74369
5.6302
5.61664
5.47127
5.45312
5.26765
5.05438
5.03048
4.79962
4.77464
4.52684
4.50077
4.24787
4.22197
3.97747
3.9529
3.72588
3.70307
3.49308
3.47153
3.26912
3.24767
3.03954
3.01677
2.78918
2.76352
2.5004
2.46954
2.14276
2.10301
1.65282
1.62934
1.62545
1.62458
1.62438
5.38618
5.82286
5.89287
5.97387
5.98758
5.99904
6.00107
6.00279
6.00315
6.0038
6.00436
6.00451
6.005
6.00514
6.00563
6.00577
6.00627
6.00641
6.0069
6.00704
6.00752
6.00765
6.00808
6.00819
6.0085
6.00855
6.00861
6.00855
6.00808
6.0078
6.00629
6.00559
6.00216
6.00072
5.99393
5.99124
5.97887
5.97419
5.95314
5.94547
5.91176
5.89991
5.84897
5.83168
5.75901
5.73514
5.63711
5.60571
5.47962
5.43695
5.2648
5.07059
5.01474
4.81512
4.75735
4.54368
4.48342
4.26541
4.20553
3.99468
3.93786
3.74191
3.68915
3.50772
3.45787
3.2829
3.23325
3.05334
3.00064
2.80388
2.74447
2.51682
2.44537
2.16268
2.07134
1.69281
1.63865
1.62766
1.62513
1.62456
5.42631
5.79536
5.88944
5.96729
5.98638
5.99802
6.00089
6.00264
6.00316
6.00379
6.00432
6.00453
6.00497
6.00516
6.0056
6.00579
6.00624
6.00643
6.00688
6.00706
6.0075
6.00767
6.00806
6.0082
6.00848
6.00855
6.0086
6.00851
6.00808
6.00769
6.00632
6.00537
6.00225
6.00029
5.99413
5.99046
5.97928
5.97289
5.9539
5.94344
5.91304
5.8969
5.85101
5.82746
5.76206
5.72955
5.64135
5.59856
5.48464
5.42596
5.26283
5.08126
5.00475
4.82494
4.74628
4.55438
4.47237
4.27661
4.19512
4.00573
3.92837
3.75221
3.68037
3.5171
3.4492
3.29167
3.22404
3.06205
2.99026
2.81308
2.73215
2.52699
2.42965
2.17494
2.05116
1.71983
1.64623
1.62952
1.6256
1.62472
5.45169
5.77886
5.88666
5.96305
5.98548
5.99734
6.00075
6.00255
6.00316
6.00378
6.0043
6.00454
6.00496
6.00518
6.00559
6.00581
6.00623
6.00645
6.00686
6.00708
6.00748
6.00768
6.00804
6.00821
6.00847
6.00855
6.00859
6.00849
6.00807
6.00763
6.00633
6.00523
6.0023
6.00002
5.99424
5.98999
5.9795
5.97211
5.9543
5.9422
5.91375
5.89507
5.85215
5.82491
5.76378
5.72618
5.64377
5.59426
5.48743
5.41913
5.26159
5.08771
4.99888
4.8307
4.73973
4.56068
4.46585
4.28324
4.18902
4.01228
3.92283
3.75832
3.67524
3.52265
3.44411
3.29683
3.2186
3.06714
2.9841
2.81842
2.72479
2.53283
2.42021
2.18196
2.03927
1.73652
1.65153
1.63086
1.62595
1.62483
5.46398
5.77114
5.88513
5.96098
5.985
5.99701
6.00068
6.0025
6.00315
6.00377
6.00429
6.00455
6.00495
6.00518
6.00558
6.00582
6.00622
6.00645
6.00686
6.00708
6.00747
6.00769
6.00804
6.00821
6.00846
6.00854
6.00858
6.00848
6.00807
6.0076
6.00633
6.00516
6.00231
5.9999
5.99429
5.98977
5.9796
5.97173
5.95448
5.94162
5.91406
5.89421
5.85266
5.82371
5.76456
5.7246
5.64486
5.59223
5.48867
5.41586
5.26099
5.09076
4.99616
4.83336
4.73669
4.56359
4.46284
4.28631
4.1862
4.01533
3.92028
3.76117
3.67288
3.52523
3.44176
3.29922
3.21607
3.06949
2.98123
2.82086
2.72135
2.53549
2.41579
2.18515
2.03376
1.7445
1.65425
1.63157
1.62613
1.62489
5.46398
5.77114
5.88513
5.96098
5.985
5.99701
6.00068
6.0025
6.00315
6.00377
6.00429
6.00455
6.00495
6.00518
6.00558
6.00582
6.00622
6.00645
6.00686
6.00708
6.00747
6.00769
6.00804
6.00821
6.00846
6.00854
6.00858
6.00848
6.00807
6.0076
6.00633
6.00516
6.00231
5.9999
5.99429
5.98977
5.9796
5.97173
5.95448
5.94162
5.91406
5.89421
5.85266
5.82371
5.76456
5.7246
5.64486
5.59223
5.48867
5.41586
5.26099
5.09076
4.99616
4.83336
4.73669
4.56359
4.46284
4.28631
4.1862
4.01533
3.92028
3.76117
3.67288
3.52523
3.44176
3.29922
3.21607
3.06949
2.98123
2.82086
2.72135
2.53549
2.41579
2.18515
2.03376
1.7445
1.65425
1.63157
1.62613
1.62488
5.45169
5.77886
5.88666
5.96305
5.98548
5.99734
6.00075
6.00255
6.00316
6.00378
6.0043
6.00454
6.00496
6.00518
6.00559
6.00581
6.00623
6.00645
6.00686
6.00708
6.00748
6.00768
6.00804
6.00821
6.00847
6.00855
6.00859
6.00849
6.00807
6.00763
6.00633
6.00523
6.0023
6.00002
5.99424
5.98999
5.9795
5.97211
5.9543
5.9422
5.91375
5.89507
5.85216
5.82491
5.76378
5.72619
5.64377
5.59426
5.48743
5.41913
5.26159
5.08772
4.99888
4.8307
4.73973
4.56068
4.46586
4.28324
4.18902
4.01228
3.92283
3.75832
3.67524
3.52265
3.44411
3.29683
3.2186
3.06714
2.9841
2.81842
2.72479
2.53283
2.42021
2.18196
2.03927
1.73652
1.65153
1.63087
1.62595
1.62483
5.42632
5.79536
5.88944
5.96729
5.98638
5.99801
6.00089
6.00264
6.00316
6.00379
6.00432
6.00453
6.00497
6.00516
6.0056
6.00579
6.00624
6.00643
6.00688
6.00706
6.0075
6.00767
6.00806
6.0082
6.00848
6.00855
6.0086
6.00851
6.00808
6.00769
6.00632
6.00537
6.00225
6.00029
5.99413
5.99046
5.97928
5.9729
5.9539
5.94344
5.91304
5.8969
5.85101
5.82746
5.76206
5.72955
5.64135
5.59857
5.48464
5.42596
5.26284
5.08126
5.00475
4.82494
4.74628
4.55439
4.47237
4.27662
4.19512
4.00573
3.92837
3.75221
3.68037
3.5171
3.4492
3.29167
3.22404
3.06205
2.99026
2.81308
2.73215
2.52699
2.42965
2.17495
2.05116
1.71983
1.64624
1.62952
1.6256
1.62471
5.38618
5.82286
5.89287
5.97387
5.98758
5.99904
6.00107
6.00279
6.00315
6.0038
6.00436
6.00451
6.005
6.00514
6.00563
6.00577
6.00627
6.00641
6.0069
6.00704
6.00752
6.00765
6.00808
6.00819
6.0085
6.00855
6.00861
6.00855
6.00808
6.0078
6.00629
6.00559
6.00216
6.00072
5.99393
5.99124
5.97887
5.97419
5.95314
5.94547
5.91176
5.89991
5.84898
5.83168
5.75901
5.73514
5.63711
5.60571
5.47963
5.43695
5.26481
5.07059
5.01474
4.81512
4.75735
4.54369
4.48342
4.26541
4.20553
3.99468
3.93786
3.74191
3.68915
3.50772
3.45787
3.28291
3.23326
3.05334
3.00064
2.80388
2.74447
2.51682
2.44537
2.16268
2.07135
1.69281
1.63865
1.62766
1.62513
1.62456
5.32857
5.86503
5.89586
5.98314
5.98888
6.00044
6.00127
6.00299
6.00314
6.00382
6.00441
6.00447
6.00504
6.0051
6.00567
6.00573
6.00631
6.00637
6.00694
6.007
6.00756
6.00762
6.00812
6.00817
6.00854
6.00856
6.00863
6.00861
6.00807
6.00795
6.00623
6.00593
6.00199
6.00137
5.99356
5.9924
5.97815
5.97613
5.95186
5.94854
5.90961
5.90449
5.84559
5.83812
5.75401
5.74369
5.6302
5.61664
5.47127
5.45312
5.26765
5.05438
5.03048
4.79962
4.77464
4.52684
4.50077
4.24788
4.22197
3.97747
3.9529
3.72588
3.70307
3.49308
3.47153
3.26912
3.24767
3.03954
3.01677
2.78918
2.76352
2.5004
2.46954
2.14276
2.10301
1.65282
1.62934
1.62545
1.62458
1.62438
5.82571
5.99079
5.99904
6.00164
6.00201
6.0024
6.00245
6.00271
6.00274
6.00303
6.00333
6.00336
6.00366
6.00369
6.00399
6.00402
6.00433
6.00436
6.00466
6.00469
6.00497
6.005
6.00523
6.00525
6.00536
6.00536
6.00523
6.00519
6.00458
6.00447
6.00294
6.00269
5.99953
5.99906
5.99314
5.99229
5.98198
5.98055
5.96369
5.96144
5.93542
5.93208
5.89422
5.88953
5.83759
5.83138
5.76426
5.75647
5.6747
5.66491
5.56707
5.46227
5.45107
5.3484
5.33787
5.23885
5.2289
5.1371
5.12796
5.04446
5.03605
4.95858
4.95044
4.87244
4.86352
4.77167
4.75998
4.62971
4.61209
4.40752
4.37878
4.03869
3.98791
3.35514
3.27953
2.42929
2.38494
2.3776
2.37595
2.37558
5.84332
5.9773
5.99602
6.0008
6.00184
6.00233
6.00246
6.00269
6.00277
6.00303
6.0033
6.00338
6.00364
6.00371
6.00397
6.00404
6.00431
6.00438
6.00464
6.00471
6.00495
6.00501
6.00521
6.00525
6.00535
6.00534
6.00523
6.00514
6.0046
6.00433
6.003
6.00243
5.99968
5.99857
5.99343
5.99146
5.98252
5.97922
5.96461
5.95941
5.9369
5.92917
5.89645
5.8856
5.84075
5.82639
5.76846
5.75044
5.67961
5.65663
5.56638
5.4706
5.44439
5.3556
5.33125
5.24584
5.22285
5.14363
5.12249
5.05037
5.03091
4.96391
4.94506
4.87747
4.85679
4.77701
4.74991
4.63674
4.59585
4.418
4.35128
4.05493
3.93744
3.39343
3.21987
2.50485
2.40253
2.38177
2.377
2.37592
5.85557
5.96843
5.99356
6.00012
6.00169
6.00228
6.00246
6.00268
6.00278
6.00303
6.00329
6.00339
6.00362
6.00372
6.00396
6.00406
6.00429
6.00439
6.00463
6.00472
6.00494
6.00502
6.0052
6.00525
6.00534
6.00533
6.00522
6.0051
6.00461
6.00425
6.00304
6.00225
5.99976
5.99825
5.9936
5.99091
5.98283
5.97833
5.96515
5.95807
5.93778
5.92726
5.8978
5.88304
5.8427
5.82314
5.77106
5.74651
5.68261
5.65104
5.5659
5.47615
5.44021
5.36023
5.32706
5.25033
5.21903
5.14784
5.11904
5.05417
5.02767
4.96731
4.94162
4.88061
4.85241
4.78025
4.74328
4.64088
4.58508
4.42404
4.33296
4.06401
3.90402
3.41689
3.18186
2.55589
2.41686
2.38529
2.37789
2.37621
5.8633
5.96307
5.99184
5.99963
6.00158
6.00224
6.00246
6.00267
6.00279
6.00303
6.00328
6.0034
6.00362
6.00373
6.00395
6.00407
6.00429
6.0044
6.00462
6.00473
6.00493
6.00503
6.00519
6.00525
6.00533
6.00532
6.00522
6.00507
6.00461
6.00419
6.00305
6.00214
5.9998
5.99805
5.99369
5.99057
5.983
5.97779
5.96545
5.95726
5.93828
5.9261
5.89857
5.88149
5.84381
5.82119
5.77256
5.74416
5.6843
5.64759
5.5656
5.47953
5.43779
5.36297
5.32461
5.253
5.21681
5.15034
5.11704
5.05643
5.02577
4.96932
4.93959
4.88244
4.84979
4.78207
4.73926
4.64314
4.57852
4.42728
4.32175
4.06872
3.88367
3.43026
3.15947
2.58743
2.42687
2.38783
2.37854
2.37643
5.86704
5.96054
5.99096
5.99938
6.00153
6.00223
6.00246
6.00267
6.0028
6.00303
6.00327
6.0034
6.00361
6.00373
6.00395
6.00407
6.00428
6.0044
6.00461
6.00473
6.00493
6.00503
6.00519
6.00525
6.00533
6.00532
6.00522
6.00506
6.00461
6.00416
6.00306
6.00209
5.99982
5.99796
5.99372
5.99041
5.98307
5.97754
5.96558
5.95687
5.9385
5.92556
5.89891
5.88076
5.84431
5.82028
5.77324
5.74305
5.68506
5.64595
5.56546
5.48114
5.43668
5.36425
5.32348
5.25424
5.21579
5.15151
5.11612
5.05748
5.0249
4.97025
4.93865
4.88327
4.84856
4.78289
4.73736
4.64413
4.57541
4.42867
4.31643
4.0707
3.87405
3.4363
3.14912
2.6025
2.432
2.38915
2.37888
2.37654
5.86704
5.96054
5.99096
5.99938
6.00153
6.00223
6.00246
6.00267
6.0028
6.00303
6.00327
6.0034
6.00361
6.00373
6.00395
6.00407
6.00428
6.0044
6.00461
6.00473
6.00493
6.00503
6.00519
6.00525
6.00533
6.00532
6.00522
6.00506
6.00461
6.00416
6.00306
6.00209
5.99982
5.99796
5.99372
5.99041
5.98307
5.97754
5.96558
5.95687
5.9385
5.92556
5.89891
5.88076
5.84431
5.82028
5.77324
5.74305
5.68507
5.64595
5.56546
5.48114
5.43668
5.36425
5.32348
5.25424
5.21579
5.15151
5.11612
5.05748
5.0249
4.97025
4.93865
4.88327
4.84856
4.78289
4.73736
4.64413
4.57541
4.42867
4.31643
4.0707
3.87405
3.4363
3.14912
2.6025
2.432
2.38916
2.37888
2.37653
5.8633
5.96307
5.99184
5.99963
6.00158
6.00224
6.00246
6.00267
6.00279
6.00303
6.00328
6.0034
6.00362
6.00373
6.00395
6.00407
6.00429
6.0044
6.00462
6.00473
6.00493
6.00503
6.00519
6.00525
6.00533
6.00532
6.00522
6.00507
6.00461
6.00419
6.00305
6.00214
5.9998
5.99805
5.99369
5.99057
5.983
5.97779
5.96545
5.95726
5.93828
5.9261
5.89857
5.88149
5.84381
5.82119
5.77256
5.74416
5.6843
5.64759
5.5656
5.47953
5.43779
5.36297
5.32461
5.253
5.21681
5.15034
5.11704
5.05643
5.02577
4.96932
4.93959
4.88244
4.84979
4.78207
4.73926
4.64314
4.57852
4.42728
4.32175
4.06872
3.88367
3.43026
3.15947
2.58744
2.42687
2.38783
2.37854
2.37642
5.85557
5.96843
5.99356
6.00012
6.00169
6.00228
6.00246
6.00268
6.00278
6.00303
6.00329
6.00339
6.00362
6.00372
6.00396
6.00406
6.00429
6.00439
6.00463
6.00472
6.00494
6.00502
6.0052
6.00525
6.00534
6.00533
6.00522
6.0051
6.00461
6.00425
6.00304
6.00225
5.99976
5.99825
5.9936
5.99091
5.98283
5.97833
5.96515
5.95807
5.93779
5.92726
5.8978
5.88304
5.8427
5.82314
5.77106
5.74652
5.68261
5.65104
5.5659
5.47615
5.44021
5.36023
5.32706
5.25033
5.21903
5.14784
5.11905
5.05417
5.02767
4.96732
4.94162
4.88061
4.85242
4.78025
4.74328
4.64088
4.58508
4.42405
4.33297
4.06401
3.90402
3.41689
3.18186
2.55589
2.41686
2.38529
2.37789
2.37621
5.84332
5.9773
5.99602
6.0008
6.00184
6.00233
6.00246
6.00269
6.00277
6.00303
6.0033
6.00338
6.00364
6.00371
6.00397
6.00404
6.00431
6.00438
6.00464
6.00471
6.00495
6.00501
6.00521
6.00525
6.00535
6.00534
6.00523
6.00514
6.0046
6.00433
6.003
6.00243
5.99968
5.99857
5.99343
5.99146
5.98252
5.97922
5.96461
5.95941
5.9369
5.92917
5.89645
5.8856
5.84075
5.82639
5.76846
5.75044
5.67961
5.65663
5.56638
5.4706
5.44439
5.3556
5.33125
5.24584
5.22285
5.14364
5.12249
5.05037
5.03091
4.96391
4.94506
4.87747
4.85679
4.77702
4.74992
4.63674
4.59585
4.41801
4.35128
4.05493
3.93744
3.39343
3.21987
2.50485
2.40254
2.38177
2.377
2.37592
5.82571
5.99079
5.99904
6.00164
6.00201
6.0024
6.00245
6.00271
6.00274
6.00303
6.00333
6.00336
6.00366
6.00369
6.00399
6.00402
6.00433
6.00436
6.00466
6.00469
6.00497
6.005
6.00523
6.00525
6.00536
6.00536
6.00523
6.00519
6.00458
6.00447
6.00294
6.00269
5.99953
5.99906
5.99314
5.99229
5.98198
5.98055
5.96369
5.96144
5.93542
5.93208
5.89422
5.88953
5.83759
5.83138
5.76426
5.75648
5.6747
5.66491
5.56707
5.46227
5.45107
5.3484
5.33787
5.23885
5.2289
5.1371
5.12796
5.04446
5.03605
4.95858
4.95044
4.87245
4.86353
4.77167
4.75999
4.62971
4.61209
4.40752
4.37878
4.03869
3.98791
3.35514
3.27953
2.4293
2.38494
2.3776
2.37595
2.37558
5.82577
5.99117
5.99945
6.00221
6.00261
6.00318
6.00325
6.00372
6.00377
6.00428
6.00482
6.00487
6.00541
6.00546
6.00601
6.00607
6.00663
6.00668
6.00724
6.0073
6.00784
6.0079
6.0084
6.00844
6.00883
6.00885
6.00899
6.00898
6.00864
6.00855
6.00728
6.00706
6.00415
6.00369
5.99799
5.99716
5.98702
5.98562
5.96887
5.96663
5.94066
5.93732
5.89942
5.89473
5.84267
5.83644
5.76913
5.76132
5.6793
5.66948
5.57136
5.46628
5.45505
5.35216
5.34161
5.24241
5.23245
5.14052
5.13137
5.04779
5.03938
4.96188
4.95373
4.87573
4.86681
4.77497
4.76328
4.63293
4.61529
4.41048
4.3817
4.04101
3.99013
3.35597
3.28024
2.42895
2.38453
2.37718
2.37553
2.37516
5.84341
5.97766
5.99644
6.00137
6.00245
6.0031
6.00327
6.00369
6.00381
6.00428
6.00477
6.00491
6.00537
6.0055
6.00597
6.00611
6.00659
6.00672
6.0072
6.00734
6.00781
6.00793
6.00836
6.00846
6.00879
6.00886
6.00897
6.00894
6.00864
6.00844
6.00733
6.00681
6.00427
6.00322
5.99827
5.99634
5.98755
5.98428
5.96978
5.9646
5.94213
5.9344
5.90165
5.89079
5.84584
5.83144
5.77334
5.75527
5.68423
5.66118
5.57067
5.47464
5.44836
5.35938
5.33497
5.24941
5.22638
5.14706
5.12589
5.05371
5.03424
4.96721
4.94835
4.88076
4.86008
4.78031
4.7532
4.63996
4.59903
4.42098
4.35415
4.05728
3.93954
3.39436
3.22052
2.5046
2.40215
2.38136
2.37658
2.37551
5.85568
5.96878
5.99398
6.00068
6.00231
6.00304
6.00328
6.00367
6.00384
6.00429
6.00475
6.00493
6.00535
6.00553
6.00595
6.00613
6.00656
6.00675
6.00718
6.00736
6.00778
6.00795
6.00834
6.00848
6.00877
6.00886
6.00896
6.00892
6.00863
6.00836
6.00735
6.00665
6.00434
6.00291
5.99842
5.99579
5.98785
5.9834
5.97032
5.96326
5.94301
5.93249
5.90301
5.88822
5.84779
5.82818
5.77595
5.75133
5.68723
5.65558
5.57019
5.4802
5.44417
5.36401
5.33078
5.25391
5.22257
5.15128
5.12245
5.05752
5.03099
4.97061
4.94492
4.8839
4.8557
4.78354
4.74656
4.6441
4.58825
4.42702
4.3358
4.06637
3.90605
3.41789
3.18247
2.5557
2.4165
2.38489
2.37748
2.3758
5.86343
5.9634
5.99227
6.00019
6.00221
6.003
6.00329
6.00365
6.00386
6.00429
6.00473
6.00494
6.00533
6.00554
6.00594
6.00615
6.00655
6.00676
6.00717
6.00737
6.00777
6.00796
6.00832
6.00849
6.00876
6.00885
6.00895
6.0089
6.00863
6.00831
6.00736
6.00654
6.00438
6.00271
5.99851
5.99546
5.98802
5.98287
5.97061
5.96245
5.94351
5.93133
5.90377
5.88666
5.8489
5.82623
5.77745
5.74897
5.68893
5.65212
5.56989
5.48359
5.44175
5.36676
5.32833
5.25659
5.22034
5.15378
5.12044
5.05978
5.0291
4.97262
4.94289
4.88573
4.85308
4.78536
4.74254
4.64636
4.58168
4.43026
4.32456
4.07108
3.88566
3.43129
3.16006
2.58729
2.42652
2.38743
2.37813
2.37601
5.86718
5.96088
5.99139
5.99994
6.00215
6.00298
6.00329
6.00365
6.00387
6.00429
6.00472
6.00495
6.00533
6.00555
6.00593
6.00615
6.00654
6.00677
6.00716
6.00738
6.00776
6.00797
6.00831
6.00849
6.00875
6.00885
6.00894
6.00889
6.00863
6.00829
6.00736
6.0065
6.00439
6.00262
5.99854
5.9953
5.98809
5.98261
5.97074
5.96206
5.94372
5.93079
5.90412
5.88594
5.8494
5.82531
5.77814
5.74786
5.6897
5.65047
5.56975
5.4852
5.44064
5.36804
5.3272
5.25783
5.21931
5.15495
5.11952
5.06083
5.02822
4.97356
4.94194
4.88656
4.85185
4.78618
4.74064
4.64735
4.57856
4.43165
4.31923
4.07306
3.87602
3.43735
3.14969
2.60237
2.43166
2.38876
2.37847
2.37612
5.86718
5.96088
5.99139
5.99994
6.00215
6.00298
6.00329
6.00365
6.00387
6.00429
6.00472
6.00495
6.00533
6.00555
6.00593
6.00615
6.00654
6.00677
6.00716
6.00738
6.00776
6.00797
6.00831
6.00849
6.00875
6.00885
6.00894
6.00889
6.00863
6.00829
6.00736
6.0065
6.00439
6.00262
5.99854
5.9953
5.98809
5.98261
5.97074
5.96206
5.94372
5.93079
5.90412
5.88594
5.8494
5.82531
5.77814
5.74786
5.6897
5.65047
5.56975
5.4852
5.44064
5.36804
5.3272
5.25783
5.21931
5.15495
5.11952
5.06083
5.02822
4.97356
4.94194
4.88656
4.85185
4.78618
4.74064
4.64735
4.57856
4.43165
4.31923
4.07307
3.87602
3.43735
3.14969
2.60238
2.43166
2.38876
2.37847
2.37612
5.86343
5.9634
5.99227
6.00019
6.00221
6.003
6.00329
6.00365
6.00386
6.00429
6.00473
6.00494
6.00533
6.00554
6.00594
6.00615
6.00655
6.00676
6.00717
6.00737
6.00777
6.00796
6.00832
6.00849
6.00876
6.00885
6.00895
6.0089
6.00863
6.00831
6.00736
6.00654
6.00438
6.00271
5.99851
5.99546
5.98802
5.98287
5.97061
5.96245
5.94351
5.93133
5.90377
5.88667
5.8489
5.82623
5.77745
5.74897
5.68893
5.65212
5.56989
5.4836
5.44175
5.36676
5.32833
5.25659
5.22034
5.15378
5.12044
5.05978
5.0291
4.97262
4.94289
4.88573
4.85308
4.78536
4.74254
4.64636
4.58168
4.43026
4.32457
4.07109
3.88566
3.43129
3.16006
2.58729
2.42652
2.38743
2.37813
2.37601
5.85568
5.96878
5.99398
6.00068
6.00231
6.00304
6.00328
6.00367
6.00384
6.00429
6.00475
6.00493
6.00535
6.00553
6.00595
6.00613
6.00656
6.00675
6.00718
6.00736
6.00778
6.00795
6.00834
6.00848
6.00877
6.00886
6.00896
6.00892
6.00863
6.00836
6.00735
6.00665
6.00434
6.00291
5.99842
5.99579
5.98785
5.9834
5.97032
5.96326
5.94301
5.93249
5.90301
5.88822
5.84779
5.82818
5.77595
5.75133
5.68723
5.65558
5.57019
5.4802
5.44418
5.36401
5.33078
5.25392
5.22257
5.15128
5.12245
5.05752
5.03099
4.97061
4.94492
4.8839
4.8557
4.78354
4.74656
4.6441
4.58825
4.42702
4.3358
4.06637
3.90605
3.41789
3.18247
2.5557
2.4165
2.38489
2.37748
2.37579
5.84341
5.97766
5.99644
6.00137
6.00245
6.0031
6.00327
6.00369
6.00381
6.00428
6.00477
6.00491
6.00537
6.0055
6.00597
6.00611
6.00659
6.00672
6.0072
6.00734
6.00781
6.00793
6.00836
6.00846
6.00879
6.00886
6.00897
6.00894
6.00864
6.00844
6.00733
6.00681
6.00427
6.00322
5.99827
5.99634
5.98755
5.98429
5.96978
5.9646
5.94213
5.93441
5.90165
5.89079
5.84584
5.83144
5.77335
5.75527
5.68423
5.66118
5.57067
5.47464
5.44836
5.35938
5.33497
5.24941
5.22638
5.14707
5.12589
5.05371
5.03424
4.96721
4.94835
4.88076
4.86008
4.78031
4.7532
4.63996
4.59903
4.42098
4.35415
4.05728
3.93955
3.39436
3.22052
2.5046
2.40216
2.38136
2.37659
2.3755
5.82577
5.99117
5.99945
6.00221
6.00261
6.00318
6.00325
6.00372
6.00377
6.00428
6.00482
6.00487
6.00541
6.00546
6.00601
6.00607
6.00663
6.00668
6.00724
6.0073
6.00784
6.0079
6.0084
6.00844
6.00883
6.00885
6.00899
6.00898
6.00864
6.00855
6.00728
6.00706
6.00415
6.00369
5.99799
5.99716
5.98702
5.98562
5.96887
5.96663
5.94066
5.93732
5.89942
5.89473
5.84267
5.83644
5.76913
5.76132
5.6793
5.66948
5.57136
5.46628
5.45505
5.35216
5.34161
5.24241
5.23245
5.14052
5.13137
5.04779
5.03938
4.96188
4.95373
4.87573
4.86681
4.77497
4.76328
4.63293
4.61529
4.41048
4.3817
4.04101
3.99013
3.35597
3.28024
2.42895
2.38453
2.37719
2.37553
2.37516
5.32911
5.86537
5.89617
5.98322
5.98893
6.00026
6.00107
6.00255
6.00267
6.0031
6.00343
6.00347
6.00378
6.00381
6.00411
6.00415
6.00445
6.00448
6.00478
6.00481
6.00508
6.0051
6.00531
6.00532
6.00539
6.00539
6.00516
6.0051
6.00426
6.00411
6.00207
6.00174
5.9975
5.99685
5.98874
5.98755
5.97302
5.97097
5.94645
5.94311
5.90398
5.89885
5.83982
5.83234
5.7482
5.73789
5.62447
5.61092
5.46574
5.44761
5.26242
5.04949
5.02563
4.79511
4.77017
4.52272
4.49668
4.24408
4.2182
3.9739
3.94935
3.72246
3.69967
3.48978
3.46825
3.26598
3.24454
3.03658
3.01383
2.78644
2.7608
2.49791
2.46708
2.14058
2.10087
1.65106
1.6276
1.62371
1.62284
1.62265
5.3867
5.82321
5.89317
5.97396
5.98762
5.99887
6.00085
6.00237
6.00267
6.00308
6.0034
6.00349
6.00376
6.00383
6.00409
6.00417
6.00443
6.0045
6.00476
6.00482
6.00506
6.00511
6.00529
6.00532
6.00538
6.00536
6.00516
6.00502
6.00429
6.00393
6.00216
6.00139
5.99769
5.99618
5.98913
5.98637
5.97376
5.96901
5.94776
5.94003
5.90615
5.89426
5.84322
5.82591
5.75321
5.72934
5.63138
5.60001
5.47408
5.43147
5.25958
5.06568
5.00991
4.81059
4.7529
4.53953
4.47935
4.26159
4.20177
3.9911
3.93431
3.73848
3.68575
3.50442
3.4546
3.27975
3.23014
3.05037
2.99771
2.80112
2.74177
2.51431
2.44293
2.16049
2.06923
1.69102
1.6369
1.62592
1.6234
1.62283
5.42682
5.79572
5.88973
5.96739
5.98641
5.99786
6.00066
6.00223
6.00266
6.00307
6.00338
6.0035
6.00374
6.00384
6.00408
6.00418
6.00442
6.00451
6.00474
6.00483
6.00504
6.00512
6.00528
6.00532
6.00537
6.00534
6.00515
6.00497
6.0043
6.00381
6.0022
6.00115
5.9978
5.99573
5.98935
5.98558
5.97419
5.96771
5.94852
5.93799
5.90744
5.89124
5.84526
5.82169
5.75626
5.72376
5.63562
5.59287
5.47909
5.42049
5.25762
5.07633
4.99993
4.82039
4.74184
4.55022
4.46831
4.27278
4.19137
4.00213
3.92483
3.74877
3.67698
3.51379
3.44594
3.28851
3.22093
3.05907
2.98734
2.81031
2.72945
2.52447
2.42722
2.17274
2.04906
1.71801
1.64448
1.62778
1.62387
1.62298
5.45218
5.77922
5.88694
5.96317
5.9855
5.9972
6.00052
6.00214
6.00265
6.00306
6.00337
6.00351
6.00373
6.00385
6.00407
6.00419
6.00441
6.00452
6.00473
6.00484
6.00503
6.00512
6.00527
6.00532
6.00537
6.00533
6.00515
6.00494
6.0043
6.00374
6.00222
6.001
5.99785
5.99546
5.98946
5.9851
5.97441
5.96692
5.94894
5.93675
5.90815
5.88941
5.84641
5.81914
5.75798
5.7204
5.63804
5.58857
5.48188
5.41367
5.25638
5.08277
4.99407
4.82615
4.7353
4.5565
4.4618
4.27939
4.18527
4.00868
3.9193
3.75488
3.67185
3.51934
3.44085
3.29367
3.21549
3.06416
2.98118
2.81565
2.7221
2.53031
2.41779
2.17975
2.03718
1.73469
1.64978
1.62912
1.62421
1.62309
5.46446
5.7715
5.88541
5.9611
5.98502
5.99687
6.00044
6.0021
6.00264
6.00306
6.00336
6.00351
6.00373
6.00385
6.00407
6.00419
6.0044
6.00452
6.00473
6.00484
6.00503
6.00513
6.00527
6.00532
6.00536
6.00533
6.00515
6.00492
6.0043
6.0037
6.00223
6.00093
5.99787
5.99533
5.98951
5.98488
5.97451
5.96654
5.94912
5.93616
5.90847
5.88855
5.84692
5.81794
5.75876
5.71882
5.63913
5.58655
5.48312
5.41041
5.25578
5.08581
4.99136
4.8288
4.73227
4.55941
4.45879
4.28246
4.18246
4.01172
3.91675
3.75773
3.66949
3.52192
3.4385
3.29605
3.21297
3.0665
2.97831
2.81809
2.71866
2.53297
2.41337
2.18293
2.03168
1.74266
1.65249
1.62983
1.62439
1.62315
5.46446
5.7715
5.88541
5.9611
5.98502
5.99687
6.00044
6.0021
6.00264
6.00306
6.00336
6.00351
6.00373
6.00385
6.00407
6.00419
6.0044
6.00452
6.00473
6.00484
6.00503
6.00513
6.00527
6.00532
6.00536
6.00533
6.00515
6.00492
6.0043
6.0037
6.00223
6.00093
5.99787
5.99533
5.98951
5.98488
5.97451
5.96654
5.94912
5.93617
5.90847
5.88855
5.84692
5.81794
5.75876
5.71882
5.63913
5.58655
5.48312
5.41041
5.25578
5.08581
4.99136
4.8288
4.73227
4.55941
4.45879
4.28246
4.18246
4.01172
3.91675
3.75773
3.66949
3.52192
3.4385
3.29605
3.21297
3.0665
2.97831
2.81809
2.71866
2.53297
2.41337
2.18293
2.03168
1.74266
1.65249
1.62983
1.62439
1.62315
5.45218
5.77922
5.88694
5.96317
5.9855
5.9972
6.00052
6.00214
6.00265
6.00306
6.00337
6.00351
6.00373
6.00385
6.00407
6.00419
6.00441
6.00452
6.00473
6.00484
6.00503
6.00512
6.00527
6.00532
6.00537
6.00533
6.00515
6.00494
6.0043
6.00374
6.00222
6.001
5.99785
5.99546
5.98946
5.9851
5.97441
5.96692
5.94894
5.93675
5.90815
5.88942
5.84641
5.81914
5.75798
5.7204
5.63804
5.58857
5.48188
5.41368
5.25638
5.08277
4.99407
4.82615
4.73531
4.5565
4.4618
4.27939
4.18527
4.00868
3.9193
3.75488
3.67185
3.51934
3.44085
3.29367
3.21549
3.06416
2.98118
2.81565
2.7221
2.53031
2.41779
2.17975
2.03718
1.73469
1.64978
1.62913
1.62421
1.62309
5.42682
5.79572
5.88973
5.96739
5.98641
5.99786
6.00066
6.00223
6.00266
6.00307
6.00338
6.0035
6.00374
6.00384
6.00408
6.00418
6.00442
6.00451
6.00474
6.00483
6.00504
6.00512
6.00528
6.00532
6.00537
6.00534
6.00515
6.00497
6.0043
6.00381
6.0022
6.00115
5.9978
5.99573
5.98935
5.98558
5.97419
5.96771
5.94852
5.93799
5.90744
5.89125
5.84526
5.82169
5.75626
5.72376
5.63562
5.59287
5.47909
5.42049
5.25762
5.07633
4.99994
4.82039
4.74185
4.55022
4.46831
4.27278
4.19137
4.00213
3.92484
3.74877
3.67698
3.51379
3.44594
3.28851
3.22093
3.05907
2.98734
2.81031
2.72946
2.52447
2.42722
2.17274
2.04906
1.71801
1.64448
1.62778
1.62387
1.62298
5.3867
5.82321
5.89317
5.97396
5.98762
5.99887
6.00085
6.00237
6.00267
6.00308
6.0034
6.00349
6.00376
6.00383
6.00409
6.00417
6.00443
6.0045
6.00476
6.00482
6.00506
6.00511
6.00529
6.00532
6.00538
6.00536
6.00516
6.00502
6.00429
6.00393
6.00216
6.00139
5.99769
5.99618
5.98913
5.98637
5.97376
5.96901
5.94776
5.94003
5.90615
5.89426
5.84322
5.82591
5.75321
5.72935
5.63138
5.60001
5.47408
5.43147
5.25958
5.06568
5.00992
4.81059
4.7529
4.53954
4.47935
4.26159
4.20177
3.9911
3.93431
3.73848
3.68575
3.50442
3.4546
3.27975
3.23014
3.05037
2.99771
2.80112
2.74177
2.51431
2.44293
2.16049
2.06923
1.69102
1.6369
1.62592
1.6234
1.62282
5.32911
5.86537
5.89617
5.98322
5.98893
6.00026
6.00107
6.00255
6.00267
6.0031
6.00343
6.00347
6.00378
6.00381
6.00411
6.00415
6.00445
6.00448
6.00478
6.00481
6.00508
6.0051
6.00531
6.00532
6.00539
6.00539
6.00516
6.0051
6.00426
6.00411
6.00207
6.00174
5.9975
5.99685
5.98874
5.98755
5.97302
5.97097
5.94645
5.94311
5.90398
5.89885
5.83982
5.83234
5.7482
5.73789
5.62447
5.61092
5.46574
5.44761
5.26242
5.04949
5.02563
4.79511
4.77017
4.52272
4.49668
4.24408
4.2182
3.9739
3.94935
3.72246
3.69967
3.48978
3.46825
3.26598
3.24454
3.03658
3.01383
2.78644
2.7608
2.49791
2.46708
2.14058
2.10087
1.65106
1.6276
1.62371
1.62284
1.62264
)
;

boundaryField
{
    F1_1
    {
        type            fixedValue;
        value           nonuniform List<scalar> 
80
(
5.28904
5.89623
5.89623
5.98941
5.98941
6.00135
6.00135
6.00312
6.00312
6.00382
6.00444
6.00444
6.00507
6.00507
6.0057
6.0057
6.00634
6.00634
6.00697
6.00697
6.00759
6.00759
6.00815
6.00815
6.00856
6.00856
6.00865
6.00865
6.00806
6.00806
6.00617
6.00617
6.00184
6.00184
5.99324
5.99324
5.97755
5.97755
5.95079
5.95079
5.90785
5.90785
5.84287
5.84287
5.75003
5.75003
5.62474
5.62474
5.46455
5.46455
5.26963
5.04249
5.04249
4.78775
4.78775
4.51399
4.51399
4.23457
4.23457
3.96447
3.96447
3.71378
3.71378
3.48198
3.48198
3.25861
3.25861
3.02893
3.02893
2.77779
2.77779
2.48754
2.48754
2.12706
2.12706
1.62429
1.62429
1.62429
1.62429
1.62429
)
;
    }
    F1_2
    {
        type            fixedValue;
        value           nonuniform List<scalar> 
80
(
5.81361
6.00066
6.00066
6.0021
6.0021
6.00244
6.00244
6.00273
6.00273
6.00303
6.00335
6.00335
6.00367
6.00367
6.00401
6.00401
6.00434
6.00434
6.00468
6.00468
6.00499
6.00499
6.00524
6.00524
6.00537
6.00537
6.00523
6.00523
6.00456
6.00456
6.00288
6.00288
5.99941
5.99941
5.99289
5.99289
5.98153
5.98153
5.96293
5.96293
5.93423
5.93423
5.89244
5.89244
5.83509
5.83509
5.76097
5.76097
5.6708
5.6708
5.56756
5.45623
5.45623
5.34295
5.34295
5.23357
5.23357
5.13218
5.13218
5.04
5.04
4.95453
4.95453
4.86855
4.86855
4.76739
4.76739
4.62395
4.62395
4.39875
4.39875
4.02478
4.02478
3.32485
3.32485
2.3754
2.3754
2.3754
2.3754
2.3754
)
;
    }
    F1_3
    {
        type            fixedValue;
        value           nonuniform List<scalar> 
80
(
5.81364
6.00107
6.00107
6.00268
6.00268
6.00323
6.00323
6.00374
6.00374
6.00428
6.00485
6.00485
6.00543
6.00543
6.00604
6.00604
6.00666
6.00666
6.00727
6.00727
6.00787
6.00787
6.00842
6.00842
6.00885
6.00885
6.00901
6.00901
6.00863
6.00863
6.00724
6.00724
6.00403
6.00403
5.99775
5.99775
5.98659
5.98659
5.96812
5.96812
5.93947
5.93947
5.89764
5.89764
5.84017
5.84017
5.76583
5.76583
5.67539
5.67539
5.57185
5.46023
5.46023
5.3467
5.3467
5.23712
5.23712
5.1356
5.1356
5.04333
5.04333
4.95782
4.95782
4.87184
4.87184
4.77069
4.77069
4.62716
4.62716
4.40171
4.40171
4.02708
4.02708
3.32561
3.32561
2.37498
2.37498
2.37498
2.37498
2.37498
)
;
    }
    F1_4
    {
        type            fixedValue;
        value           nonuniform List<scalar> 
80
(
5.2896
5.89655
5.89655
5.98947
5.98947
6.00116
6.00116
6.00267
6.00267
6.00311
6.00346
6.00346
6.00379
6.00379
6.00413
6.00413
6.00447
6.00447
6.00479
6.00479
6.00509
6.00509
6.00532
6.00532
6.0054
6.0054
6.00515
6.00515
6.00423
6.00423
6.002
6.002
5.99733
5.99733
5.9884
5.9884
5.9724
5.9724
5.94537
5.94537
5.90221
5.90221
5.83709
5.83709
5.74422
5.74422
5.61901
5.61901
5.45902
5.45902
5.2644
5.03762
5.03762
4.78326
4.78326
4.50988
4.50988
4.23079
4.23079
3.96091
3.96091
3.71037
3.71037
3.4787
3.4787
3.25547
3.25547
3.02598
3.02598
2.77506
2.77506
2.48506
2.48506
2.12489
2.12489
1.62255
1.62255
1.62255
1.62255
1.62255
)
;
    }
    F2_1
    {
        type            fixedValue;
        value           nonuniform List<scalar> 
80
(
5.28904
5.89623
5.89623
5.98941
5.98941
6.00135
6.00135
6.00312
6.00312
6.00382
6.00444
6.00444
6.00507
6.00507
6.0057
6.0057
6.00634
6.00634
6.00697
6.00697
6.00759
6.00759
6.00815
6.00815
6.00856
6.00856
6.00865
6.00865
6.00806
6.00806
6.00617
6.00617
6.00184
6.00184
5.99324
5.99324
5.97755
5.97755
5.95079
5.95079
5.90785
5.90785
5.84287
5.84287
5.75003
5.75003
5.62474
5.62474
5.46455
5.46455
5.26963
5.04249
5.04249
4.78775
4.78775
4.51399
4.51399
4.23457
4.23457
3.96447
3.96447
3.71378
3.71378
3.48198
3.48198
3.25861
3.25861
3.02893
3.02893
2.77779
2.77779
2.48754
2.48754
2.12706
2.12706
1.62429
1.62429
1.62429
1.62429
1.62429
)
;
    }
    F2_2
    {
        type            fixedValue;
        value           nonuniform List<scalar> 
80
(
5.81361