/*--------------------------------*- C++ -*----------------------------------*\
| =========                 |                                                 |
| \\      /  F ield         | OpenFOAM: The Open Source CFD Toolbox           |
|  \\    /   O peration     | Version:  5.x                                   |
|   \\  /    A nd           | Web:      www.OpenFOAM.org                      |
|    \\/     M anipulation  |                                                 |
\*---------------------------------------------------------------------------*/
FoamFile
{
    version     2.0;
    format      ascii;
    class       volScalarField;
    location    "2";
    object      gradTx;
}
// * * * * * * * * * * * * * * * * * * * * * * * * * * * * * * * * * * * * * //

dimensions      [0 -1 0 1 0 0 0];

internalField   nonuniform List<scalar> 
3200
(
0.0274655
-0.00138685
-0.00309008
-0.00315681
-0.00272234
-0.00266716
-0.00197138
-0.00191423
-0.00143009
-0.00220578
-0.00102622
-0.0007401
-0.000711255
-0.000545813
-0.000530609
-0.000411923
-0.000401086
-0.000313071
-0.000304996
-0.000238669
-0.000232563
-0.00018211
-0.000177455
-0.000138874
-0.000135312
-0.000105733
-0.000103001
-8.03069e-05
-7.82112e-05
-6.08091e-05
-5.92031e-05
-4.58776e-05
-4.46488e-05
-3.44659e-05
-3.35279e-05
-2.57662e-05
-2.50522e-05
-1.91536e-05
-1.86118e-05
-1.41442e-05
-1.37345e-05
-1.03639e-05
-1.00553e-05
-7.52375e-06
-7.29255e-06
-5.40144e-06
-5.2297e-06
-3.82847e-06
-3.71115e-06
-2.74537e-06
-4.15041e-06
-1.87419e-06
-1.23521e-06
-1.17187e-06
-7.90454e-07
-7.5633e-07
-4.97538e-07
-4.74974e-07
-3.0361e-07
-2.88886e-07
-1.79393e-07
-1.70112e-07
-1.02746e-07
-9.71067e-08
-5.71321e-08
-5.38207e-08
-3.08506e-08
-2.89637e-08
-1.61127e-08
-1.50631e-08
-8.01768e-09
-7.43043e-09
-3.34172e-09
-3.01066e-09
-7.98225e-10
-6.49044e-10
-4.2264e-11
-7.74715e-12
-1.75341e-12
3.98034e-10
0.0273603
-0.00148109
-0.00292447
-0.00307926
-0.00273788
-0.00261314
-0.00202469
-0.00189586
-0.00152664
-0.00203409
-0.00109473
-0.000777098
-0.000706317
-0.000559409
-0.000523946
-0.000421007
-0.000395897
-0.000319737
-0.000301041
-0.000243675
-0.000229538
-0.00018591
-0.000175135
-0.000141777
-0.00013353
-0.000107957
-0.000101633
-8.20137e-05
-7.71629e-05
-6.21184e-05
-5.8401e-05
-4.68807e-05
-4.40366e-05
-3.5233e-05
-3.30619e-05
-2.63514e-05
-2.46986e-05
-1.95988e-05
-1.83445e-05
-1.44818e-05
-1.35333e-05
-1.06189e-05
-9.9046e-06
-7.71556e-06
-7.18035e-06
-5.54528e-06
-5.14801e-06
-3.94074e-06
-3.67409e-06
-2.92653e-06
-3.8265e-06
-1.99986e-06
-1.313e-06
-1.15872e-06
-8.21765e-07
-7.42271e-07
-5.17865e-07
-4.65576e-07
-3.17134e-07
-2.83019e-07
-1.88115e-07
-1.66605e-07
-1.08163e-07
-9.50863e-08
-6.03735e-08
-5.26921e-08
-3.27265e-08
-2.83478e-08
-1.71679e-08
-1.47311e-08
-8.59279e-09
-7.22944e-09
-3.67767e-09
-2.91006e-09
-9.93573e-10
-6.46868e-10
-1.039e-10
-2.20997e-11
-5.07746e-12
3.96941e-10
0.027274
-0.00153666
-0.0028104
-0.00302154
-0.00274475
-0.00257766
-0.0020596
-0.0018871
-0.00158811
-0.00192026
-0.00113836
-0.000804216
-0.00070442
-0.000568543
-0.000519978
-0.000426975
-0.000392748
-0.000324102
-0.00029863
-0.000246949
-0.00022769
-0.000188394
-0.000173717
-0.000143675
-0.000132441
-0.000109411
-0.000100797
-8.31293e-05
-7.65219e-05
-6.29742e-05
-5.79106e-05
-4.75365e-05
-4.36624e-05
-3.57346e-05
-3.27773e-05
-2.67341e-05
-2.44828e-05
-1.989e-05
-1.81814e-05
-1.47026e-05
-1.34106e-05
-1.07857e-05
-9.81278e-06
-7.84115e-06
-7.1121e-06
-5.63957e-06
-5.09869e-06
-4.01536e-06
-3.65623e-06
-3.04176e-06
-3.61163e-06
-2.07992e-06
-1.36947e-06
-1.15288e-06
-8.42771e-07
-7.34003e-07
-5.31304e-07
-4.60021e-07
-3.26083e-07
-2.79583e-07
-1.939e-07
-1.64574e-07
-1.11764e-07
-9.39307e-08
-6.2533e-08
-5.20544e-08
-3.39786e-08
-2.80038e-08
-1.78732e-08
-1.45469e-08
-8.97682e-09
-7.11594e-09
-3.90222e-09
-2.8554e-09
-1.12611e-09
-6.52533e-10
-1.47084e-10
-3.38586e-11
-7.88561e-12
3.96012e-10
0.0272133
-0.00156713
-0.00273881
-0.00298332
-0.00274721
-0.00255619
-0.00208067
-0.00188338
-0.00162431
-0.00185098
-0.00116406
-0.000821949
-0.000703957
-0.000574178
-0.000517783
-0.000430588
-0.000390971
-0.000326737
-0.000297265
-0.000248923
-0.000226642
-0.000189892
-0.000172912
-0.000144818
-0.000131822
-0.000110287
-0.000100322
-8.38015e-05
-7.61577e-05
-6.34899e-05
-5.76321e-05
-4.79317e-05
-4.345e-05
-3.60369e-05
-3.26157e-05
-2.69649e-05
-2.43603e-05
-2.00656e-05
-1.8089e-05
-1.48358e-05
-1.33411e-05
-1.08864e-05
-9.7608e-06
-7.91694e-06
-7.07351e-06
-5.69653e-06
-5.07101e-06
-4.06097e-06
-3.64855e-06
-3.10958e-06
-3.4808e-06
-2.12711e-06
-1.40617e-06
-1.15076e-06
-8.55711e-07
-7.29484e-07
-5.39479e-07
-4.56966e-07
-3.31531e-07
-2.7771e-07
-1.97428e-07
-1.6348e-07
-1.13964e-07
-9.33164e-08
-6.3855e-08
-5.172e-08
-3.47463e-08
-2.78256e-08
-1.83061e-08
-1.44524e-08
-9.21235e-09
-7.05645e-09
-4.04003e-09
-2.82799e-09
-1.2084e-09
-6.59459e-10
-1.74571e-10
-4.21238e-11
-9.91111e-12
3.95338e-10
0.0271821
-0.00158051
-0.00270429
-0.00296429
-0.00274783
-0.00254608
-0.00209058
-0.00188211
-0.00164106
-0.00181822
-0.00117596
-0.000830704
-0.000703955
-0.000576868
-0.000516812
-0.000432291
-0.000390174
-0.000327977
-0.000296651
-0.000249852
-0.00022617
-0.000190596
-0.000172548
-0.000145355
-0.000131542
-0.000110699
-0.000100107
-8.41175e-05
-7.59934e-05
-6.37324e-05
-5.75064e-05
-4.81175e-05
-4.33542e-05
-3.6179e-05
-3.25429e-05
-2.70734e-05
-2.43052e-05
-2.01481e-05
-1.80473e-05
-1.48985e-05
-1.33098e-05
-1.09338e-05
-9.73741e-06
-7.95261e-06
-7.05617e-06
-5.72335e-06
-5.05863e-06
-4.08261e-06
-3.64588e-06
-3.14094e-06
-3.41892e-06
-2.14895e-06
-1.42423e-06
-1.15021e-06
-8.61885e-07
-7.27505e-07
-5.43346e-07
-4.55622e-07
-3.34108e-07
-2.76891e-07
-1.99099e-07
-1.63006e-07
-1.15008e-07
-9.30533e-08
-6.44828e-08
-5.15784e-08
-3.51112e-08
-2.77509e-08
-1.85121e-08
-1.4413e-08
-9.32435e-09
-7.03127e-09
-4.10559e-09
-2.81683e-09
-1.24783e-09
-6.63804e-10
-1.87952e-10
-4.63751e-11
-1.09702e-11
3.94984e-10
0.0271821
-0.00158053
-0.0027043
-0.0029643
-0.00274783
-0.00254608
-0.00209058
-0.00188211
-0.00164106
-0.00181822
-0.00117596
-0.000830703
-0.000703955
-0.000576868
-0.000516812
-0.000432291
-0.000390174
-0.000327977
-0.000296651
-0.000249852
-0.00022617
-0.000190596
-0.000172548
-0.000145355
-0.000131543
-0.000110699
-0.000100107
-8.41175e-05
-7.59934e-05
-6.37324e-05
-5.75065e-05
-4.81175e-05
-4.33542e-05
-3.6179e-05
-3.25429e-05
-2.70734e-05
-2.43052e-05
-2.01481e-05
-1.80473e-05
-1.48985e-05
-1.33098e-05
-1.09338e-05
-9.73741e-06
-7.95261e-06
-7.05617e-06
-5.72335e-06
-5.05863e-06
-4.08261e-06
-3.64588e-06
-3.14094e-06
-3.41892e-06
-2.14895e-06
-1.42423e-06
-1.15021e-06
-8.61885e-07
-7.27505e-07
-5.43345e-07
-4.55622e-07
-3.34108e-07
-2.76891e-07
-1.99099e-07
-1.63006e-07
-1.15008e-07
-9.30533e-08
-6.44828e-08
-5.15784e-08
-3.51112e-08
-2.77509e-08
-1.8512e-08
-1.4413e-08
-9.32435e-09
-7.03126e-09
-4.10559e-09
-2.81683e-09
-1.24783e-09
-6.63803e-10
-1.87951e-10
-4.63746e-11
-1.09698e-11
3.94984e-10
0.0272133
-0.00156717
-0.00273882
-0.00298332
-0.00274721
-0.00255619
-0.00208067
-0.00188338
-0.00162431
-0.00185098
-0.00116406
-0.000821948
-0.000703957
-0.000574178
-0.000517783
-0.000430588
-0.000390971
-0.000326737
-0.000297265
-0.000248923
-0.000226643
-0.000189892
-0.000172912
-0.000144818
-0.000131822
-0.000110287
-0.000100322
-8.38015e-05
-7.61577e-05
-6.349e-05
-5.76321e-05
-4.79317e-05
-4.345e-05
-3.60369e-05
-3.26157e-05
-2.69649e-05
-2.43604e-05
-2.00656e-05
-1.8089e-05
-1.48358e-05
-1.33411e-05
-1.08864e-05
-9.7608e-06
-7.91694e-06
-7.07351e-06
-5.69653e-06
-5.07101e-06
-4.06097e-06
-3.64855e-06
-3.10958e-06
-3.4808e-06
-2.12711e-06
-1.40617e-06
-1.15076e-06
-8.55711e-07
-7.29483e-07
-5.39478e-07
-4.56966e-07
-3.31531e-07
-2.7771e-07
-1.97428e-07
-1.6348e-07
-1.13964e-07
-9.33164e-08
-6.38549e-08
-5.172e-08
-3.47462e-08
-2.78256e-08
-1.83061e-08
-1.44524e-08
-9.21234e-09
-7.05644e-09
-4.04003e-09
-2.82798e-09
-1.2084e-09
-6.59455e-10
-1.74569e-10
-4.21225e-11
-9.90985e-12
3.95338e-10
0.027274
-0.00153671
-0.00281041
-0.00302155
-0.00274476
-0.00257766
-0.0020596
-0.0018871
-0.00158811
-0.00192026
-0.00113836
-0.000804215
-0.000704419
-0.000568543
-0.000519978
-0.000426975
-0.000392748
-0.000324103
-0.00029863
-0.000246949
-0.000227691
-0.000188394
-0.000173717
-0.000143675
-0.000132441
-0.000109411
-0.000100797
-8.31293e-05
-7.65219e-05
-6.29742e-05
-5.79107e-05
-4.75365e-05
-4.36625e-05
-3.57346e-05
-3.27773e-05
-2.67342e-05
-2.44828e-05
-1.989e-05
-1.81814e-05
-1.47026e-05
-1.34106e-05
-1.07858e-05
-9.81278e-06
-7.84115e-06
-7.1121e-06
-5.63958e-06
-5.09869e-06
-4.01536e-06
-3.65623e-06
-3.04176e-06
-3.61163e-06
-2.07992e-06
-1.36947e-06
-1.15288e-06
-8.4277e-07
-7.34003e-07
-5.31303e-07
-4.6002e-07
-3.26083e-07
-2.79582e-07
-1.939e-07
-1.64574e-07
-1.11764e-07
-9.39306e-08
-6.2533e-08
-5.20544e-08
-3.39786e-08
-2.80037e-08
-1.78732e-08
-1.45469e-08
-8.9768e-09
-7.11592e-09
-3.90221e-09
-2.85539e-09
-1.12611e-09
-6.52529e-10
-1.47081e-10
-3.38569e-11
-7.88396e-12
3.96012e-10
0.0273603
-0.00148113
-0.00292448
-0.00307926
-0.00273789
-0.00261314
-0.00202469
-0.00189586
-0.00152664
-0.00203409
-0.00109473
-0.000777098
-0.000706317
-0.000559409
-0.000523946
-0.000421007
-0.000395897
-0.000319737
-0.000301041
-0.000243675
-0.000229538
-0.00018591
-0.000175135
-0.000141777
-0.00013353
-0.000107957
-0.000101633
-8.20138e-05
-7.7163e-05
-6.21185e-05
-5.8401e-05
-4.68807e-05
-4.40366e-05
-3.5233e-05
-3.30619e-05
-2.63515e-05
-2.46987e-05
-1.95988e-05
-1.83445e-05
-1.44818e-05
-1.35333e-05
-1.06189e-05
-9.9046e-06
-7.71556e-06
-7.18035e-06
-5.54529e-06
-5.14801e-06
-3.94074e-06
-3.67409e-06
-2.92653e-06
-3.8265e-06
-1.99986e-06
-1.313e-06
-1.15872e-06
-8.21765e-07
-7.4227e-07
-5.17865e-07
-4.65576e-07
-3.17134e-07
-2.83019e-07
-1.88115e-07
-1.66605e-07
-1.08163e-07
-9.50863e-08
-6.03734e-08
-5.2692e-08
-3.27265e-08
-2.83478e-08
-1.71679e-08
-1.47311e-08
-8.59278e-09
-7.22943e-09
-3.67766e-09
-2.91006e-09
-9.93568e-10
-6.46864e-10
-1.03897e-10
-2.20981e-11
-5.07601e-12
3.96941e-10
0.0274655
-0.00138687
-0.00309008
-0.00315681
-0.00272234
-0.00266716
-0.00197138
-0.00191423
-0.00143009
-0.00220578
-0.00102622
-0.0007401
-0.000711255
-0.000545813
-0.000530609
-0.000411923
-0.000401086
-0.000313071
-0.000304996
-0.00023867
-0.000232563
-0.00018211
-0.000177456
-0.000138874
-0.000135312
-0.000105733
-0.000103001
-8.03069e-05
-7.82112e-05
-6.08091e-05
-5.92031e-05
-4.58776e-05
-4.46489e-05
-3.44659e-05
-3.35279e-05
-2.57663e-05
-2.50522e-05
-1.91536e-05
-1.86118e-05
-1.41442e-05
-1.37345e-05
-1.03639e-05
-1.00553e-05
-7.52376e-06
-7.29255e-06
-5.40144e-06
-5.2297e-06
-3.82847e-06
-3.71115e-06
-2.74537e-06
-4.15041e-06
-1.87419e-06
-1.23521e-06
-1.17187e-06
-7.90454e-07
-7.5633e-07
-4.97538e-07
-4.74974e-07
-3.0361e-07
-2.88886e-07
-1.79393e-07
-1.70112e-07
-1.02746e-07
-9.71067e-08
-5.71321e-08
-5.38207e-08
-3.08506e-08
-2.89637e-08
-1.61127e-08
-1.50631e-08
-8.01767e-09
-7.43043e-09
-3.34172e-09
-3.01066e-09
-7.98223e-10
-6.49043e-10
-4.22631e-11
-7.74654e-12
-1.75281e-12
3.98034e-10
0.069191
-0.0398319
-0.00431337
-0.00256897
-0.00155394
-0.00145259
-0.00136562
-0.00136009
-0.00132807
-0.00229136
-0.00120464
-0.00103179
-0.00101133
-0.00088222
-0.000868883
-0.000747408
-0.000735324
-0.00062516
-0.000614374
-0.000517644
-0.000508271
-0.00042529
-0.000417308
-0.000347308
-0.000340611
-0.000282285
-0.000276727
-0.000228571
-0.000223996
-0.000184511
-0.000180768
-0.000148564
-0.000145516
-0.00011936
-0.000116888
-9.57143e-05
-9.37159e-05
-7.66233e-05
-7.50119e-05
-6.12479e-05
-5.99515e-05
-4.88934e-05
-4.78529e-05
-3.89894e-05
-3.81566e-05
-3.10708e-05
-3.04101e-05
-2.47788e-05
-2.43378e-05
-2.04332e-05
-3.31296e-05
-1.6315e-05
-1.276e-05
-1.23842e-05
-1.01534e-05
-9.94213e-06
-8.21652e-06
-8.05609e-06
-6.71605e-06
-6.592e-06
-5.55801e-06
-5.46257e-06
-4.67046e-06
-4.59723e-06
-3.99037e-06
-3.93079e-06
-3.40246e-06
-3.34448e-06
-2.76466e-06
-2.7023e-06
-2.08225e-06
-2.02285e-06
-1.51069e-06
-1.44217e-06
-6.3475e-07
-5.66148e-07
-3.45153e-08
-6.15246e-09
-1.38639e-09
-1.00163e-07
0.0682012
-0.0352485
-0.00705388
-0.00314248
-0.0017655
-0.0014974
-0.00138534
-0.00137306
-0.00140031
-0.00210532
-0.00127068
-0.00105756
-0.00100663
-0.000892071
-0.000861014
-0.000756087
-0.000728134
-0.000633086
-0.000608141
-0.000524659
-0.00050298
-0.000431343
-0.00041288
-0.000352436
-0.000336944
-0.000286571
-0.000273712
-0.000232118
-0.000221532
-0.000187425
-0.000178764
-0.000150944
-0.000143892
-0.000121295
-0.000115576
-9.72822e-05
-9.2658e-05
-7.78901e-05
-7.41611e-05
-6.22687e-05
-5.92688e-05
-4.97141e-05
-4.73064e-05
-3.96479e-05
-3.77208e-05
-3.16003e-05
-3.00741e-05
-2.52479e-05
-2.42709e-05
-2.167e-05
-3.0492e-05
-1.7303e-05
-1.32383e-05
-1.23123e-05
-1.03332e-05
-9.8408e-06
-8.34656e-06
-7.97508e-06
-6.81674e-06
-6.5296e-06
-5.63585e-06
-5.41495e-06
-4.73007e-06
-4.56048e-06
-4.03457e-06
-3.89648e-06
-3.43801e-06
-3.30377e-06
-2.80352e-06
-2.65944e-06
-2.12667e-06
-1.989e-06
-1.54018e-06
-1.38192e-06
-6.95368e-07
-5.37638e-07
-8.34142e-08
-1.7513e-08
-4.01362e-09
-1.01043e-07
0.0673911
-0.0319727
-0.00882304
-0.00361459
-0.00193268
-0.00153596
-0.00140106
-0.00138444
-0.00144544
-0.00198086
-0.00131185
-0.00107684
-0.00100446
-0.000898575
-0.000856095
-0.000761683
-0.000723624
-0.000638204
-0.000604246
-0.000529199
-0.000499685
-0.000435267
-0.000410129
-0.000355765
-0.000334669
-0.000289356
-0.000271845
-0.000234424
-0.000220009
-0.000189319
-0.000177526
-0.000152492
-0.000142889
-0.000122554
-0.000114766
-9.83028e-05
-9.20053e-05
-7.87147e-05
-7.36364e-05
-6.29333e-05
-5.88479e-05
-5.02486e-05
-4.69696e-05
-4.00769e-05
-3.74525e-05
-3.19459e-05
-2.98699e-05
-2.55629e-05
-2.42687e-05
-2.24496e-05
-2.87347e-05
-1.79259e-05
-1.35909e-05
-1.22824e-05
-1.04534e-05
-9.77947e-06
-8.43163e-06
-7.92549e-06
-6.88252e-06
-6.49143e-06
-5.68673e-06
-5.38584e-06
-4.76903e-06
-4.53795e-06
-4.06323e-06
-3.87496e-06
-3.46056e-06
-3.27767e-06
-2.82811e-06
-2.63212e-06
-2.15528e-06
-1.96759e-06
-1.55804e-06
-1.3428e-06
-7.34827e-07
-5.20983e-07
-1.16778e-07
-2.67761e-08
-6.23134e-09
-1.01791e-07
0.0668224
-0.0298647
-0.0098745
-0.00394559
-0.00204843
-0.00156403
-0.00141203
-0.00139269
-0.00147157
-0.00190456
-0.00133565
-0.00108959
-0.00100363
-0.000902534
-0.000853245
-0.000765017
-0.000721001
-0.000641256
-0.000601988
-0.000531912
-0.00049778
-0.000437615
-0.000408543
-0.000357758
-0.00033336
-0.000291025
-0.000270772
-0.000235807
-0.000219134
-0.000190456
-0.000176815
-0.000153421
-0.000142314
-0.00012331
-0.000114301
-9.89156e-05
-9.16313e-05
-7.921e-05
-7.33358e-05
-6.33326e-05
-5.86069e-05
-5.05697e-05
-4.67769e-05
-4.03347e-05
-3.72992e-05
-3.21539e-05
-2.97547e-05
-2.5757e-05
-2.42874e-05
-2.29049e-05
-2.76609e-05
-1.82896e-05
-1.38223e-05
-1.22732e-05
-1.05273e-05
-9.74499e-06
-8.48295e-06
-7.8973e-06
-6.92216e-06
-6.46973e-06
-5.7174e-06
-5.36931e-06
-4.79251e-06
-4.52512e-06
-4.08039e-06
-3.86244e-06
-3.47382e-06
-3.2622e-06
-2.84252e-06
-2.616e-06
-2.17229e-06
-1.95503e-06
-1.56811e-06
-1.31936e-06
-7.5851e-07
-5.11935e-07
-1.37569e-07
-3.32587e-08
-7.82969e-09
-1.02334e-07
0.0665302
-0.0288332
-0.0103634
-0.00411527
-0.00210762
-0.00157877
-0.00141767
-0.001397
-0.00148353
-0.00186832
-0.00134652
-0.00109593
-0.00100339
-0.000904408
-0.000851941
-0.000766572
-0.000719797
-0.000642681
-0.000600955
-0.00053318
-0.00049691
-0.000438714
-0.000407819
-0.000358692
-0.000332763
-0.000291807
-0.000270284
-0.000236455
-0.000218736
-0.000190989
-0.000176492
-0.000153857
-0.000142053
-0.000123665
-0.000114091
-9.9203e-05
-9.14616e-05
-7.94423e-05
-7.31995e-05
-6.35199e-05
-5.84976e-05
-5.07204e-05
-4.66895e-05
-4.04556e-05
-3.72296e-05
-3.22516e-05
-2.9703e-05
-2.58497e-05
-2.43021e-05
-2.31143e-05
-2.71519e-05
-1.84568e-05
-1.39367e-05
-1.22716e-05
-1.05625e-05
-9.72957e-06
-8.50708e-06
-7.88457e-06
-6.94078e-06
-6.45994e-06
-5.73182e-06
-5.36186e-06
-4.80355e-06
-4.51933e-06
-4.08843e-06
-3.8567e-06
-3.47994e-06
-3.25501e-06
-2.84918e-06
-2.60853e-06
-2.18022e-06
-1.94924e-06
-1.57263e-06
-1.3084e-06
-7.6961e-07
-5.07991e-07
-1.47553e-07
-3.65835e-08
-8.6651e-09
-1.02619e-07
0.0665302
-0.0288332
-0.0103634
-0.00411527
-0.00210762
-0.00157877
-0.00141767
-0.001397
-0.00148353
-0.00186832
-0.00134652
-0.00109593
-0.00100339
-0.000904408
-0.000851941
-0.000766572
-0.000719797
-0.000642682
-0.000600955
-0.00053318
-0.00049691
-0.000438714
-0.000407819
-0.000358692
-0.000332764
-0.000291807
-0.000270284
-0.000236455
-0.000218736
-0.000190989
-0.000176492
-0.000153857
-0.000142053
-0.000123665
-0.000114091
-9.9203e-05
-9.14616e-05
-7.94423e-05
-7.31995e-05
-6.35199e-05
-5.84976e-05
-5.07204e-05
-4.66895e-05
-4.04556e-05
-3.72296e-05
-3.22516e-05
-2.9703e-05
-2.58497e-05
-2.43021e-05
-2.31143e-05
-2.71519e-05
-1.84569e-05
-1.39367e-05
-1.22716e-05
-1.05625e-05
-9.72957e-06
-8.50708e-06
-7.88457e-06
-6.94079e-06
-6.45994e-06
-5.73182e-06
-5.36186e-06
-4.80356e-06
-4.51933e-06
-4.08843e-06
-3.8567e-06
-3.47994e-06
-3.25501e-06
-2.84918e-06
-2.60853e-06
-2.18022e-06
-1.94924e-06
-1.57263e-06
-1.3084e-06
-7.6961e-07
-5.07991e-07
-1.47552e-07
-3.65832e-08
-8.66503e-09
-1.02619e-07
0.0668225
-0.0298648
-0.00987451
-0.00394559
-0.00204842
-0.00156403
-0.00141203
-0.00139269
-0.00147158
-0.00190456
-0.00133565
-0.00108959
-0.00100363
-0.000902534
-0.000853245
-0.000765017
-0.000721001
-0.000641257
-0.000601988
-0.000531912
-0.00049778
-0.000437616
-0.000408543
-0.000357759
-0.00033336
-0.000291025
-0.000270772
-0.000235807
-0.000219134
-0.000190456
-0.000176815
-0.000153421
-0.000142314
-0.00012331
-0.000114301
-9.89157e-05
-9.16314e-05
-7.92101e-05
-7.33359e-05
-6.33326e-05
-5.86069e-05
-5.05698e-05
-4.67769e-05
-4.03347e-05
-3.72992e-05
-3.21539e-05
-2.97547e-05
-2.57571e-05
-2.42874e-05
-2.29049e-05
-2.76609e-05
-1.82896e-05
-1.38223e-05
-1.22732e-05
-1.05273e-05
-9.745e-06
-8.48295e-06
-7.8973e-06
-6.92216e-06
-6.46973e-06
-5.7174e-06
-5.36932e-06
-4.79252e-06
-4.52513e-06
-4.0804e-06
-3.86245e-06
-3.47382e-06
-3.2622e-06
-2.84252e-06
-2.616e-06
-2.17229e-06
-1.95503e-06
-1.56811e-06
-1.31936e-06
-7.58509e-07
-5.11934e-07
-1.37568e-07
-3.32581e-08
-7.82952e-09
-1.02334e-07
0.0673912
-0.0319728
-0.00882305
-0.00361459
-0.00193268
-0.00153596
-0.00140106
-0.00138444
-0.00144544
-0.00198086
-0.00131186
-0.00107684
-0.00100446
-0.000898576
-0.000856096
-0.000761684
-0.000723624
-0.000638204
-0.000604246
-0.000529199
-0.000499685
-0.000435268
-0.000410129
-0.000355765
-0.000334669
-0.000289356
-0.000271846
-0.000234424
-0.000220009
-0.000189319
-0.000177526
-0.000152492
-0.000142889
-0.000122554
-0.000114766
-9.83028e-05
-9.20054e-05
-7.87148e-05
-7.36364e-05
-6.29334e-05
-5.88479e-05
-5.02486e-05
-4.69697e-05
-4.00769e-05
-3.74526e-05
-3.19459e-05
-2.98699e-05
-2.55629e-05
-2.42688e-05
-2.24497e-05
-2.87347e-05
-1.79259e-05
-1.35909e-05
-1.22824e-05
-1.04534e-05
-9.77947e-06
-8.43164e-06
-7.9255e-06
-6.88253e-06
-6.49143e-06
-5.68674e-06
-5.38584e-06
-4.76904e-06
-4.53796e-06
-4.06324e-06
-3.87496e-06
-3.46056e-06
-3.27767e-06
-2.82811e-06
-2.63212e-06
-2.15528e-06
-1.96759e-06
-1.55804e-06
-1.34279e-06
-7.34825e-07
-5.20981e-07
-1.16776e-07
-2.67753e-08
-6.23112e-09
-1.01791e-07
0.0682013
-0.0352485
-0.00705389
-0.00314248
-0.0017655
-0.0014974
-0.00138534
-0.00137306
-0.00140031
-0.00210532
-0.00127069
-0.00105756
-0.00100663
-0.000892071
-0.000861015
-0.000756088
-0.000728135
-0.000633086
-0.000608142
-0.00052466
-0.000502981
-0.000431344
-0.000412881
-0.000352437
-0.000336944
-0.000286572
-0.000273712
-0.000232118
-0.000221532
-0.000187425
-0.000178764
-0.000150944
-0.000143893
-0.000121295
-0.000115576
-9.72823e-05
-9.26581e-05
-7.78901e-05
-7.41611e-05
-6.22687e-05
-5.92688e-05
-4.97141e-05
-4.73064e-05
-3.9648e-05
-3.77209e-05
-3.16003e-05
-3.00741e-05
-2.5248e-05
-2.42709e-05
-2.167e-05
-3.0492e-05
-1.7303e-05
-1.32383e-05
-1.23123e-05
-1.03332e-05
-9.8408e-06
-8.34656e-06
-7.97509e-06
-6.81674e-06
-6.52961e-06
-5.63585e-06
-5.41495e-06
-4.73007e-06
-4.56048e-06
-4.03458e-06
-3.89649e-06
-3.43801e-06
-3.30377e-06
-2.80352e-06
-2.65944e-06
-2.12667e-06
-1.989e-06
-1.54018e-06
-1.38192e-06
-6.95367e-07
-5.37637e-07
-8.34132e-08
-1.75123e-08
-4.01344e-09
-1.01043e-07
0.069191
-0.039832
-0.00431337
-0.00256897
-0.00155394
-0.00145259
-0.00136562
-0.00136009
-0.00132807
-0.00229136
-0.00120465
-0.00103179
-0.00101133
-0.000882221
-0.000868883
-0.000747408
-0.000735324
-0.00062516
-0.000614374
-0.000517644
-0.000508271
-0.00042529
-0.000417308
-0.000347308
-0.000340611
-0.000282285
-0.000276727
-0.000228571
-0.000223996
-0.000184511
-0.000180768
-0.000148564
-0.000145516
-0.00011936
-0.000116888
-9.57143e-05
-9.3716e-05
-7.66234e-05
-7.50119e-05
-6.12479e-05
-5.99515e-05
-4.88934e-05
-4.7853e-05
-3.89894e-05
-3.81566e-05
-3.10708e-05
-3.04101e-05
-2.47789e-05
-2.43378e-05
-2.04332e-05
-3.31296e-05
-1.6315e-05
-1.276e-05
-1.23842e-05
-1.01534e-05
-9.94213e-06
-8.21652e-06
-8.05609e-06
-6.71606e-06
-6.592e-06
-5.55801e-06
-5.46258e-06
-4.67046e-06
-4.59723e-06
-3.99037e-06
-3.9308e-06
-3.40246e-06
-3.34448e-06
-2.76466e-06
-2.7023e-06
-2.08225e-06
-2.02285e-06
-1.51069e-06
-1.44217e-06
-6.3475e-07
-5.66148e-07
-3.45149e-08
-6.1522e-09
-1.38633e-09
-1.00163e-07
0.0689809
-0.0398399
-0.00430625
-0.002561
-0.00154381
-0.0014423
-0.00135487
-0.00134926
-0.00131706
-0.00227201
-0.00119428
-0.00102261
-0.0010023
-0.000874092
-0.000860851
-0.000740288
-0.000728298
-0.000619013
-0.000608315
-0.000512399
-0.000503107
-0.000420857
-0.000412948
-0.000343593
-0.000336959
-0.000279192
-0.000273689
-0.000226012
-0.000221483
-0.000182405
-0.000178701
-0.000146839
-0.000143824
-0.000117953
-0.000115509
-9.45723e-05
-9.25966e-05
-7.56996e-05
-7.41068e-05
-6.05033e-05
-5.92222e-05
-4.82952e-05
-4.72671e-05
-3.85102e-05
-3.76874e-05
-3.06877e-05
-3.00351e-05
-2.4473e-05
-2.40373e-05
-2.0181e-05
-3.27209e-05
-1.61139e-05
-1.26031e-05
-1.2232e-05
-1.0029e-05
-9.8204e-06
-8.11646e-06
-7.95806e-06
-6.63499e-06
-6.51251e-06
-5.49182e-06
-5.39763e-06
-4.61603e-06
-4.5438e-06
-3.94548e-06
-3.88677e-06
-3.36649e-06
-3.30935e-06
-2.73754e-06
-2.67596e-06
-2.06298e-06
-2.00427e-06
-1.49817e-06
-1.43032e-06
-6.29625e-07
-5.6159e-07
-3.42368e-08
-6.10278e-09
-1.37519e-09
-9.93134e-08
0.0679911
-0.0352548
-0.00704795
-0.00313462
-0.0017556
-0.00148713
-0.00137461
-0.00136213
-0.00138872
-0.00208755
-0.00125976
-0.00104818
-0.000997626
-0.000883874
-0.000853043
-0.000748904
-0.000721167
-0.000626877
-0.000602136
-0.000519356
-0.000497863
-0.000426858
-0.000408562
-0.000348675
-0.000333327
-0.000283438
-0.000270705
-0.000229525
-0.000219046
-0.000185289
-0.000176719
-0.000149194
-0.000142218
-0.000119868
-0.000114212
-9.61229e-05
-9.15509e-05
-7.69519e-05
-7.3266e-05
-6.15122e-05
-5.85476e-05
-4.91062e-05
-4.67272e-05
-3.91608e-05
-3.7257e-05
-3.12109e-05
-2.97033e-05
-2.49363e-05
-2.39713e-05
-2.14025e-05
-3.01158e-05
-1.70897e-05
-1.30754e-05
-1.2161e-05
-1.02066e-05
-9.72035e-06
-8.24488e-06
-7.87808e-06
-6.7344e-06
-6.45092e-06
-5.56867e-06
-5.35064e-06
-4.67486e-06
-4.50758e-06
-3.98907e-06
-3.85299e-06
-3.40148e-06
-3.26917e-06
-2.77582e-06
-2.63356e-06
-2.1069e-06
-1.97082e-06
-1.52725e-06
-1.37053e-06
-6.89727e-07
-5.33302e-07
-8.27408e-08
-1.73716e-08
-3.9812e-09
-1.00186e-07
0.067181
-0.0319779
-0.00881789
-0.00360684
-0.00192295
-0.0015257
-0.00139035
-0.00137342
-0.00143349
-0.00196414
-0.00130058
-0.00106731
-0.000995474
-0.000890333
-0.000848162
-0.000754459
-0.000716694
-0.000631955
-0.000598274
-0.000523858
-0.000494598
-0.000430748
-0.000405836
-0.000351973
-0.000331075
-0.000286196
-0.000268857
-0.000231808
-0.000217538
-0.000187165
-0.000175494
-0.000150726
-0.000141227
-0.000121113
-0.000113411
-9.71321e-05
-9.09058e-05
-7.77672e-05
-7.27474e-05
-6.21692e-05
-5.81318e-05
-4.96344e-05
-4.63945e-05
-3.95847e-05
-3.6992e-05
-3.15523e-05
-2.95016e-05
-2.52474e-05
-2.39692e-05
-2.21725e-05
-2.83802e-05
-1.77049e-05
-1.34237e-05
-1.21314e-05
-1.03253e-05
-9.6598e-06
-8.32889e-06
-7.82913e-06
-6.79936e-06
-6.41325e-06
-5.6189e-06
-5.32194e-06
-4.71332e-06
-4.48539e-06
-4.01734e-06
-3.83181e-06
-3.42368e-06
-3.24342e-06
-2.80005e-06
-2.60652e-06
-2.13517e-06
-1.94965e-06
-1.54485e-06
-1.3317e-06
-7.28847e-07
-5.16776e-07
-1.15834e-07
-2.65598e-08
-6.18101e-09
-1.00928e-07
0.0666123
-0.0298692
-0.00986981
-0.00393793
-0.0020388
-0.00155378
-0.00140132
-0.00138162
-0.00145941
-0.00188849
-0.00132417
-0.00107997
-0.000994644
-0.000894264
-0.000845334
-0.000757768
-0.000714092
-0.000634983
-0.000596036
-0.000526549
-0.00049271
-0.000433076
-0.000404265
-0.000353948
-0.000329779
-0.00028785
-0.000267795
-0.000233177
-0.000216672
-0.00018829
-0.000174791
-0.000151645
-0.000140658
-0.000121861
-0.000112952
-9.77381e-05
-9.05362e-05
-7.82569e-05
-7.24505e-05
-6.25639e-05
-5.78937e-05
-4.99518e-05
-4.62041e-05
-3.98394e-05
-3.68405e-05
-3.17578e-05
-2.93878e-05
-2.54392e-05
-2.39876e-05
-2.26222e-05
-2.73197e-05
-1.80641e-05
-1.36522e-05
-1.21223e-05
-1.03983e-05
-9.62575e-06
-8.37956e-06
-7.80129e-06
-6.83849e-06
-6.39184e-06
-5.64918e-06
-5.30564e-06
-4.7365e-06
-4.47275e-06
-4.03427e-06
-3.81949e-06
-3.43672e-06
-3.22815e-06
-2.81424e-06
-2.59057e-06
-2.15199e-06
-1.93724e-06
-1.55477e-06
-1.30844e-06
-7.52327e-07
-5.07797e-07
-1.36457e-07
-3.29901e-08
-7.76645e-09
-1.01467e-07
0.0663201
-0.0288374
-0.010359
-0.00410766
-0.00209804
-0.00156853
-0.00140697
-0.0013859
-0.00147127
-0.00185255
-0.00133495
-0.00108626
-0.000994402
-0.000896126
-0.000844041
-0.000759312
-0.000712899
-0.000636398
-0.000595012
-0.000527807
-0.000491849
-0.000434165
-0.000403549
-0.000354873
-0.000329188
-0.000288624
-0.000267311
-0.000233819
-0.000216279
-0.000188818
-0.000174472
-0.000152076
-0.0001404
-0.000122212
-0.000112743
-9.80224e-05
-9.03684e-05
-7.84866e-05
-7.23158e-05
-6.2749e-05
-5.77857e-05
-5.01007e-05
-4.61178e-05
-3.99589e-05
-3.67718e-05
-3.18543e-05
-2.93367e-05
-2.55307e-05
-2.40022e-05
-2.2829e-05
-2.6817e-05
-1.82293e-05
-1.37652e-05
-1.21208e-05
-1.04331e-05
-9.61052e-06
-8.40339e-06
-7.78872e-06
-6.85689e-06
-6.38217e-06
-5.66342e-06
-5.29829e-06
-4.74739e-06
-4.46704e-06
-4.04219e-06
-3.81384e-06
-3.44275e-06
-3.22106e-06
-2.82079e-06
-2.58318e-06
-2.15983e-06
-1.93151e-06
-1.55922e-06
-1.29755e-06
-7.63331e-07
-5.03883e-07
-1.46361e-07
-3.62879e-08
-8.59511e-09
-1.01749e-07
0.0663201
-0.0288374
-0.010359
-0.00410766
-0.00209804
-0.00156853
-0.00140697
-0.0013859
-0.00147127
-0.00185255
-0.00133495
-0.00108626
-0.000994402
-0.000896126
-0.000844041
-0.000759312
-0.000712899
-0.000636398
-0.000595012
-0.000527807
-0.000491849
-0.000434166
-0.000403549
-0.000354874
-0.000329188
-0.000288624
-0.000267311
-0.000233819
-0.000216279
-0.000188818
-0.000174472
-0.000152076
-0.0001404
-0.000122212
-0.000112743
-9.80224e-05
-9.03684e-05
-7.84866e-05
-7.23158e-05
-6.2749e-05
-5.77857e-05
-5.01007e-05
-4.61178e-05
-3.99589e-05
-3.67718e-05
-3.18543e-05
-2.93367e-05
-2.55307e-05
-2.40022e-05
-2.2829e-05
-2.6817e-05
-1.82293e-05
-1.37652e-05
-1.21208e-05
-1.04331e-05
-9.61052e-06
-8.40339e-06
-7.78872e-06
-6.85689e-06
-6.38217e-06
-5.66342e-06
-5.29829e-06
-4.74739e-06
-4.46704e-06
-4.04219e-06
-3.81384e-06
-3.44275e-06
-3.22106e-06
-2.82079e-06
-2.58318e-06
-2.15983e-06
-1.93151e-06
-1.55922e-06
-1.29755e-06
-7.63331e-07
-5.03883e-07
-1.4636e-07
-3.62877e-08
-8.59504e-09
-1.01749e-07
0.0666124
-0.0298693
-0.00986982
-0.00393793
-0.00203879
-0.00155378
-0.00140132
-0.00138162
-0.00145942
-0.00188849
-0.00132418
-0.00107997
-0.000994644
-0.000894265
-0.000845335
-0.000757769
-0.000714093
-0.000634984
-0.000596037
-0.000526549
-0.000492711
-0.000433077
-0.000404265
-0.000353949
-0.000329779
-0.00028785
-0.000267795
-0.000233177
-0.000216672
-0.00018829
-0.000174791
-0.000151645
-0.000140658
-0.000121861
-0.000112952
-9.77382e-05
-9.05362e-05
-7.82569e-05
-7.24505e-05
-6.25639e-05
-5.78937e-05
-4.99518e-05
-4.62042e-05
-3.98394e-05
-3.68405e-05
-3.17578e-05
-2.93878e-05
-2.54392e-05
-2.39876e-05
-2.26222e-05
-2.73197e-05
-1.80641e-05
-1.36522e-05
-1.21223e-05
-1.03983e-05
-9.62576e-06
-8.37956e-06
-7.80129e-06
-6.8385e-06
-6.39184e-06
-5.64919e-06
-5.30564e-06
-4.7365e-06
-4.47275e-06
-4.03427e-06
-3.81949e-06
-3.43672e-06
-3.22815e-06
-2.81425e-06
-2.59057e-06
-2.15199e-06
-1.93724e-06
-1.55477e-06
-1.30844e-06
-7.52326e-07
-5.07796e-07
-1.36457e-07
-3.29895e-08
-7.76628e-09
-1.01466e-07
0.0671811
-0.031978
-0.0088179
-0.00360684
-0.00192294
-0.0015257
-0.00139035
-0.00137342
-0.00143349
-0.00196414
-0.00130058
-0.00106731
-0.000995474
-0.000890334
-0.000848163
-0.000754459
-0.000716694
-0.000631955
-0.000598275
-0.000523859
-0.000494598
-0.000430749
-0.000405837
-0.000351973
-0.000331075
-0.000286197
-0.000268857
-0.000231808
-0.000217538
-0.000187165
-0.000175494
-0.000150726
-0.000141227
-0.000121113
-0.000113411
-9.71322e-05
-9.09058e-05
-7.77673e-05
-7.27475e-05
-6.21693e-05
-5.81318e-05
-4.96344e-05
-4.63946e-05
-3.95847e-05
-3.6992e-05
-3.15523e-05
-2.95017e-05
-2.52474e-05
-2.39692e-05
-2.21726e-05
-2.83802e-05
-1.77049e-05
-1.34237e-05
-1.21314e-05
-1.03253e-05
-9.6598e-06
-8.32889e-06
-7.82913e-06
-6.79936e-06
-6.41325e-06
-5.61891e-06
-5.32194e-06
-4.71332e-06
-4.48539e-06
-4.01735e-06
-3.83181e-06
-3.42368e-06
-3.24342e-06
-2.80005e-06
-2.60653e-06
-2.13517e-06
-1.94965e-06
-1.54485e-06
-1.33169e-06
-7.28846e-07
-5.16774e-07
-1.15833e-07
-2.6559e-08
-6.1808e-09
-1.00928e-07
0.0679912
-0.0352549
-0.00704797
-0.00313462
-0.0017556
-0.00148713
-0.00137461
-0.00136213
-0.00138872
-0.00208755
-0.00125976
-0.00104819
-0.000997626
-0.000883874
-0.000853044
-0.000748905
-0.000721167
-0.000626877
-0.000602136
-0.000519356
-0.000497864
-0.000426859
-0.000408562
-0.000348675
-0.000333327
-0.000283439
-0.000270705
-0.000229525
-0.000219046
-0.000185289
-0.000176719
-0.000149194
-0.000142219
-0.000119868
-0.000114212
-9.61229e-05
-9.1551e-05
-7.6952e-05
-7.3266e-05
-6.15123e-05
-5.85477e-05
-4.91063e-05
-4.67273e-05
-3.91608e-05
-3.7257e-05
-3.12109e-05
-2.97033e-05
-2.49363e-05
-2.39713e-05
-2.14025e-05
-3.01158e-05
-1.70897e-05
-1.30755e-05
-1.2161e-05
-1.02066e-05