/*--------------------------------*- C++ -*----------------------------------*\
| =========                 |                                                 |
| \\      /  F ield         | OpenFOAM: The Open Source CFD Toolbox           |
|  \\    /   O peration     | Version:  5.x                                   |
|   \\  /    A nd           | Web:      www.OpenFOAM.org                      |
|    \\/     M anipulation  |                                                 |
\*---------------------------------------------------------------------------*/
FoamFile
{
    version     2.0;
    format      ascii;
    class       volScalarField;
    location    "2";
    object      T;
}
// * * * * * * * * * * * * * * * * * * * * * * * * * * * * * * * * * * * * * //

dimensions      [0 0 0 1 0 0 0];

internalField   nonuniform List<scalar> 
3200
(
0.00143224
0.0013143
0.00129356
0.0010053
0.000977878
0.000733063
0.000711163
0.000535925
0.00051974
0.000392915
0.000299162
0.000290293
0.000225152
0.000219167
0.000170571
0.000166107
0.000129379
0.000125998
9.80715e-05
9.54984e-05
7.42046e-05
7.22421e-05
5.59936e-05
5.44966e-05
4.21061e-05
4.09654e-05
3.15329e-05
3.06654e-05
2.35022e-05
2.28443e-05
1.74213e-05
1.69239e-05
1.28335e-05
1.24591e-05
9.38693e-06
9.10627e-06
6.8103e-06
6.60105e-06
4.89494e-06
4.73987e-06
3.48051e-06
3.36642e-06
2.44412e-06
2.36088e-06
1.69175e-06
1.63163e-06
1.15161e-06
1.10866e-06
7.68758e-07
7.37545e-07
4.94221e-07
3.22505e-07
3.06802e-07
1.98984e-07
1.89615e-07
1.19938e-07
1.13983e-07
7.01847e-08
6.64851e-08
3.98237e-08
3.75965e-08
2.18844e-08
2.05853e-08
1.16098e-08
1.08747e-08
5.89658e-09
5.49259e-09
2.81152e-09
2.59622e-09
1.20025e-09
1.0899e-09
3.98478e-10
3.46859e-10
6.43065e-11
4.57934e-11
-1.5516e-11
-1.9111e-11
-1.97424e-11
-1.98857e-11
-1.99177e-11
0.00141824
0.00131778
0.00127014
0.00102533
0.00096221
0.000751546
0.000700896
0.000549077
0.00051131
0.000396413
0.000307901
0.00028694
0.000230191
0.000216308
0.000174251
0.000163914
0.00013215
0.000124324
0.000100176
9.42198e-05
7.58087e-05
7.1266e-05
5.72177e-05
5.37525e-05
4.304e-05
4.03995e-05
3.22442e-05
3.02362e-05
2.40429e-05
2.25199e-05
1.7831e-05
1.66798e-05
1.31429e-05
1.22761e-05
9.61965e-06
8.96994e-06
6.9845e-06
6.50008e-06
5.02463e-06
4.66563e-06
3.57645e-06
3.3123e-06
2.51456e-06
2.32184e-06
1.74301e-06
1.60381e-06
1.18848e-06
1.08901e-06
7.94405e-07
7.21598e-07
5.01752e-07
3.38948e-07
3.01766e-07
2.07648e-07
1.85894e-07
1.25472e-07
1.11667e-07
7.36854e-08
6.51092e-08
4.1972e-08
3.68073e-08
2.31605e-08
2.01468e-08
1.23442e-08
1.06381e-08
6.30685e-09
5.36894e-09
3.0342e-09
2.53415e-09
1.31741e-09
1.06105e-09
4.58129e-10
3.38103e-10
9.03616e-11
4.70962e-11
-8.99577e-12
-1.75906e-11
-1.93858e-11
-1.98006e-11
-1.98935e-11
0.00140826
0.00131914
0.00125459
0.0010381
0.000952438
0.000763623
0.000694672
0.000557663
0.000505962
0.000398852
0.000313936
0.000285016
0.000233514
0.000214574
0.00017666
0.000162577
0.000133963
0.000123302
0.000101552
9.34387e-05
7.68575e-05
7.06697e-05
5.80181e-05
5.3298e-05
4.36506e-05
4.00539e-05
3.27095e-05
2.99742e-05
2.43966e-05
2.2322e-05
1.80991e-05
1.6531e-05
1.33455e-05
1.21647e-05
9.77203e-06
8.88699e-06
7.09861e-06
6.43871e-06
5.10962e-06
4.62057e-06
3.63936e-06
3.27951e-06
2.56078e-06
2.29823e-06
1.77667e-06
1.58702e-06
1.21271e-06
1.07715e-06
8.11173e-07
7.11527e-07
5.06998e-07
3.50364e-07
2.99006e-07
2.13417e-07
1.83718e-07
1.2914e-07
1.10317e-07
7.60093e-08
6.43152e-08
4.3401e-08
3.6357e-08
2.4011e-08
1.98996e-08
1.28346e-08
1.05066e-08
6.58133e-09
5.30112e-09
3.18346e-09
2.50074e-09
1.39614e-09
1.04604e-09
4.98458e-10
3.34451e-10
1.08236e-10
4.89109e-11
-4.37593e-12
-1.63425e-11
-1.90843e-11
-1.97283e-11
-1.98729e-11
0.00140183
0.0013195
0.00124511
0.00104562
0.000946782
0.000770898
0.000691163
0.000562831
0.000502825
0.000400399
0.000317727
0.000283993
0.000235532
0.000213597
0.000178115
0.000161819
0.000135056
0.000122722
0.000102382
9.29954e-05
7.74897e-05
7.03311e-05
5.85005e-05
5.304e-05
4.40187e-05
3.98578e-05
3.299e-05
2.98256e-05
2.46098e-05
2.22098e-05
1.82609e-05
1.64466e-05
1.34677e-05
1.21016e-05
9.86399e-06
8.84007e-06
7.1675e-06
6.40404e-06
5.16095e-06
4.59514e-06
3.67737e-06
3.26103e-06
2.58872e-06
2.28495e-06
1.79703e-06
1.5776e-06
1.22738e-06
1.0705e-06
8.21279e-07
7.05644e-07
5.10321e-07
3.57564e-07
2.97611e-07
2.16947e-07
1.82534e-07
1.31376e-07
1.09586e-07
7.74277e-08
6.38893e-08
4.42746e-08
3.61184e-08
2.45318e-08
1.97704e-08
1.31354e-08
1.04387e-08
6.74991e-09
5.26672e-09
3.27528e-09
2.48416e-09
1.44467e-09
1.03893e-09
5.23434e-10
3.33281e-10
1.19431e-10
5.04824e-11
-1.40966e-12
-1.54635e-11
-1.88668e-11
-1.96759e-11
-1.98579e-11
0.00139868
0.00131953
0.00124063
0.0010491
0.000944197
0.000774316
0.000689589
0.000565257
0.000501379
0.000401151
0.000319556
0.000283555
0.000236486
0.000213159
0.000178799
0.000161478
0.00013557
0.000122461
0.000102772
9.27955e-05
7.7787e-05
7.01785e-05
5.87274e-05
5.29236e-05
4.41918e-05
3.97694e-05
3.31219e-05
2.97587e-05
2.47101e-05
2.21593e-05
1.83369e-05
1.64087e-05
1.35252e-05
1.20733e-05
9.90726e-06
8.81898e-06
7.19992e-06
6.38846e-06
5.18511e-06
4.58373e-06
3.69526e-06
3.25275e-06
2.60189e-06
2.27901e-06
1.80662e-06
1.57339e-06
1.23429e-06
1.06753e-06
8.26029e-07
7.02938e-07
5.11934e-07
3.61046e-07
2.97039e-07
2.18623e-07
1.82018e-07
1.32435e-07
1.09268e-07
7.81e-08
6.37055e-08
4.46891e-08
3.60164e-08
2.47792e-08
1.97157e-08
1.32784e-08
1.04104e-08
6.83015e-09
5.25258e-09
3.31903e-09
2.47748e-09
1.46782e-09
1.03618e-09
5.35385e-10
3.33053e-10
1.24826e-10
5.13696e-11
4.21803e-14
-1.50108e-11
-1.8753e-11
-1.96483e-11
-1.985e-11
0.00139868
0.00131953
0.00124063
0.0010491
0.000944197
0.000774316
0.000689589
0.000565257
0.000501379
0.000401151
0.000319556
0.000283555
0.000236486
0.000213159
0.000178799
0.000161478
0.00013557
0.000122461
0.000102772
9.27955e-05
7.7787e-05
7.01785e-05
5.87274e-05
5.29236e-05
4.41918e-05
3.97694e-05
3.31219e-05
2.97587e-05
2.47102e-05
2.21593e-05
1.83369e-05
1.64087e-05
1.35252e-05
1.20733e-05
9.90726e-06
8.81898e-06
7.19992e-06
6.38846e-06
5.18511e-06
4.58373e-06
3.69526e-06
3.25275e-06
2.60189e-06
2.27901e-06
1.80662e-06
1.57339e-06
1.23429e-06
1.06753e-06
8.26029e-07
7.02938e-07
5.11934e-07
3.61046e-07
2.97039e-07
2.18623e-07
1.82018e-07
1.32435e-07
1.09268e-07
7.81e-08
6.37055e-08
4.46891e-08
3.60164e-08
2.47792e-08
1.97157e-08
1.32784e-08
1.04104e-08
6.83014e-09
5.25257e-09
3.31902e-09
2.47748e-09
1.46782e-09
1.03618e-09
5.35384e-10
3.33053e-10
1.24825e-10
5.13694e-11
4.20611e-14
-1.50109e-11
-1.8753e-11
-1.96484e-11
-1.985e-11
0.00140183
0.0013195
0.00124512
0.00104562
0.000946783
0.000770898
0.000691163
0.000562831
0.000502825
0.000400399
0.000317727
0.000283993
0.000235532
0.000213597
0.000178115
0.000161819
0.000135056
0.000122722
0.000102382
9.29954e-05
7.74897e-05
7.03311e-05
5.85005e-05
5.304e-05
4.40187e-05
3.98578e-05
3.299e-05
2.98256e-05
2.46098e-05
2.22099e-05
1.82609e-05
1.64466e-05
1.34677e-05
1.21016e-05
9.86399e-06
8.84007e-06
7.1675e-06
6.40404e-06
5.16095e-06
4.59514e-06
3.67737e-06
3.26103e-06
2.58872e-06
2.28495e-06
1.79703e-06
1.5776e-06
1.22738e-06
1.0705e-06
8.21279e-07
7.05643e-07
5.10321e-07
3.57564e-07
2.9761e-07
2.16947e-07
1.82534e-07
1.31375e-07
1.09586e-07
7.74276e-08
6.38893e-08
4.42746e-08
3.61183e-08
2.45318e-08
1.97704e-08
1.31354e-08
1.04387e-08
6.7499e-09
5.26672e-09
3.27528e-09
2.48416e-09
1.44467e-09
1.03892e-09
5.23432e-10
3.3328e-10
1.1943e-10
5.04818e-11
-1.40997e-12
-1.54637e-11
-1.88669e-11
-1.96759e-11
-1.98579e-11
0.00140826
0.00131914
0.00125459
0.0010381
0.000952438
0.000763623
0.000694672
0.000557663
0.000505962
0.000398852
0.000313936
0.000285016
0.000233514
0.000214574
0.00017666
0.000162577
0.000133963
0.000123302
0.000101552
9.34387e-05
7.68575e-05
7.06697e-05
5.80181e-05
5.3298e-05
4.36506e-05
4.00539e-05
3.27095e-05
2.99742e-05
2.43966e-05
2.2322e-05
1.80991e-05
1.6531e-05
1.33455e-05
1.21647e-05
9.77203e-06
8.88699e-06
7.09862e-06
6.43871e-06
5.10962e-06
4.62057e-06
3.63936e-06
3.27951e-06
2.56078e-06
2.29823e-06
1.77667e-06
1.58702e-06
1.21271e-06
1.07715e-06
8.11173e-07
7.11527e-07
5.06997e-07
3.50364e-07
2.99005e-07
2.13417e-07
1.83717e-07
1.2914e-07
1.10317e-07
7.60093e-08
6.43152e-08
4.34009e-08
3.6357e-08
2.4011e-08
1.98996e-08
1.28346e-08
1.05065e-08
6.58132e-09
5.30111e-09
3.18346e-09
2.50073e-09
1.39614e-09
1.04604e-09
4.98456e-10
3.34449e-10
1.08234e-10
4.89102e-11
-4.37635e-12
-1.63427e-11
-1.90845e-11
-1.97284e-11
-1.98729e-11
0.00141825
0.00131778
0.00127014
0.00102533
0.000962211
0.000751546
0.000700896
0.000549077
0.00051131
0.000396413
0.000307901
0.00028694
0.000230191
0.000216308
0.000174251
0.000163914
0.00013215
0.000124324
0.000100176
9.42198e-05
7.58087e-05
7.1266e-05
5.72177e-05
5.37525e-05
4.304e-05
4.03995e-05
3.22442e-05
3.02362e-05
2.40429e-05
2.25199e-05
1.7831e-05
1.66798e-05
1.3143e-05
1.22761e-05
9.61965e-06
8.96995e-06
6.98451e-06
6.50008e-06
5.02463e-06
4.66563e-06
3.57645e-06
3.3123e-06
2.51456e-06
2.32184e-06
1.74301e-06
1.60381e-06
1.18848e-06
1.08901e-06
7.94405e-07
7.21598e-07
5.01752e-07
3.38948e-07
3.01766e-07
2.07648e-07
1.85894e-07
1.25472e-07
1.11667e-07
7.36854e-08
6.51092e-08
4.1972e-08
3.68072e-08
2.31605e-08
2.01468e-08
1.23442e-08
1.06381e-08
6.30684e-09
5.36893e-09
3.03419e-09
2.53415e-09
1.3174e-09
1.06104e-09
4.58127e-10
3.38101e-10
9.03607e-11
4.70956e-11
-8.99613e-12
-1.75909e-11
-1.93859e-11
-1.98007e-11
-1.98935e-11
0.00143225
0.0013143
0.00129356
0.0010053
0.000977879
0.000733063
0.000711163
0.000535925
0.00051974
0.000392915
0.000299162
0.000290293
0.000225152
0.000219168
0.000170571
0.000166107
0.000129379
0.000125998
9.80716e-05
9.54984e-05
7.42046e-05
7.22421e-05
5.59936e-05
5.44966e-05
4.21062e-05
4.09654e-05
3.15329e-05
3.06654e-05
2.35022e-05
2.28443e-05
1.74213e-05
1.69239e-05
1.28335e-05
1.24591e-05
9.38693e-06
9.10627e-06
6.8103e-06
6.60105e-06
4.89494e-06
4.73987e-06
3.48052e-06
3.36642e-06
2.44413e-06
2.36089e-06
1.69175e-06
1.63163e-06
1.15161e-06
1.10866e-06
7.68759e-07
7.37545e-07
4.94221e-07
3.22505e-07
3.06802e-07
1.98984e-07
1.89615e-07
1.19938e-07
1.13983e-07
7.01847e-08
6.64851e-08
3.98237e-08
3.75965e-08
2.18844e-08
2.05853e-08
1.16098e-08
1.08747e-08
5.89658e-09
5.49259e-09
2.81152e-09
2.59622e-09
1.20025e-09
1.0899e-09
3.98478e-10
3.46859e-10
6.43061e-11
4.57932e-11
-1.55161e-11
-1.91111e-11
-1.97424e-11
-1.98857e-11
-1.99177e-11
0.00535202
0.00156708
0.00136883
0.00113574
0.00111193
0.000980344
0.000966672
0.000843782
0.000830664
0.000710975
0.000601527
0.000590511
0.000498348
0.000489378
0.000410126
0.00040249
0.000335386
0.000328957
0.00027287
0.00026752
0.000221105
0.000216693
0.000178576
0.000174962
0.000143845
0.000140901
0.000115617
0.000113228
9.27599e-05
9.08284e-05
7.43089e-05
7.27516e-05
5.94525e-05
5.82e-05
4.75166e-05
4.65112e-05
3.79451e-05
3.71396e-05
3.02828e-05
2.96384e-05
2.4158e-05
2.36433e-05
1.92687e-05
1.8858e-05
1.53697e-05
1.50423e-05
1.22626e-05
1.20013e-05
9.78476e-06
9.56751e-06
7.74144e-06
6.25455e-06
6.10994e-06
4.97855e-06
4.87151e-06
3.96321e-06
3.8773e-06
3.14156e-06
3.07169e-06
2.46995e-06
2.41249e-06
1.91415e-06
1.86623e-06
1.4471e-06
1.40651e-06
1.04807e-06
1.01343e-06
7.07821e-07
6.78983e-07
4.31355e-07
4.08753e-07
2.2313e-07
2.06468e-07
7.20607e-08
6.22509e-08
8.58567e-09
5.63608e-09
5.13414e-09
5.02083e-09
4.9955e-09
0.00494754
0.00187257
0.0014227
0.00116719
0.00110845
0.000990637
0.000958707
0.000852102
0.000821401
0.000712071
0.000610869
0.000585003
0.000505113
0.00048434
0.000415906
0.000398238
0.000340297
0.000325425
0.000276989
0.000264611
0.000224523
0.000214313
0.000181388
0.000173025
0.000146145
0.000139331
0.000117488
0.000111959
9.42757e-05
8.98061e-05
7.55333e-05
7.19297e-05
6.04389e-05
5.75405e-05
4.83094e-05
4.59829e-05
3.85812e-05
3.67171e-05
3.07922e-05
2.9301e-05
2.45653e-05
2.33741e-05
1.95939e-05
1.86434e-05
1.56291e-05
1.48714e-05
1.24691e-05
1.18639e-05
9.94428e-06
9.43686e-06
7.77728e-06
6.38766e-06
6.04699e-06
5.06383e-06
4.81576e-06
4.03051e-06
3.83168e-06
3.19586e-06
3.03417e-06
2.51418e-06
2.38121e-06
1.9506e-06
1.83971e-06
1.47759e-06
1.38367e-06
1.07413e-06
9.94017e-07
7.30332e-07
6.63641e-07
4.49981e-07
3.97696e-07
2.37313e-07
1.98796e-07
8.3295e-08
6.0604e-08
1.37582e-08
6.84021e-09
5.41679e-09
5.08891e-09
5.01543e-09
0.00466605
0.00207306
0.00146878
0.00119076
0.00110732
0.000997487
0.000953723
0.000857381
0.000815279
0.000712837
0.000617193
0.000581652
0.00050951
0.000481205
0.000419652
0.000395596
0.000343484
0.000323234
0.000279663
0.000262809
0.000226743
0.000212841
0.000183217
0.000171828
0.00014764
0.000138361
0.000118705
0.000111176
9.52623e-05
8.91753e-05
7.63303e-05
7.14228e-05
6.10812e-05
5.71338e-05
4.88258e-05
4.56573e-05
3.89955e-05
3.64567e-05
3.1124e-05
2.90931e-05
2.48307e-05
2.32083e-05
1.98058e-05
1.85114e-05
1.57981e-05
1.47661e-05
1.26035e-05
1.17791e-05
1.00472e-05
9.35223e-06
7.80228e-06
6.47876e-06
6.00969e-06
5.11967e-06
4.78145e-06
4.07433e-06
3.80351e-06
3.23117e-06
3.01096e-06
2.54291e-06
2.36182e-06
1.97424e-06
1.82323e-06
1.49734e-06
1.36944e-06
1.09101e-06
9.8194e-07
7.44959e-07
6.54173e-07
4.62148e-07
3.90961e-07
2.4662e-07
1.94202e-07
9.08159e-08
5.99226e-08
1.73333e-08
7.82436e-09
5.65552e-09
5.14675e-09
5.03238e-09
0.00448827
0.00219398
0.00150179
0.00120653
0.00110723
0.00100168
0.000950832
0.000860482
0.000811562
0.000713324
0.000621106
0.000579759
0.000512147
0.000479396
0.000421894
0.000394072
0.000345392
0.000321972
0.000281266
0.000261773
0.000228075
0.000211995
0.000184314
0.000171141
0.000148538
0.000137805
0.000119435
0.000110727
9.58547e-05
8.8814e-05
7.68091e-05
7.11325e-05
6.1467e-05
5.69011e-05
4.9136e-05
4.54709e-05
3.92444e-05
3.63078e-05
3.13234e-05
2.89742e-05
2.49902e-05
2.31135e-05
1.99332e-05
1.84358e-05
1.58997e-05
1.47059e-05
1.26843e-05
1.17304e-05
1.01086e-05
9.30171e-06
7.81813e-06
6.53561e-06
5.98917e-06
5.15338e-06
4.76186e-06
4.10065e-06
3.78736e-06
3.25236e-06
2.99763e-06
2.56014e-06
2.35066e-06
1.9884e-06
1.81372e-06
1.50915e-06
1.36121e-06
1.10111e-06
9.74968e-07
7.53728e-07
6.48748e-07
4.69476e-07
3.87148e-07
2.52246e-07
1.91645e-07
9.54356e-08
5.97081e-08
1.95845e-08
8.51458e-09
5.82766e-09
5.18871e-09
5.04469e-09
0.00440223
0.00225079
0.00151891
0.00121444
0.00110739
0.00100368
0.000949509
0.000861914
0.000809808
0.000713561
0.000622977
0.000578909
0.000513383
0.000478571
0.000422943
0.000393376
0.000346285
0.000321397
0.000282017
0.000261301
0.000228699
0.00021161
0.000184828
0.000170828
0.000148959
0.000137552
0.000119778
0.000110524
9.61326e-05
8.865e-05
7.70336e-05
7.10008e-05
6.1648e-05
5.67955e-05
4.92815e-05
4.53864e-05
3.93612e-05
3.62403e-05
3.1417e-05
2.89203e-05
2.5065e-05
2.30705e-05
1.99929e-05
1.84016e-05
1.59474e-05
1.46786e-05
1.27222e-05
1.17083e-05
1.01373e-05
9.27812e-06
7.82583e-06
6.56293e-06
5.98014e-06
5.16925e-06
4.75298e-06
4.113e-06
3.78003e-06
3.26229e-06
2.99157e-06
2.56821e-06
2.34558e-06
1.99503e-06
1.80939e-06
1.51467e-06
1.35746e-06
1.10583e-06
9.71786e-07
7.57836e-07
6.46285e-07
4.72919e-07
3.85432e-07
2.54897e-07
1.90508e-07
9.7634e-08
5.96682e-08
2.06729e-08
8.86909e-09
5.91766e-09
5.21074e-09
5.05115e-09
0.00440224
0.00225079
0.00151891
0.00121444
0.00110739
0.00100368
0.000949509
0.000861914
0.000809808
0.000713562
0.000622977
0.000578909
0.000513384
0.000478571
0.000422943
0.000393377
0.000346286
0.000321397
0.000282017
0.000261301
0.000228699
0.00021161
0.000184828
0.000170828
0.000148959
0.000137552
0.000119778
0.000110524
9.61326e-05
8.865e-05
7.70337e-05
7.10008e-05
6.1648e-05
5.67955e-05
4.92815e-05
4.53864e-05
3.93612e-05
3.62403e-05
3.1417e-05
2.89203e-05
2.5065e-05
2.30705e-05
1.99929e-05
1.84016e-05
1.59474e-05
1.46786e-05
1.27222e-05
1.17083e-05
1.01373e-05
9.27812e-06
7.82583e-06
6.56293e-06
5.98014e-06
5.16925e-06
4.75298e-06
4.113e-06
3.78003e-06
3.26229e-06
2.99157e-06
2.56821e-06
2.34558e-06
1.99503e-06
1.80939e-06
1.51467e-06
1.35746e-06
1.10583e-06
9.71786e-07
7.57836e-07
6.46285e-07
4.72919e-07
3.85432e-07
2.54897e-07
1.90508e-07
9.76339e-08
5.96681e-08
2.06729e-08
8.86906e-09
5.91765e-09
5.21073e-09
5.05114e-09
0.00448827
0.00219398
0.00150179
0.00120653
0.00110724
0.00100169
0.000950832
0.000860482
0.000811563
0.000713325
0.000621107
0.000579759
0.000512147
0.000479396
0.000421894
0.000394072
0.000345392
0.000321972
0.000281267
0.000261773
0.000228075
0.000211995
0.000184314
0.000171141
0.000148538
0.000137805
0.000119435
0.000110727
9.58548e-05
8.8814e-05
7.68091e-05
7.11325e-05
6.1467e-05
5.69011e-05
4.9136e-05
4.54709e-05
3.92444e-05
3.63078e-05
3.13234e-05
2.89742e-05
2.49902e-05
2.31135e-05
1.99332e-05
1.84358e-05
1.58997e-05
1.47059e-05
1.26843e-05
1.17304e-05
1.01086e-05
9.30171e-06
7.81813e-06
6.53562e-06
5.98918e-06
5.15339e-06
4.76186e-06
4.10065e-06
3.78736e-06
3.25236e-06
2.99763e-06
2.56014e-06
2.35066e-06
1.9884e-06
1.81373e-06
1.50915e-06
1.36121e-06
1.10111e-06
9.74968e-07
7.53728e-07
6.48748e-07
4.69476e-07
3.87148e-07
2.52246e-07
1.91644e-07
9.54353e-08
5.97079e-08
1.95844e-08
8.5145e-09
5.82762e-09
5.18869e-09
5.04467e-09
0.00466606
0.00207306
0.00146878
0.00119076
0.00110732
0.000997488
0.000953723
0.000857382
0.00081528
0.000712838
0.000617193
0.000581652
0.00050951
0.000481206
0.000419652
0.000395596
0.000343484
0.000323234
0.000279664
0.000262809
0.000226744
0.000212841
0.000183217
0.000171828
0.00014764
0.000138361
0.000118705
0.000111176
9.52623e-05
8.91754e-05
7.63304e-05
7.14228e-05
6.10812e-05
5.71339e-05
4.88258e-05
4.56573e-05
3.89955e-05
3.64568e-05
3.1124e-05
2.90931e-05
2.48307e-05
2.32083e-05
1.98058e-05
1.85114e-05
1.57981e-05
1.47661e-05
1.26035e-05
1.17791e-05
1.00472e-05
9.35224e-06
7.80228e-06
6.47877e-06
6.0097e-06
5.11967e-06
4.78146e-06
4.07433e-06
3.80351e-06
3.23117e-06
3.01096e-06
2.54292e-06
2.36182e-06
1.97424e-06
1.82323e-06
1.49734e-06
1.36944e-06
1.09101e-06
9.8194e-07
7.44958e-07
6.54173e-07
4.62148e-07
3.90961e-07
2.4662e-07
1.94202e-07
9.08156e-08
5.99224e-08
1.73331e-08
7.82426e-09
5.65547e-09
5.14673e-09
5.03235e-09
0.00494755
0.00187258
0.0014227
0.00116719
0.00110845
0.000990637
0.000958708
0.000852103
0.000821402
0.000712072
0.000610869
0.000585003
0.000505113
0.00048434
0.000415906
0.000398239
0.000340297
0.000325425
0.000276989
0.000264611
0.000224523
0.000214313
0.000181388
0.000173025
0.000146145
0.000139331
0.000117488
0.000111959
9.42758e-05
8.98062e-05
7.55333e-05
7.19297e-05
6.04389e-05
5.75405e-05
4.83094e-05
4.59829e-05
3.85812e-05
3.67171e-05
3.07922e-05
2.9301e-05
2.45653e-05
2.33741e-05
1.95939e-05
1.86435e-05
1.56291e-05
1.48714e-05
1.24691e-05
1.1864e-05
9.94429e-06
9.43686e-06
7.77729e-06
6.38766e-06
6.04699e-06
5.06383e-06
4.81576e-06
4.03051e-06
3.83168e-06
3.19586e-06
3.03417e-06
2.51418e-06
2.38121e-06
1.9506e-06
1.83971e-06
1.47759e-06
1.38367e-06
1.07413e-06
9.94017e-07
7.30332e-07
6.63641e-07
4.49981e-07
3.97696e-07
2.37313e-07
1.98796e-07
8.32948e-08
6.06038e-08
1.37581e-08
6.84013e-09
5.41675e-09
5.08889e-09
5.01541e-09
0.00535203
0.00156708
0.00136883
0.00113574
0.00111193
0.000980345
0.000966673
0.000843782
0.000830664
0.000710976
0.000601528
0.000590511
0.000498349
0.000489378
0.000410127
0.00040249
0.000335386
0.000328957
0.00027287
0.00026752
0.000221105
0.000216693
0.000178576
0.000174962
0.000143846
0.000140901
0.000115617
0.000113228
9.276e-05
9.08284e-05
7.43089e-05
7.27517e-05
5.94525e-05
5.82e-05
4.75166e-05
4.65112e-05
3.79451e-05
3.71396e-05
3.02828e-05
2.96384e-05
2.4158e-05
2.36433e-05
1.92687e-05
1.8858e-05
1.53697e-05
1.50423e-05
1.22627e-05
1.20013e-05
9.78476e-06
9.56751e-06
7.74144e-06
6.25455e-06
6.10994e-06
4.97855e-06
4.87151e-06
3.96321e-06
3.8773e-06
3.14156e-06
3.07169e-06
2.46995e-06
2.41249e-06
1.91415e-06
1.86623e-06
1.4471e-06
1.40651e-06
1.04807e-06
1.01343e-06
7.07821e-07
6.78983e-07
4.31355e-07
4.08753e-07
2.2313e-07
2.06468e-07
7.20606e-08
6.22508e-08
8.58562e-09
5.63605e-09
5.13412e-09
5.02083e-09
4.99549e-09
0.00534191
0.00155617
0.00135792
0.00112555
0.00110182
0.000971168
0.000957595
0.000835681
0.000822669
0.000703975
0.000595468
0.000584547
0.000493207
0.000484317
0.000405798
0.000398232
0.000331769
0.000325403
0.000269868
0.000264571
0.000218628
0.00021426
0.000176542
0.000172966
0.000142183
0.00013927
0.000114263
0.000111901
9.16622e-05
8.97525e-05
7.34217e-05
7.18824e-05
5.87378e-05
5.74999e-05
4.69425e-05
4.5949e-05
3.74852e-05
3.66894e-05
2.99153e-05
2.92787e-05
2.38649e-05
2.33565e-05
1.90354e-05
1.86298e-05
1.51844e-05
1.4861e-05
1.21156e-05
1.18575e-05
9.66834e-06
9.45377e-06
7.65024e-06
6.18168e-06
6.03885e-06
4.92137e-06
4.81565e-06
3.91847e-06
3.83361e-06
3.10683e-06
3.03781e-06
2.44333e-06
2.38656e-06
1.89415e-06
1.84679e-06
1.43254e-06
1.39241e-06
1.03799e-06
1.00374e-06
7.01346e-07
6.72802e-07
4.27592e-07
4.05206e-07
2.21294e-07
2.04779e-07
7.14768e-08
6.17475e-08
8.51431e-09
5.58851e-09
5.09063e-09
4.97823e-09
4.95311e-09
0.00493735
0.00186175
0.00141187
0.00115696
0.00109841
0.000981398
0.000949698
0.000843937
0.000813485
0.000705065
0.00060473
0.000579089
0.000499912
0.000479327
0.000411524
0.000394022
0.000336634
0.000321906
0.000273946
0.000261692
0.000222011
0.000211906
0.000179325
0.00017105
0.000144457
0.000137717
0.000116114
0.000110647
9.31611e-05
8.8742e-05
7.46322e-05
7.10701e-05
5.97128e-05
5.68482e-05
4.7726e-05
4.54271e-05
3.81137e-05
3.6272e-05
3.04185e-05
2.89454e-05
2.42673e-05
2.30906e-05
1.93567e-05
1.84179e-05
1.54406e-05
1.46922e-05
1.23195e-05
1.17219e-05
9.82589e-06
9.32473e-06
7.68564e-06
6.31315e-06
5.97667e-06
5.00561e-06
4.76058e-06
3.98495e-06
3.78854e-06
3.16046e-06
3.00074e-06
2.48702e-06
2.35564e-06
1.93016e-06
1.82058e-06
1.46267e-06
1.36982e-06
1.06376e-06
9.84521e-07
7.23615e-07
6.57604e-07
4.46033e-07
3.94247e-07
2.35343e-07
1.97166e-07
8.26178e-08
6.01132e-08
1.36451e-08
6.78292e-09
5.371e-09
5.04577e-09
4.97288e-09
0.00465581
0.00206229
0.00145801
0.0011805
0.00109733
0.00098821
0.000944757
0.000849176
0.000807415
0.000705827
0.000611001
0.000575769
0.00050427
0.000476222
0.000415236
0.000391406
0.00033979
0.000319736
0.000276595
0.000259909
0.000224209
0.000210449
0.000181134
0.000169866
0.000145937
0.000136758
0.000117317
0.000109872
9.41367e-05
8.81185e-05
7.54202e-05
7.05691e-05
6.03476e-05
5.64465e-05
4.82363e-05
4.51054e-05
3.85231e-05
3.60148e-05
3.07464e-05
2.87401e-05
2.45295e-05
2.29269e-05
1.9566e-05
1.82874e-05
1.56075e-05
1.45882e-05
1.24523e-05
1.16381e-05
9.92758e-06
9.24115e-06
7.71033e-06
6.40313e-06
5.93984e-06
5.06076e-06
4.7267e-06
4.02823e-06
3.76072e-06
3.19534e-06
2.9778e-06
2.51541e-06
2.33648e-06
1.95352e-06
1.80429e-06
1.48218e-06
1.35575e-06
1.08045e-06
9.72566e-07
7.38083e-07
6.48224e-07
4.58078e-07
3.87571e-07
2.44561e-07
1.92606e-07
9.0076e-08
5.94367e-08
1.71912e-08
7.75912e-09
5.60779e-09
5.10314e-09
4.98969e-09
0.00447799
0.00218325
0.00149106
0.00119626
0.00109727
0.000992385
0.000941892
0.000852253
0.00080373
0.000706312
0.000614882
0.000573894
0.000506884
0.00047443
0.000417458
0.000389896
0.000341681
0.000318487
0.000278183
0.000258883
0.000225528
0.000209612
0.00018222
0.000169186
0.000146825
0.000136208
0.00011804
0.000109429
9.47226e-05
8.77614e-05
7.58936e-05
7.02822e-05
6.0729e-05
5.62165e-05
4.85429e-05
4.49213e-05
3.87691e-05
3.58677e-05
3.09434e-05
2.86226e-05
2.4687e-05
2.28332e-05
1.96918e-05
1.82128e-05
1.57079e-05
1.45288e-05
1.25321e-05
1.159e-05
9.9882e-06
9.19125e-06
7.72598e-06
6.45928e-06
5.91957e-06
5.09406e-06
4.70734e-06
4.05423e-06
3.74476e-06
3.21627e-06
2.96463e-06
2.53242e-06
2.32545e-06
1.96751e-06
1.79489e-06
1.49386e-06
1.34761e-06
1.09043e-06
9.65664e-07
7.46757e-07
6.42848e-07
4.65333e-07
3.83791e-07
2.50134e-07
1.90067e-07
9.4657e-08
5.92235e-08
1.94243e-08
8.44377e-09
5.77854e-09
5.14476e-09
5.0019e-09
0.00439194
0.00224007
0.0015082
0.00120418
0.00109743
0.000994371
0.000940581
0.000853674
0.000801991
0.000706547
0.000616736
0.000573052
0.00050811
0.000473612
0.000418497
0.000389208
0.000342566
0.000317918
0.000278926
0.000258417
0.000226146
0.000209232
0.000182729
0.000168877
0.000147242
0.000135958
0.000118379
0.000109227
9.49973e-05
8.75993e-05
7.61156e-05
7.01521e-05
6.09079e-05
5.61121e-05
4.86867e-05
4.48378e-05
3.88845e-05
3.5801e-05
3.10358e-05
2.85694e-05
2.47609e-05
2.27908e-05
1.97509e-05
1.8179e-05
1.5755e-05
1.45018e-05
1.25696e-05
1.15682e-05
1.00165e-05
9.16795e-06
7.73358e-06
6.48626e-06
5.91065e-06
5.10973e-06
4.69857e-06
4.06642e-06
3.73752e-06
3.22609e-06
2.95865e-06
2.5404e-06
2.32043e-06
1.97405e-06
1.7906e-06
1.49931e-06
1.3439e-06
1.0951e-06
9.62514e-07
7.50821e-07
6.40408e-07
4.68741e-07
3.8209e-07
2.52759e-07
1.88939e-07
9.6837e-08
5.91837e-08
2.05039e-08
8.7954e-09
5.86782e-09
5.16661e-09
5.00831e-09
0.00439194
0.00224007
0.0015082
0.00120418
0.00109743
0.000994371
0.000940582
0.000853675
0.000801991
0.000706547
0.000616736
0.000573052
0.00050811
0.000473612
0.000418497
0.000389208
0.000342566
0.000317918
0.000278926
0.000258417
0.000226146
0.000209232
0.000182729
0.000168877
0.000147242
0.000135958
0.000118379
0.000109227
9.49973e-05
8.75993e-05
7.61156e-05
7.01521e-05
6.09079e-05
5.61121e-05
4.86867e-05
4.48378e-05
3.88845e-05
3.5801e-05
3.10358e-05
2.85694e-05
2.47609e-05
2.27908e-05
1.97509e-05
1.8179e-05
1.5755e-05
1.45018e-05
1.25696e-05
1.15682e-05
1.00165e-05
9.16795e-06
7.73359e-06
6.48626e-06
5.91065e-06
5.10973e-06
4.69857e-06
4.06642e-06
3.73752e-06
3.22609e-06
2.95865e-06
2.5404e-06
2.32043e-06
1.97405e-06
1.7906e-06
1.49932e-06
1.3439e-06
1.0951e-06
9.62514e-07
7.50821e-07
6.40408e-07
4.68741e-07
3.8209e-07
2.52759e-07
1.88939e-07
9.68369e-08
5.91836e-08
2.05038e-08
8.79537e-09
5.86781e-09
5.1666e-09
5.0083e-09
0.00447799
0.00218325
0.00149106
0.00119627
0.00109727
0.000992386
0.000941893
0.000852253
0.000803731
0.000706312
0.000614882
0.000573894
0.000506884
0.00047443
0.000417458
0.000389896
0.000341681
0.000318487
0.000278183
0.000258884
0.000225528
0.000209612
0.00018222
0.000169186
0.000146825
0.000136208
0.00011804
0.000109429
9.47226e-05
8.77614e-05
7.58936e-05
7.02823e-05
6.0729e-05
5.62165e-05
4.85429e-05
4.49213e-05
3.87691e-05
3.58677e-05
3.09434e-05
2.86226e-05
2.4687e-05
2.28333e-05
1.96918e-05
1.82128e-05
1.57079e-05
1.45288e-05
1.25321e-05
1.159e-05
9.9882e-06
9.19125e-06
7.72598e-06
6.45928e-06
5.91957e-06
5.09406e-06
4.70734e-06
4.05423e-06
3.74476e-06
3.21627e-06
2.96464e-06
2.53243e-06
2.32545e-06
1.96751e-06
1.79489e-06
1.49386e-06
1.34761e-06
1.09043e-06
9.65664e-07
7.46757e-07
6.42848e-07
4.65333e-07
3.83791e-07
2.50133e-07
1.90067e-07
9.46568e-08
5.92233e-08
1.94242e-08
8.44369e-09
5.7785e-09
5.14474e-09
5.00188e-09
0.00465581
0.0020623
0.00145801
0.00118051
0.00109733
0.000988211
0.000944758
0.000849176
0.000807416
0.000705828
0.000611001
0.00057577
0.00050427
0.000476222
0.000415237
0.000391406
0.000339791
0.000319737
0.000276595
0.000259909
0.000224209
0.000210449
0.000181134
0.000169866
0.000145937
0.000136758
0.000117318
0.000109872
9.41368e-05
8.81186e-05
7.54203e-05
7.05692e-05
6.03477e-05
5.64465e-05
4.82363e-05
4.51054e-05
3.85231e-05
3.60148e-05
3.07464e-05
2.87401e-05
2.45295e-05
2.29269e-05
1.9566e-05
1.82874e-05
1.56076e-05
1.45882e-05
1.24523e-05
1.16381e-05
9.92759e-06
9.24115e-06
7.71033e-06
6.40313e-06
5.93984e-06
5.06076e-06
4.7267e-06
4.02823e-06
3.76072e-06
3.19534e-06
2.97781e-06
2.51541e-06
2.33648e-06
1.95352e-06
1.80429e-06
1.48219e-06
1.35575e-06
1.08045e-06
9.72566e-07
7.38083e-07
6.48224e-07
4.58078e-07
3.87571e-07
2.44561e-07
1.92606e-07
9.00757e-08
5.94365e-08
1.71911e-08
7.75902e-09
5.60774e-09
5.10311e-09
4.98966e-09
0.00493736
0.00186176
0.00141187
0.00115696
0.00109841
0.000981399
0.000949699
0.000843938
0.000813486
0.000705065
0.000604731
0.00057909
0.000499912
0.000479327
0.000411525
0.000394023
0.000336634
0.000321906
0.000273946
0.000261692
0.000222011
0.000211906
0.000179325
0.00017105
0.000144457
0.000137717
0.000116114
0.000110647
9.31612e-05
8.8742e-05
7.46322e-05
7.10701e-05
5.97128e-05
5.68483e-05
4.77261e-05
4.54271e-05
3.81138e-05
3.6272e-05
3.04186e-05
2.89454e-05
2.42673e-05
2.30906e-05
1.93567e-05
1.84179e-05
1.54406e-05
1.46922e-05
1.23195e-05
1.17219e-05
9.8259e-06
9.32474e-06
7.68565e-06
6.31315e-06
5.97668e-06
5.00561e-06
4.76058e-06
3.98495e-06
3.78855e-06
3.16046e-06
3.00074e-06
2.48702e-06
2.35564e-06
1.93016e-06
1.82058e-06
1.46267e-06
1.36982e-06
1.06376e-06
9.84521e-07
7.23615e-07
6.57604e-07
4.46033e-07
3.94247e-07
2.35343e-07
1.97166e-07
8.26175e-08
6.0113e-08
1.36449e-08
6.78284e-09
5.37096e-09
5.04575e-09
4.97285e-09
0.00534192
0.00155617
0.00135793
0.00112555
0.00110183
0.000971168
0.000957595
0.000835681
0.000822669
0.000703975
0.000595468
0.000584547
0.000493207
0.000484318
0.000405798
0.000398232
0.000331769
0.000325403
0.000269868
0.000264571
0.000218628
0.00021426
0.000176542
0.000172966
0.000142183
0.00013927
0.000114263
0.000111901
9.16622e-05
8.97525e-05
7.34218e-05
7.18824e-05
5.87378e-05
5.75e-05
4.69425e-05
4.5949e-05
3.74853e-05
3.66894e-05
2.99153e-05
2.92787e-05
2.3865e-05
2.33565e-05
1.90354e-05
1.86298e-05
1.51844e-05
1.4861e-05
1.21156e-05
1.18575e-05
9.66834e-06
9.45378e-06
7.65024e-06
6.18168e-06
6.03885e-06
4.92137e-06
4.81566e-06
3.91847e-06
3.83361e-06
3.10683e-06
3.03781e-06
2.44333e-06
2.38656e-06
1.89415e-06
1.84679e-06
1.43254e-06
1.39241e-06
1.038e-06
1.00374e-06
7.01346e-07
6.72802e-07
4.27592e-07
4.05206e-07
2.21294e-07
2.04779e-07
7.14767e-08
6.17475e-08
8.51426e-09
5.58848e-09
5.09061e-09
4.97823e-09
4.9531e-09
0.00142484
0.00130724
0.00128658
0.000999585
0.000972293
0.000728662
0.000706872
0.000532553
0.000516455
0.000390346
0.000297149
0.000288333
0.000223598
0.000217651
0.000169368
0.000164933
0.000128449
0.000125092
9.73555e-05
9.48001e-05
7.36546e-05
7.1706e-05
5.55728e-05
5.40865e-05
4.17856e-05
4.06532e-05
3.12899e-05
3.04288e-05
2.3319e-05
2.2666e-05
1.7284e-05
1.67904e-05
1.27313e-05
1.23597e-05
9.31141e-06
9.03293e-06
6.75498e-06
6.54738e-06
4.85481e-06
4.70098e-06
3.45173e-06
3.33856e-06
2.42374e-06
2.34118e-06
1.67753e-06
1.6179e-06
1.14185e-06
1.09926e-06
7.62192e-07
7.3124e-07
4.89963e-07
3.19701e-07
3.04132e-07
1.97235e-07
1.87947e-07
1.1887e-07
1.12966e-07
6.95506e-08