/*--------------------------------*- C++ -*----------------------------------*\
| =========                 |                                                 |
| \\      /  F ield         | OpenFOAM: The Open Source CFD Toolbox           |
|  \\    /   O peration     | Version:  5.x                                   |
|   \\  /    A nd           | Web:      www.OpenFOAM.org                      |
|    \\/     M anipulation  |                                                 |
\*---------------------------------------------------------------------------*/
FoamFile
{
    version     2.0;
    format      ascii;
    class       volScalarField;
    location    "3.0999";
    object      gradTy;
}
// * * * * * * * * * * * * * * * * * * * * * * * * * * * * * * * * * * * * * //

dimensions      [0 -1 0 1 0 0 0];

internalField   nonuniform List<scalar> 
2048
(
-27.5091
-27.4753
-27.4086
-27.3111
-27.1856
-27.0353
-26.8637
-26.6746
-26.4714
-26.2573
-26.0353
-25.808
-25.5775
-25.346
-25.1149
-24.8858
-24.6597
-24.4376
-24.2201
-24.0077
-23.8006
-23.599
-23.4028
-23.2121
-23.0267
-22.8465
-22.6714
-22.5014
-22.3364
-22.1764
-22.0213
-21.8714
-21.7266
-21.5871
-21.4532
-21.325
-21.2028
-21.0868
-20.9771
-20.8741
-20.778
-20.6891
-20.6076
-20.5338
-20.4682
-20.411
-20.3626
-20.3233
-20.2933
-20.2727
-20.2613
-20.2588
-20.2648
-20.2784
-20.2986
-20.324
-20.353
-20.3839
-20.415
-20.4442
-20.47
-20.4907
-20.5053
-20.5128
-27.5365
-27.5018
-27.4335
-27.3338
-27.2056
-27.0524
-26.878
-26.686
-26.4802
-26.2638
-26.0396
-25.8105
-25.5784
-25.3455
-25.1134
-24.8833
-24.6565
-24.4339
-24.216
-24.0034
-23.7962
-23.5946
-23.3984
-23.2078
-23.0224
-22.8423
-22.6673
-22.4974
-22.3324
-22.1723
-22.0172
-21.8672
-21.7222
-21.5826
-21.4485
-21.3202
-21.1978
-21.0815
-20.9717
-20.8686
-20.7722
-20.683
-20.6013
-20.5272
-20.4613
-20.4039
-20.3553
-20.3158
-20.2857
-20.2652
-20.254
-20.252
-20.2586
-20.2731
-20.2943
-20.321
-20.3514
-20.3838
-20.4163
-20.447
-20.474
-20.4957
-20.511
-20.5188
-27.589
-27.5526
-27.4812
-27.3771
-27.2437
-27.0849
-26.9048
-26.7075
-26.4966
-26.2757
-26.0476
-25.815
-25.58
-25.3446
-25.1102
-24.8785
-24.6503
-24.4267
-24.2082
-23.9951
-23.7878
-23.5861
-23.3901
-23.1996
-23.0144
-22.8345
-22.6596
-22.4897
-22.3247
-22.1647
-22.0095
-21.8592
-21.7141
-21.5742
-21.4397
-21.311
-21.1883
-21.0717
-20.9615
-20.858
-20.7613
-20.6716
-20.5894
-20.5148
-20.4483
-20.3903
-20.3413
-20.3015
-20.2713
-20.2508
-20.2401
-20.2389
-20.2467
-20.2628
-20.2861
-20.3152
-20.3483
-20.3836
-20.419
-20.4523
-20.4817
-20.5054
-20.5219
-20.5304
-27.6643
-27.6254
-27.5493
-27.4387
-27.2977
-27.1307
-26.9425
-26.7373
-26.5193
-26.2921
-26.0584
-25.821
-25.5818
-25.3428
-25.1055
-24.8713
-24.6413
-24.4163
-24.1968
-23.9833
-23.7758
-23.5742
-23.3784
-23.1881
-23.0032
-22.8234
-22.6487
-22.479
-22.3141
-22.154
-21.9986
-21.8481
-21.7026
-21.5623
-21.4274
-21.2981
-21.1749
-21.0578
-20.9472
-20.8431
-20.7459
-20.6556
-20.5726
-20.4973
-20.4299
-20.3712
-20.3214
-20.2811
-20.2506
-20.2303
-20.2201
-20.22
-20.2296
-20.248
-20.2742
-20.3068
-20.3439
-20.3834
-20.4229
-20.4602
-20.493
-20.5194
-20.5379
-20.5474
-27.7609
-27.7186
-27.6361
-27.5169
-27.3658
-27.1881
-26.9891
-26.774
-26.547
-26.3117
-26.0712
-25.8278
-25.5835
-25.3401
-25.0991
-24.8619
-24.6295
-24.4028
-24.1823
-23.9682
-23.7606
-23.5591
-23.3636
-23.1737
-22.9891
-22.8097
-22.6352
-22.4657
-22.3008
-22.1407
-21.9852
-21.8343
-21.6884
-21.5474
-21.4119
-21.282
-21.1582
-21.0405
-20.9293
-20.8246
-20.7267
-20.6356
-20.5517
-20.4754
-20.407
-20.3471
-20.2964
-20.2554
-20.2245
-20.2042
-20.1947
-20.1959
-20.2075
-20.2289
-20.2589
-20.2959
-20.3381
-20.383
-20.428
-20.4704
-20.5078
-20.5378
-20.5588
-20.5696
-27.8776
-27.8311
-27.7404
-27.6102
-27.4463
-27.2551
-27.0432
-26.8159
-26.5782
-26.3336
-26.0851
-25.8348
-25.5846
-25.3361
-25.0908
-24.85
-24.6149
-24.3863
-24.1646
-23.9501
-23.7424
-23.5413
-23.3462
-23.1568
-22.9726
-22.7936
-22.6195
-22.4502
-22.2855
-22.1253
-21.9696
-21.8184
-21.6718
-21.5301
-21.3938
-21.2631
-21.1385
-21.0202
-20.9084
-20.8031
-20.7043
-20.6124
-20.5274
-20.4498
-20.3801
-20.3189
-20.2669
-20.2249
-20.1934
-20.173
-20.1641
-20.1668
-20.1808
-20.2055
-20.24
-20.2825
-20.3309
-20.3825
-20.4343
-20.4832
-20.5261
-20.5606
-20.5847
-20.597
-28.0138
-27.9618
-27.861
-27.7172
-27.5376
-27.3304
-27.1029
-26.8616
-26.6117
-26.3567
-26.0993
-25.8415
-25.5847
-25.3306
-25.0804
-24.8357
-24.5975
-24.3668
-24.144
-23.9291
-23.7216
-23.521
-23.3266
-23.1378
-22.9542
-22.7756
-22.6019
-22.4329
-22.2684
-22.1082
-21.9523
-21.8006
-21.6533
-21.5108
-21.3735
-21.2419
-21.1164
-20.9974
-20.8849
-20.7789
-20.6794
-20.5864
-20.5002
-20.4211
-20.3498
-20.2869
-20.2334
-20.19
-20.1577
-20.1371
-20.1287
-20.1329
-20.1495
-20.1781
-20.2177
-20.2666
-20.3224
-20.382
-20.4419
-20.4984
-20.548
-20.5878
-20.6156
-20.6298
-28.1692
-28.1105
-27.9972
-27.8367
-27.6384
-27.4121
-27.1667
-26.9096
-26.6461
-26.3799
-26.1131
-25.8473
-25.5836
-25.3234
-25.0679
-24.8188
-24.5773
-24.3444
-24.1205
-23.9054
-23.6984
-23.4986
-23.3051
-23.1171
-22.9342
-22.7561
-22.5828
-22.4141
-22.2499
-22.0898
-21.9337
-21.7815
-21.6333
-21.4897
-21.3512
-21.2186
-21.0922
-20.9724
-20.8592
-20.7526
-20.6523
-20.5583
-20.4707
-20.3899
-20.3167
-20.2518
-20.1964
-20.1514
-20.1179
-20.0968
-20.0888
-20.0944
-20.1137
-20.1465
-20.1919
-20.248
-20.3123
-20.3812
-20.4507
-20.5162
-20.5737
-20.6197
-20.6516
-20.6679
-28.3437
-28.2768
-28.1482
-27.9677
-27.7472
-27.4987
-27.2329
-26.9583
-26.6803
-26.4024
-26.126
-25.852
-25.5811
-25.3144
-25.0532
-24.7993
-24.5542
-24.319
-24.0941
-23.8791
-23.673
-23.4744
-23.2821
-23.0951
-22.9129
-22.7353
-22.5625
-22.3942
-22.2304
-22.0705
-21.9142
-21.7614
-21.6122
-21.4673
-21.3274
-21.1935
-21.0661
-20.9455
-20.8318
-20.7247
-20.6237
-20.5286
-20.4395
-20.3568
-20.2813
-20.214
-20.1563
-20.1094
-20.0744
-20.0525
-20.0446
-20.0515
-20.0736
-20.1108
-20.1623
-20.2266
-20.3006
-20.3803
-20.4608
-20.5368
-20.6033
-20.6562
-20.6928
-20.7115
-28.5376
-28.4606
-28.3137
-28.1093
-27.8625
-27.5885
-27.2999
-27.0062
-26.7131
-26.4232
-26.1373
-25.8552
-25.577
-25.3035
-25.0362
-24.777
-24.528
-24.2905
-24.0649
-23.8504
-23.6457
-23.4487
-23.2579
-23.0721
-22.8906
-22.7136
-22.5411
-22.3734
-22.2101
-22.0505
-21.8941
-21.7406
-21.5903
-21.4438
-21.3023
-21.1668
-21.0383
-20.9171
-20.8029
-20.6954
-20.5939
-20.4978
-20.407
-20.3222
-20.2441
-20.1741
-20.1136
-20.0643
-20.0275
-20.0045
-19.9964
-20.0043
-20.029
-20.0707
-20.129
-20.2021
-20.287
-20.379
-20.4723
-20.5603
-20.6371
-20.6978
-20.7395
-20.7606
-28.7514
-28.6622
-28.4931
-28.2602
-27.9829
-27.6797
-27.3659
-27.0518
-26.7432
-26.4417
-26.1467
-25.8568
-25.5714
-25.2908
-25.0168
-24.752
-24.4988
-24.259
-24.0328
-23.8194
-23.6166
-23.4219
-23.233
-23.0484
-22.8677
-22.691
-22.519
-22.3519
-22.1893
-22.0303
-21.8739
-21.7196
-21.5678
-21.4195
-21.2759
-21.1388
-21.0091
-20.8872
-20.7729
-20.6653
-20.5633
-20.4662
-20.3738
-20.2865
-20.2055
-20.1323
-20.0687
-20.0166
-19.9775
-19.9529
-19.9443
-19.953
-19.9801
-20.0263
-20.0916
-20.1744
-20.2714
-20.3773
-20.4851
-20.5869
-20.6752
-20.7445
-20.7917
-20.8154
-28.9859
-28.882
-28.6863
-28.4197
-28.1067
-27.7706
-27.4291
-27.0937
-26.7696
-26.4572
-26.154
-25.8569
-25.5643
-25.2764
-24.9953
-24.7241
-24.4664
-24.2242
-23.9978
-23.7861
-23.5861
-23.3943
-23.2077
-23.0245
-22.8444
-22.6679
-22.4962
-22.3298
-22.1682
-22.01
-21.8537
-21.6987
-21.5452
-21.3945
-21.2486
-21.1095
-20.9785
-20.8561
-20.7418
-20.6345
-20.5324
-20.4345
-20.3403
-20.2503
-20.1659
-20.089
-20.0219
-19.9665
-19.9247
-19.8983
-19.8887
-19.8977
-19.9268
-19.9774
-20.0499
-20.143
-20.2534
-20.375
-20.4994
-20.6168
-20.718
-20.7966
-20.8495
-20.8758
-29.2422
-29.1205
-28.893
-28.5864
-28.2323
-27.8593
-27.4878
-27.1302
-26.7913
-26.4692
-26.159
-25.8555
-25.5561
-25.2606
-24.9716
-24.6934
-24.4306
-24.1859
-23.9599
-23.7507
-23.5544
-23.3663
-23.1824
-23.0007
-22.821
-22.6444
-22.4727
-22.3071
-22.1469
-21.99
-21.8341
-21.6783
-21.5228
-21.3692
-21.2203
-21.0789
-20.9465
-20.8238
-20.71
-20.6034
-20.5016
-20.403
-20.3069
-20.2139
-20.1257
-20.0447
-19.9734
-19.9144
-19.8695
-19.8407
-19.8298
-19.8386
-19.8692
-19.9238
-20.0036
-20.1077
-20.2328
-20.3719
-20.5152
-20.6504
-20.766
-20.8543
-20.9129
-20.9417
-29.5216
-29.3784
-29.1129
-28.7594
-28.3579
-27.9436
-27.54
-27.16
-26.8073
-26.4774
-26.1619
-25.8531
-25.5471
-25.2437
-24.9458
-24.6596
-24.3913
-24.1441
-23.9188
-23.7131
-23.5218
-23.3383
-23.1576
-22.9774
-22.7977
-22.6204
-22.4485
-22.2839
-22.1257
-21.9706
-21.8153
-21.6586
-21.5007
-21.3437
-21.1912
-21.0471
-20.9132
-20.7904
-20.6776
-20.5723
-20.4712
-20.3721
-20.274
-20.1778
-20.0853
-19.9994
-19.9236
-19.8605
-19.8122
-19.7806
-19.7678
-19.7758
-19.8074
-19.8655
-19.9524
-20.0681
-20.2091
-20.3677
-20.5325
-20.6881
-20.8194
-20.9179
-20.9818
-21.0128
-29.8258
-29.6566
-29.3459
-28.9371
-28.4813
-28.0216
-27.5839
-27.1814
-26.8167
-26.4815
-26.163
-25.85
-25.5378
-25.2261
-24.9182
-24.6227
-24.3482
-24.0986
-23.8745
-23.6735
-23.4885
-23.3108
-23.1337
-22.9549
-22.7749
-22.5961
-22.4234
-22.2601
-22.1046
-21.952
-21.7977
-21.64
-21.4794
-21.3181
-21.1612
-21.0139
-20.8786
-20.7558
-20.6446
-20.5414
-20.4417
-20.3422
-20.2421
-20.1423
-20.0448
-19.9536
-19.8727
-19.8051
-19.753
-19.7183
-19.7031
-19.7097
-19.7414
-19.8022
-19.8959
-20.0236
-20.1818
-20.3622
-20.5514
-20.7302
-20.879
-20.9877
-21.0562
-21.0888
-30.1565
-29.956
-29.5918
-29.1183
-28.6003
-28.0911
-27.6176
-27.193
-26.8187
-26.4815
-26.1627
-25.8468
-25.5287
-25.2084
-24.8889
-24.5824
-24.3011
-24.0489
-23.8267
-23.6319
-23.455
-23.2844
-23.1112
-22.9336
-22.7528
-22.5715
-22.3972
-22.2356
-22.0838
-21.9347
-21.7816
-21.6229
-21.4591
-21.2926
-21.1303
-20.9795
-20.8424
-20.7201
-20.6112
-20.511
-20.4134
-20.3138
-20.2115
-20.1078
-20.0046
-19.9072
-19.8209
-19.7485
-19.6922
-19.6541
-19.6361
-19.6405
-19.6713
-19.734
-19.8339
-19.9739
-20.1504
-20.3547
-20.572
-20.7776
-20.9453
-21.0638
-21.1359
-21.1692
-30.5161
-30.2776
-29.8507
-29.3012
-28.7122
-28.1498
-27.6394
-27.1932
-26.8126
-26.4775
-26.1618
-25.8443
-25.5205
-25.1912
-24.8581
-24.5384
-24.2498
-23.995
-23.7751
-23.5882
-23.4215
-23.2596
-23.0907
-22.914
-22.7317
-22.5464
-22.3694
-22.2099
-22.0632
-21.9189
-21.7675
-21.6076
-21.4404
-21.2673
-21.0983
-20.9435
-20.8047
-20.6829
-20.5774
-20.4814
-20.3867
-20.2872
-20.1826
-20.0746
-19.9649
-19.8605
-19.7684
-19.6909
-19.6301
-19.5884
-19.5671
-19.5686
-19.5974
-19.6606
-19.766
-19.9184
-20.1145
-20.3447
-20.5941
-20.8311
-21.0193
-21.1465
-21.2203
-21.2533
-30.9069
-30.6223
-30.1223
-29.484
-28.814
-28.1957
-27.6475
-27.1805
-26.7979
-26.4698
-26.1613
-25.843
-25.5138
-25.1755
-24.8259
-24.4902
-24.1941
-23.9366
-23.7192
-23.5424
-23.3885
-23.2374
-23.0726
-22.8963
-22.7121
-22.5208
-22.3395
-22.1829
-22.0431
-21.9053
-21.7556
-21.5945
-21.4236
-21.2422
-21.0648
-20.9059
-20.7653
-20.6442
-20.5432
-20.4528
-20.3621
-20.2627
-20.1556
-20.0431
-19.926
-19.8135
-19.7152
-19.6324
-19.567
-19.5215
-19.4966
-19.4944
-19.52
-19.5822
-19.6918
-19.8567
-20.0734
-20.3314
-20.6177
-20.8918
-21.1021
-21.2361
-21.3092
-21.3401
-31.332
-30.9909
-30.4071
-29.6645
-28.9022
-28.227
-27.6407
-27.1532
-26.774
-26.4589
-26.1626
-25.8438
-25.5089
-25.1626
-24.7926
-24.437
-24.1339
-23.8735
-23.6584
-23.4945
-23.3565
-23.2185
-23.0574
-22.8808
-22.6946
-22.4944
-22.3064
-22.154
-22.0235
-21.8943
-21.7463
-21.5836
-21.4093
-21.2175
-21.0295
-20.8667
-20.7241
-20.6035
-20.5086
-20.4254
-20.3402
-20.2406
-20.1307
-20.0139
-19.8878
-19.7658
-19.6616
-19.5734
-19.5029
-19.4539
-19.4251
-19.4185
-19.4393
-19.4986
-19.6108
-19.7883
-20.0265
-20.3136
-20.6425
-20.9613
-21.1949
-21.3329
-21.4017
-21.4288
-31.7947
-31.3833
-30.7057
-29.8404
-28.9723
-28.2423
-27.6179
-27.1093
-26.7405
-26.4454
-26.1674
-25.8472
-25.5062
-25.154
-24.7584
-24.3774
-24.0692
-23.8057
-23.5918
-23.4445
-23.3259
-23.2042
-23.0455
-22.8675
-22.6802
-22.4673
-22.2688
-22.1228
-22.0045
-21.8869
-21.7398
-21.5752
-21.3986
-21.1933
-20.9916
-20.8258
-20.6811
-20.5604
-20.4735
-20.3996
-20.3216
-20.2212
-20.108
-19.9875
-19.8506
-19.7174
-19.6076
-19.514
-19.4381
-19.3858
-19.3531
-19.3413
-19.3557
-19.4099
-19.5225
-19.713
-19.9737
-20.2897
-20.6678
-21.0418
-21.2993
-21.4367
-21.4971
-21.5181
-32.2991
-31.7988
-31.0195
-30.009
-29.0186
-28.241
-27.5785
-27.0462
-26.6974
-26.4299
-26.1783
-25.8535
-25.5053
-25.1523
-24.7236
-24.3096
-24.0006
-23.7333
-23.5181
-23.3923
-23.2971
-23.196
-23.037
-22.8562
-22.6703
-22.4391
-22.2251
-22.0888
-21.9862
-21.8843
-21.7363
-21.569
-21.3927
-21.1696
-20.9499
-20.7836
-20.6363
-20.5142
-20.4379
-20.3756
-20.3072
-20.2046
-20.0874
-19.9647
-19.8145
-19.6675
-19.5535
-19.4545
-19.3726
-19.3177
-19.281
-19.2634
-19.2697
-19.3162
-19.4263
-19.6303
-19.9148
-20.2575
-20.6927
-21.1361
-21.4173
-21.5476
-21.5943
-21.6067
-32.8504
-32.2348
-31.3514
-30.1676
-29.0338
-28.2239
-27.523
-26.9606
-26.645
-26.4129
-26.1988
-25.8629
-25.5051
-25.161
-24.6882
-24.2302
-23.9293
-23.6569
-23.4354
-23.3381
-23.2703
-23.1962
-23.0318
-22.8461
-22.667
-22.4097
-22.1726
-22.0517
-21.9686
-21.8882
-21.7355
-21.5642
-21.3934
-21.1464
-20.9027
-20.7405
-20.5899
-20.4636
-20.402
-20.3534
-20.2981
-20.1907
-20.0684
-19.9467
-19.7795
-19.6153
-19.4998
-19.3952
-19.3062
-19.25
-19.2094
-19.1857
-19.182
-19.2179
-19.3214
-19.54
-19.8504
-20.2139
-20.7154
-21.2487
-21.5509
-21.6652
-21.692
-21.693
-33.4552
-32.6857
-31.7066
-30.313
-29.0076
-28.1936
-27.4523
-26.8478
-26.5842
-26.3943
-26.2336
-25.8746
-25.5033
-25.1855
-24.6524
-24.1347
-23.8574
-23.5774
-23.3407
-23.2825
-23.2456
-23.2076
-23.0296
-22.8357
-22.6736
-22.3791
-22.1078
-22.0114
-21.9514
-21.9009
-21.7372
-21.5597
-21.4036
-21.1239
-20.8474
-20.6978
-20.5425
-20.4071
-20.366
-20.333
-20.296
-20.1792
-20.0502
-19.9351
-19.7457
-19.5592
-19.4469
-19.3366
-19.2386
-19.1832
-19.1387
-19.1088
-19.093
-19.1153
-19.2066
-19.4421
-19.782
-20.155
-20.7332
-21.3852
-21.7023
-21.7886
-21.7887
-21.7758
-34.1221
-33.1413
-32.0939
-30.442
-28.9262
-28.1561
-27.3689
-26.7008
-26.5176
-26.3732
-26.2896
-25.8872
-25.4955
-25.2336
-24.6164
-24.0158
-23.7888
-23.4963
-23.2296
-23.2269
-23.2221
-23.2346
-23.0293
-22.8222
-22.6951
-22.3472
-22.0257
-21.9686
-21.9339
-21.926
-21.7404
-21.553
-21.4275
-21.1019
-20.7799
-20.6576
-20.4949
-20.3423
-20.3307
-20.3139
-20.3031
-20.1697
-20.0313
-19.9325
-19.713
-19.497
-19.3961
-19.279
-19.1691
-19.1182
-19.0695
-19.0336
-19.0035
-19.0091
-19.0802
-19.3365
-19.7127
-20.075
-20.7417
-21.5543
-21.8736
-21.9167
-21.8827
-21.8535
-34.8631
-33.5845
-32.5276
-30.5511
-28.7702
-28.1218
-27.2764
-26.5093
-26.4496
-26.3467
-26.3766
-25.8982
-25.4746
-25.3167
-24.5803
-23.8629
-23.73
-23.4159
-23.0957
-23.1738
-23.1978
-23.2832
-23.0293
-22.8009
-22.7388
-22.3139
-21.9195
-21.9253
-21.9144
-21.9686
-21.7437
-21.5401
-21.4713
-21.0806
-20.6945
-20.6233
-20.4482
-20.2655
-20.2973
-20.2951
-20.3227
-20.1612
-20.0091
-19.9427
-19.6814
-19.4255
-19.3492
-19.2232
-19.0963
-19.0556
-19.0019
-18.9611
-18.9141
-18.9006
-18.9399
-19.2228
-19.6477
-19.9666
-20.7346
-21.7676
-22.0666
-22.0473
-21.9721
-21.9247
-35.6946
-33.9878
-33.0306
-30.6366
-28.5124
-28.1076
-27.1802
-26.2583
-26.3885
-26.3087
-26.5084
-25.9036
-25.4292
-25.4516
-24.5439
-23.6606
-23.691
-23.3396
-22.9295
-23.1282
-23.1688
-23.3622
-23.027
-22.7646
-22.8153
-22.2791
-21.7796
-21.8854
-21.8895
-22.0362
-21.7448
-21.5149
-21.544
-21.0597
-20.5826
-20.6004
-20.4043
-20.1714
-20.2687
-20.2743
-20.3595
-20.1522
-19.9796
-19.9711
-19.6507
-19.3399
-19.3091
-19.1699
-19.0185
-18.9971
-18.936
-18.8923
-18.8254
-18.7918
-18.7822
-19.1003
-19.5956
-19.8199
-20.7025
-22.0421
-22.2818
-22.1776
-22.055
-21.9882
-36.6399
-34.3083
-33.6374
-30.6946
-28.1152
-28.1394
-27.0877
-25.9259
-26.3483
-26.2481
-26.705
-25.8973
-25.3425
-25.662
-24.507
-23.3872
-23.6869
-23.2717
-22.7172
-23.0983
-23.1277
-23.4841
-23.0184
-22.7027
-22.9398
-22.2426
-21.5927
-21.856
-21.8533
-22.1391
-21.7405
-21.4683
-21.6586
-21.0391
-20.4322
-20.5972
-20.3655
-20.0526
-20.2492
-20.2475
-20.4205
-20.1405
-19.9372
-20.0255
-19.6204
-19.2335
-19.2801
-19.12
-18.9327
-18.9445
-18.8714
-18.8285
-18.7376
-18.6854
-18.6026
-18.9676
-19.5693
-19.6217
-20.6318
-22.4009
-22.518
-22.3039
-22.1293
-22.0431
-37.7311
-34.4825
-34.3997
-30.7209
-27.5265
-28.2556
-27.0078
-25.4811
-26.3513
-26.1456
-26.9943
-25.8711
-25.1896
-25.9814
-24.4689
-23.012
-23.7402
-23.2178
-22.4392
-23.0976
-23.0624
-23.6665
-22.9982
-22.5992
-23.1337
-22.2039
-21.3408
-21.849
-21.7957
-22.2924
-21.7264
-21.3867
-21.833
-21.0184
-20.2266
-20.6258
-20.3348
-19.8981
-20.2464
-20.208
-20.515
-20.1232
-19.8732
-20.1171
-19.59
-19.0969
-19.2689
-19.0744
-18.8347
-18.901
-18.8072
-18.7714
-18.6506
-18.5861
-18.3949
-18.8217
-19.588
-19.3553
-20.5034
-22.8766
-22.7707
-22.4216
-22.1933
-22.0886
-39.0133
-34.4179
-35.3921
-30.7104
-26.6758
-28.5112
-26.9517
-24.8799
-26.4327
-25.9707
-27.4155
-25.8138
-24.9356
-26.4556
-24.4283
-22.4929
-23.8825
-23.185
-22.0679
-23.1477
-22.9533
-23.9343
-22.9591
-22.4319
-23.4265
-22.1621
-20.9993
-21.8832
-21.7005
-22.5169
-21.6963
-21.2511
-22.0922
-20.9969
-19.9426
-20.7036
-20.3161
-19.6928
-20.272
-20.145
-20.6566
-20.0964
-19.776
-20.2612
-19.5585
-18.9176
-19.285
-19.0341
-18.7185
-18.8711
-18.7417
-18.7229
-18.5632
-18.5002
-18.1508
-18.6573
-19.6788
-18.9993
-20.2909
-23.5133
-23.0305
-22.5254
-22.2454
-22.1244
-40.5479
-33.9837
-36.7201
-30.6568
-25.4685
-28.9828
-26.9324
-24.062
-26.6451
-25.676
-28.0224
-25.7105
-24.5321
-27.147
-24.3834
-21.7736
-24.1584
-23.1818
-21.5656
-23.2806
-22.7705
-24.3214
-22.8918
-22.17
-23.8579
-22.1152
-20.5354
-21.9872
-21.5427
-22.8413
-21.6423
-21.0354
-22.4698
-20.9736
-19.5494
-20.8549
-20.3141
-19.4158
-20.3436
-20.0421
-20.8639
-20.0546
-19.629
-20.4786
-19.5242
-18.6785
-19.3418
-19
-18.576
-18.8613
-18.6716
-18.686
-18.4731
-18.4372
-17.86
-18.4655
-19.8795
-18.5264
-19.9582
-24.3706
-23.2809
-22.6096
-22.2844
-22.1505
-42.4184
-32.9991
-38.5293
-30.5518
-23.7801
-29.7745
-26.9641
-22.9454
-27.0655
-25.1914
-28.8885
-25.5423
-23.9138
-28.1379
-24.3311
-20.7794
-24.6281
-23.218
-20.881
-23.5439
-22.4696
-24.8744
-22.7841
-21.772
-24.4808
-22.0604
-19.9058
-22.2026
-21.2851
-23.3047
-21.5545
-20.704
-23.0107
-20.9469
-19.0059
-21.1127
-20.334
-19.039
-20.4873
-19.8749
-21.1621
-19.9912
-19.4103
-20.7972
-19.4848
-18.3573
-19.4576
-18.9724
-18.3962
-18.8811
-18.592
-18.6647
-18.3762
-18.41
-17.5091
-18.2325
-20.2409
-17.9031
-19.4574
-25.528
-23.4953
-22.6688
-22.31
-22.1671
-44.7359
-31.2201
-41.0167
-30.3836
-21.4492
-31.0249
-27.0623
-21.421
-27.8028
-24.4162
-30.1115
-25.285
-22.9943
-29.5359
-24.2666
-19.4134
-25.3718
-23.3045
-19.9458
-24.0046
-21.987
-25.6552
-22.6204
-21.1825
-25.3639
-21.9928
-19.0537
-22.588
-20.8741
-23.9588
-21.4196
-20.2096
-23.7727
-20.914
-18.2584
-21.5203
-20.3813
-18.5239
-20.7392
-19.6079
-21.5842
-19.8964
-19.0897
-21.2521
-19.4354
-17.9237
-19.6557
-18.9494
-18.1629
-18.9414
-18.4938
-18.6625
-18.2633
-18.4339
-17.08
-17.9351
-20.827
-17.0853
-18.7219
-27.0857
-23.6296
-22.6954
-22.3185
-22.1712
)
;

boundaryField
{
    left
    {
        type            calculated;
        value           nonuniform List<scalar> 
32
(
-27.5091
-27.5365
-27.589
-27.6643
-27.7609
-27.8776
-28.0138
-28.1692
-28.3437
-28.5376
-28.7514
-28.9859
-29.2422
-29.5216
-29.8258
-30.1565
-30.5161
-30.9069
-31.332
-31.7947
-32.2991
-32.8504
-33.4552
-34.1221
-34.8631
-35.6946
-36.6399
-37.7311
-39.0133
-40.5479
-42.4184
-44.7359
)
;
    }
    right
    {
        type            calculated;
        value           nonuniform List<scalar> 
32
(
-20.5128
-20.5188
-20.5304
-20.5474
-20.5696
-20.597
-20.6298
-20.6679
-20.7115
-20.7606
-20.8154
-20.8758
-20.9417
-21.0128
-21.0888
-21.1692
-21.2533
-21.3401
-21.4288
-21.5181
-21.6067
-21.693
-21.7758
-21.8535
-21.9247
-21.9882
-22.0431
-22.0886
-22.1244
-22.1505
-22.1671
-22.1712
)
;
    }
    interface
    {
        type            calculated;
        value           nonuniform List<scalar> 
64
(
-46.0222
-30.0971
-42.4581
-30.282
-20.1003
-31.7844
-27.1299
-20.5413
-28.2666
-23.9411
-30.8263
-25.1307
-22.4471
-30.3519
-24.2307
-18.6237
-25.8236
-23.3617
-19.4058
-24.2941
-21.6909
-26.1113
-22.5224
-20.832
-25.8802
-21.9551
-18.5639
-22.8318
-20.6223
-24.341
-21.3385
-19.9149
-24.217
-20.8955
-17.826
-21.7676
-20.4125
-18.2263
-20.8974
-19.4441
-21.8309
-19.8397
-18.8995
-21.5185
-19.4074
-17.6743
-19.7784
-18.9387
-18.0304
-18.9832
-18.4385
-18.6666
-18.2013
-18.4606
-16.8431
-17.7665
-21.185
-16.6215
-18.2857
-27.9784
-23.6697
-22.6993
-22.3176
-22.1693
)
;
    }
    bottom
    {
        type            calculated;
        value           nonuniform List<scalar> 
64
(
-27.502
-27.4684
-27.4021
-27.3052
-27.1804
-27.0308
-26.86
-26.6716
-26.4691
-26.2556
-26.0342
-25.8073
-25.5773
-25.3461
-25.1153
-24.8864
-24.6606
-24.4386
-24.2212
-24.0088
-23.8018
-23.6002
-23.404
-23.2132
-23.0278
-22.8476
-22.6725
-22.5025
-22.3374
-22.1774
-22.0224
-21.8725
-21.7277
-21.5883
-21.4544
-21.3263
-21.2041
-21.0881
-20.9785
-20.8756
-20.7796
-20.6907
-20.6092
-20.5355
-20.47
-20.4129
-20.3646
-20.3253
-20.2953
-20.2746
-20.2632
-20.2606
-20.2664
-20.2798
-20.2997
-20.3247
-20.3534
-20.384
-20.4146
-20.4435
-20.4689
-20.4895
-20.5038
-20.5112
)
;
    }
    defaultFaces
    {
        type            empty;
    }
}


// ************************************************************************* //
