/*--------------------------------*- C++ -*----------------------------------*\
| =========                 |                                                 |
| \\      /  F ield         | OpenFOAM: The Open Source CFD Toolbox           |
|  \\    /   O peration     | Version:  5.x                                   |
|   \\  /    A nd           | Web:      www.OpenFOAM.org                      |
|    \\/     M anipulation  |                                                 |
\*---------------------------------------------------------------------------*/
FoamFile
{
    version     2.0;
    format      ascii;
    class       volScalarField;
    location    "3.0999";
    object      T;
}
// * * * * * * * * * * * * * * * * * * * * * * * * * * * * * * * * * * * * * //

dimensions      [0 0 0 1 0 0 0];

internalField   nonuniform List<scalar> 
2048
(
9.80242
9.80266
9.80314
9.80383
9.80473
9.8058
9.80703
9.80838
9.80984
9.81137
9.81296
9.81459
9.81625
9.81791
9.81956
9.82121
9.82283
9.82443
9.82599
9.82751
9.829
9.83045
9.83186
9.83323
9.83456
9.83586
9.83711
9.83834
9.83952
9.84067
9.84179
9.84286
9.8439
9.8449
9.84587
9.84679
9.84766
9.8485
9.84928
9.85002
9.85071
9.85135
9.85194
9.85247
9.85294
9.85335
9.8537
9.85398
9.85419
9.85434
9.85442
9.85444
9.8544
9.8543
9.85416
9.85398
9.85378
9.85356
9.85334
9.85313
9.85295
9.8528
9.85269
9.85264
9.4157
9.41642
9.41783
9.41991
9.42258
9.42578
9.42943
9.43345
9.43777
9.44232
9.44704
9.45187
9.45677
9.46169
9.4666
9.47146
9.47627
9.48099
9.48561
9.49012
9.49452
9.4988
9.50296
9.50702
9.51095
9.51478
9.5185
9.52211
9.52561
9.52901
9.53231
9.53549
9.53857
9.54153
9.54437
9.5471
9.54969
9.55216
9.55448
9.55667
9.55871
9.5606
9.56234
9.5639
9.5653
9.56651
9.56754
9.56837
9.56901
9.56945
9.56969
9.56974
9.56961
9.56932
9.56889
9.56835
9.56773
9.56707
9.56641
9.56579
9.56524
9.5648
9.56449
9.56433
9.04534
9.04654
9.04889
9.05233
9.05675
9.06203
9.06805
9.07468
9.0818
9.08928
9.09703
9.10496
9.11299
9.12106
9.1291
9.13707
9.14492
9.15264
9.16019
9.16756
9.17475
9.18174
9.18854
9.19515
9.20158
9.20783
9.2139
9.21979
9.22551
9.23106
9.23644
9.24164
9.24667
9.25151
9.25616
9.26061
9.26485
9.26888
9.27268
9.27626
9.2796
9.28269
9.28552
9.28809
9.29037
9.29236
9.29404
9.29541
9.29645
9.29717
9.29756
9.29763
9.29741
9.29691
9.29619
9.29527
9.29423
9.29312
9.29201
9.29096
9.29004
9.28929
9.28877
9.2885
8.69036
8.69203
8.69533
8.70014
8.70631
8.71368
8.72206
8.73127
8.74113
8.75149
8.76221
8.77315
8.78423
8.79534
8.80641
8.81737
8.82817
8.83877
8.84913
8.85924
8.86909
8.87868
8.888
8.89706
8.90586
8.91442
8.92274
8.93082
8.93866
8.94626
8.95364
8.96077
8.96766
8.97431
8.98068
8.98679
8.99261
8.99814
9.00337
9.00828
9.01286
9.01711
9.021
9.02453
9.02767
9.03041
9.03273
9.03461
9.03604
9.03702
9.03754
9.03763
9.03729
9.03658
9.03554
9.03423
9.03274
9.03115
9.02957
9.02807
9.02674
9.02568
9.02494
9.02455
8.34984
8.35201
8.35627
8.36249
8.37045
8.37993
8.39068
8.40247
8.41506
8.42825
8.44188
8.45578
8.46982
8.48389
8.4979
8.51175
8.52539
8.53877
8.55183
8.56457
8.57698
8.58904
8.60076
8.61216
8.62324
8.634
8.64446
8.65463
8.66449
8.67407
8.68335
8.69234
8.70102
8.70939
8.71743
8.72513
8.73247
8.73944
8.74603
8.75222
8.75801
8.76337
8.76829
8.77274
8.77672
8.78019
8.78312
8.7855
8.78731
8.78854
8.78918
8.78926
8.78879
8.78784
8.78645
8.78472
8.78275
8.78065
8.77854
8.77656
8.77481
8.7734
8.77241
8.77191
8.02295
8.02564
8.03092
8.03859
8.0484
8.06004
8.0732
8.08758
8.10289
8.11891
8.1354
8.1522
8.16914
8.18611
8.20297
8.21963
8.23602
8.25206
8.26773
8.28299
8.29783
8.31226
8.32628
8.33991
8.35315
8.36602
8.37853
8.39069
8.40249
8.41395
8.42506
8.43582
8.44622
8.45625
8.46589
8.47512
8.48392
8.49228
8.50018
8.5076
8.51454
8.52098
8.52689
8.53225
8.53704
8.54121
8.54475
8.54762
8.54979
8.55126
8.55201
8.55206
8.55145
8.55023
8.54846
8.54627
8.54377
8.5411
8.53843
8.53591
8.5337
8.53191
8.53066
8.53002
7.70894
7.71218
7.71853
7.72773
7.73946
7.75333
7.76896
7.78596
7.80401
7.82283
7.84217
7.86182
7.88161
7.9014
7.92104
7.94043
7.95948
7.9781
7.99627
8.01394
8.03112
8.0478
8.06401
8.07976
8.09507
8.10996
8.12442
8.13848
8.15213
8.16539
8.17825
8.19072
8.20277
8.21439
8.22557
8.23627
8.24647
8.25617
8.26533
8.27394
8.28199
8.28947
8.29634
8.30258
8.30816
8.31303
8.31716
8.32051
8.32304
8.32473
8.32558
8.3256
8.32482
8.32329
8.32111
8.31841
8.31532
8.31204
8.30874
8.30564
8.3029
8.3007
8.29916
8.29837
7.4071
7.41093
7.41842
7.42925
7.443
7.45919
7.47735
7.49703
7.51784
7.53945
7.5616
7.58407
7.60666
7.6292
7.65156
7.67361
7.69523
7.71635
7.73691
7.7569
7.7763
7.79514
7.81343
7.83121
7.84849
7.86529
7.88162
7.89749
7.91291
7.92789
7.94243
7.95653
7.97017
7.98333
7.99598
8.0081
8.01966
8.03064
8.04101
8.05077
8.05989
8.06837
8.07618
8.08328
8.08963
8.09519
8.09991
8.10373
8.10661
8.10853
8.10947
8.10943
8.10845
8.1066
8.10397
8.1007
8.09697
8.093
8.08901
8.08526
8.08195
8.07929
8.07743
8.07648
7.11676
7.12123
7.12996
7.14253
7.15842
7.17705
7.19782
7.22023
7.24382
7.26823
7.29317
7.31841
7.34375
7.369
7.39401
7.41864
7.44276
7.46629
7.48916
7.51135
7.53288
7.55377
7.57405
7.59375
7.61291
7.63153
7.64964
7.66724
7.68435
7.70097
7.71712
7.73278
7.74795
7.76259
7.77668
7.79017
7.80303
7.81524
7.82678
7.83763
7.84779
7.85725
7.86596
7.8739
7.88102
7.88726
7.89255
7.89684
7.90007
7.90221
7.90323
7.90313
7.90194
7.89973
7.8966
7.89271
7.88828
7.88355
7.8788
7.87431
7.87037
7.86721
7.865
7.86387
6.83731
6.84248
6.85255
6.86701
6.88519
6.90637
6.92987
6.95506
6.98146
7.00866
7.03636
7.06433
7.09237
7.12027
7.14788
7.17503
7.20158
7.22743
7.25251
7.27682
7.30037
7.3232
7.34536
7.3669
7.38784
7.40821
7.42801
7.44727
7.46598
7.48417
7.50186
7.51902
7.53566
7.55174
7.5672
7.58202
7.59614
7.60954
7.62219
7.6341
7.64526
7.65565
7.66525
7.67401
7.68188
7.68879
7.69467
7.69943
7.70302
7.70537
7.70647
7.7063
7.70488
7.70228
7.69861
7.69405
7.68884
7.68327
7.67767
7.67238
7.66774
7.66402
7.66143
7.6601
6.56816
6.57411
6.58566
6.60216
6.62279
6.64668
6.673
6.70105
6.73027
6.76025
6.79068
6.82134
6.85202
6.88254
6.91269
6.9423
6.9712
6.99929
7.0265
7.05282
7.07828
7.10296
7.1269
7.15018
7.17283
7.19486
7.21628
7.23711
7.25735
7.27705
7.2962
7.31481
7.33287
7.35033
7.36713
7.38323
7.39856
7.4131
7.42683
7.43976
7.45187
7.46317
7.47363
7.4832
7.49182
7.4994
7.50585
7.51109
7.51503
7.51761
7.51879
7.51853
7.51687
7.51386
7.50961
7.50432
7.49826
7.49176
7.48522
7.47905
7.47363
7.4693
7.46629
7.46475
6.30878
6.31559
6.32877
6.3475
6.37077
6.39752
6.42678
6.45774
6.48981
6.52255
6.55568
6.58897
6.62225
6.65532
6.68796
6.71998
6.75118
6.78143
6.81068
6.83891
6.86618
6.89259
6.91823
6.94316
6.96743
6.99104
7.01401
7.03634
7.05804
7.07916
7.09972
7.11972
7.13915
7.15795
7.17606
7.19339
7.2099
7.22553
7.24029
7.25418
7.26721
7.27939
7.29068
7.30105
7.31041
7.31867
7.32571
7.33143
7.33573
7.33854
7.3398
7.33946
7.33755
7.3341
7.32923
7.32315
7.31616
7.30864
7.30106
7.29391
7.28765
7.28266
7.2792
7.27743
6.05863
6.06641
6.08139
6.10257
6.12869
6.15848
6.1908
6.22474
6.25965
6.29513
6.33089
6.36677
6.4026
6.43817
6.47326
6.50763
6.54107
6.57342
6.60461
6.63465
6.66363
6.69167
6.7189
6.7454
6.77121
6.79634
6.82079
6.84454
6.86763
6.8901
6.912
6.93334
6.95409
6.9742
6.99357
7.01211
7.02975
7.04644
7.06218
7.07699
7.0909
7.10392
7.11603
7.12718
7.13729
7.14622
7.15385
7.16007
7.16474
7.16779
7.16913
7.16872
7.16654
7.16264
7.15712
7.15019
7.14219
7.13356
7.12484
7.1166
7.10941
7.1037
7.09976
7.09776
5.81723
5.82608
5.84307
5.86695
5.89617
5.92918
5.96468
6.00165
6.03941
6.07756
6.11591
6.15431
6.19262
6.23065
6.26815
6.30484
6.34046
6.37483
6.40787
6.43962
6.4702
6.49977
6.5285
6.55648
6.58377
6.61036
6.63621
6.66132
6.68572
6.70947
6.73265
6.75527
6.77732
6.7987
6.81931
6.83902
6.85775
6.87545
6.89212
6.9078
6.92255
6.93638
6.94929
6.96122
6.97206
6.98168
6.98992
6.99663
7.00169
7.00498
7.00642
7.00594
7.00351
6.99914
6.99293
6.98511
6.97602
6.96616
6.95618
6.94676
6.93855
6.93208
6.92763
6.92539
5.58409
5.59416
5.6134
5.64026
5.67283
5.70927
5.74807
5.78811
5.8287
5.86947
5.91031
5.95115
5.9919
6.03234
6.07222
6.1112
6.14894
6.18526
6.22007
6.25342
6.28548
6.31648
6.34661
6.37601
6.40471
6.43269
6.4599
6.48629
6.51193
6.53689
6.56129
6.58515
6.60844
6.63107
6.65289
6.67375
6.69354
6.7122
6.72976
6.74626
6.76179
6.77641
6.7901
6.8028
6.81438
6.8247
6.83355
6.84077
6.84623
6.84978
6.85133
6.85079
6.8481
6.84327
6.83635
6.82757
6.8173
6.80612
6.79475
6.78402
6.77472
6.76743
6.76247
6.75997
5.35877
5.37022
5.39198
5.42213
5.45834
5.49841
5.54063
5.58379
5.62716
5.67046
5.7137
5.75691
5.80002
5.84284
5.88507
5.92631
5.96614
6.00435
6.04084
6.07568
6.1091
6.1414
6.17286
6.20359
6.23364
6.26298
6.29149
6.31911
6.3459
6.372
6.39755
6.4226
6.44711
6.47097
6.49399
6.51596
6.53677
6.55636
6.57474
6.59201
6.60829
6.62365
6.6381
6.65156
6.66391
6.67492
6.6844
6.69216
6.69801
6.70184
6.70351
6.70293
6.70001
6.69471
6.68706
6.67727
6.66575
6.65313
6.64024
6.62807
6.61759
6.60944
6.60395
6.6012
5.14082
5.15384
5.17842
5.21223
5.2524
5.29632
5.34207
5.38836
5.43444
5.48017
5.5257
5.57118
5.6166
5.66176
5.70633
5.74981
5.79169
5.83172
5.8698
5.90601
5.94067
5.97417
6.00686
6.03886
6.07022
6.10087
6.13064
6.15941
6.18728
6.21443
6.24108
6.26727
6.29297
6.31805
6.34226
6.36533
6.38713
6.4076
6.42675
6.44473
6.4617
6.47777
6.49297
6.50719
6.52029
6.53204
6.54216
6.55045
6.55673
6.56084
6.56265
6.56204
6.55891
6.55315
6.54477
6.53393
6.52107
6.50689
6.49233
6.47859
6.46682
6.45779
6.45177
6.44878
4.92983
4.94463
4.97238
5.01024
5.05473
5.1027
5.15209
5.20151
5.25023
5.29824
5.34592
5.3936
5.44126
5.4887
5.53562
5.58134
5.62524
5.66702
5.7066
5.74407
5.77984
5.81442
5.84825
5.88147
5.91408
5.94602
5.97702
6.00688
6.03573
6.06386
6.09154
6.11884
6.1457
6.17199
6.19739
6.22154
6.2443
6.2656
6.28546
6.30408
6.32169
6.33845
6.35437
6.36935
6.38323
6.39572
6.40649
6.41534
6.42205
6.42646
6.42843
6.42782
6.4245
6.41831
6.40918
6.39725
6.38298
6.36713
6.35074
6.33524
6.32212
6.31218
6.30565
6.30244
4.7254
4.74223
4.77353
4.8159
4.86507
4.91729
4.9704
5.02297
5.07419
5.12434
5.17401
5.22378
5.27362
5.32332
5.37259
5.42058
5.46644
5.50993
5.55093
5.58952
5.62625
5.66179
5.69669
5.73106
5.7649
5.79812
5.83032
5.8612
5.89095
5.91996
5.94862
5.97697
6.00497
6.03249
6.05908
6.08429
6.10798
6.13007
6.15058
6.16978
6.18796
6.20538
6.22201
6.23774
6.25242
6.26568
6.27712
6.28652
6.29368
6.2984
6.30054
6.29997
6.29649
6.28989
6.28004
6.26698
6.25122
6.23357
6.21517
6.19775
6.18316
6.17233
6.16532
6.16192
4.52712
4.54629
4.58154
4.62893
4.68319
4.73984
4.79676
4.85245
4.90604
4.95811
5.0096
5.06137
5.11334
5.16523
5.2169
5.2672
5.31498
5.36012
5.40246
5.44204
5.47958
5.51594
5.55184
5.58733
5.62234
5.65685
5.69026
5.72208
5.75261
5.78241
5.81199
5.84138
5.87048
5.89924
5.92704
5.95329
5.97788
6.00073
6.02182
6.04151
6.06021
6.07825
6.09559
6.11207
6.12757
6.14162
6.15373
6.16371
6.17133
6.17637
6.1787
6.17819
6.17459
6.16764
6.15707
6.14286
6.12553
6.10599
6.08538
6.06579
6.04967
6.03796
6.03054
6.02698
4.33462
4.3565
4.39611
4.4491
4.50892
4.57011
4.6309
4.68971
4.74547
4.79924
4.85233
4.90604
4.96007
5.0141
5.06823
5.1209
5.17055
5.21728
5.26091
5.30131
5.3395
5.37654
5.41339
5.44995
5.48609
5.52192
5.55657
5.58924
5.62044
5.6509
5.68137
5.71175
5.74192
5.77196
5.80102
5.82827
5.85374
5.87732
5.8989
5.919
5.93815
5.9568
5.97482
5.99204
6.0084
6.02329
6.03607
6.04663
6.05472
6.06008
6.06263
6.0622
6.05854
6.05128
6.04004
6.02464
6.00568
5.98415
5.96111
5.93909
5.92135
5.90882
5.90107
5.89741
4.1475
4.17255
4.21694
4.27619
4.34208
4.40785
4.47256
4.5345
4.5922
4.64742
4.70187
4.75746
4.81351
4.86956
4.92626
4.98142
5.03284
5.08111
5.12599
5.16705
5.20571
5.24326
5.28103
5.31865
5.35584
5.39307
5.42899
5.46242
5.49416
5.52515
5.55647
5.58783
5.619
5.65038
5.68077
5.70896
5.73529
5.75957
5.78156
5.80199
5.82149
5.84074
5.85945
5.87737
5.89464
5.91042
5.92387
5.93501
5.94359
5.94927
5.95204
5.95173
5.94806
5.94056
5.9287
5.91209
5.89142
5.86785
5.84213
5.81735
5.79792
5.78468
5.7767
5.773
3.96541
3.99419
4.04372
4.11
4.18254
4.25283
4.3215
4.38662
4.44594
4.50233
4.55783
4.61531
4.67336
4.73126
4.7907
4.84851
4.90155
4.95134
4.99745
5.03896
5.07791
5.11579
5.15448
5.19313
5.23128
5.27001
5.30731
5.34135
5.37349
5.40486
5.43704
5.46934
5.50143
5.53424
5.56604
5.59512
5.62228
5.64727
5.66955
5.6902
5.70997
5.72983
5.74923
5.76781
5.78605
5.80278
5.81687
5.82859
5.83768
5.84368
5.84668
5.84652
5.8429
5.83523
5.82283
5.80498
5.78252
5.75692
5.72824
5.70025
5.67911
5.66529
5.65724
5.65356
3.78795
3.82124
3.87615
3.95035
4.03025
4.10478
4.17745
4.24588
4.30642
4.36369
4.41987
4.47932
4.53936
4.59883
4.66126
4.72197
4.77637
4.82766
4.87507
4.91676
4.95583
4.9938
5.03347
5.07317
5.11211
5.1525
5.19133
5.2258
5.25819
5.28973
5.32281
5.35607
5.38892
5.4233
5.45666
5.48647
5.51446
5.5402
5.56263
5.58341
5.60332
5.62382
5.64392
5.66308
5.68238
5.70016
5.71482
5.72714
5.73677
5.74305
5.7463
5.74631
5.74281
5.73506
5.72222
5.70308
5.67876
5.65119
5.61926
5.58748
5.56465
5.55047
5.5425
5.53893
3.61473
3.65357
3.71386
3.79708
3.88519
3.9634
4.04015
4.11214
4.17335
4.23122
4.2876
4.34921
4.41128
4.47188
4.53765
4.60163
4.657
4.7098
4.75865
4.80019
4.8392
4.87695
4.91775
4.95853
4.99799
5.04029
5.08089
5.11552
5.14802
5.17947
5.21356
5.24779
5.28117
5.31732
5.35243
5.38276
5.4116
5.43816
5.46056
5.48139
5.50127
5.52249
5.54331
5.56291
5.5834
5.60235
5.61748
5.63041
5.64063
5.64715
5.65065
5.65085
5.64754
5.63982
5.62668
5.6062
5.57988
5.55055
5.51503
5.4787
5.45428
5.44002
5.43231
5.42893
3.44534
3.49116
3.55645
3.65005
3.74742
3.82834
3.90931
3.98528
4.04642
4.1047
4.1606
4.22474
4.28895
4.34998
4.41963
4.48738
4.5431
4.59747
4.64803
4.68896
4.7278
4.76493
4.8071
4.84904
4.8886
4.93315
4.97585
5.01027
5.04277
5.07378
5.10907
5.14433
5.17787
5.21608
5.25322
5.28374
5.31345
5.34098
5.36311
5.38391
5.40355
5.42564
5.44723
5.46705
5.48891
5.5092
5.52461
5.53817
5.54905
5.55573
5.55951
5.55991
5.55687
5.54926
5.53602
5.51411
5.48562
5.4549
5.41544
5.37353
5.34776
5.33376
5.32652
5.32342
3.2793
3.33413
3.40343
3.50911
3.61714
3.69919
3.78465
3.86528
3.92529
3.98392
4.03844
4.10571
4.17224
4.23265
4.30694
4.37919
4.43431
4.4904
4.5431
4.58278
4.62141
4.65736
4.7013
4.74454
4.78354
4.83086
4.87615
4.90979
4.94225
4.97234
5.00916
5.04555
5.07867
5.11936
5.15894
5.18912
5.21979
5.24854
5.27003
5.2908
5.30989
5.33306
5.3555
5.37519
5.39868
5.42055
5.43597
5.45021
5.46184
5.46857
5.47265
5.47326
5.47057
5.46316
5.45011
5.42664
5.39568
5.36422
5.32042
5.27154
5.24485
5.23156
5.225
5.22225
3.11609
3.18279
3.25416
3.37414
3.49465
3.57541
3.66582
3.75219
3.80957
3.86875
3.92058
3.99195
4.06113
4.11934
4.19934
4.27712
4.33019
4.38828
4.4438
4.48133
4.5199
4.55385
4.60019
4.64496
4.68241
4.73321
4.78174
4.81381
4.84633
4.87479
4.91365
4.95135
4.98319
5.02696
5.06954
5.09859
5.13038
5.16072
5.18109
5.20191
5.22
5.2446
5.26801
5.28705
5.31254
5.3363
5.3513
5.3663
5.37885
5.38543
5.38987
5.39066
5.38843
5.38129
5.36879
5.3436
5.30971
5.2785
5.22997
5.17222
5.14537
5.13329
5.12761
5.12528
2.95508
3.03773
3.10782
3.24504
3.38046
3.45633
3.55249
3.6462
3.69878
3.75916
3.80643
3.88333
3.9557
4.00936
4.0966
4.18135
4.23025
4.29082
4.35018
4.38424
4.42316
4.45395
4.50361
4.55027
4.58471
4.64
4.69268
4.72199
4.7549
4.78074
4.8224
4.8617
4.89102
4.93869
4.98505
5.01183
5.045
5.07748
5.096
5.1171
5.13356
5.16009
5.18467
5.20228
5.23029
5.25638
5.27034
5.28624
5.29994
5.3061
5.31098
5.3119
5.31025
5.30339
5.29197
5.26484
5.22731
5.19782
5.14416
5.07495
5.04915
5.03884
5.03424
5.03238
2.79553
2.89986
2.96334
3.1217
3.27529
3.34108
3.44428
3.54762
3.59231
3.65525
3.69527
3.77976
3.85614
3.90193
3.99854
4.09218
4.13389
4.1977
4.26237
4.29107
4.33121
4.35714
4.41146
4.46055
4.48988
4.55104
4.60909
4.63394
4.66794
4.68973
4.7353
4.77665
4.80163
4.85437
4.90559
4.92842
4.96339
4.99883
5.01446
5.03631
5.05022
5.0794
5.10544
5.12052
5.15177
5.18078
5.19279
5.20984
5.22498
5.23032
5.23581
5.23676
5.23584
5.22921
5.21957
5.19023
5.14797
5.1223
5.06316
4.97901
4.95609
4.94814
4.94476
4.94342
2.63651
2.77055
2.81932
3.00406
3.18014
3.22856
3.34079
3.45698
3.48937
3.55731
3.58623
3.68122
3.76282
3.79605
3.90494
4.01012
4.04039
4.1086
4.18062
4.20126
4.24416
4.26281
4.32366
4.37598
4.39723
4.46616
4.53121
4.54917
4.58555
4.60123
4.65228
4.69633
4.71443
4.77383
4.83135
4.84792
4.88532
4.92484
4.9361
4.95955
4.96959
5.00245
5.03036
5.04133
5.07682
5.10954
5.11831
5.13689
5.15391
5.15784
5.16421
5.16502
5.16504
5.15846
5.15155
5.11968
5.07107
5.05215
4.98725
4.88348
4.86617
4.86113
4.85908
4.85827
2.47686
2.65171
2.67391
2.89205
3.09638
3.11736
3.2416
3.37504
3.38892
3.46585
3.47822
3.58775
3.67633
3.69052
3.81564
3.93589
3.94882
4.02319
4.10535
4.11413
4.16229
4.17023
4.24019
4.29686
4.30593
4.38521
4.45941
4.46707
4.50792
4.5146
4.57328
4.62099
4.62872
4.69691
4.76267
4.76975
4.81055
4.85568
4.86048
4.8869
4.89119
4.92913
4.95952
4.96423
5.0053
5.04276
5.04654
5.06723
5.08669
5.0884
5.09605
5.09646
5.0977
5.09083
5.08793
5.05316
4.99586
4.98767
4.91686
4.78724
4.7795
4.77775
4.77707
4.7768
)
;

boundaryField
{
    left
    {
        type            zeroGradient;
    }
    right
    {
        type            zeroGradient;
    }
    interface
    {
        type            fixedValue;
        value           nonuniform List<scalar> 
64
(
2.3942
2.59765
2.59765
2.83766
3.06027
3.06027
3.19287
3.33815
3.33815
3.42285
3.42285
3.54261
3.63601
3.63601
3.77212
3.90244
3.90244
3.98123
4.07049
4.07049
4.12333
4.12333
4.19974
4.25945
4.25945
4.34578
4.42606
4.42606
4.47088
4.47088
4.53495
4.58522
4.58522
4.65938
4.73066
4.73066
4.77389
4.82295
4.82295
4.85198
4.85198
4.8935
4.92558
4.92558
4.97045
5.01102
5.01102
5.03321
5.0543
5.0543
5.06293
5.06293
5.06501
5.05767
5.05767
5.02125
4.95781
4.95781
4.88402
4.73698
4.73698
4.73698
4.73698
4.73698
)
;
    }
    bottom
    {
        type            fixedValue;
        value           uniform 10;
    }
    defaultFaces
    {
        type            empty;
    }
}


// ************************************************************************* //
