/*--------------------------------*- C++ -*----------------------------------*\
| =========                 |                                                 |
| \\      /  F ield         | OpenFOAM: The Open Source CFD Toolbox           |
|  \\    /   O peration     | Version:  5.x                                   |
|   \\  /    A nd           | Web:      www.OpenFOAM.org                      |
|    \\/     M anipulation  |                                                 |
\*---------------------------------------------------------------------------*/
FoamFile
{
    version     2.0;
    format      ascii;
    class       volScalarField;
    location    "0.6999";
    object      gradTy;
}
// * * * * * * * * * * * * * * * * * * * * * * * * * * * * * * * * * * * * * //

dimensions      [0 -1 0 1 0 0 0];

internalField   nonuniform List<scalar> 
2048
(
-27.7951
-27.764
-27.7029
-27.6138
-27.4993
-27.3627
-27.2074
-27.0372
-26.8553
-26.6649
-26.4691
-26.2701
-26.0704
-25.8717
-25.6756
-25.4835
-25.2965
-25.1153
-24.9407
-24.7729
-24.6123
-24.4589
-24.3127
-24.1736
-24.0416
-23.9164
-23.7978
-23.6858
-23.5802
-23.4808
-23.3875
-23.3004
-23.2194
-23.1444
-23.0755
-23.0128
-22.9563
-22.9062
-22.8626
-22.8257
-22.7955
-22.7724
-22.7564
-22.7478
-22.7469
-22.7537
-22.7687
-22.7918
-22.823
-22.8624
-22.9096
-22.964
-23.0249
-23.0912
-23.1614
-23.2337
-23.3061
-23.3764
-23.4422
-23.5013
-23.5515
-23.591
-23.6182
-23.632
-27.82
-27.7881
-27.7254
-27.6341
-27.5169
-27.3775
-27.2194
-27.0463
-26.8618
-26.6691
-26.4712
-26.2705
-26.0692
-25.8692
-25.672
-25.479
-25.2913
-25.1096
-24.9346
-24.7666
-24.6059
-24.4525
-24.3063
-24.1673
-24.0354
-23.9103
-23.7918
-23.6799
-23.5743
-23.475
-23.3818
-23.2947
-23.2136
-23.1385
-23.0696
-23.0068
-22.9502
-22.9
-22.8563
-22.8192
-22.7889
-22.7655
-22.7493
-22.7405
-22.7394
-22.7461
-22.7609
-22.7839
-22.8153
-22.8549
-22.9025
-22.9576
-23.0194
-23.0868
-23.1583
-23.2323
-23.3065
-23.3786
-23.4464
-23.5072
-23.5589
-23.5996
-23.6276
-23.6419
-27.8677
-27.8342
-27.7684
-27.6727
-27.5505
-27.4055
-27.2418
-27.0634
-26.874
-26.6769
-26.475
-26.2709
-26.0667
-25.8642
-25.665
-25.4704
-25.2813
-25.0986
-24.923
-24.7546
-24.5937
-24.4403
-24.2942
-24.1554
-24.0237
-23.8988
-23.7805
-23.6688
-23.5633
-23.4641
-23.371
-23.2838
-23.2027
-23.1275
-23.0584
-22.9954
-22.9387
-22.8882
-22.8442
-22.8069
-22.7762
-22.7525
-22.736
-22.7268
-22.7252
-22.7316
-22.7462
-22.7691
-22.8005
-22.8405
-22.8889
-22.9451
-23.0086
-23.0782
-23.1525
-23.2295
-23.3072
-23.383
-23.4543
-23.5184
-23.5731
-23.6161
-23.6457
-23.6608
-27.9363
-27.9004
-27.8299
-27.7279
-27.5981
-27.4451
-27.2733
-27.0872
-26.8907
-26.6873
-26.48
-26.2711
-26.0629
-25.8569
-25.6548
-25.4578
-25.2669
-25.0829
-24.9064
-24.7375
-24.5764
-24.423
-24.2772
-24.1386
-24.0072
-23.8826
-23.7646
-23.6531
-23.5479
-23.4488
-23.3558
-23.2686
-23.1874
-23.1121
-23.0428
-22.9795
-22.9224
-22.8717
-22.8273
-22.7895
-22.7584
-22.7342
-22.7171
-22.7074
-22.7053
-22.7111
-22.7253
-22.748
-22.7795
-22.82
-22.8693
-22.9272
-22.993
-23.0657
-23.1438
-23.2254
-23.308
-23.3891
-23.4656
-23.5347
-23.5936
-23.6399
-23.6719
-23.6882
-28.0245
-27.9853
-27.9086
-27.798
-27.6583
-27.4946
-27.3123
-27.1163
-26.9108
-26.6996
-26.4854
-26.2707
-26.0574
-25.8472
-25.6416
-25.4416
-25.2485
-25.0629
-24.8853
-24.7158
-24.5546
-24.4013
-24.2558
-24.1176
-23.9866
-23.8623
-23.7448
-23.6336
-23.5287
-23.4298
-23.3368
-23.2497
-23.1683
-23.0928
-23.0232
-22.9596
-22.9022
-22.851
-22.8062
-22.7679
-22.7363
-22.7114
-22.6936
-22.6831
-22.6803
-22.6854
-22.6989
-22.7213
-22.7528
-22.7938
-22.8443
-22.9041
-22.9728
-23.0494
-23.1324
-23.2197
-23.3089
-23.3968
-23.4801
-23.5556
-23.62
-23.6708
-23.7059
-23.7237
-28.1315
-28.0879
-28.0032
-27.8818
-27.7294
-27.5525
-27.3573
-27.1493
-26.9333
-26.7128
-26.4908
-26.2693
-26.0502
-25.8351
-25.6253
-25.422
-25.2262
-25.0387
-24.86
-24.69
-24.5287
-24.3757
-24.2306
-24.0929
-23.9624
-23.8387
-23.7216
-23.6108
-23.5062
-23.4076
-23.3148
-23.2276
-23.1462
-23.0704
-23.0004
-22.9364
-22.8785
-22.8268
-22.7815
-22.7427
-22.7104
-22.6848
-22.6662
-22.6548
-22.6509
-22.6551
-22.6679
-22.6896
-22.721
-22.7623
-22.814
-22.876
-22.948
-23.0291
-23.118
-23.2124
-23.3095
-23.4058
-23.4976
-23.5809
-23.6523
-23.7085
-23.7472
-23.767
-28.2566
-28.2077
-28.1129
-27.9781
-27.8103
-27.6175
-27.407
-27.1851
-26.9569
-26.7261
-26.4953
-26.2665
-26.041
-25.8204
-25.606
-25.3989
-25.2002
-25.0107
-24.8308
-24.6604
-24.4992
-24.3467
-24.2022
-24.0652
-23.9353
-23.8121
-23.6955
-23.5853
-23.4811
-23.3828
-23.2902
-23.203
-23.1213
-23.0452
-22.9748
-22.9103
-22.8519
-22.7997
-22.7539
-22.7144
-22.6814
-22.655
-22.6354
-22.6229
-22.6179
-22.6209
-22.6326
-22.6535
-22.6845
-22.7261
-22.7788
-22.843
-22.9186
-23.0049
-23.1005
-23.2031
-23.3096
-23.416
-23.5179
-23.6107
-23.6902
-23.7528
-23.7959
-23.8179
-28.3997
-28.3442
-28.2372
-28.086
-27.8997
-27.6881
-27.4598
-27.2222
-26.9807
-26.7387
-26.4986
-26.2619
-26.0297
-25.8032
-25.5837
-25.3725
-25.1707
-24.9791
-24.798
-24.6273
-24.4665
-24.3146
-24.171
-24.0348
-23.9057
-23.7832
-23.6672
-23.5575
-23.4538
-23.3559
-23.2634
-23.1763
-23.0944
-23.0179
-22.947
-22.8819
-22.8229
-22.7702
-22.7237
-22.6836
-22.6499
-22.6225
-22.6018
-22.5881
-22.5817
-22.5833
-22.5936
-22.6135
-22.6437
-22.6852
-22.7389
-22.8052
-22.8846
-22.9764
-23.0796
-23.1915
-23.3089
-23.4271
-23.5408
-23.6448
-23.7338
-23.8038
-23.8519
-23.8764
-28.561
-28.4974
-28.3754
-28.2045
-27.9963
-27.7628
-27.5144
-27.2594
-27.0034
-26.7498
-26.5001
-26.2553
-26.0162
-25.7835
-25.5586
-25.3429
-25.1377
-24.9439
-24.7618
-24.5911
-24.4309
-24.2801
-24.1375
-24.0024
-23.874
-23.7522
-23.6369
-23.5278
-23.4247
-23.3273
-23.2351
-23.148
-23.0658
-22.9888
-22.9172
-22.8515
-22.7919
-22.7385
-22.6915
-22.6508
-22.6163
-22.588
-22.5661
-22.5509
-22.5429
-22.5429
-22.5515
-22.5699
-22.599
-22.6401
-22.6943
-22.7627
-22.8458
-22.9436
-23.0549
-23.1774
-23.3072
-23.4389
-23.5664
-23.6832
-23.7831
-23.8615
-23.9152
-23.9423
-28.7408
-28.6673
-28.5273
-28.3328
-28.0988
-27.8401
-27.5692
-27.2953
-27.0241
-26.7586
-26.4994
-26.2467
-26.0004
-25.7613
-25.5306
-25.3101
-25.1013
-24.9053
-24.7223
-24.5519
-24.3928
-24.2434
-24.1022
-23.9682
-23.8408
-23.7197
-23.605
-23.4966
-23.3942
-23.2974
-23.2056
-23.1184
-23.0359
-22.9583
-22.886
-22.8195
-22.7592
-22.7053
-22.6577
-22.6164
-22.5811
-22.5518
-22.5286
-22.5119
-22.5021
-22.5001
-22.5068
-22.5233
-22.5509
-22.5911
-22.6454
-22.7154
-22.8022
-22.906
-23.0262
-23.1603
-23.304
-23.4512
-23.5946
-23.726
-23.8383
-23.9259
-23.9856
-24.0157
-28.9397
-28.8543
-28.6925
-28.4701
-28.206
-27.9185
-27.6226
-27.3285
-27.0418
-26.7645
-26.4963
-26.2358
-25.9825
-25.7368
-25.5
-25.2742
-25.0615
-24.8633
-24.6797
-24.5101
-24.3525
-24.205
-24.0656
-23.9329
-23.8063
-23.6859
-23.5719
-23.4642
-23.3627
-23.2666
-23.1752
-23.0881
-23.0051
-22.9267
-22.8535
-22.7862
-22.7251
-22.6706
-22.6226
-22.5807
-22.5447
-22.5145
-22.4899
-22.4714
-22.4596
-22.4554
-22.4598
-22.474
-22.4996
-22.5384
-22.5923
-22.6634
-22.7535
-22.8635
-22.9931
-23.1398
-23.2991
-23.4639
-23.6252
-23.7734
-23.8995
-23.9972
-24.0633
-24.0963
-29.1588
-29.0589
-28.8709
-28.6153
-28.3162
-27.9963
-27.673
-27.3576
-27.0554
-26.7671
-26.4905
-26.2229
-25.9628
-25.7102
-25.4668
-25.2353
-25.0185
-24.818
-24.6341
-24.4657
-24.3104
-24.1653
-24.0279
-23.8967
-23.771
-23.6512
-23.5377
-23.4309
-23.3304
-23.2352
-23.1444
-23.0572
-22.9738
-22.8944
-22.8201
-22.7517
-22.6899
-22.6348
-22.5864
-22.5442
-22.5076
-22.4763
-22.4503
-22.43
-22.416
-22.4093
-22.411
-22.4225
-22.4457
-22.4824
-22.5352
-22.6068
-22.6997
-22.8157
-22.955
-23.1154
-23.292
-23.4765
-23.6584
-23.8255
-23.967
-24.0756
-24.1481
-24.184
-29.399
-29.2816
-29.0623
-28.7676
-28.4281
-28.0718
-27.7188
-27.3813
-27.0641
-26.7659
-26.4821
-26.2081
-25.9414
-25.6818
-25.4313
-25.1934
-24.9721
-24.7693
-24.5855
-24.4191
-24.2668
-24.1248
-23.9898
-23.8601
-23.7353
-23.6157
-23.5026
-23.3967
-23.2975
-23.2036
-23.1134
-23.0263
-22.9422
-22.8616
-22.786
-22.7164
-22.6537
-22.5982
-22.5496
-22.5071
-22.47
-22.4378
-22.4103
-22.388
-22.3716
-22.3621
-22.3608
-22.3693
-22.3893
-22.4233
-22.4742
-22.5455
-22.6406
-22.7623
-22.9115
-23.0866
-23.2822
-23.4889
-23.694
-23.8827
-24.0412
-24.161
-24.2399
-24.2785
-29.6617
-29.5232
-29.2667
-28.9258
-28.5398
-28.1429
-27.7582
-27.3982
-27.067
-26.7605
-26.4712
-26.1918
-25.9188
-25.652
-25.3936
-25.1486
-24.9223
-24.7173
-24.5339
-24.3702
-24.2219
-24.0838
-23.9517
-23.8235
-23.6993
-23.5797
-23.4669
-23.3619
-23.2643
-23.1719
-23.0826
-22.9955
-22.9106
-22.8286
-22.7512
-22.6803
-22.6168
-22.5609
-22.5122
-22.4697
-22.4324
-22.3992
-22.3702
-22.3457
-22.3267
-22.3142
-22.3096
-22.3146
-22.3311
-22.3616
-22.4097
-22.4798
-22.5762
-22.7029
-22.8621
-23.0528
-23.2692
-23.5007
-23.7323
-23.9455
-24.1225
-24.2538
-24.3384
-24.3793
-29.9487
-29.7847
-29.4838
-29.0888
-28.6494
-28.2078
-27.7894
-27.4069
-27.0633
-26.7509
-26.4581
-26.1744
-25.8955
-25.6212
-25.3539
-25.1008
-24.8691
-24.6619
-24.4794
-24.3194
-24.1762
-24.0429
-23.9139
-23.7874
-23.6634
-23.5434
-23.4303
-23.3265
-23.231
-23.1406
-23.0524
-22.9653
-22.8793
-22.7955
-22.7161
-22.6436
-22.5792
-22.5229
-22.4745
-22.4323
-22.3949
-22.3609
-22.3302
-22.3036
-22.2817
-22.2659
-22.2578
-22.259
-22.2713
-22.2976
-22.3419
-22.4096
-22.5063
-22.6373
-22.8063
-23.0135
-23.2525
-23.5114
-23.7732
-24.0143
-24.2116
-24.3542
-24.4435
-24.4857
-30.2618
-30.067
-29.7136
-29.2551
-28.7547
-28.2644
-27.8107
-27.4061
-27.0523
-26.7371
-26.4433
-26.1565
-25.8721
-25.5899
-25.3125
-25.0498
-24.8123
-24.6028
-24.4217
-24.2667
-24.13
-24.0025
-23.877
-23.752
-23.628
-23.5067
-23.393
-23.2905
-23.1976
-23.1098
-23.0229
-22.9358
-22.8487
-22.7624
-22.6805
-22.6063
-22.5409
-22.4845
-22.4366
-22.3952
-22.3578
-22.323
-22.2908
-22.2617
-22.2368
-22.2176
-22.2057
-22.2028
-22.2105
-22.2317
-22.2712
-22.3352
-22.431
-22.5652
-22.7435
-22.9679
-23.2314
-23.5206
-23.8168
-24.09
-24.3092
-24.4623
-24.5547
-24.5971
-30.6031
-30.371
-29.9561
-29.4231
-28.8532
-28.3107
-27.8205
-27.3943
-27.0334
-26.7192
-26.4275
-26.1388
-25.8491
-25.5589
-25.2695
-24.9956
-24.7518
-24.5401
-24.3609
-24.2122
-24.0837
-23.9632
-23.8415
-23.7177
-23.5933
-23.4699
-23.3547
-23.2538
-23.1644
-23.0799
-22.9946
-22.9074
-22.8189
-22.7297
-22.6445
-22.5685
-22.5021
-22.4457
-22.3987
-22.3584
-22.3216
-22.286
-22.252
-22.2205
-22.1924
-22.1695
-22.1536
-22.1463
-22.149
-22.1645
-22.1979
-22.2569
-22.3503
-22.4864
-22.6732
-22.9154
-23.2053
-23.5274
-23.8629
-24.1737
-24.4164
-24.5784
-24.6714
-24.7124
-30.9753
-30.6979
-30.2113
-29.5912
-28.942
-28.3446
-27.8172
-27.37
-27.0061
-26.6975
-26.4118
-26.122
-25.8271
-25.5289
-25.2254
-24.9377
-24.6876
-24.4737
-24.2965
-24.1559
-24.0376
-23.9258
-23.8078
-23.6849
-23.5598
-23.4328
-23.3151
-23.2162
-23.1314
-23.0513
-22.9676
-22.8803
-22.7903
-22.6973
-22.6081
-22.5301
-22.4628
-22.4064
-22.3609
-22.3223
-22.2863
-22.25
-22.2141
-22.1801
-22.1486
-22.1217
-22.1018
-22.0901
-22.0874
-22.0962
-22.1224
-22.1749
-22.2644
-22.4007
-22.5947
-22.8556
-23.1736
-23.531
-23.9116
-24.2667
-24.5344
-24.7026
-24.7929
-24.8305
-31.3812
-31.0482
-30.4793
-29.7571
-29.0177
-28.3645
-27.7995
-27.3319
-26.97
-26.6726
-26.3974
-26.1068
-25.8065
-25.5012
-25.1801
-24.8755
-24.6195
-24.4034
-24.2282
-24.098
-23.9923
-23.8909
-23.7763
-23.6537
-23.5279
-23.3955
-23.2736
-23.1776
-23.0988
-23.0245
-22.9423
-22.8546
-22.7634
-22.6653
-22.5711
-22.4912
-22.423
-22.3666
-22.3232
-22.287
-22.2525
-22.2152
-22.1773
-22.1408
-22.1055
-22.0744
-22.0505
-22.0343
-22.0261
-22.0275
-22.0452
-22.0894
-22.1735
-22.3079
-22.5072
-22.7877
-23.1358
-23.5299
-23.9625
-24.371
-24.6649
-24.8351
-24.9182
-24.9499
-31.8243
-31.4221
-30.7609
-29.9187
-29.0759
-28.3688
-27.7665
-27.2779
-26.9248
-26.6451
-26.3861
-26.0938
-25.7876
-25.4771
-25.1341
-24.8079
-24.5477
-24.3293
-24.1554
-24.0384
-23.9481
-23.8597
-23.7473
-23.6243
-23.4984
-23.358
-23.2295
-23.1377
-23.0667
-22.9999
-22.9187
-22.8304
-22.7385
-22.634
-22.5331
-22.4519
-22.3828
-22.3262
-22.2858
-22.2527
-22.2203
-22.1818
-22.1416
-22.1027
-22.0634
-22.0278
-21.9999
-21.9794
-21.9655
-21.9588
-21.9667
-22.0007
-22.078
-22.2082
-22.4099
-22.7113
-23.0918
-23.5223
-24.0147
-24.4893
-24.8096
-24.9759
-25.0462
-25.0691
-32.3085
-31.8187
-31.0575
-30.0734
-29.1112
-28.3572
-27.7178
-27.2058
-26.8705
-26.6155
-26.3803
-26.0833
-25.7702
-25.4589
-25.0875
-24.7332
-24.4726
-24.2517
-24.0771
-23.9773
-23.9055
-23.8332
-23.7212
-23.5965
-23.4722
-23.3202
-23.1817
-23.0962
-23.0353
-22.9784
-22.8972
-22.8076
-22.7164
-22.6033
-22.4936
-22.4123
-22.3422
-22.2849
-22.2487
-22.2197
-22.1902
-22.15
-22.107
-22.0662
-22.0223
-21.9819
-21.9501
-21.9256
-21.9063
-21.8907
-21.8874
-21.9092
-21.9783
-22.1019
-22.3015
-22.626
-23.0419
-23.5054
-24.0672
-24.6252
-24.971
-25.1248
-25.1754
-25.1864
-32.8391
-32.2355
-31.3718
-30.2184
-29.1163
-28.3302
-27.6536
-27.1126
-26.8074
-26.5845
-26.3831
-26.0755
-25.7532
-25.4497
-25.0405
-24.649
-24.3952
-24.1709
-23.9919
-23.9149
-23.8647
-23.8132
-23.6978
-23.5698
-23.4508
-23.282
-23.1286
-23.053
-23.0045
-22.961
-22.8775
-22.7859
-22.6982
-22.5733
-22.4517
-22.3727
-22.3015
-22.2424
-22.212
-22.188
-22.1627
-22.1197
-22.0735
-22.0314
-21.9824
-21.9365
-21.9013
-21.8732
-21.849
-21.8235
-21.8079
-21.8148
-21.8753
-21.9894
-22.1805
-22.5316
-22.9874
-23.4756
-24.1177
-24.7842
-25.1515
-25.2812
-25.3043
-25.2998
-33.4225
-32.6671
-31.7088
-30.3506
-29.0816
-28.2905
-27.5751
-26.9938
-26.7365
-26.5521
-26.3991
-26.0699
-25.7346
-25.4541
-24.9933
-24.551
-24.3173
-24.0879
-23.8975
-23.8518
-23.8258
-23.8021
-23.6769
-23.5431
-23.4364
-23.2435
-23.068
-23.0081
-22.9744
-22.9493
-22.8597
-22.7646
-22.6853
-22.544
-22.4063
-22.3337
-22.2609
-22.1979
-22.176
-22.1576
-22.1385
-22.091
-22.0407
-21.9989
-21.9437
-21.8916
-21.8536
-21.8225
-21.7941
-21.7579
-21.7288
-21.7177
-21.7698
-21.8719
-22.0444
-22.428
-22.9308
-23.4275
-24.1627
-24.9735
-25.3538
-25.4441
-25.4308
-25.4077
-34.0674
-33.1036
-32.077
-30.4668
-28.9936
-28.2436
-27.4844
-26.843
-26.6604
-26.5175
-26.4345
-26.0653
-25.7107
-25.4788
-24.946
-24.4334
-24.2423
-24.004
-23.7906
-23.7891
-23.7883
-23.803
-23.6579
-23.5144
-23.4325
-23.2045
-22.9967
-22.9621
-22.9445
-22.9454
-22.8432
-22.7424
-22.68
-22.5155
-22.3553
-22.2963
-22.2209
-22.1506
-22.141
-22.1287
-22.1184
-22.0638
-22.0083
-21.9692
-21.9061
-21.847
-21.807
-21.7735
-21.7423
-21.6943
-21.6509
-21.6175
-21.663
-21.7512
-21.8899
-22.315
-22.8772
-23.3541
-24.1971
-25.2038
-25.5806
-25.6117
-25.5529
-25.508
-34.7855
-33.528
-32.4902
-30.5636
-28.8336
-28.1995
-27.3851
-26.6506
-26.5832
-26.4782
-26.4983
-26.0594
-25.6749
-25.534
-24.8987
-24.2872
-24.1753
-23.921
-23.666
-23.729
-23.7509
-23.8206
-23.6396
-23.4804
-23.4441
-23.1651
-22.9102
-22.9163
-22.9139
-22.9524
-22.8273
-22.717
-22.6855
-22.4878
-22.2958
-22.2621
-22.1819
-22.0989
-22.1077
-22.1007
-22.1039
-22.0378
-21.9756
-21.9433
-21.8697
-21.8022
-21.7617
-21.7264
-21.6945
-21.6328
-21.5753
-21.5132
-21.5562
-21.6303
-21.712
-22.1924
-22.8346
-23.2454
-24.2128
-25.4901
-25.8338
-25.7814
-25.6681
-25.5991
-35.5932
-33.9135
-32.9707
-30.6373
-28.5754
-28.1743
-27.2824
-26.4026
-26.5128
-26.4287
-26.6033
-26.0486
-25.6175
-25.6341
-24.851
-24.0995
-24.1247
-23.8417
-23.5164
-23.6753
-23.7105
-23.8614
-23.6201
-23.4363
-23.4783
-23.1251
-22.8025
-22.8732
-22.8807
-22.9747
-22.8106
-22.6853
-22.7067
-22.4607
-22.2237
-22.2338
-22.1449
-22.0406
-22.0774
-22.0729
-22.0965
-22.0125
-21.9413
-21.9224
-21.8343
-21.7567
-21.7179
-21.6809
-21.6516
-21.5736
-21.5034
-21.4033
-21.4511
-21.5138
-21.5034
-22.0595
-22.8158
-23.0881
-24.1982
-25.8533
-26.114
-25.9497
-25.7739
-25.6795
-36.5132
-34.2182
-33.5519
-30.6839
-28.183
-28.1928
-27.1829
-26.0786
-26.4622
-26.3588
-26.7676
-26.0276
-25.5235
-25.7999
-24.8027
-23.852
-24.1032
-23.7694
-23.3309
-23.6347
-23.6618
-23.9347
-23.5964
-23.3743
-23.5456
-23.0842
-22.665
-22.8374
-22.8415
-23.0187
-22.7913
-22.6421
-22.7504
-22.434
-22.1331
-22.2154
-22.1108
-21.9725
-22.0519
-22.0439
-22.099
-21.9873
-21.904
-21.9085
-21.7995
-21.7098
-21.6757
-21.6368
-21.6148
-21.5162
-21.4372
-21.2852
-21.3492
-21.4086
-21.2543
-21.9148
-22.84
-22.8641
-24.1365
-26.3229
-26.4196
-26.1118
-25.8679
-25.7481
-37.5774
-34.3798
-34.2842
-30.699
-27.6064
-28.2918
-27.0952
-25.6494
-26.4526
-26.2511
-27.0168
-25.9886
-25.3711
-26.0604
-24.7528
-23.5189
-24.1293
-23.7087
-23.094
-23.6179
-23.5957
-24.0539
-23.5644
-23.2836
-23.6607
-23.0416
-22.4861
-22.8165
-22.7902
-23.0932
-22.7667
-22.5802
-22.8262
-22.4072
-22.0157
-22.2126
-22.0809
-21.89
-22.0345
-22.0111
-22.1147
-21.9608
-21.8613
-21.9043
-21.7647
-21.6604
-21.6358
-21.5932
-21.5858
-21.4598
-21.3797
-21.155
-21.2521
-21.325
-20.9507
-21.7552
-22.9351
-22.5498
-24.0044
-26.9396
-26.7447
-26.2617
-25.9478
-25.8038
-38.83
-34.3078
-35.24
-30.6772
-26.7779
-28.524
-27.0295
-25.0741
-26.5167
-26.0775
-27.3866
-25.9212
-25.1298
-26.4559
-24.6997
-23.0651
-24.2297
-23.6648
-22.784
-23.6416
-23.4974
-24.2373
-23.5186
-23.1486
-23.8437
-22.9962
-22.2499
-22.8224
-22.717
-23.2105
-22.7328
-22.4892
-22.9474
-22.3795
-21.8603
-22.234
-22.0566
-21.7863
-22.0301
-21.9704
-22.1485
-21.9315
-21.81
-21.9136
-21.7287
-21.6073
-21.5989
-21.5489
-21.5666
-21.4025
-21.3352
-21.0067
-21.1608
-21.2776
-20.5737
-21.5749
-23.1404
-22.1141
-23.7694
-27.7587
-27.0769
-26.3927
-26.0116
-25.8463
-40.3315
-33.8742
-36.5223
-30.6118
-25.6068
-28.9629
-26.9975
-24.2961
-26.7036
-25.7946
-27.9262
-25.8117
-24.7571
-27.0407
-24.6407
-22.4434
-24.4414
-23.6438
-22.3708
-23.7311
-23.3442
-24.5103
-23.4513
-22.948
-24.122
-22.9459
-21.9354
-22.8732
-22.6069
-23.3875
-22.6845
-22.3551
-23.1318
-22.3496
-21.6515
-22.291
-22.0394
-21.6525
-22.0459
-21.9154
-22.2071
-21.8968
-21.7455
-21.9415
-21.6898
-21.5486
-21.566
-21.5016
-21.5601
-21.3409
-21.3097
-20.8323
-21.0758
-21.2868
-20.0984
-21.3643
-23.5099
-21.5172
-23.388
-28.855
-27.3951
-26.4973
-26.0576
-25.8754
-42.1637
-32.9021
-38.2729
-30.4935
-23.974
-29.7083
-27.0118
-23.2386
-27.0851
-25.3381
-28.7023
-25.6418
-24.1961
-27.887
-24.5716
-21.5913
-24.8148
-23.6527
-21.814
-23.9232
-23.1025
-24.9076
-23.3525
-22.6532
-24.5319
-22.8873
-21.5148
-22.995
-22.4371
-23.6474
-22.615
-22.1585
-23.4034
-22.3153
-21.3693
-22.3996
-22.0306
-21.4761
-22.0924
-21.8364
-22.2994
-21.8533
-21.662
-21.9951
-21.6453
-21.4821
-21.5389
-21.4483
-21.5703
-21.2698
-21.3121
-20.6205
-20.9958
-21.3805
-19.4925
-21.1083
-24.1161
-20.7084
-22.8021
-30.3275
-27.6648
-26.5683
-26.0849
-25.891
-44.4357
-31.1529
-40.6843
-30.3096
-21.7249
-30.8936
-27.086
-21.7999
-27.7629
-24.6155
-29.8049
-25.3888
-23.3716
-29.0893
-24.4869
-20.4284
-25.4177
-23.6993
-21.0601
-24.271
-22.7244
-25.476
-23.2102
-22.2267
-25.1216
-22.816
-20.9525
-23.2256
-22.1759
-24.0219
-22.5163
-21.8753
-23.794
-22.2747
-20.9887
-22.582
-22.0328
-21.2419
-22.1859
-21.7208
-22.4389
-21.7976
-21.5529
-22.0847
-21.5923
-21.4062
-21.5214
-21.3855
-21.6039
-21.1828
-21.3555
-20.3584
-20.9191
-21.5975
-18.7166
-20.7856
-25.0555
-19.6262
-21.9373
-32.3074
-27.8357
-26.6019
-26.0947
-25.8954
)
;

boundaryField
{
    left
    {
        type            calculated;
        value           nonuniform List<scalar> 
32
(
-27.7951
-27.82
-27.8677
-27.9363
-28.0245
-28.1315
-28.2566
-28.3997
-28.561
-28.7408
-28.9397
-29.1588
-29.399
-29.6617
-29.9487
-30.2618
-30.6031
-30.9753
-31.3812
-31.8243
-32.3085
-32.8391
-33.4225
-34.0674
-34.7855
-35.5932
-36.5132
-37.5774
-38.83
-40.3315
-42.1637
-44.4357
)
;
    }
    right
    {
        type            calculated;
        value           nonuniform List<scalar> 
32
(
-23.632
-23.6419
-23.6608
-23.6882
-23.7237
-23.767
-23.8179
-23.8764
-23.9423
-24.0157
-24.0963
-24.184
-24.2785
-24.3793
-24.4857
-24.5971
-24.7124
-24.8305
-24.9499
-25.0691
-25.1864
-25.2998
-25.4077
-25.508
-25.5991
-25.6795
-25.7481
-25.8038
-25.8463
-25.8754
-25.891
-25.8954
)
;
    }
    interface
    {
        type            calculated;
        value           nonuniform List<scalar> 
64
(
-45.6972
-30.0499
-42.0826
-30.1994
-20.4247
-31.6152
-27.1398
-20.9709
-28.1907
-24.1742
-30.4506
-25.2384
-22.883
-29.7929
-24.4398
-19.758
-25.7862
-23.7331
-20.6263
-24.4916
-22.4944
-25.8097
-23.1265
-21.9754
-25.4682
-22.7767
-20.631
-23.3737
-22.0179
-24.2423
-22.4587
-21.7087
-24.0238
-22.2525
-20.7703
-22.695
-22.037
-21.1083
-22.2469
-21.6521
-22.5224
-21.7663
-21.4911
-22.1402
-21.5635
-21.3659
-21.5158
-21.3515
-21.6276
-21.1345
-21.3896
-20.213
-20.8813
-21.7426
-18.2808
-20.6046
-25.6224
-19.0085
-21.4248
-33.443
-27.8893
-26.6091
-26.0958
-25.8953
)
;
    }
    bottom
    {
        type            calculated;
        value           nonuniform List<scalar> 
64
(
-27.7886
-27.7578
-27.6971
-27.6085
-27.4947
-27.3588
-27.2043
-27.0348
-26.8536
-26.6638
-26.4685
-26.27
-26.0707
-25.8723
-25.6766
-25.4847
-25.2978
-25.1168
-24.9422
-24.7745
-24.6139
-24.4605
-24.3143
-24.1753
-24.0432
-23.9179
-23.7994
-23.6873
-23.5817
-23.4823
-23.389
-23.3019
-23.2209
-23.1459
-23.077
-23.0143
-22.9579
-22.9079
-22.8643
-22.8274
-22.7973
-22.7742
-22.7582
-22.7497
-22.7488
-22.7557
-22.7707
-22.7938
-22.8251
-22.8644
-22.9114
-22.9657
-23.0264
-23.0923
-23.1621
-23.234
-23.306
-23.3758
-23.4411
-23.4998
-23.5496
-23.5888
-23.6157
-23.6295
)
;
    }
    defaultFaces
    {
        type            empty;
    }
}


// ************************************************************************* //
