/*--------------------------------*- C++ -*----------------------------------*\
| =========                 |                                                 |
| \\      /  F ield         | OpenFOAM: The Open Source CFD Toolbox           |
|  \\    /   O peration     | Version:  5.x                                   |
|   \\  /    A nd           | Web:      www.OpenFOAM.org                      |
|    \\/     M anipulation  |                                                 |
\*---------------------------------------------------------------------------*/
FoamFile
{
    version     2.0;
    format      ascii;
    class       volScalarField;
    location    "0.6999";
    object      gradTx;
}
// * * * * * * * * * * * * * * * * * * * * * * * * * * * * * * * * * * * * * //

dimensions      [0 -1 0 1 0 0 0];

internalField   nonuniform List<scalar> 
2048
(
0.00709034
0.0210414
0.0343155
0.0465313
0.0574052
0.0667522
0.0744936
0.0806417
0.0852773
0.0885254
0.0905331
0.0914529
0.0914325
0.09061
0.0891141
0.0870649
0.0845753
0.0817513
0.0786901
0.0754777
0.0721866
0.0688742
0.0655822
0.0623385
0.0591591
0.0560513
0.0530156
0.0500483
0.0471415
0.0442847
0.0414644
0.0386657
0.0358726
0.03307
0.030244
0.0273829
0.0244769
0.0215174
0.0184964
0.0154055
0.0122359
0.00897824
0.00562459
0.0021699
-0.00138524
-0.00503157
-0.0087479
-0.0124978
-0.0162267
-0.0198592
-0.0232987
-0.0264277
-0.029112
-0.0312073
-0.032569
-0.0330652
-0.0325904
-0.0310789
-0.0285151
-0.0249396
-0.0204492
-0.0151915
-0.00935526
-0.00315921
0.0211537
0.0627625
0.10232
0.138674
0.170973
0.19867
0.221547
0.239656
0.253257
0.262738
0.268548
0.271146
0.270972
0.268434
0.263913
0.257762
0.250315
0.241886
0.232765
0.223209
0.213432
0.203605
0.193851
0.184248
0.174843
0.165655
0.156684
0.147918
0.139334
0.130899
0.122574
0.114313
0.106069
0.0977945
0.0894497
0.0809994
0.0724152
0.0636726
0.0547485
0.0456183
0.0362552
0.0266312
0.0167209
0.00650723
-0.00401059
-0.0148079
-0.0258247
-0.036956
-0.0480419
-0.058861
-0.0691264
-0.0784881
-0.0865434
-0.0928574
-0.0969924
-0.0985471
-0.0971986
-0.0927436
-0.0851314
-0.0744819
-0.0610859
-0.0453871
-0.0279526
-0.0094395
0.0351363
0.10421
0.169773
0.229868
0.283065
0.328479
0.365789
0.395142
0.417026
0.43213
0.44123
0.445101
0.444472
0.440009
0.432328
0.422003
0.409578
0.395572
0.380463
0.364677
0.348571
0.332422
0.316427
0.30071
0.285337
0.270334
0.255696
0.241403
0.227413
0.213675
0.20012
0.186671
0.173248
0.159773
0.146176
0.132402
0.118406
0.10415
0.0895991
0.0747134
0.0594484
0.0437552
0.0275873
0.0109101
-0.00628515
-0.0239666
-0.042045
-0.0603562
-0.0786458
-0.096555
-0.113613
-0.12924
-0.142762
-0.153442
-0.160534
-0.163346
-0.161317
-0.154087
-0.141559
-0.123927
-0.101681
-0.0755714
-0.0465471
-0.0157178
0.0493456
0.146274
0.238059
0.321864
0.395654
0.458236
0.50925
0.549021
0.57835
0.598298
0.610011
0.614598
0.613073
0.606347
0.595249
0.580556
0.563016
0.543345
0.522216
0.500228
0.477878
0.455548
0.433499
0.411888
0.390792
0.37023
0.35019
0.330637
0.311516
0.292751
0.274248
0.255894
0.237573
0.21917
0.200589
0.181755
0.162609
0.143105
0.123199
0.102839
0.0819636
0.0604981
0.0383691
0.0155165
-0.0080872
-0.0324146
-0.0573599
-0.0827143
-0.108142
-0.133158
-0.157114
-0.179201
-0.19846
-0.213833
-0.224233
-0.228638
-0.226209
-0.216395
-0.199033
-0.174389
-0.143165
-0.106442
-0.0655698
-0.0221393
0.0640594
0.189756
0.30841
0.416193
0.510431
0.589658
0.653576
0.702808
0.738589
0.762447
0.77596
0.780594
0.777639
0.768226
0.75337
0.734031
0.711146
0.685635
0.658372
0.630138
0.601577
0.573171
0.545235
0.517941
0.491358
0.465489
0.440305
0.415757
0.391775
0.368265
0.3451
0.322129
0.299193
0.276139
0.25284
0.229202
0.205159
0.180663
0.155668
0.130114
0.103917
0.0769777
0.0491854
0.0204436
-0.00930665
-0.0400574
-0.0717028
-0.104006
-0.136567
-0.16879
-0.199858
-0.228728
-0.254145
-0.274696
-0.288906
-0.295369
-0.292906
-0.280731
-0.25858
-0.226791
-0.186302
-0.138565
-0.0853683
-0.0288217
0.0795432
0.235416
0.381978
0.514257
0.628895
0.724217
0.800117
0.857687
0.898756
0.925446
0.939837
0.943771
0.9388
0.926232
0.90723
0.882907
0.854381
0.822783
0.789203
0.754624
0.719847
0.685449
0.651783
0.619016
0.587184
0.556258
0.526183
0.496897
0.468322
0.440345
0.412809
0.385516
0.358254
0.330825
0.303068
0.274872
0.246173
0.21693
0.187102
0.156625
0.125399
0.0932866
0.0601335
0.0257929
-0.00984105
-0.0467969
-0.0849876
-0.124169
-0.163898
-0.203486
-0.241961
-0.278045
-0.310169
-0.336527
-0.355197
-0.364311
-0.362275
-0.347997
-0.321076
-0.281919
-0.231736
-0.172409
-0.106225
-0.0358594
0.0960638
0.284009
0.459888
0.617388
0.752422
0.863194
0.94998
1.01456
1.05957
1.08787
1.10213
1.10458
1.09699
1.0808
1.05724
1.02756
0.993048
0.955053
0.914915
0.873846
0.832819
0.792505
0.753274
0.715253
0.678418
0.642684
0.607964
0.57419
0.541282
0.509117
0.477504
0.446189
0.414895
0.383366
0.351402
0.318882
0.285749
0.251987
0.21757
0.182439
0.146473
0.109495
0.0712918
0.0316519
-0.00959477
-0.052532
-0.0971121
-0.143108
-0.190057
-0.237204
-0.283438
-0.327254
-0.366749
-0.399679
-0.423603
-0.436098
-0.435052
-0.418979
-0.387288
-0.340454
-0.280011
-0.208362
-0.128366
-0.0433263
0.1139
0.33632
0.543288
0.726905
0.882311
1.00773
1.10407
1.17409
1.22148
1.25004
1.2631
1.26327
1.25249
1.23223
1.20373
1.16831
1.12741
1.08265
1.03566
0.987914
0.940587
0.894438
0.849824
0.806791
0.765212
0.724922
0.685795
0.647765
0.610773
0.574696
0.539305
0.504277
0.469251
0.433896
0.397967
0.361336
0.323973
0.285898
0.247122
0.207596
0.167182
0.125652
0.0827216
0.0380949
-0.00847993
-0.0571615
-0.107963
-0.1607
-0.214921
-0.269835
-0.324219
-0.376352
-0.423982
-0.464382
-0.494504
-0.511256
-0.51188
-0.494378
-0.457903
-0.402995
-0.331592
-0.246732
-0.151963
-0.0512762
0.133353
0.393185
0.633375
0.84414
1.01981
1.15884
1.26309
1.33669
1.38469
1.41203
1.42278
1.41993
1.40546
1.38074
1.34695
1.30539
1.25768
1.20574
1.15154
1.09689
1.0432
0.991318
0.941537
0.893767
0.847727
0.803134
0.759822
0.717749
0.676906
0.637187
0.598325
0.559906
0.521457
0.482549
0.442885
0.402336
0.360916
0.31871
0.275785
0.232117
0.187549
0.141791
0.0944683
0.0451833
-0.00641815
-0.0605884
-0.117424
-0.176807
-0.238336
-0.301219
-0.364161
-0.425243
-0.481861
-0.530754
-0.568174
-0.590219
-0.593326
-0.574839
-0.533555
-0.470082
-0.386867
-0.287756
-0.177128
-0.0597412
0.154754
0.455517
0.731432
0.970471
1.16615
1.31743
1.42761
1.50258
1.54917
1.57369
1.58105
1.5745
1.55595
1.52651
1.48713
1.43904
1.38406
1.32444
1.26261
1.2008
1.14069
1.0832
1.02851
0.976328
0.926136
0.877496
0.830198
0.784262
0.739777
0.696685
0.65467
0.613199
0.571648
0.529462
0.486275
0.441972
0.396638
0.350453
0.303568
0.256002
0.207577
0.157926
0.106563
0.0529651
-0.00334243
-0.0627241
-0.125378
-0.191283
-0.26012
-0.33115
-0.403053
-0.47375
-0.540284
-0.598816
-0.644794
-0.673346
-0.679904
-0.660967
-0.614845
-0.542207
-0.446157
-0.331589
-0.203913
-0.068729
0.178471
0.524323
0.838846
1.10734
1.32255
1.48433
1.59798
1.67176
1.71468
1.73469
1.7376
1.72682
1.70395
1.66966
1.62447
1.56948
1.5067
1.43884
1.3689
1.29963
1.23303
1.1701
1.11085
1.05463
1.00063
0.948197
0.897079
0.847417
0.79947
0.753268
0.708436
0.664274
0.619962
0.574775
0.528262
0.480335
0.43119
0.381142
0.330463
0.279233
0.227253
0.174059
0.119023
0.0614757
0.000801238
-0.0634922
-0.131721
-0.203981
-0.280081
-0.359394
-0.440637
-0.521623
-0.59906
-0.668496
-0.724464
-0.76093
-0.772085
-0.753347
-0.702359
-0.619824
-0.509708
-0.378295
-0.232291
-0.0782183
0.20492
0.600727
0.957136
1.25629
1.49021
1.66025
1.77443
1.84403
1.88074
1.89449
1.89199
1.87663
1.84942
1.8103
1.75919
1.69693
1.62577
1.54903
1.47041
1.39331
1.32018
1.25206
1.18864
1.12884
1.07142
1.01545
0.960631
0.907317
0.856049
0.806998
0.759708
0.713249
0.666542
0.618635
0.568971
0.517511
0.464612
0.410776
0.35644
0.301772
0.246549
0.190178
0.131856
0.0707383
0.00605281
-0.0628323
-0.13636
-0.214766
-0.298026
-0.385694
-0.476611
-0.56855
-0.657923
-0.739636
-0.807199
-0.8532
-0.870305
-0.852558
-0.796685
-0.703362
-0.577693
-0.427833
-0.262148
-0.0881534
0.234573
0.685984
1.08797
1.41892
1.67032
1.84578
1.957
2.01897
2.04669
2.05238
2.04367
2.02361
1.99227
1.94857
1.89155
1.82164
1.74144
1.65506
1.56708
1.48175
1.40205
1.32905
1.262
1.19916
1.13876
1.07949
1.02103
0.964049
0.909553
0.857918
0.808563
0.760243
0.711537
0.661202
0.608533
0.553584
0.496937
0.439343
0.381455
0.323568
0.265425
0.206264
0.145059
0.080765
0.0124378
-0.0607026
-0.139227
-0.223519
-0.313765
-0.409784
-0.510641
-0.614168
-0.71653
-0.811993
-0.892938
-0.950327
-0.974967
-0.959183
-0.898438
-0.793238
-0.650199
-0.480038
-0.293262
-0.0984377
0.267966
0.781503
1.23318
1.59698
1.86405
2.04141
2.14555
2.196
2.21167
2.2075
2.19199
2.16743
2.13245
2.08463
2.02184
1.94389
1.85388
1.75699
1.65886
1.56481
1.47853
1.40108
1.33104
1.26581
1.20291
1.14059
1.07844
1.01768
0.959991
0.90605
0.855072
0.805371
0.755105
0.702646
0.647088
0.588634
0.52819
0.466815
0.405447
0.344552
0.283832
0.222291
0.158623
0.0915583
0.019968
-0.0570819
-0.140278
-0.230147
-0.327128
-0.431398
-0.542377
-0.658071
-0.774476
-0.885244
-0.981545
-1.05243
-1.08644
-1.07382
-1.00828
-0.889873
-0.727221
-0.534595
-0.32529
-0.108928
0.305709
0.888855
1.39477
1.7923
2.07254
2.24744
2.33979
2.37433
2.37462
2.35882
2.33622
2.30771
2.26988
2.21869
2.15042
2.06399
1.96326
1.85485
1.74566
1.6423
1.54946
1.46813
1.39591
1.32901
1.26419
1.19905
1.13307
1.06826
1.00734
0.95139
0.899295
0.84875
0.797414
0.743155
0.68478
0.622739
0.558389
0.493153
0.428334
0.364639
0.30171
0.238232
0.172535
0.103113
0.0286423
-0.0519701
-0.139499
-0.23459
-0.337968
-0.450279
-0.571455
-0.69982
-0.831298
-0.958987
-1.07281
-1.15955
-1.20507
-1.1971
-1.12697
-0.993713
-0.808646
-0.591018
-0.357743
-0.119427
0.348509
1.00979
1.57493
2.00684
2.29686
2.46403
2.53923
2.553
2.53429
2.50519
2.4756
2.44412
2.40452
2.351
2.27774
2.18229
2.06975
1.9487
1.82736
1.714
1.61464
1.53018
1.45675
1.38904
1.32294
1.25524
1.18511
1.11578
1.05151
0.993913
0.941296
0.890496
0.838638
0.78294
0.721763
0.655969
0.587546
0.518307
0.450019
0.383731
0.318999
0.254062
0.186782
0.115417
0.0384494
-0.0453879
-0.136909
-0.236825
-0.346169
-0.466187
-0.597514
-0.73896
-0.886485
-1.03274
-1.16644
-1.2717
-1.33111
-1.32965
-1.25536
-1.10525
-0.894233
-0.648611
-0.389975
-0.129683
0.397185
1.14624
1.77603
2.24272
2.53796
2.69106
2.74327
2.73093
2.68926
2.64531
2.60934
2.57638
2.53635
2.48185
2.40437
2.29918
2.17349
2.03859
1.90383
1.77961
1.67383
1.58719
1.51377
1.44618
1.37955
1.30957
1.23478
1.16021
1.09238
1.03358
0.98114
0.93072
0.878963
0.822243
0.758198
0.688383
0.615669
0.54222
0.470385
0.401711
0.335637
0.269766
0.201349
0.128452
0.0493713
-0.0373757
-0.132562
-0.236871
-0.351652
-0.478907
-0.620197
-0.775029
-0.939488
-1.10594
-1.26208
-1.38882
-1.46476
-1.47212
-1.39449
-1.22507
-0.983585
-0.706439
-0.421163
-0.139382
0.452713
1.30032
2.00061
2.50222
2.79665
2.92814
2.9512
2.90692
2.83796
2.77778
2.73669
2.70432
2.66534
2.61159
2.531
2.41508
2.27459
2.12459
1.97494
1.83877
1.72672
1.63917
1.56723
1.5007
1.43441
1.36256
1.28231
1.20143
1.12976
1.07031
1.01892
0.969519
0.918577
0.861344
0.794249
0.720019
0.642772
0.564829
0.489296
0.41845
0.351564
0.285345
0.216221
0.142198
0.0613872
-0.0279906
-0.126548
-0.234794
-0.354381
-0.488249
-0.639165
-0.807573
-0.989736
-1.17794
-1.3593
-1.51082
-1.6061
-1.62512
-1.54567
-1.3539
-1.07611
-0.763286
-0.450309
-0.148159
0.516289
1.47431
2.25129
2.78787
3.07353
3.1745
3.16224
3.07972
2.9786
2.90105
2.85695
2.82791
2.79141
2.74057
2.65856
2.53042
2.37306
2.20683
2.04057
1.89105
1.77293
1.68613
1.61743
1.55286
1.48796
1.41482
1.32794
1.23926
1.16336
1.10406
1.05474
1.00697
0.957663
0.900586
0.830078
0.750879
0.668875
0.586072
0.506587
0.433795
0.366729
0.300821
0.231384
0.156623
0.0744805
-0.0173037
-0.118996
-0.23071
-0.354361
-0.494055
-0.654099
-0.836166
-1.03665
-1.24799
-1.45764
-1.63761
-1.755
-1.7892
-1.71051
-1.49263
-1.17095
-0.817616
-0.476239
-0.155599
0.589433
1.67064
2.53078
3.10254
3.36886
3.42883
3.3757
3.24807
3.10924
3.01344
2.96951
2.94738
2.9144
2.86913
2.78823
2.64561
2.46876
2.28554
2.10063
1.93592
1.81201
1.72811
1.66483
1.60286
1.54059
1.46714
1.37194
1.27338
1.19281
1.13474
1.08882
1.0431
0.996389
0.940396
0.865839
0.780914
0.694026
0.605892
0.522069
0.447574
0.381091
0.316256
0.246816
0.171691
0.0886471
-0.00539563
-0.110068
-0.224784
-0.351647
-0.496201
-0.664699
-0.860422
-1.07969
-1.31521
-1.55654
-1.76917
-1.91112
-1.96474
-1.89113
-1.64245
-1.26691
-0.867536
-0.497625
-0.161257
0.674165
1.89183
2.84166
3.44966
3.6825
3.68917
3.59113
3.41079
3.22769
3.11312
3.07389
3.06331
3.03392
2.99751
2.92162
2.761
2.5613
2.36112
2.15506
1.97272
1.84339
1.76519
1.71001
1.65079
1.59268
1.52052
1.4146
1.30335
1.21763
1.16231
1.12143
1.07786
1.03489
0.981334
0.901664
0.809988
0.71832
0.624245
0.535513
0.459588
0.394624
0.331762
0.262482
0.187347
0.103907
0.00764702
-0.0999661
-0.217236
-0.346335
-0.494594
-0.67068
-0.880021
-1.11834
-1.37858
-1.65543
-1.90562
-2.07372
-2.15181
-2.09029
-1.80489
-1.36231
-0.910764
-0.513025
-0.16468
0.773278
2.14039
3.18622
3.83351
4.01373
3.95263
3.80855
3.56682
3.33152
3.19807
3.16979
3.17683
3.14924
3.12579
3.06095
2.87681
2.64991
2.43428
2.2039
2.00064
1.86639
1.79753
1.75385
1.69653
1.6445
1.57629
1.45618
1.32855
1.23721
1.18674
1.15304
1.11108
1.07322
1.02415
0.937638
0.837843
0.741936
0.641105
0.546644
0.469607
0.40732
0.347523
0.278319
0.203513
0.120319
0.0217351
-0.0889277
-0.208342
-0.338567
-0.489173
-0.671766
-0.89472
-1.15224
-1.43684
-1.75364
-2.04743
-2.24163
-2.34997
-2.31167
-1.98195
-1.4548
-0.944608
-0.520946
-0.165434
0.890763
2.41871
3.56611
4.25966
4.36102
4.21508
4.02884
3.71523
3.41796
3.26603
3.25707
3.2898
3.25905
3.25375
3.20932
2.99303
2.73328
2.50615
2.24723
2.01866
1.88017
1.82532
1.79754
1.73965
1.69616
1.63625
1.49695
1.3481
1.25083
1.20803
1.18437
1.14238
1.11136
1.06988
0.973773
0.864039
0.765189
0.656468
0.555128
0.477364
0.419189
0.363828
0.294216
0.220078
0.138004
0.036778
-0.0772246
-0.198432
-0.328524
-0.479911
-0.66767
-0.904373
-1.1812
-1.48845
-1.85043
-2.19559
-2.41302
-2.55797
-2.56018
-2.17621
-1.54115
-0.965981
-0.519927
-0.163145
1.03245
2.72888
3.98187
4.73567
4.72173
4.47074
4.25425
3.8553
3.48386
3.31453
3.33575
3.40521
3.36115
3.38069
3.37113
3.10924
2.80929
2.57861
2.2852
2.02553
1.88372
1.84882
1.84286
1.77929
1.74752
1.70283
1.53711
1.36089
1.2576
1.22622
1.21651
1.17109
1.14908
1.11999
1.00995
0.887877
0.788612
0.670349
0.560555
0.482555
0.430253
0.381108
0.309982
0.236879
0.157173
0.0526818
-0.0651622
-0.187891
-0.316425
-0.466818
-0.658062
-0.908935
-1.20535
-1.53145
-1.9449
-2.352
-2.58526
-2.77335
-2.84244
-2.391
-1.61683
-0.971443
-0.508653
-0.157535
1.20691
3.07238
4.43224
5.27206
5.09176
4.7116
4.48912
3.98636
3.52552
3.34079
3.40593
3.52762
3.45211
3.5052
3.5526
3.22444
2.8747
2.65458
2.318
2.01967
1.87586
1.86828
1.89234
1.81387
1.79804
1.77934
1.57666
1.36545
1.25652
1.24138
1.25106
1.19612
1.18596
1.17651
1.04587
0.908304
0.81306
0.682767
0.562417
0.484838
0.440535
0.399994
0.325307
0.253681
0.178164
0.0693411
-0.0530756
-0.177163
-0.302512
-0.449951
-0.642544
-0.908453
-1.22527
-1.5633
-2.03587
-2.51993
-2.75472
-2.99186
-3.16737
-2.63052
-1.67562
-0.957314
-0.486083
-0.148457
1.42678
3.44975
4.9132
5.88365
5.46494
4.9267
4.74085
4.10766
3.5387
3.34178
3.4676
3.66378
3.5267
3.62485
3.76249
3.33673
2.92476
2.73854
2.3457
1.99918
1.85521
1.88388
1.94962
1.84094
1.84669
1.87034
1.61536
1.35996
1.24646
1.25352
1.29039
1.21578
1.22119
1.24232
1.08094
0.923785
0.839867
0.693716
0.560095
0.483834
0.450038
0.42139
0.339703
0.270162
0.201496
0.0866229
-0.0413237
-0.166752
-0.287043
-0.429429
-0.62059
-0.903046
-1.24224
-1.58073
-2.12174
-2.70458
-2.91651
-3.20674
-3.54693
-2.89996
-1.709
-0.919869
-0.451593
-0.135929
1.71048
3.86009
5.41672
6.59134
5.8324
5.10126
5.02113
4.21799
3.51843
3.31421
3.52039
3.82348
3.57727
3.73582
4.01307
3.44295
2.95271
2.83713
2.36815
1.96171
1.82023
1.89555
2.01985
1.85675
1.89167
1.98204
1.65245
1.34221
1.22622
1.26253
1.33789
1.22754
1.25354
1.32144
1.11414
0.932149
0.871038
0.703112
0.552831
0.479149
0.4587
0.446573
0.352427
0.285878
0.22793
0.104339
-0.0302791
-0.157222
-0.27027
-0.405471
-0.591503
-0.892834
-1.25851
-1.57946
-2.20012
-2.91393
-3.06427
-3.40779
-3.99714
-3.2057
-1.70544
-0.855651
-0.40512
-0.120157
2.08457
4.30044
5.9291
7.42443
6.18156
5.21556
5.34764
4.31516
3.45902
3.25468
3.56306
4.02064
3.59294
3.83238
4.32123
3.5381
2.94919
2.96002
2.38459
1.90449
1.76929
1.90279
2.1103
1.85589
1.93023
2.12286
1.68639
1.30955
1.19459
1.26802
1.39838
1.2278
1.28112
1.41938
1.14387
0.930407
0.909513
0.710701
0.539715
0.470389
0.466339
0.477315
0.362395
0.300242
0.258548
0.122205
-0.0203117
-0.149206
-0.252414
-0.378432
-0.554347
-0.877846
-1.27766
-1.55399
-2.26752
-3.15964
-3.18993
-3.58014
-4.53927
-3.55537
-1.64948
-0.761919
-0.34728
-0.101531
2.58673
4.76496
6.42895
8.42354
6.49501
5.2437
5.74599
4.39505
3.35403
3.15988
3.59286
4.27466
3.55863
3.90631
4.71001
3.61477
2.90151
3.12092
2.3933
1.82429
1.70074
1.90428
2.23097
1.83081
1.95841
2.30408
1.71449
1.259
1.15043
1.2691
1.4785
1.21154
1.30125
1.54367
1.16776
0.914533
0.959489
0.715929
0.519679
0.457207
0.472558
0.516047
0.368054
0.312494
0.294859
0.139776
-0.0117637
-0.143415
-0.233629
-0.34887
-0.507889
-0.857852
-1.30508
-1.4973
-2.31874
-3.45831
-3.28346
-3.70288
-5.20132
-3.9579
-1.52071
-0.637278
-0.279458
-0.080619
3.26944
5.24393
6.88459
9.64421
6.74897
5.15208
6.25222
4.45052
3.1964
3.02684
3.60455
4.6121
3.45394
3.94622
5.2102
3.66231
2.7929
3.33884
2.39094
1.71752
1.6131
1.89741
2.39554
1.77119
1.97064
2.54064
1.73232
1.18722
1.09287
1.26403
1.58735
1.1719
1.31021
1.70438
1.18235
0.87922
1.02681
0.717756
0.491492
0.439359
0.476626
0.566058
0.367243
0.321673
0.338906
0.156369
-0.00491214
-0.140656
-0.213952
-0.317627
-0.450538
-0.832139
-1.34852
-1.40052
-2.3462
-3.83275
-3.3327
-3.74727
-6.01975
-4.42352
-1.29257
-0.482508
-0.203817
-0.0581212
4.20449
5.72261
7.25113
11.1611
6.91158
4.89774
6.91573
4.46973
2.97863
2.85343
3.58918
5.0687
3.25182
3.9367
5.8624
3.66586
2.60157
3.63962
2.37174
1.58026
1.50528
1.87765
2.62235
1.66327
1.95947
2.85212
1.73314
1.09074
1.02144
1.2498
1.73716
1.09979
1.303
1.91473
1.1828
0.817612
1.11945
0.714411
0.45379
0.416781
0.477314
0.631728
0.357018
0.326595
0.393413
0.170952
8.25542e-05
-0.141855
-0.193236
-0.285929
-0.380308
-0.7992
-1.41875
-1.25271
-2.339
-4.31361
-3.32322
-3.67485
-7.04154
-4.96363
-0.930953
-0.301608
-0.123219
-0.0348224
5.48823
6.17979
7.46702
13.073
6.94071
4.4266
7.80262
4.43414
2.69317
2.63895
3.53246
5.69173
2.91713
3.85749
6.71917
3.60529
2.29978
4.05765
2.32649
1.40852
1.37691
1.83774
2.93559
1.48914
1.91511
3.26375
1.70703
0.966103
0.936319
1.22158
1.94403
0.98335
1.27304
2.1919
1.16254
0.721017
1.24803
0.703075
0.405112
0.389693
0.472688
0.718816
0.333455
0.325834
0.461928
0.182012
0.00324651
-0.148094
-0.171068
-0.255507
-0.294791
-0.75634
-1.5303
-1.04055
-2.28187
-4.94103
-3.23826
-3.43511
-8.3264
-5.59061
-0.39277
-0.10308
-0.0410284
-0.0115233
)
;

boundaryField
{
    left
    {
        type            calculated;
        value           uniform 0;
    }
    right
    {
        type            calculated;
        value           uniform 0;
    }
    interface
    {
        type            calculated;
        value           nonuniform List<scalar> 
64
(
5.48823
6.17979
7.46702
13.073
6.94071
4.4266
7.80262
4.43414
2.69317
2.63895
3.53246
5.69173
2.91713
3.85749
6.71917
3.60529
2.29978
4.05765
2.32649
1.40852
1.37691
1.83774
2.93559
1.48914
1.91511
3.26375
1.70703
0.966103
0.936319
1.22158
1.94403
0.98335
1.27304
2.1919
1.16254
0.721017
1.24803
0.703075
0.405112
0.389693
0.472688
0.718816
0.333455
0.325834
0.461928
0.182012
0.00324651
-0.148094
-0.171068
-0.255507
-0.294791
-0.75634
-1.5303
-1.04055
-2.28187
-4.94103
-3.23826
-3.43511
-8.3264
-5.59061
-0.39277
-0.10308
-0.0410284
-0.0115233
)
;
    }
    bottom
    {
        type            calculated;
        value           nonuniform List<scalar> 
64
(
0.00709034
0.0210414
0.0343155
0.0465313
0.0574052
0.0667522
0.0744936
0.0806417
0.0852773
0.0885254
0.0905331
0.0914529
0.0914325
0.09061
0.0891141
0.0870649
0.0845753
0.0817513
0.0786901
0.0754777
0.0721866
0.0688742
0.0655822
0.0623385
0.0591591
0.0560513
0.0530156
0.0500483
0.0471415
0.0442847
0.0414644
0.0386657
0.0358726
0.03307
0.030244
0.0273829
0.0244769
0.0215174
0.0184964
0.0154055
0.0122359
0.00897824
0.00562459
0.0021699
-0.00138524
-0.00503157
-0.0087479
-0.0124978
-0.0162267
-0.0198592
-0.0232987
-0.0264277
-0.029112
-0.0312073
-0.032569
-0.0330652
-0.0325904
-0.0310789
-0.0285151
-0.0249396
-0.0204492
-0.0151915
-0.00935526
-0.00315921
)
;
    }
    defaultFaces
    {
        type            empty;
    }
}


// ************************************************************************* //
