/*--------------------------------*- C++ -*----------------------------------*\
| =========                 |                                                 |
| \\      /  F ield         | OpenFOAM: The Open Source CFD Toolbox           |
|  \\    /   O peration     | Version:  5.x                                   |
|   \\  /    A nd           | Web:      www.OpenFOAM.org                      |
|    \\/     M anipulation  |                                                 |
\*---------------------------------------------------------------------------*/
FoamFile
{
    version     2.0;
    format      ascii;
    class       volScalarField;
    location    "13";
    object      gradTy;
}
// * * * * * * * * * * * * * * * * * * * * * * * * * * * * * * * * * * * * * //

dimensions      [0 -1 0 1 0 0 0];

internalField   nonuniform List<scalar> 
6300
(
1006.62
1020.02
1033.9
1048.55
1064.27
1081.33
1099.98
1120.44
1142.86
1167.35
1193.94
1222.6
1253.18
1285.49
1319.22
-0.236493
-0.705963
-1.16454
-1.60386
-2.01401
-2.38312
-2.69723
-2.94052
-3.09619
-3.14796
-3.0823
-2.89114
-2.5747
-2.14352
-1.61885
-0.398073
-1.18873
-1.96233
-2.70556
-3.40235
-4.03305
-4.57409
-4.99819
-5.27566
-5.3769
-5.27632
-4.95743
-4.41833
-3.67612
-2.7683
-0.565145
-1.68856
-2.79047
-3.85367
-4.85673
-5.77261
-6.56784
-7.20243
-7.63129
-7.8076
-7.68859
-7.24386
-6.465
-5.37427
-4.02855
-0.739083
-2.20987
-3.65732
-5.06192
-6.39825
-7.6328
-8.72219
-9.61236
-10.2394
-10.5336
-10.4265
-9.86438
-8.82349
-7.32743
-5.45683
-0.920396
-2.75449
-4.56697
-6.33838
-8.04149
-9.63808
-11.0757
-12.2853
-13.1805
-13.6606
-13.6196
-12.9635
-11.637
-9.65499
-7.12666
-1.10841
-3.32071
-5.51768
-7.68309
-9.79121
-11.8022
-13.6572
-15.2725
-16.5365
-17.3086
-17.4275
-16.7329
-15.1061
-12.5288
-9.14049
-1.30093
-3.90223
-6.4999
-9.08501
-11.6379
-14.1224
-16.4781
-18.611
-20.3842
-21.6096
-22.0489
-21.4344
-19.5257
-16.2135
-11.6526
-1.49402
-4.48732
-7.49463
-10.519
-13.553
-16.5714
-19.5215
-22.309
-24.7795
-26.6965
-27.7239
-27.43
-25.3485
-21.1467
-14.9182
-1.68184
-5.05837
-8.47219
-11.9434
-15.4835
-19.0885
-22.7273
-26.324
-29.7281
-32.6727
-34.72
-35.2129
-33.2917
-28.1066
-19.41
-1.85678
-5.59209
-9.39227
-13.2988
-17.3491
-21.5715
-25.9752
-30.5313
-35.1359
-39.546
-43.2702
-45.4097
-44.4987
-38.5779
-26.1419
-2.00994
-6.0609
-10.2059
-14.5103
-19.0424
-23.8729
-29.0706
-34.6897
-40.7379
-47.1049
-53.4047
-58.6567
-60.7152
-55.5641
-37.7321
-2.13199
-6.43557
-10.8602
-15.494
-20.437
-25.8068
-31.7444
-38.4186
-46.0209
-54.7306
-64.5867
-75.0969
-84.1407
-85.231
-62.5102
-2.21441
-6.68916
-11.3051
-16.1684
-21.4048
-27.1727
-33.6814
-41.219
-50.1961
-61.2093
-75.114
-93.0027
-115.519
-138.708
-132.738
-2.25087
-6.80148
-11.5027
-16.4694
-21.8408
-27.7977
-34.5891
-42.5794
-52.3348
-64.796
-81.6568
-106.28
-146.224
-221.343
-394.313
1351.13
1380.63
1410.38
1440.15
1469.7
1498.82
1527.31
1555
1581.74
1607.41
1631.91
1655.14
1677.06
1697.6
1716.74
1734.43
1750.68
1765.45
1778.76
1790.59
1800.95
1809.86
1817.31
1823.34
1827.95
1831.17
1833.02
1833.51
1832.68
1830.55
1827.15
1822.5
1816.62
1809.54
1801.29
1791.89
1781.37
1769.74
1757.03
1743.27
1728.49
1712.69
1695.92
1678.19
1659.54
1639.98
1619.54
1598.25
1576.12
1553.18
1529.44
1504.93
1479.66
1453.65
1426.92
1399.48
1371.36
1342.57
1313.14
1283.09
1252.45
1221.26
1189.52
1157.28
1124.56
1091.4
1057.82
1023.87
989.58
954.997
920.172
885.161
850.027
814.841
779.679
744.625
709.767
675.196
641.005
607.288
574.138
541.645
509.895
478.966
448.931
419.854
391.786
364.769
338.828
313.977
-1.07988
-0.568297
-0.0555287
0.43991
0.902938
1.32277
1.69308
2.0116
2.27936
2.4997
2.67741
2.8179
2.92658
3.00844
3.06786
3.1085
3.13333
3.14473
3.14462
3.13455
3.11583
3.08961
3.05689
3.01863
2.97569
2.9289
2.87905
2.8269
2.77316
2.7185
2.66353
2.60876
2.55455
2.50113
2.44854
2.39663
2.34515
2.2937
2.24191
2.18947
2.13622
2.08223
2.0278
1.97345
1.91988
1.86783
1.81801
1.77093
1.72681
1.68553
1.64657
1.60912
1.57209
1.53435
1.49477
1.45249
1.40692
1.35785
1.30543
1.25003
1.19216
1.13223
1.07041
1.00643
0.939516
0.868368
0.791212
0.705964
0.610453
0.502675
0.381056
0.244668
0.0933802
-0.0720785
-0.250153
-0.438571
-0.634506
-0.834768
-1.03597
-1.23467
-1.42743
-1.61084
-1.78149
-1.93597
-2.07084
-2.18276
-2.26867
-2.32607
-2.35333
-2.34994
-1.83446
-0.949342
-0.0652409
0.784541
1.57349
2.28334
2.90419
3.43349
3.87442
4.23405
4.52163
4.74714
4.92027
5.04972
5.1429
5.20587
5.24342
5.25936
5.25666
5.23777
5.20475
5.1594
5.10338
5.0382
4.9653
4.88606
4.80177
4.7137
4.62306
4.53101
4.43859
4.3467
4.25601
4.16692
4.07947
3.99342
3.90819
3.82306
3.73724
3.65008
3.56124
3.47077
3.37921
3.28754
3.19706
3.10922
3.02538
2.94656
2.87325
2.80524
2.74164
2.68091
2.62106
2.5599
2.49537
2.42581
2.3502
2.26822
2.18023
2.08713
1.99003
1.88992
1.7873
1.68191
1.57249
1.45674
1.33146
1.19285
1.03686
0.859737
0.658519
0.431416
0.178115
-0.100123
-0.400531
-0.719061
-1.05071
-1.38987
-1.73072
-2.06737
-2.39408
-2.7052
-2.99509
-3.25803
-3.48813
-3.67953
-3.8267
-3.92496
-3.97118
-3.96429
-2.64095
-1.32872
-0.0253044
1.21703
2.35819
3.37236
4.24746
4.98297
5.58689
6.0725
6.45558
6.75219
6.97725
7.14362
7.26184
7.34021
7.38505
7.40121
7.39243
7.36177
7.31184
7.24501
7.16348
7.06932
6.96452
6.85094
6.7304
6.60466
6.47547
6.3445
6.21334
6.08337
5.95564
5.83078
5.70888
5.58946
5.47156
5.35386
5.23494
5.11358
4.98905
4.86134
4.73124
4.60036
4.47088
4.34529
4.22595
4.11469
4.01245
3.91902
3.83299
3.75185
3.67229
3.59068
3.50357
3.40823
3.30302
3.18758
3.06275
2.93034
2.79257
2.65153
2.50851
2.36351
2.21486
2.05911
1.89122
1.70503
1.49395
1.25176
0.973506
0.656135
0.298997
-0.0960126
-0.524594
-0.980448
-1.45587
-1.94237
-2.4313
-2.9142
-3.38301
-3.82997
-4.24736
-4.6272
-4.96101
-5.23988
-5.45501
-5.59866
-5.66538
-5.6531
-3.5206
-1.69544
0.102565
1.79516
3.32577
4.66164
5.79174
6.722
7.4698
8.05868
8.5141
8.86037
9.11881
9.30692
9.43826
9.5229
9.56808
9.57906
9.55982
9.51361
9.44338
9.3519
9.24188
9.11591
8.97648
8.82597
8.66664
8.50075
8.33057
8.15842
7.98653
7.81695
7.65129
7.49055
7.33486
7.18349
7.0348
6.88657
6.73631
6.5818
6.42161
6.25549
6.08456
5.91131
5.73926
5.57252
5.41504
5.26999
5.13912
5.0223
4.91746
4.82066
4.72664
4.62954
4.52378
4.40502
4.27073
4.12059
3.95636
3.78141
3.59997
3.41612
3.23272
3.05052
2.8676
2.67908
2.47745
2.25319
1.99595
1.69586
1.34494
0.93824
0.474536
-0.0434372
-0.609261
-1.21354
-1.84494
-2.49126
-3.14044
-3.78121
-4.40329
-4.99719
-5.55358
-6.06256
-6.51291
-6.89192
-7.18615
-7.38305
-7.47323
-7.45275
-4.49365
-2.02289
0.382353
2.60671
4.57388
6.24738
7.62395
8.72399
9.5818
10.2373
10.7301
11.0953
11.362
11.5523
11.6823
11.7627
11.8007
11.8008
11.7664
11.7004
11.6059
11.4859
11.3436
11.1823
11.0048
10.8141
10.6127
10.4034
10.189
9.97238
9.75683
9.54531
9.34032
9.14347
8.95509
8.77407
8.59783
8.42265
8.24423
8.05864
7.86316
7.657
7.44167
7.22095
7.00046
6.78682
6.58665
6.40532
6.24595
6.10876
5.99074
5.88587
5.78584
5.68123
5.56311
5.42452
5.26164
5.07427
4.86573
4.64216
4.4112
4.1804
3.9555
3.7389
3.52869
3.31825
3.09655
2.84914
2.55993
2.21341
1.79697
1.30269
0.728477
0.0782918
-0.638301
-1.40736
-2.21229
-3.03578
-3.86146
-4.67491
-5.46394
-6.21819
-6.92788
-7.58217
-8.16732
-8.66585
-9.05728
-9.32093
-9.4403
-9.40771
-5.57775
-2.25603
0.922569
3.78851
6.24477
8.26052
9.85419
11.0746
11.9849
12.6503
13.1297
13.4722
13.715
13.8845
13.9976
14.0638
14.0879
14.0722
14.0184
13.9284
13.805
13.6519
13.4729
13.2718
13.0523
12.8176
12.5703
12.3135
12.0504
11.7849
11.5214
11.2643
11.0177
10.7843
10.5648
10.3579
10.1594
9.96346
9.76259
9.54983
9.32019
9.07182
8.80665
8.53039
8.25187
7.98186
7.73127
7.50913
7.32099
7.16774
7.04521
6.94424
6.85174
6.75251
6.63202
6.47914
6.28793
6.05853
5.79688
5.51366
5.22229
4.93632
4.66646
4.41821
4.19023
3.97376
3.75278
3.50541
3.20656
2.83176
2.36117
1.78236
1.09193
0.29576
-0.591679
-1.54939
-2.55276
-3.57702
-4.59997
-5.60361
-6.57453
-7.50319
-8.38181
-9.20116
-9.94632
-10.5938
-11.1123
-11.4664
-11.626
-11.5759
-6.78122
-2.28317
1.91282
5.56003
8.54968
10.881
12.6213
13.8712
14.7402
15.3303
15.726
15.992
16.1731
16.2975
16.3798
16.4249
16.4318
16.398
16.3218
16.2038
16.0466
15.8547
15.6332
15.3874
15.1213
14.8384
14.5412
14.2322
13.9149
13.5941
13.2761
12.9678
12.6756
12.4044
12.156
11.9289
11.7171
11.5109
11.2976
11.0649
10.8038
10.5104
10.1872
9.84265
9.49065
9.14856
8.83452
8.56361
8.34541
8.18216
8.06828
7.99009
7.927
7.85409
7.74728
7.58862
7.36891
7.08895
6.75881
6.39661
6.02534
5.66878
5.34605
5.06807
4.83498
4.63554
4.44678
4.23561
3.96233
3.58786
3.08103
2.4226
1.60746
0.644505
-0.443997
-1.6258
-2.86326
-4.12024
-5.36631
-6.57945
-7.746
-8.86021
-9.92106
-10.9269
-11.8658
-12.7076
-13.4037
-13.892
-14.1136
-14.038
-8.08491
-1.87563
3.69295
8.278
11.8021
14.3521
16.094
17.2154
17.8963
18.289
18.5081
18.6329
18.7117
18.7701
18.8146
18.8398
18.8333
18.7838
18.6844
18.5344
18.337
18.0989
17.8277
17.5307
17.2135
16.8788
16.5278
16.1617
15.7832
15.3982
15.0157
14.6469
14.3023
13.9906
13.7156
13.4767
13.2657
13.0674
12.8596
12.6199
12.3327
11.9909
11.5975
11.1647
10.7142
10.274
9.87475
9.54129
9.28983
9.12463
9.03911
9.01336
9.01559
9.00367
8.93642
8.78523
8.5359
8.19089
7.76615
7.29194
6.8065
6.35183
5.96056
5.65265
5.43064
5.28134
5.17248
5.05466
4.86329
4.53403
4.01869
3.28801
2.33538
1.1736
-0.162367
-1.62246
-3.14598
-4.6795
-6.18034
-7.62263
-8.99305
-10.2942
-11.5396
-12.7492
-13.9253
-15.0314
-15.9941
-16.7014
-17.0293
-16.9138
-9.38476
-0.545832
6.88885
12.5232
16.4568
18.9864
20.4599
21.1935
21.4667
21.4973
21.4255
21.3392
21.2791
21.262
21.2765
21.2999
21.2959
21.2407
21.1195
20.9325
20.6854
20.3901
20.0586
19.7027
19.3302
18.942
18.5356
18.1084
17.6602
17.1983
16.7349
16.2905
15.8814
15.5231
15.2228
14.9837
14.7956
14.637
14.4669
14.2427
13.94
13.5452
13.0643
12.5116
11.9226
11.3398
10.8199
10.4005
10.1096
9.95198
9.9235
9.99594
10.1242
10.2326
10.2461
10.1228
9.84033
9.40732
8.84443
8.20316
7.54304
6.94332
6.45474
6.11328
5.92134
5.86866
5.91082
5.97939
5.96256
5.74793
5.2662
4.47285
3.36431
1.95339
0.297869
-1.52789
-3.4144
-5.28588
-7.07873
-8.76934
-10.3398
-11.8086
-13.2097
-14.6195
-16.0853
-17.5615
-18.9524
-20.057
-20.5833
-20.3954
-10.2889
2.80591
12.6769
19.2172
23.133
25.1416
25.8914
25.8352
25.3869
24.8537
24.3645
24.0085
23.7852
23.7092
23.7262
23.8004
23.8329
23.7934
23.65
23.4179
23.104
22.7344
22.3254
21.8995
21.4704
21.0325
20.5743
20.0861
19.5581
19.0013
18.428
17.8842
17.3881
16.9734
16.6428
16.4183
16.2839
16.2244
16.1532
15.9797
15.6808
15.2245
14.6357
13.9116
13.1233
12.3162
11.6213
11.0757
10.7387
10.5943
10.6635
10.8991
11.2624
11.599
11.7537
11.6906
11.3624
10.8117
10.0365
9.1424
8.19349
7.37561
6.73791
6.35943
6.21228
6.32016
6.61187
7.0278
7.34737
7.34712
6.96311
6.11223
4.82932
3.08604
1.00391
-1.34517
-3.70381
-6.00483
-8.12372
-10.0885
-11.8323
-13.4198
-14.8668
-16.4088
-18.2299
-20.214
-22.3223
-24.2449
-25.1651
-24.8109
-9.29678
10.8001
23.2612
29.6901
32.5548
33.1084
32.4828
31.0407
29.4285
28.1458
27.1111
26.4857
26.0784
26.0216
26.0926
26.36
26.4728
26.495
26.3075
26.0204
25.602
25.1345
24.6156
24.1003
23.6222
23.1516
22.6552
22.1205
21.4966
20.8274
20.0778
19.4085
18.7771
18.3015
17.9095
17.7224
17.6638
17.828
17.986
17.8965
17.6476
17.0941
16.4012
15.4033
14.3505
13.1305
12.2071
11.4498
11.0898
10.9287
11.1635
11.6178
12.4388
13.2266
13.5746
13.6395
13.2045
12.5389
11.3991
10.1602
8.65485
7.54805
6.6474
6.2721
6.13562
6.5066
7.1337
8.21463
9.19239
9.4986
9.33199
8.37342
6.95699
4.70638
2.09412
-1.1489
-4.07637
-6.98618
-9.39078
-11.7258
-13.5499
-15.2334
-16.387
-17.7959
-20.1397
-22.6874
-25.9594
-29.8762
-31.5819
-30.7555
-0.0199261
29.7892
42.5316
45.2954
45.3043
42.773
40.2492
36.4906
32.9949
31.08
29.2676
28.6484
27.8664
28.1493
28.1757
29.1415
29.2426
29.4978
29.1079
28.8112
28.1702
27.6079
26.9002
26.2469
25.7626
25.3073
24.7908
24.2828
23.4997
22.7689
21.6112
20.8779
19.9412
19.5088
18.8807
18.841
18.7222
19.4401
20.1746
20.0426
20.0525
19.1641
18.6056
16.9735
15.8181
13.5174
12.5535
11.2515
11.1542
10.6926
11.3471
11.8079
13.6628
15.4873
15.8027
16.3078
15.3784
14.9487
12.9043
11.5613
8.54206
7.4234
5.80014
5.84066
5.328
6.324
7.0018
9.54979
12.0042
12.3307
12.8411
11.2937
10.2857
6.84732
4.09247
-1.4071
-4.47445
-8.69506
-10.7581
-14.0986
-15.47
-17.8097
-17.5397
-17.8367
-21.7556
-24.1177
-28.6678
-38.6909
-41.6448
-39.3337
48.1368
73.3533
76.1699
64.8666
61.7112
52.4261
49.7932
41.5618
34.2849
33.8663
29.7059
31.0453
28.121
30.6463
28.9057
33.1682
31.7905
33.4292
31.7742
32.0975
30.6253
30.2906
29.1064
28.1503
27.8612
27.5513
26.9141
26.8415
25.4275
25.3252
22.5336
22.6403
20.3793
20.9983
19.0047
20.0737
18.5759
21.0286
23.6111
21.9845
23.7513
20.7592
22.3564
17.8573
18.9351
11.9796
13.3871
9.31863
11.7434
8.84965
11.81
9.99095
14.931
19.9212
17.7579
21.0422
16.8328
19.684
13.3996
15.3766
5.6927
8.02567
2.5574
6.20608
2.34821
6.5999
4.17707
11.0199
17.8805
14.8981
19.3135
13.4375
17.1143
8.0042
10.0434
-5.1674
-3.21154
-13.5104
-10.2856
-19.3067
-15.9952
-24.1438
-17.8757
-12.6613
-25.6129
-22.397
-23.4945
-57.6847
-59.2889
-52.588
296.763
149.172
130.139
72.7034
86.9432
52.4986
67.3977
45.2573
25.6979
42.0398
22.2235
39.5807
20.5273
39.2852
20.9902
45.3158
29.9936
42.1025
31.5906
37.9681
31.4412
34.1954
30.983
29.0919
29.9888
30.2656
28.2232
31.3307
25.4653
31.7531
19.2816
27.8112
16.6692
26.249
14.7174
25.0018
12.7402
22.4291
33.108
19.0392
34.3018
15.7447
34.8852
10.7097
33.6195
-1.60169
22.1055
-1.96513
19.9908
-1.42376
19.1544
-1.5596
16.1261
34.6556
11.8681
36.5667
8.11926
37.5739
1.99792
35.983
-14.4614
19.8613
-13.8142
17.3805
-12.3097
16.4867
-11.9905
12.4638
37.9303
6.81216
40.605
1.82464
42.3555
-6.89432
40.8342
-33.648
15.698
-37.8001
7.82104
-42.2735
-0.0180674
-51.2376
-16.6942
18.673
-52.7514
-14.4648
29.3326
-123.602
-88.8916
-74.7382
287.838
260.866
235.384
211.315
188.564
167.023
146.577
127.104
108.481
90.5866
73.3014
56.5087
40.0953
23.9504
7.96572
-2.31336
-2.23361
-2.11966
-1.97842
-1.81723
-1.643
-1.46171
-1.27806
-1.09545
-0.916056
-0.740983
-0.57048
-0.404142
-0.241088
-0.080124
-3.89977
-3.76064
-3.56304
-3.31954
-3.04321
-2.74622
-2.43883
-2.12896
-1.82221
-1.52198
-1.22991
-0.946184
-0.669927
-0.399495
-0.132746
-5.55486
-5.34608
-5.05227
-4.69342
-4.28982
-3.85981
-3.41838
-2.97674
-2.5424
-2.11973
-1.71047
-1.31441
-0.929878
-0.554214
-0.184108
-7.31147
-7.01645
-6.60648
-6.11198
-5.56279
-4.98477
-4.39812
-3.81716
-3.25092
-2.70404
-2.17782
-1.67109
-1.18095
-0.70337
-0.233577
-9.20883
-8.80167
-8.24511
-7.58512
-6.86452
-6.11829
-5.3721
-4.64283
-3.94002
-3.26765
-2.62565
-2.01115
-1.41946
-0.844726
-0.280406
-11.2963
-10.7362
-9.98705
-9.11876
-8.19176
-7.25169
-6.32911
-5.44196
-4.59864
-3.80087
-3.04594
-2.32837
-1.64099
-0.975661
-0.323724
-13.6386
-12.8595
-11.848
-10.711
-9.53197
-8.36749
-7.2506
-6.19719
-5.21165
-4.29118
-3.42884
-2.61538
-1.84045
-1.09319
-0.362548
-16.3241
-15.2152
-13.8345
-12.345
-10.8576
-9.43557
-8.1085
-6.88448
-5.75951
-4.72333
-3.76281
-2.86384
-2.01223
-1.19408
-0.395826
-19.4748
-17.8427
-15.9295
-13.9769
-12.1176
-10.4086
-8.86325
-7.47263
-6.21852
-5.07975
-4.03517
-3.06489
-2.15053
-1.27505
-0.422496
-23.2532
-20.7509
-18.0637
-15.5152
-13.2271
-11.218
-9.46313
-7.92416
-6.56212
-5.34191
-4.23319
-3.20999
-2.2499
-1.3331
-0.441595
-27.8343
-23.8437
-20.0592
-16.7928
-14.0575
-11.7731
-9.84699
-8.19864
-6.76382
-5.49252
-4.34562
-3.29196
-2.30594
-1.36584
-0.452372
-33.2189
-26.7301
-21.5362
-17.5392
-14.4367
-11.9697
-9.95296
-8.25949
-6.80192
-5.51866
-4.36477
-3.30622
-2.31605
-1.37194
-0.454414
-38.4211
-28.3212
-21.8162
-17.3907
-14.1803
-11.716
-9.73553
-8.08433
-6.66563
-5.41534
-4.28854
-3.25206
-2.28008
-1.35143
-0.447754
-38.268
-26.3169
-20.0166
-16.0268
-13.1776
-10.9782
-9.18874
-7.67655
-6.36086
-5.18847
-4.12193
-3.13335
-2.20075
-1.30592
-0.432924
-2.24327
-6.77792
-11.461
-16.4056
-21.7492
-27.6706
-34.4166
-42.3498
-52.0365
-64.4276
-81.2595
-106.047
-146.821
-224.444
-399.733
-2.1995
-6.64285
-11.2226
-16.0418
-21.2232
-26.9228
-33.3491
-40.7943
-49.6851
-60.6655
-74.717
-93.2408
-117.505
-143.935
-135.729
-2.12492
-6.41297
-10.818
-15.4263
-20.3371
-25.6702
-31.5738
-38.2346
-45.8821
-54.7702
-65.0684
-76.4472
-86.6855
-87.4777
-54.5386
-2.02379
-6.1018
-10.2723
-14.6006
-19.1578
-24.0211
-29.2725
-34.9895
-41.2174
-47.8953
-54.6687
-60.445
-62.4253
-54.444
-26.2213
-1.90152
-5.72639
-9.61674
-13.616
-17.7658
-22.1024
-26.6476
-31.3893
-36.2401
-40.9536
-44.961
-47.0781
-45.0824
-35.4667
-14.7233
-1.76408
-5.30547
-8.88558
-12.5266
-16.2439
-20.0386
-23.8862
-27.7132
-31.3579
-34.5023
-36.5658
-36.567
-33.0308
-24.2169
-9.26887
-1.61745
-4.85762
-8.11202
-11.3844
-14.668
-17.9381
-21.1389
-24.1634
-26.8228
-28.8012
-29.6028
-28.5122
-24.6438
-17.2268
-6.30726
-1.46714
-4.39985
-7.32595
-10.2342
-13.1015
-15.8856
-18.5138
-20.8671
-22.7603
-23.9172
-23.9534
-22.3865
-18.7209
-12.6688
-4.52272
-1.3179
-3.94665
-6.55226
-9.11228
-11.5927
-13.9414
-16.0794
-17.8903
-19.2089
-19.8113
-19.4172
-17.7179
-14.4551
-9.56482
-3.36274
-1.17354
-3.50949
-5.81018
-8.0456
-10.1753
-12.1434
-13.872
-15.2554
-16.1547
-16.3972
-15.787
-14.1352
-11.3194
-7.37178
-2.56621
-1.03689
-3.09679
-5.1134
-7.05225
-8.87019
-10.5115
-11.9042
-12.9566
-13.5565
-13.5753
-12.8802
-11.3607
-8.96962
-5.77448
-1.99663
-0.909871
-2.71413
-4.47058
-6.14282
-7.68761
-9.05232
-10.1727
-10.9719
-11.3619
-11.249
-10.5458
-9.19127
-7.17819
-4.58181
-1.57662
-0.793599
-2.36465
-3.88621
-5.32184
-6.63005
-7.76272
-8.66414
-9.27129
-9.51638
-9.33249
-8.66359
-7.47917
-5.79179
-3.673
-1.2594
-0.688536
-2.04952
-3.36149
-4.5893
-5.69434
-6.63367
-7.35987
-7.82207
-7.96874
-7.75277
-7.13936
-6.11628
-4.70494
-2.96891
-1.01524
-0.594639
-1.76842
-2.89518
-3.94198
-4.87366
-5.65257
-6.23887
-6.59192
-6.67288
-6.44899
-5.89957
-5.02299
-3.84355
-2.41592
-0.824428
-0.511502
-1.51994
-2.4844
-3.37458
-4.15904
-4.80517
-5.27982
-5.55068
-5.58865
-5.37124
-4.88694
-4.13997
-3.15449
-1.97669
-0.673446
-0.438474
-1.30201
-2.12516
-2.88058
-3.54045
-4.07682
-4.46224
-4.67114
-4.68174
-4.47879
-4.05667
-3.42256
-2.59896
-1.62458
-0.552767
-0.374756
-1.11211
-1.81296
-2.4529
-3.00761
-3.45327
-3.76723
-3.92925
-3.92309
-3.73852
-3.37359
-2.83672
-2.14813
-1.34011
-0.455502
-0.319479
-0.947555
-1.54303
-2.08438
-2.55049
-2.92114
-3.1777
-3.30414
-3.2883
-3.12346
-2.80989
-2.35621
-1.78023
-1.1088
-0.376566
-0.271756
-0.805631
-1.31069
-1.76809
-2.15963
-2.46822
-2.67852
-2.7778
-2.75696
-2.61167
-2.34347
-1.96062
-1.4786
-0.919722
-0.312138
-0.230724
-0.683711
-1.11144
-1.49753
-1.82637
-2.08354
-2.25641
-2.33485
-2.31203
-2.18522
-1.95663
-1.6339
-1.23032
-0.764461
-0.259301
-0.195567
-0.579324
-0.941096
-1.26673
-1.54286
-1.75738
-1.89986
-1.96222
-1.93929
-1.82944
-1.63516
-1.36332
-1.02527
-0.63649
-0.215794
-0.16553
-0.490199
-0.795842
-1.07028
-1.30214
-1.48122
-1.59894
-1.6488
-1.62688
-1.53229
-1.36753
-1.1387
-0.855453
-0.530676
-0.179851
-0.139932
-0.414284
-0.672251
-0.903401
-1.09806
-1.24767
-1.34514
-1.38522
-1.36494
-1.28386
-1.14439
-0.951864
-0.714469
-0.442947
-0.150072
-0.118158
-0.349745
-0.567278
-0.761851
-0.925265
-1.05033
-1.13117
-1.16356
-1.1452
-1.07596
-0.958082
-0.796179
-0.59718
-0.370044
-0.12534
-0.0996695
-0.294963
-0.478246
-0.641935
-0.779092
-0.88368
-0.950838
-0.97713
-0.960777
-0.901842
-0.80234
-0.666251
-0.499424
-0.30934
-0.104755
-0.0839893
-0.248519
-0.402816
-0.540441
-0.65553
-0.743021
-0.79888
-0.820308
-0.805922
-0.755888
-0.671999
-0.557665
-0.417817
-0.258702
-0.0875914
-0.0707037
-0.209179
-0.338961
-0.454594
-0.551129
-0.624323
-0.670827
-0.688353
-0.675816
-0.633438
-0.562795
-0.466794
-0.349587
-0.216392
-0.073255
-0.0594537
-0.175875
-0.28493
-0.382005
-0.462932
-0.524157
-0.562894
-0.577269
-0.566428
-0.530613
-0.471196
-0.390647
-0.292456
-0.180984
-0.0612607
-0.0499294
-0.147686
-0.239216
-0.320627
-0.388415
-0.439602
-0.471875
-0.483692
-0.474378
-0.444176
-0.394268
-0.326749
-0.244547
-0.151305
-0.0512093
-0.0418644
-0.123821
-0.200527
-0.268709
-0.325423
-0.36818
-0.395058
-0.404787
-0.396831
-0.37142
-0.329569
-0.273044
-0.204303
-0.126383
-0.0427709
-0.03503
-0.1036
-0.167757
-0.224751
-0.27212
-0.307784
-0.330146
-0.338162
-0.331401
-0.310079
-0.275056
-0.227822
-0.170431
-0.105415
-0.035672
-0.0292304
-0.0864426
-0.139958
-0.187478
-0.226943
-0.256623
-0.275193
-0.281795
-0.276083
-0.258248
-0.229022
-0.189653
-0.141852
-0.0877278
-0.029685
-0.0242977
-0.0718517
-0.116323
-0.155797
-0.18856
-0.213176
-0.228551
-0.233978
-0.22918
-0.214327
-0.190032
-0.157336
-0.117664
-0.0727615
-0.0246195
-0.0200881
-0.0594009
-0.0961586
-0.128774
-0.155832
-0.176146
-0.188814
-0.19326
-0.18926
-0.17696
-0.156873
-0.129863
-0.0971069
-0.0600445
-0.0203158
-0.0164779
-0.0487239
-0.0788695
-0.105611
-0.127786
-0.144424
-0.154787
-0.158406
-0.155102
-0.144999
-0.128522
-0.10638
-0.0795394
-0.0491786
-0.0166388
-0.0133606
-0.0395053
-0.0639438
-0.085618
-0.103585
-0.117058
-0.125442
-0.128358
-0.125664
-0.117463
-0.104103
-0.08616
-0.0644158
-0.0398256
-0.013474
-0.0106437
-0.0314711
-0.0509374
-0.0681988
-0.0825039
-0.0932267
-0.0998934
-0.102204
-0.100049
-0.0935105
-0.0828672
-0.0685786
-0.0512682
-0.0316956
-0.0107231
-0.00824624
-0.0243819
-0.0394619
-0.0528319
-0.0639099
-0.072211
-0.0773688
-0.0791523
-0.0774765
-0.0724077
-0.0641617
-0.0530952
-0.0396911
-0.0245375
-0.00830128
-0.00609653
-0.0180255
-0.0291735
-0.0390564
-0.0472439
-0.0533776
-0.057187
-0.0585019
-0.0572599
-0.0535108
-0.0474144
-0.0392348
-0.0293288
-0.0181309
-0.00613381
-0.00413014
-0.0122115
-0.0197634
-0.0264581
-0.0320038
-0.0361579
-0.0387372
-0.0396266
-0.0387841
-0.0362436
-0.0321136
-0.0265729
-0.0198634
-0.0122793
-0.00415414
-0.00228801
-0.00676491
-0.0109486
-0.0146575
-0.0177299
-0.0200315
-0.0214607
-0.0219537
-0.0214873
-0.0200801
-0.0177921
-0.0147225
-0.0110052
-0.00680334
-0.00230161
-0.000514701
-0.00152192
-0.0024635
-0.0032987
-0.00399122
-0.00451074
-0.00483423
-0.00494705
-0.00484367
-0.00452799
-0.00401331
-0.00332179
-0.0024836
-0.00153556
-0.000519527
0.0012432
0.00367549
0.00594776
0.00796098
0.00962731
0.0108739
0.011646
0.0119095
0.0116525
0.0108859
0.00964268
0.00797706
0.00596176
0.003685
0.00124657
0.00303868
0.008984
0.0145388
0.0194615
0.0235372
0.0265879
0.0284792
0.0291274
0.0285026
0.0266306
0.0235919
0.0195187
0.0145886
0.00901779
0.00305063
0.00492582
0.0145636
0.0235688
0.0315499
0.0381589
0.0431066
0.0461755
0.0472291
0.0462185
0.0431852
0.0382595
0.0316551
0.0236604
0.0146257
0.0049478
0.00696144
0.0205823
0.0333099
0.044591
0.0539339
0.0609299
0.0652709
0.0667638
0.0653387
0.0610537
0.0540924
0.0447567
0.0334542
0.0206802
0.00699608
0.00920674
0.0272212
0.0440552
0.0589776
0.0713383
0.0805963
0.0863438
0.0883242
0.0864445
0.0807803
0.0715737
0.0592238
0.0442696
0.0273667
0.00925821
0.0117291
0.0346795
0.0561277
0.0751428
0.0908968
0.1027
0.110032
0.112565
0.110178
0.102966
0.0912374
0.075499
0.0564379
0.03489
0.0118036
0.0146041
0.0431807
0.0698895
0.0935721
0.113198
0.127908
0.137052
0.140221
0.137261
0.128288
0.113685
0.0940812
0.0703327
0.0434816
0.0147105
0.0179174
0.0529788
0.0857521
0.114818
0.138912
0.15698
0.168222
0.172131
0.168517
0.15752
0.139604
0.115541
0.0863816
0.053406
0.0180685
0.0217677
0.0643654
0.104189
0.139515
0.168811
0.190791
0.204482
0.209264
0.204901
0.191556
0.169789
0.140539
0.10508
0.0649704
0.0219817
0.026269
0.0776781
0.125747
0.168401
0.203787
0.230356
0.246928
0.252747
0.24752
0.231438
0.205171
0.169848
0.127007
0.0785335
0.0265715
0.031554
0.09331
0.151065
0.202331
0.244885
0.276863
0.296839
0.303898
0.297676
0.278391
0.246841
0.204376
0.152845
0.0945184
0.0319814
0.0377775
0.11172
0.180888
0.24231
0.293327
0.331702
0.355719
0.364269
0.3569
0.333859
0.296088
0.245197
0.183402
0.113426
0.0383812
0.0451207
0.133444
0.216088
0.289513
0.350545
0.396508
0.425339
0.435691
0.427006
0.399554
0.354444
0.29359
0.219638
0.135854
0.0459731
0.0537956
0.159112
0.257688
0.34532
0.418226
0.473208
0.507787
0.520331
0.510141
0.477508
0.42373
0.351076
0.262701
0.162514
0.0549991
0.0640503
0.189458
0.306887
0.41135
0.498352
0.564072
0.605534
0.620755
0.608857
0.570143
0.506122
0.419477
0.313964
0.194261
0.0657493
0.0761744
0.225344
0.365088
0.489504
0.593253
0.671777
0.7215
0.740007
0.726191
0.680348
0.604223
0.500976
0.375079
0.232125
0.0785732
0.0905061
0.267772
0.433931
0.582006
0.705667
0.799477
0.859137
0.8817
0.865759
0.811576
0.721152
0.598201
0.448035
0.277346
0.0938927
0.107438
0.317913
0.515328
0.691458
0.838805
0.950888
1.02253
1.05013
1.03188
0.967967
0.860665
0.714321
0.53524
0.33143
0.11222
0.127426
0.377121
0.611502
0.820892
0.996425
1.13037
1.2165
1.25038
1.2297
1.15448
1.02728
0.853169
0.639615
0.396205
0.134177
0.150995
0.446961
0.725026
0.973834
1.18291
1.34306
1.44675
1.48852
1.46537
1.37709
1.22647
1.0194
0.764718
0.473907
0.160528
0.178747
0.52923
0.858862
1.15436
1.40337
1.59495
1.71999
1.77173
1.74627
1.64298
1.46486
1.21869
0.914903
0.567278
0.192208
0.211365
0.625973
1.0164
1.36715
1.66371
1.89303
2.04411
2.10854
2.08119
1.96082
1.7505
1.45796
1.09553
0.679704
0.230375
0.249621
0.739504
1.20148
1.61756
1.97072
2.24545
2.42839
2.50906
2.48071
2.3411
2.09322
1.74577
1.31322
0.815391
0.276473
0.294376
0.872408
1.41843
1.91165
2.33218
2.66159
2.88366
2.98528
2.95748
2.79655
2.50508
2.09267
1.57624
0.979604
0.332312
0.346572
1.02753
1.67204
2.25622
2.7569
3.15225
3.42256
3.55134
3.52667
3.34264
3.0009
2.51178
1.89493
1.17899
0.400183
0.407228
1.20796
1.96755
2.65874
3.25474
3.72971
4.05971
4.22395
4.20649
3.99823
3.59904
3.01957
2.28243
1.42203
0.483019
0.477412
1.41694
2.31053
3.12736
3.8366
4.40782
4.81195
5.02271
5.01877
4.78638
4.32234
3.63685
2.7555
1.71965
0.584622
0.558211
1.65783
2.70679
3.67067
4.51427
5.20194
5.69843
5.97053
5.98967
5.73536
5.19939
4.39011
3.33583
2.08614
0.709981
0.650678
1.93387
3.16213
4.29748
5.30019
6.12878
6.74069
7.09398
7.15041
6.87988
6.2662
5.31348
4.05184
2.54042
0.865758
0.755756
2.24804
3.68196
5.01635
6.20699
7.20606
7.96249
8.42353
8.53816
8.26266
7.56841
6.45134
4.94128
3.10806
1.06101
0.874177
2.60274
4.27089
5.83502
7.24677
8.45179
9.38935
9.99357
10.1968
9.93617
9.16417
7.86207
6.05509
3.82418
1.30831
1.00634
2.99936
4.93202
6.75946
8.43007
9.88318
11.0476
11.842
12.1774
11.9648
11.128
9.62336
7.46326
4.73815
1.62556
1.15214
3.43787
5.66617
7.79277
9.76434
11.5149
12.9629
14.0091
14.5385
14.4267
13.5556
11.8398
9.26373
5.92118
2.03902
1.31082
3.91625
6.47092
8.93367
11.252
13.3568
15.157
16.535
17.3447
17.4158
16.5696
14.6535
11.5964
7.47888
2.58849
1.48074
4.42985
7.33944
10.1748
12.8878
15.41
17.6442
19.4555
20.6639
21.0417
20.3265
18.2595
14.6655
9.57322
3.33698
1.65923
4.97085
8.25945
11.5008
14.6561
17.6632
20.4249
22.7946
24.5596
25.4267
25.022
22.9257
18.7751
12.4619
4.38941
1.84245
5.52781
9.21219
12.8865
16.5273
20.0866
23.4776
26.5534
29.0786
30.6947
30.8921
29.0183
24.3863
16.5721
5.93233
2.02534
6.08542
10.1718
14.2955
18.4549
22.6268
26.7491
30.6946
34.2287
36.9476
38.2002
37.0262
32.2072
22.6445
8.3258
2.2017
6.62468
11.1056
15.6794
20.3739
25.2013
30.1431
35.1211
39.9447
44.2185
47.1933
47.565
43.3221
32.0194
12.3393
2.36443
7.1237
11.9747
16.9794
22.2004
27.6961
33.5117
39.6547
46.0424
52.3912
57.9937
61.308
59.3392
47.2119
19.8237
2.50602
7.559
12.7368
18.1293
23.8358
29.9687
36.6529
44.018
52.1666
61.0818
70.3828
78.7193
82.4105
73.0016
35.8215
2.61914
7.90756
13.3499
19.0609
25.1751
31.8581
39.3209
47.8369
57.7581
69.504
83.4411
99.3558
114.578
118.076
75.7517
2.69744
8.14918
13.7763
19.7123
26.1193
33.206
41.2571
50.6798
62.0819
76.4041
95.1253
120.472
154.888
194.972
191.5
2.73623
8.26898
13.988
20.0367
26.5912
33.8838
42.2406
52.1476
64.3775
80.2486
102.208
135.29
191.26
302.113
570.808
2.73314
8.25937
13.9708
20.0096
26.5504
33.8226
42.1472
52.0019
64.144
79.8648
101.565
134.212
189.517
299.639
568.641
2.6884
8.12111
13.726
19.6338
26.0015
33.0302
40.9909
50.2673
61.4248
75.3279
93.32
117.4
149.704
186.829
182.203
2.60482
7.8632
13.2709
18.9385
24.9935
31.5903
38.9208
47.2259
56.7985
67.951
80.8468
94.8741
106.544
103.011
45.6126
-24.262
-19.7726
-16.4079
-13.8031
-11.7033
-9.9521
-8.45123
-7.13554
-5.95969
-4.8906
-3.90305
-2.97704
-2.09601
-1.2457
-0.413272
-9.10069
-12.6119
-12.4547
-11.3652
-10.0838
-8.82168
-7.63572
-6.53473
-5.51206
-4.55659
-3.65644
-2.80017
-1.97707
-1.17712
-0.390867
-4.14082
-7.99864
-9.14879
-9.06046
-8.45094
-7.63826
-6.76115
-5.87946
-5.0177
-4.18413
-3.37933
-2.60023
-1.84202
-1.09904
-0.365316
-2.253
-5.26563
-6.70285
-7.11756
-6.95904
-6.49953
-5.88971
-5.2103
-4.50373
-3.79165
-3.08435
-2.38578
-1.69636
-1.01453
-0.337613
-1.40223
-3.62661
-4.96694
-5.57266
-5.67611
-5.46513
-5.06654
-4.55995
-3.99354
-3.39583
-2.78327
-2.16494
-1.54543
-0.926598
-0.308731
-0.954279
-2.60148
-3.74113
-4.37651
-4.6115
-4.56094
-4.31834
-3.95111
-3.50505
-3.01029
-2.48618
-1.94491
-1.394
-0.83799
-0.279564
-0.687821
-1.92878
-2.86548
-3.45838
-3.74514
-3.79009
-3.65665
-3.39697
-3.05036
-2.64511
-2.20097
-1.73155
-1.24612
-0.75105
-0.250881
-0.514885
-1.46736
-2.22856
-2.75281
-3.04666
-3.14309
-3.0826
-2.90316
-2.63637
-2.3069
-1.93331
-1.52929
-1.10491
-0.667648
-0.223302
-0.395622
-1.13877
-1.75616
-2.20723
-2.48526
-2.60503
-2.59112
-2.46998
-2.26589
-1.99932
-1.68676
-1.34116
-0.97263
-0.589162
-0.19729
-0.309756
-0.897487
-1.39924
-1.7818
-2.03373
-2.1598
-2.17407
-2.09439
-1.93878
-1.72366
-1.46314
-1.16894
-0.850719
-0.516506
-0.173158
-0.24596
-0.715908
-1.12508
-1.44707
-1.66958
-1.79217
-1.82226
-1.7715
-1.65297
-1.47952
-1.26289
-1.01338
-0.739907
-0.45019
-0.151086
-0.197419
-0.576529
-0.911464
-1.1814
-1.37482
-1.48876
-1.52659
-1.49565
-1.40528
-1.26536
-1.08547
-0.874468
-0.640366
-0.390388
-0.131144
-0.159798
-0.467821
-0.742978
-0.968841
-1.13525
-1.2382
-1.27865
-1.26107
-1.192
-1.07895
-0.929642
-0.751585
-0.551843
-0.337018
-0.113316
-0.130213
-0.381931
-0.60872
-0.797561
-0.939749
-1.03103
-1.071
-1.06223
-1.00924
-0.917694
-0.793773
-0.643754
-0.47379
-0.289809
-0.0975199
-0.106674
-0.313351