/*--------------------------------*- C++ -*----------------------------------*\
| =========                 |                                                 |
| \\      /  F ield         | OpenFOAM: The Open Source CFD Toolbox           |
|  \\    /   O peration     | Version:  5.x                                   |
|   \\  /    A nd           | Web:      www.OpenFOAM.org                      |
|    \\/     M anipulation  |                                                 |
\*---------------------------------------------------------------------------*/
FoamFile
{
    version     2.0;
    format      ascii;
    class       volScalarField;
    location    "13";
    object      T;
}
// * * * * * * * * * * * * * * * * * * * * * * * * * * * * * * * * * * * * * //

dimensions      [0 0 0 1 0 0 0];

internalField   nonuniform List<scalar> 
6300
(
10.067
10.2026
10.3428
10.4908
10.6493
10.8212
11.0088
11.2141
11.4388
11.6839
11.9496
12.2355
12.5403
12.8619
13.1975
10.0654
10.1979
10.3351
10.4802
10.636
10.8054
10.9909
11.1947
11.4184
11.6631
11.9293
12.2165
12.5234
12.8478
13.1869
10.0623
10.1885
10.3195
10.4587
10.609
10.7735
10.9548
11.1553
11.3769
11.6209
11.8879
12.1776
12.4888
12.819
13.1651
10.0575
10.1741
10.2959
10.426
10.5679
10.7248
10.8994
11.0947
11.3129
11.5556
11.8238
12.1173
12.435
12.7743
13.1315
10.051
10.1547
10.2637
10.3816
10.5119
10.6581
10.8235
11.0112
11.2243
11.4647
11.7341
12.0328
12.3595
12.7116
13.0846
10.0427
10.1299
10.2227
10.3248
10.44
10.5721
10.725
10.9025
11.1081
11.3449
11.6152
11.92
12.2585
12.6278
13.0224
10.0326
10.0996
10.1724
10.2549
10.3511
10.4653
10.6019
10.7655
10.9606
11.1915
11.4617
11.7735
12.1267
12.5185
12.942
10.0205
10.0635
10.1124
10.1711
10.2442
10.3361
10.4519
10.597
10.7774
10.9987
11.2667
11.5854
11.9564
12.3772
12.8396
10.0065
10.0216
10.0424
10.0732
10.1183
10.1829
10.2724
10.3933
10.553
10.7593
11.0208
11.3448
11.7362
12.1942
12.709
9.99065
9.97377
9.96247
9.96076
9.9731
10.0046
10.0614
10.1508
10.2818
10.4648
10.7122
11.0368
11.4494
11.9542
12.5412
9.97291
9.92039
9.87295
9.83429
9.80865
9.80108
9.81783
9.86684
9.9584
10.1059
10.3264
10.6405
11.0704
11.6321
12.3208
9.95351
9.86193
9.77463
9.69479
9.62612
9.5732
9.54193
9.54022
9.57905
9.67389
9.84679
10.1286
10.5595
11.1827
12.0184
9.93271
9.79917
9.66883
9.54409
9.42781
9.32363
9.23642
9.17304
9.14364
9.16379
9.25828
9.46741
9.85609
10.5208
11.5662
9.91087
9.73322
9.55742
9.3849
9.21738
9.05706
8.90704
8.77185
8.65863
8.57928
8.55506
8.62663
8.87664
9.47806
10.7682
9.88842
9.66539
9.44273
9.22072
8.99971
8.78017
8.56279
8.34866
8.13972
7.9396
7.756
7.60736
7.54571
7.74661
8.91139
13.5148
13.8082
14.104
14.4001
14.6941
14.9839
15.2676
15.5434
15.8099
16.0658
16.3102
16.5421
16.7609
16.966
17.1572
17.334
17.4964
17.6441
17.7771
17.8954
17.9991
18.0883
18.163
18.2234
18.2696
18.302
18.3206
18.3257
18.3176
18.2965
18.2626
18.2163
18.1577
18.0871
18.0048
17.9109
17.8058
17.6897
17.5629
17.4254
17.2777
17.12
16.9524
16.7754
16.589
16.3936
16.1894
15.9766
15.7554
15.5262
15.2889
15.044
14.7914
14.5314
14.2642
13.99
13.7089
13.4211
13.127
12.8267
12.5206
12.2088
11.8916
11.5694
11.2425
10.9111
10.5756
10.2364
9.89378
9.54832
9.20047
8.85082
8.49998
8.14867
7.79764
7.44773
7.09979
6.75474
6.4135
6.07699
5.74613
5.4218
5.10486
4.79608
4.49618
4.20577
3.92538
3.65539
3.39608
3.14756
13.5077
13.8044
14.1036
14.4029
14.7
14.9926
15.2787
15.5567
15.825
16.0824
16.3279
16.5608
16.7803
16.986
17.1776
17.3547
17.5172
17.665
17.798
17.9163
18.0199
18.1089
18.1833
18.2435
18.2894
18.3215
18.3398
18.3446
18.3361
18.3146
18.2804
18.2337
18.1747
18.1038
18.0211
17.9269
17.8215
17.705
17.5778
17.44
17.292
17.1339
16.966
16.7885
16.6018
16.406
16.2015
15.9884
15.767
15.5374
15.2999
15.0547
14.8019
14.5416
14.2742
13.9996
13.7182
13.4302
13.1357
12.8351
12.5285
12.2163
11.8988
11.5761
11.2487
10.9169
10.5808
10.241
9.89781
9.55163
9.20297
8.8524
8.50056
8.14815
7.79594
7.44478
7.09555
6.74917
6.4066
6.06878
5.73664
5.4111
5.09303
4.78324
4.48245
4.19131
3.91035
3.63998
3.38048
3.13199
13.4932
13.7968
14.1029
14.4089
14.7121
15.0103
15.3014
15.5836
15.8555
16.1158
16.3637
16.5984
16.8194
17.0262
17.2185
17.3962
17.559
17.707
17.84
17.9581
18.0615
18.1501
18.2241
18.2837
18.3291
18.3605
18.3782
18.3822
18.3731
18.3509
18.3159
18.2684
18.2088
18.1371
18.0537
17.9589
17.8527
17.7356
17.6077
17.4692
17.3205
17.1616
16.993
16.8148
16.6274
16.4309
16.2257
16.012
15.79
15.5599
15.3219
15.0761
14.8228
14.5621
14.2941
14.019
13.737
13.4483
13.1531
12.8517
12.5444
12.2314
11.913
11.5896
11.2613
10.9285
10.5914
10.2505
9.90599
9.55837
9.2081
8.85571
8.50185
8.14722
7.79264
7.43895
7.0871
6.73805
6.39278
6.05229
5.71758
5.38958
5.06923
4.75736
4.45476
4.16212
3.88001
3.60887
3.34901
3.10056
13.471
13.7854
14.1023
14.4186
14.7314
15.0382
15.3368
15.6253
15.9024
16.1671
16.4184
16.6557
16.8787
17.087
17.2804
17.4588
17.6221
17.7702
17.9032
18.0211
18.124
18.212
18.2854
18.3442
18.3888
18.4192
18.4358
18.4388
18.4285
18.4052
18.3692
18.3206
18.2598
18.1871
18.1027
18.0068
17.8996
17.7815
17.6526
17.513
17.3632
17.2033
17.0336
16.8543
16.6657
16.4682
16.262
16.0473
15.8244
15.5935
15.3548
15.1083
14.8543
14.5928
14.3241
14.0481
13.7652
13.4756
13.1793
12.8768
12.5683
12.2541
11.9345
11.6098
11.2802
10.946
10.6075
10.2649
9.91855
9.56882
9.21614
8.86103
8.50412
8.14615
7.78793
7.4304
7.07454
6.72138
6.37199
6.02743
5.68876
5.357
5.03313
4.71808
4.41268
4.11772
3.83381
3.56148
3.30106
3.0527
13.4404
13.7702
14.1024
14.4332
14.7593
15.0778
15.3864
15.6833
15.9672
16.2373
16.4928
16.7335
16.9589
17.1691
17.3638
17.543
17.7067
17.855
17.9878
18.1054
18.2077
18.295
18.3674
18.4251
18.4684
18.4975
18.5128
18.5143
18.5026
18.4777
18.4402
18.3901
18.3279
18.2537
18.1679
18.0707
17.9622
17.8427
17.7124
17.5715
17.4202
17.2589
17.0876
16.9068
16.7168
16.5178
16.3102
16.0943
15.8702
15.6383
15.3985
15.1512
14.8963
14.6339
14.3642
14.0872
13.8031
13.5121
13.2144
12.9104
12.6003
12.2845
11.9632
11.6368
11.3056
10.9696
10.6292
10.2846
9.93587
9.58341
9.22757
8.86883
8.50783
8.1453
7.78215
7.41935
7.05798
6.6992
6.34415
5.99401
5.64992
5.31298
4.98428
4.66482
4.35554
4.05732
3.77091
3.4969
3.2357
2.9875
13.4006
13.7515
14.1044
14.4545
14.798
15.1315
15.4526
15.7598
16.0518
16.3282
16.5886
16.8329
17.0611
17.2731
17.4692
17.6493
17.8134
17.9618
18.0944
18.2113
18.3129
18.3991
18.4702
18.5265
18.5683
18.5957
18.6091
18.6088
18.5952
18.5684
18.5289
18.4769
18.4129
18.3369
18.2494
18.1505
18.0403
17.9192
17.7873
17.6447
17.4916
17.3284
17.1552
16.9725
16.7805
16.5797
16.3703
16.1527
15.9272
15.694
15.4531
15.2047
14.9488
14.6854
14.4146
14.1363
13.8507
13.558
13.2585
12.9524
12.6403
12.3224
11.9992
11.6708
11.3375
10.9996
10.657
10.31
9.95847
9.60274
9.24304
8.8798
8.51361
8.14528
7.77575
7.40613
7.03764
6.67155
6.30918
5.9518
5.60069
5.25706
4.92206
4.59682
4.28243
3.97988
3.69009
3.41382
3.1516
2.90364
13.3505
13.7298
14.1101
14.4854
14.8508
15.2027
15.5389
15.8578
16.1589
16.442
16.7074
16.9554
17.1862
17.4001
17.5974
17.7782
17.9427
18.091
18.2232
18.3394
18.4398
18.5247
18.5942
18.6488
18.6885
18.7138
18.725
18.7224
18.7063
18.6772
18.6353
18.581
18.5147
18.4366
18.347
18.2461
18.1341
18.0111
17.8773
17.7327
17.5775
17.412
17.2365
17.0513
16.8568
16.6536
16.442
16.2224
15.9951
15.7604
15.5184
15.2689
15.012
14.7475
14.4754
14.1957
13.9083
13.6135
13.3117
13.0032
12.6885
12.3681
12.0423
11.7116
11.3761
11.036
10.6912
10.3416
9.98707
9.62768
9.26351
8.89489
8.5224
8.14687
7.76938
7.3912
7.01374
6.63848
6.26692
5.90051
5.54064
5.18862
4.84572
4.51317
4.1922
3.884
3.58976
3.31048
3.0469
2.79934
13.2891
13.7064
14.1228
14.5303
14.9229
15.2967
15.6497
15.9813
16.2915
16.5812
16.8512
17.1024
17.3354
17.5508
17.7491
17.9305
18.0952
18.2432
18.3747
18.4899
18.589
18.6721
18.7397
18.792
18.8293
18.8521
18.8605
18.8551
18.8362
18.8041
18.7593
18.7022
18.6332
18.5526
18.4607
18.3576
18.2435
18.1185
17.9825
17.8357
17.678
17.5098
17.3314
17.1431
16.9456
16.7393
16.5249
16.3029
16.0736
15.8373
15.594
15.3436
15.0859
14.8205
14.5472
14.2658
13.9764
13.6791
13.3744
13.0627
12.7448
12.4212
12.0925
11.7592
11.4213
11.0791
10.7321
10.3801
10.0226
9.65938
9.29026
8.91544
8.53545
8.15119
7.76391
7.37514
6.98658
6.60001
6.21718
5.83973
5.4692
5.10699
4.75442
4.4128
4.0835
3.768
3.46785
3.18449
2.91908
2.67213
13.2149
13.6841
14.1483
14.5966
15.0218
15.4204
15.7913
16.1352
16.4537
16.7486
17.022
17.2752
17.5096
17.7261
17.925
18.1067
18.2714
18.419
18.5496
18.6635
18.7607
18.8418
18.9069
18.9565
18.9909
19.0106
19.0158
19.007
18.9846
18.9491
18.9008
18.8404
18.7682
18.6847
18.5901
18.4847
18.3685
18.2414
18.1032
17.954
17.7936
17.6222
17.4402
17.2481
17.0466
16.8365
16.6187
16.3937
16.1621
15.9241
15.6797
15.4287
15.1705
14.9046
14.6304
14.3474
14.0557
13.7553
13.4469
13.1311
12.809
12.4814
12.1492
11.813
11.4728
11.1287
10.7801
10.4263
10.0663
9.69943
9.32513
8.94334
8.55455
8.15976
7.7605
7.35868
6.95647
6.55608
6.1596
5.76892
5.38572
5.01142
4.6473
4.29463
3.95488
3.62985
3.32169
3.03264
2.76462
2.51858
13.1274
13.6689
14.1967
14.6959
15.1589
15.5837
15.9716
16.3256
16.6495
16.947
17.2214
17.475
17.7096
17.9262
18.1254
18.3073
18.4719
18.6189
18.7484
18.8606
18.9557
19.0341
19.0962
19.1426
19.1736
19.1896
19.1911
19.1783
19.1518
19.1121
19.0596
18.9952
18.9193
18.8324
18.735
18.6271
18.5088
18.3798
18.2397
18.0881
17.9247
17.7497
17.5633
17.3664
17.1598
16.9448
16.7224
16.4937
16.2594
16.0198
15.7748
15.5239
15.2662
15.0006
14.7259
14.4415
14.1471
13.843
13.5297
13.2086
12.8809
12.5482
12.2117
11.8722
11.53
11.1847
10.8355
10.4812
10.1199
9.75006
9.37064
8.9812
8.58216
8.17466
7.76067
7.34269
6.92366
6.50642
6.09357
5.68728
5.28934
4.90111
4.52363
4.15782
3.80499
3.46737
3.14796
2.85047
2.57849
2.33385
13.0272
13.6732
14.2861
14.847
15.3509
15.8001
16.2005
16.5591
16.883
17.1786
17.4505
17.702
17.9352
18.1513
18.3505
18.5327
18.6973
18.8438
18.972
19.0821
19.1745
19.2496
19.3081
19.3506
19.3775
19.3894
19.3866
19.3692
19.3378
19.293
19.2355
19.1662
19.0858
18.9951
18.8946
18.7844
18.6644
18.5341
18.3926
18.2388
18.0724
17.8931
17.7015
17.4983
17.2851
17.0633
16.8351
16.6017
16.3642
16.1231
15.8782
15.6286
15.373
15.1093
14.8353
14.5499
14.2525
13.9435
13.6238
13.2952
12.9599
12.6203
12.2783
11.9352
11.5913
11.2461
10.8983
10.5459
10.1856
9.81439
9.43045
9.0328
8.62183
8.19883
7.76646
7.32812
6.88819
6.45036
6.01802
5.59354
5.17892
4.77525
4.38311
4.00224
3.63317
3.27862
2.94264
2.6315
2.35296
2.11068
12.9216
13.725
14.4502
15.0802
15.6216
16.0865
16.4894
16.8423
17.1572
17.4441
17.7087
17.9552
18.1853
18.4004
18.6
18.7833
18.9485
19.0948
19.2214
19.329
19.4178
19.4888
19.5428
19.5806
19.603
19.6103
19.6026
19.5801
19.543
19.4921
19.4282
19.3529
19.267
19.1719
19.0678
18.9555
18.8345
18.7043
18.5628
18.4077
18.2383
18.0541
17.856
17.6446
17.4223
17.1911
16.9548
16.7152
16.4742
16.2317
15.9881
15.7419
15.4914
15.2325
14.961
14.6753
14.3744
14.0592
13.7304
13.3914
13.0448
12.6957
12.3465
11.9994
11.6542
11.3111
10.9678
10.6217
10.2668
9.897
9.5099
9.10345
8.67875
8.23639
7.78074
7.31579
6.84959
6.38633
5.9311
5.48551
5.0527
4.63271
4.2263
3.82964
3.4404
3.06309
2.70152
2.36557
2.07519
1.83763
12.8413
13.8892
14.7513
15.4408
16.002
16.4623
16.8501
17.1799
17.4716
17.7415
17.9927
18.2317
18.4568
18.6717
18.8724
19.0599
19.2267
19.3737
19.4981
19.6025
19.6865
19.7523
19.8004
19.8326
19.85
19.8525
19.8397
19.8116
19.7678
19.7096
19.6371
19.5544
19.4614
19.3612
19.2528
19.1388
19.0177
18.8907
18.7523
18.5968
18.4253
18.235
18.0295
17.8064
17.5721
17.3259
17.0792
16.8307
16.586
16.3417
16.1015
15.861
15.6218
15.3738
15.1068
14.8227
14.5166
14.1942
13.8517
13.4984
13.133
12.7713
12.4113
12.0607
11.714
11.3762
11.041
10.7101
10.3694
10.0044
9.61709
9.20026
8.76097
8.29296
7.80834
7.30515
6.80666
6.31064
5.83021
5.35902
4.90792
4.47058
4.05537
3.64633
3.23038
2.82487
2.42345
2.03398
1.72132
1.49557
12.9212
14.3208
15.3008
15.9861
16.5276
16.942
17.2944
17.5721
17.8171
18.0657
18.294
18.5282
18.7426
18.9634
19.1635
19.3662
19.5334
19.6847
19.8036
19.9052
19.9812
20.0409
20.0808
20.1055
20.1183
20.1164
20.0984
20.0657
20.013
19.9475
19.8604
19.7704
19.6658
19.5621
19.4455
19.3323
19.209
19.0931
18.9663
18.8085
18.6394
18.4374
18.2282
17.9841
17.7387
17.4615
17.2059
16.9403
16.6973
16.4456
16.215
15.978
15.7647
15.5423
15.277
15.0015
14.6819
14.3582
13.9885
13.6226
13.2156
12.8442
12.4625
12.1162
11.7608
11.4376
11.1078
10.8127
10.5069
10.1436
9.76672
9.32932
8.88446
8.37333
7.86259
7.28765
6.7601
6.21242
5.71593
5.20354
4.7433
4.27652
3.8755
3.47291
3.00528
2.58074
2.12816
1.59175
1.24229
1.05096
13.804
15.3563
16.2747
16.7382
17.2362
17.5108
17.846
18.0111
18.1573
18.4188
18.5868
18.8526
19.0192
19.2847
19.4505
19.7233
19.8626
20.0423
20.1336
20.2445
20.299
20.3581
20.3825
20.3956
20.4072
20.4035
20.3779
20.3485
20.2763
20.2161
20.0877
20.0072
19.869
19.7811
19.6329
19.5403
19.3892
19.3112
19.2245
19.0365
18.9004
18.6502
18.4766
18.1635
17.9508
17.5655
17.3469
17.017
16.8209
16.5187
16.3377
16.0608
15.9204
15.7722
15.462
15.2435
14.8532
14.5879
14.1197
13.8059
13.2468
12.9318
12.4624
12.1848
11.7609
11.5082
11.1245
10.9305
10.727
10.3023
10.0034
9.46901
9.10326
8.45304
8.00921
7.2018
6.74243
6.04043
5.62449
4.97289
4.58802
3.9877
3.69785
3.3931
2.71812
2.37693
1.95356
0.880285
0.535542
0.443807
2.88605
2.61607
2.36087
2.11972
1.89168
1.6757
1.47064
1.2753
1.08846
0.908924
0.735488
0.566993
0.402303
0.24031
0.0799251
2.87072
2.60126
2.3468
2.10657
1.87959
1.66477
1.4609
1.26678
1.08115
0.902808
0.730539
0.563181
0.399602
0.238698
0.0793893
2.83979
2.5714
2.31848
2.08015
1.85534
1.64284
1.44141
1.24974
1.06655
0.890603
0.720669
0.555584
0.394221
0.235488
0.0783226
2.79272
2.52604
2.27554
2.04018
1.81873
1.60984
1.41213
1.2242
1.04471
0.872368
0.705941
0.544258
0.386204
0.230708
0.0767344
2.72869
2.46448
2.21744
1.98628
1.76954
1.56565
1.37304
1.1902
1.01571
0.848208
0.686459
0.529296
0.375623
0.224404
0.0746404
2.64649
2.38572
2.14341
1.91794
1.70747
1.51015
1.32416
1.14786
0.979692
0.818287
0.662384
0.510836
0.362585
0.216641
0.0720629
2.54451
2.28845
2.05253
1.83458
1.63225
1.44328
1.2656
1.09735
0.936906
0.782855
0.633946
0.489073
0.347234
0.207509
0.0690323
2.42057
2.17099
1.94367
1.73557
1.54364
1.36511
1.19758
1.03902
0.887719
0.74227
0.601465
0.464268
0.329765
0.197128
0.0655884
2.27174
2.03125
1.81557
1.62036
1.44161
1.27593
1.12059
0.973403
0.832673
0.697031
0.56537
0.436765
0.310425
0.185646
0.0617813
2.09409
1.86669
1.66698
1.48867
1.32649
1.1764
1.03541
0.901326
0.772529
0.647804
0.526209
0.406992
0.28952
0.173246
0.0576719
1.88224
1.6744
1.49698
1.34082
1.19926
1.06776
0.94332
0.823951
0.708303
0.595436
0.484666
0.375467
0.267414
0.160144
0.0533314
1.62902
1.45167
1.30571
1.17836
1.06195
0.95204
0.846149
0.742843
0.641286
0.540965
0.441546
0.342792
0.244522
0.146584
0.04884
1.32556
1.19753
1.0958
1.00497
0.918108
0.832296
0.74638
0.659978
0.573026
0.485586
0.397754
0.309628
0.221295
0.132828
0.044284
0.964645
0.917068
0.874984
0.827582
0.773212
0.712646
0.647089
0.577653
0.505248
0.430592
0.35425
0.276667
0.198201
0.119145
0.0397517
0.557137
0.631105
0.659476
0.657153
0.634502
0.597977
0.55167
0.498291
0.439714
0.377279
0.311983
0.244587
0.175694
0.105799
0.0353289
9.86773
9.60287
9.33698
9.06928
8.79882
8.52436
8.24422
7.95596
7.65592
7.33805
6.99143
6.59323
6.08495
5.27583
3.38436
9.84915
9.54674
9.2421
8.93353
8.61896
8.29574
7.96022
7.60714
7.22846
6.81112
6.33217
5.74771
4.96589
3.78127
1.74672
9.83108
9.49216
9.14994
8.80192
8.4451
8.07565
7.6884
7.27606
6.82784
6.32696
5.74615
5.03921
4.12653
2.87691
1.1222
9.81374
9.43986
9.0618
8.67642
8.28001
7.8679
7.43399
6.96989
6.46376
5.89828
5.24769
4.47359
3.52113
2.32331
0.837746
9.79735
9.39046
8.97873
8.55858
8.12581
7.6753
7.20052
6.6929
6.14088
5.5287
4.835
4.0318
3.08611
1.96951
0.685181
9.78205
9.34442
8.90152
8.44949
7.98391
7.49953
6.98986
6.44674
5.85976
5.21572
4.49834
3.68895
2.76976
1.7322
0.592358
9.76794
9.30203
8.83064
8.3498
7.85508
7.34132
6.80242
6.23102
5.61825
4.95366
4.22557
3.42235
2.53559
1.5659
0.5307
9.75509
9.26346
8.76632
8.25975
7.73945
7.20056
6.63755
6.04401
5.41271
4.7357
4.00496
3.21375
2.35903
1.44508
0.487237
9.74349
9.2287
8.70854
8.17923
7.63672
7.07656
6.49386
5.88323
5.23891
4.55504
3.82635
3.04924
2.22358
1.35475
0.455321
9.73312
9.19768
8.65711
8.10788
7.54624
6.96821
6.36956
5.74584
5.09256
4.40551
3.68134
2.91845
2.11811
1.28567
0.431192
9.72393
9.17021
8.6117
8.04514
7.46713
6.87417
6.26266
5.62897
4.96966
4.28176
3.56323
2.81365
2.03492
1.23189
0.412551
9.71584
9.14607
8.57189
7.99034
7.3984
6.79301
6.17115
5.5299
4.86662
4.17926
3.46668
2.7291
1.96861
1.18943
0.397915
9.70877
9.12498
8.53719
7.94276
7.339
6.7233
6.09311
5.44611
4.7803
4.09427
3.38747
2.66047
1.91529
1.15553
0.386274
9.70262
9.10666
8.50712
7.90164
7.2879
6.66364
6.02675
5.37538
4.70801
4.02372
3.32228
2.60445
1.87208
1.12821
0.376924
9.69729
9.09082
8.48117
7.86627
7.2441
6.61274
5.97045
5.31574
4.64749
3.96506
3.26848
2.55853
1.83687
1.10604
0.369354
9.69271
9.07718
8.45887
7.83594
7.20667
6.56943
5.92277
5.26551
4.5968
3.91624
3.22396
2.52074
1.80803
1.08795
0.363184
9.68877
9.06549
8.43976
7.81003
7.17478
6.53265
5.88245
5.22323
4.55434
3.87554
3.18703
2.48953
1.7843
1.0731
0.35813
9.6854
9.05548
8.42345
7.78793
7.14766
6.50148
5.8484
5.18766
4.51877
3.84159
3.15634
2.46369
1.76471
1.06087
0.353971
9.68252
9.04695
8.40955
7.76914
7.12465
6.4751
5.81966
5.15774
4.48896
3.81323
3.1308
2.44225
1.74849
1.05076
0.350538
9.68007
9.03969
8.39773
7.75319
7.10515
6.45279
5.79544
5.13259
4.46397
3.78953
3.10951
2.42442
1.73504
1.04239
0.347695
9.67799
9.03352
8.3877
7.73968
7.08866
6.43396
5.77502
5.11145
4.44301
3.7697
3.09175
2.40957
1.72385
1.03543
0.345336
9.67623
9.02829
8.37921
7.72824
7.07471
6.41807
5.75783
5.09367
4.42543
3.75311
3.0769
2.39719
1.71453
1.02965
0.343373
9.67473
9.02387
8.37202
7.71856
7.06294
6.40467
5.74336
5.07874
4.41069
3.73921
3.06449
2.38685
1.70676
1.02483
0.341739
9.67347
9.02012
8.36594
7.7104
7.05301
6.39338
5.73118
5.06619
4.39832
3.72757
3.05411
2.37821
1.70028
1.0208
0.340376
9.6724
9.01696
8.36081
7.70351
7.04464
6.38388
5.72094
5.05565
4.38794
3.71782
3.04542
2.37099
1.69486
1.01744
0.339238
9.6715
9.0143
8.35649
7.6977
7.03759
6.37588
5.71233
5.0468
4.37923
3.70964
3.03814
2.36494
1.69032
1.01464
0.338287
9.67074
9.01205
8.35284
7.69281
7.03166
6.36915
5.70509
5.03937
4.37193
3.70279
3.03205
2.35988
1.68653
1.01229
0.337492
9.6701
9.01015
8.34977
7.68869
7.02667
6.36349
5.69901
5.03313
4.3658
3.69704
3.02694
2.35565
1.68336
1.01032
0.336827
9.66956
9.00856
8.34719
7.68523
7.02247
6.35874
5.69391
5.0279
4.36066
3.69223
3.02267
2.3521
1.68071
1.00868
0.336271
9.66911
9.00722
8.34503
7.68233
7.01895
6.35476
5.68963
5.02351
4.35636
3.6882
3.01909
2.34914
1.67849
1.00731
0.335806
9.66873
9.0061
8.34321
7.67989
7.016
6.35142
5.68605
5.01984
4.35276
3.68483
3.0161
2.34666
1.67663
1.00616
0.335418
9.66841
9.00516
8.34168
7.67785
7.01353
6.34862
5.68305
5.01676
4.34974
3.68201
3.0136
2.34459
1.67508
1.0052
0.335093
9.66815
9.00437
8.34041
7.67614
7.01146
6.34629
5.68054
5.0142
4.34723
3.67966
3.01151
2.34286
1.67379
1.0044
0.334823
9.66792
9.00372
8.33935
7.67472
7.00974
6.34434
5.67846
5.01207
4.34514
3.6777
3.00978
2.34143
1.67272
1.00374
0.334598
9.66774
9.00318
8.33847
7.67355
7.00832
6.34273
5.67674
5.0103
4.34341
3.67609
3.00834
2.34024
1.67183
1.00319
0.334413
9.66759
9.00273
8.33775
7.67258
7.00715
6.34141
5.67531
5.00885
4.34199
3.67475
3.00716
2.33926
1.6711
1.00274
0.33426
9.66747
9.00236
8.33716
7.67179
7.00619
6.34033
5.67416
5.00766
4.34083
3.67367
3.0062
2.33847
1.6705
1.00237
0.334135
9.66737
9.00207
8.33668
7.67115
7.00542
6.33946
5.67322
5.00671
4.33989
3.6728
3.00543
2.33783
1.67002
1.00208
0.334035
9.66729
9.00184
8.33631
7.67065
7.00482
6.33877
5.67249
5.00596
4.33916
3.67211
3.00482
2.33732
1.66965
1.00184
0.333957
9.66723
9.00166
8.33602
7.67027
7.00436
6.33825
5.67193
5.00539
4.3386
3.67159
3.00436
2.33694
1.66936
1.00167
0.333897
9.66719
9.00154
8.33582
7.67
7.00403
6.33788
5.67154
5.00498
4.33821
3.67122
3.00403
2.33667
1.66916
1.00154
0.333854
9.66716
9.00146
8.3357
7.66983
7.00382
6.33765
5.67129
5.00473
4.33796
3.67099
3.00383
2.3365
1.66903
1.00146
0.333828
9.66715
9.00143
8.33564
7.66975
7.00373
6.33755
5.67118
5.00462
4.33785
3.67088
3.00373
2.33642
1.66898
1.00143
0.333816
9.66715
9.00143
8.33565
7.66977
7.00376
6.33757
5.67121
5.00464
4.33788
3.67091
3.00376
2.33644
1.66899
1.00144
0.333819
9.66717
9.00149
8.33574
7.66989
7.00389
6.33773
5.67137
5.00481
4.33804
3.67107
3.0039
2.33656
1.66907
1.00149
0.333837
9.6672
9.00158
8.3359
7.6701
7.00415
6.33802
5.67168
5.00513
4.33835
3.67135
3.00415
2.33677
1.66923
1.00159
0.33387
9.66725
9.00173
8.33613
7.67041
7.00453
6.33845
5.67214
5.0056
4.33881
3.67178
3.00453
2.33708
1.66947
1.00173
0.333919
9.66732
9.00193
8.33645
7.67084
7.00505
6.33903
5.67277
5.00624
4.33944
3.67237
3.00505
2.33751
1.66979
1.00193
0.333986
9.66741
9.00218
8.33687
7.67139
7.00572
6.33979
5.67358
5.00707
4.34025
3.67313
3.00573
2.33807
1.67021
1.00219
0.334074
9.66751
9.0025
8.33739
7.67209
7.00656
6.34074
5.6746
5.00812
4.34128
3.67409
3.00657
2.33877
1.67073
1.00251
0.334183
9.66765
9.0029
8.33803
7.67295
7.0076
6.34192
5.67587
5.00941
4.34254
3.67527
3.00762
2.33964
1.67138
1.00291
0.334319
9.66781
9.00339
8.33882
7.67401
7.00888
6.34336
5.67741
5.01099
4.34409
3.67671
3.0089
2.3407
1.67217
1.0034
0.334484
9.66801
9.00398
8.33977
7.67528
7.01042
6.3451
5.67928
5.0129
4.34596
3.67846
3.01045
2.34198
1.67313
1.004
0.334685
9.66825
9.00468
8.34091
7.67681
7.01227
6.3472
5.68152
5.0152
4.34821
3.68057
3.01232
2.34353
1.67429
1.00471
0.334927
9.66854
9.00553
8.34228
7.67865
7.0145
6.34972
5.68422
5.01796
4.35092
3.6831
3.01456
2.34539
1.67568
1.00557
0.335218
9.66888
9.00654
8.34393
7.68085
7.01716
6.35273
5.68745
5.02127
4.35416
3.68613
3.01725
2.34761
1.67734
1.0066
0.335567
9.66929
9.00775
8.34589
7.68348
7.02034
6.35633
5.69131
5.02522
4.35803
3.68976
3.02047
2.35028
1.67934
1.00784
0.335984
9.66978
9.0092
8.34822
7.68661
7.02413
6.36062
5.69592
5.02994
4.36266
3.69409
3.02432
2.35347
1.68172
1.00931
0.336484
9.67036
9.01091
8.351
7.69033
7.02865
6.36573
5.7014
5.03557
4.36818
3.69926
3.02891
2.35727
1.68457
1.01107
0.33708
9.67105
9.01295
8.35431
7.69477
7.03402
6.37181
5.70794
5.04228
4.37476
3.70543
3.03439
2.36182
1.68797
1.01318
0.337793
9.67187
9.01538
8.35823
7.70003
7.04041
6.37905
5.71572
5.05026
4.38261
3.71279
3.04093
2.36724
1.69204
1.0157
0.338645
9.67284
9.01825
8.3629
7.70629
7.048
6.38766
5.72498
5.05978
4.39196
3.72156
3.04873
2.37372
1.69689
1.0187
0.339663
9.67399
9.02166
8.36843
7.71371
7.05702
6.39789
5.736
5.0711
4.40311
3.73203
3.05805
2.38146
1.7027
1.0223
0.340881
9.67535
9.0257
8.37498
7.72252
7.06772
6.41004
5.7491
5.08459
4.41639
3.74452
3.06917
2.39071
1.70964
1.0266
0.342339
9.67697
9.03048
8.38274
7.73295
7.08041
6.42447
5.76466
5.10063
4.43221
3.75941
3.08246
2.40177
1.71795
1.03175
0.344085
9.67888
9.03613
8.39192
7.74531
7.09544
6.4416
5.78316
5.11973
4.45107
3.7772
3.09835
2.41501
1.7279
1.03793
0.346178
9.68113
9.04281
8.40276
7.75991
7.11325
6.4619
5.80514
5.14245
4.47356
3.79843
3.11735
2.43087
1.73983
1.04534
0.348693
9.68378
9.05067
8.41556
7.77717
7.13431
6.48595
5.83122
5.16948
4.50036
3.82381
3.1401
2.44989
1.75417
1.05426
0.351717
9.6869
9.05993
8.43063
7.79752
7.1592
6.51444
5.86218
5.20164
4.53233
3.85414
3.16736
2.47273
1.77142
1.06499
0.355362
9.69057
9.07081
8.44835
7.82148
7.18856
6.54812
5.89889
5.23988
4.57047
3.89044
3.20008
2.50021
1.79221
1.07796
0.359767
9.69486
9.08355
8.46914
7.84964
7.22314
6.5879
5.94238
5.28535
4.61598
3.93392
3.2394
2.53335
1.81734
1.09365
0.365106
9.69987
9.09844
8.49347
7.88266
7.2638
6.63482
5.99386
5.33939
4.6703
3.98603
3.28674
2.57338
1.84781
1.11273
0.3716
9.70571
9.11578
8.52184
7.92126
7.31148
6.69005
6.05472
5.40358
4.73515
4.04858
3.34384
2.6219
1.88487
1.13599
0.379535
9.71247
9.1359
8.55483
7.96626
7.36725
6.75492
6.12657
5.47978
4.8126
4.12374
3.41288
2.68091
1.93016
1.16453
0.389284
9.72028
9.15916
8.59302
8.01851
7.43226
6.83091
6.21121
5.57014
4.9051
4.21418
3.49658
2.75294
1.98579
1.19973
0.401341
9.72924
9.18589
8.63703
8.07892
7.50775
6.91964
6.3107
5.67715
5.01556
4.32316
3.59835
2.84129
2.05455
1.2435
0.416377
9.73948
9.21646
8.68746
8.14839
7.595
7.02282
6.42726
5.80363
5.14741
4.45463
3.7225
2.95027
2.14019
1.29842
0.435324
9.75109
9.25116
8.74488
8.22781
7.69528
7.14225
6.56331
5.95273
5.30464
4.61342
3.87451
3.08552
2.24782
1.36814
0.459518
9.76416
9.29029
8.80978
8.31797
7.80979
7.27966
6.72133
6.12789
5.49181
4.80532
4.06128
3.25459
2.38461
1.45797
0.490941
9.77874
9.33401
8.88254
8.4195
7.93955
7.43664
6.90373
6.33264
5.71396
5.0372
4.29154
3.46761
2.56074
1.57584
0.532675
9.79486
9.38242
8.96332
8.53275
8.08525
7.61443
7.11262
6.57045
5.97645
5.3169
4.57615
3.73823
2.79105
1.73417
0.589813
9.8125
9.43543
9.05207
8.65775
8.24713
7.81375
7.34954
6.84422
6.28444
5.65299
4.92821
4.08472
3.09753
1.95325
0.671438
9.83156
9.49283
9.14841
8.79407
8.42481
8.03446
7.61501
7.1558
6.64219
6.05388
5.3627
4.53098
3.51309
2.26783
0.795467
9.8519
9.55416
9.25165
8.94074
8.61714
8.27535
7.90807
7.50513
7.05181
6.52618
5.89477
5.10652
4.08652
2.74011
1.00183
9.87333
9.61881
9.36069
9.09623
8.82208
8.53393
8.22589
7.88943
7.51164
7.07191
6.53575
5.84297
4.88659
3.48452
1.39249
9.89556
9.68596
9.47414
9.25843
9.03672
8.80632
8.56342
8.30241
8.01445
7.68458
7.28546
6.76245
5.99616
4.70806
2.26436
9.91828
9.75463
9.5903
9.42477
9.2574
9.08737
8.91351
8.73409
8.54634
8.34531
8.12117
7.85084
7.46806
6.73405
4.58416
9.94116
9.82377
9.70728
9.59237
9.47991
9.37105
9.26743
9.17154
9.08741
9.02206
8.98892
9.01728
9.18382
9.74327
11.7778
9.96384
9.89229
9.82314
9.75826
9.69991
9.65108
9.61596
9.60079
9.6154
9.67639
9.81392
10.0877
10.6267
11.728
14.0615
9.98597
9.95912
9.93604
9.9196
9.91327
9.92155
9.95061
10.0093
10.1112
10.2775
10.5443
10.9739
11.6789
12.8571
14.8145
0.229106
0.410761
0.490054
0.519554
0.520063
0.501823
0.470677
0.430303
0.383171
0.331027
0.275159
0.216549
0.155978
0.0940912
0.0314462
0.122949
0.28153
0.370609
0.414592
0.429044
0.423367
0.403453
0.373185
0.335245
0.291564
0.243584
0.192421
0.138968
0.0839731
0.0280881
0.0774283
0.200563
0.282476
0.330134
0.351999
0.354795
0.343415
0.321391
0.291303
0.255084
0.214218
0.16988
0.123027
0.0744724
0.0249318
0.0539357
0.14822
0.218129
0.263584
0.288195
0.296063
0.290767
0.275194
0.251617
0.221829
0.187262
0.149083
0.108268
0.0656557
0.0219995
0.0398783
0.112802
0.170762
0.211508
0.236015
0.246469
0.245254
0.234553
0.216241
0.19189
0.162813
0.130117
0.0947546
0.0575636
0.0193049
0.0305652
0.0877763
0.135347
0.170707
0.193593
0.204977
0.206325
0.199195
0.185058
0.165232
0.140874
0.113001
0.0825106
0.0502124
0.0168539
0.0239736
0.0694445
0.10841
0.138566
0.159157
0.170453
0.173281
0.168701
0.157824
0.141719
0.121376
0.0977018
0.0715212
0.0435971
0.0146455
0.0191015
0.0556299
0.0875885
0.113067
0.131174
0.141809
0.145381
0.142579
0.134218
0.121147
0.104191
0.084142
0.061742
0.0376949
0.0126726
0.0153922
0.0449884
0.0712669
0.0926858
0.108379
0.118069
0.121905
0.120315
0.113884
0.10327
0.0891545
0.0722137
0.0531061
0.0324696
0.0109238
0.0125078
0.0366505
0.0583193
0.0762798
0.0897533
0.0983919
0.102195
0.101412
0.0964536
0.0878245
0.0760788
0.0617893
0.0455315
0.0278756
0.00938442
0.0102296
0.0300303
0.0479462
0.0629892
0.0744839
0.082072
0.08567
0.0854086
0.0815711
0.0745424
0.0647689
0.0527314
0.0389275
0.0238612
0.00803782
0.0084085
0.0247187
0.0395679
0.0521621
0.0619269
0.0685224
0.0718242
0.0718873
0.0689041
0.0631658
0.0550305
0.0448996
0.0331997
0.0203724
0.00686631
0.00693927
0.0204215
0.0327552
0.0432993
0.0515702
0.0572593
0.0602269
0.060481
0.0581497
0.053453
0.0466777
0.0381569
0.0282547
0.0173547
0.00585208
0.0057452
0.0169217
0.0271849
0.0360147
0.043006
0.0478857
0.0505134
0.0508695
0.0490375
0.0451833
0.0395365
0.0323732
0.0240024
0.0147554
0.00497772
0.00476905
0.014056
0.0226098
0.0300066
0.0359077
0.0400755
0.0423769
0.0427771
0.0413291
0.0381581
0.0334481
0.0274277
0.0203582
0.0125246
0.00422675
0.00396729
0.0116992
0.0188381
0.0250369
0.0300128
0.0335612
0.0355601
0.035968
0.0348167
0.0322014
0.0282695
0.0232103
0.0172446
0.010616
0.00358383
0.00330624
0.00975404
0.0157191
0.0209161
0.025109
0.0281226
0.0298479
0.0302413
0.0293207
0.0271585
0.0238736
0.0196224
0.0145911
0.00898757
0.00303497
0.00275954
0.00814403
0.0131335
0.0174924
0.0210238
0.0235785
0.0250604
0.0254268
0.0246866
0.0228951
0.0201484
0.0165761
0.0123347
0.0076015
0.00256755
0.00230627
0.00680829
0.0109855
0.0146432
0.0176166
0.0197793
0.0210472
0.0213806
0.0207823
0.019295
0.0169964
0.0139941
0.0104199
0.0064242
0.00217036
0.00192972
0.00569804
0.00919832
0.012269
0.0147723
0.0166012
0.0176829
0.0179811
0.0174952
0.016258
0.0143329
0.0118092
0.00879777
0.00542607
0.00183349
0.00161642
0.00477387
0.00770939
0.0102886
0.0123963
0.0139418
0.0148626
0.0151261
0.0147296
0.0136986
0.012085
0.00996295
0.00742571
0.00458128
0.00154828
0.00135545
0.0040038
0.00646783
0.00863559
0.0104105
0.0117161
0.0124986
0.0127293
0.0124043
0.0115438
0.01019
0.00840492
0.00626691
0.0038674
0.0013072
0.00113791
0.00336167
0.00543197
0.00725529
0.00875067
0.0098534
0.0105177
0.0107184
0.0104509
0.00973135
0.00859444
0.00709189
0.00528965
0.00326507
0.00110374
0.00095651
0.00282609
0.00456756
0.00610266
0.0073634
0.0082951
0.00885876
0.00903237
0.00881144
0.00820864
0.00725273
0.00598692
0.00446675
0.00275767
0.000932305
0.000805268
0.00237946
0.00384642
0.00514052
0.00620455
0.00699232
0.00747057
0.00762026
0.00743704
0.00693106
0.00612616
0.00505853
0.00377501
0.00233099
0.000788123
0.000679256
0.00200727
0.00324528
0.0043381
0.00523751
0.00590441
0.00631047
0.00643927
0.00628672
0.00586101
0.00518197
0.00428002
0.0031947
0.00197294
0.000667112
0.000574417
0.00169757
0.00274493
0.00366996
0.00443189
0.00499757
0.00534287
0.00545361
0.00532605
0.00496683
0.00439255
0.00362881
0.0027091
0.00167326
0.000565814
0.000487402
0.0014405
0.00232951