/*--------------------------------*- C++ -*----------------------------------*\
| =========                 |                                                 |
| \\      /  F ield         | OpenFOAM: The Open Source CFD Toolbox           |
|  \\    /   O peration     | Version:  5.x                                   |
|   \\  /    A nd           | Web:      www.OpenFOAM.org                      |
|    \\/     M anipulation  |                                                 |
\*---------------------------------------------------------------------------*/
FoamFile
{
    version     2.0;
    format      ascii;
    class       volScalarField;
    location    "11.7";
    object      gradTx;
}
// * * * * * * * * * * * * * * * * * * * * * * * * * * * * * * * * * * * * * //

dimensions      [0 -1 0 1 0 0 0];

internalField   nonuniform List<scalar> 
6300
(
24.3809
24.7281
25.4164
26.4337
27.7601
29.3673
31.2171
33.2595
35.4325
37.6618
39.8624
41.9421
43.8066
45.3663
46.5446
24.0328
24.3859
25.0866
26.1235
27.4782
29.1239
31.0234
33.1278
35.3751
37.6893
39.9823
42.1563
44.1101
45.7466
46.9819
23.3307
23.6951
24.4196
25.4946
26.9045
28.6255
30.6237
32.8523
35.2496
37.7371
40.22
42.5897
44.7299
46.5268
47.8808
22.2632
22.6434
23.401
24.5298
26.0186
27.849
29.9926
32.4072
35.0328
37.7884
40.5698
43.2513
45.6919
47.7487
49.2942
20.8145
21.2133
22.0103
23.2041
24.7901
26.7583
29.0895
31.7499
34.685
37.8128
41.0185
44.1526
47.0367
49.4807
51.3099
18.9662
19.3839
20.222
21.4852
23.1783
25.3036
27.8562
30.8169
34.1433
37.7583
41.5378
45.3027
48.8205
51.8262
54.0653
16.6993
17.1333
18.0078
19.3354
21.1334
23.4208
26.2137
29.5171
33.3121
37.5381
42.0706
46.6986
51.1153
54.9372
57.7713
13.9975
14.4412
15.3395
16.7144
18.5981
21.0315
24.0598
27.7246
32.0487
37.0105
42.5066
48.3048
54.0038
59.0346
62.7567
10.8513
11.2935
12.1936
13.5836
15.5123
18.0464
21.2684
25.272
30.1466
35.9476
42.6394
50.0091
57.559
64.4396
69.551
7.26196
7.68711
8.55718
9.9132
11.8204
14.3723
17.6946
21.9472
27.3173
33.9926
42.0932
51.5319
61.7824
71.6123
79.0524
3.2467
3.63501
4.43397
5.6908
7.48298
9.92685
13.1896
17.504
23.1817
30.6113
40.2079
52.2416
66.4248
81.1732
92.8943
-1.15762
-0.828494
-0.147886
0.932262
2.4931
4.66173
7.63204
11.6967
17.2934
25.0619
35.8841
50.8003
70.5004
93.7598
114.341
-5.89178
-5.64419
-5.12999
-4.30768
-3.10532
-1.40581
0.979356
4.35651
9.23224
16.4578
27.4653
44.5738
71.0149
109.022
150.785
-10.8742
-10.7272
-10.4209
-9.92834
-9.20157
-8.1597
-6.66604
-4.48305
-1.17955
4.07061
12.9443
29.0133
59.9616
120.528
221.884
-16.0042
-15.97
-15.8986
-15.7838
-15.6135
-15.366
-15.0014
-14.4438
-13.5388
-11.9409
-8.77313
-1.42745
19.2885
91.2429
391.03
47.2582
47.5485
47.5065
47.1382
46.4603
45.4975
44.2797
42.8398
41.211
39.4249
37.5109
35.4949
33.3994
31.2435
29.0434
26.8127
24.5627
22.3033
20.0428
17.7884
15.5466
13.323
11.1226
8.94946
6.80748
4.69976
2.62887
0.596884
-1.39465
-3.34467
-5.25256
-7.11809
-8.94135
-10.7226
-12.4624
-14.161
-15.8188
-17.4358
-19.0121
-20.5473
-22.041
-23.4929
-24.9027
-26.2705
-27.5967
-28.8824
-30.1288
-31.3378
-32.5116
-33.6521
-34.7614
-35.8408
-36.8914
-37.9133
-38.906
-39.8686
-40.7994
-41.6967
-42.5586
-43.3834
-44.1696
-44.9161
-45.6217
-46.2852
-46.9052
-47.4793
-48.0045
-48.4761
-48.8885
-49.2345
-49.506
-49.6939
-49.7891
-49.7823
-49.6651
-49.4302
-49.0721
-48.5868
-47.9727
-47.2302
-46.3618
-45.3725
-44.2692
-43.0612
-41.76
-40.3793
-38.9349
-37.4441
-35.9258
-34.3994
47.7271
48.026
47.9752
47.583
46.8696
45.8635
44.5986
43.111
41.4364
39.6083
37.657
35.6086
33.4856
31.3065
29.0869
26.8397
24.5758
22.3044
20.0334
17.7699
15.5201
13.2895
11.0828
8.90443
6.75797
4.64656
2.57274
0.538566
-1.45446
-3.40534
-5.31352
-7.17889
-9.00167
-10.7823
-12.5215
-14.2196
-15.8771
-17.4943
-19.0709
-20.6067
-22.1009
-23.5531
-24.9629
-26.33
-27.6548
-28.9383
-30.1821
-31.3882
-32.5589
-33.6967
-34.8037
-35.8818
-36.932
-37.9546
-38.949
-39.9138
-40.8472
-41.7471
-42.6114
-43.4383
-44.2263
-44.9743
-45.6816
-46.3473
-46.9705
-47.5493
-48.0808
-48.5608
-48.9833
-49.3411
-49.6256
-49.8269
-49.9352
-49.9405
-49.8338
-49.6071
-49.2545
-48.7717
-48.157
-47.4107
-46.5354
-45.536
-44.4193
-43.1948
-41.874
-40.4707
-39.001
-37.4832
-35.9369
-34.3827
48.691
49.006
48.9341
48.4893
47.6993
46.6012
45.2372
43.6504
41.8818
39.9683
37.9419
35.8291
33.6517
31.4271
29.1695
26.8903
24.5992
22.3043
20.0128
17.7313
15.4656
13.221
11.0021
8.81318
6.65781
4.53906
2.45943
0.420928
-1.57501
-3.52747
-5.43607
-7.30092
-9.12253
-10.9017
-12.6394
-14.3364
-15.9935
-17.6108
-19.1884
-20.7254
-22.221
-23.6742
-25.0839
-26.4498
-27.7719
-29.0511
-30.2893
-31.489
-32.6531
-33.7849
-34.8872
-35.9625
-37.012
-38.036
-39.0338
-40.0035
-40.9425
-41.848
-42.7174
-43.5485
-44.3398
-45.0905
-45.8005
-46.4701
-47.099
-47.6866
-48.2307
-48.7273
-49.1707
-49.5528
-49.864
-50.0932
-50.2289
-50.2595
-50.1745
-49.9648
-49.6235
-49.146
-48.5302
-47.7764
-46.8872
-45.8675
-44.7242
-43.4666
-42.1061
-40.6569
-39.136
-37.5628
-35.959
-34.3473
50.2064
50.542
50.4291
49.8917
48.9715
47.7208
46.1957
44.4507
42.5349
40.4901
38.3503
36.1418
33.8849
31.5946
29.2825
26.9576
24.6275
22.2987
19.9775
17.6696
15.3804
13.115
10.878
8.67339
6.50474
4.37506
2.2868
0.241926
-1.75819
-3.71275
-5.62159
-7.48514
-9.30438
-11.0807
-12.8156
-14.5105
-16.1667
-17.7845
-19.3638
-20.9035
-22.402
-23.8574
-25.2679
-26.6322
-27.9502
-29.2225
-30.4515
-31.6404
-32.7934
-33.915
-35.0092
-36.0796
-37.1279
-38.1547
-39.1586
-40.1367
-41.0853
-42.0004
-42.878
-43.7155
-44.511
-45.2646
-45.9772
-46.6506
-47.2865
-47.8859
-48.4481
-48.97
-49.4456
-49.866
-50.2198
-50.4936
-50.6732
-50.7443
-50.694
-50.5113
-50.188
-49.7188
-49.1014
-48.3363
-47.4263
-46.3764
-45.1932
-43.8858
-42.4653
-40.946
-39.3458
-37.6861
-35.9918
-34.2897
52.3679
52.7227
52.5341
51.8442
50.7187
49.2346
47.4699
45.4959
43.3728
41.1479
38.8566
36.5235
34.1654
31.7929
29.4133
27.0319
24.6532
22.2818
19.9225
17.5804
15.2606
12.9679
10.7069
8.48159
6.29539
4.15124
2.05161
-0.00159399
-2.00699
-3.96386
-5.87227
-7.73309
-9.54795
-11.3191
-13.0491
-14.7404
-16.3949
-18.0135
-19.5959
-21.1405
-22.6446
-24.1048
-25.5178
-26.8811
-28.1936
-29.4559
-30.6709
-31.8431
-32.9785
-34.0838
-35.1652
-36.2277
-37.2744
-38.3059
-39.3198
-40.3118
-41.2759
-42.2059
-43.096
-43.942
-44.7421
-45.4971
-46.2096
-46.8843
-47.5258
-48.1382
-48.723
-49.2787
-49.7992
-50.2743
-50.69
-51.029
-51.2729
-51.4033
-51.4034
-51.2596
-50.9618
-50.5042
-49.8847
-49.1042
-48.1664
-47.0764
-45.8407
-44.4672
-42.9661
-41.3511
-39.6406
-37.8588
-36.0353
-34.2036
55.3233
55.6851
55.3598
54.4229
52.9811
51.1514
49.0446
46.755
44.3562
41.9006
39.4221
36.9407
34.4657
32.0007
29.5461
27.1016
24.6678
22.2469
19.8424
17.4588
15.1013
12.7749
10.4843
8.23324
6.02528
3.86321
1.74945
-0.314014
-2.32567
-4.28475
-6.19145
-8.04712
-9.85434
-11.6166
-13.3382
-15.023
-16.6744
-18.2943
-19.8822
-21.4356
-22.95
-24.4198
-25.839
-27.2028
-28.5088
-29.7571
-30.9514
-32.0982
-33.2066
-34.2865
-35.3477
-36.3981
-37.4425
-38.4816
-39.512
-40.5263
-41.5152
-42.4683
-43.3767
-44.234
-45.0378
-45.7898
-46.4961
-47.1651
-47.8066
-48.4294
-49.0393
-49.6372
-50.2174
-50.7678
-51.2698
-51.7007
-52.0354
-52.2491
-52.3195
-52.2289
-51.9652
-51.5222
-50.8989
-50.0981
-49.125
-47.9856
-46.6859
-45.2318
-43.6306
-41.8932
-40.0375
-38.0909
-36.0903
-34.0797
59.3014
59.6357
59.0652
57.7276
55.8011
53.4663
50.8815
48.1707
45.4207
42.6852
39.9913
37.3476
34.7511
32.193
29.6637
27.1552
24.6635
22.1879
19.7316
17.2993
14.897
12.5303
10.2042
7.92268
5.68892
3.5055
1.37476
-0.701078
-2.72008
-4.68104
-6.58402
-8.43085
-10.2253
-11.9728
-13.6799
-15.3535
-16.9992
-18.6207
-20.2178
-21.7866
-23.3195
-24.8071
-26.2393
-27.6076
-28.9066
-30.1357
-31.2997
-32.4083
-33.4751
-34.5156
-35.5452
-36.5765
-37.6175
-38.6695
-39.7266
-40.7771
-41.8053
-42.7946
-43.7303
-44.6024
-45.4071
-46.148
-46.8355
-47.4848
-48.1135
-48.7385
-49.3724
-50.0204
-50.6781
-51.3301
-51.9515
-52.5104
-52.9716
-53.3006
-53.4667
-53.4468
-53.2261
-52.7993
-52.1682
-51.3396
-50.3225
-49.125
-47.7528
-46.2078
-44.4905
-42.605
-40.565
-38.4003
-36.1591
-33.9035
64.6614
64.888
63.874
61.8793
59.2078
56.1401
52.8992
49.6419
46.4635
43.409
40.4875
37.686
34.9803
32.3432
29.7505
27.1844
24.6351
22.1009
19.5856
17.0963
14.641
12.2269
9.85964
7.54317
5.27994
3.07182
0.92094
-1.17002
-3.19807
-5.16077
-7.05739
-8.88994
-10.6637
-12.3868
-14.0697
-15.7237
-17.3589
-18.982
-20.5939
-22.1887
-23.754
-25.2739
-26.7314
-28.1115
-29.4045
-30.6077
-31.7274
-32.7781
-33.7809
-34.76
-35.7396
-36.7405
-37.7762
-38.8493
-39.9503
-41.0594
-42.1507
-43.1973
-44.1751
-45.0673
-45.8678
-46.5826
-47.2292
-47.8334
-48.4253
-49.0342
-49.6843
-50.389
-51.1462
-51.9358
-52.7224
-53.4599
-54.0976
-54.5857
-54.8814
-54.9529
-54.7832
-54.3698
-53.7211
-52.8519
-51.7789
-50.5156
-49.0679
-47.4312
-45.5923
-43.5387
-41.2714
-38.8195
-36.2482
-33.6527
71.9877
71.9255
70.0937
67.0043
63.1838
59.0619
54.9393
50.9986
47.327
43.9404
40.8102
37.8858
35.1099
32.4289
29.7985
27.1886
24.5846
21.9862
19.4018
16.844
14.3253
11.8557
9.44176
7.08681
4.79143
2.55562
0.38077
-1.72958
-3.77015
-5.73562
-7.62293
-9.43362
-11.1748
-12.8585
-14.5011
-16.1208
-17.7356
-19.3589
-20.9945
-22.6329
-24.2536
-25.8301
-27.3343
-28.7406
-30.0312
-31.1994
-32.2537
-33.2165
-34.1204
-35.003
-35.9027
-36.8539
-37.8804
-38.9884
-40.1616
-41.3665
-42.5602
-43.6985
-44.7423
-45.6635
-46.4511
-47.1146
-47.6832
-48.1992
-48.7117
-49.2699
-49.917
-50.6815
-51.5668
-52.5452
-53.5633
-54.5525
-55.4381
-56.1475
-56.618
-56.8055
-56.6907
-56.2785
-55.5906
-54.657
-53.5087
-52.171
-50.6545
-48.9451
-47.0028
-44.7793
-42.2433
-39.41
-36.3719
-33.2889
82.2855
81.5097
78.1231
73.1805
67.5927
61.9831
56.716
51.9667
47.7791
44.1017
40.8359
37.8708
35.1022
32.4408
29.8165
27.1837
24.5257
21.8506
19.1792
16.5352
13.9386
11.4039
8.93874
6.54449
4.21697
1.95152
-0.252341
-2.38963
-4.45034
-6.42295
-8.29872
-10.0773
-11.7683
-13.3894
-14.9651
-16.5246
-18.0996
-19.7179
-21.3908
-23.102
-24.8165
-26.4901
-28.0774
-29.5361
-30.8335
-31.9547
-32.9111
-33.7392
-34.4899
-35.2208
-35.9912
-36.8581
-37.8667
-39.0329
-40.3269
-41.6891
-43.0486
-44.3351
-45.4853
-46.4516
-47.2124
-47.7827
-48.2121
-48.5694
-48.9316
-49.3769
-49.98
-50.7992
-51.8527
-53.0966
-54.4452
-55.7935
-57.0317
-58.0524
-58.7615
-59.0927
-59.0256
-58.5835
-57.8133
-56.7705
-55.5106
-54.0833
-52.518
-50.7939
-48.8177
-46.4693
-43.6426
-40.2949
-36.5598
-32.7404
97.4161
94.8517
88.3918
80.2846
72.0319
64.4101
57.7457
52.1248
47.4952
43.6696
40.4278
37.5719
34.9395
32.3986
29.846
27.2146
24.4906
21.7091
18.9167
16.1576
13.4624
10.8516
8.33341
5.90588
3.553
1.25866
-0.981371
-3.15994
-5.25735
-7.24966
-9.11432
-10.847
-12.4621
-13.9857
-15.4522
-16.9057
-18.4011
-19.998
-21.7314
-23.5661
-25.4377
-27.2739
-29.0054
-30.5633
-31.8891
-32.9469
-33.7529
-34.3726
-34.8874
-35.3813
-35.9402
-36.6575
-37.6255
-38.8929
-40.3931
-42.0149
-43.6416
-45.1673
-46.4924
-47.5351
-48.2473
-48.6529
-48.8439
-48.932
-49.0311
-49.2561
-49.7311
-50.5788
-51.8638
-53.4966
-55.3268
-57.1922
-58.9376
-60.4053
-61.4483
-61.9528
-61.8999
-61.36
-60.4278
-59.196
-57.7527
-56.1936
-54.6094
-53.005
-51.1678
-48.8473
-45.7916
-41.737
-36.8685
-31.8532
121.175
113.801
101.031
87.5969
75.562
65.4578
57.272
50.8545
46.0527
42.3961
39.463
36.9507
34.6444
32.3725
29.9883
27.3785
24.5378
21.583
18.606
15.6878
12.8643
10.1658
7.59736
5.15964
2.80466
0.487537
-1.79891
-4.04709
-6.21564
-8.26006
-10.1198
-11.7861
-13.2872
-14.6639
-15.9578
-17.2263
-18.5562
-20.0813
-21.9258
-23.9767
-26.1096
-28.208
-30.1828
-31.9241
-33.3301
-34.301
-34.8622
-35.1569
-35.3143
-35.4477
-35.6605
-36.0952
-36.9527
-38.4172
-40.2836
-42.333
-44.3795
-46.2876
-47.9053
-49.094
-49.723
-49.8314
-49.6235
-49.2779
-48.9489
-48.7744
-48.9448
-49.7282
-51.3733
-53.6117
-56.1569
-58.763
-61.2429
-63.3688
-64.9097
-65.6149
-65.4746
-64.7005
-63.4729
-61.9255
-60.1609
-58.3393
-56.7295
-55.5504
-54.2134
-52.2835
-49.3785
-44.3507
-37.3879
-30.2546
162.25
140.521
114.623
92.8923
76.31
63.7413
54.2508
47.2564
42.9601
40.0798
37.8915
36.0322
34.299
32.5073
30.4549
27.8742
24.7489
21.4882
18.21
15.0815
12.0856
9.29238
6.67288
4.29409
2.00169
-0.327815
-2.67158
-5.04885
-7.35259
-9.53632
-11.4037
-12.9626
-14.2915
-15.4611
-16.4999
-17.458
-18.4297
-19.7043
-21.8227
-24.2687
-26.8307
-29.3197
-31.6961
-33.767
-35.3971
-36.2447
-36.3546
-36.1381
-35.7753
-35.3991
-35.0606
-34.9236
-35.405
-37.3623
-39.9098
-42.6546
-45.3161
-47.8252
-49.9353
-51.4584
-51.9473
-51.4647
-50.6007
-49.5991
-48.6436
-47.7954
-47.275
-47.6361
-50.0277
-53.2842
-56.8985
-60.515
-64.0569
-67.1741
-69.5734
-70.4938
-69.9612
-68.6933
-66.9776
-64.9667
-62.6506
-60.179
-58.2284
-58.3227
-58.1118
-57.123
-56.0216
-49.7503
-38.1524
-26.9484
243.137
173.245
122.21
90.7736
71.2774
57.5913
47.6342
39.7721
37.8278
36.7664
35.8453
34.9315
34.0371
33.0168
31.6816
29.1534
25.1546
21.4179
17.5982
14.2837
11.015
8.16857
5.40163
3.30403
1.25209
-1.12266
-3.49597
-6.15643
-8.66227
-11.268
-13.1313
-14.4704
-15.5248
-16.4463
-17.158
-17.6699
-17.8665
-18.1122
-21.2473
-24.3933
-27.6562
-30.5932
-33.6487
-36.2441
-38.5902
-39.2504
-38.3162
-37.3295
-36.2548
-35.2959
-34.1701
-32.8609
-31.7316
-35.4567
-39.2514
-43.0955
-46.4717
-49.9365
-52.8101
-55.311
-55.57
-53.6466
-51.7751
-49.8535
-48.1832
-46.3437
-44.335
-42.6198
-47.4359
-52.4407
-57.6364
-62.3735
-67.4815
-72.0125
-76.3661
-77.4639
-75.5059
-73.3301
-70.9068
-68.4466
-65.3634
-61.2677
-56.7821
-61.5337
-63.1299
-62.1239
-70.1085
-62.8195
-38.3494
-19.1357
428.63
178.809
101.574
71.4594
57.8771
46.0704
37.9997
23.7656
31.4235
33.2501
33.7879
33.8019
33.9561
33.9787
34.6256
32.5498
25.1821
21.4668
16.2587
13.4195
9.33597
6.9301
3.16639
2.24811
0.967274
-1.91957
-3.90685
-7.48656
-9.82793
-14.0686
-15.6137
-16.3881
-16.9491
-17.7334
-18.1033
-18.3354
-17.2323
-12.359
-20.6557
-24.3494
-28.9505
-31.6954
-36.2631
-39.0796
-44.2105
-44.5511
-40.3526
-38.6472
-36.5672
-35.4321
-33.5432
-30.5385
-21.0673
-33.4504
-38.5213
-44.2093
-47.4988
-52.8984
-56.2206
-62.3912
-62.3346
-55.753
-53.0207
-49.7452
-47.9657
-45.1349
-40.9717
-28.1977
-44.5717
-51.3215
-59.034
-63.6971
-71.7359
-77.1055
-87.8459
-88.8335
-81.3631
-78.3224
-74.8879
-72.8229
-69.5335
-62.917
-42.0335
-69.2874
-71.8945
-54.1775
-106.188
-100.629
-30.9767
0.772132
-32.7351
-30.9625
-29.264
-27.6635
-26.1796
-24.8255
-23.6092
-22.535
-21.6036
-20.8137
-20.1627
-19.6472
-19.2639
-19.0102
-18.8838
-32.6893
-30.888
-29.1656
-27.5466
-26.0495
-24.6872
-23.4669
-22.3918
-21.4618
-20.6747
-20.0269
-19.5147
-19.1342
-18.8825
-18.7572
-32.5941
-30.7343
-28.9634
-27.3072
-25.7844
-24.4065
-23.1791
-22.1033
-21.1769
-20.3959
-19.7553
-19.2501
-18.8756
-18.6281
-18.5051
-32.4424
-30.4914
-28.646
-26.9342
-25.374
-23.975
-22.7395
-21.665
-20.7463
-19.9764
-19.3481
-18.8544
-18.4897
-18.2491
-18.1297
-32.2221
-30.1425
-28.1947
-26.4091
-24.8022
-23.3796
-22.1384
-21.0708
-20.1667
-19.4151
-18.8059
-18.3297
-17.9793
-17.7488
-17.6345
-31.914
-29.6615
-27.5809
-25.7047
-24.0459
-22.6025
-21.3633
-20.3128
-19.4341
-18.7113
-18.1302
-17.6791
-17.3487
-17.1321
-17.0249
-31.4883
-29.0084
-26.7622
-24.7828
-23.0739
-21.6208
-20.3993
-19.3827
-18.5455
-17.8656
-17.3244
-16.9076
-16.604
-16.4057
-16.3079
-30.8974
-28.121
-25.6764
-23.5899
-21.846
-20.4073
-19.2302
-18.2729
-17.4994
-16.8807
-16.3941
-16.0225
-15.7536
-15.5788
-15.4927
-30.0615
-26.9015
-24.2321
-22.0543
-20.3124
-18.9319
-17.841
-16.979
-16.2984
-15.7636
-15.3485
-15.0347
-14.809
-14.663
-14.5913
-28.8391
-25.1911
-22.2959
-20.0823
-18.417
-17.1668
-16.2228
-15.5035
-14.9513
-14.5264
-14.2015
-13.9583
-13.7847
-13.6728
-13.6179
-26.963
-22.7276
-19.6777
-17.5618
-16.1063
-15.0954
-14.3795
-13.8607
-13.4769
-13.189
-12.9726
-12.8122
-12.6984
-12.6253
-12.5894
-23.8964
-19.0782
-16.1254
-14.3808
-13.3507
-12.7288
-12.3388
-12.0827
-11.9063
-11.78
-11.6874
-11.6195
-11.5713
-11.5403
-11.525
-18.5101
-13.5632
-11.3646
-10.4849
-10.1869
-10.1301
-10.1642
-10.2247
-10.2856
-10.3372
-10.3774
-10.4068
-10.4269
-10.4393
-10.4452
-8.3808
-5.29985
-5.28494
-6.00697
-6.78176
-7.44049
-7.96289
-8.36633
-8.67383
-8.90573
-9.07816
-9.20331
-9.2901
-9.34473
-9.37109
11.6451
6.02965
1.53176
-1.47624
-3.49258
-4.88708
-5.88048
-6.60377
-7.13759
-7.53359
-7.82603
-8.03804
-8.18533
-8.27828
-8.32325
-20.7387
-20.8104
-20.9603
-21.2027
-21.5625
-22.0796
-22.8195
-23.8936
-25.5037
-28.0578
-32.5111
-41.5883
-64.9649
-144.451
-488.856
-24.9934
-25.1567
-25.4978
-26.0479
-26.8616
-28.0284
-29.6953
-32.1123
-35.7259
-41.3911
-50.8803
-68.168
-102.595
-174.745
-308.102
-29.1349
-29.38
-29.8904
-30.7104
-31.9159
-33.6301
-36.0505
-39.5002
-44.5236
-52.069
-63.834
-82.8452
-114.027
-162.534
-219.955
-33.1066
-33.4192
-34.0683
-35.1053
-36.6173
-38.7416
-41.6911
-45.7957
-51.57
-59.8169
-71.7558
-89.0707
-113.428
-144.131
-171.682
-36.8615
-37.2251
-37.9771
-39.1707
-40.8936
-43.2803
-46.5298
-50.9317
-56.8996
-65.0008
-75.9442
-90.4059
-108.421
-127.916
-142.542
-40.3641
-40.7613
-41.5796
-42.8686
-44.7091
-47.2199
-50.5684
-54.9806
-60.7477
-68.211
-77.6889
-89.2731
-102.387
-115.083
-123.558
-43.5911
-44.0055
-44.8553
-46.1838
-48.0592
-50.5781
-53.8683
-58.0886
-63.4181
-70.0221
-77.9708
-87.0778
-96.6434
-105.18
-110.458
-46.5304
-46.9474
-47.7987
-49.1192
-50.9625
-53.4007
-56.5224
-60.4264
-65.2034
-70.8995
-77.448
-84.5638
-91.6135
-97.5414
-101.023
-49.1804
-49.588
-50.4164
-51.6918
-53.4529
-55.7485
-58.6334
-62.1581
-66.3507
-71.1848
-76.5313
-82.0955
-87.3626
-91.6011
-94.0045
-51.5474
-51.9364
-52.7238
-53.9273
-55.5722
-57.6873
-60.3001
-63.4259
-67.0523
-71.1144
-75.4633
-79.8336
-83.8258
-86.935
-88.6553
-53.6444
-54.0084
-54.7422
-55.8565
-57.3649
-59.2806
-61.6104
-64.3462
-67.4514
-70.8447
-74.3804
-77.834
-80.902
-83.2333
-84.5005
-55.4887
-55.8237
-56.4966
-57.5121
-58.8749
-60.5863
-62.639
-65.0099
-67.6505
-70.476
-73.3545
-76.1021
-78.4898
-80.2703
-81.2257
-57.1004
-57.4044
-58.0131
-58.9266
-60.1429
-61.655
-63.4465
-65.4862
-67.7213
-70.0705
-72.4194
-74.6199
-76.4992
-77.8803
-78.6141
-58.501
-58.7737
-59.318
-60.1308
-61.2055
-62.5297
-64.0818
-65.8269
-67.7127
-69.6652
-71.5874
-73.3609
-74.8545
-75.9397
-76.512
-59.7123
-59.9545
-60.4365
-61.1532
-62.0949
-63.2462
-64.5831
-66.07
-67.6577
-69.281
-70.8586
-72.2961
-73.4932
-74.3553
-74.8073
-60.7555
-60.9687
-61.3922
-62.0193
-62.8389
-63.834
-64.98
-66.2431
-67.5781
-68.9285
-70.227
-71.3981
-72.3647
-73.0557
-73.4163
-61.6506
-61.8371
-62.2065
-62.7517
-63.4609
-64.3169
-65.2958
-66.3661
-67.4877
-68.6122
-69.6837
-70.6421
-71.4274
-71.9855
-72.2757
-62.4163
-62.5783
-62.8988
-63.3703
-63.9811
-64.7145
-65.5482
-66.4535
-67.3954
-68.3325
-69.219
-70.0064
-70.6477
-71.1014
-71.3366
-63.0696
-63.2096
-63.4862
-63.8921
-64.4161
-65.0425
-65.7508
-66.5155
-67.3062
-68.0881
-68.823
-69.4722
-69.9982
-70.369
-70.5607
-63.6256
-63.7461
-63.9839
-64.332
-64.78
-65.3136
-65.9142
-66.5595
-67.2233
-67.8761
-68.4867
-69.0234
-69.4566
-69.7609
-69.918
-64.0979
-64.2013
-64.4049
-64.7026
-65.0846
-65.538
-66.0466
-66.5907
-67.148
-67.6936
-68.2016
-68.6465
-69.0043
-69.2551
-69.3843
-64.4984
-64.5868
-64.7607
-65.0145
-65.3395
-65.7243
-66.1543
-66.6129
-67.0807
-67.537
-67.9604
-68.33
-68.6264
-68.8337
-68.9404
-64.8375
-64.9129
-65.0611
-65.2771
-65.553
-65.879
-66.2423
-66.6286
-67.0214
-67.4033
-67.7567
-68.0642
-68.3103
-68.4822
-68.5705
-65.1243
-65.1884
-65.3145
-65.4979
-65.7319
-66.0077
-66.3144
-66.6397
-66.9696
-67.2895
-67.5847
-67.8411
-68.0459
-68.1886
-68.2619
-65.3665
-65.421
-65.528
-65.6836
-65.8817
-66.1149
-66.3737
-66.6475
-66.9247
-67.1928
-67.4397
-67.6538
-67.8244
-67.9433
-68.0043
-65.5709
-65.6172
-65.7079
-65.8396
-66.0073
-66.2043
-66.4226
-66.6531
-66.886
-67.1109
-67.3176
-67.4965
-67.639
-67.7381
-67.7889
-65.7432
-65.7824
-65.8593
-65.9708
-66.1126
-66.2789
-66.463
-66.6571
-66.8528
-67.0416
-67.2148
-67.3646
-67.4837
-67.5665
-67.6089
-65.8883
-65.9215
-65.9866
-66.0809
-66.2007
-66.3412
-66.4964
-66.6599
-66.8245
-66.9831
-67.1284
-67.2539
-67.3536
-67.4228
-67.4583
-66.0104
-66.0385
-66.0935
-66.1733
-66.2746
-66.3932
-66.5241
-66.6618
-66.8004
-66.9337
-67.0558
-67.161
-67.2446
-67.3026
-67.3323
-66.113
-66.1368
-66.1833
-66.2508
-66.3364
-66.4366
-66.5471
-66.6633
-66.78
-66.8922
-66.9948
-67.0832
-67.1534
-67.2021
-67.227
-66.199
-66.2192
-66.2586
-66.3157
-66.3882
-66.4729
-66.5662
-66.6642
-66.7627
-66.8572
-66.9437
-67.0181
-67.0771
-67.1181
-67.139
-66.2711
-66.2882
-66.3216
-66.37
-66.4314
-66.5031
-66.5821
-66.665
-66.7481
-66.828
-66.9009
-66.9636
-67.0134
-67.0479
-67.0655
-66.3314
-66.3459
-66.3743
-66.4154
-66.4674
-66.5282
-66.5952
-66.6655
-66.7359
-66.8035
-66.8652
-66.9182
-66.9603
-66.9894
-67.0043
-66.3815
-66.3939
-66.4181
-66.4531
-66.4974
-66.5491
-66.6061
-66.6658
-66.7257
-66.783
-66.8354
-66.8804
-66.9161
-66.9408
-66.9535
-66.4231
-66.4337
-66.4544
-66.4843
-66.5222
-66.5664
-66.6151
-66.6661
-66.7171
-66.7661
-66.8108
-66.8492
-66.8796
-66.9006
-66.9114
-66.4574
-66.4665
-66.4843
-66.51
-66.5426
-66.5806
-66.6224
-66.6662
-66.7101
-66.7521
-66.7905
-66.8234
-66.8495
-66.8676
-66.8768
-66.4853
-66.4932
-66.5086
-66.531
-66.5592
-66.5922
-66.6284
-66.6664
-66.7044
-66.7408
-66.7739
-66.8024
-66.825
-66.8406
-66.8486
-66.5078
-66.5147
-66.5282
-66.5478
-66.5726
-66.6014
-66.6332
-66.6664
-66.6997
-66.7316
-66.7606
-66.7856
-66.8053
-66.819
-66.826
-66.5254
-66.5316
-66.5436
-66.561
-66.5831
-66.6087
-66.637
-66.6665
-66.6961
-66.7244
-66.7502
-66.7723
-66.7899
-66.802
-66.8082
-66.5388
-66.5444
-66.5553
-66.5711
-66.591
-66.6143
-66.6398
-66.6665
-66.6933
-66.7189
-66.7423
-66.7623
-66.7781
-66.7891
-66.7947
-66.5483
-66.5535
-66.5636
-66.5782
-66.5967
-66.6182
-66.6418
-66.6666
-66.6913
-66.715
-66.7366
-66.7552
-66.7698
-66.78
-66.7852
-66.5543
-66.5592
-66.5688
-66.5826
-66.6002
-66.6206
-66.6431
-66.6666
-66.6901
-66.7126
-66.7331
-66.7507
-66.7646
-66.7743
-66.7792
-66.5568
-66.5616
-66.571
-66.5845
-66.6017
-66.6217
-66.6436
-66.6666
-66.6896
-66.7116
-66.7316
-66.7488
-66.7624
-66.7718
-66.7766
-66.556
-66.5609
-66.5703
-66.584
-66.6012
-66.6213
-66.6435
-66.6666
-66.6898
-66.7119
-66.7321
-66.7494
-66.7631
-66.7726
-66.7774
-66.5519
-66.5569
-66.5667
-66.5809
-66.5988
-66.6196
-66.6426
-66.6666
-66.6906
-66.7136
-66.7345
-66.7525
-66.7667
-66.7766
-66.7816
-66.5443
-66.5496
-66.56
-66.5751
-66.5942
-66.6165
-66.641
-66.6666
-66.6922
-66.7167
-66.739
-66.7582
-66.7734
-66.7839
-66.7892
-66.5329
-66.5388
-66.5502
-66.5667
-66.5875
-66.6119
-66.6386
-66.6666
-66.6945
-66.7213
-66.7457
-66.7667
-66.7833
-66.7947
-66.8006
-66.5176
-66.5241
-66.5368
-66.5552
-66.5784
-66.6055
-66.6353
-66.6665
-66.6977
-66.7276
-66.7548
-66.7782
-66.7967
-66.8095
-66.8161
-66.4977
-66.505
-66.5194
-66.5403
-66.5666
-66.5973
-66.6311
-66.6665
-66.7018
-66.7357
-66.7666
-66.7931
-66.8141
-66.8286
-66.8361
-66.4727
-66.4811
-66.4976
-66.5215
-66.5518
-66.587
-66.6258
-66.6664
-66.707
-66.7459
-66.7814
-66.8119
-66.836
-66.8527
-66.8612
-66.4418
-66.4516
-66.4707
-66.4984
-66.5334
-66.5743
-66.6192
-66.6663
-66.7134
-66.7585
-66.7997
-66.835
-66.863
-66.8824
-66.8923
-66.4042
-66.4156
-66.4379
-66.4702
-66.511
-66.5587
-66.6111
-66.6661
-66.7211
-66.7739
-66.8219
-66.8633
-66.896
-66.9187
-66.9303
-66.3586
-66.372
-66.3982
-66.436
-66.4839
-66.5398
-66.6014
-66.6658
-66.7305
-66.7924
-66.8489
-66.8975
-66.936
-66.9627
-66.9763
-66.3038
-66.3195
-66.3503
-66.3948
-66.4512
-66.517
-66.5895
-66.6655
-66.7417
-66.8147
-66.8814
-66.9388
-66.9842
-67.0157
-67.0318
-66.2381
-66.2566
-66.2929
-66.3454
-66.4119
-66.4896
-66.5752
-66.665
-66.7551
-66.8415
-66.9204
-66.9883
-67.0421
-67.0794
-67.0984
-66.1595
-66.1814
-66.2242
-66.2862
-66.3649
-66.4568
-66.5581
-66.6644
-66.7711
-66.8735
-66.967
-67.0476
-67.1114
-67.1557
-67.1784
-66.0657
-66.0915
-66.1422
-66.2156
-66.3086
-66.4174
-66.5374
-66.6634
-66.79
-66.9116
-67.0227
-67.1184
-67.1944
-67.247
-67.274
-65.9539
-65.9845
-66.0444
-66.1313
-66.2414
-66.3703
-66.5126
-66.6621
-66.8124
-66.9569
-67.0891
-67.203
-67.2935
-67.3562
-67.3884
-65.821
-65.8571
-65.928
-66.0307
-66.1612
-66.314
-66.4827
-66.6602
-66.8388
-67.0107
-67.1682
-67.3039
-67.4118
-67.4867
-67.525
-65.6629
-65.7056
-65.7894
-65.911
-66.0654
-66.2465
-66.4467
-66.6575
-66.87
-67.0746
-67.2622
-67.4242
-67.553
-67.6425
-67.6883
-65.4751
-65.5256
-65.6247
-65.7684
-65.9512
-66.1658
-66.4033
-66.6538
-66.9065
-67.1503
-67.3741
-67.5676
-67.7216
-67.8286
-67.8834
-65.2523
-65.3119
-65.4289
-65.5987
-65.815
-66.0691
-66.3508
-66.6485
-66.9492
-67.2399
-67.5071
-67.7384
-67.9227
-68.0509
-68.1166
-64.9881
-65.0584
-65.1963
-65.3969
-65.6525
-65.9533
-66.2874
-66.641
-66.999
-67.3457
-67.665
-67.9418
-68.1627
-68.3166
-68.3955
-64.6752
-64.7578
-64.9203
-65.1567
-65.4585
-65.8144
-66.2103
-66.6304
-67.0567
-67.4704
-67.8523
-68.1841
-68.4493
-68.6342
-68.7292
-64.3048
-64.4019
-64.5929
-64.8712
-65.2271
-65.6476
-66.1166
-66.6155
-67.1232
-67.6172
-68.0745
-68.4727
-68.7916
-69.0143
-69.1288
-63.867
-63.9809
-64.2049
-64.5319
-64.9508
-65.447
-66.0022
-66.5944
-67.1991
-67.7895
-68.3377
-68.8164
-69.2007
-69.4695
-69.6079
-63.3502
-63.4833
-63.7454
-64.1287
-64.6209
-65.2056
-65.8619
-66.5647
-67.2851
-67.9911
-68.6491
-69.2257
-69.6898
-70.0153
-70.183
-62.741
-62.8961
-63.2019
-63.6499
-64.2268
-64.9145
-65.6894
-66.5228
-67.381
-68.226
-69.017
-69.7131
-70.2753
-70.6706
-70.8747
-62.0242
-62.2042
-62.5596
-63.0816
-63.7559
-64.5628
-65.4762
-66.4637
-67.4861
-68.4982
-69.4509
-70.2933
-70.9766
-71.4586
-71.708
-61.1825
-61.3904
-61.8018
-62.4075
-63.1929
-64.137
-65.2117
-66.3804
-67.5982
-68.8118
-69.9614
-70.984
-71.8178
-72.4082
-72.7144
-60.1965
-60.4354
-60.9091
-61.6086
-62.5196
-63.6207
-64.8818
-66.2631
-67.7132
-69.1697
-70.5602
-71.8058
-72.8278
-73.555
-73.9334
-59.0446
-59.3174
-59.8595
-60.663
-61.7145
-62.9932
-64.4686
-66.0979
-67.8238
-69.5735
-71.2594
-72.7829
-74.0425
-74.9442
-75.415
-57.7033
-58.0125
-58.6284
-59.5451
-60.7515
-62.2291
-63.9485
-65.8656
-67.9179
-70.0216
-72.0713
-73.9433
-75.5056
-76.6324
-77.2236
-56.1473
-56.4947
-57.1886
-58.2261
-59.6003
-61.2972
-63.2912
-65.5395
-67.9763
-70.5073
-73.0064
-75.3188
-77.2711
-78.6924
-79.4427
-54.3502
-54.7364
-55.5103
-56.6733
-58.2251
-60.1591
-62.4573
-65.0824
-67.9693
-71.0149
-74.0712
-76.9442
-79.4052
-81.2182
-82.1829
-52.285
-52.7091
-53.5617
-54.8507
-56.5844
-58.7681
-61.3962
-64.4437
-67.8521
-71.5151
-75.2632
-78.8557
-81.9893
-84.3329
-85.5928
-49.9254
-50.3842
-51.3103
-52.7192
-54.6315
-57.0684
-60.0441
-63.5542
-67.5581
-71.9562
-76.5631
-81.0858
-85.1219
-88.2
-89.8774
-47.2473
-47.7351
-48.7237
-50.2382
-52.3144
-54.9947
-58.321
-62.3218
-66.9904
-72.2523
-77.9215
-83.6536
-88.9195
-93.0398
-95.3268
-44.2306
-44.7384
-45.772
-47.3674
-49.5779
-52.4724
-56.1296
-60.6256
-66.0106
-72.2655
-79.236
-86.5452
-93.5125
-99.1525
-102.364
-40.8614
-41.3767
-42.4303
-44.0695
-46.3666
-49.4207
-53.3556
-58.3122
-64.4266
-71.7816
-80.3154
-89.674
-99.0269
-106.951
-111.631
-37.1346
-37.6413
-38.6822
-40.3148
-42.6298
-45.7574
-49.8722
-55.1948
-61.9811
-70.4791
-80.8218
-92.8065
-105.533
-117.003
-124.148
-33.0562
-33.5351
-34.5236
-36.0863
-38.3289
-41.4088
-45.5501
-51.0611
-58.347
-67.8956
-80.1878
-95.4236
-112.911
-130.059
-141.626
-28.6456
-29.0754
-29.9664
-31.386
-33.4469
-36.3232
-40.2769
-45.6951
-53.1415
-63.407
-77.5094
-96.4769
-120.525
-146.989
-167.136
-23.9368
-24.2956
-25.0425
-26.2407
-27.9987
-30.4897
-33.9868
-38.9208
-45.9783
-56.254
-71.4523
-94.0018
-126.462
-168.304
-206.636
-18.9792
-19.2467
-19.8054
-20.707
-22.0417
-23.9579
-26.699
-30.6721
-36.5806
-45.6825
-60.2904
-84.6441
-125.882
-192.057
-272.754
-13.8361
-13.9959
-14.3306
-14.8729
-15.6813
-16.8537
-18.556
-21.0798
-24.9654
-31.2878
-42.3606
-63.5612
-107.983
-205.725
-394.91
-8.58254
-8.62426
-8.71184
-8.85444
-9.06841
-9.38168
-9.84301
-10.5421
-11.6585
-13.5945
-17.398
-26.3523
-53.0569
-155.89
-648.441
-3.30044
-3.22118
-3.05537
-2.78686
-2.38701
-1.80734
-0.965364
0.284748
2.21704
5.39521
11.1412
23.1831
54.7366
164.583
664.665
1.92612
2.1213
2.52931
3.18903
4.16905
5.58432
7.62828
10.6372
15.2267
22.6011
35.3077
59.1679
108.159
214.056
416.378
7.0166
7.31546
7.93867
8.94197
10.4223
12.5388
15.5511
19.8914
26.3015
36.1033
51.7281
77.6994
122.062
196.565
308.606
37.7473
15.3905
6.41467
1.76792
-1.04749
-2.91406
-4.21913
-5.16171
-5.8556
-6.37064
-6.75187
-7.0291
-7.22232
-7.34459
-7.40385
23.8602
14.6078
7.84733
3.44539
0.516414
-1.51033
-2.96048
-4.02341
-4.8143
-5.4063
-5.8475
-6.17018
-6.39606
-6.53948
-6.60912
16.3981
12.0946
7.64201
4.09992
1.45377
-0.506984
-1.97072
-3.074
-3.91106
-4.54663
-5.0254
-5.37841
-5.62702
-5.78553
-5.86269
11.9244
9.68484
6.80433
4.13224
1.91513
0.151219
-1.23127
-2.30943
-3.14772
-3.79579
-4.29059
-4.65909
-4.92051
-5.08801
-5.16979
9.00594
7.72005
5.82184
3.84857
2.06176
0.544544
-0.703146
-1.71142
-2.51645
-3.15136
-3.64345
-4.01408
-4.27917
-4.44997
-4.53364
6.98034
6.1804
4.89141
3.43537
2.02114
0.750697
-0.341277
-1.25453
-2.00331
-2.60606
-3.08063
-3.44233
-3.70328
-3.87241
-3.95554
5.51019
4.98033
4.07695
2.99312
1.88065
0.832906
-0.103518
-0.91184
-1.59156
-2.14976
-2.59618
-2.9405
-3.19111
-3.35453
-3.43514
4.40794
4.03959
3.38777
2.57073
1.69518
0.837807
0.0452807
-0.658454
-1.26417
-1.77108
-2.18259
-2.50371
-2.73947
-2.89413
-2.97068
3.56145
3.29566
2.81331
2.18895
1.49707
0.797667
0.132418
-0.473132
-1.00539
-1.45862
-1.83177
-2.12618
-2.34414
-2.48794
-2.55936
2.89951
2.70209
2.33743
1.85403
1.30418
0.733802
0.178097
-0.338704
-0.801472
-1.20176
-1.53561
-1.80172
-2.00027
-2.13198
-2.19762
2.37465
2.22463
1.94399
1.56524
1.12552
0.659743
0.196756
-0.241797
-0.640934
-0.991045
-1.28646
-1.52416
-1.7028
-1.8219
-1.88143
1.95394
1.83786
1.61867
1.31877
0.964947
0.583741
0.198446
-0.17226
-0.514436
-0.818301
-1.07738
-1.28762
-1.44665
-1.55318
-1.60657
1.61381
1.52269
1.34938
1.10975
0.82338
0.510573
0.190003
-0.122533
-0.414538
-0.676652
-0.902198
-1.08662
-1.22694
-1.32134
-1.36877
1.33695
1.26457
1.12615