/*--------------------------------*- C++ -*----------------------------------*\
| =========                 |                                                 |
| \\      /  F ield         | OpenFOAM: The Open Source CFD Toolbox           |
|  \\    /   O peration     | Version:  5.x                                   |
|   \\  /    A nd           | Web:      www.OpenFOAM.org                      |
|    \\/     M anipulation  |                                                 |
\*---------------------------------------------------------------------------*/
FoamFile
{
    version     2.0;
    format      ascii;
    class       volScalarField;
    location    "2.1";
    object      gradTy;
}
// * * * * * * * * * * * * * * * * * * * * * * * * * * * * * * * * * * * * * //

dimensions      [0 -1 0 1 0 0 0];

internalField   nonuniform List<scalar> 
2048
(
-27.511
-27.4771
-27.4105
-27.3131
-27.1876
-27.0374
-26.866
-26.677
-26.474
-26.2601
-26.0383
-25.8112
-25.5811
-25.3498
-25.1191
-24.8903
-24.6646
-24.443
-24.2259
-24.014
-23.8075
-23.6064
-23.4109
-23.2208
-23.0361
-22.8567
-22.6824
-22.5133
-22.3493
-22.1903
-22.0363
-21.8875
-21.7439
-21.6058
-21.4732
-21.3465
-21.2258
-21.1114
-21.0034
-20.9022
-20.8079
-20.7209
-20.6414
-20.5697
-20.5063
-20.4513
-20.4052
-20.3683
-20.3407
-20.3224
-20.3135
-20.3135
-20.3219
-20.3379
-20.3604
-20.3881
-20.4192
-20.4521
-20.4848
-20.5156
-20.5426
-20.5644
-20.5796
-20.5874
-27.5383
-27.5036
-27.4354
-27.3357
-27.2076
-27.0545
-26.8802
-26.6884
-26.4828
-26.2665
-26.0426
-25.8137
-25.582
-25.3493
-25.1175
-24.8878
-24.6614
-24.4392
-24.2218
-24.0097
-23.803
-23.6019
-23.4064
-23.2164
-23.0318
-22.8525
-22.6783
-22.5092
-22.3452
-22.1861
-22.0321
-21.8832
-21.7395
-21.6012
-21.4685
-21.3416
-21.2207
-21.1061
-20.998
-20.8965
-20.8021
-20.7148
-20.635
-20.5631
-20.4993
-20.4441
-20.3978
-20.3607
-20.333
-20.3149
-20.3062
-20.3067
-20.3158
-20.3327
-20.3563
-20.3852
-20.4177
-20.4521
-20.4864
-20.5186
-20.5468
-20.5696
-20.5855
-20.5937
-27.5907
-27.5544
-27.483
-27.379
-27.2457
-27.087
-26.907
-26.7098
-26.4992
-26.2784
-26.0506
-25.8182
-25.5835
-25.3483
-25.1143
-24.8829
-24.6552
-24.4319
-24.2139
-24.0013
-23.7945
-23.5934
-23.398
-23.2082
-23.0237
-22.8445
-22.6705
-22.5015
-22.3375
-22.1784
-22.0243
-21.8752
-21.7313
-21.5927
-21.4596
-21.3323
-21.2111
-21.0961
-20.9876
-20.8859
-20.791
-20.7033
-20.623
-20.5505
-20.4862
-20.4305
-20.3837
-20.3463
-20.3185
-20.3005
-20.2923
-20.2936
-20.3039
-20.3225
-20.3482
-20.3796
-20.4149
-20.4522
-20.4894
-20.5243
-20.555
-20.5797
-20.5969
-20.6058
-27.666
-27.6272
-27.551
-27.4406
-27.2996
-27.1328
-26.9446
-26.7396
-26.5218
-26.2947
-26.0613
-25.8241
-25.5852
-25.3465
-25.1096
-24.8757
-24.646
-24.4214
-24.2025
-23.9894
-23.7824
-23.5814
-23.3862
-23.1965
-23.0123
-22.8333
-22.6595
-22.4906
-22.3266
-22.1675
-22.0133
-21.8639
-21.7196
-21.5806
-21.447
-21.3193
-21.1975
-21.0821
-20.9731
-20.8708
-20.7754
-20.687
-20.6061
-20.5328
-20.4677
-20.4112
-20.3637
-20.3258
-20.2978
-20.2799
-20.2723
-20.2747
-20.2868
-20.3078
-20.3365
-20.3715
-20.4108
-20.4524
-20.4938
-20.5327
-20.5669
-20.5944
-20.6136
-20.6235
-27.7625
-27.7203
-27.6378
-27.5187
-27.3677
-27.19
-26.9912
-26.7762
-26.5494
-26.3143
-26.074
-25.8308
-25.5868
-25.3437
-25.103
-24.8661
-24.6341
-24.4078
-24.1878
-23.9742
-23.7671
-23.5662
-23.3712
-23.182
-22.9981
-22.8194
-22.6458
-22.4771
-22.3132
-22.1541
-21.9996
-21.8499
-21.7052
-21.5655
-21.4314
-21.3029
-21.1806
-21.0645
-20.955
-20.8521
-20.756
-20.6668
-20.585
-20.5107
-20.4445
-20.3869
-20.3385
-20.2999
-20.2715
-20.2538
-20.2468
-20.2506
-20.2648
-20.2888
-20.3213
-20.3609
-20.4054
-20.4525
-20.4995
-20.5437
-20.5825
-20.6137
-20.6354
-20.6466
-27.8792
-27.8327
-27.742
-27.6119
-27.4481
-27.257
-27.0452
-26.8181
-26.5805
-26.3362
-26.0878
-25.8378
-25.5878
-25.3396
-25.0946
-24.8542
-24.6195
-24.3912
-24.17
-23.9559
-23.7488
-23.5482
-23.3537
-23.1649
-22.9815
-22.8032
-22.6299
-22.4614
-22.2976
-22.1385
-21.9838
-21.8337
-21.6884
-21.548
-21.413
-21.2838
-21.1607
-21.044
-20.9338
-20.8302
-20.7333
-20.6433
-20.5603
-20.4848
-20.4173
-20.3584
-20.3088
-20.2692
-20.2402
-20.2224
-20.2161
-20.2214
-20.2381
-20.2656
-20.3028
-20.3479
-20.3988
-20.4527
-20.5066
-20.5573
-20.6018
-20.6374
-20.6623
-20.6751
-28.0153
-27.9634
-27.8626
-27.7188
-27.5393
-27.3322
-27.1048
-26.8637
-26.6139
-26.3591
-26.102
-25.8444
-25.5879
-25.334
-25.0842
-24.8397
-24.602
-24.3717
-24.1493
-23.9348
-23.7278
-23.5277
-23.3339
-23.1457
-22.9629
-22.785
-22.6121
-22.4439
-22.2803
-22.1211
-21.9663
-21.8157
-21.6696
-21.5284
-21.3924
-21.2622
-21.1383
-21.0208
-20.91
-20.8057
-20.7081
-20.617
-20.5328
-20.4559
-20.3867
-20.3262
-20.2751
-20.2342
-20.2044
-20.1864
-20.1807
-20.1875
-20.2069
-20.2383
-20.2807
-20.3324
-20.3908
-20.4529
-20.515
-20.5735
-20.6248
-20.6658
-20.6944
-20.709
-28.1706
-28.1119
-27.9987
-27.8383
-27.64
-27.4138
-27.1686
-26.9116
-26.6483
-26.3822
-26.1157
-25.8501
-25.5867
-25.3267
-25.0715
-24.8227
-24.5816
-24.3491
-24.1256
-23.9109
-23.7044
-23.5052
-23.3122
-23.1249
-22.9426
-22.7652
-22.5927
-22.4249
-22.2615
-22.1025
-21.9474
-21.7963
-21.6493
-21.507
-21.3699
-21.2386
-21.1137
-20.9955
-20.884
-20.7791
-20.6806
-20.5886
-20.503
-20.4244
-20.3533
-20.2908
-20.2378
-20.1953
-20.1644
-20.1459
-20.1406
-20.149
-20.1712
-20.2069
-20.2552
-20.3142
-20.3813
-20.4529
-20.5248
-20.5924
-20.6517
-20.699
-20.7318
-20.7485
-28.345
-28.2781
-28.1496
-27.9692
-27.7487
-27.5003
-27.2347
-26.9602
-26.6824
-26.4046
-26.1284
-25.8547
-25.584
-25.3176
-25.0567
-24.8031
-24.5583
-24.3235
-24.0991
-23.8845
-23.6789
-23.4808
-23.289
-23.1026
-22.9211
-22.7442
-22.5721
-22.4047
-22.2417
-22.0828
-21.9276
-21.7758
-21.6279
-21.4842
-21.3457
-21.2132
-21.0873
-20.9683
-20.8562
-20.7508
-20.6516
-20.5585
-20.4714
-20.3908
-20.3176
-20.2527
-20.1974
-20.153
-20.1206
-20.1014
-20.0963
-20.106
-20.131
-20.1712
-20.2259
-20.2932
-20.3702
-20.4528
-20.5359
-20.6142
-20.6826
-20.737
-20.7745
-20.7936
-28.5388
-28.4618
-28.315
-28.1106
-27.8639
-27.59
-27.3016
-27.008
-26.715
-26.4253
-26.1396
-25.8577
-25.5798
-25.3066
-25.0395
-24.7807
-24.5321
-24.2949
-24.0697
-23.8556
-23.6513
-23.4549
-23.2646
-23.0794
-22.8986
-22.7222
-22.5505
-22.3836
-22.2211
-22.0625
-21.9072
-21.7548
-21.6056
-21.4604
-21.3202
-21.1862
-21.0592
-20.9394
-20.8269
-20.7211
-20.6214
-20.5272
-20.4385
-20.3558
-20.28
-20.2124
-20.1544
-20.1077
-20.0734
-20.0531
-20.0479
-20.0587
-20.0864
-20.1313
-20.1928
-20.2692
-20.3574
-20.4524
-20.5485
-20.639
-20.7178
-20.7801
-20.8228
-20.8445
-28.7525
-28.6634
-28.4943
-28.2615
-27.9842
-27.6812
-27.3675
-27.0536
-26.7451
-26.4437
-26.1489
-25.8592
-25.574
-25.2938
-25.0201
-24.7556
-24.5027
-24.2632
-24.0374
-23.8244
-23.6221
-23.4279
-23.2395
-23.0555
-22.8754
-22.6994
-22.5281
-22.3618
-22.2
-22.0419
-21.8866
-21.7334
-21.5828
-21.4357
-21.2935
-21.1578
-21.0295
-20.9092
-20.7965
-20.6905
-20.5903
-20.4952
-20.4048
-20.3197
-20.241
-20.1702
-20.1092
-20.0596
-20.0231
-20.0013
-19.9956
-20.0072
-20.0374
-20.087
-20.1557
-20.242
-20.3425
-20.4517
-20.5626
-20.667
-20.7575
-20.8285
-20.8767
-20.901
-28.9869
-28.883
-28.6874
-28.4208
-28.108
-27.772
-27.4306
-27.0953
-26.7714
-26.4591
-26.1561
-25.8592
-25.5668
-25.2793
-24.9984
-24.7276
-24.4701
-24.2282
-24.0023
-23.791
-23.5914
-23.4
-23.2139
-23.0313
-22.8518
-22.676
-22.505
-22.3393
-22.1786
-22.0213
-21.8661
-21.7122
-21.5599
-21.4104
-21.2658
-21.1281
-20.9986
-20.8777
-20.765
-20.6593
-20.559
-20.463
-20.3708
-20.2831
-20.201
-20.1266
-20.062
-20.0092
-19.9701
-19.9463
-19.9397
-19.9517
-19.984
-20.038
-20.1141
-20.2111
-20.3252
-20.4504
-20.5781
-20.6985
-20.802
-20.8824
-20.9364
-20.9633
-29.2431
-29.1214
-28.8939
-28.5875
-28.2335
-27.8605
-27.4892
-27.1317
-26.7929
-26.471
-26.161
-25.8577
-25.5585
-25.2633
-24.9746
-24.6967
-24.4342
-24.1899
-23.9642
-23.7553
-23.5595
-23.3718
-23.1884
-23.0072
-22.8281
-22.6521
-22.4812
-22.3164
-22.157
-22.001
-21.8461
-21.6913
-21.537
-21.3848
-21.2372
-21.0972
-20.9662
-20.845
-20.7327
-20.6277
-20.5277
-20.4309
-20.3369
-20.2462
-20.1604
-20.0819
-20.0132
-19.9567
-19.9146
-19.8885
-19.8804
-19.8922
-19.9262
-19.9844
-20.068
-20.1762
-20.3053
-20.4484
-20.5953
-20.7337
-20.8518
-20.942
-21.0017
-21.0312
-29.5224
-29.3792
-29.1137
-28.7603
-28.3589
-27.9448
-27.5413
-27.1614
-26.8088
-26.4791
-26.1638
-25.8551
-25.5494
-25.2463
-24.9487
-24.6627
-24.3947
-24.1479
-23.923
-23.7176
-23.5266
-23.3436
-23.1633
-22.9836
-22.8046
-22.6279
-22.4566
-22.2928
-22.1354
-21.9812
-21.8269
-21.6712
-21.5146
-21.3589
-21.2078
-21.065
-20.9326
-20.8112
-20.6999
-20.5961
-20.4968
-20.3995
-20.3035
-20.2096
-20.1195
-20.0362
-19.9631
-19.9025
-19.8569
-19.8281
-19.818
-19.8291
-19.8641
-19.9259
-20.0169
-20.1369
-20.2823
-20.4453
-20.614
-20.773
-20.9071
-21.0076
-21.0727
-21.1043
-29.8265
-29.6573
-29.3466
-28.938
-28.4823
-28.0227
-27.5851
-27.1827
-26.8181
-26.4831
-26.1647
-25.8519
-25.5399
-25.2285
-24.9209
-24.6257
-24.3515
-24.1022
-23.8785
-23.6778
-23.4932
-23.3159
-23.1392
-22.9609
-22.7815
-22.6033
-22.4313
-22.2687
-22.114
-21.9622
-21.8088
-21.6522
-21.4928
-21.3329
-21.1774
-21.0315
-20.8976
-20.7762
-20.6665
-20.5647
-20.4667
-20.369
-20.271
-20.1735
-20.0786
-19.99
-19.9118
-19.8468
-19.7973
-19.7654
-19.753
-19.7626
-19.7977
-19.8625
-19.9605
-20.0928
-20.2558
-20.4408
-20.6345
-20.817
-20.9687
-21.0794
-21.1492
-21.1824
-30.1571
-29.9566
-29.5925
-29.1191
-28.6011
-28.092
-27.6187
-27.1942
-26.82
-26.4829
-26.1643
-25.8486
-25.5307
-25.2107
-24.8915
-24.5852
-24.3043
-24.0524
-23.8305
-23.636
-23.4594
-23.2892
-23.1165
-22.9393
-22.7591
-22.5784
-22.4048
-22.2438
-22.0927
-21.9445
-21.7924
-21.6347
-21.4722
-21.307
-21.1461
-20.9967
-20.8611
-20.7401
-20.6326
-20.5338
-20.4378
-20.34
-20.2398
-20.1384
-20.0379
-19.9433
-19.8597
-19.7899
-19.7362
-19.7008
-19.6855
-19.6929
-19.7273
-19.7939
-19.8984
-20.0434
-20.2251
-20.4345
-20.6566
-20.8663
-21.0371
-21.1577
-21.231
-21.2649
-30.5165
-30.2781
-29.8512
-29.3019
-28.713
-28.1507
-27.6404
-27.1943
-26.8139
-26.4788
-26.1633
-25.8459
-25.5224
-25.1934
-24.8605
-24.5411
-24.2529
-23.9984
-23.7787
-23.5921
-23.4257
-23.2642
-23.0957
-22.9194
-22.7377
-22.553
-22.3767
-22.2179
-22.0718
-21.9283
-21.7778
-21.619
-21.453
-21.2813
-21.1137
-20.9604
-20.823
-20.7026
-20.5983
-20.5036
-20.4105
-20.3127
-20.2103
-20.1047
-19.9978
-19.8962
-19.8068
-19.732
-19.6738
-19.6347
-19.616
-19.6205
-19.6528
-19.7202
-19.8303
-19.9881
-20.1899
-20.4257
-20.6804
-20.9218
-21.1134
-21.2427
-21.3177
-21.3512
-30.9072
-30.6227
-30.1228
-29.4845
-28.8147
-28.1965
-27.6484
-27.1815
-26.799
-26.471
-26.1627
-25.8446
-25.5155
-25.1775
-24.8282
-24.4928
-24.197
-23.9398
-23.7227
-23.5462
-23.3926
-23.2417
-23.0773
-22.9015
-22.7178
-22.5271
-22.3465
-22.1905
-22.0513
-21.9142
-21.7655
-21.6054
-21.4357
-21.2558
-21.08
-20.9225
-20.7833
-20.6635
-20.5637
-20.4745
-20.3853
-20.2876
-20.1826
-20.0726
-19.9583
-19.8487
-19.7534
-19.6733
-19.6104
-19.5674
-19.545
-19.5456
-19.5747
-19.6412
-19.7558
-19.9266
-20.1494
-20.4136
-20.7057
-20.9847
-21.1985
-21.3347
-21.4089
-21.4402
-31.3322
-30.9911
-30.4075
-29.6649
-28.9028
-28.2277
-27.6415
-27.1541
-26.775
-26.46
-26.1638
-25.8452
-25.5105
-25.1644
-24.7948
-24.4395
-24.1367
-23.8766
-23.6617
-23.4981
-23.3603
-23.2225
-23.0619
-22.8857
-22.7001
-22.5005
-22.3131
-22.1613
-22.0313
-21.9028
-21.7557
-21.5941
-21.4211
-21.2308
-21.0444
-20.883
-20.7419
-20.6225
-20.5286
-20.4466
-20.3627
-20.2648
-20.157
-20.0428
-19.9197
-19.8008
-19.6995
-19.614
-19.5461
-19.4993
-19.4729
-19.4689
-19.4933
-19.557
-19.6744
-19.8583
-20.1033
-20.397
-20.7323
-21.0566
-21.2939
-21.4339
-21.5037
-21.5311
-31.7947
-31.3835
-30.7059
-29.8407
-28.9728
-28.243
-27.6186
-27.1101
-26.7415
-26.4464
-26.1685
-25.8484
-25.5077
-25.1557
-24.7605
-24.3798
-24.0719
-23.8087
-23.595
-23.4479
-23.3295
-23.208
-23.0496
-22.8721
-22.6854
-22.4731
-22.2753
-22.1298
-22.012
-21.895
-21.7487
-21.5852
-21.4099
-21.2062
-21.0062
-20.8419
-20.6986
-20.5792
-20.4931
-20.4202
-20.3434
-20.2446
-20.1335
-20.0157
-19.882
-19.7521
-19.6453
-19.5545
-19.4811
-19.4308
-19.4001
-19.3909
-19.4089
-19.4676
-19.5856
-19.7829
-20.0511
-20.3742
-20.7595
-21.1396
-21.4011
-21.5403
-21.6014
-21.6225
-32.2991
-31.7989
-31.0196
-30.0093
-29.0191
-28.2416
-27.5792
-27.047
-26.6983
-26.4308
-26.1793
-25.8547
-25.5066
-25.1539
-24.7255
-24.3119
-24.0033
-23.7362
-23.5213
-23.3955
-23.3005
-23.1995
-23.0408
-22.8605
-22.6752
-22.4447
-22.2314
-22.0956
-21.9933
-21.8919
-21.7447
-21.5784
-21.4034
-21.1821
-20.9643
-20.7994
-20.6536
-20.5327
-20.4572
-20.3955
-20.3282
-20.2272
-20.1122
-19.9921
-19.8454
-19.702
-19.591
-19.4949
-19.4155
-19.3623
-19.3274
-19.3121
-19.322
-19.3731
-19.4887
-19.7001
-19.9929
-20.3431
-20.7863
-21.2368
-21.522
-21.6538
-21.7008
-21.7131
-32.8503
-32.2347
-31.3515
-30.1678
-29.0341
-28.2244
-27.5236
-26.9614
-26.6457
-26.4136
-26.1996
-25.8638
-25.5063
-25.1625
-24.69
-24.2325
-23.9318
-23.6597
-23.4385
-23.3412
-23.2735
-23.1994
-23.0354
-22.8502
-22.6715
-22.4151
-22.1787
-22.0582
-21.9753
-21.8952
-21.7434
-21.5732
-21.4036
-21.1586
-20.917
-20.7562
-20.607
-20.482
-20.4209
-20.3727
-20.3182
-20.2125
-20.0924
-19.9732
-19.8099
-19.6497
-19.5371
-19.4355
-19.3491
-19.2943
-19.255
-19.2332
-19.2332
-19.2738
-19.3828
-19.6097
-19.9292
-20.3007
-20.8109
-21.3523
-21.6587
-21.774
-21.8007
-21.8015
-33.4549
-32.6855
-31.7065
-30.3131
-29.0079
-28.194
-27.4528
-26.8485
-26.5849
-26.395
-26.2343
-25.8754
-25.5043
-25.1867
-24.6541
-24.1369
-23.8598
-23.5801
-23.3437
-23.2855
-23.2485
-23.2105
-23.0329
-22.8395
-22.6778
-22.3843
-22.1138
-22.0176
-21.9578
-21.9074
-21.7446
-21.5682
-21.4132
-21.1357
-20.8616
-20.7133
-20.5595
-20.4255
-20.3846
-20.3517
-20.3151
-20.2002
-20.0734
-19.9606
-19.7756
-19.5937
-19.4841
-19.3768
-19.2817
-19.2272
-19.1836
-19.155
-19.1431
-19.1701
-19.2667
-19.5115
-19.8617
-20.2426
-20.8306
-21.4924
-21.8134
-21.9001
-21.8995
-21.8861
-34.1217
-33.141
-32.0937
-30.442
-28.9265
-28.1565
-27.3694
-26.7014
-26.5182
-26.3738
-26.2901
-25.8879
-25.4964
-25.2346
-24.618
-24.0179
-23.7912
-23.4989
-23.2326
-23.2297
-23.2248
-23.2372
-23.0324
-22.8257
-22.6989
-22.3522
-22.0318
-21.9747
-21.9399
-21.9319
-21.7473
-21.561
-21.4363
-21.1134
-20.7942
-20.6729
-20.5117
-20.3607
-20.3489
-20.3321
-20.3211
-20.1899
-20.0537
-19.9568
-19.7424
-19.5318
-19.4331
-19.3192
-19.2125
-19.1618
-19.1136
-19.0782
-19.0524
-19.063
-19.1386
-19.4055
-19.7935
-20.1633
-20.841
-21.6654
-21.9884
-22.0309
-21.9956
-21.9654
-34.8625
-33.5841
-32.5273
-30.551
-28.7704
-28.1221
-27.2768
-26.5099
-26.4501
-26.3472
-26.3769
-25.8987
-25.4754
-25.3175
-24.5818
-23.8651
-23.7322
-23.4185
-23.0988
-23.1766
-23.2003
-23.2854
-23.0321
-22.8041
-22.7421
-22.3187
-21.9257
-21.9312
-21.9201
-21.9739
-21.7501
-21.5477
-21.4793
-21.0917
-20.709
-20.6383
-20.465
-20.2842
-20.3153
-20.3127
-20.3395
-20.1805
-20.0308
-19.9654
-19.7103
-19.4609
-19.3858
-19.2634
-19.1405
-19.0989
-19.0452
-19.0038
-18.9619
-18.9536
-18.996
-19.2913
-19.73
-20.0551
-20.8357
-21.8834
-22.1852
-22.1641
-22.0868
-22.0382
-35.6939
-33.9872
-33.0301
-30.6364
-28.5126
-28.1078
-27.1806
-26.2589
-26.389
-26.3091
-26.5086
-25.904
-25.4299
-25.4521
-24.5453
-23.6629
-23.6931
-23.3421
-22.9326
-23.1308
-23.1711
-23.364
-23.0295
-22.7677
-22.818
-22.2837
-21.786
-21.8911
-21.8949
-22.0406
-21.7507
-21.5222
-21.5509
-21.0705
-20.5976
-20.615
-20.4209
-20.1907
-20.2863
-20.2914
-20.3748
-20.1707
-20.0009
-19.9919
-19.6791
-19.3763
-19.3452
-19.2101
-19.0638
-19.04
-18.9787
-18.9326
-18.872
-18.844
-18.8352
-19.1682
-19.68
-19.908
-20.805
-22.1634
-22.4046
-22.297
-22.1714
-22.1031
-36.639
-34.3076
-33.6368
-30.6944
-28.1154
-28.1395
-27.088
-25.9266
-26.3486
-26.2484
-26.7049
-25.8976
-25.3431
-25.6622
-24.5083
-23.3896
-23.6888
-23.2741
-22.7205
-23.1007
-23.13
-23.4854
-23.0206
-22.7056
-22.9418
-22.2471
-21.5996
-21.8614
-21.8585
-22.1425
-21.746
-21.4753
-21.664
-21.0495
-20.4481
-20.6112
-20.3819
-20.0727
-20.2664
-20.2643
-20.4339
-20.1583
-19.9582
-20.0438
-19.6483
-19.2716
-19.3153
-19.16
-18.9797
-18.9868
-18.9136
-18.8658
-18.7831
-18.7374
-18.6515
-19.0348
-19.6569
-19.7085
-20.7352
-22.5292
-22.6452
-22.4258
-22.2472
-22.1591
-37.7301
-34.4818
-34.3989
-30.7206
-27.5268
-28.2556
-27.0081
-25.4818
-26.3516
-26.1459
-26.9939
-25.8713
-25.1902
-25.9811
-24.47
-23.0147
-23.7418
-23.2202
-22.4428
-23.0999
-23.0646
-23.6672
-23.0002
-22.6022
-23.1348
-22.2082
-21.3484
-21.8541
-21.8008
-22.2945
-21.7315
-21.3938
-21.8365
-21.0285
-20.2439
-20.6389
-20.351
-19.9196
-20.263
-20.2246
-20.526
-20.1404
-19.8945
-20.1319
-19.6174
-19.1378
-19.3026
-19.1141
-18.8842
-18.9424
-18.8494
-18.8047
-18.6952
-18.6386
-18.438
-18.888
-19.6803
-19.4395
-20.6071
-23.0135
-22.9025
-22.5458
-22.3125
-22.2055
-39.0121
-34.4171
-35.391
-30.71
-26.6762
-28.5111
-26.9519
-24.8809
-26.4329
-25.971
-27.4147
-25.8139
-24.9362
-26.4547
-24.4294
-22.4961
-23.8838
-23.1873
-22.072
-23.1497
-22.9555
-23.934
-22.9611
-22.4351
-23.4262
-22.1662
-21.0081
-21.8879
-21.7057
-22.5173
-21.7011
-21.2587
-22.0931
-21.0066
-19.9621
-20.7153
-20.3319
-19.7163
-20.2875
-20.1619
-20.6644
-20.1131
-19.7982
-20.2713
-19.5853
-18.9626
-19.3163
-19.0733
-18.7718
-18.9109
-18.7845
-18.7511
-18.6072
-18.5546
-18.1861
-18.7225
-19.7782
-19.0789
-20.3938
-23.6612
-23.1669
-22.6515
-22.3656
-22.2421
-40.5465
-33.9829
-36.7188
-30.6564
-25.4692
-28.9824
-26.9325
-24.0632
-26.6451
-25.6763
-28.0212
-25.7105
-24.5329
-27.1453
-24.3843
-21.7775
-24.1592
-23.1839
-21.5704
-23.2822
-22.7729
-24.3201
-22.8937
-22.1738
-23.8559
-22.1191
-20.5459
-21.9911
-21.5484
-22.8395
-21.6471
-21.0441
-22.4673
-20.9829
-19.5721
-20.8645
-20.3292
-19.4424
-20.3576
-20.0599
-20.8675
-20.0712
-19.6534
-20.4823
-19.5504
-18.7296
-19.3694
-19.0382
-18.6347
-18.8986
-18.7162
-18.7071
-18.5169
-18.4952
-17.8845
-18.5294
-19.9892
-18.5987
-20.0591
-24.533
-23.4217
-22.7372
-22.4054
-22.2687
-42.4168
-32.9984
-38.5276
-30.5513
-23.7812
-29.7738
-26.9641
-22.9469
-27.0652
-25.1919
-28.8866
-25.5423
-23.915
-28.1351
-24.3318
-20.7844
-24.6281
-23.2198
-20.8869
-23.5448
-22.4725
-24.8715
-22.786
-21.7767
-24.4764
-22.0641
-19.9187
-22.2052
-21.2919
-23.2999
-21.5593
-20.7146
-23.0034
-20.9557
-19.0333
-21.1191
-20.3482
-19.0699
-20.4988
-19.8949
-21.1599
-20.0079
-19.4385
-20.792
-19.5102
-18.4172
-19.4795
-19.0091
-18.4627
-18.9141
-18.6403
-18.6761
-18.4204
-18.4745
-17.5188
-18.2948
-20.3655
-17.9645
-19.5541
-25.7092
-23.6397
-22.7975
-22.4314
-22.2856
-44.734
-31.2197
-41.0146
-30.383
-21.4508
-31.0239
-27.0622
-21.4232
-27.8022
-24.4171
-30.109
-25.2851
-22.9964
-29.5319
-24.2673
-19.4201
-25.3709
-23.3061
-19.9534
-24.0048
-21.9911
-25.6505
-22.6227
-21.1893
-25.3566
-21.9967
-19.0705
-22.5891
-20.8834
-23.9506
-21.4253
-20.2242
-23.7596
-20.923
-18.2937
-21.523
-20.3953
-18.5624
-20.7481
-19.633
-21.5757
-19.9152
-19.1259
-21.2367
-19.4619
-17.9984
-19.6716
-18.9864
-18.2432
-18.9706
-18.5515
-18.6639
-18.3118
-18.5123
-17.0731
-17.9993
-20.9776
-17.1354
-18.8169
-27.2973
-23.7817
-22.8301
-22.4457
-22.2954
)
;

boundaryField
{
    left
    {
        type            calculated;
        value           nonuniform List<scalar> 
32
(
-27.511
-27.5383
-27.5907
-27.666
-27.7625
-27.8792
-28.0153
-28.1706
-28.345
-28.5388
-28.7525
-28.9869
-29.2431
-29.5224
-29.8265
-30.1571
-30.5165
-30.9072
-31.3322
-31.7947
-32.2991
-32.8503
-33.4549
-34.1217
-34.8625
-35.6939
-36.639
-37.7301
-39.0121
-40.5465
-42.4168
-44.734
)
;
    }
    right
    {
        type            calculated;
        value           nonuniform List<scalar> 
32
(
-20.5874
-20.5937
-20.6058
-20.6235
-20.6466
-20.6751
-20.709
-20.7485
-20.7936
-20.8445
-20.901
-20.9633
-21.0312
-21.1043
-21.1824
-21.2649
-21.3512
-21.4402
-21.5311
-21.6225
-21.7131
-21.8015
-21.8861
-21.9654
-22.0382
-22.1031
-22.1591
-22.2055
-22.2421
-22.2687
-22.2856
-22.2954
)
;
    }
    interface
    {
        type            calculated;
        value           nonuniform List<scalar> 
64
(
-46.0202
-30.0968
-42.4558
-30.2814
-20.1023
-31.7833
-27.1298
-20.544
-28.2659
-23.9424
-30.8234
-25.131
-22.4497
-30.3471
-24.2314
-18.6316
-25.8222
-23.3633
-19.4146
-24.2939
-21.696
-26.1057
-22.5251
-20.8402
-25.8714
-21.9593
-18.5833
-22.8322
-20.6334
-24.331
-21.3451
-19.9323
-24.201
-20.905
-17.8663
-21.7686
-20.4267
-18.2697
-20.9052
-19.4729
-21.8193
-19.8606
-18.9412
-21.4979
-19.4354
-17.7586
-19.7917
-18.9768
-18.1199
-19.011
-18.5032
-18.6634
-18.2538
-18.5489
-16.8281
-17.8336
-21.3526
-16.6667
-18.3816
-28.2097
-23.8281
-22.8396
-22.4504
-22.299
)
;
    }
    bottom
    {
        type            calculated;
        value           nonuniform List<scalar> 
64
(
-27.5038
-27.4702
-27.404
-27.3072
-27.1824
-27.0329
-26.8623
-26.6741
-26.4717
-26.2584
-26.0372
-25.8106
-25.5808
-25.3499
-25.1195
-24.891
-24.6655
-24.4439
-24.227
-24.0151
-23.8086
-23.6076
-23.412
-23.2219
-23.0372
-22.8578
-22.6835
-22.5144
-22.3503
-22.1913
-22.0374
-21.8886
-21.7451
-21.607
-21.4745
-21.3478
-21.2271
-21.1127
-21.0049
-20.9037
-20.8095
-20.7225
-20.6431
-20.5715
-20.5081
-20.4532
-20.4072
-20.3703
-20.3427
-20.3244
-20.3154
-20.3153
-20.3235
-20.3393
-20.3615
-20.3888
-20.4196
-20.4521
-20.4844
-20.5148
-20.5415
-20.563
-20.578
-20.5858
)
;
    }
    defaultFaces
    {
        type            empty;
    }
}


// ************************************************************************* //
