/*--------------------------------*- C++ -*----------------------------------*\
| =========                 |                                                 |
| \\      /  F ield         | OpenFOAM: The Open Source CFD Toolbox           |
|  \\    /   O peration     | Version:  5.x                                   |
|   \\  /    A nd           | Web:      www.OpenFOAM.org                      |
|    \\/     M anipulation  |                                                 |
\*---------------------------------------------------------------------------*/
FoamFile
{
    version     2.0;
    format      ascii;
    class       volScalarField;
    location    "2.1";
    object      gradTx;
}
// * * * * * * * * * * * * * * * * * * * * * * * * * * * * * * * * * * * * * //

dimensions      [0 -1 0 1 0 0 0];

internalField   nonuniform List<scalar> 
2048
(
0.00772919
0.0229514
0.0374873
0.05095
0.0630463
0.0735904
0.0825028
0.0897956
0.0955499
0.0998904
0.102964
0.104921
0.105907
0.106061
0.105509
0.104373
0.102768
0.100803
0.0985793
0.0961869
0.0937002
0.091177
0.0886578
0.0861672
0.0837171
0.0813095
0.0789399
0.0765987
0.0742723
0.0719439
0.069594
0.0672017
0.0647472
0.0622134
0.0595877
0.0568625
0.0540342
0.0511015
0.0480631
0.0449148
0.0416493
0.0382556
0.0347213
0.0310356
0.0271932
0.0231979
0.0190667
0.0148319
0.0105434
0.00626941
0.00209614
-0.00187389
-0.00552516
-0.0087346
-0.0113793
-0.0133464
-0.0145437
-0.0149112
-0.0144294
-0.0131253
-0.011073
-0.00839025
-0.0052312
-0.00177692
0.0230451
0.0684183
0.11171
0.151752
0.187665
0.218902
0.24524
0.266733
0.28364
0.296351
0.305311
0.310976
0.31378
0.314128
0.312396
0.308942
0.304106
0.298214
0.291567
0.284432
0.277033
0.26954
0.262073
0.2547
0.247455
0.240341
0.233344
0.226434
0.219571
0.212704
0.205774
0.198718
0.191476
0.183996
0.17624
0.168186
0.159826
0.151158
0.142179
0.132878
0.123233
0.113211
0.102771
0.0918799
0.0805174
0.0686925
0.0564527
0.0438922
0.0311579
0.0184516
0.00602953
-0.0058025
-0.0166984
-0.0262881
-0.0342
-0.0400912
-0.0436808
-0.0447833
-0.0433369
-0.0394202
-0.0332557
-0.0251975
-0.0157088
-0.00533534
0.0382337
0.113472
0.185145
0.251269
0.310372
0.361565
0.404525
0.439399
0.466679
0.487056
0.501302
0.510184
0.514419
0.514668
0.511538
0.50561
0.497439
0.487563
0.476483
0.464645
0.452419
0.440085
0.427832
0.415767
0.403933
0.392331
0.380931
0.369682
0.358519
0.347356
0.336094
0.324625
0.312844
0.300662
0.288017
0.274875
0.261226
0.247075
0.232423
0.217256
0.201536
0.185205
0.168189
0.150422
0.131861
0.112514
0.0924483
0.0718152
0.0508519
0.0298884
0.00934684
-0.0102651
-0.0283689
-0.0443407
-0.057549
-0.0674054
-0.0734229
-0.0752752
-0.0728469
-0.0662642
-0.0558996
-0.0423509
-0.0263987
-0.00896462
0.0536089
0.15902
0.259206
0.351289
0.433182
0.503684
0.562436
0.609768
0.646488
0.673663
0.692432
0.703893
0.709042
0.708774
0.703908
0.695228
0.683497
0.669465
0.653837
0.637246
0.620211
0.603117
0.586213
0.56963
0.553409
0.537535
0.521959
0.506608
0.491391
0.476189
0.460859
0.445243
0.429183
0.412549
0.395252
0.37725
0.358542
0.339146
0.319079
0.298328
0.276841
0.254527
0.231268
0.206955
0.181508
0.154917
0.127266
0.0987489
0.0696882
0.0405366
0.0118796
-0.0155721
-0.0410002
-0.0635118
-0.082192
-0.0961772
-0.104742
-0.107392
-0.103938
-0.0945479
-0.0797541
-0.0604153
-0.0376522
-0.0127843
0.0694547
0.205883
0.335153
0.453381
0.557828
0.64702
0.720663
0.779398
0.824472
0.857425
0.879826
0.893124
0.898581
0.897299
0.890279
0.878482
0.862875
0.84442
0.824046
0.802581
0.780702
0.758899
0.737465
0.716536
0.696131
0.676203
0.656677
0.637463
0.618445
0.599472
0.580352
0.560868
0.540799
0.519965
0.498246
0.475597
0.452039
0.427619
0.402382
0.376325
0.34938
0.321417
0.292261
0.261736
0.229711
0.196142
0.161112
0.124853
0.0877626
0.0504109
0.0135439
-0.0219225
-0.0549194
-0.0842633
-0.108723
-0.127115
-0.13843
-0.141961
-0.13742
-0.12501
-0.105438
-0.0798539
-0.0497548
-0.0168907
0.086043
0.254838
0.414165
0.558979
0.685844
0.79308
0.880594
0.94951
1.00168
1.03925
1.06429
1.07861
1.08373
1.0809
1.07126
1.05593
1.03606
1.01284
0.987442
0.960925
0.934133
0.907655
0.881813
0.856717
0.832336
0.808575
0.785327
0.762484
0.739918
0.717449
0.694833
0.671776
0.64798
0.623198
0.597276
0.570174
0.541948
0.5127
0.482519
0.451427
0.41934
0.386076
0.351382
0.314994
0.276703
0.236414
0.194194
0.150302
0.105203
0.0595784
0.0143306
-0.0294181
-0.0703373
-0.106927
-0.137597
-0.160788
-0.175142
-0.179683
-0.173985
-0.15828
-0.133473
-0.101052
-0.0629408
-0.0213622
0.103647
0.306659
0.497397
0.669452
0.818645
0.943182
1.04337
1.12104
1.17887
1.21976
1.24636
1.26086
1.26498
1.26007
1.24734
1.22802
1.20343
1.17504
1.14429
1.11249
1.08069
1.04957
1.01946
0.990391
0.962258
0.934888
0.908138
0.881893
0.856029
0.830348
0.804543
0.778228
0.750999
0.722522
0.692602
0.661213
0.628469
0.594556
0.559639
0.523774
0.486868
0.448669
0.408818
0.366935
0.322703
0.275952
0.22672
0.175282
0.122164
0.0681517
0.014296
-0.0380763
-0.0873646
-0.131726
-0.169158
-0.197658
-0.215434
-0.221165
-0.214239
-0.194906
-0.164306
-0.124331
-0.0774001
-0.0262613
0.122554
0.362152
0.586024
0.786151
0.957564
1.0985
1.20991
1.29466
1.3565
1.39928
1.42631
1.44017
1.44267
1.43519
1.41891
1.39512
1.36533
1.33129
1.29478
1.25743
1.22051
1.18479
1.15057
1.11777
1.08613
1.05538
1.02534
0.995898
0.966978
0.938371
0.909706
0.88047
0.85012
0.818204
0.784474
0.748929
0.711777
0.673324
0.633847
0.593467
0.552073
0.509327
0.464732
0.417747
0.367914
0.314967
0.258896
0.199988
0.138823
0.0762808
0.013552
-0.0478409
-0.106024
-0.158784
-0.203653
-0.238095
-0.259783
-0.266951
-0.258729
-0.235377
-0.198321
-0.149954
-0.093281
-0.0316352
0.14307
0.422173
0.681277
0.910445
1.10389
1.26007
1.38097
1.47082
1.5348
1.5779
1.60423
1.61665
1.61701
1.60655
1.58631
1.55757
1.52204
1.4818
1.43906
1.39584
1.35368
1.31344
1.27533
1.23907
1.2042
1.17029
1.13714
1.10469
1.07294
1.0417
1.01052
0.978738
0.945602
0.910507
0.873134
0.833525
0.79202
0.749104
0.705216
0.660565
0.615031
0.568157
0.519262
0.467601
0.412533
0.353663
0.290927
0.224618
0.155369
0.0841438
0.0122568
-0.0585913
-0.126258
-0.188141
-0.241246
-0.282398
-0.308608
-0.317535
-0.307959
-0.280133
-0.235848
-0.178127
-0.110688
-0.0375142
0.165536
0.487659
0.784471
1.04375
1.25888
1.42885
1.55711
1.64974
1.71373
1.75551
1.77998
1.79028
1.78811
1.77437
1.74982
1.71566
1.67379
1.62674
1.57723
1.52778
1.48026
1.43561
1.39388
1.3545
1.31671
1.27988
1.24377
1.20845
1.17406
1.14049
1.10718
1.07326
1.0377
0.999699
0.958826
0.915192
0.869329
0.821969
0.773776
0.725092
0.675782
0.625237
0.572533
0.516659
0.456744
0.392236
0.32301
0.249368
0.171997
0.0919381
0.0106054
-0.0701507
-0.14794
-0.219758
-0.28202
-0.330799
-0.362281
-0.373384
-0.362412
-0.329585
-0.277165
-0.208995
-0.129674
-0.0439101
0.19033
0.559643
0.897032
1.18756
1.42379
1.60568
1.73872
1.83143
1.89306
1.93175
1.95329
1.96094
1.95601
1.93884
1.90973
1.86968
1.82084
1.76625
1.70933
1.65323
1.60024
1.55136
1.50638
1.4643
1.42394
1.38442
1.34545
1.30733
1.27046
1.23486
1.19985
1.16425
1.12669
1.08605
1.0418
0.994116
0.943815
0.891961
0.839524
0.787033
0.734338
0.680625
0.624652
0.565073
0.500727
0.430874
0.355329
0.274421
0.188899
0.09987
0.00882029
-0.0822941
-0.170875
-0.253519
-0.325991
-0.383474
-0.421138
-0.434949
-0.422561
-0.384116
-0.322495
-0.242635
-0.150238
-0.0508116
0.217877
0.639275
1.02052
1.34344
1.59987
1.7913
1.92603
2.01567
2.07231
2.10609
2.12372
2.12838
2.1207
2.10016
2.06635
2.01995
1.96339
1.90045
1.83538
1.77215
1.71358
1.66073
1.61297
1.56871
1.5262
1.4842
1.44241
1.40145
1.36222
1.3249
1.28867
1.25192
1.21283
1.16986
1.1223
1.07048
1.01557
0.959093
0.902421
0.84634
0.790684
0.734361
0.675718
0.612988
0.544655
0.469755
0.388055
0.299947
0.206254
0.108146
0.00714271
-0.0947555
-0.194807
-0.289235
-0.373101
-0.440541
-0.48548
-0.502674
-0.488886
-0.444094
-0.372008
-0.279041
-0.172305
-0.0581805
0.248659
0.727843
1.15664
1.51306
1.78835
1.98634
2.11908
2.20207
2.25079
2.27779
2.29072
2.29233
2.28216
2.25854
2.22001
2.16679
2.10169
2.02943
1.95534
1.88443
1.8202
1.76374
1.71383
1.66802
1.62384
1.57956
1.53486
1.49094
1.44937
1.41067
1.37377
1.33649
1.2964
1.25143
1.2006
1.14446
1.08469
1.02335
0.962389
0.902927
0.844777
0.78647
0.72582
0.660548
0.588699
0.509045
0.42134
0.32609
0.224224
0.116963
0.00582284
-0.107236
-0.219423
-0.326649
-0.423223
-0.502062
-0.555582
-0.577013
-0.561893
-0.509886
-0.425809
-0.31811
-0.195717
-0.0659462
0.283224
0.826787
1.30728
1.69821
1.99045
2.1913
2.31777
2.39001
2.42761
2.44596
2.45361
2.45243
2.44036
2.41421
2.3711
2.31056
2.23597
2.1533
2.06916
1.98991
1.91997
1.8604
1.80912
1.76253
1.71723
1.67086
1.62305
1.57585
1.53191
1.49219
1.45525
1.41816
1.3777
1.3311
1.27698
1.21624
1.15122
1.0847
1.01932
0.956674
0.896554
0.83697
0.775044
0.707894
0.63303
0.5489
0.455309
0.352969
0.242941
0.126499
0.0051107
-0.119408
-0.244358
-0.36543
-0.47616
-0.568045
-0.631686
-0.65843
-0.642134
-0.581864
-0.483933
-0.359623
-0.220218
-0.074
0.322196
0.937713
1.4745
1.90077
2.20734
2.40653
2.52178
2.57869
2.60167
2.60954
2.61165
2.60835
2.5953
2.56745
2.5201
2.45168
2.36647
2.27212
2.17675
2.08838
2.01268
1.95069
1.89903
1.85257
1.80683
1.75855
1.70723
1.65621
1.60975
1.56943
1.53322
1.49713
1.45705
1.40922
1.35174
1.286
1.21524
1.14308
1.07305
1.00742
0.945934
0.885872
0.823472
0.755172
0.677826
0.589466
0.490061
0.380668
0.262504
0.136905
0.00524677
-0.13093
-0.269197
-0.405182
-0.531648
-0.63844
-0.713995
-0.74741
-0.73023
-0.660429
-0.546333
-0.403222
-0.245436
-0.0821907
0.366292
1.06241
1.66054
2.12279
2.44015
2.63219
2.73068
2.76714
2.77169
2.76734
2.76407
2.75975
2.74695
2.71861
2.66756
2.59059
2.49343
2.38599
2.27797
2.17954
2.0981
2.03459
1.98378
1.9385
1.8931
1.84312
1.78766
1.73197
1.68273
1.64232
1.60775
1.57359
1.53475
1.48621
1.42519
1.35388
1.2768
1.1984
1.12339
1.05498
0.992823
0.933193
0.871183
0.802527
0.723273
0.630877
0.525663
0.409236
0.282978
0.148296
0.00645276
-0.141446
-0.293481
-0.44544
-0.589353
-0.713134
-0.802663
-0.844456
-0.826911
-0.746028
-0.612861
-0.448381
-0.270869
-0.0903204
0.416347
1.20284
1.86782
2.36643
2.68987
2.86822
2.94385
2.95426
2.9362
2.91799
2.91005
2.90637
2.89534
2.86807
2.81418
2.7278
2.61707
2.495
2.3727
2.26304
2.17591
2.11207
2.06363
2.0207
1.9766
1.92518
1.86463
1.80303
1.75061
1.71077
1.67894
1.64772
1.61117
1.56254
1.49766
1.42006
1.33596
1.25058
1.17011
1.09911
1.03712
0.978966
0.918251
0.850108
0.769581
0.673255
0.56214
0.438687
0.304385
0.160744
0.00892267
-0.1506
-0.316712
-0.485668
-0.648881
-0.791961
-0.897769
-0.950082
-0.933055
-0.839184
-0.683246
-0.494381
-0.295874
-0.098143
0.47335
1.36115
2.09894
2.63404
2.95736
3.11423
3.16059
3.13882
3.09355
3.06003
3.0488
3.04803
3.04044
3.01625
2.96082
2.86382
2.73753
2.59929
2.46079
2.33843
2.24572
2.18312
2.1389
2.09955
2.0579
2.00546
1.93843
1.86918
1.81304
1.77463
1.7469
1.71967
1.68663
1.63875
1.56948
1.48463
1.39278
1.29951
1.21293
1.13953
1.07873
1.02325
0.964736
0.898064
0.816995
0.716711
0.599467
0.469003
0.32671
0.174273
0.0128144
-0.158043
-0.338358
-0.525265
-0.709778
-0.874704
-0.999286
-1.06479
-1.04975
-0.940533
-0.757061
-0.540273
-0.319658
-0.105366
0.538511
1.53967
2.35661
2.92826
3.24325
3.36947
3.38018
3.31955
3.24189
3.19183
3.1796
3.18473
3.1822
3.1636
3.10857
2.99919
2.8549
2.69907
2.54211
2.40517
2.30703
2.24774
2.21001
2.17536
2.13759
2.08487
2.00942
1.93005
1.86953
1.83378
1.81179
1.78953
1.76147
1.7155
1.64098
1.54764
1.44738
1.3451
1.25148
1.17591
1.11755
1.06615
1.01067
0.946531
0.865816
0.76134
0.637559
0.500137
0.349898
0.188848
0.0182422
-0.163443
-0.357857
-0.563556
-0.771547
-0.961115
-1.10704
-1.18905
-1.17836
-1.05087
-0.833667
-0.584847
-0.341287
-0.111658
0.613367
1.74084
2.64356
3.25204
3.54785
3.63265
3.60196
3.4952
3.37918
3.31161
3.3018
3.31673
3.32042
3.31054
3.25884
3.13441
2.96904
2.79467
2.61656
2.46258
2.35924
2.30597
2.27749
2.24837
2.21627
2.16456
2.07795
1.98516
1.91946
1.88807
1.8739
1.8573
1.83601
1.79361
1.71246
1.60904
1.49993
1.38726
1.28538
1.20786
1.15354
1.10785
1.05603
0.995627
0.916436
0.807215
0.676246
0.532037
0.373867
0.204372
0.0252712
-0.166495
-0.374631
-0.599786
-0.833652
-1.05096
-1.22064
-1.32319
-1.32065
-1.17122
-0.912146
-0.626599
-0.359692
-0.116658
0.699958
1.9672
2.96246
3.60894
3.87104
3.90179
3.82555
3.66457
3.50314
3.41742
3.41491
3.44464
3.45464
3.45738
3.41353
3.26991
3.07955
2.88665
2.68411
2.50981
2.40159
2.35791
2.34212
2.31863
2.29448
2.24605
2.14442
2.03375
1.96203
1.93738
1.93366
1.92281
1.91048
1.87417
1.7842
1.66862
1.55073
1.42595
1.31411
1.23491
1.18665
1.14866
1.10071
1.04542
0.969388
0.854379
0.715249
0.564658
0.398506
0.220675
0.0339143
-0.166933
-0.388091
-0.633108
-0.895538
-1.14406
-1.33942
-1.46734
-1.47892
-1.30288
-0.991193
-0.663703
-0.37371
-0.119997
0.801109
2.22126
3.31564
4.00338
4.21208
4.17394
4.05107
3.82659
3.61122
3.5071
3.51862
3.5697
3.58401
3.60423
3.57526
3.40594
3.18558
2.97595
2.74481
2.54585
2.43316
2.40372
2.40499
2.38592
2.37263
2.33133
2.20924
2.07484
1.99622
1.98165
1.99179
1.98566
1.98502
1.95863
1.85634
1.72592
1.60026
1.46116
1.33707
1.25651
1.2169
1.18907
1.14445
1.09591
1.02542
0.902821
0.754137
0.598009
0.423689
0.237506
0.0441331
-0.164536
-0.397656
-0.662557
-0.956634
-1.24044
-1.46231
-1.62128
-1.6562
-1.44753
-1.06896
-0.693998
-0.382123
-0.12132
0.920857
2.50541
3.7048
4.44114
4.56942
4.44491
4.27957
3.98038
3.70049
3.57823
3.6128
3.69393
3.70696
3.75088
3.74766
3.54248
3.28561
3.06405
2.79878
2.5694
2.45284
2.44364
2.46769
2.44954
2.4509
2.4231
2.27278
2.10708
2.02082
2.02086
2.04944
2.04508
2.05955
2.049
1.92888
1.78012
1.64932
1.49294
1.35353
1.27198
1.24433
1.22983
1.18678
1.14698
1.0856
0.952448
0.792272
0.632208
0.449275
0.254516
0.0558447
-0.159146
-0.402778
-0.687023
-1.01635
-1.34042
-1.58779
-1.78416
-1.85653
-1.60733
-1.14288
-0.714988
-0.383735
-0.120314
1.0651
2.82166
4.13047
4.93006
4.94035
4.70875
4.51356
4.12521
3.76764
3.62812
3.69747
3.8206
3.82097
3.89658
3.93586
3.67903
3.37719
3.15337
2.84624
2.57888
2.45923
2.47798
2.53252
2.50812
2.52913
2.52502
2.33532
2.12873
2.03437
2.05505
2.10839
2.09972
2.13372
2.14809
2.00157
1.82987
1.6992
1.52137
1.36258
1.28055
1.26905
1.27213
1.22689
1.1983
1.15144
1.00303
0.828731
0.66756
0.475115
0.27124
0.0689363
-0.150676
-0.402974
-0.705199
-1.07405
-1.4449
-1.71366
-1.95425
-2.08526
-1.78503
-1.20932
-0.723885
-0.377458
-0.116742
1.24255
3.17142
4.59136
5.48106
5.32064
4.95721
4.75774
4.26045
3.8088
3.65375
3.77276
3.95472
3.92203
4.03974
4.14715
3.81437
3.45652
3.24758
2.88742
2.57232
2.45072
2.50703
2.60287
2.55934
2.60659
2.64211
2.39692
2.13757
2.03517
2.0843
2.17131
2.14746
2.20672
2.25985
2.07374
1.87312
1.75189
1.54655
1.36312
1.28129
1.29116
1.31768
1.26349
1.24933
1.22515
1.05415
0.862211
0.704678
0.501039
0.28707
0.0832905
-0.139114
-0.397877
-0.715529
-1.12902
-1.55559
-1.837
-2.12848
-2.34959
-1.98407
-1.26332
-0.717692
-0.362418
-0.110472
1.46601
3.55509
5.08337
6.10948
5.70393
5.17894
5.02004
4.38536
3.81948
3.65175
3.83867
4.10372
4.00414
4.17763
4.39176
3.94621
3.51798
3.3523
2.92245
2.54735
2.42538
2.53098
2.68361
2.59954
2.6818
2.78122
2.45719
2.13084
2.02128
2.10861
2.2422
2.18508
2.27713
2.38987
2.14416
1.9068
1.81041
1.56851
1.35383
1.27313
1.31069
1.36904
1.29463
1.29909
1.30984
1.10506
0.890906
0.744635
0.526832
0.301228
0.0988224
-0.124537
-0.387304
-0.716136
-1.1803
-1.67548
-1.95396
-2.30188
-2.65907
-2.20875
-1.29801
-0.693365
-0.338067
-0.101501
1.75423
3.97157
5.59826
6.837
6.08101
5.35861
5.31293
4.49872
3.7945
3.61849
3.89478
4.27845
4.05851
4.3059
4.684
4.07075
3.55354
3.47579
2.9511
2.50109
2.38103
2.54973
2.78176
2.62328
2.75221
2.95168
2.51503
2.10525
1.9906
2.12776
2.32685
2.20787
2.34263
2.54589
2.21076
1.92654
1.87924
1.58711
1.33309
1.25488
1.32753
1.4299
1.31743
1.34612
1.40988
1.15458
0.912349
0.789174
0.552191
0.31272
0.115532
-0.107108
-0.371347
-0.704745
-1.2266
-1.80927
-2.05966
-2.46688
-3.0264
-2.46431
-1.30413
-0.648053
-0.304307
-0.0899786
2.13423
4.41758
6.12199
7.69398
6.43889
5.47571
5.65514
4.59824
3.7279
3.55011
3.93977
4.49433
4.07273
4.418
5.04361
4.18209
3.55202
3.63001
2.97247
2.43017
2.31527
2.56255
2.90718
2.62274
2.81383
3.16612
2.56817
2.05692
1.9409
2.14108
2.43352
2.20915
2.39973
2.73862
2.27034
1.92627
1.96485
1.60181
1.29905
1.22524
1.34123
1.50548
1.32782
1.38827
1.53134
1.20089
0.923231
0.84097
0.576647
0.320294
0.133572
-0.0870746
-0.350491
-0.67861
-1.26594
-1.96406
-2.14805
-2.61235
-3.46834
-2.75704
-1.26921
-0.579471
-0.26158
-0.0762029
2.64437
4.88689
6.63261
8.72249
6.75953
5.50322
6.0738
4.67961
3.61302
3.44277
3.97059
4.77295
4.02962
4.50446
5.49743
4.27144
3.49822
3.83188
2.98438
2.33076
2.22562
2.5676
3.07363
2.58707
2.86084
3.44144
2.61258
1.98147
1.86999
2.14699
2.57374
2.1797
2.44337
2.9826
2.31813
1.89772
2.07642
1.61142
1.24957
1.18285
1.35077
1.60303
1.32017
1.42247
1.68251
1.24127
0.919197
0.903965
0.599448
0.322393
0.153336
-0.0647507
-0.325759
-0.634449
-1.29537
-2.1501
-2.21184
-2.72248
-4.00682
-3.09437
-1.17682
-0.486395
-0.210946
-0.0606128
3.33814
5.36927
7.09763
9.98003
7.01838
5.40601
6.60698
4.73527
3.44255
3.29293
3.9815
5.14388
3.90605
4.55212
6.08143
4.32628
3.37193
4.10477
2.98266
2.19862
2.10965
2.56135
3.29991
2.50156
2.88505
3.80001
2.64167
1.87421
1.77593
2.14252
2.76331
2.10708
2.46648
3.29729
2.34734
1.82992
2.22663
1.61364
1.1823
1.12647
1.3542
1.73249
1.28681
1.44451
1.87448
1.27183
0.894598
0.983766
0.619398
0.317102
0.175552
-0.0404975
-0.29888
-0.5684
-1.31041
-2.3816
-2.24249
-2.77549
-4.67027
-3.4849
-1.0055
-0.369333
-0.154087
-0.0437567
4.28876
5.84926
7.47097
11.5439
7.18249
5.13912
7.3068
4.75271
3.20888
3.09783
3.96265
5.64697
3.67141
4.54309
6.84294
4.3292
3.14687
4.4804
2.96012
2.02928
1.96533
2.53763
3.61131
2.34673
2.87535
4.27107
2.64533
1.73026
1.65724
2.12253
3.02355
1.97484
2.45943
3.70831
2.34853
1.70858
2.43269
1.60453
1.09476
1.05502
1.34816
1.90724
1.2176
1.44876
2.1219
1.28712
0.842245
1.08812
0.634642
0.302107
0.201406
-0.0146843
-0.272483
-0.476024
-1.30443
-2.67779
-2.23024
-2.74199
-5.49511
-3.93835
-0.727723
-0.231368
-0.093248
-0.0262463
5.59449
6.30481
7.68941
13.5161
7.20837
4.64585
8.24295
4.71227
2.90442
2.85609
3.89829
6.33497
3.28606
4.45371
7.84328
4.25674
2.78941
5.00094
2.90524
1.81835
1.79136
2.48661
4.04128
2.09729
2.81706
4.89235
2.60866
1.545
1.51331
2.07878
3.38263
1.7617
2.40948
4.24883
2.30897
1.51542
2.71749
1.57782
0.984484
0.967873
1.32736
2.14494
1.09938
1.42785
2.44375
1.2797
0.753134
1.22745
0.642386
0.274665
0.232656
0.0123613
-0.250304
-0.352358
-1.2679
-3.06397
-2.16429
-2.58323
-6.52754
-4.46546
-0.308642
-0.0791833
-0.031067
-0.00869965
)
;

boundaryField
{
    left
    {
        type            calculated;
        value           uniform 0;
    }
    right
    {
        type            calculated;
        value           uniform 0;
    }
    interface
    {
        type            calculated;
        value           nonuniform List<scalar> 
64
(
5.59449
6.30481
7.68941
13.5161
7.20837
4.64585
8.24295
4.71227
2.90442
2.85609
3.89829
6.33497
3.28606
4.45371
7.84328
4.25674
2.78941
5.00094
2.90524
1.81835
1.79136
2.48661
4.04128
2.09729
2.81706
4.89235
2.60866
1.545
1.51331
2.07878
3.38263
1.7617
2.40948
4.24883
2.30897
1.51542
2.71749
1.57782
0.984484
0.967873
1.32736
2.14494
1.09938
1.42785
2.44375
1.2797
0.753134
1.22745
0.642386
0.274665
0.232656
0.0123613
-0.250304
-0.352358
-1.2679
-3.06397
-2.16429
-2.58323
-6.52754
-4.46546
-0.308642
-0.0791833
-0.031067
-0.00869965
)
;
    }
    bottom
    {
        type            calculated;
        value           nonuniform List<scalar> 
64
(
0.00772919
0.0229514
0.0374873
0.05095
0.0630463
0.0735904
0.0825028
0.0897956
0.0955499
0.0998904
0.102964
0.104921
0.105907
0.106061
0.105509
0.104373
0.102768
0.100803
0.0985793
0.0961869
0.0937002
0.091177
0.0886578
0.0861672
0.0837171
0.0813095
0.0789399
0.0765987
0.0742723
0.0719439
0.069594
0.0672017
0.0647472
0.0622134
0.0595877
0.0568625
0.0540342
0.0511015
0.0480631
0.0449148
0.0416493
0.0382556
0.0347213
0.0310356
0.0271932
0.0231979
0.0190667
0.0148319
0.0105434
0.00626941
0.00209614
-0.00187389
-0.00552516
-0.0087346
-0.0113793
-0.0133464
-0.0145437
-0.0149112
-0.0144294
-0.0131253
-0.011073
-0.00839025
-0.0052312
-0.00177692
)
;
    }
    defaultFaces
    {
        type            empty;
    }
}


// ************************************************************************* //
