/*--------------------------------*- C++ -*----------------------------------*\
| =========                 |                                                 |
| \\      /  F ield         | OpenFOAM: The Open Source CFD Toolbox           |
|  \\    /   O peration     | Version:  5.x                                   |
|   \\  /    A nd           | Web:      www.OpenFOAM.org                      |
|    \\/     M anipulation  |                                                 |
\*---------------------------------------------------------------------------*/
FoamFile
{
    version     2.0;
    format      ascii;
    class       volScalarField;
    location    "2.1";
    object      T;
}
// * * * * * * * * * * * * * * * * * * * * * * * * * * * * * * * * * * * * * //

dimensions      [0 0 0 1 0 0 0];

internalField   nonuniform List<scalar> 
2048
(
9.8024
9.80265
9.80312
9.80382
9.80471
9.80579
9.80701
9.80837
9.80982
9.81135
9.81294
9.81457
9.81622
9.81788
9.81953
9.82118
9.8228
9.82439
9.82595
9.82747
9.82895
9.8304
9.8318
9.83317
9.83449
9.83578
9.83704
9.83825
9.83943
9.84057
9.84168
9.84275
9.84378
9.84477
9.84572
9.84663
9.8475
9.84832
9.8491
9.84982
9.8505
9.85112
9.85169
9.85221
9.85266
9.85306
9.85339
9.85365
9.85385
9.85398
9.85405
9.85405
9.85399
9.85388
9.85372
9.85352
9.8533
9.85307
9.85283
9.85262
9.85242
9.85227
9.85216
9.85211
9.41566
9.41638
9.41779
9.41987
9.42254
9.42573
9.42938
9.4334
9.43771
9.44226
9.44697
9.4518
9.45669
9.46161
9.46651
9.47137
9.47616
9.48087
9.48548
9.48998
9.49437
9.49864
9.50279
9.50683
9.51075
9.51456
9.51826
9.52186
9.52534
9.52872
9.53199
9.53515
9.5382
9.54113
9.54395
9.54664
9.5492
9.55163
9.55393
9.55608
9.55808
9.55993
9.56162
9.56314
9.56449
9.56566
9.56663
9.56742
9.56801
9.56839
9.56858
9.56858
9.5684
9.56806
9.56758
9.56699
9.56633
9.56563
9.56493
9.56427
9.5637
9.56323
9.56291
9.56274
9.04528
9.04647
9.04882
9.05226
9.05668
9.06196
9.06797
9.0746
9.08171
9.08918
9.09693
9.10485
9.11287
9.12092
9.12895
9.13691
9.14475
9.15245
9.15999
9.16734
9.17451
9.18148
9.18826
9.19485
9.20126
9.20748
9.21352
9.21938
9.22507
9.23058
9.23592
9.24109
9.24607
9.25086
9.25546
9.25986
9.26405
9.26803
9.27177
9.27529
9.27856
9.28159
9.28435
9.28684
9.28905
9.29096
9.29257
9.29385
9.29481
9.29544
9.29575
9.29573
9.29543
9.29485
9.29404
9.29305
9.29193
9.29075
9.28958
9.28848
9.28751
9.28673
9.28619
9.28591
8.69027
8.69195
8.69524
8.70005
8.70622
8.71358
8.72196
8.73116
8.74101
8.75136
8.76207
8.773
8.78406
8.79516
8.80621
8.81716
8.82794
8.83851
8.84886
8.85895
8.86877
8.87833
8.88762
8.89665
8.90542
8.91394
8.92222
8.93025
8.93805
8.94561
8.95293
8.96001
8.96684
8.97342
8.97974
8.98577
8.99153
8.99698
9.00212
9.00695
9.01145
9.0156
9.0194
9.02283
9.02587
9.0285
9.03071
9.03248
9.03379
9.03466
9.03506
9.03503
9.03458
9.03375
9.03259
9.03118
9.02958
9.0279
9.02623
9.02466
9.02327
9.02216
9.02139
9.02099
8.34973
8.3519
8.35616
8.36237
8.37033
8.37981
8.39055
8.40233
8.41491
8.42809
8.4417
8.45559
8.46961
8.48367
8.49765
8.51149
8.52511
8.53845
8.55149
8.5642
8.57657
8.5886
8.60029
8.61165
8.62268
8.6334
8.64381
8.65392
8.66373
8.67325
8.68247
8.69138
8.69999
8.70828
8.71624
8.72385
8.73111
8.73798
8.74447
8.75056
8.75623
8.76147
8.76627
8.77061
8.77445
8.77779
8.78058
8.78282
8.78448
8.78556
8.78606
8.78599
8.78537
8.78427
8.78274
8.78087
8.77877
8.77655
8.77433
8.77225
8.77043
8.76896
8.76793
8.7674
8.02283
8.02552
8.03079
8.03846
8.04826
8.05989
8.07304
8.08741
8.10271
8.11871
8.13519
8.15197
8.1689
8.18584
8.20268
8.21931
8.23567
8.25169
8.26733
8.28255
8.29735
8.31174
8.32572
8.3393
8.35249
8.36531
8.37776
8.38985
8.40159
8.41297
8.42401
8.43469
8.445
8.45493
8.46447
8.4736
8.48229
8.49054
8.49831
8.50561
8.51242
8.51872
8.52449
8.5297
8.53433
8.53835
8.54172
8.54441
8.54641
8.5477
8.54828
8.54815
8.54736
8.54595
8.54402
8.54165
8.53899
8.53618
8.53338
8.53074
8.52843
8.52657
8.52527
8.5246
7.7088
7.71204
7.71838
7.72758
7.7393
7.75316
7.76878
7.78577
7.80381
7.82261
7.84193
7.86156
7.88133
7.90109
7.92071
7.94007
7.95908
7.97768
7.9958
8.01343
8.03057
8.04721
8.06337
8.07906
8.09432
8.10913
8.12353
8.13751
8.15109
8.16426
8.17704
8.18941
8.20136
8.21288
8.22394
8.23452
8.2446
8.25416
8.26318
8.27165
8.27955
8.28686
8.29357
8.29964
8.30504
8.30972
8.31366
8.31681
8.31914
8.32062
8.32127
8.32107
8.32008
8.31834
8.31596
8.31306
8.30978
8.30632
8.30287
8.29963
8.29678
8.29449
8.2929
8.29207
7.40694
7.41077
7.41826
7.42908
7.44282
7.459
7.47715
7.49681
7.51761
7.53921
7.56134
7.58378
7.60634
7.62886
7.65119
7.6732
7.69479
7.71587
7.73639
7.75633
7.77569
7.79447
7.81271
7.83043
7.84764
7.86437
7.88062
7.89641
7.91174
7.92663
7.94107
7.95506
7.96858
7.98162
7.99415
8.00614
8.01756
8.02838
8.0386
8.04819
8.05714
8.06544
8.07306
8.07996
8.08611
8.09146
8.09596
8.09955
8.10221
8.10389
8.10459
8.10431
8.10309
8.101
8.09813
8.09464
8.09069
8.08652
8.08235
8.07843
8.07499
8.07223
8.07031
8.06932
7.11659
7.12106
7.12978
7.14235
7.15823
7.17684
7.19761
7.22
7.24357
7.26796
7.29288
7.31809
7.3434
7.36862
7.3936
7.4182
7.44228
7.46576
7.48858
7.51073
7.5322
7.55303
7.57325
7.59289
7.61197
7.63052
7.64854
7.66605
7.68306
7.69958
7.71562
7.73116
7.7462
7.76071
7.77466
7.788
7.8007
7.81275
7.82411
7.83479
7.84476
7.85401
7.86251
7.87023
7.87712
7.88312
7.88817
7.89222
7.89519
7.89707
7.89782
7.89745
7.89599
7.89351
7.89011
7.88597
7.88129
7.87633
7.87137
7.8667
7.86261
7.85933
7.85704
7.85587
6.83712
6.8423
6.85236
6.86681
6.88498
6.90615
6.92963
6.95481
6.98118
7.00836
7.03604
7.06399
7.09199
7.11987
7.14744
7.17455
7.20105
7.22685
7.25189
7.27614
7.29963
7.3224
7.3445
7.36596
7.38682
7.40711
7.42682
7.44597
7.46458
7.48266
7.50022
7.51726
7.53376
7.54969
7.565
7.57966
7.5936
7.60682
7.61929
7.631
7.64195
7.65212
7.66149
7.67001
7.67763
7.68429
7.68989
7.69438
7.69768
7.69975
7.70056
7.70009
7.69836
7.69546
7.6915
7.68665
7.68116
7.67533
7.66949
7.664
7.65919
7.65534
7.65266
7.65129
6.56797
6.57392
6.58546
6.60195
6.62257
6.64644
6.67275
6.70078
6.72998
6.75994
6.79035
6.82098
6.85162
6.8821
6.91221
6.94178
6.97064
6.99868
7.02584
7.0521
7.0775
7.1021
7.12598
7.14918
7.17174
7.19368
7.215
7.23572
7.25586
7.27542
7.29445
7.31292
7.33083
7.34813
7.36477
7.38068
7.39583
7.41018
7.42371
7.43641
7.4483
7.45936
7.46957
7.47888
7.48723
7.49453
7.50069
7.50563
7.50927
7.51154
7.51239
7.51181
7.50982
7.50647
7.5019
7.49629
7.48991
7.48313
7.47632
7.46992
7.46432
7.45984
7.45674
7.45515
6.30857
6.31538
6.32855
6.34727
6.37053
6.39727
6.42651
6.45746
6.4895
6.52222
6.55532
6.58858
6.62183
6.65486
6.68746
6.71943
6.75058
6.78079
6.80997
6.83814
6.86535
6.89169
6.91725
6.9421
6.96627
6.98979
7.01265
7.03486
7.05645
7.07743
7.09785
7.11771
7.13697
7.15561
7.17353
7.19068
7.20698
7.22241
7.23696
7.25062
7.2634
7.27532
7.28635
7.29644
7.30551
7.31346
7.32019
7.32559
7.32956
7.33203
7.33294
7.33226
7.32998
7.32617
7.32094
7.31451
7.30718
7.29934
7.29147
7.28406
7.27759
7.27243
7.26887
7.26705
6.05842
6.06619
6.08116
6.10233
6.12845
6.15822
6.19052
6.22444
6.25933
6.29478
6.33052
6.36636
6.40215
6.43768
6.47273
6.50706
6.54044
6.57273
6.60386
6.63384
6.66275
6.69072
6.71787
6.74428
6.76999
6.79502
6.81935
6.84299
6.86595
6.88828
6.91003
6.93121
6.9518
6.97172
6.9909
7.00924
7.02667
7.04314
7.05865
7.07321
7.08686
7.09961
7.11144
7.12229
7.13208
7.14069
7.14799
7.15386
7.15818
7.16086
7.16184
7.16105
7.15848
7.15419
7.14828
7.14096
7.13259
7.1236
7.11456
7.10604
7.09862
7.09274
7.08868
7.08662
5.81701
5.82586
5.84284
5.86671
5.89591
5.92891
5.96439
6.00134
6.03908
6.0772
6.11551
6.15388
6.19215
6.23014
6.2676
6.30424
6.3398
6.37411
6.40709
6.43877
6.46928
6.49877
6.52741
6.55531
6.58249
6.60897
6.63471
6.65969
6.68395
6.70756
6.73058
6.75304
6.7749
6.79609
6.8165
6.836
6.85451
6.87197
6.8884
6.90383
6.9183
6.93185
6.94445
6.95607
6.96658
6.97585
6.98373
6.99008
6.99476
6.99767
6.99871
6.99783
6.99498
6.99019
6.98356
6.97531
6.96581
6.95557
6.94523
6.9355
6.92705
6.92038
6.91581
6.9135
5.58386
5.59393
5.61317
5.64001
5.67257
5.70899
5.74777
5.7878
5.82835
5.8691
5.9099
5.95071
5.99141
6.03181
6.07165
6.11057
6.14826
6.18452
6.21926
6.25254
6.28453
6.31544
6.34549
6.37478
6.40338
6.43125
6.45833
6.4846
6.51009
6.5349
6.55913
6.58282
6.60592
6.62835
6.64996
6.67059
6.69014
6.70857
6.72587
6.7421
6.75735
6.77166
6.78503
6.79739
6.80863
6.81858
6.82705
6.83389
6.83895
6.84209
6.84323
6.84226
6.83913
6.83385
6.82647
6.81723
6.80652
6.79492
6.78316
6.7721
6.76253
6.75503
6.74993
6.74736
5.35854
5.36998
5.39174
5.42187
5.45807
5.49813
5.54033
5.58346
5.6268
5.67008
5.71328
5.75645
5.79952
5.8423
5.88448
5.92566
5.96544
6.00358
6.04
6.07476
6.10811
6.14033
6.17169
6.20232
6.23227
6.26148
6.28987
6.31735
6.34399
6.36993
6.39531
6.42018
6.44449
6.46814
6.49093
6.51267
6.53324
6.55257
6.57069
6.58768
6.60366
6.61871
6.63282
6.64593
6.6579
6.66853
6.67761
6.68496
6.6904
6.6938
6.69504
6.694
6.69062
6.68483
6.6767
6.66642
6.65441
6.64133
6.62802
6.61549
6.60471
6.59634
6.5907
6.58787
5.14059
5.1536
5.17818
5.21197
5.25213
5.29603
5.34176
5.38802
5.43408
5.47978
5.52527
5.57072
5.61609
5.6612
5.70572
5.74914
5.79096
5.83092
5.86893
5.90507
5.93965
5.97307
6.00565
6.03755
6.0688
6.09932
6.12896
6.15759
6.18531
6.2123
6.23877
6.26477
6.29026
6.31512
6.33909
6.36192
6.38346
6.40367
6.42255
6.44023
6.45689
6.47264
6.48748
6.50134
6.51405
6.52539
6.53509
6.54295
6.5488
6.55247
6.55382
6.55274
6.54912
6.54285
6.53394
6.52257
6.50919
6.49451
6.4795
6.46536
6.45328
6.44401
6.43783
6.43476
4.9296
4.94439
4.97213
5.00998
5.05445
5.1024
5.15177
5.20117
5.24985
5.29784
5.34548
5.39312
5.44073
5.48813
5.53499
5.58066
5.62448
5.6662
5.70571
5.7431
5.77879
5.81328
5.84701
5.88012
5.91262
5.94443
5.97529
6.00501
6.0337
6.06167
6.08916
6.11626
6.1429
6.16896
6.19411
6.21801
6.24051
6.26153
6.28112
6.29944
6.31673
6.33315
6.3487
6.3633
6.37677
6.38883
6.39916
6.40756
6.41382
6.41777
6.41927
6.41817
6.41433
6.4076
6.39791
6.38542
6.37058
6.35419
6.3373
6.32138
6.30791
6.29773
6.29103
6.28774
4.72516
4.74199
4.77327
4.81563
4.86478
4.91698
4.97008
5.02261
5.07382
5.12392
5.17356
5.22329
5.27308
5.32273
5.37195
5.41987
5.46567
5.50909
5.55002
5.58853
5.62518
5.66062
5.69542
5.72969
5.7634
5.79649
5.82855
5.85928
5.88887
5.9177
5.94617
5.97432
6.00209
6.02937
6.0557
6.08065
6.10407
6.12588
6.1461
6.16499
6.18285
6.19991
6.21617
6.2315
6.24574
6.25855
6.26954
6.27848
6.28517
6.28941
6.29107
6.28998
6.28596
6.2788
6.26835
6.25469
6.23831
6.22009
6.20116
6.18327
6.16832
6.15722
6.15004
6.14655
4.52688
4.54605
4.58128
4.62866
4.68291
4.73953
4.79643
4.85209
4.90565
4.95769
5.00914
5.06087
5.11279
5.16464
5.21624
5.26647
5.31419
5.35926
5.40153
5.44102
5.47848
5.51475
5.55055
5.58592
5.62081
5.65518
5.68845
5.72012
5.75049
5.7801
5.80949
5.83866
5.86753
5.89603
5.92358
5.94955
5.97386
5.99642
6.01721
6.03659
6.05496
6.07264
6.08958
6.10564
6.12069
6.13428
6.14592
6.15541
6.16254
6.16709
6.16893
6.16788
6.16373
6.15618
6.14498
6.13012
6.11214
6.09198
6.07079
6.05071
6.03419
6.0222
6.01461
6.01096
4.33438
4.35625
4.39585
4.44883
4.50863
4.5698
4.63056
4.68935
4.74508
4.79882
4.85187
4.90553
4.95952
5.01349
5.06756
5.12016
5.16975
5.2164
5.25995
5.30028
5.33839
5.37533
5.41207
5.44852
5.48453
5.52022
5.55472
5.58724
5.61827
5.64855
5.67881
5.70898
5.7389
5.76868
5.79747
5.82443
5.84961
5.8729
5.89418
5.91396
5.93277
5.95104
5.96866
5.98544
6.00133
6.01573
6.02803
6.03809
6.04568
6.05054
6.05257
6.0516
6.04736
6.03947
6.02757
6.01149
5.99182
5.96963
5.94597
5.92341
5.90525
5.89244
5.88451
5.88076
4.14727
4.1723
4.21668
4.27591
4.34179
4.40754
4.47222
4.53414
4.5918
4.64699
4.7014
4.75694
4.81295
4.86894
4.92558
4.98067
5.03202
5.08022
5.12502
5.166
5.20458
5.24203
5.27969
5.31719
5.35425
5.39133
5.42711
5.46037
5.49195
5.52275
5.55387
5.585
5.61592
5.64703
5.67713
5.70504
5.73107
5.75505
5.77673
5.79683
5.81599
5.83486
5.85315
5.87062
5.8874
5.90267
5.91561
5.92623
5.9343
5.93947
5.94172
5.94085
5.93658
5.92843
5.91588
5.89853
5.87711
5.85284
5.82645
5.80108
5.78121
5.76767
5.75952
5.75573
3.96517
3.99395
4.04347
4.10972
4.18225
4.25252
4.32116
4.38625
4.44554
4.5019
4.55736
4.6148
4.6728
4.73064
4.79001
4.84775
4.90071
4.95043
4.99647
5.03789
5.07676
5.11454
5.15312
5.19166
5.22967
5.26825
5.30539
5.33927
5.37124
5.40242
5.43439
5.46647
5.4983
5.53083
5.56233
5.59111
5.61796
5.64265
5.66462
5.68494
5.70436
5.72383
5.7428
5.76092
5.77864
5.79484
5.8084
5.8196
5.82816
5.83364
5.83611
5.83538
5.83114
5.8228
5.80967
5.79104
5.76778
5.74142
5.71203
5.6834
5.6618
5.64769
5.63946
5.6357
3.78772
3.821
3.87589
3.95008
4.02996
4.10446
4.17711
4.24551
4.30602
4.36325
4.4194
4.4788
4.53879
4.5982
4.66056
4.7212
4.77553
4.82674
4.87407
4.91568
4.95466
4.99253
5.0321
5.07167
5.11048
5.15071
5.18938
5.22369
5.25591
5.28726
5.32013
5.35315
5.38574
5.41983
5.45287
5.48238
5.51005
5.53548
5.5576
5.57806
5.59761
5.61771
5.63737
5.65605
5.67482
5.69204
5.70616
5.71794
5.72702
5.73278
5.7355
5.73494
5.73079
5.72234
5.70875
5.68878
5.6636
5.63523
5.60253
5.57006
5.54675
5.53227
5.52412
5.52048
3.6145
3.65333
3.71361
3.79681
3.88489
3.96308
4.0398
4.11176
4.17294
4.23078
4.28712
4.34868
4.41071
4.47125
4.53695
4.60085
4.65615
4.70886
4.75763
4.79909
4.83802
4.87568
4.91636
4.95702
4.99634
5.03847
5.07891
5.11338
5.14571
5.17698
5.21084
5.24483
5.27795
5.31379
5.34857
5.37859
5.40711
5.43334
5.45544
5.47594
5.49548
5.51629
5.53665
5.55577
5.57569
5.59406
5.60864
5.621
5.63066
5.63666
5.63963
5.63926
5.63528
5.62683
5.61292
5.59155
5.56431
5.53414
5.49779
5.46072
5.43579
5.42124
5.41336
5.40991
3.44511
3.49092
3.5562
3.64977
3.74712
3.82802
3.90897
3.9849
4.04601
4.10426
4.16013
4.22422
4.28837
4.34935
4.41892
4.48659
4.54224
4.59652
4.647
4.68785
4.7266
4.76364
4.80569
4.84751
4.88693
4.93131
4.97384
5.0081
5.04043
5.07127
5.10633
5.14133
5.17461
5.2125
5.24929
5.2795
5.30888
5.33608
5.3579
5.37838
5.39768
5.41934
5.44046
5.4598
5.48106
5.50073
5.51559
5.52857
5.53886
5.54504
5.54828
5.54812
5.54439
5.53602
5.52201
5.49914
5.46965
5.43807
5.39771
5.35498
5.32869
5.31442
5.30702
5.30385
3.27907
3.33389
3.40318
3.50884
3.61684
3.69887
3.7843
3.8649
3.92488
3.98347
4.03796
4.10519
4.17166
4.23202
4.30622
4.37839
4.43343
4.48944
4.54205
4.58166
4.62021
4.65607
4.69989
4.743
4.78186
4.829
4.8741
4.9076
4.93989
4.9698
5.00639
5.04252
5.07538
5.11573
5.15494
5.18481
5.21515
5.24354
5.26474
5.2852
5.30396
5.32668
5.34864
5.36785
5.39071
5.41191
5.42679
5.44042
5.45145
5.45768
5.46122
5.46129
5.45788
5.44968
5.43585
5.41135
5.37931
5.34699
5.30222
5.25241
5.22521
5.21166
5.20496
5.20215
3.11586
3.18256
3.25391
3.37387
3.49435
3.57509
3.66547
3.75181
3.80916
3.86831
3.9201
3.99142
4.06055
4.1187
4.19861
4.27631
4.3293
4.38731
4.44274
4.4802
4.51868
4.55255
4.59876
4.6434
4.68072
4.73133
4.77967
4.81159
4.84394
4.87224
4.91085
4.94829
4.97989
5.02328
5.06547
5.09423
5.12567
5.15563
5.17572
5.19623
5.21401
5.23814
5.26106
5.27963
5.30444
5.32749
5.34197
5.35634
5.36825
5.37436
5.37826
5.37853
5.37554
5.36758
5.35433
5.32802
5.29295
5.26089
5.21132
5.15251
5.12516
5.11285
5.10705
5.10467
2.95486
3.0375
3.10758
3.24477
3.38016
3.456
3.55213
3.64581
3.69837
3.75872
3.80596
3.8828
3.95511
4.00872
4.09588
4.18052
4.22936
4.28984
4.34911
4.3831
4.42194
4.45265
4.50218
4.5487
4.58303
4.6381
4.69057
4.71975
4.75249
4.77818
4.81958
4.85861
4.8877
4.93497
4.98091
5.00741
5.04021
5.0723
5.09057
5.11135
5.12753
5.15356
5.17763
5.19481
5.22208
5.24739
5.26087
5.27612
5.28912
5.29485
5.29919
5.29964
5.29717
5.28946
5.27734
5.24898
5.21015
5.17986
5.12507
5.05465
5.02837
5.01787
5.01317
5.01128
2.79532
2.89964
2.96311
3.12144
3.27498
3.34076
3.44392
3.54723
3.5919
3.65481
3.6948
3.77923
3.85555
3.90129
3.9978
4.09134
4.133
4.19671
4.26127
4.28992
4.32998
4.35585
4.41002
4.45897
4.4882
4.54913
4.60695
4.63168
4.66552
4.68718
4.73247
4.77353
4.79831
4.85061
4.90136
4.92396
4.95854
4.99354
5.00897
5.03049
5.04417
5.07281
5.09831
5.11302
5.14345
5.1716
5.18319
5.19956
5.21394
5.21891
5.22385
5.2244
5.22258
5.21506
5.20482
5.17411
5.13039
5.10403
5.04366
4.95808
4.93476
4.92666
4.92321
4.92185
2.6363
2.77033
2.81909
3.00379
3.17984
3.22825
3.34043
3.45658
3.48896
3.55686
3.58576
3.68069
3.76223
3.79542
3.9042
4.00927
4.03949
4.10761
4.1795
4.20011
4.24292
4.26153
4.32222
4.37438
4.39555
4.46423
4.52903
4.5469
4.5831
4.59869
4.64942
4.69318
4.71114
4.77003
4.82702
4.84342
4.88042
4.91945
4.93056
4.95366
4.96353
4.99579
5.02313
5.03384
5.0684
5.10015
5.10862
5.12647
5.14263
5.1463
5.15207
5.15259
5.15161
5.14408
5.13673
5.10332
5.05305
5.03362
4.96737
4.8619
4.84429
4.83916
4.83706
4.83624
2.47666
2.65149
2.67369
2.89178
3.09607
3.11705
3.24125
3.37464
3.38851
3.4654
3.47776
3.58722
3.67573
3.68991
3.81491
3.93501
3.94793
4.02218
4.10421
4.11297
4.16103
4.16895
4.23874
4.29524
4.30428
4.38328
4.45716
4.4648
4.50545
4.51209
4.57041
4.61779
4.62546
4.69309
4.75824
4.76525
4.80559
4.85017
4.8549
4.88093
4.88515
4.92241
4.95218
4.95677
4.9968
5.03314
5.03679
5.05667
5.07514
5.07675
5.08373
5.08402
5.08411
5.07619
5.0731
5.03657
4.97735
4.96894
4.89663
4.76495
4.75708
4.75531
4.75461
4.75434
)
;

boundaryField
{
    left
    {
        type            zeroGradient;
    }
    right
    {
        type            zeroGradient;
    }
    interface
    {
        type            fixedValue;
        value           nonuniform List<scalar> 
64
(
2.39401
2.59743
2.59743
2.8374
3.05996
3.05996
3.19252
3.33774
3.33774
3.4224
3.4224
3.54209
3.63541
3.63541
3.77139
3.90155
3.90155
3.98022
4.06934
4.06934
4.12207
4.12207
4.19828
4.25781
4.25781
4.34384
4.42379
4.42379
4.46839
4.46839
4.53207
4.582
4.582
4.65555
4.72615
4.72615
4.76891
4.81736
4.81736
4.84596
4.84596
4.88675
4.91816
4.91816
4.9619
5.00125
5.00125
5.0226
5.04261
5.04261
5.05051
5.05051
5.05134
5.04289
5.04289
5.00456
4.93902
4.93902
4.86363
4.71431
4.71431
4.71431
4.71431
4.71431
)
;
    }
    bottom
    {
        type            fixedValue;
        value           uniform 10;
    }
    defaultFaces
    {
        type            empty;
    }
}


// ************************************************************************* //
