/*--------------------------------*- C++ -*----------------------------------*\
| =========                 |                                                 |
| \\      /  F ield         | OpenFOAM: The Open Source CFD Toolbox           |
|  \\    /   O peration     | Version:  5.x                                   |
|   \\  /    A nd           | Web:      www.OpenFOAM.org                      |
|    \\/     M anipulation  |                                                 |
\*---------------------------------------------------------------------------*/
FoamFile
{
    version     2.0;
    format      ascii;
    class       volScalarField;
    location    "3.8001";
    object      gradTy;
}
// * * * * * * * * * * * * * * * * * * * * * * * * * * * * * * * * * * * * * //

dimensions      [0 -1 0 1 0 0 0];

internalField   nonuniform List<scalar> 
2048
(
-27.5091
-27.4752
-27.4085
-27.3111
-27.1855
-27.0352
-26.8637
-26.6745
-26.4713
-26.2572
-26.0352
-25.8078
-25.5774
-25.3458
-25.1147
-24.8856
-24.6595
-24.4374
-24.2199
-24.0075
-23.8003
-23.5987
-23.4025
-23.2117
-23.0263
-22.846
-22.6709
-22.5009
-22.3358
-22.1758
-22.0207
-21.8707
-21.7258
-21.5863
-21.4523
-21.3241
-21.2018
-21.0857
-20.976
-20.8729
-20.7767
-20.6877
-20.6061
-20.5322
-20.4665
-20.4092
-20.3607
-20.3213
-20.2912
-20.2704
-20.2589
-20.2564
-20.2622
-20.2757
-20.2958
-20.321
-20.35
-20.3808
-20.4117
-20.4409
-20.4666
-20.4873
-20.5019
-20.5093
-27.5365
-27.5018
-27.4335
-27.3337
-27.2055
-27.0523
-26.8779
-26.6859
-26.4801
-26.2636
-26.0395
-25.8103
-25.5783
-25.3454
-25.1132
-24.8831
-24.6563
-24.4337
-24.2158
-24.0031
-23.7959
-23.5943
-23.3981
-23.2074
-23.022
-22.8419
-22.6669
-22.4969
-22.3318
-22.1717
-22.0166
-21.8665
-21.7215
-21.5818
-21.4477
-21.3193
-21.1968
-21.0805
-20.9706
-20.8673
-20.7709
-20.6817
-20.5998
-20.5257
-20.4596
-20.4021
-20.3534
-20.3138
-20.2836
-20.2629
-20.2516
-20.2495
-20.256
-20.2704
-20.2915
-20.318
-20.3484
-20.3807
-20.4131
-20.4437
-20.4706
-20.4923
-20.5075
-20.5153
-27.5889
-27.5525
-27.4811
-27.377
-27.2436
-27.0848
-26.9047
-26.7074
-26.4965
-26.2756
-26.0475
-25.8149
-25.5799
-25.3444
-25.1101
-24.8783
-24.6501
-24.4265
-24.2079
-23.9949
-23.7875
-23.5858
-23.3898
-23.1992
-23.014
-22.834
-22.6591
-22.4892
-22.3242
-22.1641
-22.0088
-21.8585
-21.7133
-21.5734
-21.4389
-21.3101
-21.1873
-21.0707
-20.9604
-20.8568
-20.76
-20.6702
-20.5879
-20.5132
-20.4466
-20.3885
-20.3394
-20.2995
-20.2691
-20.2486
-20.2377
-20.2364
-20.2441
-20.2601
-20.2833
-20.3123
-20.3453
-20.3805
-20.4158
-20.449
-20.4783
-20.5019
-20.5185
-20.527
-27.6642
-27.6254
-27.5492
-27.4386
-27.2976
-27.1307
-26.9424
-26.7372
-26.5192
-26.292
-26.0583
-25.8209
-25.5817
-25.3427
-25.1054
-24.8711
-24.6411
-24.4161
-24.1966
-23.9831
-23.7755
-23.5739
-23.378
-23.1877
-23.0028
-22.823
-22.6483
-22.4785
-22.3135
-22.1534
-21.998
-21.8475
-21.7019
-21.5615
-21.4265
-21.2972
-21.1739
-21.0568
-20.9461
-20.8419
-20.7446
-20.6542
-20.5711
-20.4957
-20.4283
-20.3694
-20.3195
-20.2791
-20.2485
-20.2281
-20.2178
-20.2176
-20.227
-20.2453
-20.2714
-20.3039
-20.3408
-20.3802
-20.4196
-20.4568
-20.4896
-20.5159
-20.5344
-20.5439
-27.7608
-27.7186
-27.6361
-27.5169
-27.3657
-27.188
-26.989
-26.7739
-26.5469
-26.3116
-26.0711
-25.8277
-25.5834
-25.3399
-25.0989
-24.8617
-24.6293
-24.4026
-24.1821
-23.968
-23.7603
-23.5588
-23.3633
-23.1733
-22.9887
-22.8092
-22.6348
-22.4652
-22.3003
-22.1401
-21.9846
-21.8337
-21.6876
-21.5467
-21.4111
-21.2811
-21.1572
-21.0395
-20.9282
-20.8235
-20.7254
-20.6343
-20.5503
-20.4738
-20.4053
-20.3454
-20.2945
-20.2534
-20.2224
-20.202
-20.1923
-20.1934
-20.2049
-20.2261
-20.256
-20.293
-20.335
-20.3798
-20.4247
-20.4671
-20.5043
-20.5343
-20.5553
-20.566
-27.8775
-27.831
-27.7403
-27.6101
-27.4462
-27.2551
-27.0431
-26.8158
-26.5781
-26.3335
-26.085
-25.8347
-25.5845
-25.3359
-25.0906
-24.8498
-24.6147
-24.3861
-24.1644
-23.9498
-23.7421
-23.541
-23.3459
-23.1564
-22.9723
-22.7932
-22.619
-22.4497
-22.2849
-22.1247
-21.969
-21.8177
-21.6711
-21.5294
-21.393
-21.2623
-21.1376
-21.0192
-20.9073
-20.8019
-20.7031
-20.611
-20.526
-20.4482
-20.3784
-20.3171
-20.265
-20.2229
-20.1913
-20.1708
-20.1618
-20.1643
-20.1782
-20.2028
-20.2372
-20.2795
-20.3278
-20.3793
-20.431
-20.4797
-20.5226
-20.557
-20.5811
-20.5934
-28.0138
-27.9618
-27.861
-27.7171
-27.5376
-27.3303
-27.1028
-26.8616
-26.6116
-26.3566
-26.0992
-25.8413
-25.5846
-25.3304
-25.0803
-24.8355
-24.5973
-24.3666
-24.1438
-23.9288
-23.7213
-23.5207
-23.3263
-23.1375
-22.9539
-22.7752
-22.6015
-22.4324
-22.2679
-22.1077
-21.9517
-21.8
-21.6526
-21.51
-21.3727
-21.241
-21.1155
-20.9964
-20.8838
-20.7777
-20.6781
-20.5851
-20.4988
-20.4196
-20.3481
-20.2852
-20.2315
-20.1881
-20.1557
-20.1349
-20.1264
-20.1304
-20.1469
-20.1754
-20.2148
-20.2636
-20.3192
-20.3787
-20.4385
-20.4949
-20.5445
-20.5842
-20.6119
-20.6261
-28.1691
-28.1104
-27.9971
-27.8366
-27.6383
-27.412
-27.1666
-26.9095
-26.646
-26.3798
-26.113
-25.8472
-25.5835
-25.3232
-25.0678
-24.8186
-24.5771
-24.3442
-24.1203
-23.9051
-23.6981
-23.4983
-23.3048
-23.1168
-22.9338
-22.7557
-22.5824
-22.4137
-22.2494
-22.0893
-21.9331
-21.7808
-21.6326
-21.489
-21.3505
-21.2177
-21.0913
-20.9714
-20.8582
-20.7515
-20.6511
-20.557
-20.4693
-20.3884
-20.3151
-20.2501
-20.1945
-20.1495
-20.1159
-20.0947
-20.0865
-20.0919
-20.1111
-20.1438
-20.189
-20.245
-20.3091
-20.3779
-20.4473
-20.5127
-20.5701
-20.616
-20.6478
-20.6641
-28.3436
-28.2767
-28.1482
-27.9677
-27.7471
-27.4986
-27.2329
-26.9582
-26.6802
-26.4023
-26.1259
-25.8519
-25.581
-25.3142
-25.053
-24.7991
-24.554
-24.3188
-24.0939
-23.8789
-23.6727
-23.4741
-23.2818
-23.0948
-22.9125
-22.735
-22.5621
-22.3938
-22.2299
-22.07
-21.9136
-21.7607
-21.6115
-21.4666
-21.3267
-21.1926
-21.0652
-20.9446
-20.8308
-20.7235
-20.6225
-20.5273
-20.4381
-20.3553
-20.2797
-20.2123
-20.1545
-20.1074
-20.0724
-20.0503
-20.0423
-20.0491
-20.071
-20.108
-20.1594
-20.2235
-20.2974
-20.3769
-20.4573
-20.5332
-20.5996
-20.6525
-20.689
-20.7076
-28.5375
-28.4605
-28.3136
-28.1092
-27.8624
-27.5884
-27.2998
-27.0061
-26.713
-26.4231
-26.1372
-25.8551
-25.5769
-25.3034
-25.036
-24.7769
-24.5279
-24.2904
-24.0647
-23.8502
-23.6454
-23.4485
-23.2577
-23.0718
-22.8903
-22.7132
-22.5407
-22.373
-22.2096
-22.05
-21.8936
-21.74
-21.5896
-21.4431
-21.3015
-21.166
-21.0374
-20.9161
-20.8019
-20.6943
-20.5927
-20.4965
-20.4057
-20.3207
-20.2425
-20.1724
-20.1119
-20.0624
-20.0254
-20.0023
-19.9941
-20.0019
-20.0264
-20.068
-20.1261
-20.199
-20.2838
-20.3756
-20.4687
-20.5566
-20.6333
-20.694
-20.7356
-20.7567
-28.7513
-28.6622
-28.4931
-28.2602
-27.9828
-27.6797
-27.3658
-27.0518
-26.7431
-26.4416
-26.1466
-25.8567
-25.5712
-25.2907
-25.0167
-24.7519
-24.4987
-24.2588
-24.0326
-23.8192
-23.6164
-23.4217
-23.2327
-23.0481
-22.8674
-22.6907
-22.5186
-22.3515
-22.1888
-22.0298
-21.8733
-21.7191
-21.5672
-21.4188
-21.2752
-21.138
-21.0082
-20.8863
-20.7719
-20.6642
-20.5621
-20.465
-20.3725
-20.2851
-20.2039
-20.1306
-20.0669
-20.0147
-19.9755
-19.9508
-19.9421
-19.9506
-19.9775
-20.0236
-20.0887
-20.1713
-20.2681
-20.3739
-20.4815
-20.5832
-20.6714
-20.7406
-20.7877
-20.8114
-28.9858
-28.8819
-28.6863
-28.4196
-28.1067
-27.7706
-27.4291
-27.0936
-26.7695
-26.4571
-26.1539
-25.8568
-25.5642
-25.2763
-24.9952
-24.724
-24.4662
-24.224
-23.9976
-23.7859
-23.5859
-23.3941
-23.2074
-23.0242
-22.8441
-22.6676
-22.4958
-22.3294
-22.1677
-22.0095
-21.8532
-21.6982
-21.5446
-21.3939
-21.2479
-21.1087
-20.9776
-20.8552
-20.7409
-20.6334
-20.5313
-20.4333
-20.339
-20.2489
-20.1644
-20.0874
-20.0201
-19.9646
-19.9227
-19.8961
-19.8864
-19.8953
-19.9242
-19.9746
-20.0469
-20.1399
-20.2501
-20.3715
-20.4957
-20.613
-20.7141
-20.7926
-20.8454
-20.8717
-29.2422
-29.1204
-28.8929
-28.5864
-28.2323
-27.8592
-27.4878
-27.1302
-26.7912
-26.4692
-26.1589
-25.8554
-25.556
-25.2605
-24.9715
-24.6932
-24.4305
-24.1858
-23.9597
-23.7505
-23.5542
-23.3661
-23.1822
-23.0004
-22.8207
-22.644
-22.4723
-22.3067
-22.1465
-21.9895
-21.8336
-21.6777
-21.5222
-21.3686
-21.2196
-21.0781
-20.9457
-20.8229
-20.7091
-20.6024
-20.5005
-20.4018
-20.3056
-20.2125
-20.1242
-20.043
-19.9717
-19.9125
-19.8675
-19.8386
-19.8275
-19.8362
-19.8667
-19.9211
-20.0006
-20.1046
-20.2294
-20.3684
-20.5114
-20.6465
-20.7619
-20.8502
-20.9087
-20.9375
-29.5216
-29.3784
-29.1128
-28.7593
-28.3578
-27.9436
-27.54
-27.1599
-26.8072
-26.4773
-26.1618
-25.853
-25.547
-25.2436
-24.9457
-24.6595
-24.3911
-24.144
-23.9187
-23.7129
-23.5216
-23.3381
-23.1573
-22.9771
-22.7975
-22.6201
-22.4481
-22.2836
-22.1253
-21.9701
-21.8148
-21.658
-21.5001
-21.3431
-21.1905
-21.0463
-20.9124
-20.7895
-20.6766
-20.5713
-20.4701
-20.3709
-20.2728
-20.1764
-20.0838
-19.9978
-19.9219
-19.8586
-19.8102
-19.7785
-19.7656
-19.7734
-19.8048
-19.8627
-19.9494
-20.0649
-20.2057
-20.3641
-20.5287
-20.6841
-20.8153
-20.9137
-20.9775
-21.0085
-29.8258
-29.6565
-29.3458
-28.9371
-28.4813
-28.0216
-27.5839
-27.1813
-26.8166
-26.4814
-26.1629
-25.8499
-25.5377
-25.226
-24.9181
-24.6225
-24.348
-24.0984
-23.8744
-23.6733
-23.4883
-23.3106
-23.1335
-22.9546
-22.7746
-22.5958
-22.4231
-22.2598
-22.1042
-21.9516
-21.7972
-21.6395
-21.4788
-21.3175
-21.1606
-21.0132
-20.8778
-20.755
-20.6437
-20.5404
-20.4406
-20.3411
-20.2409
-20.1409
-20.0433
-19.952
-19.871
-19.8033
-19.751
-19.7163
-19.7009
-19.7073
-19.7388
-19.7995
-19.893
-20.0204
-20.1784
-20.3585
-20.5476
-20.7262
-20.8747
-20.9833
-21.0518
-21.0844
-30.1565
-29.956
-29.5918
-29.1183
-28.6002
-28.091
-27.6176
-27.1929
-26.8186
-26.4814
-26.1627
-25.8467
-25.5286
-25.2083
-24.8888
-24.5822
-24.301
-24.0488
-23.8265
-23.6317
-23.4548
-23.2842
-23.111
-22.9334
-22.7525
-22.5712
-22.3969
-22.2352
-22.0834
-21.9343
-21.7812
-21.6224
-21.4586
-21.292
-21.1296
-20.9787
-20.8417
-20.7192
-20.6103
-20.51
-20.4123
-20.3127
-20.2103
-20.1064
-20.0032
-19.9057
-19.8193
-19.7467
-19.6903
-19.6521
-19.6339
-19.6382
-19.6688
-19.7313
-19.831
-19.9707
-20.147
-20.351
-20.568
-20.7735
-20.941
-21.0593
-21.1313
-21.1647
-30.5161
-30.2776
-29.8506
-29.3012
-28.7122
-28.1497
-27.6393
-27.1932
-26.8126
-26.4774
-26.1618
-25.8442
-25.5204
-25.1911
-24.858
-24.5383
-24.2497
-23.9949
-23.7749
-23.588
-23.4213
-23.2595
-23.0905
-22.9138
-22.7314
-22.5461
-22.3691
-22.2096
-22.0629
-21.9185
-21.7671
-21.6071
-21.4398
-21.2667
-21.0976
-20.9428
-20.804
-20.6821
-20.5765
-20.4804
-20.3857
-20.2861
-20.1814
-20.0733
-19.9635
-19.859
-19.7667
-19.6891
-19.6282
-19.5864
-19.565
-19.5663
-19.595
-19.658
-19.7631
-19.9152
-20.111
-20.341
-20.5901
-20.8268
-21.0148
-21.1419
-21.2157
-21.2486
-30.9069
-30.6223
-30.1223
-29.4839
-28.814
-28.1957
-27.6475
-27.1805
-26.7979
-26.4698
-26.1613
-25.843
-25.5137
-25.1755
-24.8258
-24.4901
-24.194
-23.9365
-23.719
-23.5423
-23.3884
-23.2372
-23.0725
-22.8961
-22.7119
-22.5205
-22.3392
-22.1826
-22.0427
-21.9049
-21.7552
-21.594
-21.423
-21.2416
-21.0642
-20.9052
-20.7646
-20.6434
-20.5423
-20.4519
-20.3612
-20.2616
-20.1544
-20.0419
-19.9246
-19.8119
-19.7136
-19.6306
-19.5651
-19.5195
-19.4945
-19.4922
-19.5175
-19.5795
-19.6889
-19.8535
-20.0698
-20.3276
-20.6136
-20.8874
-21.0975
-21.2315
-21.3044
-21.3354
-31.332
-30.9908
-30.4071
-29.6644
-28.9022
-28.227
-27.6407
-27.1532
-26.7739
-26.4589
-26.1625
-25.8437
-25.5089
-25.1625
-24.7925
-24.4369
-24.1338
-23.8734
-23.6582
-23.4944
-23.3564
-23.2183
-23.0573
-22.8806
-22.6944
-22.4942
-22.3061
-22.1537
-22.0231
-21.894
-21.7459
-21.5832
-21.4089
-21.217
-21.0289
-20.866
-20.7234
-20.6027
-20.5077
-20.4245
-20.3393
-20.2396
-20.1295
-20.0127
-19.8864
-19.7643
-19.6599
-19.5716
-19.501
-19.4519
-19.423
-19.4162
-19.4369
-19.496
-19.6079
-19.7851
-20.023
-20.3097
-20.6383
-20.9568
-21.1902
-21.328
-21.3969
-21.4239
-31.7947
-31.3833
-30.7057
-29.8403
-28.9723
-28.2423
-27.6178
-27.1092
-26.7405
-26.4454
-26.1673
-25.8471
-25.5061
-25.1539
-24.7584
-24.3773
-24.0691
-23.8055
-23.5917
-23.4443
-23.3258
-23.204
-23.0453
-22.8673
-22.68
-22.467
-22.2686
-22.1225
-22.0042
-21.8866
-21.7395
-21.5748
-21.3982
-21.1928
-20.991
-20.8252
-20.6803
-20.5597
-20.4726
-20.3988
-20.3207
-20.2202
-20.1069
-19.9863
-19.8493
-19.7159
-19.606
-19.5123
-19.4363
-19.3838
-19.351
-19.3391
-19.3533
-19.4073
-19.5196
-19.7098
-19.9701
-20.2857
-20.6635
-21.0371
-21.2945
-21.4317
-21.4922
-21.5131
-32.2991
-31.7988
-31.0195
-30.009
-29.0186
-28.241
-27.5785
-27.0462
-26.6974
-26.4299
-26.1783
-25.8535
-25.5053
-25.1522
-24.7235
-24.3095
-24.0005
-23.7332
-23.518
-23.3921
-23.2969
-23.1959
-23.0368
-22.856
-22.6701
-22.4388
-22.2248
-22.0885
-21.9859
-21.884
-21.7359
-21.5686
-21.3922
-21.1691
-20.9493
-20.7829
-20.6355
-20.5134
-20.4371
-20.3747
-20.3063
-20.2036
-20.0863
-19.9636
-19.8132
-19.666
-19.5519
-19.4528
-19.3708
-19.3157
-19.279
-19.2613
-19.2674
-19.3137
-19.4235
-19.6271
-19.9112
-20.2535
-20.6883
-21.1313
-21.4123
-21.5425
-21.5892
-21.6015
-32.8504
-32.2348
-31.3514
-30.1676
-29.0338
-28.2238
-27.5229
-26.9606
-26.6449
-26.4128
-26.1988
-25.8628
-25.5051
-25.161
-24.6881
-24.2301
-23.9292
-23.6568
-23.4353
-23.3379
-23.2702
-23.196
-23.0317
-22.846
-22.6668
-22.4095
-22.1723
-22.0514
-21.9683
-21.8879
-21.7352
-21.5639
-21.393
-21.1459
-20.9021
-20.7399
-20.5892
-20.4628
-20.4012
-20.3526
-20.2973
-20.1897
-20.0674
-19.9456
-19.7782
-19.6138
-19.4982
-19.3935
-19.3044
-19.2481
-19.2074
-19.1836
-19.1797
-19.2154
-19.3187
-19.5369
-19.8467
-20.2099
-20.7109
-21.2437
-21.5457
-21.6599
-21.6868
-21.6878
-33.4552
-32.6857
-31.7066
-30.313
-29.0076
-28.1936
-27.4523
-26.8478
-26.5842
-26.3943
-26.2336
-25.8745
-25.5033
-25.1855
-24.6523
-24.1346
-23.8573
-23.5772
-23.3406
-23.2824
-23.2455
-23.2075
-23.0295
-22.8356
-22.6735
-22.3789
-22.1075
-22.0111
-21.9511
-21.9006
-21.7369
-21.5594
-21.4032
-21.1234
-20.8468
-20.6972
-20.5418
-20.4063
-20.3653
-20.3322
-20.2952
-20.1784
-20.0493
-19.934
-19.7444
-19.5577
-19.4453
-19.3349
-19.2368
-19.1813
-19.1368
-19.1068
-19.0908
-19.1128
-19.204
-19.439
-19.7783
-20.1509
-20.7286
-21.3801
-21.6969
-21.7833
-21.7834
-21.7705
-34.1221
-33.1413
-32.0939
-30.442
-28.9262
-28.1561
-27.3688
-26.7008
-26.5175
-26.3732
-26.2896
-25.8872
-25.4955
-25.2335
-24.6164
-24.0157
-23.7887
-23.4962
-23.2295
-23.2268
-23.2219
-23.2345
-23.0292
-22.822
-22.695
-22.347
-22.0255
-21.9684
-21.9336
-21.9257
-21.7401
-21.5526
-21.4271
-21.1015
-20.7793
-20.657
-20.4942
-20.3415
-20.3299
-20.3132
-20.3023
-20.1689
-20.0304
-19.9315
-19.7118
-19.4955
-19.3946
-19.2773
-19.1672
-19.1163
-19.0676
-19.0317
-19.0014
-19.0067
-19.0776
-19.3334
-19.709
-20.0709
-20.737
-21.5489
-21.8681
-21.9112
-21.8773
-21.8481
-34.8631
-33.5846
-32.5277
-30.5511
-28.7702
-28.1218
-27.2764
-26.5092
-26.4496
-26.3467
-26.3766
-25.8982
-25.4746
-25.3166
-24.5802
-23.8628
-23.7299
-23.4158
-23.0956
-23.1737
-23.1977
-23.2831
-23.0292
-22.8007
-22.7386
-22.3137
-21.9193
-21.9251
-21.9141
-21.9684
-21.7434
-21.5398
-21.471
-21.0801
-20.6939
-20.6227
-20.4475
-20.2647
-20.2966
-20.2944
-20.322
-20.1604
-20.0082
-19.9417
-19.6802
-19.424
-19.3477
-19.2215
-19.0944
-19.0538
-19
-18.9593
-18.9121
-18.8983
-18.9374
-19.2197
-19.644
-19.9625
-20.7298
-21.762
-22.0608
-22.0416
-21.9666
-21.9192
-35.6947
-33.9878
-33.0306
-30.6366
-28.5124
-28.1076
-27.1802
-26.2582
-26.3885
-26.3087
-26.5084
-25.9035
-25.4292
-25.4515
-24.5439
-23.6606
-23.6909
-23.3395
-22.9294
-23.1281
-23.1687
-23.3621
-23.0269
-22.7645
-22.8152
-22.279
-21.7794
-21.8852
-21.8893
-22.036
-21.7445
-21.5147
-21.5438
-21.0592
-20.582
-20.5998
-20.4036
-20.1706
-20.268
-20.2736
-20.3589
-20.1514
-19.9788
-19.9702
-19.6495
-19.3383
-19.3075
-19.1682
-19.0166
-18.9952
-18.9341
-18.8906
-18.8234
-18.7895
-18.7799
-19.0973
-19.5917
-19.8158
-20.6976
-22.0362
-22.2758
-22.1718
-22.0494
-21.9827
-36.6399
-34.3083
-33.6374
-30.6946
-28.1151
-28.1394
-27.0877
-25.9259
-26.3482
-26.2481
-26.705
-25.8973
-25.3425
-25.662
-24.507
-23.3871
-23.6868
-23.2716
-22.7171
-23.0982
-23.1276
-23.484
-23.0183
-22.7025
-22.9397
-22.2425
-21.5925
-21.8558
-21.8531
-22.139
-21.7403
-21.468
-21.6584
-21.0387
-20.4316
-20.5966
-20.3648
-20.0517
-20.2485
-20.2468
-20.4199
-20.1398
-19.9363
-20.0248
-19.6193
-19.2318
-19.2786
-19.1183
-18.9307
-18.9427
-18.8696
-18.827
-18.7357
-18.6832
-18.6005
-18.9646
-19.5653
-19.6177
-20.6269
-22.3947
-22.5118
-22.298
-22.1236
-22.0375
-37.7312
-34.4826
-34.3997
-30.7209
-27.5264
-28.2556
-27.0078
-25.481
-26.3513
-26.1456
-26.9943
-25.8711
-25.1896
-25.9814
-24.4688
-23.0118
-23.7401
-23.2177
-22.439
-23.0976
-23.0623
-23.6665
-22.9981
-22.5991
-23.1337
-22.2038
-21.3405
-21.8488
-21.7955
-22.2923
-21.7262
-21.3864
-21.8328
-21.018
-20.2259
-20.6253
-20.3341
-19.8972
-20.2458
-20.2073
-20.5146
-20.1225
-19.8724
-20.1165
-19.5889
-19.0952
-19.2675
-19.0727
-18.8325
-18.8992
-18.8055
-18.77
-18.6487
-18.5838
-18.3931
-18.8188
-19.5837
-19.3515
-20.4985
-22.8699
-22.7642
-22.4156
-22.1875
-22.0829
-39.0133
-34.418
-35.3922
-30.7104
-26.6757
-28.5112
-26.9517
-24.8799
-26.4327
-25.9707
-27.4155
-25.8138
-24.9356
-26.4557
-24.4283
-22.4928
-23.8825
-23.185
-22.0678
-23.1476
-22.9532
-23.9343
-22.9591
-22.4318
-23.4265
-22.1619
-20.9989
-21.8831
-21.7003
-22.5169
-21.6961
-21.2508
-22.0922
-20.9965
-19.9418
-20.7032
-20.3155
-19.6918
-20.2714
-20.1443
-20.6563
-20.0957
-19.775
-20.2609
-19.5574
-18.9157
-19.2837
-19.0325
-18.7162
-18.8694
-18.7398
-18.7218
-18.5613
-18.4979
-18.1494
-18.6544
-19.6742
-18.9956
-20.286
-23.506
-23.0238
-22.5193
-22.2395
-22.1187
-40.548
-33.9837
-36.7202
-30.6568
-25.4685
-28.9828
-26.9324
-24.0619
-26.6451
-25.676
-28.0225
-25.7105
-24.5321
-27.147
-24.3834
-21.7735
-24.1583
-23.1817
-21.5654
-23.2806
-22.7704
-24.3215
-22.8918
-22.1699
-23.858
-22.115
-20.535
-21.9871
-21.5424
-22.8414
-21.6421
-21.035
-22.47
-20.9732
-19.5484
-20.8546
-20.3134
-19.4147
-20.3431
-20.0413
-20.8638
-20.0539
-19.628
-20.4786
-19.5231
-18.6763
-19.3406
-18.9984
-18.5734
-18.8598
-18.6697
-18.6853
-18.4713
-18.4347
-17.8591
-18.4627
-19.8744
-18.5231
-19.9535
-24.3626
-23.274
-22.6034
-22.2785
-22.1447
-42.4185
-32.9991
-38.5294
-30.5518
-23.7801
-29.7745
-26.9641
-22.9453
-27.0655
-25.1914
-28.8885
-25.5423
-23.9137
-28.138
-24.3311
-20.7792
-24.6281
-23.2179
-20.8808
-23.5438
-22.4695
-24.8746
-22.784
-21.7718
-24.481
-22.0602
-19.9053
-22.2025
-21.2848
-23.3049
-21.5543
-20.7036
-23.0111
-20.9466
-19.0047
-21.1125
-20.3334
-19.0377
-20.4868
-19.8741
-21.1623
-19.9905
-19.4091
-20.7975
-19.4837
-18.3547
-19.4567
-18.9708
-18.3933
-18.8797
-18.59
-18.6644
-18.3743
-18.4072
-17.509
-18.2298
-20.235
-17.9004
-19.4529
-25.5189
-23.4882
-22.6625
-22.3041
-22.1613
-44.736
-31.2202
-41.0168
-30.3836
-21.4491
-31.0249
-27.0623
-21.4209
-27.8028
-24.4161
-30.1117
-25.2849
-22.9943
-29.5361
-24.2666
-19.4131
-25.3718
-23.3044
-19.9455
-24.0046
-21.9868
-25.6554
-22.6203
-21.1822
-25.3642
-21.9927
-19.053
-22.588
-20.8737
-23.9592
-21.4193
-20.209
-23.7733
-20.9136
-18.2569
-21.5203
-20.3808
-18.5223
-20.7389
-19.6069
-21.5847
-19.8957
-19.0882
-21.2529
-19.4343
-17.9204
-19.6551
-18.948
-18.1594
-18.9403
-18.4914
-18.6628
-18.2613
-18.4305
-17.0808
-17.9324
-20.8199
-17.0834
-18.7176
-27.0751
-23.6222
-22.6889
-22.3124
-22.1653
)
;

boundaryField
{
    left
    {
        type            calculated;
        value           nonuniform List<scalar> 
32
(
-27.5091
-27.5365
-27.5889
-27.6642
-27.7608
-27.8775
-28.0138
-28.1691
-28.3436
-28.5375
-28.7513
-28.9858
-29.2422
-29.5216
-29.8258
-30.1565
-30.5161
-30.9069
-31.332
-31.7947
-32.2991
-32.8504
-33.4552
-34.1221
-34.8631
-35.6947
-36.6399
-37.7312
-39.0133
-40.548
-42.4185
-44.736
)
;
    }
    right
    {
        type            calculated;
        value           nonuniform List<scalar> 
32
(
-20.5093
-20.5153
-20.527
-20.5439
-20.566
-20.5934
-20.6261
-20.6641
-20.7076
-20.7567
-20.8114
-20.8717
-20.9375
-21.0085
-21.0844
-21.1647
-21.2486
-21.3354
-21.4239
-21.5131
-21.6015
-21.6878
-21.7705
-21.8481
-21.9192
-21.9827
-22.0375
-22.0829
-22.1187
-22.1447
-22.1613
-22.1653
)
;
    }
    interface
    {
        type            calculated;
        value           nonuniform List<scalar> 
64
(
-46.0222
-30.0971
-42.4582
-30.282
-20.1002
-31.7845
-27.1299
-20.5412
-28.2667
-23.9411
-30.8264
-25.1307
-22.447
-30.3521
-24.2307
-18.6234
-25.8236
-23.3616
-19.4054
-24.2941
-21.6907
-26.1115
-22.5223
-20.8317
-25.8806
-21.9549
-18.5631
-22.8318
-20.6219
-24.3414
-21.3382
-19.9142
-24.2177
-20.8951
-17.8243
-21.7677
-20.4119
-18.2245
-20.8971
-19.443
-21.8315
-19.8389
-18.8978
-21.5196
-19.4063
-17.6707
-19.7781
-18.9372
-18.0265
-18.9822
-18.4357
-18.6671
-18.1992
-18.4568
-16.8443
-17.7638
-21.1771
-16.6199
-18.2815
-27.967
-23.6621
-22.6926
-22.3114
-22.1632
)
;
    }
    bottom
    {
        type            calculated;
        value           nonuniform List<scalar> 
64
(
-27.502
-27.4683
-27.4021
-27.3051
-27.1803
-27.0307
-26.8599
-26.6715
-26.469
-26.2555
-26.0341
-25.8072
-25.5771
-25.3459
-25.1151
-24.8862
-24.6604
-24.4384
-24.221
-24.0086
-23.8015
-23.5998
-23.4036
-23.2128
-23.0274
-22.8471
-22.672
-22.502
-22.3369
-22.1768
-22.0218
-21.8718
-21.727
-21.5875
-21.4536
-21.3254
-21.2031
-21.087
-20.9774
-20.8744
-20.7783
-20.6893
-20.6077
-20.534
-20.4683
-20.4111
-20.3627
-20.3233
-20.2932
-20.2724
-20.2608
-20.2581
-20.2638
-20.2771
-20.2969
-20.3218
-20.3504
-20.3808
-20.4114
-20.4402
-20.4656
-20.4861
-20.5004
-20.5078
)
;
    }
    defaultFaces
    {
        type            empty;
    }
}


// ************************************************************************* //
