# vtk DataFile Version 2.0
generated by CFD-lab course output (written by Tobias Neckel) 
ASCII

DATASET STRUCTURED_GRID
DIMENSIONS  99 49 1 
POINTS 4851 float

0.000000 0.000000 0
0.020000 0.000000 0
0.040000 0.000000 0
0.060000 0.000000 0
0.080000 0.000000 0
0.100000 0.000000 0
0.120000 0.000000 0
0.140000 0.000000 0
0.160000 0.000000 0
0.180000 0.000000 0
0.200000 0.000000 0
0.220000 0.000000 0
0.240000 0.000000 0
0.260000 0.000000 0
0.280000 0.000000 0
0.300000 0.000000 0
0.320000 0.000000 0
0.340000 0.000000 0
0.360000 0.000000 0
0.380000 0.000000 0
0.400000 0.000000 0
0.420000 0.000000 0
0.440000 0.000000 0
0.460000 0.000000 0
0.480000 0.000000 0
0.500000 0.000000 0
0.520000 0.000000 0
0.540000 0.000000 0
0.560000 0.000000 0
0.580000 0.000000 0
0.600000 0.000000 0
0.620000 0.000000 0
0.640000 0.000000 0
0.660000 0.000000 0
0.680000 0.000000 0
0.700000 0.000000 0
0.720000 0.000000 0
0.740000 0.000000 0
0.760000 0.000000 0
0.780000 0.000000 0
0.800000 0.000000 0
0.820000 0.000000 0
0.840000 0.000000 0
0.860000 0.000000 0
0.880000 0.000000 0
0.900000 0.000000 0
0.920000 0.000000 0
0.940000 0.000000 0
0.960000 0.000000 0
0.980000 0.000000 0
1.000000 0.000000 0
1.020000 0.000000 0
1.040000 0.000000 0
1.060000 0.000000 0
1.080000 0.000000 0
1.100000 0.000000 0
1.120000 0.000000 0
1.140000 0.000000 0
1.160000 0.000000 0
1.180000 0.000000 0
1.200000 0.000000 0
1.220000 0.000000 0
1.240000 0.000000 0
1.260000 0.000000 0
1.280000 0.000000 0
1.300000 0.000000 0
1.320000 0.000000 0
1.340000 0.000000 0
1.360000 0.000000 0
1.380000 0.000000 0
1.400000 0.000000 0
1.420000 0.000000 0
1.440000 0.000000 0
1.460000 0.000000 0
1.480000 0.000000 0
1.500000 0.000000 0
1.520000 0.000000 0
1.540000 0.000000 0
1.560000 0.000000 0
1.580000 0.000000 0
1.600000 0.000000 0
1.620000 0.000000 0
1.640000 0.000000 0
1.660000 0.000000 0
1.680000 0.000000 0
1.700000 0.000000 0
1.720000 0.000000 0
1.740000 0.000000 0
1.760000 0.000000 0
1.780000 0.000000 0
1.800000 0.000000 0
1.820000 0.000000 0
1.840000 0.000000 0
1.860000 0.000000 0
1.880000 0.000000 0
1.900000 0.000000 0
1.920000 0.000000 0
1.940000 0.000000 0
1.960000 0.000000 0
0.000000 0.020000 0
0.020000 0.020000 0
0.040000 0.020000 0
0.060000 0.020000 0
0.080000 0.020000 0
0.100000 0.020000 0
0.120000 0.020000 0
0.140000 0.020000 0
0.160000 0.020000 0
0.180000 0.020000 0
0.200000 0.020000 0
0.220000 0.020000 0
0.240000 0.020000 0
0.260000 0.020000 0
0.280000 0.020000 0
0.300000 0.020000 0
0.320000 0.020000 0
0.340000 0.020000 0
0.360000 0.020000 0
0.380000 0.020000 0
0.400000 0.020000 0
0.420000 0.020000 0
0.440000 0.020000 0
0.460000 0.020000 0
0.480000 0.020000 0
0.500000 0.020000 0
0.520000 0.020000 0
0.540000 0.020000 0
0.560000 0.020000 0
0.580000 0.020000 0
0.600000 0.020000 0
0.620000 0.020000 0
0.640000 0.020000 0
0.660000 0.020000 0
0.680000 0.020000 0
0.700000 0.020000 0
0.720000 0.020000 0
0.740000 0.020000 0
0.760000 0.020000 0
0.780000 0.020000 0
0.800000 0.020000 0
0.820000 0.020000 0
0.840000 0.020000 0
0.860000 0.020000 0
0.880000 0.020000 0
0.900000 0.020000 0
0.920000 0.020000 0
0.940000 0.020000 0
0.960000 0.020000 0
0.980000 0.020000 0
1.000000 0.020000 0
1.020000 0.020000 0
1.040000 0.020000 0
1.060000 0.020000 0
1.080000 0.020000 0
1.100000 0.020000 0
1.120000 0.020000 0
1.140000 0.020000 0
1.160000 0.020000 0
1.180000 0.020000 0
1.200000 0.020000 0
1.220000 0.020000 0
1.240000 0.020000 0
1.260000 0.020000 0
1.280000 0.020000 0
1.300000 0.020000 0
1.320000 0.020000 0
1.340000 0.020000 0
1.360000 0.020000 0
1.380000 0.020000 0
1.400000 0.020000 0
1.420000 0.020000 0
1.440000 0.020000 0
1.460000 0.020000 0
1.480000 0.020000 0
1.500000 0.020000 0
1.520000 0.020000 0
1.540000 0.020000 0
1.560000 0.020000 0
1.580000 0.020000 0
1.600000 0.020000 0
1.620000 0.020000 0
1.640000 0.020000 0
1.660000 0.020000 0
1.680000 0.020000 0
1.700000 0.020000 0
1.720000 0.020000 0
1.740000 0.020000 0
1.760000 0.020000 0
1.780000 0.020000 0
1.800000 0.020000 0
1.820000 0.020000 0
1.840000 0.020000 0
1.860000 0.020000 0
1.880000 0.020000 0
1.900000 0.020000 0
1.920000 0.020000 0
1.940000 0.020000 0
1.960000 0.020000 0
0.000000 0.040000 0
0.020000 0.040000 0
0.040000 0.040000 0
0.060000 0.040000 0
0.080000 0.040000 0
0.100000 0.040000 0
0.120000 0.040000 0
0.140000 0.040000 0
0.160000 0.040000 0
0.180000 0.040000 0
0.200000 0.040000 0
0.220000 0.040000 0
0.240000 0.040000 0
0.260000 0.040000 0
0.280000 0.040000 0
0.300000 0.040000 0
0.320000 0.040000 0
0.340000 0.040000 0
0.360000 0.040000 0
0.380000 0.040000 0
0.400000 0.040000 0
0.420000 0.040000 0
0.440000 0.040000 0
0.460000 0.040000 0
0.480000 0.040000 0
0.500000 0.040000 0
0.520000 0.040000 0
0.540000 0.040000 0
0.560000 0.040000 0
0.580000 0.040000 0
0.600000 0.040000 0
0.620000 0.040000 0
0.640000 0.040000 0
0.660000 0.040000 0
0.680000 0.040000 0
0.700000 0.040000 0
0.720000 0.040000 0
0.740000 0.040000 0
0.760000 0.040000 0
0.780000 0.040000 0
0.800000 0.040000 0
0.820000 0.040000 0
0.840000 0.040000 0
0.860000 0.040000 0
0.880000 0.040000 0
0.900000 0.040000 0
0.920000 0.040000 0
0.940000 0.040000 0
0.960000 0.040000 0
0.980000 0.040000 0
1.000000 0.040000 0
1.020000 0.040000 0
1.040000 0.040000 0
1.060000 0.040000 0
1.080000 0.040000 0
1.100000 0.040000 0
1.120000 0.040000 0
1.140000 0.040000 0
1.160000 0.040000 0
1.180000 0.040000 0
1.200000 0.040000 0
1.220000 0.040000 0
1.240000 0.040000 0
1.260000 0.040000 0
1.280000 0.040000 0
1.300000 0.040000 0
1.320000 0.040000 0
1.340000 0.040000 0
1.360000 0.040000 0
1.380000 0.040000 0
1.400000 0.040000 0
1.420000 0.040000 0
1.440000 0.040000 0
1.460000 0.040000 0
1.480000 0.040000 0
1.500000 0.040000 0
1.520000 0.040000 0
1.540000 0.040000 0
1.560000 0.040000 0
1.580000 0.040000 0
1.600000 0.040000 0
1.620000 0.040000 0
1.640000 0.040000 0
1.660000 0.040000 0
1.680000 0.040000 0
1.700000 0.040000 0
1.720000 0.040000 0
1.740000 0.040000 0
1.760000 0.040000 0
1.780000 0.040000 0
1.800000 0.040000 0
1.820000 0.040000 0
1.840000 0.040000 0
1.860000 0.040000 0
1.880000 0.040000 0
1.900000 0.040000 0
1.920000 0.040000 0
1.940000 0.040000 0
1.960000 0.040000 0
0.000000 0.060000 0
0.020000 0.060000 0
0.040000 0.060000 0
0.060000 0.060000 0
0.080000 0.060000 0
0.100000 0.060000 0
0.120000 0.060000 0
0.140000 0.060000 0
0.160000 0.060000 0
0.180000 0.060000 0
0.200000 0.060000 0
0.220000 0.060000 0
0.240000 0.060000 0
0.260000 0.060000 0
0.280000 0.060000 0
0.300000 0.060000 0
0.320000 0.060000 0
0.340000 0.060000 0
0.360000 0.060000 0
0.380000 0.060000 0
0.400000 0.060000 0
0.420000 0.060000 0
0.440000 0.060000 0
0.460000 0.060000 0
0.480000 0.060000 0
0.500000 0.060000 0
0.520000 0.060000 0
0.540000 0.060000 0
0.560000 0.060000 0
0.580000 0.060000 0
0.600000 0.060000 0
0.620000 0.060000 0
0.640000 0.060000 0
0.660000 0.060000 0
0.680000 0.060000 0
0.700000 0.060000 0
0.720000 0.060000 0
0.740000 0.060000 0
0.760000 0.060000 0
0.780000 0.060000 0
0.800000 0.060000 0
0.820000 0.060000 0
0.840000 0.060000 0
0.860000 0.060000 0
0.880000 0.060000 0
0.900000 0.060000 0
0.920000 0.060000 0
0.940000 0.060000 0
0.960000 0.060000 0
0.980000 0.060000 0
1.000000 0.060000 0
1.020000 0.060000 0
1.040000 0.060000 0
1.060000 0.060000 0
1.080000 0.060000 0
1.100000 0.060000 0
1.120000 0.060000 0
1.140000 0.060000 0
1.160000 0.060000 0
1.180000 0.060000 0
1.200000 0.060000 0
1.220000 0.060000 0
1.240000 0.060000 0
1.260000 0.060000 0
1.280000 0.060000 0
1.300000 0.060000 0
1.320000 0.060000 0
1.340000 0.060000 0
1.360000 0.060000 0
1.380000 0.060000 0
1.400000 0.060000 0
1.420000 0.060000 0
1.440000 0.060000 0
1.460000 0.060000 0
1.480000 0.060000 0
1.500000 0.060000 0
1.520000 0.060000 0
1.540000 0.060000 0
1.560000 0.060000 0
1.580000 0.060000 0
1.600000 0.060000 0
1.620000 0.060000 0
1.640000 0.060000 0
1.660000 0.060000 0
1.680000 0.060000 0
1.700000 0.060000 0
1.720000 0.060000 0
1.740000 0.060000 0
1.760000 0.060000 0
1.780000 0.060000 0
1.800000 0.060000 0
1.820000 0.060000 0
1.840000 0.060000 0
1.860000 0.060000 0
1.880000 0.060000 0
1.900000 0.060000 0
1.920000 0.060000 0
1.940000 0.060000 0
1.960000 0.060000 0
0.000000 0.080000 0
0.020000 0.080000 0
0.040000 0.080000 0
0.060000 0.080000 0
0.080000 0.080000 0
0.100000 0.080000 0
0.120000 0.080000 0
0.140000 0.080000 0
0.160000 0.080000 0
0.180000 0.080000 0
0.200000 0.080000 0
0.220000 0.080000 0
0.240000 0.080000 0
0.260000 0.080000 0
0.280000 0.080000 0
0.300000 0.080000 0
0.320000 0.080000 0
0.340000 0.080000 0
0.360000 0.080000 0
0.380000 0.080000 0
0.400000 0.080000 0
0.420000 0.080000 0
0.440000 0.080000 0
0.460000 0.080000 0
0.480000 0.080000 0
0.500000 0.080000 0
0.520000 0.080000 0
0.540000 0.080000 0
0.560000 0.080000 0
0.580000 0.080000 0
0.600000 0.080000 0
0.620000 0.080000 0
0.640000 0.080000 0
0.660000 0.080000 0
0.680000 0.080000 0
0.700000 0.080000 0
0.720000 0.080000 0
0.740000 0.080000 0
0.760000 0.080000 0
0.780000 0.080000 0
0.800000 0.080000 0
0.820000 0.080000 0
0.840000 0.080000 0
0.860000 0.080000 0
0.880000 0.080000 0
0.900000 0.080000 0
0.920000 0.080000 0
0.940000 0.080000 0
0.960000 0.080000 0
0.980000 0.080000 0
1.000000 0.080000 0
1.020000 0.080000 0
1.040000 0.080000 0
1.060000 0.080000 0
1.080000 0.080000 0
1.100000 0.080000 0
1.120000 0.080000 0
1.140000 0.080000 0
1.160000 0.080000 0
1.180000 0.080000 0
1.200000 0.080000 0
1.220000 0.080000 0
1.240000 0.080000 0
1.260000 0.080000 0
1.280000 0.080000 0
1.300000 0.080000 0
1.320000 0.080000 0
1.340000 0.080000 0
1.360000 0.080000 0
1.380000 0.080000 0
1.400000 0.080000 0
1.420000 0.080000 0
1.440000 0.080000 0
1.460000 0.080000 0
1.480000 0.080000 0
1.500000 0.080000 0
1.520000 0.080000 0
1.540000 0.080000 0
1.560000 0.080000 0
1.580000 0.080000 0
1.600000 0.080000 0
1.620000 0.080000 0
1.640000 0.080000 0
1.660000 0.080000 0
1.680000 0.080000 0
1.700000 0.080000 0
1.720000 0.080000 0
1.740000 0.080000 0
1.760000 0.080000 0
1.780000 0.080000 0
1.800000 0.080000 0
1.820000 0.080000 0
1.840000 0.080000 0
1.860000 0.080000 0
1.880000 0.080000 0
[...]
POINT_DATA 4851 

VECTORS velocity float
0.000000 0.000000 0
0.000170 0.000000 0
0.000403 0.000000 0
0.000570 0.000000 0
0.000642 0.000000 0
0.000640 0.000000 0
0.000594 0.000000 0
0.000531 0.000000 0
0.000470 0.000000 0
0.000422 0.000000 0
0.000390 0.000000 0
0.000373 0.000000 0
0.000368 0.000000 0
0.000369 0.000000 0
0.000374 0.000000 0
0.000379 0.000000 0
0.000381 0.000000 0
0.000382 0.000000 0
0.000380 0.000000 0
0.000376 0.000000 0
0.000371 0.000000 0
0.000367 0.000000 0
0.000362 0.000000 0
0.000359 0.000000 0
0.000356 0.000000 0
0.000354 0.000000 0
0.000352 0.000000 0
0.000351 0.000000 0
0.000351 0.000000 0
0.000349 0.000000 0
0.000346 0.000000 0
0.000337 0.000000 0
0.000315 0.000000 0
0.000268 0.000000 0
0.000184 0.000000 0
0.000074 0.000000 0
0.000000 0.000000 0
0.000000 0.000000 0
0.000000 0.000000 0
0.000000 0.000000 0
0.000000 0.000000 0
0.000000 0.000000 0
0.000000 0.000000 0
0.000000 0.000000 0
0.000000 0.000000 0
-0.000000 0.000000 0
-0.000000 0.000000 0
-0.000000 0.000000 0
-0.000000 0.000000 0
-0.000000 0.000000 0
-0.000000 0.000000 0
-0.000000 0.000000 0
-0.000000 0.000000 0
0.000000 0.000000 0
0.000000 0.000000 0
0.000001 0.000000 0
0.000001 0.000000 0
0.000002 0.000000 0
0.000003 0.000000 0
0.000004 0.000000 0
0.000006 0.000000 0
0.000008 0.000000 0
0.000010 0.000000 0
0.000012 0.000000 0
0.000014 0.000000 0
0.000017 0.000000 0
0.000020 0.000000 0
0.000023 0.000000 0
0.000026 0.000000 0
0.000029 0.000000 0
0.000032 0.000000 0
0.000036 0.000000 0
0.000039 0.000000 0
0.000043 0.000000 0
0.000046 0.000000 0
0.000050 0.000000 0
0.000055 0.000000 0
0.000060 0.000000 0
0.000065 0.000000 0
0.000071 0.000000 0
0.000078 0.000000 0
0.000086 0.000000 0
0.000095 0.000000 0
0.000105 0.000000 0
0.000116 0.000000 0
0.000130 0.000000 0
0.000145 0.000000 0
0.000162 0.000000 0
0.000183 0.000000 0
0.000207 0.000000 0
0.000236 0.000000 0
0.000272 0.000000 0
0.000318 0.000000 0
0.000378 0.000000 0
0.000455 0.000000 0
0.000545 0.000000 0
0.000596 0.000000 0
0.000456 0.000000 0
0.000000 0.000000 0
0.000000 -0.000170 0
0.000459 -0.000404 0
0.001114 -0.000401 0
0.001623 -0.000240 0
0.001890 -0.000071 0
0.001942 0.000048 0
0.001854 0.000108 0
0.001699 0.000123 0
0.001532 0.000108 0
0.001390 0.000080 0
0.001289 0.000048 0
0.001230 0.000022 0
0.001206 0.000003 0
0.001205 -0.000007 0
0.001215 -0.000010 0
0.001227 -0.000008 0
0.001234 -0.000004 0
0.001235 0.000001 0
0.001229 0.000005 0
0.001217 0.000007 0
0.001202 0.000009 0
0.001185 0.000008 0
0.001169 0.000007 0
0.001154 0.000006 0
0.001140 0.000004 0
0.001127 0.000003 0
0.001115 0.000002 0
0.001103 0.000001 0
0.001089 0.000001 0
0.001069 0.000004 0
0.001038 0.000012 0
0.000985 0.000030 0
0.000890 0.000068 0
0.000728 0.000130 0
0.000483 0.000193 0
0.000190 0.000183 0
0.000000 0.000073 0
0.000000 0.000000 0
0.000000 0.000000 0
0.000000 0.000000 0
0.000000 0.000000 0
0.000000 0.000000 0
0.000000 0.000000 0
0.000000 0.000000 0
0.000000 0.000000 0
-0.000000 0.000000 0
-0.000000 0.000000 0
-0.000000 0.000000 0
-0.000001 0.000000 0
-0.000001 0.000000 0
-0.000001 0.000000 0
-0.000000 0.000000 0
-0.000000 0.000000 0
0.000001 -0.000000 0
0.000002 -0.000000 0
0.000003 -0.000001 0
0.000005 -0.000001 0
0.000008 -0.000001 0
0.000012 -0.000002 0
0.000016 -0.000002 0
0.000021 -0.000003 0
0.000028 -0.000003 0
0.000035 -0.000004 0
0.000043 -0.000004 0
0.000052 -0.000005 0
0.000062 -0.000005 0
0.000072 -0.000006 0
0.000083 -0.000006 0
0.000094 -0.000006 0
0.000106 -0.000006 0
0.000118 -0.000006 0
0.000130 -0.000006 0
0.000143 -0.000007 0
0.000156 -0.000007 0
0.000171 -0.000008 0
0.000186 -0.000008 0
0.000202 -0.000009 0
0.000220 -0.000010 0
0.000240 -0.000011 0
0.000263 -0.000013 0
0.000288 -0.000014 0
0.000317 -0.000016 0
0.000349 -0.000019 0
0.000385 -0.000021 0
0.000427 -0.000025 0
0.000474 -0.000028 0
0.000527 -0.000032 0
0.000587 -0.000038 0
0.000655 -0.000044 0
0.000734 -0.000053 0
0.000824 -0.000065 0
0.000930 -0.000081 0
0.001053 -0.000106 0
0.001195 -0.000138 0
0.001344 -0.000167 0
0.001458 -0.000140 0
0.001402 0.000089 0
0.000914 0.000597 0
0.000000 0.000456 0
0.000000 -0.000460 0
0.000602 -0.001115 0
0.001505 -0.001165 0
0.002264 -0.000777 0
0.002722 -0.000320 0
0.002884 0.000035 0
0.002829 0.000243 0
0.002652 0.000321 0
0.002436 0.000308 0
0.002236 0.000242 0
0.002084 0.000159 0
0.001988 0.000082 0
0.001942 0.000024 0
0.001930 -0.000010 0
0.001937 -0.000023 0
0.001950 -0.000020 0
0.001957 -0.000009 0
0.001955 0.000005 0
0.001943 0.000017 0
0.001923 0.000026 0
0.001896 0.000031 0
0.001866 0.000032 0
0.001834 0.000031 0
0.001803 0.000028 0
0.001772 0.000025 0
0.001741 0.000023 0
0.001708 0.000023 0
0.001672 0.000026 0
0.001629 0.000033 0
0.001572 0.000050 0
0.001492 0.000083 0
0.001373 0.000147 0
0.001195 0.000256 0
0.000934 0.000406 0
0.000591 0.000537 0
0.000224 0.000482 0
0.000000 0.000190 0
0.000000 0.000000 0
0.000000 0.000000 0
0.000000 0.000000 0
0.000000 0.000000 0
0.000000 0.000000 0
0.000000 0.000000 0
0.000000 0.000001 0
-0.000000 0.000001 0
-0.000000 0.000001 0
-0.000001 0.000001 0
-0.000001 0.000001 0
-0.000001 0.000001 0
-0.000001 0.000000 0
-0.000001 0.000000 0
-0.000001 -0.000000 0
0.000000 -0.000001 0
0.000001 -0.000001 0
0.000003 -0.000002 0
0.000006 -0.000003 0
0.000010 -0.000005 0
0.000015 -0.000006 0
0.000022 -0.000008 0
0.000030 -0.000009 0
0.000040 -0.000011 0
0.000051 -0.000013 0
0.000064 -0.000015 0
0.000079 -0.000017 0
0.000095 -0.000018 0
0.000113 -0.000020 0
0.000132 -0.000021 0
0.000151 -0.000022 0
0.000172 -0.000022 0
0.000193 -0.000023 0
0.000215 -0.000024 0
0.000238 -0.000025 0
0.000262 -0.000026 0
0.000286 -0.000027 0
0.000313 -0.000029 0
0.000341 -0.000031 0
0.000372 -0.000034 0
0.000405 -0.000038 0
0.000442 -0.000042 0
0.000483 -0.000047 0
0.000529 -0.000053 0
0.000580 -0.000060 0
0.000638 -0.000068 0
0.000703 -0.000077 0
0.000775 -0.000088 0
0.000856 -0.000099 0
0.000946 -0.000113 0
0.001047 -0.000128 0
0.001158 -0.000146 0
0.001280 -0.000169 0
0.001414 -0.000196 0
0.001558 -0.000229 0
0.001707 -0.000265 0
0.001843 -0.000291 0
0.001929 -0.000263 0
0.001882 -0.000057 0
0.001552 0.000544 0
0.000810 0.001402 0
0.000000 0.000914 0
0.000000 -0.000773 0
0.000612 -0.001910 0
0.001574 -0.002064 0
0.002422 -0.001457 0
0.002977 -0.000691 0
0.003221 -0.000059 0
0.003221 0.000339 0
0.003071 0.000516 0
0.002861 0.000525 0
0.002654 0.000431 0
0.002488 0.000296 0
0.002378 0.000163 0
0.002319 0.000060 0
0.002297 -0.000003 0
0.002296 -0.000030 0
0.002300 -0.000028 0
0.002300 -0.000010 0
0.002291 0.000014 0
0.002270 0.000037 0
0.002238 0.000055 0
0.002200 0.000065 0
0.002156 0.000070 0
0.002110 0.000070 0
0.002063 0.000068 0
0.002013 0.000066 0
0.001962 0.000066 0
0.001906 0.000070 0
0.001843 0.000080 0
0.001768 0.000101 0
0.001674 0.000140 0
0.001552 0.000210 0
0.001388 0.000327 0
0.001164 0.000507 0
0.000872 0.000733 0
0.000524 0.000903 0
0.000187 0.000774 0
0.000000 0.000297 0
0.000000 0.000000 0
0.000000 0.000000 0
0.000000 0.000000 0
0.000000 0.000000 0
0.000000 0.000000 0
0.000000 0.000001 0
0.000000 0.000001 0
-0.000000 0.000001 0
-0.000000 0.000001 0
-0.000001 0.000001 0
-0.000001 0.000001 0
-0.000001 0.000001 0
-0.000001 0.000000 0
-0.000001 -0.000000 0
-0.000001 -0.000001 0
0.000000 -0.000002 0
0.000002 -0.000003 0
0.000005 -0.000005 0
0.000009 -0.000007 0
0.000014 -0.000010 0
0.000021 -0.000013 0
0.000030 -0.000016 0
0.000041 -0.000020 0
0.000055 -0.000024 0
0.000070 -0.000028 0
0.000088 -0.000032 0
0.000109 -0.000035 0
0.000131 -0.000039 0
0.000155 -0.000041 0
0.000181 -0.000044 0
0.000208 -0.000046 0
0.000236 -0.000048 0
0.000265 -0.000049 0
0.000296 -0.000051 0
0.000327 -0.000053 0
0.000360 -0.000055 0
0.000394 -0.000058 0
0.000430 -0.000062 0
0.000469 -0.000067 0
0.000511 -0.000073 0
0.000556 -0.000080 0
0.000606 -0.000089 0
0.000662 -0.000099 0
0.000723 -0.000111 0
0.000791 -0.000125 0
0.000867 -0.000141 0
0.000951 -0.000158 0
0.001045 -0.000178 0
0.001148 -0.000199 0
0.001260 -0.000223 0
0.001383 -0.000249 0
0.001514 -0.000278 0
0.001653 -0.000309 0
0.001795 -0.000343 0
0.001933 -0.000374 0
0.002051 -0.000390 0
0.002123 -0.000360 0
0.002095 -0.000205 0
0.001884 0.000237 0
0.001390 0.001161 0
0.000617 0.002149 0
0.000000 0.001266 0
0.000000 -0.001073 0
0.000575 -0.002690 0
0.001505 -0.002976 0
0.002349 -0.002180 0
0.002926 -0.001118 0
0.003208 -0.000210 0
0.003250 0.000391 0
0.003138 0.000681 0
0.002956 0.000725 0
0.002767 0.000614 0
0.002611 0.000434 0
0.002503 0.000251 0
0.002441 0.000105 0
0.002411 0.000013 0
0.002398 -0.000026 0
0.002391 -0.000025 0
0.002378 0.000000 0
0.002354 0.000035 0
0.002320 0.000069 0
0.002275 0.000096 0
0.002223 0.000113 0
0.002166 0.000121 0
0.002105 0.000124 0
0.002042 0.000124 0
0.001975 0.000125 0
0.001904 0.000130 0
0.001827 0.000142 0
0.001740 0.000163 0
0.001639 0.000201 0
0.001520 0.000265 0
0.001373 0.000370 0
0.001190 0.000535 0
0.000961 0.000771 0
0.000687 0.001046 0
0.000389 0.001222 0
0.000128 0.001006 0
0.000000 0.000376 0
0.000000 0.000000 0
0.000000 0.000000 0
0.000000 0.000000 0
0.000000 0.000000 0
0.000000 0.000000 0
0.000000 0.000001 0
0.000000 0.000001 0
-0.000000 0.000001 0
-0.000001 0.000001 0
-0.000001 0.000001 0
-0.000001 0.000001 0
-0.000001 0.000001 0
-0.000001 0.000000 0
-0.000001 -0.000000 0
-0.000001 -0.000002 0
0.000001 -0.000003 0
0.000003 -0.000006 0
0.000006 -0.000009 0
0.000011 -0.000012 0
0.000017 -0.000017 0
0.000026 -0.000022 0
0.000037 -0.000028 0
0.000050 -0.000034 0
0.000067 -0.000040 0
0.000086 -0.000047 0
0.000108 -0.000053 0
0.000133 -0.000059 0
0.000161 -0.000065 0
0.000191 -0.000069 0
0.000222 -0.000073 0
0.000255 -0.000077 0
0.000290 -0.000080 0
0.000326 -0.000083 0
0.000363 -0.000085 0
0.000401 -0.000089 0
0.000440 -0.000093 0
0.000482 -0.000098 0
0.000525 -0.000104 0
0.000572 -0.000112 0
0.000622 -0.000121 0
0.000676 -0.000133 0
0.000736 -0.000147 0
0.000801 -0.000164 0
0.000872 -0.000183 0
0.000952 -0.000204 0
0.001039 -0.000228 0
0.001135 -0.000255 0
0.001240 -0.000284 0
0.001355 -0.000315 0
0.001478 -0.000348 0
0.001608 -0.000382 0
0.001744 -0.000416 0
0.001880 -0.000449 0
0.002010 -0.000476 0
0.002120 -0.000485 0
0.002191 -0.000454 0
0.002189 -0.000334 0
0.002064 -0.000024 0
0.001749 0.000648 0
0.001194 0.001811 0
0.000474 0.002792 0
0.000000 0.001532 0
0.000000 -0.001348 0
0.000522 -0.003415 0
0.001379 -0.003838 0
0.002166 -0.002879 0
0.002715 -0.001551 0
0.002999 -0.000384 0
0.003064 0.000409 0
0.002984 0.000810 0
0.002835 0.000895 0
0.002677 0.000775 0
0.002543 0.000559 0
0.002448 0.000334 0
0.002388 0.000153 0
0.002353 0.000038 0
0.002330 -0.000010 0
0.002307 -0.000008 0
0.002277 0.000026 0
0.002237 0.000072 0
0.002186 0.000116 0
0.002126 0.000151 0
0.002060 0.000174 0
0.001989 0.000187 0
0.001914 0.000193 0
0.001837 0.000197 0
0.001755 0.000203 0
0.001668 0.000214 0
0.001573 0.000234 0
0.001469 0.000267 0
0.001353 0.000321 0
0.001222 0.000406 0
0.001071 0.000539 0
0.000894 0.000738 0
0.000690 0.001009 0
0.000464 0.001305 0
0.000242 0.001462 0
0.000069 0.001163 0
0.000000 0.000425 0
0.000000 0.000000 0
0.000000 0.000000 0
0.000000 0.000000 0
0.000000 0.000000 0
0.000000 0.000001 0
0.000000 0.000001 0
-0.000000 0.000001 0
-0.000000 0.000002 0
-0.000001 0.000002 0
-0.000001 0.000002 0
-0.000001 0.000002 0
-0.000002 0.000001 0
-0.000002 0.000000 0
-0.000001 -0.000001 0
-0.000001 -0.000003 0
0.000001 -0.000005 0
0.000003 -0.000008 0
0.000007 -0.000013 0
0.000012 -0.000018 0
0.000019 -0.000025 0
0.000029 -0.000032 0
0.000042 -0.000041 0
0.000057 -0.000050 0
0.000076 -0.000060 0
0.000099 -0.000069 0
0.000125 -0.000079 0
0.000154 -0.000088 0
0.000186 -0.000096 0
0.000220 -0.000103 0
0.000257 -0.000108 0
0.000295 -0.000113 0
0.000335 -0.000118 0
0.000376 -0.000122 0
0.000418 -0.000126 0
0.000461 -0.000130 0
0.000506 -0.000136 0
0.000552 -0.000143 0
0.000601 -0.000152 0
0.000653 -0.000163 0
0.000708 -0.000177 0
0.000768 -0.000194 0
0.000832 -0.000213 0
0.000903 -0.000236 0
0.000980 -0.000262 0
0.001065 -0.000292 0
0.001158 -0.000324 0
0.001259 -0.000359 0
0.001369 -0.000397 0
0.001487 -0.000437 0
0.001612 -0.000476 0
0.001741 -0.000515 0
0.001871 -0.000550 0
0.001995 -0.000575 0
0.002104 -0.000582 0
0.002181 -0.000555 0
0.002206 -0.000459 0
0.002144 -0.000233 0
0.001953 0.000235 0
0.001586 0.001107 0
0.001026 0.002436 0
0.000377 0.003343 0
0.000000 0.001740 0
0.000000 -0.001595 0
0.000466 -0.004069 0
0.001231 -0.004620 0
0.001933 -0.003516 0
0.002425 -0.001953 0
0.002685 -0.000558 0
0.002754 0.000407 0
0.002699 0.000909 0
0.002584 0.001031 0
0.002459 0.000906 0
0.002353 0.000663 0
0.002275 0.000406 0
0.002222 0.000200 0
0.002185 0.000071 0
0.002151 0.000019 0
0.002113 0.000027 0
0.002066 0.000070 0
0.002008 0.000126 0
0.001940 0.000180 0
0.001865 0.000222 0
0.001785 0.000250 0
0.001702 0.000266 0
0.001616 0.000276 0
0.001526 0.000284 0
0.001433 0.000294 0
0.001334 0.000312 0
0.001229 0.000340 0
0.001117 0.000383 0
0.000997 0.000448 0
0.000868 0.000548 0
0.000728 0.000697 0
0.000576 0.000915 0
0.000414 0.001200 0
0.000251 0.001493 0
0.000110 0.001616 0
0.000022 0.001248 0
0.000000 0.000446 0
0.000000 0.000000 0
0.000000 0.000000 0
0.000000 0.000000 0
0.000000 0.000000 0
0.000000 0.000001 0
0.000000 0.000001 0
-0.000000 0.000002 0
-0.000000 0.000002 0
-0.000001 0.000002 0
-0.000001 0.000002 0
-0.000001 0.000002 0
-0.000002 0.000001 0
-0.000002 0.000000 0
-0.000001 -0.000001 0
-0.000000 -0.000004 0
0.000001 -0.000007 0
0.000003 -0.000012 0
0.000007 -0.000017 0
0.000013 -0.000025 0
0.000020 -0.000033 0
0.000031 -0.000044 0
0.000044 -0.000055 0
0.000062 -0.000068 0
0.000083 -0.000082 0
0.000108 -0.000095 0
0.000137 -0.000108 0
0.000170 -0.000120 0
0.000206 -0.000131 0
0.000245 -0.000140 0
0.000286 -0.000148 0
0.000329 -0.000155 0
0.000372 -0.000160 0
0.000417 -0.000165 0
0.000463 -0.000170 0
0.000510 -0.000176 0
0.000558 -0.000184 0
0.000607 -0.000193 0
0.000659 -0.000204 0
0.000713 -0.000218 0
0.000771 -0.000236 0
0.000833 -0.000257 0
0.000900 -0.000283 0
0.000972 -0.000312 0
0.001051 -0.000345 0
0.001137 -0.000382 0
0.001231 -0.000422 0
0.001332 -0.000466 0
0.001441 -0.000511 0
0.001556 -0.000557 0
0.001677 -0.000602 0
0.001799 -0.000641 0
0.001918 -0.000670 0
0.002027 -0.000682 0
0.002113 -0.000661 0
0.002161 -0.000587 0
0.002148 -0.000417 0
0.002045 -0.000081 0
0.001817 0.000534 0
0.001432 0.001575 0
0.000893 0.003020 0
0.000310 0.003819 0
0.000000 0.001909 0
0.000000 -0.001814 0
0.000410 -0.004647 0
0.001077 -0.005305 0
0.001682 -0.004073 0
0.002103 -0.002304 0
0.002325 -0.000714 0
0.002387 0.000396 0
0.002349 0.000981 0
0.002264 0.001135 0
0.002172 0.001006 0
0.002094 0.000743 0
0.002034 0.000464 0
0.001989 0.000243 0
0.001949 0.000110 0
0.001906 0.000061 0
0.001854 0.000077 0
0.001790 0.000131 0
0.001716 0.000197 0
0.001634 0.000258 0
0.001547 0.000306 0
0.001456 0.000337 0
0.001364 0.000357 0
0.001269 0.000369 0
0.001172 0.000380 0
0.001072 0.000395 0
0.000968 0.000417 0
0.000860 0.000451 0
0.000748 0.000499 0
0.000634 0.000570 0
0.000517 0.000675 0
0.000400 0.000831 0
0.000283 0.001052 0
0.000170 0.001334 0
0.000071 0.001608 0
0.000006 0.001691 0
-0.000013 0.001273 0
0.000000 0.000446 0
0.000000 0.000000 0
0.000000 0.000000 0
0.000000 0.000000 0
0.000000 0.000000 0
0.000000 0.000001 0
0.000000 0.000001 0
-0.000000 0.000002 0
-0.000000 0.000002 0
-0.000001 0.000003 0
-0.000001 0.000003 0
-0.000001 0.000002 0
-0.000001 0.000002 0
-0.000001 0.000000 0
-0.000001 -0.000002 0
-0.000000 -0.000005 0
0.000001 -0.000009 0
0.000003 -0.000015 0
0.000007 -0.000022 0
0.000012 -0.000031 0
0.000020 -0.000043 0
0.000031 -0.000056 0
0.000045 -0.000071 0
0.000063 -0.000088 0
0.000086 -0.000106 0
0.000114 -0.000124 0
0.000146 -0.000141 0
0.000182 -0.000157 0
0.000222 -0.000170 0
0.000265 -0.000182 0
0.000309 -0.000192 0
0.000356 -0.000200 0
0.000403 -0.000206 0
0.000451 -0.000212 0
0.000499 -0.000218 0
0.000548 -0.000225 0
0.000597 -0.000233 0
0.000648 -0.000244 0
0.000700 -0.000258 0
0.000755 -0.000275 0
0.000813 -0.000296 0
0.000874 -0.000322 0
0.000940 -0.000352 0
0.001011 -0.000387 0
0.001088 -0.000427 0
0.001172 -0.000471 0
0.001262 -0.000519 0
0.001359 -0.000569 0
0.001463 -0.000621 0
0.001573 -0.000672 0
0.001686 -0.000719 0
0.001798 -0.000756 0
0.001905 -0.000777 0
0.001998 -0.000769 0
0.002065 -0.000716 0
0.002090 -0.000590 0
0.002052 -0.000343 0
0.001924 0.000099 0
0.001679 0.000849 0
0.001295 0.002032 0
0.000786 0.003558 0
0.000263 0.004235 0
0.000000 0.002050 0
0.000000 -0.002006 0
0.000357 -0.005147 0
0.000925 -0.005892 0
0.001433 -0.004542 0
0.001779 -0.002595 0
0.001958 -0.000844 0
0.002008 0.000383 0
0.001981 0.001032 0
0.001921 0.001208 0
0.001857 0.001076 0
0.001804 0.000800 0
0.001761 0.000510 0
0.001722 0.000284 0
0.001680 0.000154 0
0.001628 0.000115 0
0.001563 0.000143 0
0.001485 0.000207 0
0.001399 0.000282 0
0.001306 0.000349 0
0.001211 0.000399 0
0.001114 0.000433 0
0.001017 0.000453 0
0.000919 0.000467 0
0.000820 0.000481 0
0.000718 0.000498 0
0.000614 0.000524 0
0.000510 0.000559 0
0.000406 0.000609 0
0.000304 0.000678 0
0.000208 0.000781 0
0.000119 0.000932 0
0.000040 0.001146 0
-0.000026 0.001412 0
-0.000066 0.001656 0
-0.000068 0.001700 0
-0.000035 0.001254 0
0.000000 0.000433 0
0.000000 0.000000 0
0.000000 0.000000 0
0.000000 0.000000 0
0.000000 0.000000 0
0.000000 0.000001 0
0.000000 0.000002 0
-0.000000 0.000002 0
-0.000000 0.000003 0
-0.000000 0.000003 0
-0.000001 0.000003 0
-0.000001 0.000003 0
-0.000001 0.000002 0
-0.000001 0.000000 0
-0.000001 -0.000002 0
-0.000000 -0.000006 0
0.000001 -0.000011 0
0.000003 -0.000017 0
0.000006 -0.000026 0
0.000011 -0.000038 0
0.000018 -0.000052 0
0.000029 -0.000069 0
0.000043 -0.000088 0
0.000062 -0.000109 0
0.000086 -0.000132 0
0.000116 -0.000155 0
0.000150 -0.000176 0
0.000190 -0.000196 0
0.000233 -0.000213 0
0.000279 -0.000228 0
0.000327 -0.000239 0
0.000377 -0.000248 0
0.000426 -0.000255 0
0.000476 -0.000261 0
0.000525 -0.000267 0
0.000575 -0.000275 0
0.000624 -0.000284 0
0.000675 -0.000296 0
0.000726 -0.000311 0
0.000779 -0.000331 0
0.000835 -0.000355 0
0.000893 -0.000385 0
0.000956 -0.000420 0
0.001023 -0.000460 0
0.001096 -0.000505 0
0.001174 -0.000556 0
0.001258 -0.000610 0
0.001349 -0.000667 0
0.001445 -0.000724 0
0.001546 -0.000779 0
0.001650 -0.000827 0
0.001752 -0.000861 0
0.001848 -0.000870 0
0.001928 -0.000842 0
0.001980 -0.000753 0
0.001990 -0.000573 0
0.001936 -0.000251 0
0.001796 0.000292 0
0.001548 0.001163 0
0.001176 0.002468 0
0.000700 0.004053 0
0.000227 0.004605 0
0.000000 0.002172 0
0.000000 -0.002171 0
0.000306 -0.005573 0
0.000782 -0.006382 0
0.001198 -0.004927 0
0.001474 -0.002829 0
0.001612 -0.000944 0
0.001649 0.000372 0
0.001629 0.001068 0
0.001587 0.001258 0
0.001546 0.001123 0
0.001511 0.000839 0
0.001480 0.000546 0
0.001445 0.000324 0
0.001399 0.000204 0
0.001339 0.000178 0
0.001264 0.000219 0
0.001178 0.000295 0
0.001083 0.000376 0
0.000985 0.000446 0
0.000887 0.000498 0
0.000789 0.000531 0
0.000693 0.000551 0
0.000596 0.000566 0
0.000499 0.000581 0
0.000401 0.000600 0
0.000304 0.000625 0
0.000208 0.000659 0
0.000117 0.000704 0
0.000034 0.000767 0
-0.000039 0.000860 0
-0.000099 0.000999 0
-0.000144 0.001197 0
-0.000167 0.001439 0
-0.000159 0.001651 0
-0.000116 0.001661 0
-0.000048 0.001204 0
0.000000 0.000411 0
0.000000 0.000000 0
0.000000 0.000000 0
0.000000 0.000000 0
0.000000 0.000000 0
0.000000 0.000001 0
0.000000 0.000002 0
0.000000 0.000003 0
-0.000000 0.000003 0
-0.000000 0.000003 0
-0.000000 0.000003 0
-0.000001 0.000003 0
-0.000001 0.000002 0
-0.000001 0.000000 0
-0.000001 -0.000002 0
-0.000000 -0.000006 0
0.000000 -0.000012 0
0.000002 -0.000020 0
0.000004 -0.000030 0
0.000008 -0.000043 0
0.000015 -0.000060 0
0.000024 -0.000081 0
0.000038 -0.000104 0
0.000057 -0.000131 0
0.000082 -0.000159 0
0.000113 -0.000188 0
0.000150 -0.000215 0
0.000192 -0.000239 0
0.000239 -0.000260 0
0.000288 -0.000276 0
0.000339 -0.000289 0
0.000391 -0.000298 0
0.000442 -0.000305 0
0.000493 -0.000311 0
0.000543 -0.000317 0
0.000592 -0.000324 0
0.000640 -0.000333 0
0.000688 -0.000345 0
0.000737 -0.000362 0
0.000787 -0.000384 0
0.000839 -0.000411 0
0.000893 -0.000443 0
0.000951 -0.000482 0