# vtk DataFile Version 2.0
generated by CFD-lab course output (written by Tobias Neckel) 
ASCII

DATASET STRUCTURED_GRID
DIMENSIONS  99 49 1 
POINTS 4851 float

0.000000 0.000000 0
0.020000 0.000000 0
0.040000 0.000000 0
0.060000 0.000000 0
0.080000 0.000000 0
0.100000 0.000000 0
0.120000 0.000000 0
0.140000 0.000000 0
0.160000 0.000000 0
0.180000 0.000000 0
0.200000 0.000000 0
0.220000 0.000000 0
0.240000 0.000000 0
0.260000 0.000000 0
0.280000 0.000000 0
0.300000 0.000000 0
0.320000 0.000000 0
0.340000 0.000000 0
0.360000 0.000000 0
0.380000 0.000000 0
0.400000 0.000000 0
0.420000 0.000000 0
0.440000 0.000000 0
0.460000 0.000000 0
0.480000 0.000000 0
0.500000 0.000000 0
0.520000 0.000000 0
0.540000 0.000000 0
0.560000 0.000000 0
0.580000 0.000000 0
0.600000 0.000000 0
0.620000 0.000000 0
0.640000 0.000000 0
0.660000 0.000000 0
0.680000 0.000000 0
0.700000 0.000000 0
0.720000 0.000000 0
0.740000 0.000000 0
0.760000 0.000000 0
0.780000 0.000000 0
0.800000 0.000000 0
0.820000 0.000000 0
0.840000 0.000000 0
0.860000 0.000000 0
0.880000 0.000000 0
0.900000 0.000000 0
0.920000 0.000000 0
0.940000 0.000000 0
0.960000 0.000000 0
0.980000 0.000000 0
1.000000 0.000000 0
1.020000 0.000000 0
1.040000 0.000000 0
1.060000 0.000000 0
1.080000 0.000000 0
1.100000 0.000000 0
1.120000 0.000000 0
1.140000 0.000000 0
1.160000 0.000000 0
1.180000 0.000000 0
1.200000 0.000000 0
1.220000 0.000000 0
1.240000 0.000000 0
1.260000 0.000000 0
1.280000 0.000000 0
1.300000 0.000000 0
1.320000 0.000000 0
1.340000 0.000000 0
1.360000 0.000000 0
1.380000 0.000000 0
1.400000 0.000000 0
1.420000 0.000000 0
1.440000 0.000000 0
1.460000 0.000000 0
1.480000 0.000000 0
1.500000 0.000000 0
1.520000 0.000000 0
1.540000 0.000000 0
1.560000 0.000000 0
1.580000 0.000000 0
1.600000 0.000000 0
1.620000 0.000000 0
1.640000 0.000000 0
1.660000 0.000000 0
1.680000 0.000000 0
1.700000 0.000000 0
1.720000 0.000000 0
1.740000 0.000000 0
1.760000 0.000000 0
1.780000 0.000000 0
1.800000 0.000000 0
1.820000 0.000000 0
1.840000 0.000000 0
1.860000 0.000000 0
1.880000 0.000000 0
1.900000 0.000000 0
1.920000 0.000000 0
1.940000 0.000000 0
1.960000 0.000000 0
0.000000 0.020000 0
0.020000 0.020000 0
0.040000 0.020000 0
0.060000 0.020000 0
0.080000 0.020000 0
0.100000 0.020000 0
0.120000 0.020000 0
0.140000 0.020000 0
0.160000 0.020000 0
0.180000 0.020000 0
0.200000 0.020000 0
0.220000 0.020000 0
0.240000 0.020000 0
0.260000 0.020000 0
0.280000 0.020000 0
0.300000 0.020000 0
0.320000 0.020000 0
0.340000 0.020000 0
0.360000 0.020000 0
0.380000 0.020000 0
0.400000 0.020000 0
0.420000 0.020000 0
0.440000 0.020000 0
0.460000 0.020000 0
0.480000 0.020000 0
0.500000 0.020000 0
0.520000 0.020000 0
0.540000 0.020000 0
0.560000 0.020000 0
0.580000 0.020000 0
0.600000 0.020000 0
0.620000 0.020000 0
0.640000 0.020000 0
0.660000 0.020000 0
0.680000 0.020000 0
0.700000 0.020000 0
0.720000 0.020000 0
0.740000 0.020000 0
0.760000 0.020000 0
0.780000 0.020000 0
0.800000 0.020000 0
0.820000 0.020000 0
0.840000 0.020000 0
0.860000 0.020000 0
0.880000 0.020000 0
0.900000 0.020000 0
0.920000 0.020000 0
0.940000 0.020000 0
0.960000 0.020000 0
0.980000 0.020000 0
1.000000 0.020000 0
1.020000 0.020000 0
1.040000 0.020000 0
1.060000 0.020000 0
1.080000 0.020000 0
1.100000 0.020000 0
1.120000 0.020000 0
1.140000 0.020000 0
1.160000 0.020000 0
1.180000 0.020000 0
1.200000 0.020000 0
1.220000 0.020000 0
1.240000 0.020000 0
1.260000 0.020000 0
1.280000 0.020000 0
1.300000 0.020000 0
1.320000 0.020000 0
1.340000 0.020000 0
1.360000 0.020000 0
1.380000 0.020000 0
1.400000 0.020000 0
1.420000 0.020000 0
1.440000 0.020000 0
1.460000 0.020000 0
1.480000 0.020000 0
1.500000 0.020000 0
1.520000 0.020000 0
1.540000 0.020000 0
1.560000 0.020000 0
1.580000 0.020000 0
1.600000 0.020000 0
1.620000 0.020000 0
1.640000 0.020000 0
1.660000 0.020000 0
1.680000 0.020000 0
1.700000 0.020000 0
1.720000 0.020000 0
1.740000 0.020000 0
1.760000 0.020000 0
1.780000 0.020000 0
1.800000 0.020000 0
1.820000 0.020000 0
1.840000 0.020000 0
1.860000 0.020000 0
1.880000 0.020000 0
1.900000 0.020000 0
1.920000 0.020000 0
1.940000 0.020000 0
1.960000 0.020000 0
0.000000 0.040000 0
0.020000 0.040000 0
0.040000 0.040000 0
0.060000 0.040000 0
0.080000 0.040000 0
0.100000 0.040000 0
0.120000 0.040000 0
0.140000 0.040000 0
0.160000 0.040000 0
0.180000 0.040000 0
0.200000 0.040000 0
0.220000 0.040000 0
0.240000 0.040000 0
0.260000 0.040000 0
0.280000 0.040000 0
0.300000 0.040000 0
0.320000 0.040000 0
0.340000 0.040000 0
0.360000 0.040000 0
0.380000 0.040000 0
0.400000 0.040000 0
0.420000 0.040000 0
0.440000 0.040000 0
0.460000 0.040000 0
0.480000 0.040000 0
0.500000 0.040000 0
0.520000 0.040000 0
0.540000 0.040000 0
0.560000 0.040000 0
0.580000 0.040000 0
0.600000 0.040000 0
0.620000 0.040000 0
0.640000 0.040000 0
0.660000 0.040000 0
0.680000 0.040000 0
0.700000 0.040000 0
0.720000 0.040000 0
0.740000 0.040000 0
0.760000 0.040000 0
0.780000 0.040000 0
0.800000 0.040000 0
0.820000 0.040000 0
0.840000 0.040000 0
0.860000 0.040000 0
0.880000 0.040000 0
0.900000 0.040000 0
0.920000 0.040000 0
0.940000 0.040000 0
0.960000 0.040000 0
0.980000 0.040000 0
1.000000 0.040000 0
1.020000 0.040000 0
1.040000 0.040000 0
1.060000 0.040000 0
1.080000 0.040000 0
1.100000 0.040000 0
1.120000 0.040000 0
1.140000 0.040000 0
1.160000 0.040000 0
1.180000 0.040000 0
1.200000 0.040000 0
1.220000 0.040000 0
1.240000 0.040000 0
1.260000 0.040000 0
1.280000 0.040000 0
1.300000 0.040000 0
1.320000 0.040000 0
1.340000 0.040000 0
1.360000 0.040000 0
1.380000 0.040000 0
1.400000 0.040000 0
1.420000 0.040000 0
1.440000 0.040000 0
1.460000 0.040000 0
1.480000 0.040000 0
1.500000 0.040000 0
1.520000 0.040000 0
1.540000 0.040000 0
1.560000 0.040000 0
1.580000 0.040000 0
1.600000 0.040000 0
1.620000 0.040000 0
1.640000 0.040000 0
1.660000 0.040000 0
1.680000 0.040000 0
1.700000 0.040000 0
1.720000 0.040000 0
1.740000 0.040000 0
1.760000 0.040000 0
1.780000 0.040000 0
1.800000 0.040000 0
1.820000 0.040000 0
1.840000 0.040000 0
1.860000 0.040000 0
1.880000 0.040000 0
1.900000 0.040000 0
1.920000 0.040000 0
1.940000 0.040000 0
1.960000 0.040000 0
0.000000 0.060000 0
0.020000 0.060000 0
0.040000 0.060000 0
0.060000 0.060000 0
0.080000 0.060000 0
0.100000 0.060000 0
0.120000 0.060000 0
0.140000 0.060000 0
0.160000 0.060000 0
0.180000 0.060000 0
0.200000 0.060000 0
0.220000 0.060000 0
0.240000 0.060000 0
0.260000 0.060000 0
0.280000 0.060000 0
0.300000 0.060000 0
0.320000 0.060000 0
0.340000 0.060000 0
0.360000 0.060000 0
0.380000 0.060000 0
0.400000 0.060000 0
0.420000 0.060000 0
0.440000 0.060000 0
0.460000 0.060000 0
0.480000 0.060000 0
0.500000 0.060000 0
0.520000 0.060000 0
0.540000 0.060000 0
0.560000 0.060000 0
0.580000 0.060000 0
0.600000 0.060000 0
0.620000 0.060000 0
0.640000 0.060000 0
0.660000 0.060000 0
0.680000 0.060000 0
0.700000 0.060000 0
0.720000 0.060000 0
0.740000 0.060000 0
0.760000 0.060000 0
0.780000 0.060000 0
0.800000 0.060000 0
0.820000 0.060000 0
0.840000 0.060000 0
0.860000 0.060000 0
0.880000 0.060000 0
0.900000 0.060000 0
0.920000 0.060000 0
0.940000 0.060000 0
0.960000 0.060000 0
0.980000 0.060000 0
1.000000 0.060000 0
1.020000 0.060000 0
1.040000 0.060000 0
1.060000 0.060000 0
1.080000 0.060000 0
1.100000 0.060000 0
1.120000 0.060000 0
1.140000 0.060000 0
1.160000 0.060000 0
1.180000 0.060000 0
1.200000 0.060000 0
1.220000 0.060000 0
1.240000 0.060000 0
1.260000 0.060000 0
1.280000 0.060000 0
1.300000 0.060000 0
1.320000 0.060000 0
1.340000 0.060000 0
1.360000 0.060000 0
1.380000 0.060000 0
1.400000 0.060000 0
1.420000 0.060000 0
1.440000 0.060000 0
1.460000 0.060000 0
1.480000 0.060000 0
1.500000 0.060000 0
1.520000 0.060000 0
1.540000 0.060000 0
1.560000 0.060000 0
1.580000 0.060000 0
1.600000 0.060000 0
1.620000 0.060000 0
1.640000 0.060000 0
1.660000 0.060000 0
1.680000 0.060000 0
1.700000 0.060000 0
1.720000 0.060000 0
1.740000 0.060000 0
1.760000 0.060000 0
1.780000 0.060000 0
1.800000 0.060000 0
1.820000 0.060000 0
1.840000 0.060000 0
1.860000 0.060000 0
1.880000 0.060000 0
1.900000 0.060000 0
1.920000 0.060000 0
1.940000 0.060000 0
1.960000 0.060000 0
0.000000 0.080000 0
0.020000 0.080000 0
0.040000 0.080000 0
0.060000 0.080000 0
0.080000 0.080000 0
0.100000 0.080000 0
0.120000 0.080000 0
0.140000 0.080000 0
0.160000 0.080000 0
0.180000 0.080000 0
0.200000 0.080000 0
0.220000 0.080000 0
0.240000 0.080000 0
0.260000 0.080000 0
0.280000 0.080000 0
0.300000 0.080000 0
0.320000 0.080000 0
0.340000 0.080000 0
0.360000 0.080000 0
0.380000 0.080000 0
0.400000 0.080000 0
0.420000 0.080000 0
0.440000 0.080000 0
0.460000 0.080000 0
0.480000 0.080000 0
0.500000 0.080000 0
0.520000 0.080000 0
0.540000 0.080000 0
0.560000 0.080000 0
0.580000 0.080000 0
0.600000 0.080000 0
0.620000 0.080000 0
0.640000 0.080000 0
0.660000 0.080000 0
0.680000 0.080000 0
0.700000 0.080000 0
0.720000 0.080000 0
0.740000 0.080000 0
0.760000 0.080000 0
0.780000 0.080000 0
0.800000 0.080000 0
0.820000 0.080000 0
0.840000 0.080000 0
0.860000 0.080000 0
0.880000 0.080000 0
0.900000 0.080000 0
0.920000 0.080000 0
0.940000 0.080000 0
0.960000 0.080000 0
0.980000 0.080000 0
1.000000 0.080000 0
1.020000 0.080000 0
1.040000 0.080000 0
1.060000 0.080000 0
1.080000 0.080000 0
1.100000 0.080000 0
1.120000 0.080000 0
1.140000 0.080000 0
1.160000 0.080000 0
1.180000 0.080000 0
1.200000 0.080000 0
1.220000 0.080000 0
1.240000 0.080000 0
1.260000 0.080000 0
1.280000 0.080000 0
1.300000 0.080000 0
1.320000 0.080000 0
1.340000 0.080000 0
1.360000 0.080000 0
1.380000 0.080000 0
1.400000 0.080000 0
1.420000 0.080000 0
1.440000 0.080000 0
1.460000 0.080000 0
1.480000 0.080000 0
1.500000 0.080000 0
1.520000 0.080000 0
1.540000 0.080000 0
1.560000 0.080000 0
1.580000 0.080000 0
1.600000 0.080000 0
1.620000 0.080000 0
1.640000 0.080000 0
1.660000 0.080000 0
1.680000 0.080000 0
1.700000 0.080000 0
1.720000 0.080000 0
1.740000 0.080000 0
1.760000 0.080000 0
1.780000 0.080000 0
1.800000 0.080000 0
1.820000 0.080000 0
1.840000 0.080000 0
1.860000 0.080000 0
1.880000 0.080000 0
[...]
POINT_DATA 4851 

VECTORS velocity float
0.000000 0.000000 0
0.000089 0.000000 0
0.000214 0.000000 0
0.000305 0.000000 0
0.000349 0.000000 0
0.000355 0.000000 0
0.000339 0.000000 0
0.000314 0.000000 0
0.000290 0.000000 0
0.000271 0.000000 0
0.000258 0.000000 0
0.000251 0.000000 0
0.000249 0.000000 0
0.000249 0.000000 0
0.000250 0.000000 0
0.000251 0.000000 0
0.000252 0.000000 0
0.000252 0.000000 0
0.000251 0.000000 0
0.000251 0.000000 0
0.000249 0.000000 0
0.000248 0.000000 0
0.000246 0.000000 0
0.000244 0.000000 0
0.000242 0.000000 0
0.000240 0.000000 0
0.000238 0.000000 0
0.000236 0.000000 0
0.000232 0.000000 0
0.000228 0.000000 0
0.000220 0.000000 0
0.000207 0.000000 0
0.000183 0.000000 0
0.000144 0.000000 0
0.000090 0.000000 0
0.000032 0.000000 0
0.000000 0.000000 0
0.000000 0.000000 0
0.000000 0.000000 0
0.000000 0.000000 0
0.000000 0.000000 0
-0.000002 0.000000 0
0.000002 0.000000 0
0.000014 0.000000 0
0.000035 0.000000 0
0.000063 0.000000 0
0.000095 0.000000 0
0.000128 0.000000 0
0.000160 0.000000 0
0.000188 0.000000 0
0.000209 0.000000 0
0.000225 0.000000 0
0.000233 0.000000 0
0.000237 0.000000 0
0.000235 0.000000 0
0.000231 0.000000 0
0.000224 0.000000 0
0.000217 0.000000 0
0.000210 0.000000 0
0.000202 0.000000 0
0.000196 0.000000 0
0.000191 0.000000 0
0.000186 0.000000 0
0.000183 0.000000 0
0.000180 0.000000 0
0.000178 0.000000 0
0.000177 0.000000 0
0.000176 0.000000 0
0.000175 0.000000 0
0.000175 0.000000 0
0.000175 0.000000 0
0.000175 0.000000 0
0.000175 0.000000 0
0.000175 0.000000 0
0.000176 0.000000 0
0.000177 0.000000 0
0.000178 0.000000 0
0.000179 0.000000 0
0.000181 0.000000 0
0.000182 0.000000 0
0.000185 0.000000 0
0.000187 0.000000 0
0.000191 0.000000 0
0.000195 0.000000 0
0.000199 0.000000 0
0.000205 0.000000 0
0.000212 0.000000 0
0.000221 0.000000 0
0.000233 0.000000 0
0.000247 0.000000 0
0.000267 0.000000 0
0.000293 0.000000 0
0.000331 0.000000 0
0.000384 0.000000 0
0.000456 0.000000 0
0.000541 0.000000 0
0.000591 0.000000 0
0.000452 0.000000 0
0.000000 0.000000 0
0.000000 -0.000090 0
0.000245 -0.000215 0
0.000598 -0.000217 0
0.000875 -0.000136 0
0.001028 -0.000050 0
0.001071 0.000010 0
0.001046 0.000040 0
0.000988 0.000048 0
0.000924 0.000043 0
0.000870 0.000031 0
0.000832 0.000019 0
0.000810 0.000009 0
0.000800 0.000002 0
0.000799 -0.000002 0
0.000800 -0.000003 0
0.000803 -0.000003 0
0.000805 -0.000002 0
0.000804 -0.000000 0
0.000802 0.000001 0
0.000798 0.000002 0
0.000793 0.000002 0
0.000787 0.000003 0
0.000780 0.000003 0
0.000772 0.000003 0
0.000764 0.000003 0
0.000754 0.000004 0
0.000743 0.000004 0
0.000730 0.000005 0
0.000713 0.000007 0
0.000690 0.000012 0
0.000655 0.000021 0
0.000602 0.000037 0
0.000519 0.000062 0
0.000399 0.000092 0
0.000245 0.000111 0
0.000088 0.000089 0
0.000000 0.000031 0
0.000000 0.000000 0
0.000000 0.000000 0
0.000000 0.000000 0
0.000000 0.000002 0
0.000001 -0.000002 0
0.000023 -0.000016 0
0.000070 -0.000033 0
0.000144 -0.000049 0
0.000238 -0.000060 0
0.000345 -0.000065 0
0.000456 -0.000065 0
0.000562 -0.000059 0
0.000654 -0.000049 0
0.000729 -0.000037 0
0.000782 -0.000024 0
0.000815 -0.000012 0
0.000830 -0.000002 0
0.000829 0.000006 0
0.000817 0.000011 0
0.000798 0.000014 0
0.000776 0.000015 0
0.000752 0.000015 0
0.000729 0.000014 0
0.000708 0.000012 0
0.000689 0.000010 0
0.000674 0.000008 0
0.000661 0.000006 0
0.000652 0.000005 0
0.000644 0.000004 0
0.000638 0.000003 0
0.000634 0.000002 0
0.000631 0.000001 0
0.000629 0.000001 0
0.000627 0.000000 0
0.000627 0.000000 0
0.000627 -0.000000 0
0.000628 -0.000001 0
0.000630 -0.000001 0
0.000633 -0.000001 0
0.000636 -0.000002 0
0.000640 -0.000002 0
0.000645 -0.000003 0
0.000652 -0.000004 0
0.000660 -0.000005 0
0.000669 -0.000006 0
0.000681 -0.000007 0
0.000694 -0.000008 0
0.000711 -0.000010 0
0.000730 -0.000013 0
0.000754 -0.000016 0
0.000784 -0.000020 0
0.000820 -0.000026 0
0.000866 -0.000034 0
0.000924 -0.000046 0
0.000998 -0.000064 0
0.001093 -0.000090 0
0.001212 -0.000125 0
0.001344 -0.000158 0
0.001447 -0.000135 0
0.001388 0.000090 0
0.000904 0.000592 0
0.000000 0.000452 0
0.000000 -0.000246 0
0.000329 -0.000599 0
0.000820 -0.000631 0
0.001231 -0.000430 0
0.001482 -0.000197 0
0.001582 -0.000019 0
0.001576 0.000083 0
0.001514 0.000121 0
0.001434 0.000117 0
0.001361 0.000091 0
0.001307 0.000059 0
0.001273 0.000031 0
0.001256 0.000011 0
0.001250 -0.000001 0
0.001250 -0.000005 0
0.001251 -0.000005 0
0.001251 -0.000002 0
0.001248 0.000002 0
0.001243 0.000005 0
0.001234 0.000008 0
0.001224 0.000010 0
0.001211 0.000012 0
0.001196 0.000014 0
0.001180 0.000016 0
0.001161 0.000017 0
0.001140 0.000020 0
0.001115 0.000023 0
0.001086 0.000029 0
0.001048 0.000039 0
0.000999 0.000057 0
0.000930 0.000087 0
0.000833 0.000136 0
0.000698 0.000202 0
0.000521 0.000273 0
0.000312 0.000310 0
0.000112 0.000244 0
0.000000 0.000088 0
0.000000 0.000000 0
0.000000 0.000000 0
0.000000 0.000000 0
0.000000 -0.000001 0
0.000013 -0.000022 0
0.000061 -0.000069 0
0.000150 -0.000121 0
0.000279 -0.000167 0
0.000440 -0.000201 0
0.000622 -0.000218 0
0.000809 -0.000217 0
0.000987 -0.000198 0
0.001144 -0.000167 0
0.001271 -0.000128 0
0.001364 -0.000086 0
0.001424 -0.000047 0
0.001453 -0.000014 0
0.001456 0.000013 0
0.001441 0.000031 0
0.001412 0.000042 0
0.001377 0.000047 0
0.001338 0.000047 0
0.001300 0.000044 0
0.001265 0.000040 0
0.001233 0.000034 0
0.001206 0.000028 0
0.001184 0.000023 0
0.001165 0.000018 0
0.001151 0.000014 0
0.001139 0.000011 0
0.001130 0.000008 0
0.001123 0.000006 0
0.001118 0.000004 0
0.001115 0.000002 0
0.001113 0.000000 0
0.001113 -0.000001 0
0.001113 -0.000002 0
0.001116 -0.000004 0
0.001120 -0.000005 0
0.001125 -0.000007 0
0.001132 -0.000009 0
0.001141 -0.000011 0
0.001151 -0.000014 0
0.001165 -0.000017 0
0.001181 -0.000020 0
0.001200 -0.000025 0
0.001222 -0.000030 0
0.001249 -0.000036 0
0.001281 -0.000043 0
0.001319 -0.000053 0
0.001365 -0.000065 0
0.001420 -0.000082 0
0.001486 -0.000103 0
0.001565 -0.000132 0
0.001657 -0.000169 0
0.001760 -0.000213 0
0.001860 -0.000250 0
0.001921 -0.000235 0
0.001860 -0.000043 0
0.001529 0.000544 0
0.000796 0.001388 0
0.000000 0.000904 0
0.000000 -0.000419 0
0.000343 -0.001036 0
0.000872 -0.001120 0
0.001328 -0.000798 0
0.001622 -0.000401 0
0.001756 -0.000085 0
0.001771 0.000107 0
0.001720 0.000190 0
0.001643 0.000195 0
0.001569 0.000158 0
0.001511 0.000107 0
0.001474 0.000059 0
0.001453 0.000024 0
0.001443 0.000004 0
0.001438 -0.000004 0
0.001434 -0.000004 0
0.001429 0.000001 0
0.001421 0.000008 0
0.001410 0.000014 0
0.001395 0.000020 0
0.001378 0.000025 0
0.001358 0.000030 0
0.001335 0.000034 0
0.001310 0.000038 0
0.001281 0.000043 0
0.001248 0.000049 0
0.001210 0.000058 0
0.001165 0.000072 0
0.001110 0.000094 0
0.001041 0.000130 0
0.000950 0.000186 0
0.000831 0.000268 0
0.000677 0.000374 0
0.000490 0.000478 0
0.000284 0.000520 0
0.000098 0.000401 0
0.000000 0.000143 0
0.000000 0.000000 0
0.000000 0.000000 0
0.000000 0.000000 0
0.000000 -0.000010 0
0.000023 -0.000063 0
0.000095 -0.000154 0
0.000218 -0.000251 0
0.000391 -0.000338 0
0.000604 -0.000402 0
0.000841 -0.000434 0
0.001084 -0.000430 0
0.001314 -0.000394 0
0.001517 -0.000333 0
0.001681 -0.000257 0
0.001801 -0.000176 0
0.001878 -0.000100 0
0.001916 -0.000034 0
0.001922 0.000018 0
0.001903 0.000055 0
0.001868 0.000078 0
0.001823 0.000090 0
0.001774 0.000092 0
0.001725 0.000087 0
0.001679 0.000079 0
0.001638 0.000069 0
0.001602 0.000058 0
0.001571 0.000048 0
0.001545 0.000038 0
0.001524 0.000030 0
0.001507 0.000024 0
0.001493 0.000018 0
0.001482 0.000013 0
0.001474 0.000009 0
0.001468 0.000006 0
0.001464 0.000002 0
0.001462 -0.000001 0
0.001462 -0.000004 0
0.001464 -0.000007 0
0.001468 -0.000010 0
0.001474 -0.000014 0
0.001482 -0.000018 0
0.001492 -0.000023 0
0.001506 -0.000028 0
0.001522 -0.000034 0
0.001541 -0.000041 0
0.001564 -0.000049 0
0.001591 -0.000058 0
0.001623 -0.000069 0
0.001660 -0.000083 0
0.001703 -0.000099 0
0.001753 -0.000120 0
0.001811 -0.000146 0
0.001877 -0.000178 0
0.001948 -0.000217 0
0.002022 -0.000259 0
0.002087 -0.000292 0
0.002117 -0.000285 0
0.002063 -0.000157 0
0.001842 0.000257 0
0.001354 0.001154 0
0.000599 0.002121 0
0.000000 0.001248 0
0.000000 -0.000589 0
0.000329 -0.001472 0
0.000846 -0.001617 0
0.001299 -0.001181 0
0.001598 -0.000625 0
0.001740 -0.000169 0
0.001766 0.000118 0
0.001723 0.000249 0
0.001654 0.000267 0
0.001586 0.000222 0
0.001531 0.000154 0
0.001492 0.000090 0
0.001468 0.000042 0
0.001453 0.000014 0
0.001442 0.000003 0
0.001431 0.000003 0
0.001418 0.000011 0
0.001402 0.000021 0
0.001383 0.000031 0
0.001361 0.000040 0
0.001336 0.000048 0
0.001308 0.000055 0
0.001277 0.000062 0
0.001243 0.000070 0
0.001205 0.000079 0
0.001162 0.000090 0
0.001114 0.000106 0
0.001058 0.000129 0
0.000992 0.000164 0
0.000913 0.000217 0
0.000815 0.000297 0
0.000695 0.000408 0
0.000549 0.000543 0
0.000383 0.000666 0
0.000213 0.000701 0
0.000069 0.000528 0
0.000000 0.000186 0
0.000000 0.000000 0
0.000000 0.000000 0
0.000000 0.000000 0
0.000000 -0.000024 0
0.000029 -0.000117 0
0.000119 -0.000264 0
0.000270 -0.000417 0
0.000479 -0.000552 0
0.000734 -0.000650 0
0.001016 -0.000698 0
0.001304 -0.000690 0
0.001573 -0.000631 0
0.001808 -0.000533 0
0.001995 -0.000412 0
0.002130 -0.000283 0
0.002214 -0.000162 0
0.002252 -0.000057 0
0.002254 0.000026 0
0.002228 0.000085 0
0.002183 0.000122 0
0.002128 0.000141 0
0.002070 0.000145 0
0.002011 0.000139 0
0.001957 0.000127 0
0.001908 0.000111 0
0.001864 0.000095 0
0.001827 0.000079 0
0.001795 0.000065 0
0.001768 0.000052 0
0.001746 0.000042 0
0.001727 0.000033 0
0.001712 0.000025 0
0.001700 0.000018 0
0.001691 0.000012 0
0.001685 0.000007 0
0.001681 0.000001 0
0.001679 -0.000004 0
0.001680 -0.000010 0
0.001684 -0.000015 0
0.001689 -0.000021 0
0.001698 -0.000028 0
0.001709 -0.000035 0
0.001722 -0.000043 0
0.001739 -0.000052 0
0.001760 -0.000063 0
0.001783 -0.000075 0
0.001811 -0.000088 0
0.001843 -0.000104 0
0.001879 -0.000123 0
0.001920 -0.000146 0
0.001966 -0.000173 0
0.002016 -0.000204 0
0.002068 -0.000240 0
0.002119 -0.000278 0
0.002160 -0.000307 0
0.002175 -0.000307 0
0.002135 -0.000226 0
0.001990 0.000039 0
0.001676 0.000666 0
0.001140 0.001787 0
0.000449 0.002743 0
0.000000 0.001503 0
0.000000 -0.000749 0
0.000304 -0.001882 0
0.000784 -0.002090 0
0.001207 -0.001550 0
0.001487 -0.000842 0
0.001621 -0.000254 0
0.001647 0.000124 0
0.001609 0.000301 0
0.001547 0.000333 0
0.001485 0.000282 0
0.001434 0.000200 0
0.001396 0.000121 0
0.001368 0.000063 0
0.001347 0.000030 0
0.001328 0.000018 0
0.001307 0.000020 0
0.001285 0.000029 0
0.001259 0.000042 0
0.001231 0.000055 0
0.001201 0.000067 0
0.001167 0.000078 0
0.001131 0.000088 0
0.001093 0.000099 0
0.001051 0.000110 0
0.001005 0.000123 0
0.000956 0.000140 0
0.000901 0.000162 0
0.000841 0.000193 0
0.000772 0.000239 0
0.000694 0.000306 0
0.000602 0.000404 0
0.000496 0.000534 0
0.000376 0.000685 0
0.000249 0.000814 0
0.000129 0.000834 0
0.000038 0.000613 0
0.000000 0.000212 0
0.000000 0.000000 0
0.000000 0.000000 0
0.000000 0.000000 0
0.000000 -0.000040 0
0.000032 -0.000181 0
0.000134 -0.000394 0
0.000307 -0.000611 0
0.000548 -0.000802 0
0.000840 -0.000939 0
0.001161 -0.001003 0
0.001484 -0.000987 0
0.001784 -0.000898 0
0.002039 -0.000755 0
0.002238 -0.000579 0
0.002375 -0.000395 0
0.002454 -0.000222 0
0.002483 -0.000074 0
0.002471 0.000043 0
0.002431 0.000126 0
0.002373 0.000178 0
0.002305 0.000203 0
0.002235 0.000209 0
0.002167 0.000200 0
0.002104 0.000183 0
0.002047 0.000161 0
0.001997 0.000139 0
0.001954 0.000117 0
0.001917 0.000097 0
0.001885 0.000080 0
0.001858 0.000065 0
0.001835 0.000052 0
0.001816 0.000040 0
0.001801 0.000030 0
0.001790 0.000021 0
0.001781 0.000013 0
0.001775 0.000005 0
0.001772 -0.000003 0
0.001772 -0.000011 0
0.001774 -0.000019 0
0.001780 -0.000028 0
0.001788 -0.000037 0
0.001798 -0.000047 0
0.001812 -0.000058 0
0.001828 -0.000071 0
0.001847 -0.000084 0
0.001870 -0.000100 0
0.001895 -0.000117 0
0.001924 -0.000137 0
0.001956 -0.000160 0
0.001990 -0.000186 0
0.002026 -0.000216 0
0.002063 -0.000248 0
0.002098 -0.000282 0
0.002125 -0.000309 0
0.002133 -0.000314 0
0.002107 -0.000267 0
0.002017 -0.000101 0
0.001822 0.000301 0
0.001473 0.001108 0
0.000948 0.002382 0
0.000343 0.003261 0
0.000000 0.001697 0
0.000000 -0.000894 0
0.000275 -0.002257 0
0.000708 -0.002521 0
0.001086 -0.001884 0
0.001333 -0.001039 0
0.001449 -0.000329 0
0.001468 0.000130 0
0.001433 0.000348 0
0.001376 0.000392 0
0.001319 0.000336 0
0.001272 0.000243 0
0.001233 0.000154 0
0.001202 0.000090 0
0.001173 0.000054 0
0.001144 0.000042 0
0.001114 0.000046 0
0.001081 0.000058 0
0.001046 0.000074 0
0.001009 0.000089 0
0.000970 0.000103 0
0.000929 0.000117 0
0.000886 0.000129 0
0.000841 0.000142 0
0.000794 0.000157 0
0.000744 0.000173 0
0.000691 0.000194 0
0.000634 0.000221 0
0.000575 0.000258 0
0.000511 0.000310 0
0.000441 0.000387 0
0.000366 0.000494 0
0.000284 0.000634 0
0.000200 0.000789 0
0.000119 0.000913 0
0.000053 0.000912 0
0.000011 0.000657 0
0.000000 0.000223 0
0.000000 0.000000 0
0.000000 0.000000 0
0.000000 0.000000 0
0.000000 -0.000056 0
0.000033 -0.000251 0
0.000144 -0.000539 0
0.000337 -0.000831 0
0.000607 -0.001085 0
0.000933 -0.001264 0
0.001288 -0.001342 0
0.001639 -0.001312 0
0.001958 -0.001185 0
0.002223 -0.000987 0
0.002420 -0.000748 0
0.002548 -0.000500 0
0.002610 -0.000269 0
0.002618 -0.000074 0
0.002583 0.000078 0
0.002521 0.000184 0
0.002442 0.000249 0
0.002358 0.000279 0
0.002274 0.000284 0
0.002195 0.000270 0
0.002123 0.000247 0
0.002059 0.000218 0
0.002003 0.000188 0
0.001954 0.000160 0
0.001913 0.000134 0
0.001877 0.000111 0
0.001846 0.000092 0
0.001820 0.000074 0
0.001799 0.000059 0
0.001782 0.000045 0
0.001768 0.000033 0
0.001758 0.000021 0
0.001752 0.000010 0
0.001748 -0.000001 0
0.001747 -0.000012 0
0.001750 -0.000023 0
0.001755 -0.000034 0
0.001762 -0.000046 0
0.001773 -0.000059 0
0.001786 -0.000073 0
0.001801 -0.000088 0
0.001819 -0.000104 0
0.001838 -0.000122 0
0.001860 -0.000142 0
0.001884 -0.000165 0
0.001909 -0.000189 0
0.001935 -0.000217 0
0.001960 -0.000246 0
0.001983 -0.000276 0
0.002001 -0.000302 0
0.002008 -0.000313 0
0.001994 -0.000290 0
0.001942 -0.000191 0
0.001827 0.000059 0
0.001616 0.000583 0
0.001271 0.001539 0
0.000787 0.002918 0
0.000266 0.003691 0
0.000000 0.001846 0
0.000000 -0.001024 0
0.000244 -0.002591 0
0.000626 -0.002901 0
0.000953 -0.002175 0
0.001161 -0.001205 0
0.001254 -0.000389 0
0.001264 0.000140 0
0.001229 0.000393 0
0.001177 0.000446 0
0.001125 0.000386 0
0.001080 0.000285 0
0.001040 0.000191 0
0.001004 0.000123 0
0.000968 0.000087 0
0.000930 0.000077 0
0.000889 0.000083 0
0.000847 0.000097 0
0.000803 0.000114 0
0.000758 0.000131 0
0.000713 0.000147 0
0.000666 0.000161 0
0.000618 0.000176 0
0.000569 0.000191 0
0.000519 0.000207 0
0.000467 0.000226 0
0.000414 0.000249 0
0.000361 0.000278 0
0.000307 0.000317 0
0.000252 0.000372 0
0.000197 0.000451 0
0.000143 0.000561 0
0.000090 0.000700 0
0.000043 0.000850 0
0.000008 0.000961 0
-0.000010 0.000941 0
-0.000009 0.000665 0
0.000000 0.000223 0
0.000000 0.000000 0
0.000000 0.000000 0
0.000000 0.000000 0
0.000000 -0.000072 0
0.000033 -0.000324 0
0.000154 -0.000698 0
0.000368 -0.001074 0
0.000667 -0.001398 0
0.001024 -0.001620 0
0.001405 -0.001709 0
0.001775 -0.001657 0
0.002101 -0.001481 0
0.002362 -0.001217 0
0.002545 -0.000904 0
0.002650 -0.000585 0
0.002683 -0.000292 0
0.002659 -0.000047 0
0.002592 0.000140 0
0.002499 0.000267 0
0.002394 0.000341 0
0.002288 0.000372 0
0.002188 0.000372 0
0.002096 0.000351 0
0.002015 0.000319 0
0.001944 0.000281 0
0.001882 0.000244 0
0.001829 0.000208 0
0.001784 0.000175 0
0.001746 0.000146 0
0.001713 0.000121 0
0.001687 0.000099 0
0.001665 0.000079 0
0.001648 0.000061 0
0.001635 0.000045 0
0.001626 0.000030 0
0.001620 0.000015 0
0.001618 0.000001 0
0.001618 -0.000012 0
0.001622 -0.000026 0
0.001628 -0.000040 0
0.001636 -0.000055 0
0.001647 -0.000070 0
0.001660 -0.000086 0
0.001674 -0.000104 0
0.001690 -0.000122 0
0.001708 -0.000141 0
0.001726 -0.000163 0
0.001744 -0.000186 0
0.001762 -0.000211 0
0.001780 -0.000237 0
0.001795 -0.000264 0
0.001807 -0.000289 0
0.001812 -0.000306 0
0.001807 -0.000301 0
0.001781 -0.000248 0
0.001721 -0.000100 0
0.001605 0.000226 0
0.001402 0.000857 0
0.001084 0.001936 0
0.000653 0.003387 0
0.000209 0.004048 0
0.000000 0.001963 0
0.000000 -0.001139 0
0.000215 -0.002883 0
0.000544 -0.003230 0
0.000820 -0.002420 0
0.000988 -0.001340 0
0.001057 -0.000432 0
0.001057 0.000155 0
0.001021 0.000435 0
0.000973 0.000495 0
0.000925 0.000433 0
0.000882 0.000328 0
0.000841 0.000230 0
0.000799 0.000162 0
0.000756 0.000128 0
0.000710 0.000120 0
0.000662 0.000128 0
0.000612 0.000144 0
0.000562 0.000162 0
0.000511 0.000180 0
0.000461 0.000196 0
0.000411 0.000211 0
0.000361 0.000226 0
0.000310 0.000241 0
0.000260 0.000258 0
0.000210 0.000278 0
0.000161 0.000300 0
0.000113 0.000328 0
0.000068 0.000366 0
0.000026 0.000419 0
-0.000012 0.000496 0
-0.000044 0.000601 0
-0.000068 0.000733 0
-0.000080 0.000871 0
-0.000076 0.000965 0
-0.000054 0.000929 0
-0.000022 0.000647 0
0.000000 0.000214 0
0.000000 0.000000 0
0.000000 0.000000 0
0.000000 0.000000 0
0.000000 -0.000089 0
0.000036 -0.000404 0
0.000170 -0.000873 0
0.000409 -0.001344 0
0.000737 -0.001741 0
0.001120 -0.002002 0
0.001518 -0.002092 0
0.001892 -0.002007 0
0.002211 -0.001772 0
0.002453 -0.001431 0
0.002608 -0.001036 0
0.002677 -0.000638 0
0.002669 -0.000278 0
0.002601 0.000018 0
0.002492 0.000238 0
0.002361 0.000382 0
0.002225 0.000460 0
0.002094 0.000486 0
0.001974 0.000476 0
0.001869 0.000444 0
0.001778 0.000399 0
0.001700 0.000351 0
0.001635 0.000303 0
0.001580 0.000258 0
0.001534 0.000218 0
0.001497 0.000182 0
0.001466 0.000151 0
0.001442 0.000123 0
0.001424 0.000098 0
0.001410 0.000076 0
0.001401 0.000055 0
0.001396 0.000036 0
0.001394 0.000018 0
0.001396 0.000001 0
0.001400 -0.000015 0
0.001407 -0.000032 0
0.001416 -0.000048 0
0.001427 -0.000065 0
0.001439 -0.000082 0
0.001453 -0.000100 0
0.001468 -0.000118 0
0.001484 -0.000138 0
0.001499 -0.000158 0
0.001514 -0.000179 0
0.001528 -0.000201 0
0.001541 -0.000225 0
0.001552 -0.000249 0
0.001559 -0.000273 0
0.001564 -0.000293 0
0.001563 -0.000301 0
0.001553 -0.000282 0
0.001528 -0.000205 0
0.001475 -0.000014 0
0.001373 0.000379 0
0.001195 0.001104 0
0.000915 0.002289 0
0.000539 0.003793 0
0.000163 0.004344 0
0.000000 0.002055 0
0.000000 -0.001240 0
0.000188 -0.003136 0
0.000468 -0.003507 0
0.000695 -0.002619 0
0.000826 -0.001442 0
0.000871 -0.000457 0
0.000861 0.000175 0
0.000825 0.000476 0
0.000780 0.000541 0
0.000736 0.000477 0
0.000694 0.000370 0
0.000651 0.000273 0
0.000606 0.000207 0
0.000557 0.000176 0
0.000505 0.000171 0
0.000451 0.000180 0
0.000397 0.000197 0
0.000343 0.000215 0
0.000290 0.000232 0
0.000238 0.000247 0
0.000187 0.000262 0
0.000137 0.000276 0
0.000088 0.000291 0
0.000040 0.000307 0
-0.000005 0.000325 0
-0.000048 0.000345 0
-0.000088 0.000370 0
-0.000122 0.000403 0
-0.000151 0.000451 0
-0.000172 0.000521 0
-0.000184 0.000617 0
-0.000183 0.000736 0
-0.000166 0.000858 0
-0.000132 0.000935 0
-0.000082 0.000887 0
-0.000030 0.000611 0
0.000000 0.000201 0
0.000000 0.000000 0
0.000000 0.000000 0
0.000000 0.000000 0
0.000000 -0.000108 0
0.000042 -0.000494 0
0.000196 -0.001070 0
0.000464 -0.001641 0
0.000821 -0.002110 0
0.001223 -0.002402 0
0.001625 -0.002480 0
0.001988 -0.002349 0
0.002282 -0.002042 0
0.002489 -0.001614 0
0.002600 -0.001128 0
0.002620 -0.000646 0
0.002559 -0.000216 0
0.002436 0.000130 0
0.002276 0.000379 0
0.002101 0.000534 0
0.001928 0.000609 0
0.001768 0.000623 0
0.001628 0.000597 0
0.001508 0.000548 0
0.001409 0.000487 0
0.001328 0.000425 0
0.001262 0.000364 0
0.001210 0.000308 0
0.001169 0.000259 0
0.001138 0.000215 0
0.001116 0.000176 0
0.001100 0.000142 0
0.001090 0.000111 0
0.001086 0.000084 0
0.001085 0.000059 0
0.001088 0.000037 0
0.001094 0.000016 0
0.001103 -0.000004 0
0.001114 -0.000023 0
0.001127 -0.000042 0
0.001141 -0.000060 0
0.001157 -0.000079 0
0.001173 -0.000097 0
0.001190 -0.000115 0
0.001206 -0.000134 0
0.001222 -0.000153 0
0.001237 -0.000172 0
0.001251 -0.000192 0
0.001262 -0.000212 0
0.001271 -0.000234 0
0.001277 -0.000255 0