# vtk DataFile Version 2.0
generated by CFD-lab course output (written by Tobias Neckel) 
ASCII

DATASET STRUCTURED_GRID
DIMENSIONS  99 49 1 
POINTS 4851 float

0.000000 0.000000 0
0.020000 0.000000 0
0.040000 0.000000 0
0.060000 0.000000 0
0.080000 0.000000 0
0.100000 0.000000 0
0.120000 0.000000 0
0.140000 0.000000 0
0.160000 0.000000 0
0.180000 0.000000 0
0.200000 0.000000 0
0.220000 0.000000 0
0.240000 0.000000 0
0.260000 0.000000 0
0.280000 0.000000 0
0.300000 0.000000 0
0.320000 0.000000 0
0.340000 0.000000 0
0.360000 0.000000 0
0.380000 0.000000 0
0.400000 0.000000 0
0.420000 0.000000 0
0.440000 0.000000 0
0.460000 0.000000 0
0.480000 0.000000 0
0.500000 0.000000 0
0.520000 0.000000 0
0.540000 0.000000 0
0.560000 0.000000 0
0.580000 0.000000 0
0.600000 0.000000 0
0.620000 0.000000 0
0.640000 0.000000 0
0.660000 0.000000 0
0.680000 0.000000 0
0.700000 0.000000 0
0.720000 0.000000 0
0.740000 0.000000 0
0.760000 0.000000 0
0.780000 0.000000 0
0.800000 0.000000 0
0.820000 0.000000 0
0.840000 0.000000 0
0.860000 0.000000 0
0.880000 0.000000 0
0.900000 0.000000 0
0.920000 0.000000 0
0.940000 0.000000 0
0.960000 0.000000 0
0.980000 0.000000 0
1.000000 0.000000 0
1.020000 0.000000 0
1.040000 0.000000 0
1.060000 0.000000 0
1.080000 0.000000 0
1.100000 0.000000 0
1.120000 0.000000 0
1.140000 0.000000 0
1.160000 0.000000 0
1.180000 0.000000 0
1.200000 0.000000 0
1.220000 0.000000 0
1.240000 0.000000 0
1.260000 0.000000 0
1.280000 0.000000 0
1.300000 0.000000 0
1.320000 0.000000 0
1.340000 0.000000 0
1.360000 0.000000 0
1.380000 0.000000 0
1.400000 0.000000 0
1.420000 0.000000 0
1.440000 0.000000 0
1.460000 0.000000 0
1.480000 0.000000 0
1.500000 0.000000 0
1.520000 0.000000 0
1.540000 0.000000 0
1.560000 0.000000 0
1.580000 0.000000 0
1.600000 0.000000 0
1.620000 0.000000 0
1.640000 0.000000 0
1.660000 0.000000 0
1.680000 0.000000 0
1.700000 0.000000 0
1.720000 0.000000 0
1.740000 0.000000 0
1.760000 0.000000 0
1.780000 0.000000 0
1.800000 0.000000 0
1.820000 0.000000 0
1.840000 0.000000 0
1.860000 0.000000 0
1.880000 0.000000 0
1.900000 0.000000 0
1.920000 0.000000 0
1.940000 0.000000 0
1.960000 0.000000 0
0.000000 0.020000 0
0.020000 0.020000 0
0.040000 0.020000 0
0.060000 0.020000 0
0.080000 0.020000 0
0.100000 0.020000 0
0.120000 0.020000 0
0.140000 0.020000 0
0.160000 0.020000 0
0.180000 0.020000 0
0.200000 0.020000 0
0.220000 0.020000 0
0.240000 0.020000 0
0.260000 0.020000 0
0.280000 0.020000 0
0.300000 0.020000 0
0.320000 0.020000 0
0.340000 0.020000 0
0.360000 0.020000 0
0.380000 0.020000 0
0.400000 0.020000 0
0.420000 0.020000 0
0.440000 0.020000 0
0.460000 0.020000 0
0.480000 0.020000 0
0.500000 0.020000 0
0.520000 0.020000 0
0.540000 0.020000 0
0.560000 0.020000 0
0.580000 0.020000 0
0.600000 0.020000 0
0.620000 0.020000 0
0.640000 0.020000 0
0.660000 0.020000 0
0.680000 0.020000 0
0.700000 0.020000 0
0.720000 0.020000 0
0.740000 0.020000 0
0.760000 0.020000 0
0.780000 0.020000 0
0.800000 0.020000 0
0.820000 0.020000 0
0.840000 0.020000 0
0.860000 0.020000 0
0.880000 0.020000 0
0.900000 0.020000 0
0.920000 0.020000 0
0.940000 0.020000 0
0.960000 0.020000 0
0.980000 0.020000 0
1.000000 0.020000 0
1.020000 0.020000 0
1.040000 0.020000 0
1.060000 0.020000 0
1.080000 0.020000 0
1.100000 0.020000 0
1.120000 0.020000 0
1.140000 0.020000 0
1.160000 0.020000 0
1.180000 0.020000 0
1.200000 0.020000 0
1.220000 0.020000 0
1.240000 0.020000 0
1.260000 0.020000 0
1.280000 0.020000 0
1.300000 0.020000 0
1.320000 0.020000 0
1.340000 0.020000 0
1.360000 0.020000 0
1.380000 0.020000 0
1.400000 0.020000 0
1.420000 0.020000 0
1.440000 0.020000 0
1.460000 0.020000 0
1.480000 0.020000 0
1.500000 0.020000 0
1.520000 0.020000 0
1.540000 0.020000 0
1.560000 0.020000 0
1.580000 0.020000 0
1.600000 0.020000 0
1.620000 0.020000 0
1.640000 0.020000 0
1.660000 0.020000 0
1.680000 0.020000 0
1.700000 0.020000 0
1.720000 0.020000 0
1.740000 0.020000 0
1.760000 0.020000 0
1.780000 0.020000 0
1.800000 0.020000 0
1.820000 0.020000 0
1.840000 0.020000 0
1.860000 0.020000 0
1.880000 0.020000 0
1.900000 0.020000 0
1.920000 0.020000 0
1.940000 0.020000 0
1.960000 0.020000 0
0.000000 0.040000 0
0.020000 0.040000 0
0.040000 0.040000 0
0.060000 0.040000 0
0.080000 0.040000 0
0.100000 0.040000 0
0.120000 0.040000 0
0.140000 0.040000 0
0.160000 0.040000 0
0.180000 0.040000 0
0.200000 0.040000 0
0.220000 0.040000 0
0.240000 0.040000 0
0.260000 0.040000 0
0.280000 0.040000 0
0.300000 0.040000 0
0.320000 0.040000 0
0.340000 0.040000 0
0.360000 0.040000 0
0.380000 0.040000 0
0.400000 0.040000 0
0.420000 0.040000 0
0.440000 0.040000 0
0.460000 0.040000 0
0.480000 0.040000 0
0.500000 0.040000 0
0.520000 0.040000 0
0.540000 0.040000 0
0.560000 0.040000 0
0.580000 0.040000 0
0.600000 0.040000 0
0.620000 0.040000 0
0.640000 0.040000 0
0.660000 0.040000 0
0.680000 0.040000 0
0.700000 0.040000 0
0.720000 0.040000 0
0.740000 0.040000 0
0.760000 0.040000 0
0.780000 0.040000 0
0.800000 0.040000 0
0.820000 0.040000 0
0.840000 0.040000 0
0.860000 0.040000 0
0.880000 0.040000 0
0.900000 0.040000 0
0.920000 0.040000 0
0.940000 0.040000 0
0.960000 0.040000 0
0.980000 0.040000 0
1.000000 0.040000 0
1.020000 0.040000 0
1.040000 0.040000 0
1.060000 0.040000 0
1.080000 0.040000 0
1.100000 0.040000 0
1.120000 0.040000 0
1.140000 0.040000 0
1.160000 0.040000 0
1.180000 0.040000 0
1.200000 0.040000 0
1.220000 0.040000 0
1.240000 0.040000 0
1.260000 0.040000 0
1.280000 0.040000 0
1.300000 0.040000 0
1.320000 0.040000 0
1.340000 0.040000 0
1.360000 0.040000 0
1.380000 0.040000 0
1.400000 0.040000 0
1.420000 0.040000 0
1.440000 0.040000 0
1.460000 0.040000 0
1.480000 0.040000 0
1.500000 0.040000 0
1.520000 0.040000 0
1.540000 0.040000 0
1.560000 0.040000 0
1.580000 0.040000 0
1.600000 0.040000 0
1.620000 0.040000 0
1.640000 0.040000 0
1.660000 0.040000 0
1.680000 0.040000 0
1.700000 0.040000 0
1.720000 0.040000 0
1.740000 0.040000 0
1.760000 0.040000 0
1.780000 0.040000 0
1.800000 0.040000 0
1.820000 0.040000 0
1.840000 0.040000 0
1.860000 0.040000 0
1.880000 0.040000 0
1.900000 0.040000 0
1.920000 0.040000 0
1.940000 0.040000 0
1.960000 0.040000 0
0.000000 0.060000 0
0.020000 0.060000 0
0.040000 0.060000 0
0.060000 0.060000 0
0.080000 0.060000 0
0.100000 0.060000 0
0.120000 0.060000 0
0.140000 0.060000 0
0.160000 0.060000 0
0.180000 0.060000 0
0.200000 0.060000 0
0.220000 0.060000 0
0.240000 0.060000 0
0.260000 0.060000 0
0.280000 0.060000 0
0.300000 0.060000 0
0.320000 0.060000 0
0.340000 0.060000 0
0.360000 0.060000 0
0.380000 0.060000 0
0.400000 0.060000 0
0.420000 0.060000 0
0.440000 0.060000 0
0.460000 0.060000 0
0.480000 0.060000 0
0.500000 0.060000 0
0.520000 0.060000 0
0.540000 0.060000 0
0.560000 0.060000 0
0.580000 0.060000 0
0.600000 0.060000 0
0.620000 0.060000 0
0.640000 0.060000 0
0.660000 0.060000 0
0.680000 0.060000 0
0.700000 0.060000 0
0.720000 0.060000 0
0.740000 0.060000 0
0.760000 0.060000 0
0.780000 0.060000 0
0.800000 0.060000 0
0.820000 0.060000 0
0.840000 0.060000 0
0.860000 0.060000 0
0.880000 0.060000 0
0.900000 0.060000 0
0.920000 0.060000 0
0.940000 0.060000 0
0.960000 0.060000 0
0.980000 0.060000 0
1.000000 0.060000 0
1.020000 0.060000 0
1.040000 0.060000 0
1.060000 0.060000 0
1.080000 0.060000 0
1.100000 0.060000 0
1.120000 0.060000 0
1.140000 0.060000 0
1.160000 0.060000 0
1.180000 0.060000 0
1.200000 0.060000 0
1.220000 0.060000 0
1.240000 0.060000 0
1.260000 0.060000 0
1.280000 0.060000 0
1.300000 0.060000 0
1.320000 0.060000 0
1.340000 0.060000 0
1.360000 0.060000 0
1.380000 0.060000 0
1.400000 0.060000 0
1.420000 0.060000 0
1.440000 0.060000 0
1.460000 0.060000 0
1.480000 0.060000 0
1.500000 0.060000 0
1.520000 0.060000 0
1.540000 0.060000 0
1.560000 0.060000 0
1.580000 0.060000 0
1.600000 0.060000 0
1.620000 0.060000 0
1.640000 0.060000 0
1.660000 0.060000 0
1.680000 0.060000 0
1.700000 0.060000 0
1.720000 0.060000 0
1.740000 0.060000 0
1.760000 0.060000 0
1.780000 0.060000 0
1.800000 0.060000 0
1.820000 0.060000 0
1.840000 0.060000 0
1.860000 0.060000 0
1.880000 0.060000 0
1.900000 0.060000 0
1.920000 0.060000 0
1.940000 0.060000 0
1.960000 0.060000 0
0.000000 0.080000 0
0.020000 0.080000 0
0.040000 0.080000 0
0.060000 0.080000 0
0.080000 0.080000 0
0.100000 0.080000 0
0.120000 0.080000 0
0.140000 0.080000 0
0.160000 0.080000 0
0.180000 0.080000 0
0.200000 0.080000 0
0.220000 0.080000 0
0.240000 0.080000 0
0.260000 0.080000 0
0.280000 0.080000 0
0.300000 0.080000 0
0.320000 0.080000 0
0.340000 0.080000 0
0.360000 0.080000 0
0.380000 0.080000 0
0.400000 0.080000 0
0.420000 0.080000 0
0.440000 0.080000 0
0.460000 0.080000 0
0.480000 0.080000 0
0.500000 0.080000 0
0.520000 0.080000 0
0.540000 0.080000 0
0.560000 0.080000 0
0.580000 0.080000 0
0.600000 0.080000 0
0.620000 0.080000 0
0.640000 0.080000 0
0.660000 0.080000 0
0.680000 0.080000 0
0.700000 0.080000 0
0.720000 0.080000 0
0.740000 0.080000 0
0.760000 0.080000 0
0.780000 0.080000 0
0.800000 0.080000 0
0.820000 0.080000 0
0.840000 0.080000 0
0.860000 0.080000 0
0.880000 0.080000 0
0.900000 0.080000 0
0.920000 0.080000 0
0.940000 0.080000 0
0.960000 0.080000 0
0.980000 0.080000 0
1.000000 0.080000 0
1.020000 0.080000 0
1.040000 0.080000 0
1.060000 0.080000 0
1.080000 0.080000 0
1.100000 0.080000 0
1.120000 0.080000 0
1.140000 0.080000 0
1.160000 0.080000 0
1.180000 0.080000 0
1.200000 0.080000 0
1.220000 0.080000 0
1.240000 0.080000 0
1.260000 0.080000 0
1.280000 0.080000 0
1.300000 0.080000 0
1.320000 0.080000 0
1.340000 0.080000 0
1.360000 0.080000 0
1.380000 0.080000 0
1.400000 0.080000 0
1.420000 0.080000 0
1.440000 0.080000 0
1.460000 0.080000 0
1.480000 0.080000 0
1.500000 0.080000 0
1.520000 0.080000 0
1.540000 0.080000 0
1.560000 0.080000 0
1.580000 0.080000 0
1.600000 0.080000 0
1.620000 0.080000 0
1.640000 0.080000 0
1.660000 0.080000 0
1.680000 0.080000 0
1.700000 0.080000 0
1.720000 0.080000 0
1.740000 0.080000 0
1.760000 0.080000 0
1.780000 0.080000 0
1.800000 0.080000 0
1.820000 0.080000 0
1.840000 0.080000 0
1.860000 0.080000 0
1.880000 0.080000 0
[...]
POINT_DATA 4851 

VECTORS velocity float
0.000000 0.000000 0
0.000239 0.000000 0
0.000600 0.000000 0
0.000891 0.000000 0
0.001043 0.000000 0
0.001065 0.000000 0
0.000992 0.000000 0
0.000865 0.000000 0
0.000718 0.000000 0
0.000574 0.000000 0
0.000450 0.000000 0
0.000353 0.000000 0
0.000286 0.000000 0
0.000246 0.000000 0
0.000230 0.000000 0
0.000233 0.000000 0
0.000249 0.000000 0
0.000272 0.000000 0
0.000299 0.000000 0
0.000325 0.000000 0
0.000348 0.000000 0
0.000367 0.000000 0
0.000383 0.000000 0
0.000396 0.000000 0
0.000406 0.000000 0
0.000415 0.000000 0
0.000422 0.000000 0
0.000430 0.000000 0
0.000438 0.000000 0
0.000447 0.000000 0
0.000457 0.000000 0
0.000462 0.000000 0
0.000453 0.000000 0
0.000407 0.000000 0
0.000298 0.000000 0
0.000127 0.000000 0
0.000000 0.000000 0
0.000000 0.000000 0
0.000000 0.000000 0
0.000000 0.000000 0
0.000000 0.000000 0
0.000000 0.000000 0
0.000000 0.000000 0
-0.000000 0.000000 0
-0.000000 0.000000 0
-0.000001 0.000000 0
-0.000001 0.000000 0
-0.000002 0.000000 0
-0.000002 0.000000 0
-0.000003 0.000000 0
-0.000003 0.000000 0
-0.000004 0.000000 0
-0.000005 0.000000 0
-0.000006 0.000000 0
-0.000007 0.000000 0
-0.000008 0.000000 0
-0.000008 0.000000 0
-0.000009 0.000000 0
-0.000010 0.000000 0
-0.000011 0.000000 0
-0.000011 0.000000 0
-0.000011 0.000000 0
-0.000011 0.000000 0
-0.000010 0.000000 0
-0.000009 0.000000 0
-0.000007 0.000000 0
-0.000005 0.000000 0
-0.000002 0.000000 0
0.000002 0.000000 0
0.000006 0.000000 0
0.000011 0.000000 0
0.000016 0.000000 0
0.000022 0.000000 0
0.000028 0.000000 0
0.000034 0.000000 0
0.000041 0.000000 0
0.000048 0.000000 0
0.000055 0.000000 0
0.000063 0.000000 0
0.000071 0.000000 0
0.000079 0.000000 0
0.000087 0.000000 0
0.000096 0.000000 0
0.000106 0.000000 0
0.000117 0.000000 0
0.000128 0.000000 0
0.000142 0.000000 0
0.000157 0.000000 0
0.000175 0.000000 0
0.000198 0.000000 0
0.000226 0.000000 0
0.000261 0.000000 0
0.000308 0.000000 0
0.000370 0.000000 0
0.000451 0.000000 0
0.000543 0.000000 0
0.000596 0.000000 0
0.000456 0.000000 0
0.000000 0.000000 0
0.000000 -0.000240 0
0.000647 -0.000602 0
0.001649 -0.000653 0
0.002513 -0.000444 0
0.003044 -0.000175 0
0.003221 0.000050 0
0.003115 0.000198 0
0.002820 0.000274 0
0.002426 0.000291 0
0.002011 0.000267 0
0.001627 0.000220 0
0.001308 0.000163 0
0.001070 0.000106 0
0.000914 0.000055 0
0.000832 0.000012 0
0.000810 -0.000019 0
0.000834 -0.000040 0
0.000887 -0.000051 0
0.000954 -0.000053 0
0.001023 -0.000050 0
0.001087 -0.000044 0
0.001142 -0.000036 0
0.001186 -0.000029 0
0.001221 -0.000024 0
0.001247 -0.000020 0
0.001267 -0.000017 0
0.001285 -0.000016 0
0.001300 -0.000017 0
0.001314 -0.000018 0
0.001326 -0.000019 0
0.001331 -0.000015 0
0.001315 0.000003 0
0.001248 0.000054 0
0.001079 0.000155 0
0.000758 0.000279 0
0.000317 0.000297 0
0.000000 0.000127 0
0.000000 0.000000 0
0.000000 0.000000 0
0.000000 0.000000 0
0.000000 0.000000 0
0.000000 0.000000 0
-0.000000 0.000001 0
-0.000001 0.000001 0
-0.000002 0.000001 0
-0.000003 0.000001 0
-0.000004 0.000001 0
-0.000006 0.000001 0
-0.000008 0.000001 0
-0.000010 0.000002 0
-0.000012 0.000002 0
-0.000015 0.000002 0
-0.000017 0.000002 0
-0.000020 0.000002 0
-0.000023 0.000002 0
-0.000026 0.000002 0
-0.000029 0.000002 0
-0.000031 0.000002 0
-0.000034 0.000002 0
-0.000035 0.000001 0
-0.000036 0.000001 0
-0.000035 0.000000 0
-0.000033 -0.000001 0
-0.000030 -0.000002 0
-0.000024 -0.000003 0
-0.000017 -0.000004 0
-0.000007 -0.000005 0
0.000004 -0.000006 0
0.000018 -0.000007 0
0.000034 -0.000009 0
0.000051 -0.000010 0
0.000071 -0.000011 0
0.000092 -0.000011 0
0.000114 -0.000012 0
0.000138 -0.000013 0
0.000163 -0.000014 0
0.000189 -0.000014 0
0.000215 -0.000015 0
0.000243 -0.000015 0
0.000272 -0.000016 0
0.000301 -0.000016 0
0.000332 -0.000017 0
0.000365 -0.000018 0
0.000399 -0.000020 0
0.000437 -0.000022 0
0.000478 -0.000025 0
0.000524 -0.000028 0
0.000577 -0.000034 0
0.000638 -0.000040 0
0.000710 -0.000050 0
0.000796 -0.000063 0
0.000900 -0.000082 0
0.001025 -0.000109 0
0.001172 -0.000142 0
0.001328 -0.000172 0
0.001449 -0.000145 0
0.001398 0.000086 0
0.000914 0.000596 0
0.000000 0.000456 0
0.000000 -0.000648 0
0.000839 -0.001651 0
0.002192 -0.001867 0
0.003444 -0.001396 0
0.004321 -0.000709 0
0.004748 -0.000072 0
0.004765 0.000401 0
0.004476 0.000687 0
0.003995 0.000808 0
0.003430 0.000798 0
0.002865 0.000701 0
0.002364 0.000556 0
0.001962 0.000393 0
0.001673 0.000237 0
0.001494 0.000102 0
0.001411 -0.000004 0
0.001401 -0.000078 0
0.001442 -0.000120 0
0.001512 -0.000137 0
0.001593 -0.000135 0
0.001671 -0.000120 0
0.001738 -0.000100 0
0.001792 -0.000080 0
0.001831 -0.000062 0
0.001856 -0.000048 0
0.001872 -0.000039 0
0.001880 -0.000033 0
0.001883 -0.000030 0
0.001879 -0.000027 0
0.001867 -0.000018 0
0.001835 0.000010 0
0.001763 0.000082 0
0.001612 0.000235 0
0.001330 0.000489 0
0.000888 0.000761 0
0.000355 0.000757 0
0.000000 0.000317 0
0.000000 0.000000 0
0.000000 0.000000 0
0.000000 0.000000 0
0.000000 0.000000 0
0.000000 0.000001 0
-0.000001 0.000001 0
-0.000002 0.000002 0
-0.000003 0.000002 0
-0.000006 0.000003 0
-0.000008 0.000003 0
-0.000011 0.000004 0
-0.000014 0.000004 0
-0.000018 0.000005 0
-0.000021 0.000005 0
-0.000026 0.000005 0
-0.000030 0.000006 0
-0.000035 0.000006 0
-0.000039 0.000006 0
-0.000044 0.000006 0
-0.000049 0.000006 0
-0.000052 0.000005 0
-0.000055 0.000004 0
-0.000057 0.000002 0
-0.000057 0.000000 0
-0.000055 -0.000002 0
-0.000050 -0.000005 0
-0.000042 -0.000009 0
-0.000031 -0.000012 0
-0.000016 -0.000016 0
0.000003 -0.000021 0
0.000025 -0.000025 0
0.000051 -0.000029 0
0.000081 -0.000033 0
0.000114 -0.000037 0
0.000150 -0.000040 0
0.000189 -0.000043 0
0.000231 -0.000046 0
0.000275 -0.000048 0
0.000320 -0.000050 0
0.000368 -0.000052 0
0.000416 -0.000054 0
0.000467 -0.000056 0
0.000518 -0.000058 0
0.000572 -0.000060 0
0.000627 -0.000063 0
0.000685 -0.000067 0
0.000747 -0.000072 0
0.000812 -0.000078 0
0.000883 -0.000087 0
0.000961 -0.000099 0
0.001048 -0.000113 0
0.001146 -0.000133 0
0.001256 -0.000158 0
0.001381 -0.000190 0
0.001520 -0.000229 0
0.001668 -0.000271 0
0.001809 -0.000303 0
0.001903 -0.000277 0
0.001865 -0.000070 0
0.001544 0.000536 0
0.000807 0.001399 0
0.000000 0.000914 0
0.000000 -0.001079 0
0.000831 -0.002795 0
0.002232 -0.003258 0
0.003592 -0.002573 0
0.004625 -0.001479 0
0.005231 -0.000394 0
0.005411 0.000470 0
0.005241 0.001043 0
0.004827 0.001337 0
0.004274 0.001397 0
0.003678 0.001285 0
0.003114 0.001066 0
0.002632 0.000796 0
0.002260 0.000522 0
0.002002 0.000275 0
0.001850 0.000074 0
0.001785 -0.000072 0
0.001782 -0.000162 0
0.001819 -0.000205 0
0.001875 -0.000210 0
0.001932 -0.000190 0
0.001982 -0.000158 0
0.002017 -0.000122 0
0.002036 -0.000088 0
0.002039 -0.000061 0
0.002029 -0.000041 0
0.002009 -0.000027 0
0.001980 -0.000016 0
0.001941 -0.000003 0
0.001889 0.000025 0
0.001813 0.000088 0
0.001691 0.000226 0
0.001491 0.000487 0
0.001176 0.000878 0
0.000744 0.001254 0
0.000276 0.001184 0
0.000000 0.000482 0
0.000000 0.000000 0
0.000000 0.000000 0
0.000000 0.000000 0
0.000000 0.000000 0
-0.000000 0.000001 0
-0.000001 0.000003 0
-0.000003 0.000004 0
-0.000005 0.000005 0
-0.000008 0.000006 0
-0.000011 0.000007 0
-0.000014 0.000007 0
-0.000018 0.000008 0
-0.000023 0.000009 0
-0.000028 0.000010 0
-0.000033 0.000011 0
-0.000038 0.000011 0
-0.000044 0.000012 0
-0.000050 0.000012 0
-0.000055 0.000011 0
-0.000060 0.000010 0
-0.000064 0.000009 0
-0.000067 0.000006 0
-0.000068 0.000003 0
-0.000067 -0.000002 0
-0.000062 -0.000007 0
-0.000054 -0.000013 0
-0.000041 -0.000021 0
-0.000025 -0.000029 0
-0.000003 -0.000037 0
0.000024 -0.000046 0
0.000056 -0.000055 0
0.000093 -0.000063 0
0.000135 -0.000071 0
0.000182 -0.000079 0
0.000232 -0.000086 0
0.000287 -0.000092 0
0.000344 -0.000097 0
0.000404 -0.000102 0
0.000467 -0.000106 0
0.000531 -0.000110 0
0.000598 -0.000113 0
0.000666 -0.000117 0
0.000736 -0.000121 0
0.000807 -0.000125 0
0.000881 -0.000131 0
0.000958 -0.000138 0
0.001038 -0.000147 0
0.001123 -0.000159 0
0.001212 -0.000174 0
0.001309 -0.000193 0
0.001413 -0.000218 0
0.001525 -0.000248 0
0.001646 -0.000285 0
0.001774 -0.000327 0
0.001901 -0.000369 0
0.002015 -0.000397 0
0.002087 -0.000378 0
0.002066 -0.000229 0
0.001864 0.000214 0
0.001379 0.001145 0
0.000614 0.002140 0
0.000000 0.001264 0
0.000000 -0.001480 0
0.000758 -0.003884 0
0.002071 -0.004629 0
0.003382 -0.003789 0
0.004429 -0.002348 0
0.005115 -0.000858 0
0.005421 0.000390 0
0.005390 0.001271 0
0.005101 0.001774 0
0.004645 0.001946 0
0.004109 0.001861 0
0.003568 0.001601 0
0.003077 0.001247 0
0.002672 0.000867 0
0.002368 0.000511 0
0.002161 0.000213 0
0.002039 -0.000010 0
0.001983 -0.000155 0
0.001969 -0.000230 0
0.001979 -0.000248 0
0.001996 -0.000227 0
0.002008 -0.000185 0
0.002007 -0.000134 0
0.001990 -0.000084 0
0.001956 -0.000042 0
0.001908 -0.000009 0
0.001849 0.000016 0
0.001779 0.000037 0
0.001701 0.000063 0
0.001610 0.000110 0
0.001499 0.000208 0
0.001351 0.000404 0
0.001144 0.000749 0
0.000858 0.001236 0
0.000506 0.001661 0
0.000169 0.001501 0
0.000000 0.000593 0
0.000000 0.000000 0
0.000000 0.000000 0
0.000000 0.000000 0
0.000000 0.000001 0
-0.000000 0.000002 0
-0.000001 0.000004 0
-0.000003 0.000006 0
-0.000006 0.000007 0
-0.000009 0.000009 0
-0.000012 0.000010 0
-0.000016 0.000012 0
-0.000021 0.000013 0
-0.000026 0.000014 0
-0.000031 0.000015 0
-0.000037 0.000016 0
-0.000043 0.000017 0
-0.000049 0.000018 0
-0.000055 0.000018 0
-0.000060 0.000017 0
-0.000065 0.000015 0
-0.000069 0.000012 0
-0.000071 0.000008 0
-0.000071 0.000002 0
-0.000068 -0.000006 0
-0.000061 -0.000015 0
-0.000050 -0.000026 0
-0.000033 -0.000038 0
-0.000011 -0.000051 0
0.000018 -0.000065 0
0.000052 -0.000080 0
0.000093 -0.000094 0
0.000139 -0.000108 0
0.000192 -0.000121 0
0.000250 -0.000134 0
0.000312 -0.000145 0
0.000379 -0.000155 0
0.000450 -0.000163 0
0.000523 -0.000171 0
0.000599 -0.000177 0
0.000677 -0.000183 0
0.000758 -0.000188 0
0.000839 -0.000194 0
0.000923 -0.000199 0
0.001008 -0.000206 0
0.001095 -0.000214 0
0.001184 -0.000224 0
0.001276 -0.000236 0
0.001371 -0.000253 0
0.001470 -0.000273 0
0.001574 -0.000299 0
0.001682 -0.000330 0
0.001793 -0.000366 0
0.001906 -0.000406 0
0.002014 -0.000444 0
0.002108 -0.000470 0
0.002168 -0.000457 0
0.002162 -0.000353 0
0.002038 -0.000053 0
0.001729 0.000617 0
0.001182 0.001786 0
0.000470 0.002778 0
0.000000 0.001527 0
0.000000 -0.001838 0
0.000671 -0.004867 0
0.001840 -0.005883 0
0.003018 -0.004931 0
0.003989 -0.003212 0
0.004674 -0.001387 0
0.005053 0.000194 0
0.005140 0.001363 0
0.004987 0.002082 0
0.004660 0.002389 0
0.004231 0.002362 0
0.003766 0.002097 0
0.003317 0.001692 0
0.002923 0.001231 0
0.002603 0.000785 0
0.002363 0.000402 0
0.002195 0.000106 0
0.002086 -0.000093 0
0.002019 -0.000202 0
0.001976 -0.000237 0
0.001943 -0.000219 0
0.001908 -0.000168 0
0.001861 -0.000104 0
0.001800 -0.000038 0
0.001724 0.000020 0
0.001634 0.000066 0
0.001533 0.000102 0
0.001425 0.000131 0
0.001312 0.000166 0
0.001192 0.000226 0
0.001064 0.000347 0
0.000916 0.000581 0
0.000734 0.000980 0
0.000511 0.001516 0
0.000267 0.001944 0
0.000071 0.001690 0
0.000000 0.000650 0
0.000000 0.000000 0
0.000000 0.000000 0
0.000000 0.000000 0
0.000000 0.000001 0
-0.000000 0.000003 0
-0.000002 0.000006 0
-0.000004 0.000008 0
-0.000006 0.000010 0
-0.000009 0.000012 0
-0.000013 0.000014 0
-0.000017 0.000016 0
-0.000021 0.000018 0
-0.000026 0.000019 0
-0.000032 0.000021 0
-0.000037 0.000022 0
-0.000043 0.000023 0
-0.000049 0.000024 0
-0.000055 0.000024 0
-0.000060 0.000022 0
-0.000065 0.000019 0
-0.000068 0.000015 0
-0.000070 0.000008 0
-0.000068 -0.000000 0
-0.000063 -0.000012 0
-0.000054 -0.000025 0
-0.000040 -0.000041 0
-0.000019 -0.000059 0
0.000008 -0.000079 0
0.000042 -0.000100 0
0.000083 -0.000121 0
0.000131 -0.000142 0
0.000186 -0.000162 0
0.000247 -0.000181 0
0.000315 -0.000199 0
0.000387 -0.000215 0
0.000464 -0.000229 0
0.000545 -0.000241 0
0.000630 -0.000252 0
0.000716 -0.000261 0
0.000805 -0.000268 0
0.000896 -0.000275 0
0.000987 -0.000282 0
0.001080 -0.000289 0
0.001174 -0.000297 0
0.001269 -0.000307 0
0.001366 -0.000319 0
0.001464 -0.000334 0
0.001563 -0.000353 0
0.001664 -0.000376 0
0.001767 -0.000405 0
0.001869 -0.000437 0
0.001970 -0.000473 0
0.002065 -0.000506 0
0.002145 -0.000529 0
0.002198 -0.000522 0
0.002204 -0.000451 0
0.002132 -0.000248 0
0.001936 0.000204 0
0.001571 0.001070 0
0.001017 0.002405 0
0.000373 0.003323 0
0.000000 0.001733 0
0.000000 -0.002152 0
0.000584 -0.005725 0
0.001587 -0.006977 0
0.002596 -0.005939 0
0.003441 -0.004004 0
0.004072 -0.001921 0
0.004475 -0.000077 0
0.004650 0.001337 0
0.004620 0.002254 0
0.004428 0.002702 0
0.004125 0.002755 0
0.003763 0.002515 0
0.003387 0.002090 0
0.003033 0.001581 0
0.002724 0.001071 0
0.002470 0.000621 0
0.002271 0.000267 0
0.002118 0.000021 0
0.002001 -0.000120 0
0.001907 -0.000173 0
0.001823 -0.000159 0
0.001738 -0.000103 0
0.001645 -0.000027 0
0.001540 0.000053 0
0.001422 0.000124 0
0.001294 0.000182 0
0.001159 0.000224 0
0.001021 0.000259 0
0.000883 0.000296 0
0.000750 0.000357 0
0.000622 0.000484 0
0.000492 0.000733 0
0.000353 0.001154 0
0.000204 0.001703 0
0.000070 0.002101 0
-0.000003 0.001768 0
0.000000 0.000664 0
0.000000 0.000000 0
0.000000 0.000000 0
0.000000 0.000000 0
0.000000 0.000001 0
-0.000000 0.000004 0
-0.000002 0.000008 0
-0.000004 0.000011 0
-0.000006 0.000013 0
-0.000009 0.000016 0
-0.000012 0.000018 0
-0.000016 0.000020 0
-0.000020 0.000022 0
-0.000025 0.000024 0
-0.000030 0.000026 0
-0.000035 0.000028 0
-0.000040 0.000029 0
-0.000046 0.000030 0
-0.000051 0.000029 0
-0.000056 0.000027 0
-0.000060 0.000023 0
-0.000063 0.000017 0
-0.000063 0.000008 0
-0.000061 -0.000004 0
-0.000055 -0.000020 0
-0.000044 -0.000038 0
-0.000027 -0.000060 0
-0.000003 -0.000085 0
0.000028 -0.000112 0
0.000067 -0.000140 0
0.000114 -0.000169 0
0.000168 -0.000197 0
0.000230 -0.000224 0
0.000299 -0.000250 0
0.000375 -0.000274 0
0.000456 -0.000295 0
0.000542 -0.000313 0
0.000631 -0.000329 0
0.000724 -0.000342 0
0.000819 -0.000353 0
0.000915 -0.000362 0
0.001013 -0.000370 0
0.001112 -0.000378 0
0.001211 -0.000386 0
0.001310 -0.000395 0
0.001409 -0.000405 0
0.001509 -0.000418 0
0.001608 -0.000434 0
0.001707 -0.000453 0
0.001805 -0.000477 0
0.001901 -0.000504 0
0.001993 -0.000533 0
0.002078 -0.000561 0
0.002150 -0.000580 0
0.002201 -0.000578 0
0.002216 -0.000529 0
0.002176 -0.000390 0
0.002054 -0.000085 0
0.001814 0.000507 0
0.001425 0.001537 0
0.000887 0.002985 0
0.000308 0.003795 0
0.000000 0.001900 0
0.000000 -0.002422 0
0.000498 -0.006455 0
0.001332 -0.007895 0
0.002160 -0.006786 0
0.002860 -0.004689 0
0.003408 -0.002421 0
0.003802 -0.000384 0
0.004034 0.001217 0
0.004108 0.002303 0
0.004040 0.002884 0
0.003864 0.003027 0
0.003613 0.002835 0
0.003325 0.002421 0
0.003030 0.001894 0
0.002749 0.001349 0
0.002498 0.000855 0
0.002281 0.000458 0
0.002096 0.000176 0
0.001938 0.000009 0
0.001798 -0.000058 0
0.001667 -0.000050 0
0.001537 0.000009 0
0.001402 0.000094 0
0.001260 0.000184 0
0.001109 0.000265 0
0.000952 0.000329 0
0.000793 0.000375 0
0.000636 0.000407 0
0.000488 0.000437 0
0.000355 0.000488 0
0.000239 0.000604 0
0.000138 0.000849 0
0.000047 0.001267 0
-0.000031 0.001799 0
-0.000070 0.002150 0
-0.000050 0.001760 0
0.000000 0.000647 0
0.000000 0.000000 0
0.000000 0.000000 0
0.000000 0.000000 0
0.000000 0.000001 0
-0.000000 0.000005 0
-0.000001 0.000009 0
-0.000003 0.000013 0
-0.000005 0.000016 0
-0.000008 0.000019 0
-0.000011 0.000022 0
-0.000014 0.000024 0
-0.000018 0.000027 0
-0.000022 0.000029 0
-0.000026 0.000031 0
-0.000030 0.000033 0
-0.000035 0.000034 0
-0.000039 0.000035 0
-0.000044 0.000034 0
-0.000048 0.000031 0
-0.000052 0.000026 0
-0.000054 0.000018 0
-0.000054 0.000007 0
-0.000050 -0.000009 0
-0.000043 -0.000029 0
-0.000031 -0.000053 0
-0.000012 -0.000082 0
0.000014 -0.000114 0
0.000049 -0.000149 0
0.000092 -0.000185 0
0.000144 -0.000222 0
0.000204 -0.000258 0
0.000272 -0.000293 0
0.000348 -0.000326 0
0.000430 -0.000355 0
0.000518 -0.000382 0
0.000611 -0.000404 0
0.000707 -0.000423 0
0.000806 -0.000439 0
0.000907 -0.000452 0
0.001009 -0.000463 0
0.001112 -0.000471 0
0.001215 -0.000479 0
0.001317 -0.000487 0
0.001419 -0.000495 0
0.001520 -0.000505 0
0.001619 -0.000517 0
0.001716 -0.000532 0
0.001812 -0.000550 0
0.001903 -0.000570 0
0.001990 -0.000593 0
0.002068 -0.000614 0
0.002136 -0.000629 0
0.002185 -0.000628 0
0.002208 -0.000595 0
0.002191 -0.000498 0
0.002115 -0.000289 0
0.001958 0.000115 0
0.001693 0.000832 0
0.001299 0.001997 0
0.000786 0.003522 0
0.000263 0.004210 0
0.000000 0.002041 0
0.000000 -0.002650 0
0.000414 -0.007058 0
0.001085 -0.008639 0
0.001737 -0.007467 0
0.002290 -0.005253 0
0.002745 -0.002864 0
0.003110 -0.000703 0
0.003375 0.001031 0
0.003529 0.002248 0
0.003569 0.002945 0
0.003508 0.003182 0
0.003366 0.003053 0
0.003168 0.002673 0
0.002939 0.002157 0
0.002699 0.001603 0
0.002463 0.001089 0
0.002240 0.000668 0
0.002034 0.000363 0
0.001845 0.000178 0
0.001668 0.000098 0
0.001499 0.000102 0
0.001333 0.000161 0
0.001166 0.000250 0
0.000996 0.000346 0
0.000823 0.000432 0
0.000648 0.000498 0
0.000476 0.000541 0
0.000313 0.000563 0
0.000167 0.000576 0
0.000044 0.000606 0
-0.000051 0.000700 0
-0.000122 0.000925 0
-0.000169 0.001323 0
-0.000187 0.001820 0
-0.000157 0.002120 0
-0.000075 0.001697 0
0.000000 0.000614 0
0.000000 0.000000 0
0.000000 0.000000 0
0.000000 0.000000 0
0.000000 0.000002 0
-0.000000 0.000006 0
-0.000001 0.000011 0
-0.000003 0.000015 0
-0.000004 0.000018 0
-0.000006 0.000021 0
-0.000009 0.000024 0
-0.000011 0.000027 0
-0.000014 0.000030 0
-0.000017 0.000033 0
-0.000020 0.000035 0
-0.000023 0.000037 0
-0.000027 0.000038 0
-0.000030 0.000039 0
-0.000034 0.000038 0
-0.000037 0.000035 0
-0.000040 0.000029 0
-0.000041 0.000019 0
-0.000041 0.000005 0
-0.000038 -0.000014 0
-0.000030 -0.000039 0
-0.000017 -0.000070 0
0.000004 -0.000105 0
0.000032 -0.000146 0
0.000069 -0.000189 0
0.000116 -0.000235 0
0.000172 -0.000280 0
0.000237 -0.000326 0
0.000311 -0.000368 0
0.000393 -0.000408 0
0.000481 -0.000444 0
0.000575 -0.000475 0
0.000673 -0.000502 0
0.000775 -0.000524 0
0.000879 -0.000542 0
0.000984 -0.000556 0
0.001090 -0.000567 0
0.001196 -0.000576 0
0.001301 -0.000583 0
0.001404 -0.000590 0
0.001506 -0.000597 0
0.001606 -0.000605 0
0.001702 -0.000614 0
0.001796 -0.000626 0
0.001884 -0.000640 0
0.001968 -0.000655 0
0.002043 -0.000669 0
0.002108 -0.000679 0
0.002157 -0.000678 0
0.002186 -0.000652 0
0.002185 -0.000583 0
0.002141 -0.000437 0
0.002040 -0.000158 0
0.001860 0.000337 0
0.001583 0.001166 0
0.001192 0.002444 0
0.000707 0.004021 0
0.000229 0.004581 0
0.000000 0.002163 0
0.000000 -0.002837 0
0.000334 -0.007541 0
0.000854 -0.009218 0
0.001345 -0.007991 0
0.001762 -0.005697 0
0.002124 -0.003241 0
0.002448 -0.001015 0
0.002727 0.000798 0
0.002939 0.002109 0
0.003066 0.002904 0
0.003104 0.003230 0
0.003060 0.003174 0
0.002948 0.002847 0
0.002786 0.002363 0
0.002591 0.001825 0
0.002379 0.001314 0
0.002160 0.000886 0
0.001944 0.000571 0
0.001734 0.000375 0
0.001532 0.000287 0
0.001336 0.000285 0
0.001145 0.000342 0
0.000957 0.000431 0
0.000770 0.000528 0
0.000585 0.000613 0
0.000404 0.000676 0
0.000232 0.000710 0
0.000074 0.000716 0
-0.000061 0.000705 0
-0.000166 0.000706 0
-0.000240 0.000770 0
-0.000283 0.000966 0
-0.000296 0.001332 0
-0.000272 0.001786 0
-0.000197 0.002038 0
-0.000084 0.001604 0
0.000000 0.000572 0
0.000000 0.000000 0
0.000000 0.000000 0
0.000000 0.000000 0
0.000000 0.000002 0
-0.000000 0.000006 0
-0.000001 0.000012 0
-0.000002 0.000016 0
-0.000003 0.000020 0
-0.000004 0.000023 0
-0.000006 0.000027 0
-0.000008 0.000030 0
-0.000009 0.000032 0
-0.000011 0.000035 0
-0.000013 0.000038 0
-0.000015 0.000040 0
-0.000017 0.000041 0
-0.000019 0.000042 0
-0.000022 0.000041 0
-0.000024 0.000037 0
-0.000026 0.000031 0
-0.000027 0.000019 0
-0.000026 0.000003 0
-0.000023 -0.000020 0
-0.000015 -0.000050 0
-0.000002 -0.000087 0
0.000020 -0.000130 0
0.000049 -0.000179 0
0.000089 -0.000232 0
0.000139 -0.000288 0
0.000199 -0.000343 0
0.000269 -0.000398 0
0.000348 -0.000449 0
0.000435 -0.000496 0
0.000529 -0.000538 0
0.000628 -0.000574 0
0.000731 -0.000604 0