# vtk DataFile Version 2.0
generated by CFD-lab course output (written by Tobias Neckel) 
ASCII

DATASET STRUCTURED_GRID
DIMENSIONS  99 49 1 
POINTS 4851 float

0.000000 0.000000 0
0.020000 0.000000 0
0.040000 0.000000 0
0.060000 0.000000 0
0.080000 0.000000 0
0.100000 0.000000 0
0.120000 0.000000 0
0.140000 0.000000 0
0.160000 0.000000 0
0.180000 0.000000 0
0.200000 0.000000 0
0.220000 0.000000 0
0.240000 0.000000 0
0.260000 0.000000 0
0.280000 0.000000 0
0.300000 0.000000 0
0.320000 0.000000 0
0.340000 0.000000 0
0.360000 0.000000 0
0.380000 0.000000 0
0.400000 0.000000 0
0.420000 0.000000 0
0.440000 0.000000 0
0.460000 0.000000 0
0.480000 0.000000 0
0.500000 0.000000 0
0.520000 0.000000 0
0.540000 0.000000 0
0.560000 0.000000 0
0.580000 0.000000 0
0.600000 0.000000 0
0.620000 0.000000 0
0.640000 0.000000 0
0.660000 0.000000 0
0.680000 0.000000 0
0.700000 0.000000 0
0.720000 0.000000 0
0.740000 0.000000 0
0.760000 0.000000 0
0.780000 0.000000 0
0.800000 0.000000 0
0.820000 0.000000 0
0.840000 0.000000 0
0.860000 0.000000 0
0.880000 0.000000 0
0.900000 0.000000 0
0.920000 0.000000 0
0.940000 0.000000 0
0.960000 0.000000 0
0.980000 0.000000 0
1.000000 0.000000 0
1.020000 0.000000 0
1.040000 0.000000 0
1.060000 0.000000 0
1.080000 0.000000 0
1.100000 0.000000 0
1.120000 0.000000 0
1.140000 0.000000 0
1.160000 0.000000 0
1.180000 0.000000 0
1.200000 0.000000 0
1.220000 0.000000 0
1.240000 0.000000 0
1.260000 0.000000 0
1.280000 0.000000 0
1.300000 0.000000 0
1.320000 0.000000 0
1.340000 0.000000 0
1.360000 0.000000 0
1.380000 0.000000 0
1.400000 0.000000 0
1.420000 0.000000 0
1.440000 0.000000 0
1.460000 0.000000 0
1.480000 0.000000 0
1.500000 0.000000 0
1.520000 0.000000 0
1.540000 0.000000 0
1.560000 0.000000 0
1.580000 0.000000 0
1.600000 0.000000 0
1.620000 0.000000 0
1.640000 0.000000 0
1.660000 0.000000 0
1.680000 0.000000 0
1.700000 0.000000 0
1.720000 0.000000 0
1.740000 0.000000 0
1.760000 0.000000 0
1.780000 0.000000 0
1.800000 0.000000 0
1.820000 0.000000 0
1.840000 0.000000 0
1.860000 0.000000 0
1.880000 0.000000 0
1.900000 0.000000 0
1.920000 0.000000 0
1.940000 0.000000 0
1.960000 0.000000 0
0.000000 0.020000 0
0.020000 0.020000 0
0.040000 0.020000 0
0.060000 0.020000 0
0.080000 0.020000 0
0.100000 0.020000 0
0.120000 0.020000 0
0.140000 0.020000 0
0.160000 0.020000 0
0.180000 0.020000 0
0.200000 0.020000 0
0.220000 0.020000 0
0.240000 0.020000 0
0.260000 0.020000 0
0.280000 0.020000 0
0.300000 0.020000 0
0.320000 0.020000 0
0.340000 0.020000 0
0.360000 0.020000 0
0.380000 0.020000 0
0.400000 0.020000 0
0.420000 0.020000 0
0.440000 0.020000 0
0.460000 0.020000 0
0.480000 0.020000 0
0.500000 0.020000 0
0.520000 0.020000 0
0.540000 0.020000 0
0.560000 0.020000 0
0.580000 0.020000 0
0.600000 0.020000 0
0.620000 0.020000 0
0.640000 0.020000 0
0.660000 0.020000 0
0.680000 0.020000 0
0.700000 0.020000 0
0.720000 0.020000 0
0.740000 0.020000 0
0.760000 0.020000 0
0.780000 0.020000 0
0.800000 0.020000 0
0.820000 0.020000 0
0.840000 0.020000 0
0.860000 0.020000 0
0.880000 0.020000 0
0.900000 0.020000 0
0.920000 0.020000 0
0.940000 0.020000 0
0.960000 0.020000 0
0.980000 0.020000 0
1.000000 0.020000 0
1.020000 0.020000 0
1.040000 0.020000 0
1.060000 0.020000 0
1.080000 0.020000 0
1.100000 0.020000 0
1.120000 0.020000 0
1.140000 0.020000 0
1.160000 0.020000 0
1.180000 0.020000 0
1.200000 0.020000 0
1.220000 0.020000 0
1.240000 0.020000 0
1.260000 0.020000 0
1.280000 0.020000 0
1.300000 0.020000 0
1.320000 0.020000 0
1.340000 0.020000 0
1.360000 0.020000 0
1.380000 0.020000 0
1.400000 0.020000 0
1.420000 0.020000 0
1.440000 0.020000 0
1.460000 0.020000 0
1.480000 0.020000 0
1.500000 0.020000 0
1.520000 0.020000 0
1.540000 0.020000 0
1.560000 0.020000 0
1.580000 0.020000 0
1.600000 0.020000 0
1.620000 0.020000 0
1.640000 0.020000 0
1.660000 0.020000 0
1.680000 0.020000 0
1.700000 0.020000 0
1.720000 0.020000 0
1.740000 0.020000 0
1.760000 0.020000 0
1.780000 0.020000 0
1.800000 0.020000 0
1.820000 0.020000 0
1.840000 0.020000 0
1.860000 0.020000 0
1.880000 0.020000 0
1.900000 0.020000 0
1.920000 0.020000 0
1.940000 0.020000 0
1.960000 0.020000 0
0.000000 0.040000 0
0.020000 0.040000 0
0.040000 0.040000 0
0.060000 0.040000 0
0.080000 0.040000 0
0.100000 0.040000 0
0.120000 0.040000 0
0.140000 0.040000 0
0.160000 0.040000 0
0.180000 0.040000 0
0.200000 0.040000 0
0.220000 0.040000 0
0.240000 0.040000 0
0.260000 0.040000 0
0.280000 0.040000 0
0.300000 0.040000 0
0.320000 0.040000 0
0.340000 0.040000 0
0.360000 0.040000 0
0.380000 0.040000 0
0.400000 0.040000 0
0.420000 0.040000 0
0.440000 0.040000 0
0.460000 0.040000 0
0.480000 0.040000 0
0.500000 0.040000 0
0.520000 0.040000 0
0.540000 0.040000 0
0.560000 0.040000 0
0.580000 0.040000 0
0.600000 0.040000 0
0.620000 0.040000 0
0.640000 0.040000 0
0.660000 0.040000 0
0.680000 0.040000 0
0.700000 0.040000 0
0.720000 0.040000 0
0.740000 0.040000 0
0.760000 0.040000 0
0.780000 0.040000 0
0.800000 0.040000 0
0.820000 0.040000 0
0.840000 0.040000 0
0.860000 0.040000 0
0.880000 0.040000 0
0.900000 0.040000 0
0.920000 0.040000 0
0.940000 0.040000 0
0.960000 0.040000 0
0.980000 0.040000 0
1.000000 0.040000 0
1.020000 0.040000 0
1.040000 0.040000 0
1.060000 0.040000 0
1.080000 0.040000 0
1.100000 0.040000 0
1.120000 0.040000 0
1.140000 0.040000 0
1.160000 0.040000 0
1.180000 0.040000 0
1.200000 0.040000 0
1.220000 0.040000 0
1.240000 0.040000 0
1.260000 0.040000 0
1.280000 0.040000 0
1.300000 0.040000 0
1.320000 0.040000 0
1.340000 0.040000 0
1.360000 0.040000 0
1.380000 0.040000 0
1.400000 0.040000 0
1.420000 0.040000 0
1.440000 0.040000 0
1.460000 0.040000 0
1.480000 0.040000 0
1.500000 0.040000 0
1.520000 0.040000 0
1.540000 0.040000 0
1.560000 0.040000 0
1.580000 0.040000 0
1.600000 0.040000 0
1.620000 0.040000 0
1.640000 0.040000 0
1.660000 0.040000 0
1.680000 0.040000 0
1.700000 0.040000 0
1.720000 0.040000 0
1.740000 0.040000 0
1.760000 0.040000 0
1.780000 0.040000 0
1.800000 0.040000 0
1.820000 0.040000 0
1.840000 0.040000 0
1.860000 0.040000 0
1.880000 0.040000 0
1.900000 0.040000 0
1.920000 0.040000 0
1.940000 0.040000 0
1.960000 0.040000 0
0.000000 0.060000 0
0.020000 0.060000 0
0.040000 0.060000 0
0.060000 0.060000 0
0.080000 0.060000 0
0.100000 0.060000 0
0.120000 0.060000 0
0.140000 0.060000 0
0.160000 0.060000 0
0.180000 0.060000 0
0.200000 0.060000 0
0.220000 0.060000 0
0.240000 0.060000 0
0.260000 0.060000 0
0.280000 0.060000 0
0.300000 0.060000 0
0.320000 0.060000 0
0.340000 0.060000 0
0.360000 0.060000 0
0.380000 0.060000 0
0.400000 0.060000 0
0.420000 0.060000 0
0.440000 0.060000 0
0.460000 0.060000 0
0.480000 0.060000 0
0.500000 0.060000 0
0.520000 0.060000 0
0.540000 0.060000 0
0.560000 0.060000 0
0.580000 0.060000 0
0.600000 0.060000 0
0.620000 0.060000 0
0.640000 0.060000 0
0.660000 0.060000 0
0.680000 0.060000 0
0.700000 0.060000 0
0.720000 0.060000 0
0.740000 0.060000 0
0.760000 0.060000 0
0.780000 0.060000 0
0.800000 0.060000 0
0.820000 0.060000 0
0.840000 0.060000 0
0.860000 0.060000 0
0.880000 0.060000 0
0.900000 0.060000 0
0.920000 0.060000 0
0.940000 0.060000 0
0.960000 0.060000 0
0.980000 0.060000 0
1.000000 0.060000 0
1.020000 0.060000 0
1.040000 0.060000 0
1.060000 0.060000 0
1.080000 0.060000 0
1.100000 0.060000 0
1.120000 0.060000 0
1.140000 0.060000 0
1.160000 0.060000 0
1.180000 0.060000 0
1.200000 0.060000 0
1.220000 0.060000 0
1.240000 0.060000 0
1.260000 0.060000 0
1.280000 0.060000 0
1.300000 0.060000 0
1.320000 0.060000 0
1.340000 0.060000 0
1.360000 0.060000 0
1.380000 0.060000 0
1.400000 0.060000 0
1.420000 0.060000 0
1.440000 0.060000 0
1.460000 0.060000 0
1.480000 0.060000 0
1.500000 0.060000 0
1.520000 0.060000 0
1.540000 0.060000 0
1.560000 0.060000 0
1.580000 0.060000 0
1.600000 0.060000 0
1.620000 0.060000 0
1.640000 0.060000 0
1.660000 0.060000 0
1.680000 0.060000 0
1.700000 0.060000 0
1.720000 0.060000 0
1.740000 0.060000 0
1.760000 0.060000 0
1.780000 0.060000 0
1.800000 0.060000 0
1.820000 0.060000 0
1.840000 0.060000 0
1.860000 0.060000 0
1.880000 0.060000 0
1.900000 0.060000 0
1.920000 0.060000 0
1.940000 0.060000 0
1.960000 0.060000 0
0.000000 0.080000 0
0.020000 0.080000 0
0.040000 0.080000 0
0.060000 0.080000 0
0.080000 0.080000 0
0.100000 0.080000 0
0.120000 0.080000 0
0.140000 0.080000 0
0.160000 0.080000 0
0.180000 0.080000 0
0.200000 0.080000 0
0.220000 0.080000 0
0.240000 0.080000 0
0.260000 0.080000 0
0.280000 0.080000 0
0.300000 0.080000 0
0.320000 0.080000 0
0.340000 0.080000 0
0.360000 0.080000 0
0.380000 0.080000 0
0.400000 0.080000 0
0.420000 0.080000 0
0.440000 0.080000 0
0.460000 0.080000 0
0.480000 0.080000 0
0.500000 0.080000 0
0.520000 0.080000 0
0.540000 0.080000 0
0.560000 0.080000 0
0.580000 0.080000 0
0.600000 0.080000 0
0.620000 0.080000 0
0.640000 0.080000 0
0.660000 0.080000 0
0.680000 0.080000 0
0.700000 0.080000 0
0.720000 0.080000 0
0.740000 0.080000 0
0.760000 0.080000 0
0.780000 0.080000 0
0.800000 0.080000 0
0.820000 0.080000 0
0.840000 0.080000 0
0.860000 0.080000 0
0.880000 0.080000 0
0.900000 0.080000 0
0.920000 0.080000 0
0.940000 0.080000 0
0.960000 0.080000 0
0.980000 0.080000 0
1.000000 0.080000 0
1.020000 0.080000 0
1.040000 0.080000 0
1.060000 0.080000 0
1.080000 0.080000 0
1.100000 0.080000 0
1.120000 0.080000 0
1.140000 0.080000 0
1.160000 0.080000 0
1.180000 0.080000 0
1.200000 0.080000 0
1.220000 0.080000 0
1.240000 0.080000 0
1.260000 0.080000 0
1.280000 0.080000 0
1.300000 0.080000 0
1.320000 0.080000 0
1.340000 0.080000 0
1.360000 0.080000 0
1.380000 0.080000 0
1.400000 0.080000 0
1.420000 0.080000 0
1.440000 0.080000 0
1.460000 0.080000 0
1.480000 0.080000 0
1.500000 0.080000 0
1.520000 0.080000 0
1.540000 0.080000 0
1.560000 0.080000 0
1.580000 0.080000 0
1.600000 0.080000 0
1.620000 0.080000 0
1.640000 0.080000 0
1.660000 0.080000 0
1.680000 0.080000 0
1.700000 0.080000 0
1.720000 0.080000 0
1.740000 0.080000 0
1.760000 0.080000 0
1.780000 0.080000 0
1.800000 0.080000 0
1.820000 0.080000 0
1.840000 0.080000 0
1.860000 0.080000 0
1.880000 0.080000 0
[...]
POINT_DATA 4851 

VECTORS velocity float
0.000000 0.000000 0
0.000096 0.000000 0
0.000229 0.000000 0
0.000325 0.000000 0
0.000369 0.000000 0
0.000374 0.000000 0
0.000355 0.000000 0
0.000329 0.000000 0
0.000303 0.000000 0
0.000283 0.000000 0
0.000269 0.000000 0
0.000263 0.000000 0
0.000261 0.000000 0
0.000261 0.000000 0
0.000262 0.000000 0
0.000264 0.000000 0
0.000265 0.000000 0
0.000265 0.000000 0
0.000265 0.000000 0
0.000264 0.000000 0
0.000263 0.000000 0
0.000261 0.000000 0
0.000260 0.000000 0
0.000258 0.000000 0
0.000256 0.000000 0
0.000254 0.000000 0
0.000251 0.000000 0
0.000248 0.000000 0
0.000245 0.000000 0
0.000240 0.000000 0
0.000233 0.000000 0
0.000219 0.000000 0
0.000194 0.000000 0
0.000154 0.000000 0
0.000097 0.000000 0
0.000035 0.000000 0
0.000000 0.000000 0
0.000000 0.000000 0
0.000000 0.000000 0
0.000000 0.000000 0
0.000000 0.000000 0
-0.000001 0.000000 0
0.000003 0.000000 0
0.000012 0.000000 0
0.000026 0.000000 0
0.000043 0.000000 0
0.000061 0.000000 0
0.000080 0.000000 0
0.000097 0.000000 0
0.000113 0.000000 0
0.000126 0.000000 0
0.000137 0.000000 0
0.000145 0.000000 0
0.000151 0.000000 0
0.000154 0.000000 0
0.000156 0.000000 0
0.000156 0.000000 0
0.000155 0.000000 0
0.000154 0.000000 0
0.000153 0.000000 0
0.000151 0.000000 0
0.000149 0.000000 0
0.000148 0.000000 0
0.000146 0.000000 0
0.000145 0.000000 0
0.000145 0.000000 0
0.000144 0.000000 0
0.000144 0.000000 0
0.000144 0.000000 0
0.000144 0.000000 0
0.000144 0.000000 0
0.000145 0.000000 0
0.000146 0.000000 0
0.000147 0.000000 0
0.000148 0.000000 0
0.000149 0.000000 0
0.000151 0.000000 0
0.000153 0.000000 0
0.000155 0.000000 0
0.000158 0.000000 0
0.000162 0.000000 0
0.000165 0.000000 0
0.000170 0.000000 0
0.000175 0.000000 0
0.000181 0.000000 0
0.000188 0.000000 0
0.000196 0.000000 0
0.000207 0.000000 0
0.000220 0.000000 0
0.000236 0.000000 0
0.000257 0.000000 0
0.000286 0.000000 0
0.000325 0.000000 0
0.000380 0.000000 0
0.000454 0.000000 0
0.000541 0.000000 0
0.000592 0.000000 0
0.000453 0.000000 0
0.000000 0.000000 0
0.000000 -0.000096 0
0.000262 -0.000229 0
0.000637 -0.000229 0
0.000929 -0.000141 0
0.001086 -0.000050 0
0.001128 0.000013 0
0.001098 0.000044 0
0.001034 0.000052 0
0.000966 0.000045 0
0.000909 0.000033 0
0.000869 0.000019 0
0.000847 0.000008 0
0.000838 0.000001 0
0.000838 -0.000003 0
0.000841 -0.000004 0
0.000844 -0.000003 0
0.000847 -0.000002 0
0.000847 -0.000001 0
0.000845 0.000001 0
0.000841 0.000002 0
0.000836 0.000002 0
0.000830 0.000003 0
0.000822 0.000003 0
0.000814 0.000003 0
0.000805 0.000004 0
0.000795 0.000004 0
0.000783 0.000004 0
0.000769 0.000005 0
0.000751 0.000007 0
0.000727 0.000012 0
0.000692 0.000021 0
0.000636 0.000038 0
0.000551 0.000064 0
0.000425 0.000097 0
0.000263 0.000119 0
0.000095 0.000096 0
0.000000 0.000034 0
0.000000 0.000000 0
0.000000 0.000000 0
0.000000 0.000000 0
0.000000 0.000001 0
0.000003 -0.000003 0
0.000021 -0.000013 0
0.000056 -0.000023 0
0.000104 -0.000030 0
0.000162 -0.000035 0
0.000224 -0.000037 0
0.000287 -0.000036 0
0.000347 -0.000033 0
0.000402 -0.000029 0
0.000448 -0.000024 0
0.000486 -0.000018 0
0.000515 -0.000013 0
0.000535 -0.000009 0
0.000548 -0.000005 0
0.000556 -0.000002 0
0.000558 0.000001 0
0.000557 0.000002 0
0.000554 0.000003 0
0.000549 0.000004 0
0.000543 0.000004 0
0.000538 0.000003 0
0.000532 0.000003 0
0.000527 0.000003 0
0.000523 0.000002 0
0.000520 0.000002 0
0.000518 0.000001 0
0.000517 0.000001 0
0.000516 0.000000 0
0.000517 -0.000000 0
0.000518 -0.000001 0
0.000520 -0.000001 0
0.000522 -0.000001 0
0.000526 -0.000002 0
0.000530 -0.000002 0
0.000536 -0.000003 0
0.000542 -0.000003 0
0.000549 -0.000004 0
0.000558 -0.000005 0
0.000568 -0.000006 0
0.000579 -0.000007 0
0.000593 -0.000008 0
0.000608 -0.000009 0
0.000626 -0.000011 0
0.000647 -0.000013 0
0.000671 -0.000015 0
0.000700 -0.000019 0
0.000734 -0.000023 0
0.000776 -0.000029 0
0.000828 -0.000037 0
0.000892 -0.000050 0
0.000973 -0.000068 0
0.001075 -0.000094 0
0.001200 -0.000129 0
0.001339 -0.000161 0
0.001446 -0.000138 0
0.001390 0.000089 0
0.000906 0.000593 0
0.000000 0.000453 0
0.000000 -0.000263 0
0.000351 -0.000638 0
0.000872 -0.000668 0
0.001304 -0.000450 0
0.001565 -0.000200 0
0.001666 -0.000013 0
0.001655 0.000093 0
0.001586 0.000132 0
0.001499 0.000125 0
0.001422 0.000096 0
0.001365 0.000061 0
0.001331 0.000030 0
0.001315 0.000009 0
0.001311 -0.000003 0
0.001313 -0.000007 0
0.001315 -0.000007 0
0.001316 -0.000003 0
0.001314 0.000001 0
0.001308 0.000005 0
0.001300 0.000008 0
0.001289 0.000011 0
0.001276 0.000013 0
0.001260 0.000015 0
0.001243 0.000016 0
0.001223 0.000019 0
0.001201 0.000021 0
0.001175 0.000025 0
0.001143 0.000031 0
0.001104 0.000041 0
0.001052 0.000059 0
0.000981 0.000090 0
0.000880 0.000140 0
0.000740 0.000210 0
0.000554 0.000287 0
0.000333 0.000329 0
0.000120 0.000262 0
0.000000 0.000095 0
0.000000 0.000000 0
0.000000 0.000000 0
0.000000 0.000000 0
0.000000 -0.000003 0
0.000013 -0.000021 0
0.000052 -0.000052 0
0.000117 -0.000083 0
0.000202 -0.000106 0
0.000302 -0.000120 0
0.000409 -0.000125 0
0.000516 -0.000123 0
0.000619 -0.000114 0
0.000712 -0.000100 0
0.000792 -0.000084 0
0.000858 -0.000066 0
0.000909 -0.000049 0
0.000946 -0.000034 0
0.000971 -0.000020 0
0.000985 -0.000009 0
0.000991 -0.000001 0
0.000990 0.000005 0
0.000985 0.000009 0
0.000977 0.000011 0
0.000968 0.000012 0
0.000958 0.000011 0
0.000949 0.000011 0
0.000940 0.000009 0
0.000933 0.000008 0
0.000927 0.000006 0
0.000922 0.000004 0
0.000919 0.000002 0
0.000918 0.000001 0
0.000918 -0.000001 0
0.000920 -0.000003 0
0.000923 -0.000004 0
0.000927 -0.000006 0
0.000933 -0.000007 0
0.000941 -0.000009 0
0.000950 -0.000011 0
0.000961 -0.000013 0
0.000974 -0.000015 0
0.000989 -0.000018 0
0.001007 -0.000021 0
0.001027 -0.000024 0
0.001050 -0.000028 0
0.001076 -0.000033 0
0.001107 -0.000038 0
0.001142 -0.000045 0
0.001182 -0.000053 0
0.001229 -0.000063 0
0.001284 -0.000076 0
0.001349 -0.000093 0
0.001425 -0.000115 0
0.001514 -0.000145 0
0.001618 -0.000183 0
0.001732 -0.000226 0
0.001842 -0.000263 0
0.001912 -0.000246 0
0.001858 -0.000051 0
0.001531 0.000541 0
0.000798 0.001390 0
0.000000 0.000906 0
0.000000 -0.000448 0
0.000365 -0.001102 0
0.000925 -0.001183 0
0.001406 -0.000835 0
0.001713 -0.000411 0
0.001849 -0.000077 0
0.001860 0.000124 0
0.001802 0.000207 0
0.001719 0.000209 0
0.001640 0.000166 0
0.001580 0.000110 0
0.001542 0.000058 0
0.001522 0.000021 0
0.001513 -0.000000 0
0.001510 -0.000008 0
0.001507 -0.000007 0
0.001503 -0.000001 0
0.001495 0.000007 0
0.001484 0.000014 0
0.001469 0.000021 0
0.001451 0.000026 0
0.001430 0.000031 0
0.001406 0.000035 0
0.001379 0.000040 0
0.001348 0.000045 0
0.001313 0.000052 0
0.001273 0.000062 0
0.001226 0.000076 0
0.001168 0.000098 0
0.001095 0.000135 0
0.001000 0.000192 0
0.000876 0.000278 0
0.000716 0.000390 0
0.000519 0.000503 0
0.000302 0.000552 0
0.000104 0.000429 0
0.000000 0.000154 0
0.000000 0.000000 0
0.000000 0.000000 0
0.000000 0.000000 0
0.000000 -0.000011 0
0.000022 -0.000054 0
0.000081 -0.000117 0
0.000171 -0.000173 0
0.000286 -0.000215 0
0.000418 -0.000242 0
0.000558 -0.000251 0
0.000697 -0.000246 0
0.000830 -0.000228 0
0.000949 -0.000202 0
0.001053 -0.000170 0
0.001138 -0.000135 0
0.001204 -0.000101 0
0.001252 -0.000070 0
0.001284 -0.000044 0
0.001303 -0.000021 0
0.001311 -0.000004 0
0.001310 0.000008 0
0.001303 0.000016 0
0.001293 0.000021 0
0.001280 0.000023 0
0.001267 0.000023 0
0.001254 0.000021 0
0.001242 0.000019 0
0.001231 0.000016 0
0.001223 0.000012 0
0.001216 0.000009 0
0.001211 0.000005 0
0.001209 0.000002 0
0.001209 -0.000002 0
0.001210 -0.000005 0
0.001214 -0.000009 0
0.001220 -0.000012 0
0.001228 -0.000015 0
0.001237 -0.000019 0
0.001249 -0.000023 0
0.001264 -0.000027 0
0.001281 -0.000032 0
0.001300 -0.000037 0
0.001323 -0.000043 0
0.001348 -0.000050 0
0.001378 -0.000057 0
0.001411 -0.000066 0
0.001448 -0.000076 0
0.001491 -0.000088 0
0.001539 -0.000102 0
0.001594 -0.000120 0
0.001656 -0.000142 0
0.001727 -0.000169 0
0.001805 -0.000203 0
0.001891 -0.000242 0
0.001978 -0.000285 0
0.002055 -0.000318 0
0.002097 -0.000309 0
0.002054 -0.000177 0
0.001841 0.000244 0
0.001356 0.001149 0
0.000601 0.002124 0
0.000000 0.001251 0
0.000000 -0.000629 0
0.000349 -0.001564 0
0.000896 -0.001709 0
0.001374 -0.001238 0
0.001686 -0.000644 0
0.001833 -0.000161 0
0.001855 0.000140 0
0.001807 0.000273 0
0.001732 0.000287 0
0.001659 0.000234 0
0.001602 0.000159 0
0.001563 0.000088 0
0.001540 0.000037 0
0.001525 0.000008 0
0.001515 -0.000002 0
0.001505 -0.000000 0
0.001492 0.000009 0
0.001476 0.000020 0
0.001456 0.000031 0
0.001433 0.000041 0
0.001406 0.000050 0
0.001377 0.000057 0
0.001344 0.000065 0
0.001307 0.000074 0
0.001267 0.000083 0
0.001222 0.000096 0
0.001171 0.000112 0
0.001112 0.000136 0
0.001042 0.000172 0
0.000959 0.000226 0
0.000857 0.000309 0
0.000731 0.000424 0
0.000578 0.000567 0
0.000404 0.000701 0
0.000224 0.000744 0
0.000073 0.000563 0
0.000000 0.000199 0
0.000000 0.000000 0
0.000000 0.000000 0
0.000000 0.000000 0
0.000000 -0.000024 0
0.000029 -0.000101 0
0.000104 -0.000202 0
0.000216 -0.000288 0
0.000356 -0.000352 0
0.000512 -0.000391 0
0.000676 -0.000404 0
0.000839 -0.000395 0
0.000992 -0.000366 0
0.001128 -0.000323 0
0.001246 -0.000272 0
0.001341 -0.000217 0
0.001415 -0.000163 0
0.001468 -0.000114 0
0.001502 -0.000071 0
0.001521 -0.000035 0
0.001527 -0.000008 0
0.001525 0.000012 0
0.001515 0.000026 0
0.001501 0.000034 0
0.001485 0.000038 0
0.001468 0.000038 0
0.001451 0.000036 0
0.001436 0.000032 0
0.001423 0.000027 0
0.001411 0.000021 0
0.001403 0.000015 0
0.001397 0.000009 0
0.001393 0.000004 0
0.001392 -0.000002 0
0.001394 -0.000008 0
0.001398 -0.000014 0
0.001404 -0.000019 0
0.001413 -0.000025 0
0.001425 -0.000031 0
0.001438 -0.000037 0
0.001455 -0.000044 0
0.001474 -0.000052 0
0.001497 -0.000060 0
0.001522 -0.000069 0
0.001550 -0.000079 0
0.001583 -0.000090 0
0.001619 -0.000103 0
0.001659 -0.000118 0
0.001703 -0.000135 0
0.001753 -0.000156 0
0.001807 -0.000180 0
0.001867 -0.000208 0
0.001931 -0.000242 0
0.001998 -0.000279 0
0.002064 -0.000318 0
0.002120 -0.000347 0
0.002148 -0.000346 0
0.002120 -0.000261 0
0.001985 0.000011 0
0.001678 0.000647 0
0.001143 0.001780 0
0.000451 0.002746 0
0.000000 0.001508 0
0.000000 -0.000798 0
0.000322 -0.001999 0
0.000830 -0.002208 0
0.001276 -0.001625 0
0.001569 -0.000870 0
0.001708 -0.000247 0
0.001732 0.000149 0
0.001690 0.000330 0
0.001623 0.000357 0
0.001556 0.000296 0
0.001503 0.000205 0
0.001464 0.000120 0
0.001437 0.000058 0
0.001416 0.000024 0
0.001396 0.000012 0
0.001376 0.000016 0
0.001352 0.000028 0
0.001326 0.000043 0
0.001296 0.000057 0
0.001264 0.000070 0
0.001229 0.000082 0
0.001191 0.000093 0
0.001150 0.000104 0
0.001105 0.000116 0
0.001057 0.000131 0
0.001004 0.000148 0
0.000946 0.000172 0
0.000882 0.000204 0
0.000810 0.000251 0
0.000727 0.000320 0
0.000631 0.000421 0
0.000520 0.000557 0
0.000394 0.000717 0
0.000261 0.000856 0
0.000135 0.000883 0
0.000039 0.000653 0
0.000000 0.000227 0
0.000000 0.000000 0
0.000000 0.000000 0
0.000000 0.000000 0
0.000000 -0.000040 0
0.000035 -0.000158 0
0.000123 -0.000304 0
0.000253 -0.000424 0
0.000412 -0.000511 0
0.000588 -0.000562 0
0.000771 -0.000578 0
0.000949 -0.000561 0
0.001114 -0.000518 0
0.001260 -0.000456 0
0.001383 -0.000382 0
0.001480 -0.000304 0
0.001554 -0.000228 0
0.001604 -0.000158 0
0.001635 -0.000097 0
0.001649 -0.000047 0
0.001650 -0.000008 0
0.001641 0.000021 0
0.001625 0.000040 0
0.001606 0.000051 0
0.001585 0.000056 0
0.001564 0.000057 0
0.001544 0.000053 0
0.001525 0.000048 0
0.001509 0.000040 0
0.001496 0.000032 0
0.001486 0.000024 0
0.001479 0.000015 0
0.001474 0.000006 0
0.001473 -0.000002 0
0.001475 -0.000011 0
0.001479 -0.000019 0
0.001486 -0.000027 0
0.001496 -0.000035 0
0.001508 -0.000044 0
0.001524 -0.000053 0
0.001542 -0.000063 0
0.001563 -0.000073 0
0.001586 -0.000085 0
0.001613 -0.000097 0
0.001642 -0.000110 0
0.001675 -0.000125 0
0.001711 -0.000142 0
0.001750 -0.000160 0
0.001792 -0.000182 0
0.001838 -0.000206 0
0.001887 -0.000234 0
0.001938 -0.000266 0
0.001990 -0.000301 0
0.002040 -0.000335 0
0.002082 -0.000363 0
0.002105 -0.000368 0
0.002091 -0.000318 0
0.002012 -0.000146 0
0.001824 0.000265 0
0.001479 0.001086 0
0.000955 0.002376 0
0.000346 0.003267 0
0.000000 0.001702 0
0.000000 -0.000951 0
0.000291 -0.002395 0
0.000749 -0.002663 0
0.001148 -0.001977 0
0.001407 -0.001075 0
0.001527 -0.000324 0
0.001545 0.000158 0
0.001506 0.000382 0
0.001445 0.000420 0
0.001385 0.000353 0
0.001336 0.000250 0
0.001296 0.000154 0
0.001264 0.000085 0
0.001235 0.000048 0
0.001206 0.000037 0
0.001174 0.000043 0
0.001139 0.000058 0
0.001103 0.000076 0
0.001063 0.000093 0
0.001022 0.000108 0
0.000979 0.000122 0
0.000934 0.000136 0
0.000886 0.000150 0
0.000835 0.000166 0
0.000782 0.000184 0
0.000725 0.000206 0
0.000665 0.000234 0
0.000602 0.000272 0
0.000534 0.000326 0
0.000461 0.000405 0
0.000381 0.000515 0
0.000295 0.000661 0
0.000207 0.000825 0
0.000122 0.000959 0
0.000053 0.000965 0
0.000011 0.000698 0
0.000000 0.000238 0
0.000000 0.000000 0
0.000000 0.000000 0
0.000000 0.000000 0
0.000000 -0.000059 0
0.000039 -0.000224 0
0.000138 -0.000420 0
0.000283 -0.000576 0
0.000457 -0.000687 0
0.000649 -0.000750 0
0.000844 -0.000765 0
0.001032 -0.000738 0
0.001203 -0.000677 0
0.001351 -0.000592 0
0.001472 -0.000492 0
0.001564 -0.000388 0
0.001629 -0.000287 0
0.001669 -0.000195 0
0.001689 -0.000115 0
0.001692 -0.000050 0
0.001682 0.000000 0
0.001663 0.000037 0
0.001639 0.000061 0
0.001612 0.000075 0
0.001584 0.000080 0
0.001558 0.000080 0
0.001533 0.000075 0
0.001512 0.000066 0
0.001494 0.000056 0
0.001479 0.000045 0
0.001468 0.000033 0
0.001461 0.000021 0
0.001456 0.000009 0
0.001456 -0.000002 0
0.001458 -0.000014 0
0.001463 -0.000025 0
0.001472 -0.000036 0
0.001483 -0.000047 0
0.001497 -0.000059 0
0.001513 -0.000070 0
0.001533 -0.000083 0
0.001555 -0.000096 0
0.001579 -0.000110 0
0.001606 -0.000125 0
0.001635 -0.000141 0
0.001666 -0.000159 0
0.001700 -0.000178 0
0.001736 -0.000200 0
0.001774 -0.000224 0
0.001813 -0.000250 0
0.001853 -0.000280 0
0.001894 -0.000311 0
0.001932 -0.000343 0
0.001964 -0.000370 0
0.001985 -0.000382 0
0.001983 -0.000357 0
0.001943 -0.000253 0
0.001836 0.000006 0
0.001629 0.000544 0
0.001285 0.001517 0
0.000798 0.002914 0
0.000271 0.003701 0
0.000000 0.001854 0
0.000000 -0.001089 0
0.000259 -0.002748 0
0.000662 -0.003065 0
0.001007 -0.002284 0
0.001226 -0.001250 0
0.001323 -0.000385 0
0.001332 0.000170 0
0.001294 0.000430 0
0.001238 0.000477 0
0.001184 0.000406 0
0.001137 0.000294 0
0.001096 0.000191 0
0.001059 0.000119 0
0.001021 0.000082 0
0.000982 0.000073 0
0.000940 0.000082 0
0.000895 0.000099 0
0.000849 0.000118 0
0.000801 0.000137 0
0.000753 0.000154 0
0.000704 0.000170 0
0.000653 0.000186 0
0.000601 0.000202 0
0.000547 0.000220 0
0.000492 0.000240 0
0.000435 0.000265 0
0.000378 0.000295 0
0.000320 0.000335 0
0.000262 0.000392 0
0.000204 0.000473 0
0.000147 0.000586 0
0.000091 0.000731 0
0.000042 0.000890 0
0.000005 0.001010 0
-0.000013 0.000994 0
-0.000011 0.000706 0
0.000000 0.000238 0
0.000000 0.000000 0
0.000000 0.000000 0
0.000000 0.000000 0
0.000000 -0.000079 0
0.000043 -0.000296 0
0.000151 -0.000547 0
0.000307 -0.000743 0
0.000494 -0.000877 0
0.000697 -0.000949 0
0.000901 -0.000961 0
0.001094 -0.000920 0
0.001265 -0.000836 0
0.001407 -0.000724 0
0.001518 -0.000595 0
0.001597 -0.000461 0
0.001645 -0.000333 0
0.001668 -0.000218 0
0.001669 -0.000119 0
0.001654 -0.000040 0
0.001627 0.000021 0
0.001593 0.000064 0
0.001556 0.000092 0
0.001519 0.000106 0
0.001483 0.000111 0
0.001451 0.000108 0
0.001422 0.000099 0
0.001398 0.000088 0
0.001379 0.000073 0
0.001364 0.000058 0
0.001354 0.000042 0
0.001348 0.000027 0
0.001345 0.000011 0
0.001347 -0.000004 0
0.001351 -0.000018 0
0.001359 -0.000032 0
0.001370 -0.000046 0
0.001384 -0.000060 0
0.001400 -0.000075 0
0.001418 -0.000089 0
0.001439 -0.000104 0
0.001462 -0.000119 0
0.001487 -0.000135 0
0.001514 -0.000153 0
0.001542 -0.000171 0
0.001572 -0.000190 0
0.001603 -0.000211 0
0.001634 -0.000234 0
0.001666 -0.000259 0
0.001698 -0.000286 0
0.001729 -0.000315 0
0.001758 -0.000344 0
0.001784 -0.000371 0
0.001802 -0.000388 0
0.001809 -0.000382 0
0.001794 -0.000326 0
0.001742 -0.000170 0
0.001630 0.000168 0
0.001427 0.000817 0
0.001105 0.001917 0
0.000667 0.003389 0
0.000215 0.004065 0
0.000000 0.001973 0
0.000000 -0.001211 0
0.000228 -0.003058 0
0.000576 -0.003412 0
0.000867 -0.002542 0
0.001045 -0.001391 0
0.001116 -0.000430 0
0.001115 0.000187 0
0.001077 0.000475 0
0.001027 0.000529 0
0.000977 0.000455 0
0.000932 0.000338 0
0.000889 0.000232 0
0.000846 0.000160 0
0.000801 0.000125 0
0.000753 0.000119 0
0.000702 0.000130 0
0.000650 0.000149 0
0.000597 0.000169 0
0.000543 0.000188 0
0.000490 0.000206 0
0.000437 0.000222 0
0.000384 0.000239 0
0.000330 0.000256 0
0.000276 0.000275 0
0.000223 0.000296 0
0.000170 0.000320 0
0.000119 0.000349 0
0.000071 0.000388 0
0.000026 0.000442 0
-0.000015 0.000520 0
-0.000049 0.000628 0
-0.000075 0.000766 0
-0.000088 0.000911 0
-0.000083 0.001013 0
-0.000060 0.000980 0
-0.000025 0.000685 0
0.000000 0.000228 0
0.000000 0.000000 0
0.000000 0.000000 0
0.000000 0.000000 0
0.000000 -0.000101 0
0.000046 -0.000374 0
0.000161 -0.000683 0
0.000326 -0.000920 0
0.000523 -0.001078 0
0.000735 -0.001157 0
0.000943 -0.001161 0
0.001136 -0.001101 0
0.001300 -0.000990 0
0.001431 -0.000845 0
0.001524 -0.000681 0
0.001581 -0.000515 0
0.001605 -0.000358 0
0.001602 -0.000218 0
0.001576 -0.000101 0
0.001535 -0.000008 0
0.001485 0.000061 0
0.001431 0.000108 0
0.001378 0.000136 0
0.001327 0.000148 0
0.001283 0.000149 0
0.001244 0.000141 0
0.001213 0.000127 0
0.001188 0.000110 0
0.001170 0.000090 0
0.001158 0.000070 0
0.001151 0.000050 0
0.001149 0.000030 0
0.001151 0.000010 0
0.001157 -0.000008 0
0.001166 -0.000026 0
0.001178 -0.000043 0
0.001193 -0.000060 0
0.001211 -0.000077 0
0.001231 -0.000093 0
0.001253 -0.000110 0
0.001276 -0.000127 0
0.001301 -0.000144 0
0.001327 -0.000161 0
0.001354 -0.000180 0
0.001381 -0.000199 0
0.001409 -0.000219 0
0.001437 -0.000240 0
0.001464 -0.000263 0
0.001490 -0.000287 0
0.001515 -0.000313 0
0.001537 -0.000340 0
0.001557 -0.000366 0
0.001573 -0.000387 0
0.001583 -0.000396 0
0.001584 -0.000374 0
0.001566 -0.000290 0
0.001517 -0.000088 0
0.001415 0.000322 0
0.001232 0.001068 0
0.000944 0.002276 0
0.000558 0.003804 0
0.000171 0.004369 0
0.000000 0.002069 0
0.000000 -0.001317 0
0.000198 -0.003325 0
0.000495 -0.003705 0
0.000736 -0.002753 0
0.000874 -0.001499 0
0.000922 -0.000456 0
0.000911 0.000209 0
0.000873 0.000518 0
0.000826 0.000577 0
0.000780 0.000501 0
0.000736 0.000382 0
0.000692 0.000276 0
0.000644 0.000207 0
0.000593 0.000176 0
0.000539 0.000172 0
0.000482 0.000185 0
0.000425 0.000204 0
0.000368 0.000224 0
0.000312 0.000243 0
0.000257 0.000260 0
0.000203 0.000276 0
0.000150 0.000293 0
0.000098 0.000309 0
0.000047 0.000327 0
-0.000002 0.000346 0
-0.000048 0.000368 0
-0.000091 0.000394 0
-0.000128 0.000428 0
-0.000159 0.000477 0
-0.000182 0.000547 0
-0.000195 0.000646 0
-0.000195 0.000769 0
-0.000178 0.000898 0
-0.000141 0.000981 0
-0.000089 0.000935 0
-0.000032 0.000646 0
0.000000 0.000213 0
0.000000 0.000000 0
0.000000 0.000000 0
0.000000 0.000000 0
0.000000 -0.000124 0
0.000048 -0.000457 0
0.000169 -0.000827 0
0.000342 -0.001105 0
0.000546 -0.001286 0
0.000762 -0.001369 0
0.000972 -0.001362 0
0.001159 -0.001276 0
0.001312 -0.001131 0
0.001423 -0.000947 0
0.001491 -0.000745 0
0.001518 -0.000542 0
0.001509 -0.000353 0
0.001469 -0.000188 0
0.001408 -0.000053 0
0.001333 0.000052 0
0.001253 0.000125 0
0.001174 0.000172 0
0.001101 0.000196 0
0.001037 0.000201 0
0.000983 0.000194 0
0.000941 0.000178 0
0.000910 0.000156 0
0.000888 0.000130 0
0.000875 0.000104 0
0.000870 0.000077 0
0.000871 0.000052 0
0.000876 0.000027 0
0.000886 0.000004 0
0.000900 -0.000019 0
0.000917 -0.000040 0
0.000937 -0.000060 0
0.000959 -0.000079 0
0.000983 -0.000098 0
0.001008 -0.000116 0
0.001034 -0.000134 0
0.001061 -0.000152 0
0.001089 -0.000170 0
0.001117 -0.000188 0
0.001144 -0.000207 0
0.001171 -0.000226 0
0.001197 -0.000245 0
0.001222 -0.000266 0
0.001246 -0.000287 0