# vtk DataFile Version 2.0
generated by CFD-lab course output (written by Tobias Neckel) 
ASCII

DATASET STRUCTURED_GRID
DIMENSIONS  99 49 1 
POINTS 4851 float

0.000000 0.000000 0
0.020000 0.000000 0
0.040000 0.000000 0
0.060000 0.000000 0
0.080000 0.000000 0
0.100000 0.000000 0
0.120000 0.000000 0
0.140000 0.000000 0
0.160000 0.000000 0
0.180000 0.000000 0
0.200000 0.000000 0
0.220000 0.000000 0
0.240000 0.000000 0
0.260000 0.000000 0
0.280000 0.000000 0
0.300000 0.000000 0
0.320000 0.000000 0
0.340000 0.000000 0
0.360000 0.000000 0
0.380000 0.000000 0
0.400000 0.000000 0
0.420000 0.000000 0
0.440000 0.000000 0
0.460000 0.000000 0
0.480000 0.000000 0
0.500000 0.000000 0
0.520000 0.000000 0
0.540000 0.000000 0
0.560000 0.000000 0
0.580000 0.000000 0
0.600000 0.000000 0
0.620000 0.000000 0
0.640000 0.000000 0
0.660000 0.000000 0
0.680000 0.000000 0
0.700000 0.000000 0
0.720000 0.000000 0
0.740000 0.000000 0
0.760000 0.000000 0
0.780000 0.000000 0
0.800000 0.000000 0
0.820000 0.000000 0
0.840000 0.000000 0
0.860000 0.000000 0
0.880000 0.000000 0
0.900000 0.000000 0
0.920000 0.000000 0
0.940000 0.000000 0
0.960000 0.000000 0
0.980000 0.000000 0
1.000000 0.000000 0
1.020000 0.000000 0
1.040000 0.000000 0
1.060000 0.000000 0
1.080000 0.000000 0
1.100000 0.000000 0
1.120000 0.000000 0
1.140000 0.000000 0
1.160000 0.000000 0
1.180000 0.000000 0
1.200000 0.000000 0
1.220000 0.000000 0
1.240000 0.000000 0
1.260000 0.000000 0
1.280000 0.000000 0
1.300000 0.000000 0
1.320000 0.000000 0
1.340000 0.000000 0
1.360000 0.000000 0
1.380000 0.000000 0
1.400000 0.000000 0
1.420000 0.000000 0
1.440000 0.000000 0
1.460000 0.000000 0
1.480000 0.000000 0
1.500000 0.000000 0
1.520000 0.000000 0
1.540000 0.000000 0
1.560000 0.000000 0
1.580000 0.000000 0
1.600000 0.000000 0
1.620000 0.000000 0
1.640000 0.000000 0
1.660000 0.000000 0
1.680000 0.000000 0
1.700000 0.000000 0
1.720000 0.000000 0
1.740000 0.000000 0
1.760000 0.000000 0
1.780000 0.000000 0
1.800000 0.000000 0
1.820000 0.000000 0
1.840000 0.000000 0
1.860000 0.000000 0
1.880000 0.000000 0
1.900000 0.000000 0
1.920000 0.000000 0
1.940000 0.000000 0
1.960000 0.000000 0
0.000000 0.020000 0
0.020000 0.020000 0
0.040000 0.020000 0
0.060000 0.020000 0
0.080000 0.020000 0
0.100000 0.020000 0
0.120000 0.020000 0
0.140000 0.020000 0
0.160000 0.020000 0
0.180000 0.020000 0
0.200000 0.020000 0
0.220000 0.020000 0
0.240000 0.020000 0
0.260000 0.020000 0
0.280000 0.020000 0
0.300000 0.020000 0
0.320000 0.020000 0
0.340000 0.020000 0
0.360000 0.020000 0
0.380000 0.020000 0
0.400000 0.020000 0
0.420000 0.020000 0
0.440000 0.020000 0
0.460000 0.020000 0
0.480000 0.020000 0
0.500000 0.020000 0
0.520000 0.020000 0
0.540000 0.020000 0
0.560000 0.020000 0
0.580000 0.020000 0
0.600000 0.020000 0
0.620000 0.020000 0
0.640000 0.020000 0
0.660000 0.020000 0
0.680000 0.020000 0
0.700000 0.020000 0
0.720000 0.020000 0
0.740000 0.020000 0
0.760000 0.020000 0
0.780000 0.020000 0
0.800000 0.020000 0
0.820000 0.020000 0
0.840000 0.020000 0
0.860000 0.020000 0
0.880000 0.020000 0
0.900000 0.020000 0
0.920000 0.020000 0
0.940000 0.020000 0
0.960000 0.020000 0
0.980000 0.020000 0
1.000000 0.020000 0
1.020000 0.020000 0
1.040000 0.020000 0
1.060000 0.020000 0
1.080000 0.020000 0
1.100000 0.020000 0
1.120000 0.020000 0
1.140000 0.020000 0
1.160000 0.020000 0
1.180000 0.020000 0
1.200000 0.020000 0
1.220000 0.020000 0
1.240000 0.020000 0
1.260000 0.020000 0
1.280000 0.020000 0
1.300000 0.020000 0
1.320000 0.020000 0
1.340000 0.020000 0
1.360000 0.020000 0
1.380000 0.020000 0
1.400000 0.020000 0
1.420000 0.020000 0
1.440000 0.020000 0
1.460000 0.020000 0
1.480000 0.020000 0
1.500000 0.020000 0
1.520000 0.020000 0
1.540000 0.020000 0
1.560000 0.020000 0
1.580000 0.020000 0
1.600000 0.020000 0
1.620000 0.020000 0
1.640000 0.020000 0
1.660000 0.020000 0
1.680000 0.020000 0
1.700000 0.020000 0
1.720000 0.020000 0
1.740000 0.020000 0
1.760000 0.020000 0
1.780000 0.020000 0
1.800000 0.020000 0
1.820000 0.020000 0
1.840000 0.020000 0
1.860000 0.020000 0
1.880000 0.020000 0
1.900000 0.020000 0
1.920000 0.020000 0
1.940000 0.020000 0
1.960000 0.020000 0
0.000000 0.040000 0
0.020000 0.040000 0
0.040000 0.040000 0
0.060000 0.040000 0
0.080000 0.040000 0
0.100000 0.040000 0
0.120000 0.040000 0
0.140000 0.040000 0
0.160000 0.040000 0
0.180000 0.040000 0
0.200000 0.040000 0
0.220000 0.040000 0
0.240000 0.040000 0
0.260000 0.040000 0
0.280000 0.040000 0
0.300000 0.040000 0
0.320000 0.040000 0
0.340000 0.040000 0
0.360000 0.040000 0
0.380000 0.040000 0
0.400000 0.040000 0
0.420000 0.040000 0
0.440000 0.040000 0
0.460000 0.040000 0
0.480000 0.040000 0
0.500000 0.040000 0
0.520000 0.040000 0
0.540000 0.040000 0
0.560000 0.040000 0
0.580000 0.040000 0
0.600000 0.040000 0
0.620000 0.040000 0
0.640000 0.040000 0
0.660000 0.040000 0
0.680000 0.040000 0
0.700000 0.040000 0
0.720000 0.040000 0
0.740000 0.040000 0
0.760000 0.040000 0
0.780000 0.040000 0
0.800000 0.040000 0
0.820000 0.040000 0
0.840000 0.040000 0
0.860000 0.040000 0
0.880000 0.040000 0
0.900000 0.040000 0
0.920000 0.040000 0
0.940000 0.040000 0
0.960000 0.040000 0
0.980000 0.040000 0
1.000000 0.040000 0
1.020000 0.040000 0
1.040000 0.040000 0
1.060000 0.040000 0
1.080000 0.040000 0
1.100000 0.040000 0
1.120000 0.040000 0
1.140000 0.040000 0
1.160000 0.040000 0
1.180000 0.040000 0
1.200000 0.040000 0
1.220000 0.040000 0
1.240000 0.040000 0
1.260000 0.040000 0
1.280000 0.040000 0
1.300000 0.040000 0
1.320000 0.040000 0
1.340000 0.040000 0
1.360000 0.040000 0
1.380000 0.040000 0
1.400000 0.040000 0
1.420000 0.040000 0
1.440000 0.040000 0
1.460000 0.040000 0
1.480000 0.040000 0
1.500000 0.040000 0
1.520000 0.040000 0
1.540000 0.040000 0
1.560000 0.040000 0
1.580000 0.040000 0
1.600000 0.040000 0
1.620000 0.040000 0
1.640000 0.040000 0
1.660000 0.040000 0
1.680000 0.040000 0
1.700000 0.040000 0
1.720000 0.040000 0
1.740000 0.040000 0
1.760000 0.040000 0
1.780000 0.040000 0
1.800000 0.040000 0
1.820000 0.040000 0
1.840000 0.040000 0
1.860000 0.040000 0
1.880000 0.040000 0
1.900000 0.040000 0
1.920000 0.040000 0
1.940000 0.040000 0
1.960000 0.040000 0
0.000000 0.060000 0
0.020000 0.060000 0
0.040000 0.060000 0
0.060000 0.060000 0
0.080000 0.060000 0
0.100000 0.060000 0
0.120000 0.060000 0
0.140000 0.060000 0
0.160000 0.060000 0
0.180000 0.060000 0
0.200000 0.060000 0
0.220000 0.060000 0
0.240000 0.060000 0
0.260000 0.060000 0
0.280000 0.060000 0
0.300000 0.060000 0
0.320000 0.060000 0
0.340000 0.060000 0
0.360000 0.060000 0
0.380000 0.060000 0
0.400000 0.060000 0
0.420000 0.060000 0
0.440000 0.060000 0
0.460000 0.060000 0
0.480000 0.060000 0
0.500000 0.060000 0
0.520000 0.060000 0
0.540000 0.060000 0
0.560000 0.060000 0
0.580000 0.060000 0
0.600000 0.060000 0
0.620000 0.060000 0
0.640000 0.060000 0
0.660000 0.060000 0
0.680000 0.060000 0
0.700000 0.060000 0
0.720000 0.060000 0
0.740000 0.060000 0
0.760000 0.060000 0
0.780000 0.060000 0
0.800000 0.060000 0
0.820000 0.060000 0
0.840000 0.060000 0
0.860000 0.060000 0
0.880000 0.060000 0
0.900000 0.060000 0
0.920000 0.060000 0
0.940000 0.060000 0
0.960000 0.060000 0
0.980000 0.060000 0
1.000000 0.060000 0
1.020000 0.060000 0
1.040000 0.060000 0
1.060000 0.060000 0
1.080000 0.060000 0
1.100000 0.060000 0
1.120000 0.060000 0
1.140000 0.060000 0
1.160000 0.060000 0
1.180000 0.060000 0
1.200000 0.060000 0
1.220000 0.060000 0
1.240000 0.060000 0
1.260000 0.060000 0
1.280000 0.060000 0
1.300000 0.060000 0
1.320000 0.060000 0
1.340000 0.060000 0
1.360000 0.060000 0
1.380000 0.060000 0
1.400000 0.060000 0
1.420000 0.060000 0
1.440000 0.060000 0
1.460000 0.060000 0
1.480000 0.060000 0
1.500000 0.060000 0
1.520000 0.060000 0
1.540000 0.060000 0
1.560000 0.060000 0
1.580000 0.060000 0
1.600000 0.060000 0
1.620000 0.060000 0
1.640000 0.060000 0
1.660000 0.060000 0
1.680000 0.060000 0
1.700000 0.060000 0
1.720000 0.060000 0
1.740000 0.060000 0
1.760000 0.060000 0
1.780000 0.060000 0
1.800000 0.060000 0
1.820000 0.060000 0
1.840000 0.060000 0
1.860000 0.060000 0
1.880000 0.060000 0
1.900000 0.060000 0
1.920000 0.060000 0
1.940000 0.060000 0
1.960000 0.060000 0
0.000000 0.080000 0
0.020000 0.080000 0
0.040000 0.080000 0
0.060000 0.080000 0
0.080000 0.080000 0
0.100000 0.080000 0
0.120000 0.080000 0
0.140000 0.080000 0
0.160000 0.080000 0
0.180000 0.080000 0
0.200000 0.080000 0
0.220000 0.080000 0
0.240000 0.080000 0
0.260000 0.080000 0
0.280000 0.080000 0
0.300000 0.080000 0
0.320000 0.080000 0
0.340000 0.080000 0
0.360000 0.080000 0
0.380000 0.080000 0
0.400000 0.080000 0
0.420000 0.080000 0
0.440000 0.080000 0
0.460000 0.080000 0
0.480000 0.080000 0
0.500000 0.080000 0
0.520000 0.080000 0
0.540000 0.080000 0
0.560000 0.080000 0
0.580000 0.080000 0
0.600000 0.080000 0
0.620000 0.080000 0
0.640000 0.080000 0
0.660000 0.080000 0
0.680000 0.080000 0
0.700000 0.080000 0
0.720000 0.080000 0
0.740000 0.080000 0
0.760000 0.080000 0
0.780000 0.080000 0
0.800000 0.080000 0
0.820000 0.080000 0
0.840000 0.080000 0
0.860000 0.080000 0
0.880000 0.080000 0
0.900000 0.080000 0
0.920000 0.080000 0
0.940000 0.080000 0
0.960000 0.080000 0
0.980000 0.080000 0
1.000000 0.080000 0
1.020000 0.080000 0
1.040000 0.080000 0
1.060000 0.080000 0
1.080000 0.080000 0
1.100000 0.080000 0
1.120000 0.080000 0
1.140000 0.080000 0
1.160000 0.080000 0
1.180000 0.080000 0
1.200000 0.080000 0
1.220000 0.080000 0
1.240000 0.080000 0
1.260000 0.080000 0
1.280000 0.080000 0
1.300000 0.080000 0
1.320000 0.080000 0
1.340000 0.080000 0
1.360000 0.080000 0
1.380000 0.080000 0
1.400000 0.080000 0
1.420000 0.080000 0
1.440000 0.080000 0
1.460000 0.080000 0
1.480000 0.080000 0
1.500000 0.080000 0
1.520000 0.080000 0
1.540000 0.080000 0
1.560000 0.080000 0
1.580000 0.080000 0
1.600000 0.080000 0
1.620000 0.080000 0
1.640000 0.080000 0
1.660000 0.080000 0
1.680000 0.080000 0
1.700000 0.080000 0
1.720000 0.080000 0
1.740000 0.080000 0
1.760000 0.080000 0
1.780000 0.080000 0
1.800000 0.080000 0
1.820000 0.080000 0
1.840000 0.080000 0
1.860000 0.080000 0
1.880000 0.080000 0
[...]
POINT_DATA 4851 

VECTORS velocity float
0.000000 0.000000 0
0.000049 0.000000 0
0.000125 0.000000 0
0.000187 0.000000 0
0.000223 0.000000 0
0.000235 0.000000 0
0.000233 0.000000 0
0.000222 0.000000 0
0.000209 0.000000 0
0.000198 0.000000 0
0.000189 0.000000 0
0.000182 0.000000 0
0.000179 0.000000 0
0.000177 0.000000 0
0.000176 0.000000 0
0.000176 0.000000 0
0.000175 0.000000 0
0.000175 0.000000 0
0.000174 0.000000 0
0.000174 0.000000 0
0.000173 0.000000 0
0.000171 0.000000 0
0.000170 0.000000 0
0.000168 0.000000 0
0.000167 0.000000 0
0.000165 0.000000 0
0.000163 0.000000 0
0.000160 0.000000 0
0.000157 0.000000 0
0.000152 0.000000 0
0.000144 0.000000 0
0.000131 0.000000 0
0.000111 0.000000 0
0.000083 0.000000 0
0.000048 0.000000 0
0.000016 0.000000 0
0.000000 0.000000 0
0.000000 0.000000 0
0.000000 0.000000 0
0.000000 0.000000 0
0.000000 0.000000 0
0.000003 0.000000 0
0.000039 0.000000 0
0.000102 0.000000 0
0.000179 0.000000 0
0.000255 0.000000 0
0.000318 0.000000 0
0.000364 0.000000 0
0.000390 0.000000 0
0.000398 0.000000 0
0.000393 0.000000 0
0.000377 0.000000 0
0.000355 0.000000 0
0.000331 0.000000 0
0.000306 0.000000 0
0.000284 0.000000 0
0.000264 0.000000 0
0.000249 0.000000 0
0.000237 0.000000 0
0.000229 0.000000 0
0.000225 0.000000 0
0.000223 0.000000 0
0.000223 0.000000 0
0.000225 0.000000 0
0.000228 0.000000 0
0.000231 0.000000 0
0.000234 0.000000 0
0.000237 0.000000 0
0.000239 0.000000 0
0.000242 0.000000 0
0.000243 0.000000 0
0.000245 0.000000 0
0.000246 0.000000 0
0.000247 0.000000 0
0.000248 0.000000 0
0.000249 0.000000 0
0.000250 0.000000 0
0.000252 0.000000 0
0.000253 0.000000 0
0.000255 0.000000 0
0.000256 0.000000 0
0.000258 0.000000 0
0.000261 0.000000 0
0.000264 0.000000 0
0.000267 0.000000 0
0.000272 0.000000 0
0.000277 0.000000 0
0.000284 0.000000 0
0.000292 0.000000 0
0.000304 0.000000 0
0.000320 0.000000 0
0.000342 0.000000 0
0.000375 0.000000 0
0.000424 0.000000 0
0.000493 0.000000 0
0.000579 0.000000 0
0.000633 0.000000 0
0.000492 0.000000 0
0.000000 0.000000 0
0.000000 -0.000050 0
0.000139 -0.000126 0
0.000357 -0.000138 0
0.000543 -0.000098 0
0.000662 -0.000049 0
0.000714 -0.000011 0
0.000720 0.000013 0
0.000699 0.000023 0
0.000667 0.000024 0
0.000636 0.000020 0
0.000610 0.000015 0
0.000591 0.000009 0
0.000579 0.000005 0
0.000573 0.000002 0
0.000570 0.000000 0
0.000568 -0.000000 0
0.000567 -0.000000 0
0.000565 0.000000 0
0.000562 0.000001 0
0.000559 0.000001 0
0.000555 0.000002 0
0.000550 0.000002 0
0.000544 0.000002 0
0.000538 0.000003 0
0.000531 0.000003 0
0.000522 0.000003 0
0.000513 0.000004 0
0.000501 0.000005 0
0.000486 0.000008 0
0.000464 0.000012 0
0.000432 0.000020 0
0.000386 0.000032 0
0.000321 0.000047 0
0.000236 0.000062 0
0.000138 0.000066 0
0.000047 0.000048 0
0.000000 0.000015 0
0.000000 0.000000 0
0.000000 0.000000 0
0.000000 0.000000 0
0.000000 -0.000003 0
0.000036 -0.000039 0
0.000168 -0.000099 0
0.000376 -0.000140 0
0.000621 -0.000152 0
0.000862 -0.000139 0
0.001069 -0.000109 0
0.001223 -0.000071 0
0.001319 -0.000034 0
0.001360 -0.000003 0
0.001355 0.000022 0
0.001316 0.000038 0
0.001254 0.000046 0
0.001181 0.000049 0
0.001104 0.000047 0
0.001031 0.000042 0
0.000967 0.000035 0
0.000914 0.000028 0
0.000873 0.000020 0
0.000844 0.000013 0
0.000825 0.000007 0
0.000816 0.000002 0
0.000814 -0.000002 0
0.000818 -0.000004 0
0.000824 -0.000005 0
0.000832 -0.000006 0
0.000841 -0.000006 0
0.000850 -0.000005 0
0.000857 -0.000005 0
0.000864 -0.000004 0
0.000869 -0.000003 0
0.000874 -0.000003 0
0.000877 -0.000002 0
0.000880 -0.000002 0
0.000883 -0.000002 0
0.000886 -0.000002 0
0.000888 -0.000002 0
0.000891 -0.000002 0
0.000895 -0.000003 0
0.000900 -0.000003 0
0.000905 -0.000004 0
0.000911 -0.000004 0
0.000918 -0.000005 0
0.000927 -0.000006 0
0.000938 -0.000008 0
0.000952 -0.000009 0
0.000968 -0.000012 0
0.000989 -0.000015 0
0.001015 -0.000020 0
0.001049 -0.000027 0
0.001095 -0.000038 0
0.001156 -0.000055 0
0.001237 -0.000081 0
0.001341 -0.000117 0
0.001462 -0.000155 0
0.001557 -0.000140 0
0.001493 0.000087 0
0.000984 0.000634 0
0.000000 0.000492 0
0.000000 -0.000140 0
0.000193 -0.000358 0
0.000499 -0.000404 0
0.000774 -0.000306 0
0.000962 -0.000172 0
0.001059 -0.000059 0
0.001087 0.000015 0
0.001071 0.000052 0
0.001035 0.000062 0
0.000994 0.000057 0
0.000959 0.000044 0
0.000933 0.000029 0
0.000915 0.000017 0
0.000905 0.000009 0
0.000898 0.000004 0
0.000895 0.000002 0
0.000891 0.000002 0
0.000887 0.000003 0
0.000882 0.000005 0
0.000875 0.000007 0
0.000867 0.000008 0
0.000857 0.000010 0
0.000845 0.000011 0
0.000833 0.000013 0
0.000818 0.000014 0
0.000801 0.000017 0
0.000781 0.000020 0
0.000756 0.000026 0
0.000724 0.000036 0
0.000681 0.000052 0
0.000624 0.000077 0
0.000546 0.000110 0
0.000445 0.000149 0
0.000321 0.000183 0
0.000185 0.000189 0
0.000064 0.000137 0
0.000000 0.000046 0
0.000000 0.000000 0
0.000000 0.000000 0
0.000000 0.000000 0
0.000000 -0.000035 0
0.000089 -0.000167 0
0.000328 -0.000340 0
0.000673 -0.000452 0
0.001066 -0.000485 0
0.001453 -0.000448 0
0.001788 -0.000361 0
0.002046 -0.000250 0
0.002217 -0.000136 0
0.002304 -0.000036 0
0.002316 0.000044 0
0.002272 0.000101 0
0.002188 0.000136 0
0.002081 0.000150 0
0.001964 0.000150 0
0.001850 0.000137 0
0.001746 0.000118 0
0.001658 0.000095 0
0.001588 0.000071 0
0.001536 0.000048 0
0.001501 0.000028 0
0.001481 0.000011 0
0.001473 -0.000001 0
0.001474 -0.000009 0
0.001481 -0.000015 0
0.001490 -0.000017 0
0.001501 -0.000017 0
0.001512 -0.000016 0
0.001522 -0.000014 0
0.001530 -0.000012 0
0.001537 -0.000009 0
0.001542 -0.000008 0
0.001546 -0.000006 0
0.001549 -0.000005 0
0.001552 -0.000005 0
0.001554 -0.000005 0
0.001557 -0.000006 0
0.001560 -0.000006 0
0.001564 -0.000008 0
0.001569 -0.000009 0
0.001576 -0.000011 0
0.001584 -0.000013 0
0.001594 -0.000016 0
0.001606 -0.000020 0
0.001622 -0.000024 0
0.001640 -0.000029 0
0.001664 -0.000037 0
0.001693 -0.000047 0
0.001729 -0.000060 0
0.001775 -0.000080 0
0.001833 -0.000106 0
0.001903 -0.000142 0
0.001982 -0.000185 0
0.002060 -0.000225 0
0.002099 -0.000216 0
0.002016 -0.000031 0
0.001656 0.000574 0
0.000868 0.001493 0
0.000000 0.000984 0
0.000000 -0.000243 0
0.000206 -0.000626 0
0.000538 -0.000720 0
0.000843 -0.000561 0
0.001059 -0.000335 0
0.001178 -0.000136 0
0.001221 0.000001 0
0.001214 0.000074 0
0.001183 0.000100 0
0.001144 0.000095 0
0.001109 0.000076 0
0.001082 0.000053 0
0.001063 0.000033 0
0.001050 0.000018 0
0.001042 0.000010 0
0.001035 0.000007 0
0.001029 0.000007 0
0.001022 0.000009 0
0.001013 0.000012 0
0.001002 0.000016 0
0.000990 0.000019 0
0.000975 0.000023 0
0.000958 0.000026 0
0.000939 0.000030 0
0.000917 0.000034 0
0.000892 0.000040 0
0.000862 0.000049 0
0.000826 0.000062 0
0.000782 0.000082 0
0.000725 0.000112 0
0.000653 0.000155 0
0.000560 0.000211 0
0.000447 0.000272 0
0.000315 0.000321 0
0.000178 0.000323 0
0.000060 0.000233 0
0.000000 0.000079 0
0.000000 0.000000 0
0.000000 0.000000 0
0.000000 0.000000 0
0.000000 -0.000092 0
0.000129 -0.000366 0
0.000446 -0.000683 0
0.000885 -0.000878 0
0.001372 -0.000931 0
0.001846 -0.000860 0
0.002257 -0.000702 0
0.002579 -0.000501 0
0.002799 -0.000291 0
0.002920 -0.000101 0
0.002955 0.000053 0
0.002919 0.000166 0
0.002833 0.000238 0
0.002716 0.000273 0
0.002584 0.000278 0
0.002451 0.000261 0
0.002328 0.000228 0
0.002221 0.000186 0
0.002134 0.000142 0
0.002069 0.000099 0
0.002023 0.000061 0
0.001994 0.000030 0
0.001979 0.000006 0
0.001975 -0.000011 0
0.001977 -0.000022 0
0.001983 -0.000027 0
0.001991 -0.000028 0
0.002000 -0.000026 0
0.002007 -0.000023 0
0.002012 -0.000019 0
0.002016 -0.000015 0
0.002019 -0.000011 0
0.002020 -0.000009 0
0.002020 -0.000007 0
0.002020 -0.000007 0
0.002019 -0.000007 0
0.002019 -0.000008 0
0.002020 -0.000009 0
0.002022 -0.000012 0
0.002025 -0.000015 0
0.002029 -0.000018 0
0.002035 -0.000022 0
0.002043 -0.000027 0
0.002054 -0.000034 0
0.002068 -0.000041 0
0.002085 -0.000051 0
0.002106 -0.000064 0
0.002133 -0.000081 0
0.002165 -0.000102 0
0.002204 -0.000130 0
0.002248 -0.000165 0
0.002294 -0.000205 0
0.002330 -0.000238 0
0.002333 -0.000234 0
0.002253 -0.000111 0
0.002003 0.000303 0
0.001474 0.001235 0
0.000657 0.002290 0
0.000000 0.001361 0
0.000000 -0.000347 0
0.000200 -0.000897 0
0.000528 -0.001042 0
0.000829 -0.000827 0
0.001044 -0.000507 0
0.001166 -0.000222 0
0.001213 -0.000022 0
0.001211 0.000090 0
0.001185 0.000132 0
0.001151 0.000130 0
0.001119 0.000106 0
0.001093 0.000076 0
0.001074 0.000049 0
0.001060 0.000030 0
0.001050 0.000019 0
0.001040 0.000014 0
0.001031 0.000015 0
0.001019 0.000019 0
0.001006 0.000024 0
0.000991 0.000030 0
0.000974 0.000035 0
0.000954 0.000041 0
0.000932 0.000047 0
0.000908 0.000053 0
0.000880 0.000061 0
0.000848 0.000071 0
0.000812 0.000086 0
0.000769 0.000106 0
0.000718 0.000137 0
0.000655 0.000181 0
0.000579 0.000241 0
0.000487 0.000316 0
0.000379 0.000394 0
0.000261 0.000451 0
0.000143 0.000443 0
0.000046 0.000315 0
0.000000 0.000106 0
0.000000 0.000000 0
0.000000 0.000000 0
0.000000 0.000000 0
0.000000 -0.000164 0
0.000155 -0.000613 0
0.000527 -0.001096 0
0.001027 -0.001378 0
0.001573 -0.001446 0
0.002095 -0.001332 0
0.002546 -0.001094 0
0.002898 -0.000792 0
0.003142 -0.000478 0
0.003282 -0.000191 0
0.003331 0.000046 0
0.003305 0.000223 0
0.003225 0.000339 0
0.003109 0.000400 0
0.002977 0.000415 0
0.002842 0.000393 0
0.002715 0.000348 0
0.002603 0.000288 0
0.002512 0.000223 0
0.002441 0.000159 0
0.002390 0.000103 0
0.002355 0.000055 0
0.002335 0.000019 0
0.002324 -0.000007 0
0.002319 -0.000023 0
0.002319 -0.000031 0
0.002320 -0.000033 0
0.002321 -0.000031 0
0.002321 -0.000026 0
0.002320 -0.000021 0
0.002318 -0.000015 0
0.002314 -0.000011 0
0.002310 -0.000007 0
0.002304 -0.000005 0
0.002299 -0.000004 0
0.002294 -0.000005 0
0.002289 -0.000006 0
0.002285 -0.000009 0
0.002282 -0.000012 0
0.002280 -0.000016 0
0.002280 -0.000021 0
0.002281 -0.000028 0
0.002284 -0.000035 0
0.002289 -0.000044 0
0.002296 -0.000055 0
0.002306 -0.000068 0
0.002319 -0.000085 0
0.002335 -0.000106 0
0.002354 -0.000131 0
0.002374 -0.000162 0
0.002393 -0.000196 0
0.002403 -0.000224 0
0.002389 -0.000224 0
0.002322 -0.000147 0
0.002153 0.000115 0
0.001812 0.000748 0
0.001236 0.001919 0
0.000491 0.002967 0
0.000000 0.001641 0
0.000000 -0.000445 0
0.000187 -0.001155 0
0.000492 -0.001349 0
0.000772 -0.001078 0
0.000970 -0.000672 0
0.001080 -0.000304 0
0.001122 -0.000045 0
0.001120 0.000102 0
0.001097 0.000160 0
0.001067 0.000161 0
0.001038 0.000133 0
0.001015 0.000097 0
0.000996 0.000065 0
0.000981 0.000042 0
0.000968 0.000030 0
0.000954 0.000026 0
0.000940 0.000028 0
0.000924 0.000033 0
0.000906 0.000040 0
0.000886 0.000048 0
0.000865 0.000056 0
0.000841 0.000064 0
0.000814 0.000073 0
0.000785 0.000082 0
0.000753 0.000093 0
0.000718 0.000108 0
0.000678 0.000127 0
0.000633 0.000155 0
0.000581 0.000195 0
0.000520 0.000251 0
0.000449 0.000324 0
0.000368 0.000411 0
0.000278 0.000498 0
0.000185 0.000556 0
0.000097 0.000537 0
0.000030 0.000375 0
0.000000 0.000125 0
0.000000 0.000000 0
0.000000 0.000000 0
0.000000 0.000000 0
0.000000 -0.000246 0
0.000171 -0.000892 0
0.000579 -0.001556 0
0.001119 -0.001925 0
0.001697 -0.001999 0
0.002239 -0.001833 0
0.002700 -0.001505 0
0.003056 -0.001097 0
0.003302 -0.000675 0
0.003444 -0.000290 0
0.003496 0.000031 0
0.003475 0.000272 0
0.003401 0.000434 0
0.003292 0.000521 0
0.003167 0.000546 0
0.003039 0.000523 0
0.002919 0.000466 0
0.002813 0.000389 0
0.002725 0.000304 0
0.002656 0.000221 0
0.002604 0.000147 0
0.002567 0.000085 0
0.002541 0.000038 0
0.002524 0.000004 0
0.002511 -0.000017 0
0.002501 -0.000027 0
0.002492 -0.000030 0
0.002482 -0.000027 0
0.002472 -0.000022 0
0.002461 -0.000015 0
0.002450 -0.000008 0
0.002437 -0.000003 0
0.002425 0.000001 0
0.002412 0.000003 0
0.002400 0.000004 0
0.002388 0.000003 0
0.002377 0.000001 0
0.002367 -0.000002 0
0.002358 -0.000007 0
0.002350 -0.000012 0
0.002344 -0.000019 0
0.002338 -0.000026 0
0.002333 -0.000035 0
0.002330 -0.000046 0
0.002329 -0.000059 0
0.002328 -0.000074 0
0.002328 -0.000093 0
0.002329 -0.000115 0
0.002330 -0.000141 0
0.002328 -0.000169 0
0.002320 -0.000194 0
0.002298 -0.000200 0
0.002245 -0.000157 0
0.002135 0.000002 0
0.001925 0.000399 0
0.001562 0.001219 0
0.001013 0.002555 0
0.000369 0.003526 0
0.000000 0.001852 0
0.000000 -0.000535 0
0.000170 -0.001390 0
0.000445 -0.001627 0
0.000693 -0.001304 0
0.000864 -0.000816 0
0.000956 -0.000375 0
0.000988 -0.000063 0
0.000983 0.000115 0
0.000960 0.000186 0
0.000933 0.000189 0
0.000907 0.000158 0
0.000885 0.000117 0
0.000866 0.000082 0
0.000848 0.000058 0
0.000831 0.000045 0
0.000813 0.000042 0
0.000794 0.000045 0
0.000773 0.000052 0
0.000750 0.000061 0
0.000726 0.000071 0
0.000700 0.000081 0
0.000672 0.000091 0
0.000642 0.000102 0
0.000611 0.000114 0
0.000577 0.000128 0
0.000540 0.000146 0
0.000500 0.000170 0
0.000457 0.000203 0
0.000409 0.000249 0
0.000356 0.000312 0
0.000298 0.000393 0
0.000235 0.000487 0
0.000169 0.000577 0
0.000106 0.000631 0
0.000052 0.000598 0
0.000014 0.000412 0
0.000000 0.000136 0
0.000000 0.000000 0
0.000000 0.000000 0
0.000000 0.000000 0
0.000000 -0.000335 0
0.000183 -0.001192 0
0.000613 -0.002044 0
0.001174 -0.002496 0
0.001762 -0.002566 0
0.002301 -0.002336 0
0.002750 -0.001911 0
0.003090 -0.001394 0
0.003319 -0.000865 0
0.003448 -0.000384 0
0.003492 0.000016 0
0.003469 0.000318 0
0.003398 0.000522 0
0.003297 0.000634 0
0.003182 0.000668 0
0.003066 0.000642 0
0.002958 0.000574 0
0.002863 0.000482 0
0.002784 0.000380 0
0.002721 0.000280 0
0.002671 0.000191 0
0.002632 0.000118 0
0.002601 0.000062 0
0.002575 0.000024 0
0.002552 -0.000000 0
0.002529 -0.000012 0
0.002507 -0.000014 0
0.002485 -0.000011 0
0.002462 -0.000005 0
0.002439 0.000002 0
0.002416 0.000009 0
0.002394 0.000014 0
0.002373 0.000018 0
0.002352 0.000020 0
0.002333 0.000020 0
0.002314 0.000018 0
0.002297 0.000015 0
0.002281 0.000011 0
0.002266 0.000005 0
0.002251 -0.000001 0
0.002238 -0.000009 0
0.002225 -0.000017 0
0.002213 -0.000027 0
0.002201 -0.000039 0
0.002189 -0.000052 0
0.002177 -0.000068 0
0.002164 -0.000086 0
0.002149 -0.000107 0
0.002132 -0.000130 0
0.002111 -0.000152 0
0.002081 -0.000165 0
0.002038 -0.000148 0
0.001967 -0.000061 0
0.001845 0.000173 0
0.001637 0.000688 0
0.001299 0.001661 0
0.000812 0.003112 0
0.000276 0.003980 0
0.000000 0.002011 0
0.000000 -0.000615 0
0.000152 -0.001600 0
0.000393 -0.001872 0
0.000604 -0.001498 0
0.000745 -0.000935 0
0.000815 -0.000429 0
0.000835 -0.000072 0
0.000825 0.000130 0
0.000802 0.000210 0
0.000776 0.000214 0
0.000752 0.000181 0
0.000730 0.000138 0
0.000709 0.000101 0
0.000689 0.000077 0
0.000667 0.000065 0
0.000645 0.000063 0
0.000620 0.000068 0
0.000595 0.000076 0
0.000568 0.000087 0
0.000540 0.000098 0
0.000511 0.000110 0
0.000480 0.000121 0
0.000449 0.000134 0
0.000416 0.000148 0
0.000382 0.000164 0
0.000347 0.000184 0
0.000310 0.000210 0
0.000272 0.000246 0
0.000232 0.000295 0
0.000191 0.000362 0
0.000149 0.000445 0
0.000107 0.000539 0
0.000068 0.000627 0
0.000035 0.000674 0
0.000012 0.000629 0
0.000001 0.000427 0
0.000000 0.000139 0
0.000000 0.000000 0
0.000000 0.000000 0
0.000000 0.000000 0
0.000000 -0.000428 0
0.000191 -0.001506 0
0.000633 -0.002547 0
0.001199 -0.003073 0
0.001778 -0.003126 0
0.002297 -0.002821 0
0.002716 -0.002293 0
0.003022 -0.001665 0
0.003221 -0.001033 0
0.003325 -0.000462 0
0.003353 0.000010 0
0.003322 0.000366 0
0.003250 0.000605 0
0.003155 0.000737 0
0.003051 0.000777 0
0.002948 0.000748 0
0.002853 0.000669 0
0.002770 0.000563 0
0.002701 0.000447 0
0.002643 0.000335 0
0.002594 0.000235 0
0.002552 0.000155 0
0.002513 0.000095 0
0.002475 0.000054 0
0.002438 0.000029 0
0.002401 0.000018 0
0.002363 0.000015 0
0.002326 0.000018 0
0.002290 0.000024 0
0.002255 0.000031 0
0.002222 0.000037 0
0.002191 0.000041 0
0.002162 0.000043 0
0.002134 0.000044 0
0.002109 0.000042 0
0.002085 0.000039 0
0.002063 0.000035 0
0.002042 0.000029 0
0.002022 0.000023 0
0.002002 0.000016 0
0.001984 0.000008 0
0.001965 -0.000001 0
0.001946 -0.000011 0
0.001927 -0.000022 0
0.001906 -0.000034 0
0.001884 -0.000049 0
0.001859 -0.000065 0
0.001831 -0.000083 0
0.001800 -0.000102 0
0.001765 -0.000118 0
0.001724 -0.000120 0
0.001675 -0.000086 0
0.001607 0.000036 0
0.001503 0.000332 0
0.001328 0.000946 0
0.001042 0.002044 0
0.000634 0.003579 0
0.000200 0.004339 0
0.000000 0.002128 0
0.000000 -0.000687 0
0.000134 -0.001784 0
0.000339 -0.002080 0
0.000513 -0.001656 0
0.000622 -0.001028 0
0.000671 -0.000466 0
0.000678 -0.000072 0
0.000663 0.000148 0
0.000640 0.000234 0
0.000615 0.000238 0
0.000592 0.000204 0
0.000569 0.000160 0
0.000547 0.000123 0
0.000523 0.000099 0
0.000497 0.000089 0
0.000470 0.000089 0
0.000442 0.000095 0
0.000412 0.000105 0
0.000382 0.000116 0
0.000352 0.000128 0
0.000321 0.000140 0
0.000289 0.000153 0
0.000258 0.000166 0
0.000226 0.000181 0
0.000194 0.000197 0
0.000162 0.000218 0
0.000130 0.000245 0
0.000100 0.000281 0
0.000070 0.000330 0
0.000042 0.000396 0
0.000017 0.000477 0
-0.000004 0.000567 0
-0.000017 0.000648 0
-0.000022 0.000686 0
-0.000018 0.000632 0
-0.000008 0.000424 0
0.000000 0.000137 0
0.000000 0.000000 0
0.000000 0.000000 0
0.000000 0.000000 0
0.000000 -0.000525 0
0.000196 -0.001825 0
0.000641 -0.003052 0
0.001198 -0.003640 0
0.001754 -0.003664 0
0.002236 -0.003273 0
0.002611 -0.002636 0
0.002873 -0.001899 0
0.003032 -0.001168 0
0.003104 -0.000516 0
0.003109 0.000019 0
0.003065 0.000421 0
0.002989 0.000688 0
0.002897 0.000833 0
0.002799 0.000876 0
0.002706 0.000840 0
0.002621 0.000752 0
0.002547 0.000634 0
0.002483 0.000508 0
0.002425 0.000387 0
0.002373 0.000283 0
0.002321 0.000199 0
0.002270 0.000139 0
0.002217 0.000098 0
0.002163 0.000075 0
0.002110 0.000063 0
0.002057 0.000060 0
0.002006 0.000062 0
0.001959 0.000066 0
0.001915 0.000070 0
0.001874 0.000073 0
0.001838 0.000075 0
0.001804 0.000075 0
0.001774 0.000073 0
0.001746 0.000069 0
0.001720 0.000064 0
0.001696 0.000059 0
0.001673 0.000052 0
0.001650 0.000045 0
0.001629 0.000037 0
0.001607 0.000029 0
0.001585 0.000020 0
0.001563 0.000011 0
0.001539 0.000002 0
0.001513 -0.000009 0
0.001484 -0.000020 0
0.001451 -0.000033 0
0.001415 -0.000048 0
0.001376 -0.000064 0
0.001335 -0.000076 0
0.001295 -0.000074 0
0.001255 -0.000031 0
0.001210 0.000111 0
0.001143 0.000453 0
0.001020 0.001149 0
0.000801 0.002355 0
0.000476 0.003954 0
0.000137 0.004614 0
0.000000 0.002211 0
0.000000 -0.000750 0
0.000116 -0.001940 0
0.000288 -0.002252 0
0.000426 -0.001781 0
0.000504 -0.001093 0
0.000532 -0.000485 0
0.000528 -0.000064 0
0.000509 0.000168 0
0.000485 0.000258 0
0.000461 0.000262 0
0.000438 0.000226 0
0.000415 0.000183 0
0.000390 0.000147 0
0.000364 0.000126 0
0.000335 0.000117 0
0.000305 0.000118 0
0.000273 0.000125 0
0.000241 0.000136 0
0.000210 0.000147 0
0.000178 0.000159 0
0.000147 0.000172 0
0.000116 0.000184 0
0.000086 0.000197 0
0.000056 0.000211 0
0.000028 0.000227 0
0.000001 0.000247 0
-0.000024 0.000272 0
-0.000046 0.000306 0
-0.000065 0.000353 0
-0.000080 0.000414 0
-0.000089 0.000490 0
-0.000090 0.000573 0
-0.000082 0.000645 0
-0.000065 0.000675 0
-0.000040 0.000614 0
-0.000014 0.000408 0
0.000000 0.000130 0
0.000000 0.000000 0
0.000000 0.000000 0
0.000000 0.000000 0
0.000000 -0.000624 0
0.000197 -0.002146 0
0.000637 -0.003549 0
0.001174 -0.004185 0
0.001693 -0.004164 0
0.002127 -0.003678 0
0.002449 -0.002930 0
0.002659 -0.002086 0
0.002772 -0.001264 0
0.002808 -0.000540 0
0.002787 0.000049 0
0.002726 0.000486 0
0.002642 0.000774 0
0.002546 0.000927 0
0.002450 0.000968 0
0.002358 0.000926 0
0.002275 0.000828 0
0.002199 0.000702 0
0.002130 0.000569 0
0.002063 0.000445 0
0.001997 0.000340 0
0.001929 0.000258 0
0.001860 0.000199 0
0.001789 0.000160 0
0.001719 0.000137 0
0.001651 0.000124 0
0.001588 0.000119 0
0.001530 0.000117 0
0.001477 0.000116 0
0.001431 0.000115 0
0.001390 0.000114 0
0.001354 0.000111 0
0.001322 0.000107 0
0.001294 0.000102 0
0.001269 0.000096 0
0.001245 0.000089 0
0.001224 0.000082 0
0.001203 0.000075 0
0.001183 0.000067 0
0.001163 0.000059 0
0.001143 0.000051 0
0.001122 0.000044 0
0.001100 0.000036 0
0.001076 0.000028 0
0.001049 0.000021 0
0.001018 0.000013 0
0.000984 0.000004 0
0.000945 -0.000008 0