# vtk DataFile Version 2.0
generated by CFD-lab course output (written by Tobias Neckel) 
ASCII

DATASET STRUCTURED_GRID
DIMENSIONS  99 49 1 
POINTS 4851 float

0.000000 0.000000 0
0.020000 0.000000 0
0.040000 0.000000 0
0.060000 0.000000 0
0.080000 0.000000 0
0.100000 0.000000 0
0.120000 0.000000 0
0.140000 0.000000 0
0.160000 0.000000 0
0.180000 0.000000 0
0.200000 0.000000 0
0.220000 0.000000 0
0.240000 0.000000 0
0.260000 0.000000 0
0.280000 0.000000 0
0.300000 0.000000 0
0.320000 0.000000 0
0.340000 0.000000 0
0.360000 0.000000 0
0.380000 0.000000 0
0.400000 0.000000 0
0.420000 0.000000 0
0.440000 0.000000 0
0.460000 0.000000 0
0.480000 0.000000 0
0.500000 0.000000 0
0.520000 0.000000 0
0.540000 0.000000 0
0.560000 0.000000 0
0.580000 0.000000 0
0.600000 0.000000 0
0.620000 0.000000 0
0.640000 0.000000 0
0.660000 0.000000 0
0.680000 0.000000 0
0.700000 0.000000 0
0.720000 0.000000 0
0.740000 0.000000 0
0.760000 0.000000 0
0.780000 0.000000 0
0.800000 0.000000 0
0.820000 0.000000 0
0.840000 0.000000 0
0.860000 0.000000 0
0.880000 0.000000 0
0.900000 0.000000 0
0.920000 0.000000 0
0.940000 0.000000 0
0.960000 0.000000 0
0.980000 0.000000 0
1.000000 0.000000 0
1.020000 0.000000 0
1.040000 0.000000 0
1.060000 0.000000 0
1.080000 0.000000 0
1.100000 0.000000 0
1.120000 0.000000 0
1.140000 0.000000 0
1.160000 0.000000 0
1.180000 0.000000 0
1.200000 0.000000 0
1.220000 0.000000 0
1.240000 0.000000 0
1.260000 0.000000 0
1.280000 0.000000 0
1.300000 0.000000 0
1.320000 0.000000 0
1.340000 0.000000 0
1.360000 0.000000 0
1.380000 0.000000 0
1.400000 0.000000 0
1.420000 0.000000 0
1.440000 0.000000 0
1.460000 0.000000 0
1.480000 0.000000 0
1.500000 0.000000 0
1.520000 0.000000 0
1.540000 0.000000 0
1.560000 0.000000 0
1.580000 0.000000 0
1.600000 0.000000 0
1.620000 0.000000 0
1.640000 0.000000 0
1.660000 0.000000 0
1.680000 0.000000 0
1.700000 0.000000 0
1.720000 0.000000 0
1.740000 0.000000 0
1.760000 0.000000 0
1.780000 0.000000 0
1.800000 0.000000 0
1.820000 0.000000 0
1.840000 0.000000 0
1.860000 0.000000 0
1.880000 0.000000 0
1.900000 0.000000 0
1.920000 0.000000 0
1.940000 0.000000 0
1.960000 0.000000 0
0.000000 0.020000 0
0.020000 0.020000 0
0.040000 0.020000 0
0.060000 0.020000 0
0.080000 0.020000 0
0.100000 0.020000 0
0.120000 0.020000 0
0.140000 0.020000 0
0.160000 0.020000 0
0.180000 0.020000 0
0.200000 0.020000 0
0.220000 0.020000 0
0.240000 0.020000 0
0.260000 0.020000 0
0.280000 0.020000 0
0.300000 0.020000 0
0.320000 0.020000 0
0.340000 0.020000 0
0.360000 0.020000 0
0.380000 0.020000 0
0.400000 0.020000 0
0.420000 0.020000 0
0.440000 0.020000 0
0.460000 0.020000 0
0.480000 0.020000 0
0.500000 0.020000 0
0.520000 0.020000 0
0.540000 0.020000 0
0.560000 0.020000 0
0.580000 0.020000 0
0.600000 0.020000 0
0.620000 0.020000 0
0.640000 0.020000 0
0.660000 0.020000 0
0.680000 0.020000 0
0.700000 0.020000 0
0.720000 0.020000 0
0.740000 0.020000 0
0.760000 0.020000 0
0.780000 0.020000 0
0.800000 0.020000 0
0.820000 0.020000 0
0.840000 0.020000 0
0.860000 0.020000 0
0.880000 0.020000 0
0.900000 0.020000 0
0.920000 0.020000 0
0.940000 0.020000 0
0.960000 0.020000 0
0.980000 0.020000 0
1.000000 0.020000 0
1.020000 0.020000 0
1.040000 0.020000 0
1.060000 0.020000 0
1.080000 0.020000 0
1.100000 0.020000 0
1.120000 0.020000 0
1.140000 0.020000 0
1.160000 0.020000 0
1.180000 0.020000 0
1.200000 0.020000 0
1.220000 0.020000 0
1.240000 0.020000 0
1.260000 0.020000 0
1.280000 0.020000 0
1.300000 0.020000 0
1.320000 0.020000 0
1.340000 0.020000 0
1.360000 0.020000 0
1.380000 0.020000 0
1.400000 0.020000 0
1.420000 0.020000 0
1.440000 0.020000 0
1.460000 0.020000 0
1.480000 0.020000 0
1.500000 0.020000 0
1.520000 0.020000 0
1.540000 0.020000 0
1.560000 0.020000 0
1.580000 0.020000 0
1.600000 0.020000 0
1.620000 0.020000 0
1.640000 0.020000 0
1.660000 0.020000 0
1.680000 0.020000 0
1.700000 0.020000 0
1.720000 0.020000 0
1.740000 0.020000 0
1.760000 0.020000 0
1.780000 0.020000 0
1.800000 0.020000 0
1.820000 0.020000 0
1.840000 0.020000 0
1.860000 0.020000 0
1.880000 0.020000 0
1.900000 0.020000 0
1.920000 0.020000 0
1.940000 0.020000 0
1.960000 0.020000 0
0.000000 0.040000 0
0.020000 0.040000 0
0.040000 0.040000 0
0.060000 0.040000 0
0.080000 0.040000 0
0.100000 0.040000 0
0.120000 0.040000 0
0.140000 0.040000 0
0.160000 0.040000 0
0.180000 0.040000 0
0.200000 0.040000 0
0.220000 0.040000 0
0.240000 0.040000 0
0.260000 0.040000 0
0.280000 0.040000 0
0.300000 0.040000 0
0.320000 0.040000 0
0.340000 0.040000 0
0.360000 0.040000 0
0.380000 0.040000 0
0.400000 0.040000 0
0.420000 0.040000 0
0.440000 0.040000 0
0.460000 0.040000 0
0.480000 0.040000 0
0.500000 0.040000 0
0.520000 0.040000 0
0.540000 0.040000 0
0.560000 0.040000 0
0.580000 0.040000 0
0.600000 0.040000 0
0.620000 0.040000 0
0.640000 0.040000 0
0.660000 0.040000 0
0.680000 0.040000 0
0.700000 0.040000 0
0.720000 0.040000 0
0.740000 0.040000 0
0.760000 0.040000 0
0.780000 0.040000 0
0.800000 0.040000 0
0.820000 0.040000 0
0.840000 0.040000 0
0.860000 0.040000 0
0.880000 0.040000 0
0.900000 0.040000 0
0.920000 0.040000 0
0.940000 0.040000 0
0.960000 0.040000 0
0.980000 0.040000 0
1.000000 0.040000 0
1.020000 0.040000 0
1.040000 0.040000 0
1.060000 0.040000 0
1.080000 0.040000 0
1.100000 0.040000 0
1.120000 0.040000 0
1.140000 0.040000 0
1.160000 0.040000 0
1.180000 0.040000 0
1.200000 0.040000 0
1.220000 0.040000 0
1.240000 0.040000 0
1.260000 0.040000 0
1.280000 0.040000 0
1.300000 0.040000 0
1.320000 0.040000 0
1.340000 0.040000 0
1.360000 0.040000 0
1.380000 0.040000 0
1.400000 0.040000 0
1.420000 0.040000 0
1.440000 0.040000 0
1.460000 0.040000 0
1.480000 0.040000 0
1.500000 0.040000 0
1.520000 0.040000 0
1.540000 0.040000 0
1.560000 0.040000 0
1.580000 0.040000 0
1.600000 0.040000 0
1.620000 0.040000 0
1.640000 0.040000 0
1.660000 0.040000 0
1.680000 0.040000 0
1.700000 0.040000 0
1.720000 0.040000 0
1.740000 0.040000 0
1.760000 0.040000 0
1.780000 0.040000 0
1.800000 0.040000 0
1.820000 0.040000 0
1.840000 0.040000 0
1.860000 0.040000 0
1.880000 0.040000 0
1.900000 0.040000 0
1.920000 0.040000 0
1.940000 0.040000 0
1.960000 0.040000 0
0.000000 0.060000 0
0.020000 0.060000 0
0.040000 0.060000 0
0.060000 0.060000 0
0.080000 0.060000 0
0.100000 0.060000 0
0.120000 0.060000 0
0.140000 0.060000 0
0.160000 0.060000 0
0.180000 0.060000 0
0.200000 0.060000 0
0.220000 0.060000 0
0.240000 0.060000 0
0.260000 0.060000 0
0.280000 0.060000 0
0.300000 0.060000 0
0.320000 0.060000 0
0.340000 0.060000 0
0.360000 0.060000 0
0.380000 0.060000 0
0.400000 0.060000 0
0.420000 0.060000 0
0.440000 0.060000 0
0.460000 0.060000 0
0.480000 0.060000 0
0.500000 0.060000 0
0.520000 0.060000 0
0.540000 0.060000 0
0.560000 0.060000 0
0.580000 0.060000 0
0.600000 0.060000 0
0.620000 0.060000 0
0.640000 0.060000 0
0.660000 0.060000 0
0.680000 0.060000 0
0.700000 0.060000 0
0.720000 0.060000 0
0.740000 0.060000 0
0.760000 0.060000 0
0.780000 0.060000 0
0.800000 0.060000 0
0.820000 0.060000 0
0.840000 0.060000 0
0.860000 0.060000 0
0.880000 0.060000 0
0.900000 0.060000 0
0.920000 0.060000 0
0.940000 0.060000 0
0.960000 0.060000 0
0.980000 0.060000 0
1.000000 0.060000 0
1.020000 0.060000 0
1.040000 0.060000 0
1.060000 0.060000 0
1.080000 0.060000 0
1.100000 0.060000 0
1.120000 0.060000 0
1.140000 0.060000 0
1.160000 0.060000 0
1.180000 0.060000 0
1.200000 0.060000 0
1.220000 0.060000 0
1.240000 0.060000 0
1.260000 0.060000 0
1.280000 0.060000 0
1.300000 0.060000 0
1.320000 0.060000 0
1.340000 0.060000 0
1.360000 0.060000 0
1.380000 0.060000 0
1.400000 0.060000 0
1.420000 0.060000 0
1.440000 0.060000 0
1.460000 0.060000 0
1.480000 0.060000 0
1.500000 0.060000 0
1.520000 0.060000 0
1.540000 0.060000 0
1.560000 0.060000 0
1.580000 0.060000 0
1.600000 0.060000 0
1.620000 0.060000 0
1.640000 0.060000 0
1.660000 0.060000 0
1.680000 0.060000 0
1.700000 0.060000 0
1.720000 0.060000 0
1.740000 0.060000 0
1.760000 0.060000 0
1.780000 0.060000 0
1.800000 0.060000 0
1.820000 0.060000 0
1.840000 0.060000 0
1.860000 0.060000 0
1.880000 0.060000 0
1.900000 0.060000 0
1.920000 0.060000 0
1.940000 0.060000 0
1.960000 0.060000 0
0.000000 0.080000 0
0.020000 0.080000 0
0.040000 0.080000 0
0.060000 0.080000 0
0.080000 0.080000 0
0.100000 0.080000 0
0.120000 0.080000 0
0.140000 0.080000 0
0.160000 0.080000 0
0.180000 0.080000 0
0.200000 0.080000 0
0.220000 0.080000 0
0.240000 0.080000 0
0.260000 0.080000 0
0.280000 0.080000 0
0.300000 0.080000 0
0.320000 0.080000 0
0.340000 0.080000 0
0.360000 0.080000 0
0.380000 0.080000 0
0.400000 0.080000 0
0.420000 0.080000 0
0.440000 0.080000 0
0.460000 0.080000 0
0.480000 0.080000 0
0.500000 0.080000 0
0.520000 0.080000 0
0.540000 0.080000 0
0.560000 0.080000 0
0.580000 0.080000 0
0.600000 0.080000 0
0.620000 0.080000 0
0.640000 0.080000 0
0.660000 0.080000 0
0.680000 0.080000 0
0.700000 0.080000 0
0.720000 0.080000 0
0.740000 0.080000 0
0.760000 0.080000 0
0.780000 0.080000 0
0.800000 0.080000 0
0.820000 0.080000 0
0.840000 0.080000 0
0.860000 0.080000 0
0.880000 0.080000 0
0.900000 0.080000 0
0.920000 0.080000 0
0.940000 0.080000 0
0.960000 0.080000 0
0.980000 0.080000 0
1.000000 0.080000 0
1.020000 0.080000 0
1.040000 0.080000 0
1.060000 0.080000 0
1.080000 0.080000 0
1.100000 0.080000 0
1.120000 0.080000 0
1.140000 0.080000 0
1.160000 0.080000 0
1.180000 0.080000 0
1.200000 0.080000 0
1.220000 0.080000 0
1.240000 0.080000 0
1.260000 0.080000 0
1.280000 0.080000 0
1.300000 0.080000 0
1.320000 0.080000 0
1.340000 0.080000 0
1.360000 0.080000 0
1.380000 0.080000 0
1.400000 0.080000 0
1.420000 0.080000 0
1.440000 0.080000 0
1.460000 0.080000 0
1.480000 0.080000 0
1.500000 0.080000 0
1.520000 0.080000 0
1.540000 0.080000 0
1.560000 0.080000 0
1.580000 0.080000 0
1.600000 0.080000 0
1.620000 0.080000 0
1.640000 0.080000 0
1.660000 0.080000 0
1.680000 0.080000 0
1.700000 0.080000 0
1.720000 0.080000 0
1.740000 0.080000 0
1.760000 0.080000 0
1.780000 0.080000 0
1.800000 0.080000 0
1.820000 0.080000 0
1.840000 0.080000 0
1.860000 0.080000 0
1.880000 0.080000 0
[...]
POINT_DATA 4851 

VECTORS velocity float
0.000000 0.000000 0
0.000056 0.000000 0
0.000141 0.000000 0
0.000209 0.000000 0
0.000246 0.000000 0
0.000258 0.000000 0
0.000253 0.000000 0
0.000240 0.000000 0
0.000225 0.000000 0
0.000212 0.000000 0
0.000202 0.000000 0
0.000196 0.000000 0
0.000192 0.000000 0
0.000191 0.000000 0
0.000190 0.000000 0
0.000190 0.000000 0
0.000190 0.000000 0
0.000190 0.000000 0
0.000189 0.000000 0
0.000188 0.000000 0
0.000187 0.000000 0
0.000186 0.000000 0
0.000184 0.000000 0
0.000183 0.000000 0
0.000181 0.000000 0
0.000179 0.000000 0
0.000177 0.000000 0
0.000174 0.000000 0
0.000171 0.000000 0
0.000166 0.000000 0
0.000158 0.000000 0
0.000145 0.000000 0
0.000124 0.000000 0
0.000094 0.000000 0
0.000056 0.000000 0
0.000018 0.000000 0
0.000000 0.000000 0
0.000000 0.000000 0
0.000000 0.000000 0
0.000000 0.000000 0
0.000000 0.000000 0
0.000002 0.000000 0
0.000036 0.000000 0
0.000099 0.000000 0
0.000175 0.000000 0
0.000250 0.000000 0
0.000314 0.000000 0
0.000360 0.000000 0
0.000387 0.000000 0
0.000397 0.000000 0
0.000393 0.000000 0
0.000379 0.000000 0
0.000358 0.000000 0
0.000335 0.000000 0
0.000312 0.000000 0
0.000291 0.000000 0
0.000272 0.000000 0
0.000258 0.000000 0
0.000247 0.000000 0
0.000240 0.000000 0
0.000237 0.000000 0
0.000236 0.000000 0
0.000237 0.000000 0
0.000240 0.000000 0
0.000244 0.000000 0
0.000248 0.000000 0
0.000252 0.000000 0
0.000256 0.000000 0
0.000260 0.000000 0
0.000263 0.000000 0
0.000266 0.000000 0
0.000268 0.000000 0
0.000270 0.000000 0
0.000272 0.000000 0
0.000274 0.000000 0
0.000275 0.000000 0
0.000277 0.000000 0
0.000279 0.000000 0
0.000280 0.000000 0
0.000282 0.000000 0
0.000284 0.000000 0
0.000286 0.000000 0
0.000288 0.000000 0
0.000291 0.000000 0
0.000294 0.000000 0
0.000297 0.000000 0
0.000301 0.000000 0
0.000307 0.000000 0
0.000314 0.000000 0
0.000324 0.000000 0
0.000338 0.000000 0
0.000358 0.000000 0
0.000389 0.000000 0
0.000434 0.000000 0
0.000499 0.000000 0
0.000579 0.000000 0
0.000626 0.000000 0
0.000482 0.000000 0
0.000000 0.000000 0
0.000000 -0.000057 0
0.000159 -0.000142 0
0.000401 -0.000153 0
0.000604 -0.000106 0
0.000729 -0.000050 0
0.000781 -0.000007 0
0.000781 0.000017 0
0.000754 0.000027 0
0.000716 0.000027 0
0.000681 0.000022 0
0.000653 0.000015 0
0.000633 0.000009 0
0.000622 0.000004 0
0.000616 0.000001 0
0.000614 -0.000000 0
0.000613 -0.000001 0
0.000612 -0.000000 0
0.000610 0.000000 0
0.000608 0.000001 0
0.000605 0.000001 0
0.000600 0.000002 0
0.000595 0.000002 0
0.000589 0.000002 0
0.000582 0.000003 0
0.000574 0.000003 0
0.000566 0.000003 0
0.000556 0.000004 0
0.000544 0.000005 0
0.000528 0.000008 0
0.000507 0.000012 0
0.000474 0.000020 0
0.000427 0.000033 0
0.000358 0.000051 0
0.000266 0.000068 0
0.000157 0.000075 0
0.000054 0.000055 0
0.000000 0.000018 0
0.000000 0.000000 0
0.000000 0.000000 0
0.000000 0.000000 0
0.000000 -0.000001 0
0.000033 -0.000036 0
0.000162 -0.000097 0
0.000367 -0.000138 0
0.000609 -0.000151 0
0.000849 -0.000139 0
0.001056 -0.000110 0
0.001212 -0.000073 0
0.001311 -0.000037 0
0.001356 -0.000005 0
0.001356 0.000019 0
0.001321 0.000035 0
0.001264 0.000044 0
0.001194 0.000047 0
0.001122 0.000045 0
0.001053 0.000040 0
0.000992 0.000033 0
0.000942 0.000025 0
0.000904 0.000018 0
0.000878 0.000011 0
0.000863 0.000005 0
0.000857 -0.000000 0
0.000858 -0.000004 0
0.000865 -0.000006 0
0.000875 -0.000008 0
0.000886 -0.000008 0
0.000899 -0.000008 0
0.000911 -0.000007 0
0.000921 -0.000007 0
0.000931 -0.000006 0
0.000940 -0.000005 0
0.000947 -0.000004 0
0.000953 -0.000004 0
0.000958 -0.000003 0
0.000963 -0.000003 0
0.000968 -0.000003 0
0.000972 -0.000003 0
0.000976 -0.000003 0
0.000981 -0.000003 0
0.000986 -0.000003 0
0.000991 -0.000004 0
0.000997 -0.000004 0
0.001003 -0.000005 0
0.001011 -0.000005 0
0.001020 -0.000006 0
0.001031 -0.000008 0
0.001045 -0.000010 0
0.001062 -0.000013 0
0.001084 -0.000017 0
0.001114 -0.000024 0
0.001154 -0.000034 0
0.001208 -0.000050 0
0.001281 -0.000075 0
0.001375 -0.000110 0
0.001483 -0.000145 0
0.001564 -0.000128 0
0.001484 0.000097 0
0.000968 0.000627 0
0.000000 0.000482 0
0.000000 -0.000160 0
0.000218 -0.000402 0
0.000558 -0.000447 0
0.000858 -0.000329 0
0.001058 -0.000178 0
0.001156 -0.000053 0
0.001178 0.000026 0
0.001154 0.000064 0
0.001110 0.000072 0
0.001064 0.000063 0
0.001025 0.000047 0
0.000998 0.000030 0
0.000980 0.000016 0
0.000970 0.000007 0
0.000965 0.000003 0
0.000962 0.000001 0
0.000959 0.000001 0
0.000956 0.000003 0
0.000950 0.000005 0
0.000943 0.000007 0
0.000934 0.000009 0
0.000924 0.000011 0
0.000912 0.000012 0
0.000898 0.000013 0
0.000882 0.000015 0
0.000864 0.000017 0
0.000843 0.000021 0
0.000818 0.000027 0
0.000785 0.000037 0
0.000741 0.000053 0
0.000681 0.000079 0
0.000600 0.000116 0
0.000492 0.000160 0
0.000357 0.000200 0
0.000208 0.000211 0
0.000072 0.000156 0
0.000000 0.000054 0
0.000000 0.000000 0
0.000000 0.000000 0
0.000000 0.000000 0
0.000000 -0.000033 0
0.000088 -0.000162 0
0.000323 -0.000333 0
0.000664 -0.000447 0
0.001052 -0.000481 0
0.001435 -0.000446 0
0.001770 -0.000363 0
0.002030 -0.000255 0
0.002205 -0.000143 0
0.002297 -0.000044 0
0.002317 0.000036 0
0.002280 0.000092 0
0.002202 0.000127 0
0.002101 0.000142 0
0.001991 0.000142 0
0.001882 0.000130 0
0.001783 0.000111 0
0.001699 0.000088 0
0.001634 0.000064 0
0.001587 0.000042 0
0.001557 0.000022 0
0.001542 0.000005 0
0.001538 -0.000007 0
0.001544 -0.000016 0
0.001556 -0.000021 0
0.001571 -0.000024 0
0.001587 -0.000024 0
0.001603 -0.000022 0
0.001618 -0.000020 0
0.001631 -0.000018 0
0.001643 -0.000015 0
0.001652 -0.000013 0
0.001660 -0.000011 0
0.001667 -0.000010 0
0.001673 -0.000009 0
0.001678 -0.000008 0
0.001683 -0.000008 0
0.001688 -0.000009 0
0.001694 -0.000009 0
0.001700 -0.000010 0
0.001706 -0.000011 0
0.001714 -0.000012 0
0.001723 -0.000014 0
0.001733 -0.000017 0
0.001746 -0.000020 0
0.001761 -0.000024 0
0.001781 -0.000030 0
0.001805 -0.000039 0
0.001835 -0.000051 0
0.001875 -0.000069 0
0.001924 -0.000094 0
0.001984 -0.000127 0
0.002053 -0.000167 0
0.002117 -0.000202 0
0.002139 -0.000189 0
0.002037 -0.000000 0
0.001660 0.000596 0
0.000864 0.001484 0
0.000000 0.000969 0
0.000000 -0.000275 0
0.000231 -0.000701 0
0.000600 -0.000794 0
0.000932 -0.000605 0
0.001161 -0.000348 0
0.001283 -0.000127 0
0.001321 0.000019 0
0.001307 0.000095 0
0.001267 0.000117 0
0.001223 0.000106 0
0.001184 0.000081 0
0.001155 0.000054 0
0.001135 0.000031 0
0.001123 0.000016 0
0.001116 0.000008 0
0.001110 0.000005 0
0.001104 0.000006 0
0.001097 0.000009 0
0.001087 0.000013 0
0.001076 0.000017 0
0.001062 0.000021 0
0.001047 0.000024 0
0.001028 0.000028 0
0.001008 0.000032 0
0.000985 0.000036 0
0.000958 0.000042 0
0.000927 0.000050 0
0.000889 0.000063 0
0.000843 0.000084 0
0.000784 0.000115 0
0.000708 0.000161 0
0.000611 0.000223 0
0.000489 0.000293 0
0.000347 0.000351 0
0.000197 0.000359 0
0.000067 0.000263 0
0.000000 0.000090 0
0.000000 0.000000 0
0.000000 0.000000 0
0.000000 0.000000 0
0.000000 -0.000089 0
0.000129 -0.000359 0
0.000443 -0.000672 0
0.000875 -0.000867 0
0.001356 -0.000922 0
0.001825 -0.000856 0
0.002235 -0.000704 0
0.002558 -0.000508 0
0.002783 -0.000304 0
0.002911 -0.000117 0
0.002953 0.000036 0
0.002925 0.000149 0
0.002848 0.000222 0
0.002738 0.000258 0
0.002612 0.000265 0
0.002486 0.000248 0
0.002368 0.000216 0
0.002266 0.000175 0
0.002184 0.000131 0
0.002124 0.000088 0
0.002083 0.000050 0
0.002059 0.000018 0
0.002049 -0.000006 0
0.002050 -0.000023 0
0.002058 -0.000034 0
0.002070 -0.000039 0
0.002084 -0.000040 0
0.002098 -0.000038 0
0.002111 -0.000035 0
0.002122 -0.000030 0
0.002131 -0.000026 0
0.002138 -0.000022 0
0.002143 -0.000018 0
0.002147 -0.000016 0
0.002151 -0.000014 0
0.002154 -0.000013 0
0.002156 -0.000013 0
0.002159 -0.000013 0
0.002162 -0.000014 0
0.002166 -0.000016 0
0.002171 -0.000018 0
0.002176 -0.000020 0
0.002183 -0.000024 0
0.002192 -0.000028 0
0.002203 -0.000034 0
0.002217 -0.000042 0
0.002235 -0.000053 0
0.002256 -0.000067 0
0.002283 -0.000087 0
0.002316 -0.000112 0
0.002352 -0.000144 0
0.002389 -0.000179 0
0.002415 -0.000207 0
0.002404 -0.000196 0
0.002306 -0.000065 0
0.002037 0.000352 0
0.001490 0.001271 0
0.000662 0.002287 0
0.000000 0.001346 0
0.000000 -0.000391 0
0.000224 -0.001003 0
0.000586 -0.001148 0
0.000914 -0.000892 0
0.001143 -0.000529 0
0.001268 -0.000213 0
0.001311 0.000003 0
0.001302 0.000118 0
0.001268 0.000156 0
0.001229 0.000146 0
0.001193 0.000114 0
0.001165 0.000078 0
0.001146 0.000047 0
0.001132 0.000027 0
0.001122 0.000016 0
0.001112 0.000012 0
0.001102 0.000014 0
0.001090 0.000019 0
0.001076 0.000025 0
0.001059 0.000032 0
0.001041 0.000038 0
0.001020 0.000044 0
0.000996 0.000050 0
0.000969 0.000057 0
0.000940 0.000065 0
0.000906 0.000075 0
0.000868 0.000089 0
0.000822 0.000110 0
0.000769 0.000142 0
0.000703 0.000188 0
0.000623 0.000252 0
0.000525 0.000334 0
0.000410 0.000423 0
0.000283 0.000492 0
0.000156 0.000491 0
0.000050 0.000353 0
0.000000 0.000120 0
0.000000 0.000000 0
0.000000 0.000000 0
0.000000 0.000000 0
0.000000 -0.000161 0
0.000154 -0.000604 0
0.000521 -0.001079 0
0.001014 -0.001360 0
0.001552 -0.001431 0
0.002068 -0.001325 0
0.002517 -0.001096 0
0.002871 -0.000803 0
0.003120 -0.000496 0
0.003268 -0.000214 0
0.003325 0.000021 0
0.003308 0.000197 0
0.003237 0.000315 0
0.003129 0.000378 0
0.003003 0.000394 0
0.002874 0.000375 0
0.002752 0.000331 0
0.002645 0.000272 0
0.002558 0.000207 0
0.002492 0.000144 0
0.002445 0.000086 0
0.002415 0.000039 0
0.002399 0.000001 0
0.002393 -0.000025 0
0.002394 -0.000041 0
0.002398 -0.000049 0
0.002405 -0.000051 0
0.002411 -0.000049 0
0.002416 -0.000044 0
0.002420 -0.000038 0
0.002422 -0.000031 0
0.002422 -0.000026 0
0.002422 -0.000021 0
0.002420 -0.000017 0
0.002418 -0.000015 0
0.002415 -0.000014 0
0.002413 -0.000014 0
0.002411 -0.000014 0
0.002409 -0.000016 0
0.002408 -0.000018 0
0.002408 -0.000021 0
0.002409 -0.000025 0
0.002411 -0.000030 0
0.002415 -0.000036 0
0.002421 -0.000045 0
0.002428 -0.000055 0
0.002438 -0.000069 0
0.002451 -0.000088 0
0.002466 -0.000110 0
0.002482 -0.000138 0
0.002495 -0.000167 0
0.002499 -0.000189 0
0.002476 -0.000182 0
0.002397 -0.000094 0
0.002213 0.000178 0
0.001854 0.000816 0
0.001260 0.001971 0
0.000501 0.002974 0
0.000000 0.001630 0
0.000000 -0.000500 0
0.000209 -0.001288 0
0.000545 -0.001484 0
0.000850 -0.001163 0
0.001061 -0.000702 0
0.001175 -0.000295 0
0.001213 -0.000015 0
0.001205 0.000137 0
0.001175 0.000190 0
0.001139 0.000181 0
0.001107 0.000144 0
0.001082 0.000101 0
0.001062 0.000064 0
0.001046 0.000040 0
0.001032 0.000028 0
0.001017 0.000025 0
0.001002 0.000028 0
0.000984 0.000035 0
0.000965 0.000043 0
0.000943 0.000052 0
0.000919 0.000060 0
0.000893 0.000069 0
0.000864 0.000078 0
0.000833 0.000088 0
0.000799 0.000099 0
0.000761 0.000114 0
0.000718 0.000134 0
0.000670 0.000162 0
0.000615 0.000203 0
0.000552 0.000261 0
0.000477 0.000339 0
0.000391 0.000435 0
0.000296 0.000534 0
0.000197 0.000605 0
0.000103 0.000592 0
0.000031 0.000418 0
0.000000 0.000141 0
0.000000 0.000000 0
0.000000 0.000000 0
0.000000 0.000000 0
0.000000 -0.000243 0
0.000170 -0.000880 0
0.000570 -0.001532 0
0.001100 -0.001897 0
0.001668 -0.001976 0
0.002204 -0.001821 0
0.002664 -0.001507 0
0.003023 -0.001112 0
0.003275 -0.000700 0
0.003425 -0.000321 0
0.003486 -0.000004 0
0.003474 0.000238 0
0.003408 0.000401 0
0.003308 0.000492 0
0.003189 0.000520 0
0.003066 0.000499 0
0.002950 0.000444 0
0.002847 0.000369 0
0.002763 0.000285 0
0.002697 0.000202 0
0.002649 0.000127 0
0.002615 0.000064 0
0.002593 0.000016 0
0.002579 -0.000018 0
0.002570 -0.000039 0
0.002564 -0.000050 0
0.002558 -0.000052 0
0.002553 -0.000049 0
0.002546 -0.000043 0
0.002539 -0.000036 0
0.002530 -0.000028 0
0.002521 -0.000021 0
0.002511 -0.000016 0
0.002501 -0.000012 0
0.002491 -0.000009 0
0.002482 -0.000008 0
0.002473 -0.000008 0
0.002464 -0.000009 0
0.002456 -0.000012 0
0.002449 -0.000015 0
0.002443 -0.000019 0
0.002438 -0.000024 0
0.002433 -0.000030 0
0.002430 -0.000038 0
0.002428 -0.000047 0
0.002426 -0.000060 0
0.002426 -0.000075 0
0.002426 -0.000094 0
0.002425 -0.000117 0
0.002422 -0.000141 0
0.002412 -0.000160 0
0.002386 -0.000160 0
0.002328 -0.000106 0
0.002209 0.000067 0
0.001986 0.000479 0
0.001606 0.001305 0
0.001039 0.002624 0
0.000380 0.003547 0
0.000000 0.001846 0
0.000000 -0.000601 0
0.000190 -0.001549 0
0.000492 -0.001789 0
0.000762 -0.001407 0
0.000945 -0.000854 0
0.001040 -0.000365 0
0.001069 -0.000028 0
0.001059 0.000156 0
0.001030 0.000221 0
0.000998 0.000213 0
0.000968 0.000172 0
0.000944 0.000123 0
0.000923 0.000083 0
0.000904 0.000057 0
0.000885 0.000044 0
0.000865 0.000042 0
0.000843 0.000047 0
0.000820 0.000056 0
0.000795 0.000066 0
0.000768 0.000077 0
0.000739 0.000088 0
0.000709 0.000099 0
0.000677 0.000110 0
0.000642 0.000122 0
0.000605 0.000137 0
0.000566 0.000155 0
0.000523 0.000179 0
0.000477 0.000213 0
0.000427 0.000260 0
0.000371 0.000326 0
0.000309 0.000412 0
0.000243 0.000515 0
0.000174 0.000618 0
0.000108 0.000684 0
0.000052 0.000656 0
0.000014 0.000456 0
0.000000 0.000151 0
0.000000 0.000000 0
0.000000 0.000000 0
0.000000 0.000000 0
0.000000 -0.000331 0
0.000179 -0.001174 0
0.000599 -0.002010 0
0.001147 -0.002457 0
0.001724 -0.002535 0
0.002258 -0.002320 0
0.002706 -0.001914 0
0.003049 -0.001413 0
0.003286 -0.000898 0
0.003423 -0.000425 0
0.003477 -0.000028 0
0.003464 0.000275 0
0.003401 0.000481 0
0.003307 0.000597 0
0.003198 0.000636 0
0.003086 0.000614 0
0.002980 0.000549 0
0.002888 0.000459 0
0.002811 0.000358 0
0.002749 0.000258 0
0.002702 0.000168 0
0.002665 0.000094 0
0.002636 0.000038 0
0.002612 -0.000002 0
0.002591 -0.000026 0
0.002570 -0.000037 0
0.002550 -0.000040 0
0.002529 -0.000037 0
0.002508 -0.000030 0
0.002487 -0.000021 0
0.002466 -0.000013 0
0.002445 -0.000006 0
0.002425 -0.000001 0
0.002406 0.000003 0
0.002388 0.000005 0
0.002371 0.000005 0
0.002354 0.000004 0
0.002339 0.000002 0
0.002325 -0.000001 0
0.002312 -0.000005 0
0.002300 -0.000009 0
0.002288 -0.000015 0
0.002277 -0.000022 0
0.002266 -0.000031 0
0.002255 -0.000041 0
0.002244 -0.000053 0
0.002232 -0.000069 0
0.002219 -0.000087 0
0.002203 -0.000106 0
0.002184 -0.000124 0
0.002156 -0.000131 0
0.002113 -0.000105 0
0.002040 -0.000005 0
0.001913 0.000248 0
0.001694 0.000782 0
0.001341 0.001764 0
0.000838 0.003197 0
0.000286 0.004013 0
0.000000 0.002010 0
0.000000 -0.000691 0
0.000169 -0.001781 0
0.000434 -0.002057 0
0.000665 -0.001617 0
0.000816 -0.000980 0
0.000889 -0.000419 0
0.000906 -0.000033 0
0.000891 0.000176 0
0.000863 0.000250 0
0.000833 0.000243 0
0.000805 0.000198 0
0.000781 0.000146 0
0.000757 0.000104 0
0.000734 0.000078 0
0.000710 0.000066 0
0.000684 0.000066 0
0.000657 0.000072 0
0.000629 0.000083 0
0.000599 0.000095 0
0.000568 0.000107 0
0.000535 0.000119 0
0.000502 0.000131 0
0.000468 0.000144 0
0.000432 0.000159 0
0.000395 0.000175 0
0.000356 0.000196 0
0.000317 0.000222 0
0.000276 0.000258 0
0.000234 0.000309 0
0.000190 0.000378 0
0.000146 0.000466 0
0.000102 0.000570 0
0.000062 0.000669 0
0.000030 0.000727 0
0.000008 0.000686 0
-0.000001 0.000470 0
0.000000 0.000154 0
0.000000 0.000000 0
0.000000 0.000000 0
0.000000 0.000000 0
0.000000 -0.000422 0
0.000185 -0.001479 0
0.000614 -0.002500 0
0.001166 -0.003022 0
0.001734 -0.003087 0
0.002247 -0.002803 0
0.002666 -0.002298 0
0.002977 -0.001691 0
0.003183 -0.001074 0
0.003297 -0.000512 0
0.003334 -0.000044 0
0.003312 0.000314 0
0.003248 0.000558 0
0.003159 0.000695 0
0.003059 0.000741 0
0.002958 0.000717 0
0.002865 0.000643 0
0.002783 0.000539 0
0.002714 0.000423 0
0.002656 0.000311 0
0.002608 0.000211 0
0.002566 0.000130 0
0.002528 0.000069 0
0.002491 0.000027 0
0.002454 0.000003 0
0.002416 -0.000009 0
0.002379 -0.000011 0
0.002341 -0.000008 0
0.002305 -0.000001 0
0.002270 0.000007 0
0.002237 0.000014 0
0.002206 0.000020 0
0.002177 0.000024 0
0.002150 0.000026 0
0.002125 0.000026 0
0.002101 0.000026 0
0.002080 0.000023 0
0.002060 0.000020 0
0.002041 0.000016 0
0.002023 0.000011 0
0.002006 0.000006 0
0.001989 -0.000001 0
0.001973 -0.000008 0
0.001956 -0.000016 0
0.001938 -0.000025 0
0.001919 -0.000037 0
0.001897 -0.000050 0
0.001873 -0.000066 0
0.001847 -0.000082 0
0.001816 -0.000094 0
0.001781 -0.000090 0
0.001736 -0.000044 0
0.001670 0.000094 0
0.001563 0.000413 0
0.001380 0.001051 0
0.001081 0.002162 0
0.000658 0.003679 0
0.000210 0.004385 0
0.000000 0.002133 0
0.000000 -0.000770 0
0.000148 -0.001984 0
0.000375 -0.002285 0
0.000566 -0.001789 0
0.000683 -0.001078 0
0.000734 -0.000456 0
0.000739 -0.000030 0
0.000720 0.000198 0
0.000692 0.000279 0
0.000664 0.000271 0
0.000638 0.000224 0
0.000612 0.000171 0
0.000586 0.000129 0
0.000559 0.000104 0
0.000530 0.000094 0
0.000499 0.000095 0
0.000467 0.000103 0
0.000434 0.000114 0
0.000401 0.000127 0
0.000367 0.000140 0
0.000333 0.000153 0
0.000298 0.000166 0
0.000263 0.000180 0
0.000228 0.000195 0
0.000193 0.000212 0
0.000158 0.000233 0
0.000124 0.000259 0
0.000091 0.000296 0
0.000059 0.000346 0
0.000030 0.000413 0
0.000004 0.000500 0
-0.000017 0.000598 0
-0.000030 0.000690 0
-0.000033 0.000738 0
-0.000025 0.000686 0
-0.000011 0.000464 0
0.000000 0.000150 0
0.000000 0.000000 0
0.000000 0.000000 0
0.000000 0.000000 0
0.000000 -0.000515 0
0.000188 -0.001788 0
0.000619 -0.002991 0
0.001160 -0.003577 0
0.001704 -0.003616 0
0.002181 -0.003252 0
0.002557 -0.002644 0
0.002824 -0.001931 0
0.002991 -0.001218 0
0.003073 -0.000576 0
0.003087 -0.000043 0
0.003051 0.000361 0
0.002982 0.000634 0
0.002893 0.000787 0
0.002798 0.000838 0
0.002706 0.000809 0
0.002620 0.000725 0
0.002545 0.000610 0
0.002480 0.000484 0
0.002421 0.000364 0
0.002367 0.000259 0
0.002315 0.000175 0
0.002262 0.000113 0
0.002208 0.000073 0
0.002152 0.000049 0
0.002097 0.000038 0
0.002043 0.000035 0
0.001990 0.000037 0
0.001941 0.000042 0
0.001896 0.000047 0
0.001854 0.000051 0
0.001817 0.000054 0
0.001783 0.000055 0
0.001752 0.000055 0
0.001724 0.000053 0
0.001699 0.000050 0
0.001676 0.000046 0
0.001654 0.000042 0
0.001633 0.000036 0
0.001614 0.000031 0
0.001595 0.000025 0
0.001576 0.000018 0
0.001557 0.000012 0
0.001537 0.000004 0
0.001515 -0.000004 0
0.001491 -0.000013 0
0.001463 -0.000023 0
0.001433 -0.000036 0
0.001401 -0.000049 0
0.001368 -0.000058 0
0.001336 -0.000050 0
0.001303 0.000006 0
0.001264 0.000168 0
0.001196 0.000539 0
0.001067 0.001264 0
0.000836 0.002486 0
0.000497 0.004069 0
0.000146 0.004671 0
0.000000 0.002220 0
0.000000 -0.000839 0
0.000129 -0.002157 0
0.000319 -0.002475 0
0.000470 -0.001925 0
0.000556 -0.001149 0
0.000586 -0.000475 0
0.000580 -0.000020 0
0.000558 0.000222 0
0.000531 0.000306 0
0.000504 0.000297 0
0.000478 0.000250 0
0.000451 0.000197 0
0.000423 0.000157 0
0.000393 0.000134 0
0.000360 0.000126 0
0.000325 0.000128 0
0.000290 0.000137 0
0.000254 0.000149 0
0.000219 0.000162 0
0.000184 0.000175 0
0.000150 0.000188 0
0.000115 0.000201 0
0.000082 0.000214 0
0.000050 0.000229 0
0.000018 0.000245 0
-0.000011 0.000264 0
-0.000039 0.000289 0
-0.000063 0.000323 0
-0.000084 0.000370 0
-0.000099 0.000433 0
-0.000108 0.000513 0
-0.000109 0.000603 0
-0.000099 0.000685 0
-0.000078 0.000722 0
-0.000048 0.000664 0
-0.000017 0.000444 0
0.000000 0.000143 0
0.000000 0.000000 0
0.000000 0.000000 0
0.000000 0.000000 0
0.000000 -0.000609 0
0.000189 -0.002097 0
0.000612 -0.003472 0
0.001133 -0.004108 0
0.001641 -0.004108 0
0.002070 -0.003655 0
0.002393 -0.002940 0
0.002609 -0.002124 0
0.002730 -0.001323 0
0.002775 -0.000608 0
0.002762 -0.000022 0
0.002708 0.000419 0
0.002628 0.000715 0
0.002535 0.000878 0
0.002438 0.000930 0
0.002345 0.000895 0
0.002259 0.000803 0
0.002181 0.000680 0
0.002109 0.000548 0
0.002040 0.000424 0
0.001971 0.000318 0
0.001900 0.000236 0
0.001827 0.000176 0
0.001754 0.000137 0
0.001681 0.000114 0
0.001610 0.000101 0
0.001545 0.000095 0
0.001484 0.000094 0
0.001430 0.000094 0
0.001382 0.000094 0
0.001340 0.000093 0
0.001303 0.000091 0
0.001271 0.000088 0
0.001243 0.000085 0
0.001218 0.000080 0
0.001196 0.000074 0
0.001176 0.000069 0
0.001157 0.000062 0
0.001139 0.000056 0
0.001122 0.000050 0
0.001106 0.000044 0
0.001089 0.000038 0
0.001071 0.000032 0
0.001052 0.000026 0
0.001030 0.000021 0
0.001005 0.000015 0
0.000977 0.000007 0