# vtk DataFile Version 2.0
generated by CFD-lab course output (written by Tobias Neckel) 
ASCII

DATASET STRUCTURED_GRID
DIMENSIONS  99 49 1 
POINTS 4851 float

0.000000 0.000000 0
0.020000 0.000000 0
0.040000 0.000000 0
0.060000 0.000000 0
0.080000 0.000000 0
0.100000 0.000000 0
0.120000 0.000000 0
0.140000 0.000000 0
0.160000 0.000000 0
0.180000 0.000000 0
0.200000 0.000000 0
0.220000 0.000000 0
0.240000 0.000000 0
0.260000 0.000000 0
0.280000 0.000000 0
0.300000 0.000000 0
0.320000 0.000000 0
0.340000 0.000000 0
0.360000 0.000000 0
0.380000 0.000000 0
0.400000 0.000000 0
0.420000 0.000000 0
0.440000 0.000000 0
0.460000 0.000000 0
0.480000 0.000000 0
0.500000 0.000000 0
0.520000 0.000000 0
0.540000 0.000000 0
0.560000 0.000000 0
0.580000 0.000000 0
0.600000 0.000000 0
0.620000 0.000000 0
0.640000 0.000000 0
0.660000 0.000000 0
0.680000 0.000000 0
0.700000 0.000000 0
0.720000 0.000000 0
0.740000 0.000000 0
0.760000 0.000000 0
0.780000 0.000000 0
0.800000 0.000000 0
0.820000 0.000000 0
0.840000 0.000000 0
0.860000 0.000000 0
0.880000 0.000000 0
0.900000 0.000000 0
0.920000 0.000000 0
0.940000 0.000000 0
0.960000 0.000000 0
0.980000 0.000000 0
1.000000 0.000000 0
1.020000 0.000000 0
1.040000 0.000000 0
1.060000 0.000000 0
1.080000 0.000000 0
1.100000 0.000000 0
1.120000 0.000000 0
1.140000 0.000000 0
1.160000 0.000000 0
1.180000 0.000000 0
1.200000 0.000000 0
1.220000 0.000000 0
1.240000 0.000000 0
1.260000 0.000000 0
1.280000 0.000000 0
1.300000 0.000000 0
1.320000 0.000000 0
1.340000 0.000000 0
1.360000 0.000000 0
1.380000 0.000000 0
1.400000 0.000000 0
1.420000 0.000000 0
1.440000 0.000000 0
1.460000 0.000000 0
1.480000 0.000000 0
1.500000 0.000000 0
1.520000 0.000000 0
1.540000 0.000000 0
1.560000 0.000000 0
1.580000 0.000000 0
1.600000 0.000000 0
1.620000 0.000000 0
1.640000 0.000000 0
1.660000 0.000000 0
1.680000 0.000000 0
1.700000 0.000000 0
1.720000 0.000000 0
1.740000 0.000000 0
1.760000 0.000000 0
1.780000 0.000000 0
1.800000 0.000000 0
1.820000 0.000000 0
1.840000 0.000000 0
1.860000 0.000000 0
1.880000 0.000000 0
1.900000 0.000000 0
1.920000 0.000000 0
1.940000 0.000000 0
1.960000 0.000000 0
0.000000 0.020000 0
0.020000 0.020000 0
0.040000 0.020000 0
0.060000 0.020000 0
0.080000 0.020000 0
0.100000 0.020000 0
0.120000 0.020000 0
0.140000 0.020000 0
0.160000 0.020000 0
0.180000 0.020000 0
0.200000 0.020000 0
0.220000 0.020000 0
0.240000 0.020000 0
0.260000 0.020000 0
0.280000 0.020000 0
0.300000 0.020000 0
0.320000 0.020000 0
0.340000 0.020000 0
0.360000 0.020000 0
0.380000 0.020000 0
0.400000 0.020000 0
0.420000 0.020000 0
0.440000 0.020000 0
0.460000 0.020000 0
0.480000 0.020000 0
0.500000 0.020000 0
0.520000 0.020000 0
0.540000 0.020000 0
0.560000 0.020000 0
0.580000 0.020000 0
0.600000 0.020000 0
0.620000 0.020000 0
0.640000 0.020000 0
0.660000 0.020000 0
0.680000 0.020000 0
0.700000 0.020000 0
0.720000 0.020000 0
0.740000 0.020000 0
0.760000 0.020000 0
0.780000 0.020000 0
0.800000 0.020000 0
0.820000 0.020000 0
0.840000 0.020000 0
0.860000 0.020000 0
0.880000 0.020000 0
0.900000 0.020000 0
0.920000 0.020000 0
0.940000 0.020000 0
0.960000 0.020000 0
0.980000 0.020000 0
1.000000 0.020000 0
1.020000 0.020000 0
1.040000 0.020000 0
1.060000 0.020000 0
1.080000 0.020000 0
1.100000 0.020000 0
1.120000 0.020000 0
1.140000 0.020000 0
1.160000 0.020000 0
1.180000 0.020000 0
1.200000 0.020000 0
1.220000 0.020000 0
1.240000 0.020000 0
1.260000 0.020000 0
1.280000 0.020000 0
1.300000 0.020000 0
1.320000 0.020000 0
1.340000 0.020000 0
1.360000 0.020000 0
1.380000 0.020000 0
1.400000 0.020000 0
1.420000 0.020000 0
1.440000 0.020000 0
1.460000 0.020000 0
1.480000 0.020000 0
1.500000 0.020000 0
1.520000 0.020000 0
1.540000 0.020000 0
1.560000 0.020000 0
1.580000 0.020000 0
1.600000 0.020000 0
1.620000 0.020000 0
1.640000 0.020000 0
1.660000 0.020000 0
1.680000 0.020000 0
1.700000 0.020000 0
1.720000 0.020000 0
1.740000 0.020000 0
1.760000 0.020000 0
1.780000 0.020000 0
1.800000 0.020000 0
1.820000 0.020000 0
1.840000 0.020000 0
1.860000 0.020000 0
1.880000 0.020000 0
1.900000 0.020000 0
1.920000 0.020000 0
1.940000 0.020000 0
1.960000 0.020000 0
0.000000 0.040000 0
0.020000 0.040000 0
0.040000 0.040000 0
0.060000 0.040000 0
0.080000 0.040000 0
0.100000 0.040000 0
0.120000 0.040000 0
0.140000 0.040000 0
0.160000 0.040000 0
0.180000 0.040000 0
0.200000 0.040000 0
0.220000 0.040000 0
0.240000 0.040000 0
0.260000 0.040000 0
0.280000 0.040000 0
0.300000 0.040000 0
0.320000 0.040000 0
0.340000 0.040000 0
0.360000 0.040000 0
0.380000 0.040000 0
0.400000 0.040000 0
0.420000 0.040000 0
0.440000 0.040000 0
0.460000 0.040000 0
0.480000 0.040000 0
0.500000 0.040000 0
0.520000 0.040000 0
0.540000 0.040000 0
0.560000 0.040000 0
0.580000 0.040000 0
0.600000 0.040000 0
0.620000 0.040000 0
0.640000 0.040000 0
0.660000 0.040000 0
0.680000 0.040000 0
0.700000 0.040000 0
0.720000 0.040000 0
0.740000 0.040000 0
0.760000 0.040000 0
0.780000 0.040000 0
0.800000 0.040000 0
0.820000 0.040000 0
0.840000 0.040000 0
0.860000 0.040000 0
0.880000 0.040000 0
0.900000 0.040000 0
0.920000 0.040000 0
0.940000 0.040000 0
0.960000 0.040000 0
0.980000 0.040000 0
1.000000 0.040000 0
1.020000 0.040000 0
1.040000 0.040000 0
1.060000 0.040000 0
1.080000 0.040000 0
1.100000 0.040000 0
1.120000 0.040000 0
1.140000 0.040000 0
1.160000 0.040000 0
1.180000 0.040000 0
1.200000 0.040000 0
1.220000 0.040000 0
1.240000 0.040000 0
1.260000 0.040000 0
1.280000 0.040000 0
1.300000 0.040000 0
1.320000 0.040000 0
1.340000 0.040000 0
1.360000 0.040000 0
1.380000 0.040000 0
1.400000 0.040000 0
1.420000 0.040000 0
1.440000 0.040000 0
1.460000 0.040000 0
1.480000 0.040000 0
1.500000 0.040000 0
1.520000 0.040000 0
1.540000 0.040000 0
1.560000 0.040000 0
1.580000 0.040000 0
1.600000 0.040000 0
1.620000 0.040000 0
1.640000 0.040000 0
1.660000 0.040000 0
1.680000 0.040000 0
1.700000 0.040000 0
1.720000 0.040000 0
1.740000 0.040000 0
1.760000 0.040000 0
1.780000 0.040000 0
1.800000 0.040000 0
1.820000 0.040000 0
1.840000 0.040000 0
1.860000 0.040000 0
1.880000 0.040000 0
1.900000 0.040000 0
1.920000 0.040000 0
1.940000 0.040000 0
1.960000 0.040000 0
0.000000 0.060000 0
0.020000 0.060000 0
0.040000 0.060000 0
0.060000 0.060000 0
0.080000 0.060000 0
0.100000 0.060000 0
0.120000 0.060000 0
0.140000 0.060000 0
0.160000 0.060000 0
0.180000 0.060000 0
0.200000 0.060000 0
0.220000 0.060000 0
0.240000 0.060000 0
0.260000 0.060000 0
0.280000 0.060000 0
0.300000 0.060000 0
0.320000 0.060000 0
0.340000 0.060000 0
0.360000 0.060000 0
0.380000 0.060000 0
0.400000 0.060000 0
0.420000 0.060000 0
0.440000 0.060000 0
0.460000 0.060000 0
0.480000 0.060000 0
0.500000 0.060000 0
0.520000 0.060000 0
0.540000 0.060000 0
0.560000 0.060000 0
0.580000 0.060000 0
0.600000 0.060000 0
0.620000 0.060000 0
0.640000 0.060000 0
0.660000 0.060000 0
0.680000 0.060000 0
0.700000 0.060000 0
0.720000 0.060000 0
0.740000 0.060000 0
0.760000 0.060000 0
0.780000 0.060000 0
0.800000 0.060000 0
0.820000 0.060000 0
0.840000 0.060000 0
0.860000 0.060000 0
0.880000 0.060000 0
0.900000 0.060000 0
0.920000 0.060000 0
0.940000 0.060000 0
0.960000 0.060000 0
0.980000 0.060000 0
1.000000 0.060000 0
1.020000 0.060000 0
1.040000 0.060000 0
1.060000 0.060000 0
1.080000 0.060000 0
1.100000 0.060000 0
1.120000 0.060000 0
1.140000 0.060000 0
1.160000 0.060000 0
1.180000 0.060000 0
1.200000 0.060000 0
1.220000 0.060000 0
1.240000 0.060000 0
1.260000 0.060000 0
1.280000 0.060000 0
1.300000 0.060000 0
1.320000 0.060000 0
1.340000 0.060000 0
1.360000 0.060000 0
1.380000 0.060000 0
1.400000 0.060000 0
1.420000 0.060000 0
1.440000 0.060000 0
1.460000 0.060000 0
1.480000 0.060000 0
1.500000 0.060000 0
1.520000 0.060000 0
1.540000 0.060000 0
1.560000 0.060000 0
1.580000 0.060000 0
1.600000 0.060000 0
1.620000 0.060000 0
1.640000 0.060000 0
1.660000 0.060000 0
1.680000 0.060000 0
1.700000 0.060000 0
1.720000 0.060000 0
1.740000 0.060000 0
1.760000 0.060000 0
1.780000 0.060000 0
1.800000 0.060000 0
1.820000 0.060000 0
1.840000 0.060000 0
1.860000 0.060000 0
1.880000 0.060000 0
1.900000 0.060000 0
1.920000 0.060000 0
1.940000 0.060000 0
1.960000 0.060000 0
0.000000 0.080000 0
0.020000 0.080000 0
0.040000 0.080000 0
0.060000 0.080000 0
0.080000 0.080000 0
0.100000 0.080000 0
0.120000 0.080000 0
0.140000 0.080000 0
0.160000 0.080000 0
0.180000 0.080000 0
0.200000 0.080000 0
0.220000 0.080000 0
0.240000 0.080000 0
0.260000 0.080000 0
0.280000 0.080000 0
0.300000 0.080000 0
0.320000 0.080000 0
0.340000 0.080000 0
0.360000 0.080000 0
0.380000 0.080000 0
0.400000 0.080000 0
0.420000 0.080000 0
0.440000 0.080000 0
0.460000 0.080000 0
0.480000 0.080000 0
0.500000 0.080000 0
0.520000 0.080000 0
0.540000 0.080000 0
0.560000 0.080000 0
0.580000 0.080000 0
0.600000 0.080000 0
0.620000 0.080000 0
0.640000 0.080000 0
0.660000 0.080000 0
0.680000 0.080000 0
0.700000 0.080000 0
0.720000 0.080000 0
0.740000 0.080000 0
0.760000 0.080000 0
0.780000 0.080000 0
0.800000 0.080000 0
0.820000 0.080000 0
0.840000 0.080000 0
0.860000 0.080000 0
0.880000 0.080000 0
0.900000 0.080000 0
0.920000 0.080000 0
0.940000 0.080000 0
0.960000 0.080000 0
0.980000 0.080000 0
1.000000 0.080000 0
1.020000 0.080000 0
1.040000 0.080000 0
1.060000 0.080000 0
1.080000 0.080000 0
1.100000 0.080000 0
1.120000 0.080000 0
1.140000 0.080000 0
1.160000 0.080000 0
1.180000 0.080000 0
1.200000 0.080000 0
1.220000 0.080000 0
1.240000 0.080000 0
1.260000 0.080000 0
1.280000 0.080000 0
1.300000 0.080000 0
1.320000 0.080000 0
1.340000 0.080000 0
1.360000 0.080000 0
1.380000 0.080000 0
1.400000 0.080000 0
1.420000 0.080000 0
1.440000 0.080000 0
1.460000 0.080000 0
1.480000 0.080000 0
1.500000 0.080000 0
1.520000 0.080000 0
1.540000 0.080000 0
1.560000 0.080000 0
1.580000 0.080000 0
1.600000 0.080000 0
1.620000 0.080000 0
1.640000 0.080000 0
1.660000 0.080000 0
1.680000 0.080000 0
1.700000 0.080000 0
1.720000 0.080000 0
1.740000 0.080000 0
1.760000 0.080000 0
1.780000 0.080000 0
1.800000 0.080000 0
1.820000 0.080000 0
1.840000 0.080000 0
1.860000 0.080000 0
1.880000 0.080000 0
[...]
POINT_DATA 4851 

VECTORS velocity float
0.000000 0.000000 0
0.000063 0.000000 0
0.000156 0.000000 0
0.000228 0.000000 0
0.000267 0.000000 0
0.000278 0.000000 0
0.000271 0.000000 0
0.000255 0.000000 0
0.000239 0.000000 0
0.000225 0.000000 0
0.000214 0.000000 0
0.000208 0.000000 0
0.000205 0.000000 0
0.000203 0.000000 0
0.000203 0.000000 0
0.000203 0.000000 0
0.000203 0.000000 0
0.000203 0.000000 0
0.000202 0.000000 0
0.000202 0.000000 0
0.000200 0.000000 0
0.000199 0.000000 0
0.000197 0.000000 0
0.000196 0.000000 0
0.000194 0.000000 0
0.000192 0.000000 0
0.000190 0.000000 0
0.000187 0.000000 0
0.000184 0.000000 0
0.000179 0.000000 0
0.000171 0.000000 0
0.000158 0.000000 0
0.000137 0.000000 0
0.000104 0.000000 0
0.000063 0.000000 0
0.000021 0.000000 0
0.000000 0.000000 0
0.000000 0.000000 0
0.000000 0.000000 0
0.000000 0.000000 0
0.000000 0.000000 0
-0.000008 0.000000 0
0.000018 0.000000 0
0.000081 0.000000 0
0.000166 0.000000 0
0.000255 0.000000 0
0.000333 0.000000 0
0.000393 0.000000 0
0.000431 0.000000 0
0.000449 0.000000 0
0.000450 0.000000 0
0.000439 0.000000 0
0.000420 0.000000 0
0.000397 0.000000 0
0.000373 0.000000 0
0.000350 0.000000 0
0.000330 0.000000 0
0.000314 0.000000 0
0.000302 0.000000 0
0.000293 0.000000 0
0.000288 0.000000 0
0.000286 0.000000 0
0.000286 0.000000 0
0.000289 0.000000 0
0.000292 0.000000 0
0.000296 0.000000 0
0.000300 0.000000 0
0.000305 0.000000 0
0.000309 0.000000 0
0.000313 0.000000 0
0.000316 0.000000 0
0.000319 0.000000 0
0.000321 0.000000 0
0.000323 0.000000 0
0.000325 0.000000 0
0.000327 0.000000 0
0.000328 0.000000 0
0.000330 0.000000 0
0.000331 0.000000 0
0.000332 0.000000 0
0.000333 0.000000 0
0.000334 0.000000 0
0.000335 0.000000 0
0.000337 0.000000 0
0.000338 0.000000 0
0.000339 0.000000 0
0.000341 0.000000 0
0.000344 0.000000 0
0.000348 0.000000 0
0.000354 0.000000 0
0.000364 0.000000 0
0.000380 0.000000 0
0.000405 0.000000 0
0.000443 0.000000 0
0.000501 0.000000 0
0.000573 0.000000 0
0.000614 0.000000 0
0.000467 0.000000 0
0.000000 0.000000 0
0.000000 -0.000063 0
0.000176 -0.000157 0
0.000441 -0.000166 0
0.000659 -0.000112 0
0.000790 -0.000050 0
0.000841 -0.000004 0
0.000836 0.000022 0
0.000803 0.000031 0
0.000761 0.000030 0
0.000722 0.000024 0
0.000692 0.000016 0
0.000672 0.000009 0
0.000661 0.000004 0
0.000656 0.000001 0
0.000654 -0.000001 0
0.000654 -0.000001 0
0.000653 -0.000001 0
0.000652 0.000000 0
0.000650 0.000001 0
0.000646 0.000001 0
0.000641 0.000002 0
0.000636 0.000002 0
0.000629 0.000003 0
0.000622 0.000003 0
0.000614 0.000003 0
0.000605 0.000003 0
0.000595 0.000004 0
0.000583 0.000005 0
0.000568 0.000007 0
0.000546 0.000012 0
0.000513 0.000020 0
0.000464 0.000034 0
0.000393 0.000053 0
0.000294 0.000073 0
0.000175 0.000083 0
0.000061 0.000062 0
0.000000 0.000021 0
0.000000 0.000000 0
0.000000 0.000000 0
0.000000 0.000000 0
0.000000 0.000009 0
0.000015 -0.000017 0
0.000131 -0.000089 0
0.000344 -0.000148 0
0.000612 -0.000174 0
0.000889 -0.000167 0
0.001135 -0.000138 0
0.001329 -0.000097 0
0.001460 -0.000056 0
0.001529 -0.000019 0
0.001546 0.000010 0
0.001522 0.000030 0
0.001470 0.000042 0
0.001403 0.000047 0
0.001328 0.000047 0
0.001255 0.000043 0
0.001189 0.000037 0
0.001134 0.000029 0
0.001090 0.000021 0
0.001058 0.000014 0
0.001038 0.000007 0
0.001027 0.000002 0
0.001025 -0.000002 0
0.001030 -0.000005 0
0.001038 -0.000007 0
0.001049 -0.000008 0
0.001062 -0.000008 0
0.001075 -0.000008 0
0.001087 -0.000008 0
0.001098 -0.000007 0
0.001108 -0.000006 0
0.001117 -0.000005 0
0.001124 -0.000004 0
0.001130 -0.000004 0
0.001135 -0.000003 0
0.001140 -0.000003 0
0.001144 -0.000003 0
0.001147 -0.000002 0
0.001151 -0.000002 0
0.001154 -0.000002 0
0.001157 -0.000002 0
0.001159 -0.000002 0
0.001162 -0.000002 0
0.001165 -0.000002 0
0.001169 -0.000003 0
0.001173 -0.000003 0
0.001179 -0.000005 0
0.001187 -0.000007 0
0.001199 -0.000010 0
0.001217 -0.000016 0
0.001244 -0.000025 0
0.001283 -0.000040 0
0.001339 -0.000064 0
0.001414 -0.000097 0
0.001501 -0.000130 0
0.001560 -0.000112 0
0.001462 0.000107 0
0.000943 0.000614 0
0.000000 0.000467 0
0.000000 -0.000177 0
0.000240 -0.000442 0
0.000611 -0.000484 0
0.000934 -0.000351 0
0.001144 -0.000182 0
0.001243 -0.000047 0
0.001260 0.000037 0
0.001229 0.000075 0
0.001178 0.000081 0
0.001127 0.000068 0
0.001086 0.000049 0
0.001057 0.000030 0
0.001040 0.000015 0
0.001031 0.000006 0
0.001027 0.000001 0
0.001025 -0.000000 0
0.001022 0.000001 0
0.001019 0.000003 0
0.001013 0.000005 0
0.001005 0.000008 0
0.000996 0.000010 0
0.000985 0.000011 0
0.000972 0.000013 0
0.000957 0.000014 0
0.000941 0.000016 0
0.000922 0.000018 0
0.000901 0.000021 0
0.000874 0.000027 0
0.000841 0.000037 0
0.000796 0.000053 0
0.000735 0.000080 0
0.000650 0.000120 0
0.000536 0.000169 0
0.000392 0.000216 0
0.000230 0.000232 0
0.000081 0.000174 0
0.000000 0.000060 0
0.000000 0.000000 0
0.000000 0.000000 0
0.000000 0.000000 0
0.000000 -0.000015 0
0.000080 -0.000131 0
0.000317 -0.000328 0
0.000678 -0.000480 0
0.001105 -0.000544 0
0.001536 -0.000523 0
0.001922 -0.000440 0
0.002232 -0.000324 0
0.002451 -0.000200 0
0.002578 -0.000086 0
0.002625 0.000007 0
0.002606 0.000076 0
0.002539 0.000120 0
0.002442 0.000143 0
0.002330 0.000148 0
0.002216 0.000139 0
0.002110 0.000122 0
0.002017 0.000100 0
0.001942 0.000076 0
0.001886 0.000052 0
0.001847 0.000031 0
0.001825 0.000013 0
0.001816 -0.000002 0
0.001818 -0.000013 0
0.001827 -0.000020 0
0.001841 -0.000024 0
0.001858 -0.000025 0
0.001875 -0.000025 0
0.001892 -0.000023 0
0.001908 -0.000021 0
0.001921 -0.000018 0
0.001933 -0.000016 0
0.001942 -0.000013 0
0.001950 -0.000011 0
0.001956 -0.000009 0
0.001961 -0.000008 0
0.001965 -0.000007 0
0.001969 -0.000006 0
0.001972 -0.000006 0
0.001974 -0.000006 0
0.001977 -0.000006 0
0.001979 -0.000006 0
0.001982 -0.000006 0
0.001985 -0.000006 0
0.001988 -0.000008 0
0.001994 -0.000010 0
0.002001 -0.000014 0
0.002011 -0.000020 0
0.002026 -0.000030 0
0.002048 -0.000044 0
0.002078 -0.000066 0
0.002115 -0.000095 0
0.002158 -0.000131 0
0.002193 -0.000162 0
0.002185 -0.000146 0
0.002053 0.000039 0
0.001652 0.000617 0
0.000851 0.001462 0
0.000000 0.000944 0
0.000000 -0.000304 0
0.000254 -0.000769 0
0.000655 -0.000860 0
0.001012 -0.000645 0
0.001255 -0.000360 0
0.001379 -0.000120 0
0.001413 0.000036 0
0.001392 0.000112 0
0.001346 0.000131 0
0.001296 0.000116 0
0.001254 0.000086 0
0.001223 0.000055 0
0.001204 0.000030 0
0.001192 0.000014 0
0.001185 0.000005 0
0.001180 0.000003 0
0.001174 0.000005 0
0.001167 0.000009 0
0.001157 0.000014 0
0.001145 0.000018 0
0.001130 0.000022 0
0.001113 0.000026 0
0.001094 0.000030 0
0.001072 0.000033 0
0.001047 0.000038 0
0.001019 0.000043 0
0.000987 0.000052 0
0.000948 0.000064 0
0.000900 0.000085 0
0.000839 0.000117 0
0.000760 0.000166 0
0.000658 0.000232 0
0.000530 0.000311 0
0.000378 0.000379 0
0.000216 0.000394 0
0.000074 0.000292 0
0.000000 0.000101 0
0.000000 0.000000 0
0.000000 0.000000 0
0.000000 0.000000 0
0.000000 -0.000071 0
0.000136 -0.000334 0
0.000472 -0.000687 0
0.000939 -0.000935 0
0.001463 -0.001031 0
0.001981 -0.000984 0
0.002441 -0.000834 0
0.002813 -0.000626 0
0.003082 -0.000402 0
0.003247 -0.000192 0
0.003318 -0.000017 0
0.003311 0.000116 0
0.003246 0.000206 0
0.003142 0.000256 0
0.003017 0.000273 0
0.002885 0.000263 0
0.002760 0.000236 0
0.002649 0.000197 0
0.002556 0.000153 0
0.002485 0.000109 0
0.002434 0.000068 0
0.002402 0.000033 0
0.002386 0.000005 0
0.002382 -0.000016 0
0.002387 -0.000031 0
0.002398 -0.000039 0
0.002413 -0.000042 0
0.002428 -0.000042 0
0.002442 -0.000040 0
0.002456 -0.000036 0
0.002467 -0.000031 0
0.002476 -0.000026 0
0.002483 -0.000022 0
0.002488 -0.000018 0
0.002491 -0.000014 0
0.002493 -0.000012 0
0.002494 -0.000010 0
0.002494 -0.000009 0
0.002494 -0.000008 0
0.002493 -0.000007 0
0.002492 -0.000007 0
0.002492 -0.000007 0
0.002491 -0.000008 0
0.002491 -0.000009 0
0.002492 -0.000011 0
0.002494 -0.000016 0
0.002499 -0.000022 0
0.002506 -0.000032 0
0.002516 -0.000047 0
0.002530 -0.000067 0
0.002545 -0.000093 0
0.002558 -0.000121 0
0.002556 -0.000141 0
0.002514 -0.000123 0
0.002381 0.000011 0
0.002077 0.000421 0
0.001503 0.001308 0
0.000662 0.002266 0
0.000000 0.001318 0
0.000000 -0.000431 0
0.000246 -0.001097 0
0.000638 -0.001243 0
0.000992 -0.000951 0
0.001235 -0.000550 0
0.001363 -0.000206 0
0.001403 0.000024 0
0.001388 0.000142 0
0.001348 0.000176 0
0.001303 0.000160 0
0.001264 0.000121 0
0.001235 0.000080 0
0.001215 0.000046 0
0.001202 0.000024 0
0.001191 0.000013 0
0.001181 0.000011 0
0.001171 0.000014 0
0.001158 0.000020 0
0.001143 0.000027 0
0.001125 0.000034 0
0.001105 0.000041 0
0.001082 0.000047 0
0.001056 0.000054 0
0.001028 0.000060 0
0.000996 0.000068 0
0.000961 0.000078 0
0.000920 0.000092 0
0.000873 0.000113 0
0.000817 0.000145 0
0.000749 0.000193 0
0.000665 0.000261 0
0.000562 0.000350 0
0.000441 0.000449 0
0.000305 0.000530 0
0.000168 0.000536 0
0.000055 0.000390 0
0.000000 0.000134 0
0.000000 0.000000 0
0.000000 0.000000 0
0.000000 0.000000 0
0.000000 -0.000151 0
0.000174 -0.000603 0
0.000578 -0.001131 0
0.001114 -0.001471 0
0.001697 -0.001586 0
0.002260 -0.001501 0
0.002753 -0.001272 0
0.003150 -0.000964 0
0.003437 -0.000633 0
0.003617 -0.000322 0
0.003700 -0.000057 0
0.003702 0.000148 0
0.003643 0.000289 0
0.003541 0.000372 0
0.003416 0.000404 0
0.003283 0.000396 0
0.003154 0.000359 0
0.003038 0.000304 0
0.002941 0.000240 0
0.002865 0.000175 0
0.002809 0.000114 0
0.002771 0.000061 0
0.002749 0.000018 0
0.002739 -0.000014 0
0.002737 -0.000036 0
0.002741 -0.000049 0
0.002748 -0.000054 0
0.002755 -0.000054 0
0.002762 -0.000051 0
0.002768 -0.000045 0
0.002772 -0.000038 0
0.002774 -0.000031 0
0.002774 -0.000025 0
0.002772 -0.000019 0
0.002769 -0.000015 0
0.002765 -0.000011 0
0.002760 -0.000008 0
0.002755 -0.000006 0
0.002749 -0.000005 0
0.002743 -0.000004 0
0.002737 -0.000004 0
0.002731 -0.000004 0
0.002725 -0.000005 0
0.002720 -0.000007 0
0.002716 -0.000011 0
0.002713 -0.000016 0
0.002711 -0.000025 0
0.002710 -0.000037 0
0.002711 -0.000053 0
0.002711 -0.000073 0
0.002706 -0.000094 0
0.002688 -0.000106 0
0.002640 -0.000086 0
0.002531 0.000013 0
0.002311 0.000291 0
0.001915 0.000918 0
0.001290 0.002032 0
0.000510 0.002965 0
0.000000 0.001606 0
0.000000 -0.000551 0
0.000228 -0.001408 0
0.000594 -0.001607 0
0.000922 -0.001242 0
0.001146 -0.000731 0
0.001264 -0.000288 0
0.001300 0.000011 0
0.001287 0.000167 0
0.001251 0.000216 0
0.001211 0.000199 0
0.001176 0.000154 0
0.001148 0.000104 0
0.001128 0.000063 0
0.001111 0.000037 0
0.001096 0.000025 0
0.001080 0.000024 0
0.001064 0.000028 0
0.001045 0.000037 0
0.001023 0.000046 0
0.001000 0.000056 0
0.000974 0.000065 0
0.000945 0.000074 0
0.000914 0.000083 0
0.000881 0.000093 0
0.000844 0.000105 0
0.000803 0.000119 0
0.000758 0.000139 0
0.000708 0.000167 0
0.000650 0.000209 0
0.000583 0.000269 0
0.000505 0.000352 0
0.000415 0.000456 0
0.000314 0.000568 0
0.000209 0.000651 0
0.000109 0.000644 0
0.000033 0.000460 0
0.000000 0.000156 0
0.000000 0.000000 0
0.000000 0.000000 0
0.000000 0.000000 0
0.000000 -0.000244 0
0.000194 -0.000911 0
0.000638 -0.001627 0
0.001214 -0.002055 0
0.001827 -0.002177 0
0.002406 -0.002040 0
0.002904 -0.001724 0
0.003298 -0.001310 0
0.003580 -0.000869 0
0.003756 -0.000455 0
0.003837 -0.000102 0
0.003840 0.000174 0
0.003784 0.000367 0
0.003687 0.000483 0
0.003568 0.000532 0
0.003441 0.000526 0
0.003319 0.000480 0
0.003209 0.000410 0
0.003116 0.000327 0
0.003042 0.000242 0
0.002986 0.000162 0
0.002946 0.000093 0
0.002920 0.000037 0
0.002903 -0.000004 0
0.002892 -0.000033 0
0.002886 -0.000049 0
0.002881 -0.000056 0
0.002876 -0.000057 0
0.002871 -0.000052 0
0.002865 -0.000045 0
0.002857 -0.000036 0
0.002849 -0.000028 0
0.002839 -0.000020 0
0.002828 -0.000013 0
0.002816 -0.000007 0
0.002804 -0.000003 0
0.002792 0.000001 0
0.002779 0.000003 0
0.002767 0.000005 0
0.002754 0.000005 0
0.002742 0.000005 0
0.002730 0.000005 0
0.002719 0.000003 0
0.002708 0.000000 0
0.002697 -0.000004 0
0.002687 -0.000010 0
0.002678 -0.000020 0
0.002669 -0.000032 0
0.002658 -0.000047 0
0.002644 -0.000062 0
0.002622 -0.000070 0
0.002580 -0.000055 0
0.002501 0.000016 0
0.002355 0.000206 0
0.002099 0.000627 0
0.001682 0.001442 0
0.001080 0.002713 0
0.000395 0.003556 0
0.000000 0.001829 0
0.000000 -0.000660 0
0.000207 -0.001692 0
0.000536 -0.001937 0
0.000827 -0.001504 0
0.001022 -0.000892 0
0.001121 -0.000360 0
0.001148 0.000001 0
0.001133 0.000191 0
0.001100 0.000252 0
0.001064 0.000235 0
0.001032 0.000183 0
0.001005 0.000128 0
0.000983 0.000083 0
0.000962 0.000055 0
0.000941 0.000043 0
0.000919 0.000043 0
0.000896 0.000049 0
0.000870 0.000060 0
0.000843 0.000072 0
0.000814 0.000083 0
0.000782 0.000095 0
0.000749 0.000106 0
0.000714 0.000118 0
0.000677 0.000131 0
0.000637 0.000145 0
0.000594 0.000163 0
0.000549 0.000187 0
0.000500 0.000221 0
0.000446 0.000269 0
0.000387 0.000337 0
0.000323 0.000429 0
0.000253 0.000541 0
0.000181 0.000655 0
0.000111 0.000735 0
0.000053 0.000712 0
0.000013 0.000499 0
0.000000 0.000167 0
0.000000 0.000000 0
0.000000 0.000000 0
0.000000 0.000000 0
0.000000 -0.000345 0
0.000203 -0.001240 0
0.000665 -0.002150 0
0.001258 -0.002660 0
0.001877 -0.002778 0
0.002449 -0.002578 0
0.002929 -0.002164 0
0.003300 -0.001640 0
0.003559 -0.001091 0
0.003715 -0.000578 0
0.003783 -0.000141 0
0.003778 0.000201 0
0.003720 0.000442 0
0.003627 0.000588 0
0.003516 0.000650 0
0.003399 0.000646 0
0.003287 0.000592 0
0.003188 0.000507 0
0.003104 0.000407 0
0.003036 0.000305 0
0.002983 0.000209 0
0.002942 0.000127 0
0.002911 0.000062 0
0.002885 0.000014 0
0.002863 -0.000018 0
0.002843 -0.000037 0
0.002823 -0.000045 0
0.002803 -0.000045 0
0.002782 -0.000039 0
0.002762 -0.000031 0
0.002740 -0.000022 0
0.002719 -0.000013 0
0.002698 -0.000004 0
0.002677 0.000003 0
0.002657 0.000009 0
0.002637 0.000014 0
0.002617 0.000017 0
0.002598 0.000019 0
0.002579 0.000020 0
0.002561 0.000021 0
0.002544 0.000020 0
0.002527 0.000019 0
0.002510 0.000017 0
0.002494 0.000014 0
0.002478 0.000010 0
0.002461 0.000003 0
0.002445 -0.000006 0
0.002427 -0.000017 0
0.002408 -0.000029 0
0.002384 -0.000037 0
0.002351 -0.000030 0
0.002300 0.000015 0
0.002213 0.000139 0
0.002063 0.000416 0
0.001813 0.000965 0
0.001423 0.001937 0
0.000884 0.003318 0
0.000304 0.004045 0
0.000000 0.002001 0
0.000000 -0.000758 0
0.000184 -0.001944 0
0.000472 -0.002227 0
0.000721 -0.001728 0
0.000882 -0.001026 0
0.000959 -0.000415 0
0.000975 -0.000002 0
0.000957 0.000215 0
0.000925 0.000285 0
0.000892 0.000267 0
0.000862 0.000212 0
0.000835 0.000153 0
0.000810 0.000106 0
0.000785 0.000078 0
0.000759 0.000067 0
0.000730 0.000069 0
0.000700 0.000077 0
0.000669 0.000089 0
0.000636 0.000103 0
0.000602 0.000116 0
0.000567 0.000129 0
0.000530 0.000142 0
0.000493 0.000156 0
0.000454 0.000170 0
0.000413 0.000187 0
0.000372 0.000207 0
0.000329 0.000233 0
0.000285 0.000270 0
0.000240 0.000321 0
0.000194 0.000392 0
0.000147 0.000486 0
0.000101 0.000598 0
0.000059 0.000709 0
0.000026 0.000779 0
0.000005 0.000742 0
-0.000002 0.000512 0
0.000000 0.000169 0
0.000000 0.000000 0
0.000000 0.000000 0
0.000000 0.000000 0
0.000000 -0.000447 0
0.000205 -0.001576 0
0.000671 -0.002682 0
0.001262 -0.003267 0
0.001867 -0.003368 0
0.002412 -0.003092 0
0.002856 -0.002575 0
0.003188 -0.001939 0
0.003409 -0.001284 0
0.003534 -0.000678 0
0.003579 -0.000165 0
0.003560 0.000236 0
0.003496 0.000518 0
0.003404 0.000688 0
0.003299 0.000760 0
0.003191 0.000754 0
0.003091 0.000692 0
0.003002 0.000594 0
0.002927 0.000479 0
0.002865 0.000362 0
0.002814 0.000256 0
0.002769 0.000165 0
0.002730 0.000095 0
0.002692 0.000043 0
0.002655 0.000010 0
0.002618 -0.000009 0
0.002581 -0.000016 0
0.002544 -0.000016 0
0.002507 -0.000011 0
0.002471 -0.000003 0
0.002437 0.000006 0
0.002404 0.000015 0
0.002374 0.000022 0
0.002345 0.000029 0
0.002317 0.000034 0
0.002291 0.000037 0
0.002267 0.000040 0
0.002244 0.000041 0
0.002222 0.000041 0
0.002200 0.000041 0
0.002180 0.000040 0
0.002160 0.000039 0
0.002140 0.000036 0
0.002121 0.000033 0
0.002101 0.000029 0
0.002080 0.000023 0
0.002058 0.000015 0
0.002036 0.000005 0
0.002011 -0.000004 0
0.001984 -0.000005 0
0.001952 0.000015 0
0.001906 0.000084 0
0.001833 0.000253 0
0.001708 0.000606 0
0.001497 0.001267 0
0.001163 0.002371 0
0.000705 0.003833 0
0.000228 0.004441 0
0.000000 0.002132 0
0.000000 -0.000845 0
0.000161 -0.002165 0
0.000408 -0.002474 0
0.000614 -0.001914 0
0.000740 -0.001130 0
0.000794 -0.000453 0
0.000798 0.000003 0
0.000777 0.000240 0
0.000747 0.000316 0
0.000717 0.000298 0
0.000688 0.000240 0
0.000660 0.000179 0
0.000632 0.000133 0
0.000603 0.000107 0
0.000571 0.000098 0
0.000537 0.000101 0
0.000502 0.000111 0
0.000466 0.000124 0
0.000429 0.000138 0
0.000392 0.000152 0
0.000354 0.000166 0
0.000316 0.000180 0
0.000278 0.000195 0
0.000239 0.000210 0
0.000201 0.000227 0
0.000163 0.000247 0
0.000125 0.000274 0
0.000089 0.000310 0
0.000055 0.000360 0
0.000023 0.000430 0
-0.000005 0.000521 0
-0.000026 0.000628 0
-0.000039 0.000730 0
-0.000041 0.000789 0
-0.000031 0.000740 0
-0.000013 0.000504 0
0.000000 0.000164 0
0.000000 0.000000 0
0.000000 0.000000 0
0.000000 0.000000 0
0.000000 -0.000549 0
0.000203 -0.001910 0
0.000663 -0.003207 0
0.001237 -0.003856 0
0.001811 -0.003928 0
0.002312 -0.003567 0
0.002706 -0.002940 0
0.002986 -0.002193 0
0.003161 -0.001438 0
0.003247 -0.000747 0
0.003263 -0.000167 0
0.003225 0.000284 0
0.003151 0.000598 0
0.003055 0.000786 0
0.002952 0.000864 0
0.002851 0.000854 0
0.002757 0.000781 0
0.002675 0.000671 0
0.002604 0.000544 0
0.002542 0.000419 0
0.002485 0.000305 0
0.002431 0.000212 0
0.002378 0.000140 0
0.002323 0.000089 0
0.002268 0.000056 0
0.002213 0.000038 0
0.002159 0.000030 0
0.002106 0.000029 0
0.002056 0.000033 0
0.002010 0.000039 0
0.001967 0.000045 0
0.001928 0.000051 0
0.001892 0.000056 0
0.001860 0.000060 0
0.001831 0.000063 0
0.001804 0.000064 0
0.001779 0.000065 0
0.001756 0.000065 0
0.001734 0.000064 0
0.001713 0.000063 0
0.001694 0.000061 0
0.001674 0.000059 0
0.001655 0.000057 0
0.001635 0.000054 0
0.001614 0.000050 0
0.001592 0.000045 0
0.001569 0.000039 0
0.001545 0.000030 0
0.001521 0.000023 0
0.001498 0.000023 0
0.001476 0.000049 0
0.001452 0.000134 0
0.001411 0.000336 0
0.001332 0.000752 0
0.001178 0.001510 0
0.000915 0.002729 0
0.000544 0.004254 0
0.000163 0.004751 0
0.000000 0.002229 0
0.000000 -0.000920 0
0.000140 -0.002353 0
0.000347 -0.002679 0
0.000511 -0.002061 0
0.000604 -0.001206 0
0.000637 -0.000474 0
0.000631 0.000014 0
0.000607 0.000266 0
0.000578 0.000345 0
0.000550 0.000326 0
0.000522 0.000268 0
0.000493 0.000208 0
0.000463 0.000164 0
0.000429 0.000140 0
0.000393 0.000133 0
0.000356 0.000137 0
0.000317 0.000148 0
0.000278 0.000162 0
0.000239 0.000176 0
0.000201 0.000191 0
0.000163 0.000204 0
0.000126 0.000218 0
0.000089 0.000232 0
0.000053 0.000247 0
0.000018 0.000263 0
-0.000014 0.000282 0
-0.000045 0.000307 0
-0.000072 0.000340 0
-0.000095 0.000387 0
-0.000112 0.000451 0
-0.000122 0.000535 0
-0.000123 0.000633 0
-0.000112 0.000724 0
-0.000088 0.000770 0
-0.000055 0.000714 0
-0.000020 0.000481 0
0.000000 0.000155 0
0.000000 0.000000 0
0.000000 0.000000 0
0.000000 0.000000 0
0.000000 -0.000650 0
0.000200 -0.002238 0
0.000645 -0.003715 0
0.001189 -0.004415 0
0.001719 -0.004443 0
0.002165 -0.003988 0
0.002498 -0.003249 0
0.002719 -0.002394 0
0.002841 -0.001545 0
0.002884 -0.000780 0
0.002867 -0.000142 0
0.002805 0.000348 0
0.002716 0.000688 0
0.002612 0.000887 0
0.002504 0.000965 0
0.002400 0.000949 0
0.002304 0.000867 0
0.002218 0.000747 0
0.002139 0.000612 0
0.002066 0.000481 0
0.001994 0.000366 0
0.001922 0.000273 0
0.001849 0.000203 0
0.001776 0.000153 0
0.001703 0.000120 0
0.001633 0.000101 0
0.001567 0.000091 0
0.001506 0.000087 0
0.001452 0.000086 0
0.001403 0.000087 0
0.001360 0.000088 0
0.001323 0.000089 0
0.001291 0.000090 0
0.001263 0.000090 0
0.001238 0.000090 0
0.001216 0.000089 0
0.001197 0.000088 0
0.001179 0.000086 0
0.001163 0.000084 0
0.001148 0.000082 0
0.001133 0.000079 0
0.001118 0.000077 0
0.001103 0.000076 0
0.001087 0.000074 0
0.001069 0.000072 0
0.001049 0.000068 0
0.001027 0.000062 0
0.001006 0.000053 0
0.000988 0.000043 0