# vtk DataFile Version 2.0
generated by CFD-lab course output (written by Tobias Neckel) 
ASCII

DATASET STRUCTURED_GRID
DIMENSIONS  99 49 1 
POINTS 4851 float

0.000000 0.000000 0
0.020000 0.000000 0
0.040000 0.000000 0
0.060000 0.000000 0
0.080000 0.000000 0
0.100000 0.000000 0
0.120000 0.000000 0
0.140000 0.000000 0
0.160000 0.000000 0
0.180000 0.000000 0
0.200000 0.000000 0
0.220000 0.000000 0
0.240000 0.000000 0
0.260000 0.000000 0
0.280000 0.000000 0
0.300000 0.000000 0
0.320000 0.000000 0
0.340000 0.000000 0
0.360000 0.000000 0
0.380000 0.000000 0
0.400000 0.000000 0
0.420000 0.000000 0
0.440000 0.000000 0
0.460000 0.000000 0
0.480000 0.000000 0
0.500000 0.000000 0
0.520000 0.000000 0
0.540000 0.000000 0
0.560000 0.000000 0
0.580000 0.000000 0
0.600000 0.000000 0
0.620000 0.000000 0
0.640000 0.000000 0
0.660000 0.000000 0
0.680000 0.000000 0
0.700000 0.000000 0
0.720000 0.000000 0
0.740000 0.000000 0
0.760000 0.000000 0
0.780000 0.000000 0
0.800000 0.000000 0
0.820000 0.000000 0
0.840000 0.000000 0
0.860000 0.000000 0
0.880000 0.000000 0
0.900000 0.000000 0
0.920000 0.000000 0
0.940000 0.000000 0
0.960000 0.000000 0
0.980000 0.000000 0
1.000000 0.000000 0
1.020000 0.000000 0
1.040000 0.000000 0
1.060000 0.000000 0
1.080000 0.000000 0
1.100000 0.000000 0
1.120000 0.000000 0
1.140000 0.000000 0
1.160000 0.000000 0
1.180000 0.000000 0
1.200000 0.000000 0
1.220000 0.000000 0
1.240000 0.000000 0
1.260000 0.000000 0
1.280000 0.000000 0
1.300000 0.000000 0
1.320000 0.000000 0
1.340000 0.000000 0
1.360000 0.000000 0
1.380000 0.000000 0
1.400000 0.000000 0
1.420000 0.000000 0
1.440000 0.000000 0
1.460000 0.000000 0
1.480000 0.000000 0
1.500000 0.000000 0
1.520000 0.000000 0
1.540000 0.000000 0
1.560000 0.000000 0
1.580000 0.000000 0
1.600000 0.000000 0
1.620000 0.000000 0
1.640000 0.000000 0
1.660000 0.000000 0
1.680000 0.000000 0
1.700000 0.000000 0
1.720000 0.000000 0
1.740000 0.000000 0
1.760000 0.000000 0
1.780000 0.000000 0
1.800000 0.000000 0
1.820000 0.000000 0
1.840000 0.000000 0
1.860000 0.000000 0
1.880000 0.000000 0
1.900000 0.000000 0
1.920000 0.000000 0
1.940000 0.000000 0
1.960000 0.000000 0
0.000000 0.020000 0
0.020000 0.020000 0
0.040000 0.020000 0
0.060000 0.020000 0
0.080000 0.020000 0
0.100000 0.020000 0
0.120000 0.020000 0
0.140000 0.020000 0
0.160000 0.020000 0
0.180000 0.020000 0
0.200000 0.020000 0
0.220000 0.020000 0
0.240000 0.020000 0
0.260000 0.020000 0
0.280000 0.020000 0
0.300000 0.020000 0
0.320000 0.020000 0
0.340000 0.020000 0
0.360000 0.020000 0
0.380000 0.020000 0
0.400000 0.020000 0
0.420000 0.020000 0
0.440000 0.020000 0
0.460000 0.020000 0
0.480000 0.020000 0
0.500000 0.020000 0
0.520000 0.020000 0
0.540000 0.020000 0
0.560000 0.020000 0
0.580000 0.020000 0
0.600000 0.020000 0
0.620000 0.020000 0
0.640000 0.020000 0
0.660000 0.020000 0
0.680000 0.020000 0
0.700000 0.020000 0
0.720000 0.020000 0
0.740000 0.020000 0
0.760000 0.020000 0
0.780000 0.020000 0
0.800000 0.020000 0
0.820000 0.020000 0
0.840000 0.020000 0
0.860000 0.020000 0
0.880000 0.020000 0
0.900000 0.020000 0
0.920000 0.020000 0
0.940000 0.020000 0
0.960000 0.020000 0
0.980000 0.020000 0
1.000000 0.020000 0
1.020000 0.020000 0
1.040000 0.020000 0
1.060000 0.020000 0
1.080000 0.020000 0
1.100000 0.020000 0
1.120000 0.020000 0
1.140000 0.020000 0
1.160000 0.020000 0
1.180000 0.020000 0
1.200000 0.020000 0
1.220000 0.020000 0
1.240000 0.020000 0
1.260000 0.020000 0
1.280000 0.020000 0
1.300000 0.020000 0
1.320000 0.020000 0
1.340000 0.020000 0
1.360000 0.020000 0
1.380000 0.020000 0
1.400000 0.020000 0
1.420000 0.020000 0
1.440000 0.020000 0
1.460000 0.020000 0
1.480000 0.020000 0
1.500000 0.020000 0
1.520000 0.020000 0
1.540000 0.020000 0
1.560000 0.020000 0
1.580000 0.020000 0
1.600000 0.020000 0
1.620000 0.020000 0
1.640000 0.020000 0
1.660000 0.020000 0
1.680000 0.020000 0
1.700000 0.020000 0
1.720000 0.020000 0
1.740000 0.020000 0
1.760000 0.020000 0
1.780000 0.020000 0
1.800000 0.020000 0
1.820000 0.020000 0
1.840000 0.020000 0
1.860000 0.020000 0
1.880000 0.020000 0
1.900000 0.020000 0
1.920000 0.020000 0
1.940000 0.020000 0
1.960000 0.020000 0
0.000000 0.040000 0
0.020000 0.040000 0
0.040000 0.040000 0
0.060000 0.040000 0
0.080000 0.040000 0
0.100000 0.040000 0
0.120000 0.040000 0
0.140000 0.040000 0
0.160000 0.040000 0
0.180000 0.040000 0
0.200000 0.040000 0
0.220000 0.040000 0
0.240000 0.040000 0
0.260000 0.040000 0
0.280000 0.040000 0
0.300000 0.040000 0
0.320000 0.040000 0
0.340000 0.040000 0
0.360000 0.040000 0
0.380000 0.040000 0
0.400000 0.040000 0
0.420000 0.040000 0
0.440000 0.040000 0
0.460000 0.040000 0
0.480000 0.040000 0
0.500000 0.040000 0
0.520000 0.040000 0
0.540000 0.040000 0
0.560000 0.040000 0
0.580000 0.040000 0
0.600000 0.040000 0
0.620000 0.040000 0
0.640000 0.040000 0
0.660000 0.040000 0
0.680000 0.040000 0
0.700000 0.040000 0
0.720000 0.040000 0
0.740000 0.040000 0
0.760000 0.040000 0
0.780000 0.040000 0
0.800000 0.040000 0
0.820000 0.040000 0
0.840000 0.040000 0
0.860000 0.040000 0
0.880000 0.040000 0
0.900000 0.040000 0
0.920000 0.040000 0
0.940000 0.040000 0
0.960000 0.040000 0
0.980000 0.040000 0
1.000000 0.040000 0
1.020000 0.040000 0
1.040000 0.040000 0
1.060000 0.040000 0
1.080000 0.040000 0
1.100000 0.040000 0
1.120000 0.040000 0
1.140000 0.040000 0
1.160000 0.040000 0
1.180000 0.040000 0
1.200000 0.040000 0
1.220000 0.040000 0
1.240000 0.040000 0
1.260000 0.040000 0
1.280000 0.040000 0
1.300000 0.040000 0
1.320000 0.040000 0
1.340000 0.040000 0
1.360000 0.040000 0
1.380000 0.040000 0
1.400000 0.040000 0
1.420000 0.040000 0
1.440000 0.040000 0
1.460000 0.040000 0
1.480000 0.040000 0
1.500000 0.040000 0
1.520000 0.040000 0
1.540000 0.040000 0
1.560000 0.040000 0
1.580000 0.040000 0
1.600000 0.040000 0
1.620000 0.040000 0
1.640000 0.040000 0
1.660000 0.040000 0
1.680000 0.040000 0
1.700000 0.040000 0
1.720000 0.040000 0
1.740000 0.040000 0
1.760000 0.040000 0
1.780000 0.040000 0
1.800000 0.040000 0
1.820000 0.040000 0
1.840000 0.040000 0
1.860000 0.040000 0
1.880000 0.040000 0
1.900000 0.040000 0
1.920000 0.040000 0
1.940000 0.040000 0
1.960000 0.040000 0
0.000000 0.060000 0
0.020000 0.060000 0
0.040000 0.060000 0
0.060000 0.060000 0
0.080000 0.060000 0
0.100000 0.060000 0
0.120000 0.060000 0
0.140000 0.060000 0
0.160000 0.060000 0
0.180000 0.060000 0
0.200000 0.060000 0
0.220000 0.060000 0
0.240000 0.060000 0
0.260000 0.060000 0
0.280000 0.060000 0
0.300000 0.060000 0
0.320000 0.060000 0
0.340000 0.060000 0
0.360000 0.060000 0
0.380000 0.060000 0
0.400000 0.060000 0
0.420000 0.060000 0
0.440000 0.060000 0
0.460000 0.060000 0
0.480000 0.060000 0
0.500000 0.060000 0
0.520000 0.060000 0
0.540000 0.060000 0
0.560000 0.060000 0
0.580000 0.060000 0
0.600000 0.060000 0
0.620000 0.060000 0
0.640000 0.060000 0
0.660000 0.060000 0
0.680000 0.060000 0
0.700000 0.060000 0
0.720000 0.060000 0
0.740000 0.060000 0
0.760000 0.060000 0
0.780000 0.060000 0
0.800000 0.060000 0
0.820000 0.060000 0
0.840000 0.060000 0
0.860000 0.060000 0
0.880000 0.060000 0
0.900000 0.060000 0
0.920000 0.060000 0
0.940000 0.060000 0
0.960000 0.060000 0
0.980000 0.060000 0
1.000000 0.060000 0
1.020000 0.060000 0
1.040000 0.060000 0
1.060000 0.060000 0
1.080000 0.060000 0
1.100000 0.060000 0
1.120000 0.060000 0
1.140000 0.060000 0
1.160000 0.060000 0
1.180000 0.060000 0
1.200000 0.060000 0
1.220000 0.060000 0
1.240000 0.060000 0
1.260000 0.060000 0
1.280000 0.060000 0
1.300000 0.060000 0
1.320000 0.060000 0
1.340000 0.060000 0
1.360000 0.060000 0
1.380000 0.060000 0
1.400000 0.060000 0
1.420000 0.060000 0
1.440000 0.060000 0
1.460000 0.060000 0
1.480000 0.060000 0
1.500000 0.060000 0
1.520000 0.060000 0
1.540000 0.060000 0
1.560000 0.060000 0
1.580000 0.060000 0
1.600000 0.060000 0
1.620000 0.060000 0
1.640000 0.060000 0
1.660000 0.060000 0
1.680000 0.060000 0
1.700000 0.060000 0
1.720000 0.060000 0
1.740000 0.060000 0
1.760000 0.060000 0
1.780000 0.060000 0
1.800000 0.060000 0
1.820000 0.060000 0
1.840000 0.060000 0
1.860000 0.060000 0
1.880000 0.060000 0
1.900000 0.060000 0
1.920000 0.060000 0
1.940000 0.060000 0
1.960000 0.060000 0
0.000000 0.080000 0
0.020000 0.080000 0
0.040000 0.080000 0
0.060000 0.080000 0
0.080000 0.080000 0
0.100000 0.080000 0
0.120000 0.080000 0
0.140000 0.080000 0
0.160000 0.080000 0
0.180000 0.080000 0
0.200000 0.080000 0
0.220000 0.080000 0
0.240000 0.080000 0
0.260000 0.080000 0
0.280000 0.080000 0
0.300000 0.080000 0
0.320000 0.080000 0
0.340000 0.080000 0
0.360000 0.080000 0
0.380000 0.080000 0
0.400000 0.080000 0
0.420000 0.080000 0
0.440000 0.080000 0
0.460000 0.080000 0
0.480000 0.080000 0
0.500000 0.080000 0
0.520000 0.080000 0
0.540000 0.080000 0
0.560000 0.080000 0
0.580000 0.080000 0
0.600000 0.080000 0
0.620000 0.080000 0
0.640000 0.080000 0
0.660000 0.080000 0
0.680000 0.080000 0
0.700000 0.080000 0
0.720000 0.080000 0
0.740000 0.080000 0
0.760000 0.080000 0
0.780000 0.080000 0
0.800000 0.080000 0
0.820000 0.080000 0
0.840000 0.080000 0
0.860000 0.080000 0
0.880000 0.080000 0
0.900000 0.080000 0
0.920000 0.080000 0
0.940000 0.080000 0
0.960000 0.080000 0
0.980000 0.080000 0
1.000000 0.080000 0
1.020000 0.080000 0
1.040000 0.080000 0
1.060000 0.080000 0
1.080000 0.080000 0
1.100000 0.080000 0
1.120000 0.080000 0
1.140000 0.080000 0
1.160000 0.080000 0
1.180000 0.080000 0
1.200000 0.080000 0
1.220000 0.080000 0
1.240000 0.080000 0
1.260000 0.080000 0
1.280000 0.080000 0
1.300000 0.080000 0
1.320000 0.080000 0
1.340000 0.080000 0
1.360000 0.080000 0
1.380000 0.080000 0
1.400000 0.080000 0
1.420000 0.080000 0
1.440000 0.080000 0
1.460000 0.080000 0
1.480000 0.080000 0
1.500000 0.080000 0
1.520000 0.080000 0
1.540000 0.080000 0
1.560000 0.080000 0
1.580000 0.080000 0
1.600000 0.080000 0
1.620000 0.080000 0
1.640000 0.080000 0
1.660000 0.080000 0
1.680000 0.080000 0
1.700000 0.080000 0
1.720000 0.080000 0
1.740000 0.080000 0
1.760000 0.080000 0
1.780000 0.080000 0
1.800000 0.080000 0
1.820000 0.080000 0
1.840000 0.080000 0
1.860000 0.080000 0
1.880000 0.080000 0
[...]
POINT_DATA 4851 

VECTORS velocity float
0.000000 0.000000 0
0.000126 0.000000 0
0.000295 0.000000 0
0.000414 0.000000 0
0.000464 0.000000 0
0.000463 0.000000 0
0.000433 0.000000 0
0.000394 0.000000 0
0.000357 0.000000 0
0.000330 0.000000 0
0.000313 0.000000 0
0.000305 0.000000 0
0.000304 0.000000 0
0.000306 0.000000 0
0.000309 0.000000 0
0.000312 0.000000 0
0.000314 0.000000 0
0.000315 0.000000 0
0.000315 0.000000 0
0.000314 0.000000 0
0.000313 0.000000 0
0.000312 0.000000 0
0.000310 0.000000 0
0.000308 0.000000 0
0.000307 0.000000 0
0.000305 0.000000 0
0.000303 0.000000 0
0.000300 0.000000 0
0.000297 0.000000 0
0.000292 0.000000 0
0.000284 0.000000 0
0.000269 0.000000 0
0.000242 0.000000 0
0.000196 0.000000 0
0.000127 0.000000 0
0.000047 0.000000 0
0.000000 0.000000 0
0.000000 0.000000 0
0.000000 0.000000 0
0.000000 0.000000 0
0.000000 0.000000 0
0.000000 0.000000 0
0.000000 0.000000 0
0.000001 0.000000 0
0.000002 0.000000 0
0.000004 0.000000 0
0.000006 0.000000 0
0.000008 0.000000 0
0.000010 0.000000 0
0.000013 0.000000 0
0.000016 0.000000 0
0.000019 0.000000 0
0.000022 0.000000 0
0.000026 0.000000 0
0.000030 0.000000 0
0.000035 0.000000 0
0.000039 0.000000 0
0.000043 0.000000 0
0.000048 0.000000 0
0.000052 0.000000 0
0.000056 0.000000 0
0.000059 0.000000 0
0.000062 0.000000 0
0.000065 0.000000 0
0.000067 0.000000 0
0.000070 0.000000 0
0.000072 0.000000 0
0.000074 0.000000 0
0.000076 0.000000 0
0.000078 0.000000 0
0.000081 0.000000 0
0.000083 0.000000 0
0.000086 0.000000 0
0.000089 0.000000 0
0.000093 0.000000 0
0.000097 0.000000 0
0.000101 0.000000 0
0.000105 0.000000 0
0.000110 0.000000 0
0.000115 0.000000 0
0.000121 0.000000 0
0.000128 0.000000 0
0.000134 0.000000 0
0.000142 0.000000 0
0.000151 0.000000 0
0.000160 0.000000 0
0.000171 0.000000 0
0.000184 0.000000 0
0.000200 0.000000 0
0.000219 0.000000 0
0.000244 0.000000 0
0.000276 0.000000 0
0.000318 0.000000 0
0.000376 0.000000 0
0.000453 0.000000 0
0.000543 0.000000 0
0.000595 0.000000 0
0.000456 0.000000 0
0.000000 0.000000 0
0.000000 -0.000126 0
0.000341 -0.000296 0
0.000818 -0.000289 0
0.001180 -0.000169 0
0.001364 -0.000050 0
0.001399 0.000030 0
0.001342 0.000068 0
0.001245 0.000075 0
0.001146 0.000063 0
0.001067 0.000044 0
0.001014 0.000024 0
0.000987 0.000009 0
0.000978 -0.000001 0
0.000981 -0.000006 0
0.000989 -0.000007 0
0.000997 -0.000006 0
0.001002 -0.000004 0
0.001004 -0.000001 0
0.001003 0.000000 0
0.000999 0.000001 0
0.000994 0.000002 0
0.000987 0.000002 0
0.000980 0.000003 0
0.000972 0.000003 0
0.000963 0.000003 0
0.000953 0.000003 0
0.000941 0.000004 0
0.000927 0.000005 0
0.000908 0.000007 0
0.000882 0.000012 0
0.000844 0.000022 0
0.000783 0.000041 0
0.000686 0.000072 0
0.000539 0.000115 0
0.000340 0.000149 0
0.000127 0.000126 0
0.000000 0.000046 0
0.000000 0.000000 0
0.000000 0.000000 0
0.000000 0.000000 0
0.000000 0.000000 0
0.000001 -0.000000 0
0.000002 -0.000001 0
0.000005 -0.000002 0
0.000010 -0.000002 0
0.000015 -0.000003 0
0.000021 -0.000003 0
0.000028 -0.000004 0
0.000036 -0.000005 0
0.000045 -0.000005 0
0.000056 -0.000006 0
0.000067 -0.000006 0
0.000080 -0.000007 0
0.000093 -0.000008 0
0.000108 -0.000008 0
0.000123 -0.000008 0
0.000138 -0.000008 0
0.000154 -0.000008 0
0.000169 -0.000008 0
0.000184 -0.000008 0
0.000198 -0.000007 0
0.000210 -0.000006 0
0.000222 -0.000006 0
0.000233 -0.000005 0
0.000242 -0.000004 0
0.000251 -0.000004 0
0.000260 -0.000004 0
0.000268 -0.000004 0
0.000277 -0.000004 0
0.000286 -0.000004 0
0.000295 -0.000005 0
0.000305 -0.000005 0
0.000316 -0.000006 0
0.000329 -0.000006 0
0.000342 -0.000007 0
0.000356 -0.000008 0
0.000371 -0.000008 0
0.000388 -0.000009 0
0.000406 -0.000010 0
0.000425 -0.000011 0
0.000446 -0.000012 0
0.000469 -0.000013 0
0.000494 -0.000014 0
0.000521 -0.000016 0
0.000551 -0.000018 0
0.000585 -0.000020 0
0.000623 -0.000024 0
0.000667 -0.000028 0
0.000719 -0.000035 0
0.000781 -0.000043 0
0.000855 -0.000056 0
0.000947 -0.000074 0
0.001059 -0.000100 0
0.001193 -0.000135 0
0.001339 -0.000166 0
0.001451 -0.000141 0
0.001397 0.000087 0
0.000912 0.000595 0
0.000000 0.000456 0
0.000000 -0.000342 0
0.000450 -0.000819 0
0.001111 -0.000840 0
0.001650 -0.000547 0
0.001964 -0.000220 0
0.002068 0.000021 0
0.002031 0.000153 0
0.001920 0.000195 0
0.001791 0.000178 0
0.001680 0.000132 0
0.001602 0.000079 0
0.001557 0.000035 0
0.001539 0.000004 0
0.001538 -0.000012 0
0.001544 -0.000016 0
0.001551 -0.000014 0
0.001556 -0.000008 0
0.001555 -0.000002 0
0.001550 0.000004 0
0.001541 0.000008 0
0.001529 0.000011 0
0.001514 0.000013 0
0.001498 0.000015 0
0.001479 0.000016 0
0.001459 0.000018 0
0.001435 0.000021 0
0.001408 0.000025 0
0.001374 0.000032 0
0.001331 0.000044 0
0.001274 0.000064 0
0.001195 0.000099 0
0.001081 0.000157 0
0.000918 0.000243 0
0.000697 0.000345 0
0.000426 0.000411 0
0.000156 0.000339 0
0.000000 0.000126 0
0.000000 0.000000 0
0.000000 0.000000 0
0.000000 0.000000 0
0.000000 -0.000000 0
0.000002 -0.000002 0
0.000005 -0.000004 0
0.000011 -0.000007 0
0.000018 -0.000009 0
0.000027 -0.000011 0
0.000038 -0.000013 0
0.000050 -0.000015 0
0.000064 -0.000017 0
0.000080 -0.000019 0
0.000098 -0.000021 0
0.000118 -0.000024 0
0.000140 -0.000026 0
0.000164 -0.000028 0
0.000189 -0.000029 0
0.000216 -0.000030 0
0.000243 -0.000031 0
0.000271 -0.000030 0
0.000298 -0.000030 0
0.000325 -0.000028 0
0.000350 -0.000026 0
0.000373 -0.000024 0
0.000395 -0.000022 0
0.000415 -0.000020 0
0.000433 -0.000018 0
0.000450 -0.000017 0
0.000467 -0.000017 0
0.000484 -0.000016 0
0.000500 -0.000017 0
0.000518 -0.000018 0
0.000536 -0.000019 0
0.000555 -0.000021 0
0.000576 -0.000023 0
0.000599 -0.000025 0
0.000624 -0.000027 0
0.000650 -0.000029 0
0.000678 -0.000032 0
0.000709 -0.000034 0
0.000741 -0.000037 0
0.000776 -0.000040 0
0.000813 -0.000043 0
0.000854 -0.000047 0
0.000897 -0.000051 0
0.000945 -0.000057 0
0.000997 -0.000063 0
0.001054 -0.000072 0
0.001119 -0.000082 0
0.001191 -0.000096 0
0.001273 -0.000113 0
0.001366 -0.000136 0
0.001473 -0.000166 0
0.001593 -0.000203 0
0.001721 -0.000246 0
0.001844 -0.000279 0
0.001922 -0.000258 0
0.001873 -0.000058 0
0.001545 0.000540 0
0.000806 0.001398 0
0.000000 0.000912 0
0.000000 -0.000577 0
0.000464 -0.001408 0
0.001172 -0.001489 0
0.001774 -0.001022 0
0.002149 -0.000468 0
0.002302 -0.000037 0
0.002293 0.000217 0
0.002195 0.000314 0
0.002069 0.000302 0
0.001953 0.000233 0
0.001867 0.000147 0
0.001815 0.000071 0
0.001789 0.000018 0
0.001781 -0.000012 0
0.001781 -0.000021 0
0.001781 -0.000018 0
0.001778 -0.000008 0
0.001770 0.000004 0
0.001757 0.000014 0
0.001740 0.000022 0
0.001719 0.000028 0
0.001694 0.000033 0
0.001667 0.000037 0
0.001637 0.000041 0
0.001604 0.000047 0
0.001566 0.000054 0
0.001522 0.000065 0
0.001469 0.000081 0
0.001405 0.000107 0
0.001323 0.000148 0
0.001216 0.000215 0
0.001073 0.000317 0
0.000884 0.000456 0
0.000648 0.000607 0
0.000381 0.000689 0
0.000133 0.000551 0
0.000000 0.000202 0
0.000000 0.000000 0
0.000000 0.000000 0
0.000000 0.000000 0
0.000000 -0.000001 0
0.000002 -0.000005 0
0.000007 -0.000010 0
0.000015 -0.000014 0
0.000025 -0.000019 0
0.000037 -0.000022 0
0.000050 -0.000026 0
0.000067 -0.000030 0
0.000085 -0.000035 0
0.000106 -0.000039 0
0.000129 -0.000044 0
0.000155 -0.000048 0
0.000184 -0.000053 0
0.000215 -0.000057 0
0.000249 -0.000060 0
0.000284 -0.000062 0
0.000320 -0.000063 0
0.000357 -0.000063 0
0.000393 -0.000061 0
0.000429 -0.000059 0
0.000462 -0.000055 0
0.000494 -0.000051 0
0.000523 -0.000047 0
0.000551 -0.000043 0
0.000577 -0.000040 0
0.000601 -0.000038 0
0.000625 -0.000037 0
0.000648 -0.000037 0
0.000672 -0.000038 0
0.000697 -0.000040 0
0.000723 -0.000042 0
0.000750 -0.000046 0
0.000780 -0.000049 0
0.000812 -0.000053 0
0.000845 -0.000058 0
0.000882 -0.000062 0
0.000920 -0.000067 0
0.000961 -0.000072 0
0.001005 -0.000077 0
0.001051 -0.000083 0
0.001101 -0.000089 0
0.001154 -0.000097 0
0.001210 -0.000105 0
0.001271 -0.000115 0
0.001337 -0.000127 0
0.001409 -0.000142 0
0.001487 -0.000160 0
0.001572 -0.000182 0
0.001665 -0.000210 0
0.001766 -0.000243 0
0.001872 -0.000282 0
0.001978 -0.000322 0
0.002071 -0.000351 0
0.002124 -0.000335 0
0.002086 -0.000195 0
0.001872 0.000236 0
0.001380 0.001154 0
0.000613 0.002140 0
0.000000 0.001262 0
0.000000 -0.000806 0
0.000441 -0.001992 0
0.001130 -0.002150 0
0.001730 -0.001524 0
0.002117 -0.000748 0
0.002288 -0.000124 0
0.002299 0.000259 0
0.002217 0.000419 0
0.002103 0.000420 0
0.001994 0.000333 0
0.001911 0.000217 0
0.001856 0.000112 0
0.001825 0.000038 0
0.001808 -0.000003 0
0.001797 -0.000017 0
0.001786 -0.000012 0
0.001771 0.000002 0
0.001752 0.000019 0
0.001727 0.000034 0
0.001699 0.000047 0
0.001666 0.000056 0
0.001631 0.000064 0
0.001593 0.000071 0
0.001551 0.000079 0
0.001504 0.000089 0
0.001453 0.000103 0
0.001395 0.000121 0
0.001329 0.000148 0
0.001250 0.000189 0
0.001155 0.000253 0
0.001038 0.000349 0
0.000891 0.000488 0
0.000711 0.000667 0
0.000500 0.000848 0
0.000280 0.000926 0
0.000091 0.000720 0
0.000000 0.000259 0
0.000000 0.000000 0
0.000000 0.000000 0
0.000000 0.000000 0
0.000000 -0.000002 0
0.000003 -0.000009 0
0.000009 -0.000017 0
0.000018 -0.000024 0
0.000029 -0.000030 0
0.000043 -0.000036 0
0.000059 -0.000043 0
0.000077 -0.000049 0
0.000098 -0.000056 0
0.000122 -0.000063 0
0.000149 -0.000071 0
0.000179 -0.000078 0
0.000213 -0.000086 0
0.000249 -0.000092 0
0.000288 -0.000098 0
0.000330 -0.000102 0
0.000372 -0.000104 0
0.000416 -0.000103 0
0.000458 -0.000101 0
0.000500 -0.000097 0
0.000540 -0.000091 0
0.000577 -0.000085 0
0.000613 -0.000079 0
0.000645 -0.000073 0
0.000676 -0.000068 0
0.000706 -0.000065 0
0.000735 -0.000063 0
0.000764 -0.000064 0
0.000794 -0.000065 0
0.000825 -0.000068 0
0.000857 -0.000073 0
0.000892 -0.000078 0
0.000928 -0.000084 0
0.000967 -0.000090 0
0.001008 -0.000097 0
0.001052 -0.000104 0
0.001098 -0.000111 0
0.001147 -0.000119 0
0.001198 -0.000127 0
0.001253 -0.000136 0
0.001310 -0.000145 0
0.001371 -0.000156 0
0.001435 -0.000169 0
0.001504 -0.000184 0
0.001576 -0.000201 0
0.001653 -0.000221 0
0.001736 -0.000245 0
0.001822 -0.000274 0
0.001913 -0.000307 0
0.002005 -0.000343 0
0.002093 -0.000378 0
0.002167 -0.000402 0
0.002208 -0.000391 0
0.002186 -0.000294 0
0.002049 -0.000006 0
0.001731 0.000648 0
0.001180 0.001799 0
0.000468 0.002778 0
0.000000 0.001525 0
0.000000 -0.001019 0
0.000404 -0.002539 0
0.001043 -0.002778 0
0.001605 -0.002010 0
0.001972 -0.001027 0
0.002140 -0.000219 0
0.002158 0.000287 0
0.002089 0.000510 0
0.001988 0.000525 0
0.001890 0.000425 0
0.001813 0.000285 0
0.001759 0.000157 0
0.001722 0.000065 0
0.001696 0.000016 0
0.001672 0.000001 0
0.001646 0.000008 0
0.001617 0.000026 0
0.001583 0.000048 0
0.001545 0.000067 0
0.001504 0.000083 0
0.001460 0.000096 0
0.001413 0.000107 0
0.001364 0.000117 0
0.001311 0.000129 0
0.001254 0.000144 0
0.001193 0.000163 0
0.001125 0.000189 0
0.001051 0.000226 0
0.000967 0.000280 0
0.000872 0.000361 0
0.000761 0.000479 0
0.000630 0.000644 0
0.000481 0.000846 0
0.000320 0.001037 0
0.000166 0.001098 0
0.000048 0.000831 0
0.000000 0.000293 0
0.000000 0.000000 0
0.000000 0.000000 0
0.000000 0.000000 0
0.000000 -0.000004 0
0.000003 -0.000013 0
0.000010 -0.000025 0
0.000019 -0.000034 0
0.000031 -0.000043 0
0.000046 -0.000052 0
0.000063 -0.000061 0
0.000082 -0.000070 0
0.000105 -0.000079 0
0.000130 -0.000090 0
0.000159 -0.000101 0
0.000192 -0.000112 0
0.000228 -0.000122 0
0.000267 -0.000132 0
0.000310 -0.000140 0
0.000355 -0.000146 0
0.000402 -0.000149 0
0.000449 -0.000149 0
0.000496 -0.000146 0
0.000542 -0.000140 0
0.000585 -0.000132 0
0.000626 -0.000124 0
0.000665 -0.000115 0
0.000701 -0.000107 0
0.000735 -0.000101 0
0.000769 -0.000097 0
0.000801 -0.000095 0
0.000835 -0.000095 0
0.000869 -0.000098 0
0.000904 -0.000103 0
0.000942 -0.000109 0
0.000981 -0.000116 0
0.001023 -0.000124 0
0.001067 -0.000133 0
0.001114 -0.000142 0
0.001163 -0.000152 0
0.001214 -0.000162 0
0.001268 -0.000172 0
0.001325 -0.000183 0
0.001384 -0.000195 0
0.001445 -0.000207 0
0.001510 -0.000222 0
0.001577 -0.000238 0
0.001648 -0.000256 0
0.001721 -0.000277 0
0.001798 -0.000301 0
0.001877 -0.000329 0
0.001958 -0.000360 0
0.002038 -0.000392 0
0.002113 -0.000423 0
0.002176 -0.000444 0
0.002215 -0.000437 0
0.002209 -0.000370 0
0.002127 -0.000176 0
0.001927 0.000260 0
0.001561 0.001105 0
0.001008 0.002418 0
0.000369 0.003321 0
0.000000 0.001730 0
0.000000 -0.001211 0
0.000363 -0.003036 0
0.000939 -0.003351 0
0.001443 -0.002453 0
0.001771 -0.001283 0
0.001920 -0.000310 0
0.001937 0.000310 0
0.001877 0.000588 0
0.001789 0.000618 0
0.001703 0.000507 0
0.001633 0.000348 0
0.001579 0.000203 0
0.001537 0.000101 0
0.001500 0.000047 0
0.001463 0.000032 0
0.001422 0.000043 0
0.001377 0.000066 0
0.001329 0.000091 0
0.001278 0.000113 0
0.001225 0.000131 0
0.001170 0.000146 0
0.001114 0.000160 0
0.001055 0.000173 0
0.000993 0.000189 0
0.000929 0.000208 0
0.000861 0.000231 0
0.000790 0.000263 0
0.000715 0.000306 0
0.000635 0.000368 0
0.000549 0.000459 0
0.000456 0.000590 0
0.000355 0.000767 0
0.000249 0.000977 0
0.000146 0.001163 0
0.000062 0.001198 0
0.000011 0.000886 0
0.000000 0.000307 0
0.000000 0.000000 0
0.000000 0.000000 0
0.000000 0.000000 0
0.000000 -0.000005 0
0.000003 -0.000018 0
0.000010 -0.000033 0
0.000020 -0.000045 0
0.000032 -0.000057 0
0.000046 -0.000068 0
0.000063 -0.000079 0
0.000082 -0.000091 0
0.000105 -0.000104 0
0.000130 -0.000117 0
0.000160 -0.000132 0
0.000193 -0.000147 0
0.000229 -0.000161 0
0.000270 -0.000174 0
0.000314 -0.000185 0
0.000361 -0.000193 0
0.000409 -0.000197 0
0.000459 -0.000198 0
0.000507 -0.000193 0
0.000555 -0.000186 0
0.000599 -0.000176 0
0.000642 -0.000164 0
0.000681 -0.000153 0
0.000719 -0.000143 0
0.000755 -0.000136 0
0.000790 -0.000131 0
0.000825 -0.000129 0
0.000861 -0.000131 0
0.000898 -0.000135 0
0.000937 -0.000141 0
0.000978 -0.000149 0
0.001022 -0.000159 0
0.001067 -0.000169 0
0.001115 -0.000181 0
0.001166 -0.000192 0
0.001218 -0.000204 0
0.001273 -0.000216 0
0.001329 -0.000229 0
0.001388 -0.000242 0
0.001449 -0.000256 0
0.001512 -0.000271 0
0.001576 -0.000288 0
0.001643 -0.000307 0
0.001711 -0.000327 0
0.001781 -0.000351 0
0.001853 -0.000377 0
0.001925 -0.000405 0
0.001995 -0.000434 0
0.002062 -0.000462 0
0.002119 -0.000481 0
0.002158 -0.000480 0
0.002167 -0.000435 0
0.002126 -0.000303 0
0.002006 -0.000012 0
0.001773 0.000561 0
0.001394 0.001567 0
0.000867 0.002991 0
0.000300 0.003786 0
0.000000 0.001894 0
0.000000 -0.001383 0
0.000323 -0.003478 0
0.000829 -0.003858 0
0.001267 -0.002842 0
0.001547 -0.001505 0
0.001671 -0.000385 0
0.001680 0.000331 0
0.001626 0.000658 0
0.001549 0.000699 0
0.001475 0.000580 0
0.001411 0.000408 0
0.001358 0.000251 0
0.001311 0.000144 0
0.001264 0.000090 0
0.001213 0.000079 0
0.001158 0.000093 0
0.001100 0.000119 0
0.001039 0.000147 0
0.000977 0.000171 0
0.000914 0.000190 0
0.000851 0.000207 0
0.000787 0.000222 0
0.000722 0.000237 0
0.000655 0.000255 0
0.000587 0.000276 0
0.000518 0.000302 0
0.000449 0.000336 0
0.000379 0.000381 0
0.000310 0.000445 0
0.000241 0.000539 0
0.000172 0.000673 0
0.000106 0.000850 0
0.000046 0.001055 0
0.000001 0.001224 0
-0.000020 0.001233 0
-0.000015 0.000893 0
0.000000 0.000305 0
0.000000 0.000000 0
0.000000 0.000000 0
0.000000 0.000000 0
0.000000 -0.000006 0
0.000003 -0.000023 0
0.000009 -0.000041 0
0.000019 -0.000056 0
0.000030 -0.000070 0
0.000044 -0.000083 0
0.000059 -0.000097 0
0.000078 -0.000111 0
0.000099 -0.000127 0
0.000123 -0.000144 0
0.000151 -0.000163 0
0.000183 -0.000181 0
0.000218 -0.000200 0
0.000258 -0.000216 0
0.000301 -0.000231 0
0.000347 -0.000241 0
0.000395 -0.000247 0
0.000444 -0.000247 0
0.000492 -0.000242 0
0.000538 -0.000232 0
0.000582 -0.000219 0
0.000624 -0.000205 0
0.000663 -0.000192 0
0.000700 -0.000180 0
0.000736 -0.000171 0
0.000771 -0.000167 0
0.000808 -0.000166 0
0.000845 -0.000168 0
0.000885 -0.000174 0
0.000926 -0.000183 0
0.000970 -0.000193 0
0.001016 -0.000205 0
0.001065 -0.000218 0
0.001115 -0.000231 0
0.001168 -0.000245 0
0.001222 -0.000259 0
0.001278 -0.000273 0
0.001335 -0.000287 0
0.001394 -0.000302 0
0.001454 -0.000318 0
0.001515 -0.000335 0
0.001577 -0.000353 0
0.001640 -0.000372 0
0.001704 -0.000394 0
0.001768 -0.000418 0
0.001831 -0.000444 0
0.001893 -0.000471 0
0.001952 -0.000496 0
0.002004 -0.000515 0
0.002045 -0.000519 0
0.002066 -0.000492 0
0.002055 -0.000405 0
0.001992 -0.000209 0
0.001854 0.000176 0
0.001612 0.000872 0
0.001242 0.002012 0
0.000751 0.003513 0
0.000249 0.004188 0
0.000000 0.002029 0
0.000000 -0.001534 0
0.000283 -0.003866 0
0.000721 -0.004296 0
0.001093 -0.003171 0
0.001323 -0.001687 0
0.001418 -0.000443 0
0.001418 0.000354 0
0.001367 0.000719 0
0.001301 0.000769 0
0.001236 0.000645 0
0.001178 0.000464 0
0.001124 0.000303 0
0.001072 0.000195 0
0.001015 0.000144 0
0.000954 0.000137 0
0.000888 0.000156 0
0.000819 0.000185 0
0.000749 0.000213 0
0.000680 0.000238 0
0.000611 0.000257 0
0.000542 0.000274 0
0.000474 0.000289 0
0.000406 0.000305 0
0.000339 0.000323 0
0.000271 0.000344 0
0.000206 0.000370 0
0.000142 0.000402 0
0.000082 0.000445 0
0.000027 0.000506 0
-0.000022 0.000596 0
-0.000063 0.000724 0
-0.000095 0.000893 0
-0.000112 0.001082 0
-0.000108 0.001229 0
-0.000078 0.001214 0
-0.000033 0.000865 0
0.000000 0.000291 0
0.000000 0.000000 0
0.000000 0.000000 0
0.000000 0.000000 0
0.000000 -0.000008 0
0.000003 -0.000027 0
0.000008 -0.000048 0
0.000016 -0.000066 0
0.000027 -0.000082 0
0.000038 -0.000097 0
0.000052 -0.000113 0
0.000069 -0.000130 0
0.000087 -0.000149 0
0.000109 -0.000169 0
0.000134 -0.000191 0
0.000162 -0.000214 0
0.000195 -0.000236 0
0.000231 -0.000257 0
0.000271 -0.000274 0
0.000314 -0.000287 0
0.000359 -0.000294 0
0.000404 -0.000294 0
0.000449 -0.000288 0
0.000492 -0.000276 0
0.000533 -0.000261 0
0.000571 -0.000244 0
0.000608 -0.000229 0
0.000643 -0.000216 0
0.000678 -0.000207 0
0.000714 -0.000203 0
0.000751 -0.000203 0
0.000790 -0.000208 0
0.000831 -0.000216 0
0.000875 -0.000226 0
0.000921 -0.000239 0
0.000969 -0.000253 0
0.001020 -0.000268 0
0.001071 -0.000283 0
0.001125 -0.000299 0
0.001179 -0.000314 0
0.001235 -0.000329 0
0.001291 -0.000345 0
0.001348 -0.000361 0
0.001406 -0.000377 0
0.001463 -0.000395 0
0.001521 -0.000413 0
0.001578 -0.000433 0
0.001635 -0.000455 0
0.001690 -0.000478 0
0.001745 -0.000502 0
0.001796 -0.000526 0
0.001844 -0.000545 0
0.001884 -0.000555 0
0.001913 -0.000543 0
0.001922 -0.000489 0
0.001899 -0.000360 0
0.001829 -0.000103 0
0.001688 0.000369 0
0.001453 0.001174 0
0.001104 0.002428 0
0.000655 0.003984 0
0.000209 0.004537 0
0.000000 0.002143 0
0.000000 -0.001666 0
0.000247 -0.004200 0
0.000621 -0.004668 0
0.000930 -0.003443 0
0.001113 -0.001830 0
0.001180 -0.000480 0
0.001171 0.000381 0
0.001123 0.000774 0
0.001063 0.000831 0
0.001006 0.000703 0
0.000951 0.000519 0
0.000897 0.000357 0
0.000840 0.000253 0
0.000776 0.000208 0
0.000707 0.000206 0
0.000634 0.000228 0
0.000559 0.000258 0
0.000484 0.000286 0
0.000411 0.000309 0
0.000340 0.000328 0
0.000270 0.000343 0
0.000202 0.000357 0
0.000135 0.000372 0
0.000070 0.000389 0
0.000008 0.000408 0
-0.000051 0.000431 0
-0.000105 0.000459 0
-0.000152 0.000496 0
-0.000191 0.000549 0
-0.000221 0.000630 0
-0.000238 0.000746 0
-0.000240 0.000899 0
-0.000221 0.001067 0
-0.000178 0.001190 0
-0.000113 0.001158 0
-0.000042 0.000814 0
0.000000 0.000272 0
0.000000 0.000000 0
0.000000 0.000000 0
0.000000 0.000000 0
0.000000 -0.000009 0
0.000002 -0.000031 0
0.000007 -0.000054 0
0.000013 -0.000074 0
0.000022 -0.000092 0
0.000031 -0.000109 0
0.000043 -0.000127 0
0.000056 -0.000146 0
0.000071 -0.000167 0
0.000088 -0.000191 0
0.000108 -0.000216 0
0.000132 -0.000242 0
0.000159 -0.000268 0
0.000189 -0.000293 0
0.000223 -0.000313 0
0.000260 -0.000329 0
0.000299 -0.000337 0
0.000337 -0.000337 0
0.000376 -0.000329 0
0.000413 -0.000316 0
0.000448 -0.000298 0
0.000482 -0.000280 0
0.000516 -0.000263 0
0.000549 -0.000250 0
0.000584 -0.000242 0
0.000620 -0.000239 0
0.000658 -0.000242 0
0.000699 -0.000249 0
0.000743 -0.000259 0
0.000788 -0.000272 0
0.000836 -0.000287 0
0.000886 -0.000303 0
0.000938 -0.000320 0
0.000990 -0.000336 0
0.001043 -0.000353 0
0.001097 -0.000369 0
0.001151 -0.000385 0
0.001205 -0.000400 0