# vtk DataFile Version 2.0
generated by CFD-lab course output (written by Tobias Neckel) 
ASCII

DATASET STRUCTURED_GRID
DIMENSIONS  99 49 1 
POINTS 4851 float

0.000000 0.000000 0
0.020000 0.000000 0
0.040000 0.000000 0
0.060000 0.000000 0
0.080000 0.000000 0
0.100000 0.000000 0
0.120000 0.000000 0
0.140000 0.000000 0
0.160000 0.000000 0
0.180000 0.000000 0
0.200000 0.000000 0
0.220000 0.000000 0
0.240000 0.000000 0
0.260000 0.000000 0
0.280000 0.000000 0
0.300000 0.000000 0
0.320000 0.000000 0
0.340000 0.000000 0
0.360000 0.000000 0
0.380000 0.000000 0
0.400000 0.000000 0
0.420000 0.000000 0
0.440000 0.000000 0
0.460000 0.000000 0
0.480000 0.000000 0
0.500000 0.000000 0
0.520000 0.000000 0
0.540000 0.000000 0
0.560000 0.000000 0
0.580000 0.000000 0
0.600000 0.000000 0
0.620000 0.000000 0
0.640000 0.000000 0
0.660000 0.000000 0
0.680000 0.000000 0
0.700000 0.000000 0
0.720000 0.000000 0
0.740000 0.000000 0
0.760000 0.000000 0
0.780000 0.000000 0
0.800000 0.000000 0
0.820000 0.000000 0
0.840000 0.000000 0
0.860000 0.000000 0
0.880000 0.000000 0
0.900000 0.000000 0
0.920000 0.000000 0
0.940000 0.000000 0
0.960000 0.000000 0
0.980000 0.000000 0
1.000000 0.000000 0
1.020000 0.000000 0
1.040000 0.000000 0
1.060000 0.000000 0
1.080000 0.000000 0
1.100000 0.000000 0
1.120000 0.000000 0
1.140000 0.000000 0
1.160000 0.000000 0
1.180000 0.000000 0
1.200000 0.000000 0
1.220000 0.000000 0
1.240000 0.000000 0
1.260000 0.000000 0
1.280000 0.000000 0
1.300000 0.000000 0
1.320000 0.000000 0
1.340000 0.000000 0
1.360000 0.000000 0
1.380000 0.000000 0
1.400000 0.000000 0
1.420000 0.000000 0
1.440000 0.000000 0
1.460000 0.000000 0
1.480000 0.000000 0
1.500000 0.000000 0
1.520000 0.000000 0
1.540000 0.000000 0
1.560000 0.000000 0
1.580000 0.000000 0
1.600000 0.000000 0
1.620000 0.000000 0
1.640000 0.000000 0
1.660000 0.000000 0
1.680000 0.000000 0
1.700000 0.000000 0
1.720000 0.000000 0
1.740000 0.000000 0
1.760000 0.000000 0
1.780000 0.000000 0
1.800000 0.000000 0
1.820000 0.000000 0
1.840000 0.000000 0
1.860000 0.000000 0
1.880000 0.000000 0
1.900000 0.000000 0
1.920000 0.000000 0
1.940000 0.000000 0
1.960000 0.000000 0
0.000000 0.020000 0
0.020000 0.020000 0
0.040000 0.020000 0
0.060000 0.020000 0
0.080000 0.020000 0
0.100000 0.020000 0
0.120000 0.020000 0
0.140000 0.020000 0
0.160000 0.020000 0
0.180000 0.020000 0
0.200000 0.020000 0
0.220000 0.020000 0
0.240000 0.020000 0
0.260000 0.020000 0
0.280000 0.020000 0
0.300000 0.020000 0
0.320000 0.020000 0
0.340000 0.020000 0
0.360000 0.020000 0
0.380000 0.020000 0
0.400000 0.020000 0
0.420000 0.020000 0
0.440000 0.020000 0
0.460000 0.020000 0
0.480000 0.020000 0
0.500000 0.020000 0
0.520000 0.020000 0
0.540000 0.020000 0
0.560000 0.020000 0
0.580000 0.020000 0
0.600000 0.020000 0
0.620000 0.020000 0
0.640000 0.020000 0
0.660000 0.020000 0
0.680000 0.020000 0
0.700000 0.020000 0
0.720000 0.020000 0
0.740000 0.020000 0
0.760000 0.020000 0
0.780000 0.020000 0
0.800000 0.020000 0
0.820000 0.020000 0
0.840000 0.020000 0
0.860000 0.020000 0
0.880000 0.020000 0
0.900000 0.020000 0
0.920000 0.020000 0
0.940000 0.020000 0
0.960000 0.020000 0
0.980000 0.020000 0
1.000000 0.020000 0
1.020000 0.020000 0
1.040000 0.020000 0
1.060000 0.020000 0
1.080000 0.020000 0
1.100000 0.020000 0
1.120000 0.020000 0
1.140000 0.020000 0
1.160000 0.020000 0
1.180000 0.020000 0
1.200000 0.020000 0
1.220000 0.020000 0
1.240000 0.020000 0
1.260000 0.020000 0
1.280000 0.020000 0
1.300000 0.020000 0
1.320000 0.020000 0
1.340000 0.020000 0
1.360000 0.020000 0
1.380000 0.020000 0
1.400000 0.020000 0
1.420000 0.020000 0
1.440000 0.020000 0
1.460000 0.020000 0
1.480000 0.020000 0
1.500000 0.020000 0
1.520000 0.020000 0
1.540000 0.020000 0
1.560000 0.020000 0
1.580000 0.020000 0
1.600000 0.020000 0
1.620000 0.020000 0
1.640000 0.020000 0
1.660000 0.020000 0
1.680000 0.020000 0
1.700000 0.020000 0
1.720000 0.020000 0
1.740000 0.020000 0
1.760000 0.020000 0
1.780000 0.020000 0
1.800000 0.020000 0
1.820000 0.020000 0
1.840000 0.020000 0
1.860000 0.020000 0
1.880000 0.020000 0
1.900000 0.020000 0
1.920000 0.020000 0
1.940000 0.020000 0
1.960000 0.020000 0
0.000000 0.040000 0
0.020000 0.040000 0
0.040000 0.040000 0
0.060000 0.040000 0
0.080000 0.040000 0
0.100000 0.040000 0
0.120000 0.040000 0
0.140000 0.040000 0
0.160000 0.040000 0
0.180000 0.040000 0
0.200000 0.040000 0
0.220000 0.040000 0
0.240000 0.040000 0
0.260000 0.040000 0
0.280000 0.040000 0
0.300000 0.040000 0
0.320000 0.040000 0
0.340000 0.040000 0
0.360000 0.040000 0
0.380000 0.040000 0
0.400000 0.040000 0
0.420000 0.040000 0
0.440000 0.040000 0
0.460000 0.040000 0
0.480000 0.040000 0
0.500000 0.040000 0
0.520000 0.040000 0
0.540000 0.040000 0
0.560000 0.040000 0
0.580000 0.040000 0
0.600000 0.040000 0
0.620000 0.040000 0
0.640000 0.040000 0
0.660000 0.040000 0
0.680000 0.040000 0
0.700000 0.040000 0
0.720000 0.040000 0
0.740000 0.040000 0
0.760000 0.040000 0
0.780000 0.040000 0
0.800000 0.040000 0
0.820000 0.040000 0
0.840000 0.040000 0
0.860000 0.040000 0
0.880000 0.040000 0
0.900000 0.040000 0
0.920000 0.040000 0
0.940000 0.040000 0
0.960000 0.040000 0
0.980000 0.040000 0
1.000000 0.040000 0
1.020000 0.040000 0
1.040000 0.040000 0
1.060000 0.040000 0
1.080000 0.040000 0
1.100000 0.040000 0
1.120000 0.040000 0
1.140000 0.040000 0
1.160000 0.040000 0
1.180000 0.040000 0
1.200000 0.040000 0
1.220000 0.040000 0
1.240000 0.040000 0
1.260000 0.040000 0
1.280000 0.040000 0
1.300000 0.040000 0
1.320000 0.040000 0
1.340000 0.040000 0
1.360000 0.040000 0
1.380000 0.040000 0
1.400000 0.040000 0
1.420000 0.040000 0
1.440000 0.040000 0
1.460000 0.040000 0
1.480000 0.040000 0
1.500000 0.040000 0
1.520000 0.040000 0
1.540000 0.040000 0
1.560000 0.040000 0
1.580000 0.040000 0
1.600000 0.040000 0
1.620000 0.040000 0
1.640000 0.040000 0
1.660000 0.040000 0
1.680000 0.040000 0
1.700000 0.040000 0
1.720000 0.040000 0
1.740000 0.040000 0
1.760000 0.040000 0
1.780000 0.040000 0
1.800000 0.040000 0
1.820000 0.040000 0
1.840000 0.040000 0
1.860000 0.040000 0
1.880000 0.040000 0
1.900000 0.040000 0
1.920000 0.040000 0
1.940000 0.040000 0
1.960000 0.040000 0
0.000000 0.060000 0
0.020000 0.060000 0
0.040000 0.060000 0
0.060000 0.060000 0
0.080000 0.060000 0
0.100000 0.060000 0
0.120000 0.060000 0
0.140000 0.060000 0
0.160000 0.060000 0
0.180000 0.060000 0
0.200000 0.060000 0
0.220000 0.060000 0
0.240000 0.060000 0
0.260000 0.060000 0
0.280000 0.060000 0
0.300000 0.060000 0
0.320000 0.060000 0
0.340000 0.060000 0
0.360000 0.060000 0
0.380000 0.060000 0
0.400000 0.060000 0
0.420000 0.060000 0
0.440000 0.060000 0
0.460000 0.060000 0
0.480000 0.060000 0
0.500000 0.060000 0
0.520000 0.060000 0
0.540000 0.060000 0
0.560000 0.060000 0
0.580000 0.060000 0
0.600000 0.060000 0
0.620000 0.060000 0
0.640000 0.060000 0
0.660000 0.060000 0
0.680000 0.060000 0
0.700000 0.060000 0
0.720000 0.060000 0
0.740000 0.060000 0
0.760000 0.060000 0
0.780000 0.060000 0
0.800000 0.060000 0
0.820000 0.060000 0
0.840000 0.060000 0
0.860000 0.060000 0
0.880000 0.060000 0
0.900000 0.060000 0
0.920000 0.060000 0
0.940000 0.060000 0
0.960000 0.060000 0
0.980000 0.060000 0
1.000000 0.060000 0
1.020000 0.060000 0
1.040000 0.060000 0
1.060000 0.060000 0
1.080000 0.060000 0
1.100000 0.060000 0
1.120000 0.060000 0
1.140000 0.060000 0
1.160000 0.060000 0
1.180000 0.060000 0
1.200000 0.060000 0
1.220000 0.060000 0
1.240000 0.060000 0
1.260000 0.060000 0
1.280000 0.060000 0
1.300000 0.060000 0
1.320000 0.060000 0
1.340000 0.060000 0
1.360000 0.060000 0
1.380000 0.060000 0
1.400000 0.060000 0
1.420000 0.060000 0
1.440000 0.060000 0
1.460000 0.060000 0
1.480000 0.060000 0
1.500000 0.060000 0
1.520000 0.060000 0
1.540000 0.060000 0
1.560000 0.060000 0
1.580000 0.060000 0
1.600000 0.060000 0
1.620000 0.060000 0
1.640000 0.060000 0
1.660000 0.060000 0
1.680000 0.060000 0
1.700000 0.060000 0
1.720000 0.060000 0
1.740000 0.060000 0
1.760000 0.060000 0
1.780000 0.060000 0
1.800000 0.060000 0
1.820000 0.060000 0
1.840000 0.060000 0
1.860000 0.060000 0
1.880000 0.060000 0
1.900000 0.060000 0
1.920000 0.060000 0
1.940000 0.060000 0
1.960000 0.060000 0
0.000000 0.080000 0
0.020000 0.080000 0
0.040000 0.080000 0
0.060000 0.080000 0
0.080000 0.080000 0
0.100000 0.080000 0
0.120000 0.080000 0
0.140000 0.080000 0
0.160000 0.080000 0
0.180000 0.080000 0
0.200000 0.080000 0
0.220000 0.080000 0
0.240000 0.080000 0
0.260000 0.080000 0
0.280000 0.080000 0
0.300000 0.080000 0
0.320000 0.080000 0
0.340000 0.080000 0
0.360000 0.080000 0
0.380000 0.080000 0
0.400000 0.080000 0
0.420000 0.080000 0
0.440000 0.080000 0
0.460000 0.080000 0
0.480000 0.080000 0
0.500000 0.080000 0
0.520000 0.080000 0
0.540000 0.080000 0
0.560000 0.080000 0
0.580000 0.080000 0
0.600000 0.080000 0
0.620000 0.080000 0
0.640000 0.080000 0
0.660000 0.080000 0
0.680000 0.080000 0
0.700000 0.080000 0
0.720000 0.080000 0
0.740000 0.080000 0
0.760000 0.080000 0
0.780000 0.080000 0
0.800000 0.080000 0
0.820000 0.080000 0
0.840000 0.080000 0
0.860000 0.080000 0
0.880000 0.080000 0
0.900000 0.080000 0
0.920000 0.080000 0
0.940000 0.080000 0
0.960000 0.080000 0
0.980000 0.080000 0
1.000000 0.080000 0
1.020000 0.080000 0
1.040000 0.080000 0
1.060000 0.080000 0
1.080000 0.080000 0
1.100000 0.080000 0
1.120000 0.080000 0
1.140000 0.080000 0
1.160000 0.080000 0
1.180000 0.080000 0
1.200000 0.080000 0
1.220000 0.080000 0
1.240000 0.080000 0
1.260000 0.080000 0
1.280000 0.080000 0
1.300000 0.080000 0
1.320000 0.080000 0
1.340000 0.080000 0
1.360000 0.080000 0
1.380000 0.080000 0
1.400000 0.080000 0
1.420000 0.080000 0
1.440000 0.080000 0
1.460000 0.080000 0
1.480000 0.080000 0
1.500000 0.080000 0
1.520000 0.080000 0
1.540000 0.080000 0
1.560000 0.080000 0
1.580000 0.080000 0
1.600000 0.080000 0
1.620000 0.080000 0
1.640000 0.080000 0
1.660000 0.080000 0
1.680000 0.080000 0
1.700000 0.080000 0
1.720000 0.080000 0
1.740000 0.080000 0
1.760000 0.080000 0
1.780000 0.080000 0
1.800000 0.080000 0
1.820000 0.080000 0
1.840000 0.080000 0
1.860000 0.080000 0
1.880000 0.080000 0
[...]
POINT_DATA 4851 

VECTORS velocity float
0.000000 0.000000 0
0.000261 0.000000 0
0.000682 0.000000 0
0.001050 0.000000 0
0.001280 0.000000 0
0.001362 0.000000 0
0.001330 0.000000 0
0.001223 0.000000 0
0.001075 0.000000 0
0.000915 0.000000 0
0.000763 0.000000 0
0.000632 0.000000 0
0.000527 0.000000 0
0.000451 0.000000 0
0.000400 0.000000 0
0.000373 0.000000 0
0.000364 0.000000 0
0.000370 0.000000 0
0.000385 0.000000 0
0.000405 0.000000 0
0.000426 0.000000 0
0.000446 0.000000 0
0.000463 0.000000 0
0.000477 0.000000 0
0.000486 0.000000 0
0.000491 0.000000 0
0.000494 0.000000 0
0.000498 0.000000 0
0.000504 0.000000 0
0.000516 0.000000 0
0.000535 0.000000 0
0.000551 0.000000 0
0.000543 0.000000 0
0.000476 0.000000 0
0.000325 0.000000 0
0.000124 0.000000 0
0.000000 0.000000 0
0.000000 0.000000 0
0.000000 0.000000 0
0.000000 0.000000 0
0.000000 0.000000 0
0.000000 0.000000 0
0.000000 0.000000 0
-0.000000 0.000000 0
-0.000000 0.000000 0
-0.000001 0.000000 0
-0.000001 0.000000 0
-0.000002 0.000000 0
-0.000002 0.000000 0
-0.000003 0.000000 0
-0.000003 0.000000 0
-0.000004 0.000000 0
-0.000004 0.000000 0
-0.000005 0.000000 0
-0.000005 0.000000 0
-0.000006 0.000000 0
-0.000006 0.000000 0
-0.000006 0.000000 0
-0.000006 0.000000 0
-0.000006 0.000000 0
-0.000006 0.000000 0
-0.000005 0.000000 0
-0.000003 0.000000 0
-0.000001 0.000000 0
0.000001 0.000000 0
0.000004 0.000000 0
0.000008 0.000000 0
0.000012 0.000000 0
0.000017 0.000000 0
0.000022 0.000000 0
0.000027 0.000000 0
0.000033 0.000000 0
0.000039 0.000000 0
0.000046 0.000000 0
0.000052 0.000000 0
0.000059 0.000000 0
0.000066 0.000000 0
0.000073 0.000000 0
0.000080 0.000000 0
0.000087 0.000000 0
0.000094 0.000000 0
0.000102 0.000000 0
0.000110 0.000000 0
0.000118 0.000000 0
0.000127 0.000000 0
0.000138 0.000000 0
0.000150 0.000000 0
0.000164 0.000000 0
0.000181 0.000000 0
0.000202 0.000000 0
0.000228 0.000000 0
0.000263 0.000000 0
0.000309 0.000000 0
0.000370 0.000000 0
0.000450 0.000000 0
0.000542 0.000000 0
0.000595 0.000000 0
0.000456 0.000000 0
0.000000 0.000000 0
0.000000 -0.000262 0
0.000712 -0.000683 0
0.001870 -0.000789 0
0.002938 -0.000598 0
0.003687 -0.000313 0
0.004061 -0.000051 0
0.004107 0.000139 0
0.003911 0.000255 0
0.003563 0.000307 0
0.003141 0.000311 0
0.002707 0.000282 0
0.002305 0.000235 0
0.001963 0.000181 0
0.001695 0.000126 0
0.001502 0.000077 0
0.001379 0.000035 0
0.001317 0.000002 0
0.001301 -0.000021 0
0.001320 -0.000036 0
0.001360 -0.000042 0
0.001409 -0.000042 0
0.001458 -0.000038 0
0.001502 -0.000031 0
0.001535 -0.000023 0
0.001558 -0.000015 0
0.001570 -0.000010 0
0.001575 -0.000007 0
0.001577 -0.000011 0
0.001583 -0.000020 0
0.001596 -0.000031 0
0.001614 -0.000036 0
0.001614 -0.000010 0
0.001543 0.000074 0
0.001320 0.000217 0
0.000895 0.000351 0
0.000352 0.000325 0
0.000000 0.000124 0
0.000000 0.000000 0
0.000000 0.000000 0
0.000000 0.000000 0
0.000000 0.000000 0
0.000000 0.000000 0
-0.000000 0.000001 0
-0.000001 0.000001 0
-0.000002 0.000001 0
-0.000003 0.000001 0
-0.000004 0.000001 0
-0.000006 0.000001 0
-0.000007 0.000001 0
-0.000009 0.000001 0
-0.000010 0.000001 0
-0.000012 0.000001 0
-0.000014 0.000001 0
-0.000016 0.000001 0
-0.000017 0.000001 0
-0.000019 0.000001 0
-0.000020 0.000001 0
-0.000020 0.000001 0
-0.000020 0.000000 0
-0.000018 -0.000001 0
-0.000015 -0.000001 0
-0.000011 -0.000002 0
-0.000005 -0.000003 0
0.000002 -0.000004 0
0.000012 -0.000005 0
0.000024 -0.000006 0
0.000037 -0.000008 0
0.000053 -0.000009 0
0.000070 -0.000010 0
0.000089 -0.000010 0
0.000110 -0.000011 0
0.000131 -0.000012 0
0.000154 -0.000012 0
0.000177 -0.000013 0
0.000201 -0.000013 0
0.000226 -0.000013 0
0.000251 -0.000013 0
0.000276 -0.000014 0
0.000302 -0.000014 0
0.000328 -0.000014 0
0.000355 -0.000015 0
0.000382 -0.000015 0
0.000411 -0.000016 0
0.000442 -0.000018 0
0.000476 -0.000020 0
0.000513 -0.000022 0
0.000555 -0.000026 0
0.000603 -0.000031 0
0.000659 -0.000038 0
0.000726 -0.000047 0
0.000808 -0.000061 0
0.000908 -0.000080 0
0.001029 -0.000107 0
0.001172 -0.000141 0
0.001327 -0.000172 0
0.001447 -0.000145 0
0.001397 0.000086 0
0.000913 0.000595 0
0.000000 0.000456 0
0.000000 -0.000713 0
0.000923 -0.001871 0
0.002463 -0.002227 0
0.003967 -0.001818 0
0.005132 -0.001124 0
0.005855 -0.000421 0
0.006140 0.000149 0
0.006064 0.000543 0
0.005726 0.000770 0
0.005227 0.000855 0
0.004654 0.000835 0
0.004081 0.000743 0
0.003557 0.000609 0
0.003116 0.000460 0
0.002772 0.000315 0
0.002527 0.000184 0
0.002372 0.000077 0
0.002293 -0.000005 0
0.002270 -0.000059 0
0.002288 -0.000090 0
0.002327 -0.000100 0
0.002373 -0.000094 0
0.002417 -0.000078 0
0.002450 -0.000057 0
0.002469 -0.000036 0
0.002473 -0.000018 0
0.002465 -0.000008 0
0.002448 -0.000009 0
0.002425 -0.000020 0
0.002399 -0.000032 0
0.002359 -0.000019 0
0.002279 0.000069 0
0.002100 0.000293 0
0.001740 0.000647 0
0.001156 0.000968 0
0.000457 0.000894 0
0.000000 0.000351 0
0.000000 0.000000 0
0.000000 0.000000 0
0.000000 0.000000 0
0.000000 0.000000 0
0.000000 0.000001 0
-0.000001 0.000001 0
-0.000002 0.000002 0
-0.000003 0.000002 0
-0.000005 0.000003 0
-0.000007 0.000003 0
-0.000010 0.000003 0
-0.000012 0.000004 0
-0.000015 0.000004 0
-0.000018 0.000004 0
-0.000021 0.000004 0
-0.000023 0.000004 0
-0.000026 0.000004 0
-0.000028 0.000003 0
-0.000030 0.000003 0
-0.000031 0.000002 0
-0.000031 0.000000 0
-0.000029 -0.000002 0
-0.000026 -0.000004 0
-0.000020 -0.000007 0
-0.000011 -0.000010 0
0.000001 -0.000013 0
0.000016 -0.000017 0
0.000034 -0.000021 0
0.000057 -0.000025 0
0.000082 -0.000029 0
0.000111 -0.000033 0
0.000144 -0.000036 0
0.000179 -0.000039 0
0.000216 -0.000042 0
0.000256 -0.000044 0
0.000298 -0.000046 0
0.000341 -0.000047 0
0.000385 -0.000048 0
0.000430 -0.000049 0
0.000475 -0.000050 0
0.000522 -0.000051 0
0.000568 -0.000051 0
0.000616 -0.000053 0
0.000664 -0.000054 0
0.000715 -0.000056 0
0.000767 -0.000060 0
0.000822 -0.000064 0
0.000881 -0.000070 0
0.000945 -0.000079 0
0.001015 -0.000090 0
0.001095 -0.000104 0
0.001184 -0.000123 0
0.001287 -0.000149 0
0.001404 -0.000181 0
0.001536 -0.000221 0
0.001678 -0.000264 0
0.001813 -0.000298 0
0.001904 -0.000275 0
0.001864 -0.000070 0
0.001543 0.000534 0
0.000806 0.001397 0
0.000000 0.000913 0
0.000000 -0.001185 0
0.000906 -0.003147 0
0.002472 -0.003834 0
0.004055 -0.003267 0
0.005358 -0.002201 0
0.006271 -0.001060 0
0.006773 -0.000070 0
0.006896 0.000669 0
0.006717 0.001144 0
0.006325 0.001382 0
0.005806 0.001428 0
0.005236 0.001332 0
0.004677 0.001145 0
0.004174 0.000911 0
0.003754 0.000665 0
0.003427 0.000434 0
0.003194 0.000236 0
0.003044 0.000080 0
0.002960 -0.000031 0
0.002925 -0.000099 0
0.002921 -0.000128 0
0.002932 -0.000129 0
0.002946 -0.000108 0
0.002952 -0.000076 0
0.002946 -0.000039 0
0.002924 -0.000006 0
0.002886 0.000017 0
0.002832 0.000029 0
0.002763 0.000029 0
0.002676 0.000035 0
0.002559 0.000084 0
0.002388 0.000249 0
0.002118 0.000612 0
0.001691 0.001160 0
0.001085 0.001635 0
0.000412 0.001481 0
0.000000 0.000580 0
0.000000 0.000000 0
0.000000 0.000000 0
0.000000 0.000000 0
0.000000 0.000000 0
-0.000000 0.000001 0
-0.000001 0.000003 0
-0.000003 0.000004 0
-0.000005 0.000004 0
-0.000007 0.000005 0
-0.000010 0.000006 0
-0.000012 0.000006 0
-0.000016 0.000007 0
-0.000019 0.000007 0
-0.000022 0.000007 0
-0.000026 0.000007 0
-0.000029 0.000007 0
-0.000032 0.000007 0
-0.000034 0.000006 0
-0.000036 0.000004 0
-0.000037 0.000002 0
-0.000035 -0.000001 0
-0.000032 -0.000005 0
-0.000026 -0.000010 0
-0.000017 -0.000016 0
-0.000004 -0.000022 0
0.000013 -0.000030 0
0.000035 -0.000038 0
0.000061 -0.000046 0
0.000093 -0.000054 0
0.000129 -0.000062 0
0.000169 -0.000070 0
0.000214 -0.000077 0
0.000263 -0.000083 0
0.000315 -0.000089 0
0.000370 -0.000093 0
0.000428 -0.000097 0
0.000487 -0.000100 0
0.000547 -0.000102 0
0.000609 -0.000104 0
0.000671 -0.000105 0
0.000734 -0.000106 0
0.000798 -0.000108 0
0.000862 -0.000110 0
0.000928 -0.000113 0
0.000995 -0.000117 0
0.001064 -0.000123 0
0.001136 -0.000131 0
0.001212 -0.000142 0
0.001293 -0.000157 0
0.001380 -0.000176 0
0.001475 -0.000200 0
0.001578 -0.000230 0
0.001689 -0.000267 0
0.001807 -0.000310 0
0.001926 -0.000353 0
0.002031 -0.000384 0
0.002097 -0.000368 0
0.002070 -0.000223 0
0.001865 0.000216 0
0.001379 0.001144 0
0.000613 0.002139 0
0.000000 0.001263 0
0.000000 -0.001619 0
0.000817 -0.004343 0
0.002252 -0.005375 0
0.003728 -0.004705 0
0.004987 -0.003341 0
0.005936 -0.001836 0
0.006554 -0.000475 0
0.006847 0.000599 0
0.006854 0.001340 0
0.006637 0.001766 0
0.006265 0.001924 0
0.005805 0.001871 0
0.005314 0.001671 0
0.004840 0.001384 0
0.004417 0.001061 0
0.004063 0.000743 0
0.003787 0.000460 0
0.003584 0.000230 0
0.003443 0.000059 0
0.003352 -0.000051 0
0.003294 -0.000107 0
0.003255 -0.000119 0
0.003223 -0.000099 0
0.003188 -0.000058 0
0.003143 -0.000008 0
0.003082 0.000041 0
0.003005 0.000083 0
0.002909 0.000113 0
0.002790 0.000136 0
0.002643 0.000172 0
0.002457 0.000268 0
0.002213 0.000510 0
0.001884 0.000989 0
0.001436 0.001680 0
0.000875 0.002247 0
0.000309 0.001978 0
0.000000 0.000763 0
0.000000 0.000000 0
0.000000 0.000000 0
0.000000 0.000000 0
0.000000 0.000001 0
-0.000000 0.000002 0
-0.000001 0.000004 0
-0.000003 0.000006 0
-0.000005 0.000007 0
-0.000008 0.000008 0
-0.000011 0.000009 0
-0.000014 0.000009 0
-0.000017 0.000010 0
-0.000021 0.000011 0
-0.000024 0.000011 0
-0.000028 0.000011 0
-0.000031 0.000010 0
-0.000034 0.000009 0
-0.000037 0.000008 0
-0.000038 0.000005 0
-0.000038 0.000001 0
-0.000035 -0.000004 0
-0.000031 -0.000011 0
-0.000022 -0.000019 0
-0.000010 -0.000029 0
0.000006 -0.000040 0
0.000028 -0.000052 0
0.000056 -0.000065 0
0.000089 -0.000079 0
0.000128 -0.000092 0
0.000173 -0.000105 0
0.000223 -0.000118 0
0.000279 -0.000130 0
0.000339 -0.000140 0
0.000404 -0.000149 0
0.000471 -0.000156 0
0.000541 -0.000162 0
0.000614 -0.000167 0
0.000688 -0.000170 0
0.000763 -0.000173 0
0.000838 -0.000175 0
0.000914 -0.000177 0
0.000991 -0.000179 0
0.001068 -0.000182 0
0.001146 -0.000187 0
0.001226 -0.000193 0
0.001306 -0.000201 0
0.001389 -0.000212 0
0.001475 -0.000227 0
0.001564 -0.000247 0
0.001657 -0.000271 0
0.001755 -0.000302 0
0.001856 -0.000338 0
0.001958 -0.000378 0
0.002056 -0.000417 0
0.002139 -0.000445 0
0.002190 -0.000436 0
0.002176 -0.000336 0
0.002046 -0.000042 0
0.001733 0.000622 0
0.001183 0.001786 0
0.000470 0.002776 0
0.000000 0.001526 0
0.000000 -0.002002 0
0.000713 -0.005400 0
0.001959 -0.006745 0
0.003239 -0.006001 0
0.004349 -0.004409 0
0.005228 -0.002628 0
0.005867 -0.000981 0
0.006264 0.000369 0
0.006427 0.001353 0
0.006389 0.001970 0
0.006193 0.002260 0
0.005888 0.002283 0
0.005522 0.002110 0
0.005137 0.001808 0
0.004767 0.001442 0
0.004434 0.001064 0
0.004151 0.000716 0
0.003922 0.000423 0
0.003744 0.000200 0
0.003606 0.000050 0
0.003498 -0.000032 0
0.003410 -0.000058 0
0.003329 -0.000041 0
0.003249 0.000005 0
0.003161 0.000066 0
0.003061 0.000131 0
0.002945 0.000191 0
0.002809 0.000244 0
0.002647 0.000295 0
0.002454 0.000367 0
0.002220 0.000513 0
0.001930 0.000822 0
0.001570 0.001389 0
0.001130 0.002168 0
0.000639 0.002762 0
0.000202 0.002355 0
0.000000 0.000889 0
0.000000 0.000000 0
0.000000 0.000000 0
0.000000 0.000000 0
0.000000 0.000001 0
-0.000000 0.000003 0
-0.000001 0.000006 0
-0.000003 0.000008 0
-0.000005 0.000009 0
-0.000008 0.000011 0
-0.000011 0.000012 0
-0.000014 0.000013 0
-0.000017 0.000014 0
-0.000021 0.000014 0
-0.000024 0.000014 0
-0.000028 0.000014 0
-0.000031 0.000014 0
-0.000034 0.000012 0
-0.000036 0.000009 0
-0.000037 0.000005 0
-0.000036 -0.000001 0
-0.000033 -0.000008 0
-0.000027 -0.000018 0
-0.000017 -0.000030 0
-0.000003 -0.000044 0
0.000017 -0.000061 0
0.000043 -0.000079 0
0.000075 -0.000098 0
0.000114 -0.000118 0
0.000159 -0.000138 0
0.000212 -0.000157 0
0.000271 -0.000176 0
0.000336 -0.000193 0
0.000406 -0.000207 0
0.000480 -0.000220 0
0.000558 -0.000231 0
0.000639 -0.000239 0
0.000722 -0.000246 0
0.000807 -0.000251 0
0.000892 -0.000254 0
0.000978 -0.000257 0
0.001065 -0.000259 0
0.001151 -0.000262 0
0.001237 -0.000265 0
0.001324 -0.000270 0
0.001410 -0.000277 0
0.001498 -0.000287 0
0.001586 -0.000300 0
0.001676 -0.000317 0
0.001766 -0.000339 0
0.001858 -0.000366 0
0.001950 -0.000398 0
0.002040 -0.000433 0
0.002123 -0.000467 0
0.002192 -0.000491 0
0.002235 -0.000487 0
0.002231 -0.000420 0
0.002150 -0.000223 0
0.001947 0.000221 0
0.001577 0.001079 0
0.001019 0.002407 0
0.000374 0.003322 0
0.000000 0.001732 0
0.000000 -0.002333 0
0.000609 -0.006302 0
0.001648 -0.007902 0
0.002701 -0.007095 0
0.003616 -0.005330 0
0.004367 -0.003354 0
0.004961 -0.001512 0
0.005398 0.000038 0
0.005670 0.001215 0
0.005783 0.002000 0
0.005754 0.002424 0
0.005612 0.002541 0
0.005391 0.002422 0
0.005123 0.002139 0
0.004838 0.001764 0
0.004559 0.001359 0
0.004301 0.000971 0
0.004072 0.000637 0
0.003875 0.000375 0
0.003707 0.000194 0
0.003562 0.000089 0
0.003433 0.000049 0
0.003312 0.000062 0
0.003192 0.000110 0
0.003068 0.000179 0
0.002936 0.000257 0
0.002789 0.000335 0
0.002623 0.000410 0
0.002433 0.000490 0
0.002212 0.000599 0
0.001949 0.000792 0
0.001636 0.001160 0
0.001265 0.001789 0
0.000847 0.002610 0
0.000432 0.003174 0
0.000114 0.002618 0
0.000000 0.000964 0
0.000000 0.000000 0
0.000000 0.000000 0
0.000000 0.000000 0
0.000000 0.000001 0
-0.000000 0.000004 0
-0.000001 0.000007 0
-0.000003 0.000010 0
-0.000005 0.000012 0
-0.000008 0.000013 0
-0.000010 0.000015 0
-0.000013 0.000016 0
-0.000016 0.000017 0
-0.000020 0.000018 0
-0.000023 0.000018 0
-0.000026 0.000018 0
-0.000029 0.000016 0
-0.000031 0.000014 0
-0.000033 0.000011 0
-0.000034 0.000005 0
-0.000033 -0.000003 0
-0.000029 -0.000013 0
-0.000022 -0.000027 0
-0.000011 -0.000043 0
0.000004 -0.000063 0
0.000026 -0.000085 0
0.000055 -0.000110 0
0.000091 -0.000136 0
0.000134 -0.000163 0
0.000186 -0.000190 0
0.000245 -0.000217 0
0.000311 -0.000242 0
0.000384 -0.000264 0
0.000462 -0.000284 0
0.000545 -0.000301 0
0.000632 -0.000315 0
0.000721 -0.000326 0
0.000813 -0.000334 0
0.000906 -0.000340 0
0.001000 -0.000344 0
0.001094 -0.000347 0
0.001188 -0.000350 0
0.001281 -0.000352 0
0.001373 -0.000355 0
0.001465 -0.000360 0
0.001556 -0.000367 0
0.001646 -0.000376 0
0.001735 -0.000390 0
0.001824 -0.000407 0
0.001911 -0.000429 0
0.001997 -0.000455 0
0.002078 -0.000483 0
0.002151 -0.000510 0
0.002212 -0.000530 0
0.002252 -0.000529 0
0.002256 -0.000484 0
0.002206 -0.000350 0
0.002075 -0.000052 0
0.001827 0.000530 0
0.001432 0.001550 0
0.000890 0.002989 0
0.000309 0.003795 0
0.000000 0.001900 0
0.000000 -0.002611 0
0.000507 -0.007048 0
0.001342 -0.008838 0
0.002167 -0.007969 0
0.002880 -0.006076 0
0.003482 -0.003972 0
0.003994 -0.002012 0
0.004423 -0.000341 0
0.004758 0.000968 0
0.004981 0.001886 0
0.005091 0.002430 0
0.005096 0.002646 0
0.005015 0.002598 0
0.004870 0.002360 0
0.004684 0.002006 0
0.004476 0.001601 0
0.004262 0.001202 0
0.004054 0.000848 0
0.003858 0.000565 0
0.003677 0.000363 0
0.003509 0.000242 0
0.003353 0.000192 0
0.003204 0.000199 0
0.003058 0.000248 0
0.002911 0.000322 0
0.002757 0.000410 0
0.002591 0.000503 0
0.002409 0.000599 0
0.002204 0.000706 0
0.001968 0.000851 0
0.001693 0.001088 0
0.001370 0.001506 0
0.001000 0.002177 0
0.000611 0.003001 0
0.000266 0.003495 0
0.000048 0.002787 0
0.000000 0.001002 0
0.000000 0.000000 0
0.000000 0.000000 0
0.000000 0.000000 0
0.000000 0.000001 0
-0.000000 0.000005 0
-0.000001 0.000009 0
-0.000003 0.000012 0
-0.000005 0.000014 0
-0.000007 0.000016 0
-0.000009 0.000018 0
-0.000012 0.000019 0
-0.000014 0.000020 0
-0.000017 0.000021 0
-0.000020 0.000021 0
-0.000023 0.000021 0
-0.000025 0.000019 0
-0.000027 0.000016 0
-0.000029 0.000012 0
-0.000029 0.000005 0
-0.000028 -0.000005 0
-0.000024 -0.000018 0
-0.000018 -0.000036 0
-0.000006 -0.000057 0
0.000010 -0.000082 0
0.000033 -0.000111 0
0.000064 -0.000143 0
0.000103 -0.000178 0
0.000150 -0.000213 0
0.000206 -0.000248 0
0.000271 -0.000282 0
0.000343 -0.000314 0
0.000423 -0.000343 0
0.000509 -0.000369 0
0.000599 -0.000390 0
0.000694 -0.000407 0
0.000791 -0.000421 0
0.000890 -0.000431 0
0.000990 -0.000437 0
0.001090 -0.000442 0
0.001190 -0.000444 0
0.001288 -0.000446 0
0.001386 -0.000447 0
0.001481 -0.000449 0
0.001575 -0.000453 0
0.001667 -0.000458 0
0.001757 -0.000466 0
0.001845 -0.000478 0
0.001930 -0.000493 0
0.002011 -0.000512 0
0.002086 -0.000533 0
0.002154 -0.000553 0
0.002210 -0.000567 0
0.002249 -0.000567 0
0.002261 -0.000535 0
0.002233 -0.000442 0
0.002148 -0.000239 0
0.001981 0.000156 0
0.001708 0.000863 0
0.001307 0.002016 0
0.000790 0.003530 0
0.000264 0.004212 0
0.000000 0.002042 0
0.000000 -0.002839 0
0.000409 -0.007645 0
0.001054 -0.009563 0
0.001670 -0.008633 0
0.002193 -0.006645 0
0.002648 -0.004468 0
0.003065 -0.002453 0
0.003457 -0.000726 0
0.003812 0.000657 0
0.004105 0.001667 0
0.004316 0.002309 0
0.004440 0.002616 0
0.004481 0.002647 0
0.004449 0.002471 0
0.004360 0.002159 0
0.004229 0.001780 0
0.004070 0.001393 0
0.003896 0.001040 0
0.003717 0.000752 0
0.003538 0.000542 0
0.003365 0.000412 0
0.003197 0.000354 0
0.003035 0.000356 0
0.002877 0.000403 0
0.002719 0.000481 0
0.002556 0.000576 0
0.002383 0.000682 0
0.002194 0.000797 0
0.001983 0.000931 0
0.001742 0.001110 0
0.001463 0.001390 0
0.001138 0.001852 0
0.000776 0.002547 0
0.000417 0.003344 0
0.000136 0.003738 0
0.000000 0.002883 0
0.000000 0.001012 0
0.000000 0.000000 0
0.000000 0.000000 0
0.000000 0.000000 0
0.000000 0.000002 0
-0.000000 0.000006 0
-0.000001 0.000010 0
-0.000002 0.000013 0
-0.000004 0.000016 0
-0.000005 0.000018 0
-0.000007 0.000020 0
-0.000009 0.000021 0
-0.000012 0.000023 0
-0.000014 0.000023 0
-0.000016 0.000024 0
-0.000018 0.000023 0
-0.000020 0.000021 0
-0.000022 0.000018 0
-0.000023 0.000013 0
-0.000024 0.000004 0
-0.000023 -0.000007 0
-0.000020 -0.000024 0
-0.000013 -0.000044 0
-0.000002 -0.000071 0
0.000014 -0.000102 0
0.000038 -0.000139 0
0.000069 -0.000179 0
0.000110 -0.000222 0
0.000161 -0.000267 0
0.000221 -0.000311 0
0.000291 -0.000354 0
0.000369 -0.000393 0
0.000455 -0.000429 0
0.000547 -0.000460 0
0.000645 -0.000486 0
0.000746 -0.000507 0
0.000849 -0.000522 0
0.000954 -0.000533 0
0.001060 -0.000540 0
0.001165 -0.000544 0
0.001269 -0.000546 0
0.001371 -0.000546 0
0.001470 -0.000545 0
0.001567 -0.000545 0
0.001662 -0.000546 0
0.001753 -0.000549 0
0.001840 -0.000554 0
0.001924 -0.000562 0
0.002002 -0.000573 0
0.002075 -0.000586 0
0.002140 -0.000598 0
0.002194 -0.000607 0
0.002232 -0.000605 0
0.002250 -0.000580 0
0.002238 -0.000513 0
0.002184 -0.000370 0
0.002073 -0.000098 0
0.001884 0.000387 0
0.001598 0.001204 0
0.001202 0.002468 0
0.000711 0.004033 0
0.000231 0.004585 0
0.000000 0.002164 0
0.000000 -0.003020 0
0.000318 -0.008103 0
0.000795 -0.010099 0
0.001228 -0.009108 0
0.001587 -0.007054 0
0.001909 -0.004844 0
0.002231 -0.002821 0
0.002568 -0.001088 0
0.002912 0.000320 0
0.003236 0.001382 0
0.003512 0.002094 0
0.003723 0.002481 0
0.003859 0.002589 0
0.003923 0.002481 0
0.003921 0.002226 0
0.003864 0.001891 0
0.003763 0.001534 0
0.003631 0.001201 0
0.003480 0.000923 0
0.003318 0.000715 0
0.003153 0.000583 0
0.002989 0.000521 0
0.002828 0.000519 0
0.002670 0.000564 0
0.002511 0.000643 0
0.002347 0.000746 0
0.002174 0.000864 0
0.001985 0.000998 0
0.001773 0.001158 0
0.001530 0.001372 0
0.001248 0.001693 0
0.000924 0.002193 0
0.000574 0.002897 0
0.000249 0.003641 0
0.000028 0.003912 0
-0.000037 0.002922 0
0.000000 0.001002 0
0.000000 0.000000 0
0.000000 0.000000 0
0.000000 0.000000 0
0.000000 0.000002 0
-0.000000 0.000006 0
-0.000001 0.000011 0
-0.000002 0.000014 0
-0.000003 0.000017 0
-0.000004 0.000020 0
-0.000005 0.000022 0
-0.000007 0.000023 0
-0.000008 0.000025 0
-0.000010 0.000025 0
-0.000011 0.000026 0
-0.000013 0.000025 0
-0.000014 0.000023 0
-0.000016 0.000019 0
-0.000017 0.000013 0
-0.000017 0.000004 0
-0.000017 -0.000009 0
-0.000014 -0.000028 0
-0.000009 -0.000053 0
0.000000 -0.000084 0
0.000016 -0.000122 0
0.000039 -0.000166 0
0.000071 -0.000216 0
0.000114 -0.000269 0
0.000167 -0.000324 0
0.000231 -0.000378 0
0.000306 -0.000430 0
0.000390 -0.000478 0
0.000481 -0.000521 0
0.000580 -0.000558 0
0.000684 -0.000588 0
0.000791 -0.000612 0
0.000900 -0.000629 0
0.001010 -0.000641 0
0.001120 -0.000648 0