# vtk DataFile Version 2.0
generated by CFD-lab course output (written by Tobias Neckel) 
ASCII

DATASET STRUCTURED_GRID
DIMENSIONS  99 49 1 
POINTS 4851 float

0.000000 0.000000 0
0.020000 0.000000 0
0.040000 0.000000 0
0.060000 0.000000 0
0.080000 0.000000 0
0.100000 0.000000 0
0.120000 0.000000 0
0.140000 0.000000 0
0.160000 0.000000 0
0.180000 0.000000 0
0.200000 0.000000 0
0.220000 0.000000 0
0.240000 0.000000 0
0.260000 0.000000 0
0.280000 0.000000 0
0.300000 0.000000 0
0.320000 0.000000 0
0.340000 0.000000 0
0.360000 0.000000 0
0.380000 0.000000 0
0.400000 0.000000 0
0.420000 0.000000 0
0.440000 0.000000 0
0.460000 0.000000 0
0.480000 0.000000 0
0.500000 0.000000 0
0.520000 0.000000 0
0.540000 0.000000 0
0.560000 0.000000 0
0.580000 0.000000 0
0.600000 0.000000 0
0.620000 0.000000 0
0.640000 0.000000 0
0.660000 0.000000 0
0.680000 0.000000 0
0.700000 0.000000 0
0.720000 0.000000 0
0.740000 0.000000 0
0.760000 0.000000 0
0.780000 0.000000 0
0.800000 0.000000 0
0.820000 0.000000 0
0.840000 0.000000 0
0.860000 0.000000 0
0.880000 0.000000 0
0.900000 0.000000 0
0.920000 0.000000 0
0.940000 0.000000 0
0.960000 0.000000 0
0.980000 0.000000 0
1.000000 0.000000 0
1.020000 0.000000 0
1.040000 0.000000 0
1.060000 0.000000 0
1.080000 0.000000 0
1.100000 0.000000 0
1.120000 0.000000 0
1.140000 0.000000 0
1.160000 0.000000 0
1.180000 0.000000 0
1.200000 0.000000 0
1.220000 0.000000 0
1.240000 0.000000 0
1.260000 0.000000 0
1.280000 0.000000 0
1.300000 0.000000 0
1.320000 0.000000 0
1.340000 0.000000 0
1.360000 0.000000 0
1.380000 0.000000 0
1.400000 0.000000 0
1.420000 0.000000 0
1.440000 0.000000 0
1.460000 0.000000 0
1.480000 0.000000 0
1.500000 0.000000 0
1.520000 0.000000 0
1.540000 0.000000 0
1.560000 0.000000 0
1.580000 0.000000 0
1.600000 0.000000 0
1.620000 0.000000 0
1.640000 0.000000 0
1.660000 0.000000 0
1.680000 0.000000 0
1.700000 0.000000 0
1.720000 0.000000 0
1.740000 0.000000 0
1.760000 0.000000 0
1.780000 0.000000 0
1.800000 0.000000 0
1.820000 0.000000 0
1.840000 0.000000 0
1.860000 0.000000 0
1.880000 0.000000 0
1.900000 0.000000 0
1.920000 0.000000 0
1.940000 0.000000 0
1.960000 0.000000 0
0.000000 0.020000 0
0.020000 0.020000 0
0.040000 0.020000 0
0.060000 0.020000 0
0.080000 0.020000 0
0.100000 0.020000 0
0.120000 0.020000 0
0.140000 0.020000 0
0.160000 0.020000 0
0.180000 0.020000 0
0.200000 0.020000 0
0.220000 0.020000 0
0.240000 0.020000 0
0.260000 0.020000 0
0.280000 0.020000 0
0.300000 0.020000 0
0.320000 0.020000 0
0.340000 0.020000 0
0.360000 0.020000 0
0.380000 0.020000 0
0.400000 0.020000 0
0.420000 0.020000 0
0.440000 0.020000 0
0.460000 0.020000 0
0.480000 0.020000 0
0.500000 0.020000 0
0.520000 0.020000 0
0.540000 0.020000 0
0.560000 0.020000 0
0.580000 0.020000 0
0.600000 0.020000 0
0.620000 0.020000 0
0.640000 0.020000 0
0.660000 0.020000 0
0.680000 0.020000 0
0.700000 0.020000 0
0.720000 0.020000 0
0.740000 0.020000 0
0.760000 0.020000 0
0.780000 0.020000 0
0.800000 0.020000 0
0.820000 0.020000 0
0.840000 0.020000 0
0.860000 0.020000 0
0.880000 0.020000 0
0.900000 0.020000 0
0.920000 0.020000 0
0.940000 0.020000 0
0.960000 0.020000 0
0.980000 0.020000 0
1.000000 0.020000 0
1.020000 0.020000 0
1.040000 0.020000 0
1.060000 0.020000 0
1.080000 0.020000 0
1.100000 0.020000 0
1.120000 0.020000 0
1.140000 0.020000 0
1.160000 0.020000 0
1.180000 0.020000 0
1.200000 0.020000 0
1.220000 0.020000 0
1.240000 0.020000 0
1.260000 0.020000 0
1.280000 0.020000 0
1.300000 0.020000 0
1.320000 0.020000 0
1.340000 0.020000 0
1.360000 0.020000 0
1.380000 0.020000 0
1.400000 0.020000 0
1.420000 0.020000 0
1.440000 0.020000 0
1.460000 0.020000 0
1.480000 0.020000 0
1.500000 0.020000 0
1.520000 0.020000 0
1.540000 0.020000 0
1.560000 0.020000 0
1.580000 0.020000 0
1.600000 0.020000 0
1.620000 0.020000 0
1.640000 0.020000 0
1.660000 0.020000 0
1.680000 0.020000 0
1.700000 0.020000 0
1.720000 0.020000 0
1.740000 0.020000 0
1.760000 0.020000 0
1.780000 0.020000 0
1.800000 0.020000 0
1.820000 0.020000 0
1.840000 0.020000 0
1.860000 0.020000 0
1.880000 0.020000 0
1.900000 0.020000 0
1.920000 0.020000 0
1.940000 0.020000 0
1.960000 0.020000 0
0.000000 0.040000 0
0.020000 0.040000 0
0.040000 0.040000 0
0.060000 0.040000 0
0.080000 0.040000 0
0.100000 0.040000 0
0.120000 0.040000 0
0.140000 0.040000 0
0.160000 0.040000 0
0.180000 0.040000 0
0.200000 0.040000 0
0.220000 0.040000 0
0.240000 0.040000 0
0.260000 0.040000 0
0.280000 0.040000 0
0.300000 0.040000 0
0.320000 0.040000 0
0.340000 0.040000 0
0.360000 0.040000 0
0.380000 0.040000 0
0.400000 0.040000 0
0.420000 0.040000 0
0.440000 0.040000 0
0.460000 0.040000 0
0.480000 0.040000 0
0.500000 0.040000 0
0.520000 0.040000 0
0.540000 0.040000 0
0.560000 0.040000 0
0.580000 0.040000 0
0.600000 0.040000 0
0.620000 0.040000 0
0.640000 0.040000 0
0.660000 0.040000 0
0.680000 0.040000 0
0.700000 0.040000 0
0.720000 0.040000 0
0.740000 0.040000 0
0.760000 0.040000 0
0.780000 0.040000 0
0.800000 0.040000 0
0.820000 0.040000 0
0.840000 0.040000 0
0.860000 0.040000 0
0.880000 0.040000 0
0.900000 0.040000 0
0.920000 0.040000 0
0.940000 0.040000 0
0.960000 0.040000 0
0.980000 0.040000 0
1.000000 0.040000 0
1.020000 0.040000 0
1.040000 0.040000 0
1.060000 0.040000 0
1.080000 0.040000 0
1.100000 0.040000 0
1.120000 0.040000 0
1.140000 0.040000 0
1.160000 0.040000 0
1.180000 0.040000 0
1.200000 0.040000 0
1.220000 0.040000 0
1.240000 0.040000 0
1.260000 0.040000 0
1.280000 0.040000 0
1.300000 0.040000 0
1.320000 0.040000 0
1.340000 0.040000 0
1.360000 0.040000 0
1.380000 0.040000 0
1.400000 0.040000 0
1.420000 0.040000 0
1.440000 0.040000 0
1.460000 0.040000 0
1.480000 0.040000 0
1.500000 0.040000 0
1.520000 0.040000 0
1.540000 0.040000 0
1.560000 0.040000 0
1.580000 0.040000 0
1.600000 0.040000 0
1.620000 0.040000 0
1.640000 0.040000 0
1.660000 0.040000 0
1.680000 0.040000 0
1.700000 0.040000 0
1.720000 0.040000 0
1.740000 0.040000 0
1.760000 0.040000 0
1.780000 0.040000 0
1.800000 0.040000 0
1.820000 0.040000 0
1.840000 0.040000 0
1.860000 0.040000 0
1.880000 0.040000 0
1.900000 0.040000 0
1.920000 0.040000 0
1.940000 0.040000 0
1.960000 0.040000 0
0.000000 0.060000 0
0.020000 0.060000 0
0.040000 0.060000 0
0.060000 0.060000 0
0.080000 0.060000 0
0.100000 0.060000 0
0.120000 0.060000 0
0.140000 0.060000 0
0.160000 0.060000 0
0.180000 0.060000 0
0.200000 0.060000 0
0.220000 0.060000 0
0.240000 0.060000 0
0.260000 0.060000 0
0.280000 0.060000 0
0.300000 0.060000 0
0.320000 0.060000 0
0.340000 0.060000 0
0.360000 0.060000 0
0.380000 0.060000 0
0.400000 0.060000 0
0.420000 0.060000 0
0.440000 0.060000 0
0.460000 0.060000 0
0.480000 0.060000 0
0.500000 0.060000 0
0.520000 0.060000 0
0.540000 0.060000 0
0.560000 0.060000 0
0.580000 0.060000 0
0.600000 0.060000 0
0.620000 0.060000 0
0.640000 0.060000 0
0.660000 0.060000 0
0.680000 0.060000 0
0.700000 0.060000 0
0.720000 0.060000 0
0.740000 0.060000 0
0.760000 0.060000 0
0.780000 0.060000 0
0.800000 0.060000 0
0.820000 0.060000 0
0.840000 0.060000 0
0.860000 0.060000 0
0.880000 0.060000 0
0.900000 0.060000 0
0.920000 0.060000 0
0.940000 0.060000 0
0.960000 0.060000 0
0.980000 0.060000 0
1.000000 0.060000 0
1.020000 0.060000 0
1.040000 0.060000 0
1.060000 0.060000 0
1.080000 0.060000 0
1.100000 0.060000 0
1.120000 0.060000 0
1.140000 0.060000 0
1.160000 0.060000 0
1.180000 0.060000 0
1.200000 0.060000 0
1.220000 0.060000 0
1.240000 0.060000 0
1.260000 0.060000 0
1.280000 0.060000 0
1.300000 0.060000 0
1.320000 0.060000 0
1.340000 0.060000 0
1.360000 0.060000 0
1.380000 0.060000 0
1.400000 0.060000 0
1.420000 0.060000 0
1.440000 0.060000 0
1.460000 0.060000 0
1.480000 0.060000 0
1.500000 0.060000 0
1.520000 0.060000 0
1.540000 0.060000 0
1.560000 0.060000 0
1.580000 0.060000 0
1.600000 0.060000 0
1.620000 0.060000 0
1.640000 0.060000 0
1.660000 0.060000 0
1.680000 0.060000 0
1.700000 0.060000 0
1.720000 0.060000 0
1.740000 0.060000 0
1.760000 0.060000 0
1.780000 0.060000 0
1.800000 0.060000 0
1.820000 0.060000 0
1.840000 0.060000 0
1.860000 0.060000 0
1.880000 0.060000 0
1.900000 0.060000 0
1.920000 0.060000 0
1.940000 0.060000 0
1.960000 0.060000 0
0.000000 0.080000 0
0.020000 0.080000 0
0.040000 0.080000 0
0.060000 0.080000 0
0.080000 0.080000 0
0.100000 0.080000 0
0.120000 0.080000 0
0.140000 0.080000 0
0.160000 0.080000 0
0.180000 0.080000 0
0.200000 0.080000 0
0.220000 0.080000 0
0.240000 0.080000 0
0.260000 0.080000 0
0.280000 0.080000 0
0.300000 0.080000 0
0.320000 0.080000 0
0.340000 0.080000 0
0.360000 0.080000 0
0.380000 0.080000 0
0.400000 0.080000 0
0.420000 0.080000 0
0.440000 0.080000 0
0.460000 0.080000 0
0.480000 0.080000 0
0.500000 0.080000 0
0.520000 0.080000 0
0.540000 0.080000 0
0.560000 0.080000 0
0.580000 0.080000 0
0.600000 0.080000 0
0.620000 0.080000 0
0.640000 0.080000 0
0.660000 0.080000 0
0.680000 0.080000 0
0.700000 0.080000 0
0.720000 0.080000 0
0.740000 0.080000 0
0.760000 0.080000 0
0.780000 0.080000 0
0.800000 0.080000 0
0.820000 0.080000 0
0.840000 0.080000 0
0.860000 0.080000 0
0.880000 0.080000 0
0.900000 0.080000 0
0.920000 0.080000 0
0.940000 0.080000 0
0.960000 0.080000 0
0.980000 0.080000 0
1.000000 0.080000 0
1.020000 0.080000 0
1.040000 0.080000 0
1.060000 0.080000 0
1.080000 0.080000 0
1.100000 0.080000 0
1.120000 0.080000 0
1.140000 0.080000 0
1.160000 0.080000 0
1.180000 0.080000 0
1.200000 0.080000 0
1.220000 0.080000 0
1.240000 0.080000 0
1.260000 0.080000 0
1.280000 0.080000 0
1.300000 0.080000 0
1.320000 0.080000 0
1.340000 0.080000 0
1.360000 0.080000 0
1.380000 0.080000 0
1.400000 0.080000 0
1.420000 0.080000 0
1.440000 0.080000 0
1.460000 0.080000 0
1.480000 0.080000 0
1.500000 0.080000 0
1.520000 0.080000 0
1.540000 0.080000 0
1.560000 0.080000 0
1.580000 0.080000 0
1.600000 0.080000 0
1.620000 0.080000 0
1.640000 0.080000 0
1.660000 0.080000 0
1.680000 0.080000 0
1.700000 0.080000 0
1.720000 0.080000 0
1.740000 0.080000 0
1.760000 0.080000 0
1.780000 0.080000 0
1.800000 0.080000 0
1.820000 0.080000 0
1.840000 0.080000 0
1.860000 0.080000 0
1.880000 0.080000 0
[...]
POINT_DATA 4851 

VECTORS velocity float
0.000000 0.000000 0
0.000394 0.000000 0
0.000923 0.000000 0
0.001331 0.000000 0
0.001563 0.000000 0
0.001647 0.000000 0
0.001627 0.000000 0
0.001529 0.000000 0
0.001369 0.000000 0
0.001165 0.000000 0
0.000945 0.000000 0
0.000742 0.000000 0
0.000575 0.000000 0
0.000448 0.000000 0
0.000357 0.000000 0
0.000290 0.000000 0
0.000242 0.000000 0
0.000205 0.000000 0
0.000176 0.000000 0
0.000153 0.000000 0
0.000133 0.000000 0
0.000117 0.000000 0
0.000102 0.000000 0
0.000089 0.000000 0
0.000078 0.000000 0
0.000067 0.000000 0
0.000058 0.000000 0
0.000049 0.000000 0
0.000040 0.000000 0
0.000033 0.000000 0
0.000025 0.000000 0
0.000018 0.000000 0
0.000012 0.000000 0
0.000007 0.000000 0
0.000002 0.000000 0
0.000000 0.000000 0
0.000000 0.000000 0
0.000000 0.000000 0
0.000000 0.000000 0
0.000000 0.000000 0
0.000000 0.000000 0
-0.000000 0.000000 0
-0.000000 0.000000 0
0.000000 0.000000 0
0.000000 0.000000 0
0.000000 0.000000 0
0.000000 0.000000 0
0.000000 0.000000 0
0.000000 0.000000 0
0.000001 0.000000 0
0.000001 0.000000 0
0.000001 0.000000 0
0.000001 0.000000 0
0.000002 0.000000 0
0.000002 0.000000 0
0.000003 0.000000 0
0.000004 0.000000 0
0.000005 0.000000 0
0.000006 0.000000 0
0.000007 0.000000 0
0.000009 0.000000 0
0.000011 0.000000 0
0.000013 0.000000 0
0.000015 0.000000 0
0.000018 0.000000 0
0.000021 0.000000 0
0.000024 0.000000 0
0.000027 0.000000 0
0.000031 0.000000 0
0.000035 0.000000 0
0.000039 0.000000 0
0.000044 0.000000 0
0.000049 0.000000 0
0.000054 0.000000 0
0.000059 0.000000 0
0.000065 0.000000 0
0.000071 0.000000 0
0.000078 0.000000 0
0.000085 0.000000 0
0.000092 0.000000 0
0.000100 0.000000 0
0.000109 0.000000 0
0.000119 0.000000 0
0.000129 0.000000 0
0.000141 0.000000 0
0.000154 0.000000 0
0.000169 0.000000 0
0.000187 0.000000 0
0.000207 0.000000 0
0.000231 0.000000 0
0.000260 0.000000 0
0.000295 0.000000 0
0.000338 0.000000 0
0.000394 0.000000 0
0.000465 0.000000 0
0.000547 0.000000 0
0.000593 0.000000 0
0.000455 0.000000 0
0.000000 0.000000 0
0.000000 -0.000395 0
0.000965 -0.000925 0
0.002332 -0.000939 0
0.003458 -0.000641 0
0.004167 -0.000317 0
0.004486 -0.000064 0
0.004504 0.000117 0
0.004298 0.000257 0
0.003920 0.000364 0
0.003417 0.000424 0
0.002858 0.000423 0
0.002318 0.000370 0
0.001851 0.000293 0
0.001479 0.000218 0
0.001197 0.000158 0
0.000986 0.000115 0
0.000826 0.000085 0
0.000703 0.000066 0
0.000606 0.000052 0
0.000526 0.000043 0
0.000460 0.000036 0
0.000403 0.000031 0
0.000353 0.000027 0
0.000309 0.000024 0
0.000269 0.000022 0
0.000233 0.000020 0
0.000200 0.000019 0
0.000169 0.000017 0
0.000141 0.000016 0
0.000114 0.000015 0
0.000089 0.000014 0
0.000065 0.000013 0
0.000044 0.000012 0
0.000026 0.000010 0
0.000011 0.000006 0
0.000002 0.000002 0
0.000000 0.000000 0
0.000000 0.000000 0
0.000000 0.000000 0
0.000000 0.000000 0
0.000000 0.000000 0
0.000000 0.000000 0
0.000000 0.000000 0
0.000000 -0.000000 0
0.000000 -0.000000 0
0.000001 -0.000000 0
0.000001 -0.000000 0
0.000001 -0.000000 0
0.000002 -0.000000 0
0.000003 -0.000000 0
0.000003 -0.000000 0
0.000004 -0.000001 0
0.000006 -0.000001 0
0.000007 -0.000001 0
0.000009 -0.000001 0
0.000011 -0.000001 0
0.000014 -0.000002 0
0.000018 -0.000002 0
0.000022 -0.000002 0
0.000027 -0.000003 0
0.000032 -0.000003 0
0.000039 -0.000004 0
0.000046 -0.000004 0
0.000054 -0.000005 0
0.000064 -0.000006 0
0.000074 -0.000006 0
0.000085 -0.000007 0
0.000097 -0.000007 0
0.000110 -0.000008 0
0.000124 -0.000008 0
0.000139 -0.000009 0
0.000154 -0.000009 0
0.000171 -0.000010 0
0.000189 -0.000011 0
0.000208 -0.000011 0
0.000229 -0.000012 0
0.000250 -0.000013 0
0.000273 -0.000014 0
0.000298 -0.000015 0
0.000325 -0.000016 0
0.000353 -0.000017 0
0.000384 -0.000018 0
0.000418 -0.000020 0
0.000456 -0.000022 0
0.000497 -0.000025 0
0.000544 -0.000029 0
0.000596 -0.000033 0
0.000656 -0.000038 0
0.000724 -0.000044 0
0.000803 -0.000053 0
0.000894 -0.000064 0
0.000998 -0.000079 0
0.001117 -0.000100 0
0.001248 -0.000127 0
0.001382 -0.000153 0
0.001476 -0.000129 0
0.001405 0.000092 0
0.000914 0.000593 0
0.000000 0.000455 0
0.000000 -0.000967 0
0.001102 -0.002335 0
0.002766 -0.002494 0
0.004230 -0.001836 0
0.005239 -0.001029 0
0.005772 -0.000337 0
0.005901 0.000187 0
0.005726 0.000583 0
0.005326 0.000880 0
0.004769 0.001061 0
0.004125 0.001099 0
0.003472 0.001007 0
0.002874 0.000838 0
0.002367 0.000654 0
0.001960 0.000494 0
0.001640 0.000371 0
0.001389 0.000282 0
0.001190 0.000220 0
0.001029 0.000177 0
0.000897 0.000146 0
0.000785 0.000124 0
0.000688 0.000107 0
0.000604 0.000094 0
0.000529 0.000084 0
0.000462 0.000075 0
0.000401 0.000069 0
0.000344 0.000064 0
0.000292 0.000059 0
0.000244 0.000055 0
0.000198 0.000052 0
0.000155 0.000049 0
0.000116 0.000045 0
0.000080 0.000040 0
0.000048 0.000033 0
0.000023 0.000023 0
0.000006 0.000011 0
0.000000 0.000002 0
0.000000 0.000000 0
0.000000 0.000000 0
0.000000 0.000000 0
0.000000 0.000000 0
0.000000 0.000000 0
0.000000 -0.000000 0
0.000000 -0.000000 0
0.000001 -0.000000 0
0.000001 -0.000001 0
0.000002 -0.000001 0
0.000003 -0.000001 0
0.000004 -0.000001 0
0.000005 -0.000001 0
0.000006 -0.000002 0
0.000008 -0.000002 0
0.000011 -0.000003 0
0.000013 -0.000003 0
0.000017 -0.000004 0
0.000021 -0.000005 0
0.000026 -0.000006 0
0.000032 -0.000008 0
0.000039 -0.000009 0
0.000048 -0.000010 0
0.000058 -0.000012 0
0.000069 -0.000014 0
0.000082 -0.000016 0
0.000096 -0.000017 0
0.000112 -0.000019 0
0.000130 -0.000021 0
0.000149 -0.000023 0
0.000170 -0.000025 0
0.000192 -0.000027 0
0.000217 -0.000029 0
0.000243 -0.000031 0
0.000270 -0.000033 0
0.000299 -0.000035 0
0.000331 -0.000037 0
0.000364 -0.000039 0
0.000399 -0.000042 0
0.000437 -0.000045 0
0.000477 -0.000048 0
0.000520 -0.000051 0
0.000567 -0.000055 0
0.000617 -0.000060 0
0.000671 -0.000065 0
0.000730 -0.000072 0
0.000795 -0.000079 0
0.000867 -0.000088 0
0.000947 -0.000099 0
0.001035 -0.000112 0
0.001135 -0.000128 0
0.001246 -0.000147 0
0.001370 -0.000169 0
0.001506 -0.000195 0
0.001652 -0.000223 0
0.001798 -0.000251 0
0.001926 -0.000266 0
0.001996 -0.000228 0
0.001926 -0.000023 0
0.001573 0.000562 0
0.000815 0.001404 0
0.000000 0.000913 0
0.000000 -0.001498 0
0.000967 -0.003692 0
0.002494 -0.004067 0
0.003889 -0.003115 0
0.004901 -0.001858 0
0.005486 -0.000726 0
0.005690 0.000163 0
0.005598 0.000832 0
0.005295 0.001321 0
0.004853 0.001624 0
0.004330 0.001719 0
0.003779 0.001621 0
0.003246 0.001398 0
0.002766 0.001132 0
0.002353 0.000885 0
0.002010 0.000686 0
0.001727 0.000535 0
0.001494 0.000425 0
0.001301 0.000346 0
0.001139 0.000288 0
0.001000 0.000244 0
0.000880 0.000212 0
0.000773 0.000186 0
0.000679 0.000166 0
0.000593 0.000150 0
0.000515 0.000138 0
0.000444 0.000127 0
0.000377 0.000118 0
0.000315 0.000111 0
0.000257 0.000104 0
0.000202 0.000097 0
0.000152 0.000089 0
0.000106 0.000079 0
0.000066 0.000066 0
0.000033 0.000048 0
0.000010 0.000026 0
0.000000 0.000007 0
0.000000 0.000000 0
0.000000 0.000000 0
0.000000 0.000000 0
0.000000 0.000000 0
0.000000 -0.000000 0
0.000000 -0.000000 0
0.000001 -0.000001 0
0.000001 -0.000001 0
0.000002 -0.000001 0
0.000003 -0.000002 0
0.000004 -0.000002 0
0.000005 -0.000002 0
0.000007 -0.000003 0
0.000009 -0.000004 0
0.000011 -0.000005 0
0.000014 -0.000006 0
0.000018 -0.000007 0
0.000022 -0.000009 0
0.000028 -0.000011 0
0.000034 -0.000013 0
0.000042 -0.000015 0
0.000052 -0.000018 0
0.000063 -0.000021 0
0.000075 -0.000025 0
0.000090 -0.000028 0
0.000107 -0.000032 0
0.000126 -0.000035 0
0.000146 -0.000039 0
0.000169 -0.000043 0
0.000195 -0.000047 0
0.000222 -0.000051 0
0.000251 -0.000054 0
0.000283 -0.000058 0
0.000316 -0.000062 0
0.000352 -0.000066 0
0.000391 -0.000071 0
0.000431 -0.000075 0
0.000474 -0.000080 0
0.000520 -0.000085 0
0.000569 -0.000091 0
0.000622 -0.000097 0
0.000678 -0.000104 0
0.000738 -0.000112 0
0.000803 -0.000121 0
0.000873 -0.000132 0
0.000949 -0.000144 0
0.001032 -0.000159 0
0.001123 -0.000177 0
0.001223 -0.000197 0
0.001333 -0.000221 0
0.001454 -0.000249 0
0.001586 -0.000280 0
0.001728 -0.000313 0
0.001875 -0.000345 0
0.002019 -0.000370 0
0.002142 -0.000374 0
0.002212 -0.000326 0
0.002175 -0.000153 0
0.001945 0.000295 0
0.001425 0.001202 0
0.000629 0.002166 0
0.000000 0.001270 0
0.000000 -0.001935 0
0.000777 -0.004829 0
0.002028 -0.005417 0
0.003189 -0.004244 0
0.004051 -0.002625 0
0.004578 -0.001127 0
0.004801 0.000075 0
0.004783 0.000978 0
0.004598 0.001625 0
0.004310 0.002026 0
0.003961 0.002173 0
0.003581 0.002091 0
0.003192 0.001851 0
0.002814 0.001547 0
0.002465 0.001250 0
0.002154 0.000997 0
0.001883 0.000797 0
0.001650 0.000646 0
0.001450 0.000533 0
0.001277 0.000448 0
0.001127 0.000383 0
0.000995 0.000333 0
0.000877 0.000295 0
0.000771 0.000264 0
0.000676 0.000239 0
0.000588 0.000219 0
0.000507 0.000202 0
0.000432 0.000188 0
0.000361 0.000176 0
0.000295 0.000165 0
0.000233 0.000154 0
0.000176 0.000141 0
0.000124 0.000126 0
0.000077 0.000106 0
0.000039 0.000079 0
0.000012 0.000044 0
0.000000 0.000012 0
0.000000 0.000000 0
0.000000 0.000000 0
0.000000 0.000000 0
0.000000 -0.000000 0
0.000000 -0.000000 0
0.000000 -0.000001 0
0.000001 -0.000001 0
0.000002 -0.000002 0
0.000002 -0.000002 0
0.000003 -0.000003 0
0.000005 -0.000003 0
0.000006 -0.000004 0
0.000008 -0.000005 0
0.000010 -0.000006 0
0.000013 -0.000008 0
0.000016 -0.000009 0
0.000020 -0.000012 0
0.000025 -0.000014 0
0.000031 -0.000017 0
0.000039 -0.000021 0
0.000048 -0.000025 0
0.000059 -0.000029 0
0.000071 -0.000034 0
0.000086 -0.000040 0
0.000103 -0.000045 0
0.000122 -0.000051 0
0.000144 -0.000057 0
0.000168 -0.000063 0
0.000195 -0.000069 0
0.000224 -0.000075 0
0.000256 -0.000082 0
0.000290 -0.000088 0
0.000327 -0.000094 0
0.000366 -0.000100 0
0.000407 -0.000107 0
0.000451 -0.000114 0
0.000498 -0.000121 0
0.000548 -0.000129 0
0.000601 -0.000137 0
0.000657 -0.000146 0
0.000717 -0.000156 0
0.000782 -0.000167 0
0.000851 -0.000180 0
0.000924 -0.000195 0
0.001004 -0.000211 0
0.001090 -0.000231 0
0.001183 -0.000253 0
0.001285 -0.000279 0
0.001395 -0.000309 0
0.001515 -0.000344 0
0.001643 -0.000382 0
0.001780 -0.000421 0
0.001921 -0.000459 0
0.002059 -0.000486 0
0.002181 -0.000490 0
0.002264 -0.000444 0
0.002270 -0.000299 0
0.002144 0.000039 0
0.001816 0.000727 0
0.001237 0.001877 0
0.000489 0.002830 0
0.000000 0.001543 0
0.000000 -0.002276 0
0.000599 -0.005721 0
0.001560 -0.006479 0
0.002448 -0.005138 0
0.003112 -0.003247 0
0.003531 -0.001476 0
0.003736 -0.000042 0
0.003771 0.001035 0
0.003692 0.001793 0
0.003546 0.002261 0
0.003361 0.002449 0
0.003146 0.002391 0
0.002906 0.002164 0
0.002649 0.001858 0
0.002388 0.001546 0
0.002136 0.001268 0
0.001902 0.001039 0
0.001691 0.000858 0
0.001501 0.000719 0
0.001333 0.000611 0
0.001183 0.000527 0
0.001049 0.000461 0
0.000928 0.000410 0
0.000819 0.000368 0
0.000719 0.000334 0
0.000627 0.000306 0
0.000542 0.000283 0
0.000462 0.000264 0
0.000387 0.000247 0
0.000317 0.000231 0
0.000251 0.000216 0
0.000190 0.000199 0
0.000134 0.000178 0
0.000084 0.000150 0
0.000043 0.000114 0
0.000013 0.000065 0
0.000000 0.000018 0
0.000000 0.000000 0
0.000000 0.000000 0
0.000000 0.000000 0
0.000000 -0.000000 0
0.000000 -0.000000 0
0.000000 -0.000001 0
0.000001 -0.000002 0
0.000002 -0.000002 0
0.000003 -0.000003 0
0.000004 -0.000004 0
0.000005 -0.000005 0
0.000006 -0.000006 0
0.000008 -0.000007 0
0.000010 -0.000009 0
0.000013 -0.000011 0
0.000017 -0.000013 0
0.000021 -0.000016 0
0.000026 -0.000020 0
0.000032 -0.000024 0
0.000040 -0.000029 0
0.000049 -0.000035 0
0.000061 -0.000041 0
0.000074 -0.000049 0
0.000090 -0.000056 0
0.000108 -0.000064 0
0.000129 -0.000073 0
0.000153 -0.000081 0
0.000180 -0.000090 0
0.000209 -0.000099 0
0.000241 -0.000108 0
0.000275 -0.000116 0
0.000313 -0.000125 0
0.000352 -0.000134 0
0.000395 -0.000143 0
0.000440 -0.000152 0
0.000488 -0.000162 0
0.000539 -0.000172 0
0.000593 -0.000183 0
0.000650 -0.000194 0
0.000711 -0.000207 0
0.000775 -0.000221 0
0.000844 -0.000237 0
0.000918 -0.000255 0
0.000996 -0.000275 0
0.001081 -0.000298 0
0.001171 -0.000324 0
0.001269 -0.000354 0
0.001374 -0.000388 0
0.001487 -0.000427 0
0.001607 -0.000469 0
0.001734 -0.000514 0
0.001865 -0.000558 0
0.001996 -0.000592 0
0.002116 -0.000606 0
0.002210 -0.000575 0
0.002253 -0.000463 0
0.002208 -0.000206 0
0.002025 0.000301 0
0.001652 0.001202 0
0.001071 0.002529 0
0.000394 0.003402 0
0.000000 0.001759 0
0.000000 -0.002534 0
0.000447 -0.006390 0
0.001153 -0.007267 0
0.001793 -0.005795 0
0.002267 -0.003708 0
0.002574 -0.001751 0
0.002744 -0.000164 0
0.002812 0.001022 0
0.002814 0.001850 0
0.002781 0.002357 0
0.002725 0.002573 0
0.002642 0.002545 0
0.002525 0.002348 0
0.002375 0.002065 0
0.002200 0.001763 0
0.002014 0.001483 0
0.001827 0.001243 0
0.001648 0.001047 0
0.001480 0.000890 0
0.001326 0.000766 0
0.001186 0.000667 0
0.001057 0.000588 0
0.000940 0.000525 0
0.000832 0.000473 0
0.000732 0.000431 0
0.000640 0.000396 0
0.000554 0.000367 0
0.000473 0.000342 0
0.000398 0.000321 0
0.000326 0.000301 0
0.000259 0.000281 0
0.000196 0.000259 0
0.000138 0.000232 0
0.000087 0.000197 0
0.000044 0.000150 0
0.000013 0.000087 0
0.000000 0.000025 0
0.000000 0.000000 0
0.000000 0.000000 0
0.000000 0.000000 0
0.000000 -0.000000 0
0.000000 -0.000001 0
0.000000 -0.000001 0
0.000001 -0.000002 0
0.000002 -0.000003 0
0.000002 -0.000004 0
0.000003 -0.000005 0
0.000005 -0.000006 0
0.000006 -0.000007 0
0.000008 -0.000009 0
0.000010 -0.000011 0
0.000012 -0.000014 0
0.000015 -0.000017 0
0.000019 -0.000021 0
0.000024 -0.000026 0
0.000030 -0.000031 0
0.000038 -0.000038 0
0.000047 -0.000045 0
0.000058 -0.000054 0
0.000072 -0.000063 0
0.000088 -0.000074 0
0.000107 -0.000085 0
0.000129 -0.000096 0
0.000154 -0.000107 0
0.000182 -0.000119 0
0.000213 -0.000131 0
0.000247 -0.000142 0
0.000283 -0.000153 0
0.000323 -0.000165 0
0.000364 -0.000176 0
0.000409 -0.000188 0
0.000456 -0.000200 0
0.000506 -0.000212 0
0.000559 -0.000226 0
0.000615 -0.000240 0
0.000675 -0.000255 0
0.000738 -0.000271 0
0.000804 -0.000290 0
0.000875 -0.000310 0
0.000951 -0.000332 0
0.001031 -0.000358 0
0.001117 -0.000386 0
0.001208 -0.000419 0
0.001305 -0.000456 0
0.001409 -0.000497 0
0.001520 -0.000543 0
0.001635 -0.000591 0
0.001755 -0.000640 0
0.001876 -0.000683 0
0.001991 -0.000709 0
0.002091 -0.000700 0
0.002158 -0.000627 0
0.002170 -0.000443 0
0.002090 -0.000072 0
0.001878 0.000595 0
0.001493 0.001681 0
0.000936 0.003136 0
0.000327 0.003901 0
0.000000 0.001936 0
0.000000 -0.002723 0
0.000324 -0.006874 0
0.000823 -0.007825 0
0.001263 -0.006252 0
0.001582 -0.004028 0
0.001793 -0.001953 0
0.001927 -0.000280 0
0.002012 0.000964 0
0.002070 0.001824 0
0.002115 0.002351 0
0.002147 0.002588 0
0.002157 0.002591 0
0.002130 0.002431 0
0.002062 0.002183 0
0.001960 0.001907 0
0.001833 0.001641 0
0.001693 0.001405 0
0.001550 0.001205 0
0.001409 0.001040 0
0.001275 0.000906 0
0.001148 0.000796 0
0.001030 0.000707 0
0.000920 0.000635 0
0.000818 0.000575 0
0.000723 0.000526 0
0.000633 0.000484 0
0.000549 0.000450 0
0.000470 0.000420 0
0.000396 0.000394 0
0.000325 0.000370 0
0.000258 0.000346 0
0.000196 0.000319 0
0.000138 0.000287 0
0.000087 0.000245 0
0.000044 0.000188 0
0.000013 0.000109 0
0.000000 0.000031 0
0.000000 0.000000 0
0.000000 0.000000 0
0.000000 0.000000 0
0.000000 -0.000000 0
0.000000 -0.000001 0
0.000000 -0.000002 0
0.000001 -0.000003 0
0.000001 -0.000004 0
0.000002 -0.000005 0
0.000003 -0.000006 0
0.000004 -0.000007 0
0.000005 -0.000009 0
0.000007 -0.000011 0
0.000008 -0.000013 0
0.000010 -0.000016 0
0.000013 -0.000020 0
0.000016 -0.000025 0
0.000021 -0.000031 0
0.000026 -0.000038 0
0.000033 -0.000046 0
0.000041 -0.000055 0
0.000052 -0.000066 0
0.000065 -0.000078 0
0.000081 -0.000092 0
0.000100 -0.000105 0
0.000123 -0.000120 0
0.000149 -0.000134 0
0.000177 -0.000149 0
0.000209 -0.000164 0
0.000244 -0.000178 0
0.000282 -0.000192 0
0.000323 -0.000206 0
0.000366 -0.000220 0
0.000412 -0.000235 0
0.000460 -0.000249 0
0.000511 -0.000265 0
0.000565 -0.000281 0
0.000622 -0.000298 0
0.000682 -0.000317 0
0.000745 -0.000337 0
0.000812 -0.000359 0
0.000883 -0.000383 0
0.000959 -0.000410 0
0.001038 -0.000441 0
0.001123 -0.000475 0
0.001212 -0.000513 0
0.001307 -0.000555 0
0.001407 -0.000602 0
0.001511 -0.000653 0
0.001620 -0.000705 0
0.001730 -0.000755 0
0.001838 -0.000794 0
0.001937 -0.000807 0
0.002018 -0.000773 0
0.002064 -0.000654 0
0.002052 -0.000395 0
0.001952 0.000086 0
0.001728 0.000898 0
0.001350 0.002143 0
0.000827 0.003695 0
0.000278 0.004339 0
0.000000 0.002086 0
0.000000 -0.002858 0
0.000228 -0.007213 0
0.000569 -0.008206 0
0.000859 -0.006554 0
0.001063 -0.004238 0
0.001202 -0.002096 0
0.001306 -0.000384 0
0.001396 0.000880 0
0.001485 0.001748 0
0.001576 0.002279 0
0.001663 0.002531 0
0.001729 0.002563 0
0.001760 0.002443 0
0.001750 0.002235 0
0.001703 0.001992 0
0.001625 0.001749 0
0.001527 0.001526 0
0.001418 0.001331 0
0.001305 0.001165 0
0.001193 0.001027 0
0.001083 0.000912 0
0.000978 0.000816 0
0.000879 0.000737 0
0.000785 0.000671 0
0.000696 0.000616 0
0.000612 0.000569 0
0.000532 0.000530 0
0.000457 0.000496 0
0.000385 0.000466 0
0.000317 0.000438 0
0.000252 0.000410 0
0.000191 0.000379 0
0.000135 0.000341 0
0.000085 0.000292 0
0.000043 0.000224 0
0.000013 0.000130 0
0.000000 0.000038 0
0.000000 0.000000 0
0.000000 0.000000 0
0.000000 0.000000 0
0.000000 -0.000000 0
0.000000 -0.000001 0
0.000000 -0.000002 0
0.000001 -0.000003 0
0.000001 -0.000004 0
0.000002 -0.000006 0
0.000002 -0.000007 0
0.000003 -0.000008 0
0.000004 -0.000010 0
0.000005 -0.000012 0
0.000006 -0.000015 0
0.000008 -0.000018 0
0.000010 -0.000023 0
0.000012 -0.000028 0
0.000015 -0.000035 0
0.000019 -0.000043 0
0.000025 -0.000053 0
0.000032 -0.000065 0
0.000042 -0.000078 0
0.000054 -0.000093 0
0.000070 -0.000109 0
0.000089 -0.000126 0
0.000111 -0.000144 0
0.000137 -0.000162 0
0.000167 -0.000180 0
0.000200 -0.000198 0
0.000236 -0.000215 0
0.000274 -0.000232 0
0.000316 -0.000248 0
0.000359 -0.000265 0
0.000406 -0.000282 0
0.000455 -0.000299 0
0.000506 -0.000317 0
0.000560 -0.000336 0
0.000617 -0.000357 0
0.000676 -0.000378 0
0.000739 -0.000402 0
0.000805 -0.000428 0
0.000875 -0.000456 0
0.000949 -0.000487 0
0.001026 -0.000522 0
0.001108 -0.000560 0
0.001194 -0.000603 0
0.001284 -0.000650 0
0.001378 -0.000702 0
0.001476 -0.000756 0
0.001575 -0.000810 0
0.001675 -0.000858 0
0.001770 -0.000890 0
0.001855 -0.000889 0
0.001919 -0.000827 0
0.001948 -0.000662 0
0.001922 -0.000331 0
0.001811 0.000252 0
0.001587 0.001197 0
0.001224 0.002582 0
0.000737 0.004208 0
0.000241 0.004728 0
0.000000 0.002215 0
0.000000 -0.002951 0
0.000155 -0.007443 0
0.000381 -0.008456 0
0.000564 -0.006746 0
0.000689 -0.004370 0
0.000777 -0.002196 0
0.000857 -0.000474 0
0.000945 0.000785 0
0.001046 0.001645 0
0.001159 0.002173 0
0.001272 0.002435 0
0.001368 0.002493 0
0.001433 0.002409 0
0.001461 0.002241 0
0.001452 0.002033 0
0.001412 0.001817 0
0.001349 0.001612 0
0.001270 0.001427 0
0.001183 0.001266 0
0.001092 0.001128 0
0.001000 0.001011 0
0.000910 0.000912 0
0.000822 0.000828 0
0.000738 0.000758 0
0.000657 0.000699 0
0.000579 0.000648 0
0.000505 0.000605 0
0.000435 0.000568 0
0.000367 0.000534 0
0.000302 0.000503 0
0.000241 0.000471 0
0.000183 0.000436 0
0.000129 0.000393 0
0.000081 0.000337 0
0.000041 0.000260 0
0.000012 0.000151 0
0.000000 0.000044 0
0.000000 0.000000 0
0.000000 0.000000 0
0.000000 0.000000 0
0.000000 -0.000000 0
0.000000 -0.000001 0
0.000000 -0.000002 0
0.000000 -0.000004 0
0.000001 -0.000005 0
0.000001 -0.000006 0
0.000001 -0.000007 0
0.000002 -0.000009 0
0.000002 -0.000011 0
0.000003 -0.000013 0
0.000004 -0.000016 0
0.000004 -0.000020 0
0.000005 -0.000025 0
0.000007 -0.000031 0
0.000008 -0.000038 0
0.000011 -0.000047 0
0.000015 -0.000059 0
0.000021 -0.000072 0
0.000029 -0.000088 0
0.000040 -0.000106 0
0.000054 -0.000126 0
0.000073 -0.000147 0
0.000095 -0.000168 0
0.000121 -0.000190 0
0.000151 -0.000211 0
0.000185 -0.000232 0
0.000222 -0.000252 0
0.000261 -0.000272 0
0.000303 -0.000291 0
0.000347 -0.000310 0
0.000393 -0.000330 0
0.000442 -0.000349 0
0.000493 -0.000370 0
0.000547 -0.000392 0
0.000603 -0.000415 0
0.000661 -0.000439 0
0.000723 -0.000466 0
0.000787 -0.000495 0
0.000855 -0.000527 0
0.000926 -0.000561 0