# vtk DataFile Version 2.0
generated by CFD-lab course output (written by Tobias Neckel) 
ASCII

DATASET STRUCTURED_GRID
DIMENSIONS  99 49 1 
POINTS 4851 float

0.000000 0.000000 0
0.020000 0.000000 0
0.040000 0.000000 0
0.060000 0.000000 0
0.080000 0.000000 0
0.100000 0.000000 0
0.120000 0.000000 0
0.140000 0.000000 0
0.160000 0.000000 0
0.180000 0.000000 0
0.200000 0.000000 0
0.220000 0.000000 0
0.240000 0.000000 0
0.260000 0.000000 0
0.280000 0.000000 0
0.300000 0.000000 0
0.320000 0.000000 0
0.340000 0.000000 0
0.360000 0.000000 0
0.380000 0.000000 0
0.400000 0.000000 0
0.420000 0.000000 0
0.440000 0.000000 0
0.460000 0.000000 0
0.480000 0.000000 0
0.500000 0.000000 0
0.520000 0.000000 0
0.540000 0.000000 0
0.560000 0.000000 0
0.580000 0.000000 0
0.600000 0.000000 0
0.620000 0.000000 0
0.640000 0.000000 0
0.660000 0.000000 0
0.680000 0.000000 0
0.700000 0.000000 0
0.720000 0.000000 0
0.740000 0.000000 0
0.760000 0.000000 0
0.780000 0.000000 0
0.800000 0.000000 0
0.820000 0.000000 0
0.840000 0.000000 0
0.860000 0.000000 0
0.880000 0.000000 0
0.900000 0.000000 0
0.920000 0.000000 0
0.940000 0.000000 0
0.960000 0.000000 0
0.980000 0.000000 0
1.000000 0.000000 0
1.020000 0.000000 0
1.040000 0.000000 0
1.060000 0.000000 0
1.080000 0.000000 0
1.100000 0.000000 0
1.120000 0.000000 0
1.140000 0.000000 0
1.160000 0.000000 0
1.180000 0.000000 0
1.200000 0.000000 0
1.220000 0.000000 0
1.240000 0.000000 0
1.260000 0.000000 0
1.280000 0.000000 0
1.300000 0.000000 0
1.320000 0.000000 0
1.340000 0.000000 0
1.360000 0.000000 0
1.380000 0.000000 0
1.400000 0.000000 0
1.420000 0.000000 0
1.440000 0.000000 0
1.460000 0.000000 0
1.480000 0.000000 0
1.500000 0.000000 0
1.520000 0.000000 0
1.540000 0.000000 0
1.560000 0.000000 0
1.580000 0.000000 0
1.600000 0.000000 0
1.620000 0.000000 0
1.640000 0.000000 0
1.660000 0.000000 0
1.680000 0.000000 0
1.700000 0.000000 0
1.720000 0.000000 0
1.740000 0.000000 0
1.760000 0.000000 0
1.780000 0.000000 0
1.800000 0.000000 0
1.820000 0.000000 0
1.840000 0.000000 0
1.860000 0.000000 0
1.880000 0.000000 0
1.900000 0.000000 0
1.920000 0.000000 0
1.940000 0.000000 0
1.960000 0.000000 0
0.000000 0.020000 0
0.020000 0.020000 0
0.040000 0.020000 0
0.060000 0.020000 0
0.080000 0.020000 0
0.100000 0.020000 0
0.120000 0.020000 0
0.140000 0.020000 0
0.160000 0.020000 0
0.180000 0.020000 0
0.200000 0.020000 0
0.220000 0.020000 0
0.240000 0.020000 0
0.260000 0.020000 0
0.280000 0.020000 0
0.300000 0.020000 0
0.320000 0.020000 0
0.340000 0.020000 0
0.360000 0.020000 0
0.380000 0.020000 0
0.400000 0.020000 0
0.420000 0.020000 0
0.440000 0.020000 0
0.460000 0.020000 0
0.480000 0.020000 0
0.500000 0.020000 0
0.520000 0.020000 0
0.540000 0.020000 0
0.560000 0.020000 0
0.580000 0.020000 0
0.600000 0.020000 0
0.620000 0.020000 0
0.640000 0.020000 0
0.660000 0.020000 0
0.680000 0.020000 0
0.700000 0.020000 0
0.720000 0.020000 0
0.740000 0.020000 0
0.760000 0.020000 0
0.780000 0.020000 0
0.800000 0.020000 0
0.820000 0.020000 0
0.840000 0.020000 0
0.860000 0.020000 0
0.880000 0.020000 0
0.900000 0.020000 0
0.920000 0.020000 0
0.940000 0.020000 0
0.960000 0.020000 0
0.980000 0.020000 0
1.000000 0.020000 0
1.020000 0.020000 0
1.040000 0.020000 0
1.060000 0.020000 0
1.080000 0.020000 0
1.100000 0.020000 0
1.120000 0.020000 0
1.140000 0.020000 0
1.160000 0.020000 0
1.180000 0.020000 0
1.200000 0.020000 0
1.220000 0.020000 0
1.240000 0.020000 0
1.260000 0.020000 0
1.280000 0.020000 0
1.300000 0.020000 0
1.320000 0.020000 0
1.340000 0.020000 0
1.360000 0.020000 0
1.380000 0.020000 0
1.400000 0.020000 0
1.420000 0.020000 0
1.440000 0.020000 0
1.460000 0.020000 0
1.480000 0.020000 0
1.500000 0.020000 0
1.520000 0.020000 0
1.540000 0.020000 0
1.560000 0.020000 0
1.580000 0.020000 0
1.600000 0.020000 0
1.620000 0.020000 0
1.640000 0.020000 0
1.660000 0.020000 0
1.680000 0.020000 0
1.700000 0.020000 0
1.720000 0.020000 0
1.740000 0.020000 0
1.760000 0.020000 0
1.780000 0.020000 0
1.800000 0.020000 0
1.820000 0.020000 0
1.840000 0.020000 0
1.860000 0.020000 0
1.880000 0.020000 0
1.900000 0.020000 0
1.920000 0.020000 0
1.940000 0.020000 0
1.960000 0.020000 0
0.000000 0.040000 0
0.020000 0.040000 0
0.040000 0.040000 0
0.060000 0.040000 0
0.080000 0.040000 0
0.100000 0.040000 0
0.120000 0.040000 0
0.140000 0.040000 0
0.160000 0.040000 0
0.180000 0.040000 0
0.200000 0.040000 0
0.220000 0.040000 0
0.240000 0.040000 0
0.260000 0.040000 0
0.280000 0.040000 0
0.300000 0.040000 0
0.320000 0.040000 0
0.340000 0.040000 0
0.360000 0.040000 0
0.380000 0.040000 0
0.400000 0.040000 0
0.420000 0.040000 0
0.440000 0.040000 0
0.460000 0.040000 0
0.480000 0.040000 0
0.500000 0.040000 0
0.520000 0.040000 0
0.540000 0.040000 0
0.560000 0.040000 0
0.580000 0.040000 0
0.600000 0.040000 0
0.620000 0.040000 0
0.640000 0.040000 0
0.660000 0.040000 0
0.680000 0.040000 0
0.700000 0.040000 0
0.720000 0.040000 0
0.740000 0.040000 0
0.760000 0.040000 0
0.780000 0.040000 0
0.800000 0.040000 0
0.820000 0.040000 0
0.840000 0.040000 0
0.860000 0.040000 0
0.880000 0.040000 0
0.900000 0.040000 0
0.920000 0.040000 0
0.940000 0.040000 0
0.960000 0.040000 0
0.980000 0.040000 0
1.000000 0.040000 0
1.020000 0.040000 0
1.040000 0.040000 0
1.060000 0.040000 0
1.080000 0.040000 0
1.100000 0.040000 0
1.120000 0.040000 0
1.140000 0.040000 0
1.160000 0.040000 0
1.180000 0.040000 0
1.200000 0.040000 0
1.220000 0.040000 0
1.240000 0.040000 0
1.260000 0.040000 0
1.280000 0.040000 0
1.300000 0.040000 0
1.320000 0.040000 0
1.340000 0.040000 0
1.360000 0.040000 0
1.380000 0.040000 0
1.400000 0.040000 0
1.420000 0.040000 0
1.440000 0.040000 0
1.460000 0.040000 0
1.480000 0.040000 0
1.500000 0.040000 0
1.520000 0.040000 0
1.540000 0.040000 0
1.560000 0.040000 0
1.580000 0.040000 0
1.600000 0.040000 0
1.620000 0.040000 0
1.640000 0.040000 0
1.660000 0.040000 0
1.680000 0.040000 0
1.700000 0.040000 0
1.720000 0.040000 0
1.740000 0.040000 0
1.760000 0.040000 0
1.780000 0.040000 0
1.800000 0.040000 0
1.820000 0.040000 0
1.840000 0.040000 0
1.860000 0.040000 0
1.880000 0.040000 0
1.900000 0.040000 0
1.920000 0.040000 0
1.940000 0.040000 0
1.960000 0.040000 0
0.000000 0.060000 0
0.020000 0.060000 0
0.040000 0.060000 0
0.060000 0.060000 0
0.080000 0.060000 0
0.100000 0.060000 0
0.120000 0.060000 0
0.140000 0.060000 0
0.160000 0.060000 0
0.180000 0.060000 0
0.200000 0.060000 0
0.220000 0.060000 0
0.240000 0.060000 0
0.260000 0.060000 0
0.280000 0.060000 0
0.300000 0.060000 0
0.320000 0.060000 0
0.340000 0.060000 0
0.360000 0.060000 0
0.380000 0.060000 0
0.400000 0.060000 0
0.420000 0.060000 0
0.440000 0.060000 0
0.460000 0.060000 0
0.480000 0.060000 0
0.500000 0.060000 0
0.520000 0.060000 0
0.540000 0.060000 0
0.560000 0.060000 0
0.580000 0.060000 0
0.600000 0.060000 0
0.620000 0.060000 0
0.640000 0.060000 0
0.660000 0.060000 0
0.680000 0.060000 0
0.700000 0.060000 0
0.720000 0.060000 0
0.740000 0.060000 0
0.760000 0.060000 0
0.780000 0.060000 0
0.800000 0.060000 0
0.820000 0.060000 0
0.840000 0.060000 0
0.860000 0.060000 0
0.880000 0.060000 0
0.900000 0.060000 0
0.920000 0.060000 0
0.940000 0.060000 0
0.960000 0.060000 0
0.980000 0.060000 0
1.000000 0.060000 0
1.020000 0.060000 0
1.040000 0.060000 0
1.060000 0.060000 0
1.080000 0.060000 0
1.100000 0.060000 0
1.120000 0.060000 0
1.140000 0.060000 0
1.160000 0.060000 0
1.180000 0.060000 0
1.200000 0.060000 0
1.220000 0.060000 0
1.240000 0.060000 0
1.260000 0.060000 0
1.280000 0.060000 0
1.300000 0.060000 0
1.320000 0.060000 0
1.340000 0.060000 0
1.360000 0.060000 0
1.380000 0.060000 0
1.400000 0.060000 0
1.420000 0.060000 0
1.440000 0.060000 0
1.460000 0.060000 0
1.480000 0.060000 0
1.500000 0.060000 0
1.520000 0.060000 0
1.540000 0.060000 0
1.560000 0.060000 0
1.580000 0.060000 0
1.600000 0.060000 0
1.620000 0.060000 0
1.640000 0.060000 0
1.660000 0.060000 0
1.680000 0.060000 0
1.700000 0.060000 0
1.720000 0.060000 0
1.740000 0.060000 0
1.760000 0.060000 0
1.780000 0.060000 0
1.800000 0.060000 0
1.820000 0.060000 0
1.840000 0.060000 0
1.860000 0.060000 0
1.880000 0.060000 0
1.900000 0.060000 0
1.920000 0.060000 0
1.940000 0.060000 0
1.960000 0.060000 0
0.000000 0.080000 0
0.020000 0.080000 0
0.040000 0.080000 0
0.060000 0.080000 0
0.080000 0.080000 0
0.100000 0.080000 0
0.120000 0.080000 0
0.140000 0.080000 0
0.160000 0.080000 0
0.180000 0.080000 0
0.200000 0.080000 0
0.220000 0.080000 0
0.240000 0.080000 0
0.260000 0.080000 0
0.280000 0.080000 0
0.300000 0.080000 0
0.320000 0.080000 0
0.340000 0.080000 0
0.360000 0.080000 0
0.380000 0.080000 0
0.400000 0.080000 0
0.420000 0.080000 0
0.440000 0.080000 0
0.460000 0.080000 0
0.480000 0.080000 0
0.500000 0.080000 0
0.520000 0.080000 0
0.540000 0.080000 0
0.560000 0.080000 0
0.580000 0.080000 0
0.600000 0.080000 0
0.620000 0.080000 0
0.640000 0.080000 0
0.660000 0.080000 0
0.680000 0.080000 0
0.700000 0.080000 0
0.720000 0.080000 0
0.740000 0.080000 0
0.760000 0.080000 0
0.780000 0.080000 0
0.800000 0.080000 0
0.820000 0.080000 0
0.840000 0.080000 0
0.860000 0.080000 0
0.880000 0.080000 0
0.900000 0.080000 0
0.920000 0.080000 0
0.940000 0.080000 0
0.960000 0.080000 0
0.980000 0.080000 0
1.000000 0.080000 0
1.020000 0.080000 0
1.040000 0.080000 0
1.060000 0.080000 0
1.080000 0.080000 0
1.100000 0.080000 0
1.120000 0.080000 0
1.140000 0.080000 0
1.160000 0.080000 0
1.180000 0.080000 0
1.200000 0.080000 0
1.220000 0.080000 0
1.240000 0.080000 0
1.260000 0.080000 0
1.280000 0.080000 0
1.300000 0.080000 0
1.320000 0.080000 0
1.340000 0.080000 0
1.360000 0.080000 0
1.380000 0.080000 0
1.400000 0.080000 0
1.420000 0.080000 0
1.440000 0.080000 0
1.460000 0.080000 0
1.480000 0.080000 0
1.500000 0.080000 0
1.520000 0.080000 0
1.540000 0.080000 0
1.560000 0.080000 0
1.580000 0.080000 0
1.600000 0.080000 0
1.620000 0.080000 0
1.640000 0.080000 0
1.660000 0.080000 0
1.680000 0.080000 0
1.700000 0.080000 0
1.720000 0.080000 0
1.740000 0.080000 0
1.760000 0.080000 0
1.780000 0.080000 0
1.800000 0.080000 0
1.820000 0.080000 0
1.840000 0.080000 0
1.860000 0.080000 0
1.880000 0.080000 0
[...]
POINT_DATA 4851 

VECTORS velocity float
0.000000 0.000000 0
0.000041 0.000000 0
0.000106 0.000000 0
0.000161 0.000000 0
0.000194 0.000000 0
0.000208 0.000000 0
0.000208 0.000000 0
0.000200 0.000000 0
0.000189 0.000000 0
0.000179 0.000000 0
0.000171 0.000000 0
0.000165 0.000000 0
0.000161 0.000000 0
0.000159 0.000000 0
0.000158 0.000000 0
0.000157 0.000000 0
0.000157 0.000000 0
0.000156 0.000000 0
0.000156 0.000000 0
0.000155 0.000000 0
0.000154 0.000000 0
0.000153 0.000000 0
0.000152 0.000000 0
0.000150 0.000000 0
0.000149 0.000000 0
0.000147 0.000000 0
0.000145 0.000000 0
0.000142 0.000000 0
0.000139 0.000000 0
0.000134 0.000000 0
0.000126 0.000000 0
0.000113 0.000000 0
0.000095 0.000000 0
0.000070 0.000000 0
0.000040 0.000000 0
0.000013 0.000000 0
0.000000 0.000000 0
0.000000 0.000000 0
0.000000 0.000000 0
0.000000 0.000000 0
0.000000 0.000000 0
0.000004 0.000000 0
0.000043 0.000000 0
0.000110 0.000000 0
0.000190 0.000000 0
0.000267 0.000000 0
0.000331 0.000000 0
0.000375 0.000000 0
0.000398 0.000000 0
0.000403 0.000000 0
0.000395 0.000000 0
0.000376 0.000000 0
0.000352 0.000000 0
0.000326 0.000000 0
0.000301 0.000000 0
0.000278 0.000000 0
0.000258 0.000000 0
0.000243 0.000000 0
0.000232 0.000000 0
0.000225 0.000000 0
0.000221 0.000000 0
0.000220 0.000000 0
0.000221 0.000000 0
0.000223 0.000000 0
0.000225 0.000000 0
0.000229 0.000000 0
0.000232 0.000000 0
0.000234 0.000000 0
0.000237 0.000000 0
0.000239 0.000000 0
0.000240 0.000000 0
0.000241 0.000000 0
0.000242 0.000000 0
0.000242 0.000000 0
0.000243 0.000000 0
0.000243 0.000000 0
0.000244 0.000000 0
0.000244 0.000000 0
0.000245 0.000000 0
0.000246 0.000000 0
0.000248 0.000000 0
0.000250 0.000000 0
0.000252 0.000000 0
0.000255 0.000000 0
0.000258 0.000000 0
0.000262 0.000000 0
0.000268 0.000000 0
0.000275 0.000000 0
0.000284 0.000000 0
0.000296 0.000000 0
0.000312 0.000000 0
0.000336 0.000000 0
0.000370 0.000000 0
0.000420 0.000000 0
0.000491 0.000000 0
0.000579 0.000000 0
0.000637 0.000000 0
0.000498 0.000000 0
0.000000 0.000000 0
0.000000 -0.000041 0
0.000117 -0.000107 0
0.000304 -0.000121 0
0.000470 -0.000089 0
0.000579 -0.000048 0
0.000633 -0.000014 0
0.000644 0.000007 0
0.000630 0.000017 0
0.000605 0.000020 0
0.000578 0.000018 0
0.000555 0.000014 0
0.000537 0.000009 0
0.000525 0.000005 0
0.000518 0.000003 0
0.000513 0.000001 0
0.000511 0.000000 0
0.000509 0.000000 0
0.000507 0.000000 0
0.000504 0.000001 0
0.000501 0.000001 0
0.000497 0.000001 0
0.000493 0.000002 0
0.000487 0.000002 0
0.000482 0.000002 0
0.000475 0.000003 0
0.000467 0.000003 0
0.000458 0.000004 0
0.000447 0.000005 0
0.000432 0.000008 0
0.000411 0.000012 0
0.000380 0.000020 0
0.000337 0.000030 0
0.000277 0.000043 0
0.000201 0.000054 0
0.000116 0.000056 0
0.000039 0.000039 0
0.000000 0.000012 0
0.000000 0.000000 0
0.000000 0.000000 0
0.000000 0.000000 0
0.000000 -0.000004 0
0.000039 -0.000042 0
0.000181 -0.000106 0
0.000401 -0.000147 0
0.000655 -0.000157 0
0.000902 -0.000140 0
0.001109 -0.000107 0
0.001259 -0.000067 0
0.001347 -0.000028 0
0.001378 0.000004 0
0.001363 0.000028 0
0.001315 0.000043 0
0.001246 0.000050 0
0.001166 0.000052 0
0.001086 0.000049 0
0.001011 0.000043 0
0.000947 0.000035 0
0.000894 0.000027 0
0.000855 0.000019 0
0.000828 0.000011 0
0.000812 0.000005 0
0.000805 0.000001 0
0.000805 -0.000003 0
0.000809 -0.000005 0
0.000817 -0.000006 0
0.000825 -0.000006 0
0.000834 -0.000006 0
0.000842 -0.000005 0
0.000849 -0.000004 0
0.000854 -0.000003 0
0.000859 -0.000002 0
0.000861 -0.000001 0
0.000863 -0.000001 0
0.000865 -0.000001 0
0.000866 -0.000001 0
0.000867 -0.000001 0
0.000868 -0.000001 0
0.000870 -0.000001 0
0.000872 -0.000002 0
0.000876 -0.000002 0
0.000880 -0.000003 0
0.000885 -0.000004 0
0.000892 -0.000005 0
0.000900 -0.000006 0
0.000911 -0.000007 0
0.000924 -0.000009 0
0.000941 -0.000012 0
0.000962 -0.000016 0
0.000990 -0.000021 0
0.001026 -0.000028 0
0.001073 -0.000040 0
0.001137 -0.000057 0
0.001221 -0.000084 0
0.001329 -0.000121 0
0.001454 -0.000159 0
0.001556 -0.000146 0
0.001499 0.000082 0
0.000993 0.000638 0
0.000000 0.000498 0
0.000000 -0.000118 0
0.000164 -0.000306 0
0.000429 -0.000353 0
0.000674 -0.000276 0
0.000846 -0.000164 0
0.000941 -0.000066 0
0.000974 0.000002 0
0.000967 0.000038 0
0.000940 0.000051 0
0.000906 0.000049 0
0.000875 0.000040 0
0.000850 0.000029 0
0.000832 0.000018 0
0.000821 0.000011 0
0.000813 0.000006 0
0.000809 0.000004 0
0.000804 0.000003 0
0.000800 0.000004 0
0.000795 0.000005 0
0.000788 0.000006 0
0.000781 0.000008 0
0.000772 0.000009 0
0.000761 0.000010 0
0.000749 0.000012 0
0.000735 0.000013 0
0.000720 0.000016 0
0.000701 0.000020 0
0.000677 0.000026 0
0.000647 0.000035 0
0.000606 0.000051 0
0.000552 0.000073 0
0.000480 0.000102 0
0.000387 0.000135 0
0.000277 0.000160 0
0.000158 0.000162 0
0.000054 0.000115 0
0.000000 0.000038 0
0.000000 0.000000 0
0.000000 0.000000 0
0.000000 0.000000 0
0.000000 -0.000039 0
0.000096 -0.000181 0
0.000350 -0.000361 0
0.000712 -0.000474 0
0.001120 -0.000501 0
0.001514 -0.000453 0
0.001850 -0.000356 0
0.002102 -0.000237 0
0.002262 -0.000119 0
0.002333 -0.000016 0
0.002331 0.000063 0
0.002272 0.000118 0
0.002176 0.000149 0
0.002059 0.000160 0
0.001935 0.000155 0
0.001817 0.000140 0
0.001712 0.000117 0
0.001624 0.000092 0
0.001556 0.000067 0
0.001508 0.000044 0
0.001477 0.000023 0
0.001460 0.000008 0
0.001455 -0.000004 0
0.001458 -0.000012 0
0.001467 -0.000016 0
0.001478 -0.000017 0
0.001489 -0.000016 0
0.001500 -0.000014 0
0.001509 -0.000012 0
0.001516 -0.000009 0
0.001521 -0.000007 0
0.001524 -0.000005 0
0.001526 -0.000003 0
0.001527 -0.000002 0
0.001528 -0.000002 0
0.001528 -0.000002 0
0.001529 -0.000003 0
0.001530 -0.000004 0
0.001533 -0.000005 0
0.001536 -0.000007 0
0.001541 -0.000009 0
0.001548 -0.000012 0
0.001557 -0.000015 0
0.001569 -0.000019 0
0.001584 -0.000024 0
0.001603 -0.000030 0
0.001627 -0.000038 0
0.001657 -0.000049 0
0.001695 -0.000063 0
0.001743 -0.000083 0
0.001803 -0.000110 0
0.001876 -0.000147 0
0.001959 -0.000192 0
0.002041 -0.000234 0
0.002087 -0.000227 0
0.002012 -0.000045 0
0.001658 0.000564 0
0.000872 0.001500 0
0.000000 0.000993 0
0.000000 -0.000206 0
0.000176 -0.000537 0
0.000466 -0.000631 0
0.000737 -0.000506 0
0.000935 -0.000316 0
0.001050 -0.000143 0
0.001098 -0.000019 0
0.001100 0.000052 0
0.001077 0.000081 0
0.001045 0.000082 0
0.001014 0.000069 0
0.000989 0.000051 0
0.000970 0.000034 0
0.000956 0.000021 0
0.000947 0.000013 0
0.000940 0.000009 0
0.000933 0.000008 0
0.000926 0.000010 0
0.000918 0.000012 0
0.000908 0.000015 0
0.000896 0.000018 0
0.000883 0.000021 0
0.000867 0.000024 0
0.000850 0.000028 0
0.000830 0.000032 0
0.000806 0.000038 0
0.000779 0.000046 0
0.000745 0.000059 0
0.000703 0.000078 0
0.000650 0.000107 0
0.000582 0.000146 0
0.000497 0.000195 0
0.000394 0.000246 0
0.000276 0.000283 0
0.000155 0.000279 0
0.000052 0.000197 0
0.000000 0.000066 0
0.000000 0.000000 0
0.000000 0.000000 0
0.000000 0.000000 0
0.000000 -0.000099 0
0.000138 -0.000392 0
0.000473 -0.000722 0
0.000931 -0.000917 0
0.001435 -0.000959 0
0.001917 -0.000870 0
0.002329 -0.000695 0
0.002644 -0.000478 0
0.002851 -0.000259 0
0.002956 -0.000066 0
0.002972 0.000089 0
0.002920 0.000198 0
0.002819 0.000264 0
0.002689 0.000293 0
0.002548 0.000291 0
0.002410 0.000266 0
0.002285 0.000228 0
0.002179 0.000182 0
0.002094 0.000135 0
0.002032 0.000091 0
0.001991 0.000053 0
0.001966 0.000022 0
0.001955 -0.000001 0
0.001954 -0.000016 0
0.001959 -0.000025 0
0.001967 -0.000028 0
0.001976 -0.000027 0
0.001984 -0.000024 0
0.001991 -0.000020 0
0.001996 -0.000015 0
0.001998 -0.000010 0
0.001999 -0.000007 0
0.001999 -0.000004 0
0.001997 -0.000002 0
0.001995 -0.000002 0
0.001993 -0.000002 0
0.001992 -0.000003 0
0.001991 -0.000005 0
0.001991 -0.000007 0
0.001992 -0.000011 0
0.001995 -0.000015 0
0.002000 -0.000020 0
0.002008 -0.000025 0
0.002018 -0.000032 0
0.002031 -0.000041 0
0.002049 -0.000052 0
0.002071 -0.000066 0
0.002098 -0.000084 0
0.002132 -0.000107 0
0.002172 -0.000136 0
0.002218 -0.000172 0
0.002266 -0.000213 0
0.002306 -0.000249 0
0.002313 -0.000248 0
0.002239 -0.000129 0
0.001995 0.000282 0
0.001471 0.001221 0
0.000657 0.002296 0
0.000000 0.001370 0
0.000000 -0.000294 0
0.000172 -0.000772 0
0.000458 -0.000915 0
0.000727 -0.000745 0
0.000925 -0.000477 0
0.001042 -0.000229 0
0.001092 -0.000048 0
0.001099 0.000059 0
0.001080 0.000105 0
0.001053 0.000112 0
0.001025 0.000096 0
0.001002 0.000073 0
0.000983 0.000050 0
0.000970 0.000033 0
0.000959 0.000022 0
0.000949 0.000017 0
0.000940 0.000016 0
0.000929 0.000019 0
0.000918 0.000023 0
0.000904 0.000027 0
0.000888 0.000033 0
0.000870 0.000038 0
0.000850 0.000043 0
0.000828 0.000049 0
0.000802 0.000057 0
0.000773 0.000067 0
0.000739 0.000081 0
0.000700 0.000101 0
0.000652 0.000130 0
0.000593 0.000171 0
0.000522 0.000226 0
0.000437 0.000290 0
0.000339 0.000355 0
0.000232 0.000399 0
0.000127 0.000385 0
0.000041 0.000270 0
0.000000 0.000090 0
0.000000 0.000000 0
0.000000 0.000000 0
0.000000 0.000000 0
0.000000 -0.000176 0
0.000164 -0.000653 0
0.000555 -0.001155 0
0.001077 -0.001436 0
0.001639 -0.001486 0
0.002170 -0.001347 0
0.002620 -0.001083 0
0.002965 -0.000759 0
0.003195 -0.000431 0
0.003318 -0.000137 0
0.003348 0.000100 0
0.003304 0.000272 0
0.003208 0.000380 0
0.003080 0.000430 0
0.002939 0.000434 0
0.002798 0.000403 0
0.002668 0.000349 0
0.002557 0.000283 0
0.002468 0.000213 0
0.002401 0.000147 0
0.002354 0.000090 0
0.002324 0.000043 0
0.002308 0.000008 0
0.002301 -0.000015 0
0.002299 -0.000029 0
0.002301 -0.000034 0
0.002303 -0.000034 0
0.002305 -0.000029 0
0.002306 -0.000023 0
0.002304 -0.000016 0
0.002301 -0.000010 0
0.002297 -0.000005 0
0.002291 -0.000001 0
0.002285 0.000001 0
0.002278 0.000002 0
0.002272 0.000002 0
0.002266 0.000000 0
0.002261 -0.000003 0
0.002257 -0.000007 0
0.002254 -0.000011 0
0.002253 -0.000017 0
0.002253 -0.000024 0
0.002256 -0.000032 0
0.002261 -0.000042 0
0.002268 -0.000054 0
0.002278 -0.000069 0
0.002291 -0.000087 0
0.002307 -0.000109 0
0.002326 -0.000137 0
0.002348 -0.000169 0
0.002367 -0.000205 0
0.002379 -0.000235 0
0.002367 -0.000239 0
0.002303 -0.000166 0
0.002139 0.000091 0
0.001802 0.000723 0
0.001232 0.001901 0
0.000490 0.002971 0
0.000000 0.001651 0
0.000000 -0.000379 0
0.000162 -0.000996 0
0.000429 -0.001186 0
0.000679 -0.000973 0
0.000861 -0.000630 0
0.000967 -0.000311 0
0.001013 -0.000077 0
0.001018 0.000063 0
0.001002 0.000126 0
0.000977 0.000137 0
0.000953 0.000120 0
0.000931 0.000093 0
0.000914 0.000066 0
0.000900 0.000045 0
0.000887 0.000033 0
0.000875 0.000028 0
0.000862 0.000028 0
0.000848 0.000032 0
0.000832 0.000037 0
0.000814 0.000044 0
0.000795 0.000051 0
0.000773 0.000059 0
0.000749 0.000067 0
0.000723 0.000075 0
0.000694 0.000086 0
0.000661 0.000100 0
0.000625 0.000119 0
0.000583 0.000146 0
0.000534 0.000184 0
0.000478 0.000236 0
0.000412 0.000302 0
0.000337 0.000378 0
0.000254 0.000451 0
0.000169 0.000495 0
0.000089 0.000470 0
0.000027 0.000324 0
0.000000 0.000107 0
0.000000 0.000000 0
0.000000 0.000000 0
0.000000 0.000000 0
0.000000 -0.000263 0
0.000181 -0.000947 0
0.000609 -0.001635 0
0.001169 -0.002001 0
0.001762 -0.002051 0
0.002312 -0.001851 0
0.002772 -0.001489 0
0.003119 -0.001053 0
0.003351 -0.000613 0
0.003476 -0.000218 0
0.003510 0.000102 0
0.003472 0.000338 0
0.003382 0.000488 0
0.003262 0.000563 0
0.003129 0.000574 0
0.002996 0.000537 0
0.002873 0.000468 0
0.002768 0.000382 0
0.002683 0.000292 0
0.002618 0.000205 0
0.002570 0.000130 0
0.002538 0.000069 0
0.002516 0.000023 0
0.002502 -0.000007 0
0.002492 -0.000025 0
0.002484 -0.000032 0
0.002476 -0.000032 0
0.002468 -0.000026 0
0.002458 -0.000019 0
0.002448 -0.000010 0
0.002436 -0.000003 0
0.002423 0.000004 0
0.002411 0.000008 0
0.002398 0.000011 0
0.002385 0.000012 0
0.002373 0.000011 0
0.002362 0.000008 0
0.002351 0.000004 0
0.002342 -0.000001 0
0.002334 -0.000007 0
0.002327 -0.000014 0
0.002321 -0.000022 0
0.002316 -0.000032 0
0.002313 -0.000044 0
0.002311 -0.000058 0
0.002310 -0.000075 0
0.002310 -0.000095 0
0.002311 -0.000119 0
0.002311 -0.000147 0
0.002309 -0.000177 0
0.002301 -0.000203 0
0.002278 -0.000213 0
0.002227 -0.000174 0
0.002119 -0.000020 0
0.001912 0.000371 0
0.001553 0.001189 0
0.001008 0.002534 0
0.000367 0.003528 0
0.000000 0.001861 0
0.000000 -0.000457 0
0.000148 -0.001202 0
0.000389 -0.001433 0
0.000611 -0.001177 0
0.000768 -0.000765 0
0.000857 -0.000381 0
0.000892 -0.000099 0
0.000893 0.000069 0
0.000877 0.000146 0
0.000854 0.000160 0
0.000832 0.000142 0
0.000812 0.000111 0
0.000795 0.000082 0
0.000780 0.000060 0
0.000765 0.000047 0
0.000749 0.000042 0
0.000732 0.000043 0
0.000714 0.000049 0
0.000694 0.000056 0
0.000673 0.000064 0
0.000649 0.000073 0
0.000625 0.000083 0
0.000598 0.000093 0
0.000570 0.000104 0
0.000539 0.000118 0
0.000505 0.000135 0
0.000469 0.000159 0
0.000429 0.000191 0
0.000385 0.000235 0
0.000336 0.000293 0
0.000281 0.000366 0
0.000222 0.000448 0
0.000161 0.000523 0
0.000102 0.000564 0
0.000050 0.000527 0
0.000014 0.000358 0
0.000000 0.000117 0
0.000000 0.000000 0
0.000000 0.000000 0
0.000000 0.000000 0
0.000000 -0.000357 0
0.000193 -0.001262 0
0.000642 -0.002143 0
0.001223 -0.002589 0
0.001824 -0.002629 0
0.002369 -0.002356 0
0.002815 -0.001890 0
0.003145 -0.001339 0
0.003360 -0.000788 0
0.003473 -0.000296 0
0.003500 0.000105 0
0.003462 0.000399 0
0.003378 0.000589 0
0.003268 0.000684 0
0.003146 0.000701 0
0.003027 0.000659 0
0.002918 0.000577 0
0.002825 0.000473 0
0.002749 0.000364 0
0.002689 0.000260 0
0.002644 0.000170 0
0.002609 0.000098 0
0.002581 0.000044 0
0.002558 0.000009 0
0.002537 -0.000011 0
0.002516 -0.000018 0
0.002495 -0.000018 0
0.002474 -0.000012 0
0.002452 -0.000003 0
0.002429 0.000006 0
0.002407 0.000014 0
0.002385 0.000021 0
0.002364 0.000025 0
0.002344 0.000027 0
0.002325 0.000027 0
0.002307 0.000025 0
0.002290 0.000022 0
0.002274 0.000017 0
0.002258 0.000011 0
0.002244 0.000004 0
0.002231 -0.000004 0
0.002218 -0.000013 0
0.002206 -0.000024 0
0.002193 -0.000037 0
0.002181 -0.000051 0
0.002168 -0.000068 0
0.002155 -0.000088 0
0.002139 -0.000110 0
0.002121 -0.000135 0
0.002098 -0.000159 0
0.002067 -0.000174 0
0.002022 -0.000160 0
0.001951 -0.000079 0
0.001830 0.000149 0
0.001625 0.000657 0
0.001290 0.001627 0
0.000808 0.003087 0
0.000274 0.003979 0
0.000000 0.002018 0
0.000000 -0.000527 0
0.000132 -0.001386 0
0.000344 -0.001650 0
0.000534 -0.001352 0
0.000663 -0.000877 0
0.000731 -0.000435 0
0.000753 -0.000113 0
0.000748 0.000079 0
0.000731 0.000165 0
0.000709 0.000182 0
0.000689 0.000162 0
0.000670 0.000129 0
0.000652 0.000098 0
0.000634 0.000076 0
0.000616 0.000064 0
0.000597 0.000060 0
0.000576 0.000063 0
0.000554 0.000069 0
0.000530 0.000078 0
0.000506 0.000088 0
0.000480 0.000099 0
0.000453 0.000110 0
0.000425 0.000121 0
0.000396 0.000135 0
0.000365 0.000150 0
0.000333 0.000170 0
0.000300 0.000195 0
0.000265 0.000230 0
0.000228 0.000277 0
0.000190 0.000339 0
0.000150 0.000415 0
0.000110 0.000497 0
0.000073 0.000571 0
0.000040 0.000605 0
0.000016 0.000557 0
0.000003 0.000374 0
0.000000 0.000121 0
0.000000 0.000000 0
0.000000 0.000000 0
0.000000 0.000000 0
0.000000 -0.000455 0
0.000200 -0.001589 0
0.000661 -0.002665 0
0.001245 -0.003182 0
0.001835 -0.003198 0
0.002357 -0.002842 0
0.002771 -0.002265 0
0.003067 -0.001599 0
0.003253 -0.000941 0
0.003342 -0.000358 0
0.003355 0.000114 0
0.003311 0.000460 0
0.003230 0.000683 0
0.003129 0.000795 0
0.003020 0.000814 0
0.002916 0.000765 0
0.002823 0.000671 0
0.002743 0.000552 0
0.002677 0.000427 0
0.002623 0.000311 0
0.002578 0.000210 0
0.002539 0.000131 0
0.002502 0.000074 0
0.002467 0.000037 0
0.002431 0.000017 0
0.002395 0.000010 0
0.002358 0.000011 0
0.002321 0.000017 0
0.002286 0.000026 0
0.002251 0.000034 0
0.002219 0.000041 0
0.002188 0.000047 0
0.002159 0.000050 0
0.002133 0.000050 0
0.002108 0.000049 0
0.002085 0.000046 0
0.002063 0.000041 0
0.002042 0.000036 0
0.002022 0.000029 0
0.002003 0.000021 0
0.001984 0.000013 0
0.001965 0.000003 0
0.001946 -0.000008 0
0.001926 -0.000020 0
0.001905 -0.000033 0
0.001882 -0.000048 0
0.001855 -0.000066 0
0.001826 -0.000085 0
0.001792 -0.000105 0
0.001754 -0.000123 0
0.001711 -0.000128 0
0.001659 -0.000097 0
0.001591 0.000018 0
0.001487 0.000306 0
0.001315 0.000912 0
0.001033 0.002007 0
0.000629 0.003550 0
0.000198 0.004336 0
0.000000 0.002134 0
0.000000 -0.000590 0
0.000116 -0.001547 0
0.000298 -0.001834 0
0.000453 -0.001495 0
0.000553 -0.000963 0
0.000600 -0.000472 0
0.000610 -0.000117 0
0.000599 0.000092 0
0.000580 0.000185 0
0.000559 0.000202 0
0.000539 0.000181 0
0.000520 0.000148 0
0.000501 0.000117 0
0.000481 0.000095 0
0.000460 0.000084 0
0.000437 0.000082 0
0.000413 0.000086 0
0.000387 0.000094 0
0.000361 0.000104 0
0.000335 0.000114 0
0.000308 0.000126 0
0.000280 0.000138 0
0.000252 0.000150 0
0.000224 0.000164 0
0.000195 0.000180 0
0.000166 0.000200 0
0.000138 0.000227 0
0.000110 0.000262 0
0.000082 0.000310 0
0.000056 0.000371 0
0.000032 0.000445 0
0.000012 0.000525 0
-0.000003 0.000593 0
-0.000011 0.000620 0
-0.000011 0.000564 0
-0.000005 0.000374 0
0.000000 0.000120 0
0.000000 0.000000 0
0.000000 0.000000 0
0.000000 0.000000 0
0.000000 -0.000557 0
0.000205 -0.001923 0
0.000667 -0.003187 0
0.001240 -0.003763 0
0.001804 -0.003741 0
0.002286 -0.003292 0
0.002655 -0.002600 0
0.002906 -0.001820 0
0.003052 -0.001063 0
0.003112 -0.000398 0
0.003105 0.000136 0
0.003052 0.000525 0
0.002970 0.000772 0
0.002875 0.000894 0
0.002777 0.000913 0
0.002686 0.000856 0
0.002605 0.000750 0
0.002535 0.000619 0
0.002475 0.000484 0
0.002421 0.000359 0
0.002371 0.000254 0
0.002322 0.000173 0
0.002272 0.000116 0
0.002219 0.000081 0
0.002166 0.000062 0
0.002112 0.000055 0
0.002059 0.000056 0
0.002009 0.000061 0
0.001961 0.000067 0
0.001917 0.000073 0
0.001877 0.000078 0
0.001841 0.000080 0
0.001808 0.000080 0
0.001778 0.000079 0
0.001750 0.000075 0
0.001724 0.000071 0
0.001700 0.000065 0
0.001678 0.000058 0
0.001655 0.000051 0
0.001634 0.000042 0
0.001612 0.000034 0
0.001590 0.000025 0
0.001566 0.000015 0
0.001541 0.000005 0
0.001514 -0.000006 0
0.001483 -0.000018 0
0.001449 -0.000032 0
0.001410 -0.000047 0
0.001368 -0.000063 0
0.001324 -0.000077 0
0.001279 -0.000079 0
0.001236 -0.000040 0
0.001190 0.000094 0
0.001124 0.000426 0
0.001004 0.001111 0
0.000789 0.002313 0
0.000469 0.003922 0
0.000134 0.004608 0
0.000000 0.002216 0
0.000000 -0.000644 0
0.000101 -0.001685 0
0.000252 -0.001987 0
0.000375 -0.001608 0
0.000447 -0.001024 0
0.000474 -0.000492 0
0.000472 -0.000112 0
0.000456 0.000108 0
0.000436 0.000205 0
0.000415 0.000222 0
0.000396 0.000201 0
0.000376 0.000167 0
0.000355 0.000137 0
0.000333 0.000117 0
0.000309 0.000108 0
0.000284 0.000107 0
0.000257 0.000112 0
0.000230 0.000120 0
0.000202 0.000131 0
0.000175 0.000142 0
0.000148 0.000153 0
0.000121 0.000165 0
0.000094 0.000178 0
0.000068 0.000191 0
0.000043 0.000207 0
0.000019 0.000226 0
-0.000004 0.000252 0
-0.000024 0.000286 0
-0.000042 0.000331 0
-0.000055 0.000389 0
-0.000064 0.000459 0
-0.000067 0.000532 0
-0.000062 0.000593 0
-0.000049 0.000613 0
-0.000030 0.000552 0
-0.000011 0.000363 0
0.000000 0.000115 0
0.000000 0.000000 0
0.000000 0.000000 0
0.000000 0.000000 0
0.000000 -0.000660 0
0.000206 -0.002256 0
0.000661 -0.003699 0
0.001210 -0.004318 0
0.001735 -0.004244 0
0.002166 -0.003693 0
0.002480 -0.002885 0
0.002679 -0.001996 0
0.002781 -0.001147 0
0.002808 -0.000411 0
0.002778 0.000174 0
0.002713 0.000595 0
0.002627 0.000860 0
0.002533 0.000987 0
0.002440 0.001003 0
0.002354 0.000938 0
0.002276 0.000822 0
0.002206 0.000682 0
0.002141 0.000541 0
0.002078 0.000414 0
0.002014 0.000310 0
0.001946 0.000231 0
0.001876 0.000177 0
0.001804 0.000143 0
0.001733 0.000125 0
0.001663 0.000117 0
0.001599 0.000115 0
0.001539 0.000116 0
0.001486 0.000118 0
0.001439 0.000119 0
0.001397 0.000118 0
0.001361 0.000116 0
0.001329 0.000113 0
0.001301 0.000108 0
0.001275 0.000102 0
0.001252 0.000096 0
0.001230 0.000088 0
0.001208 0.000081 0
0.001188 0.000073 0
0.001167 0.000065 0
0.001146 0.000057 0
0.001124 0.000049 0
0.001101 0.000041 0
0.001075 0.000033 0
0.001047 0.000025 0
0.001014 0.000017 0
0.000977 0.000008 0
0.000936 -0.000004 0
0.000892 -0.000018 0