# vtk DataFile Version 2.0
generated by CFD-lab course output (written by Tobias Neckel) 
ASCII

DATASET STRUCTURED_GRID
DIMENSIONS  99 49 1 
POINTS 4851 float

0.000000 0.000000 0
0.020000 0.000000 0
0.040000 0.000000 0
0.060000 0.000000 0
0.080000 0.000000 0
0.100000 0.000000 0
0.120000 0.000000 0
0.140000 0.000000 0
0.160000 0.000000 0
0.180000 0.000000 0
0.200000 0.000000 0
0.220000 0.000000 0
0.240000 0.000000 0
0.260000 0.000000 0
0.280000 0.000000 0
0.300000 0.000000 0
0.320000 0.000000 0
0.340000 0.000000 0
0.360000 0.000000 0
0.380000 0.000000 0
0.400000 0.000000 0
0.420000 0.000000 0
0.440000 0.000000 0
0.460000 0.000000 0
0.480000 0.000000 0
0.500000 0.000000 0
0.520000 0.000000 0
0.540000 0.000000 0
0.560000 0.000000 0
0.580000 0.000000 0
0.600000 0.000000 0
0.620000 0.000000 0
0.640000 0.000000 0
0.660000 0.000000 0
0.680000 0.000000 0
0.700000 0.000000 0
0.720000 0.000000 0
0.740000 0.000000 0
0.760000 0.000000 0
0.780000 0.000000 0
0.800000 0.000000 0
0.820000 0.000000 0
0.840000 0.000000 0
0.860000 0.000000 0
0.880000 0.000000 0
0.900000 0.000000 0
0.920000 0.000000 0
0.940000 0.000000 0
0.960000 0.000000 0
0.980000 0.000000 0
1.000000 0.000000 0
1.020000 0.000000 0
1.040000 0.000000 0
1.060000 0.000000 0
1.080000 0.000000 0
1.100000 0.000000 0
1.120000 0.000000 0
1.140000 0.000000 0
1.160000 0.000000 0
1.180000 0.000000 0
1.200000 0.000000 0
1.220000 0.000000 0
1.240000 0.000000 0
1.260000 0.000000 0
1.280000 0.000000 0
1.300000 0.000000 0
1.320000 0.000000 0
1.340000 0.000000 0
1.360000 0.000000 0
1.380000 0.000000 0
1.400000 0.000000 0
1.420000 0.000000 0
1.440000 0.000000 0
1.460000 0.000000 0
1.480000 0.000000 0
1.500000 0.000000 0
1.520000 0.000000 0
1.540000 0.000000 0
1.560000 0.000000 0
1.580000 0.000000 0
1.600000 0.000000 0
1.620000 0.000000 0
1.640000 0.000000 0
1.660000 0.000000 0
1.680000 0.000000 0
1.700000 0.000000 0
1.720000 0.000000 0
1.740000 0.000000 0
1.760000 0.000000 0
1.780000 0.000000 0
1.800000 0.000000 0
1.820000 0.000000 0
1.840000 0.000000 0
1.860000 0.000000 0
1.880000 0.000000 0
1.900000 0.000000 0
1.920000 0.000000 0
1.940000 0.000000 0
1.960000 0.000000 0
0.000000 0.020000 0
0.020000 0.020000 0
0.040000 0.020000 0
0.060000 0.020000 0
0.080000 0.020000 0
0.100000 0.020000 0
0.120000 0.020000 0
0.140000 0.020000 0
0.160000 0.020000 0
0.180000 0.020000 0
0.200000 0.020000 0
0.220000 0.020000 0
0.240000 0.020000 0
0.260000 0.020000 0
0.280000 0.020000 0
0.300000 0.020000 0
0.320000 0.020000 0
0.340000 0.020000 0
0.360000 0.020000 0
0.380000 0.020000 0
0.400000 0.020000 0
0.420000 0.020000 0
0.440000 0.020000 0
0.460000 0.020000 0
0.480000 0.020000 0
0.500000 0.020000 0
0.520000 0.020000 0
0.540000 0.020000 0
0.560000 0.020000 0
0.580000 0.020000 0
0.600000 0.020000 0
0.620000 0.020000 0
0.640000 0.020000 0
0.660000 0.020000 0
0.680000 0.020000 0
0.700000 0.020000 0
0.720000 0.020000 0
0.740000 0.020000 0
0.760000 0.020000 0
0.780000 0.020000 0
0.800000 0.020000 0
0.820000 0.020000 0
0.840000 0.020000 0
0.860000 0.020000 0
0.880000 0.020000 0
0.900000 0.020000 0
0.920000 0.020000 0
0.940000 0.020000 0
0.960000 0.020000 0
0.980000 0.020000 0
1.000000 0.020000 0
1.020000 0.020000 0
1.040000 0.020000 0
1.060000 0.020000 0
1.080000 0.020000 0
1.100000 0.020000 0
1.120000 0.020000 0
1.140000 0.020000 0
1.160000 0.020000 0
1.180000 0.020000 0
1.200000 0.020000 0
1.220000 0.020000 0
1.240000 0.020000 0
1.260000 0.020000 0
1.280000 0.020000 0
1.300000 0.020000 0
1.320000 0.020000 0
1.340000 0.020000 0
1.360000 0.020000 0
1.380000 0.020000 0
1.400000 0.020000 0
1.420000 0.020000 0
1.440000 0.020000 0
1.460000 0.020000 0
1.480000 0.020000 0
1.500000 0.020000 0
1.520000 0.020000 0
1.540000 0.020000 0
1.560000 0.020000 0
1.580000 0.020000 0
1.600000 0.020000 0
1.620000 0.020000 0
1.640000 0.020000 0
1.660000 0.020000 0
1.680000 0.020000 0
1.700000 0.020000 0
1.720000 0.020000 0
1.740000 0.020000 0
1.760000 0.020000 0
1.780000 0.020000 0
1.800000 0.020000 0
1.820000 0.020000 0
1.840000 0.020000 0
1.860000 0.020000 0
1.880000 0.020000 0
1.900000 0.020000 0
1.920000 0.020000 0
1.940000 0.020000 0
1.960000 0.020000 0
0.000000 0.040000 0
0.020000 0.040000 0
0.040000 0.040000 0
0.060000 0.040000 0
0.080000 0.040000 0
0.100000 0.040000 0
0.120000 0.040000 0
0.140000 0.040000 0
0.160000 0.040000 0
0.180000 0.040000 0
0.200000 0.040000 0
0.220000 0.040000 0
0.240000 0.040000 0
0.260000 0.040000 0
0.280000 0.040000 0
0.300000 0.040000 0
0.320000 0.040000 0
0.340000 0.040000 0
0.360000 0.040000 0
0.380000 0.040000 0
0.400000 0.040000 0
0.420000 0.040000 0
0.440000 0.040000 0
0.460000 0.040000 0
0.480000 0.040000 0
0.500000 0.040000 0
0.520000 0.040000 0
0.540000 0.040000 0
0.560000 0.040000 0
0.580000 0.040000 0
0.600000 0.040000 0
0.620000 0.040000 0
0.640000 0.040000 0
0.660000 0.040000 0
0.680000 0.040000 0
0.700000 0.040000 0
0.720000 0.040000 0
0.740000 0.040000 0
0.760000 0.040000 0
0.780000 0.040000 0
0.800000 0.040000 0
0.820000 0.040000 0
0.840000 0.040000 0
0.860000 0.040000 0
0.880000 0.040000 0
0.900000 0.040000 0
0.920000 0.040000 0
0.940000 0.040000 0
0.960000 0.040000 0
0.980000 0.040000 0
1.000000 0.040000 0
1.020000 0.040000 0
1.040000 0.040000 0
1.060000 0.040000 0
1.080000 0.040000 0
1.100000 0.040000 0
1.120000 0.040000 0
1.140000 0.040000 0
1.160000 0.040000 0
1.180000 0.040000 0
1.200000 0.040000 0
1.220000 0.040000 0
1.240000 0.040000 0
1.260000 0.040000 0
1.280000 0.040000 0
1.300000 0.040000 0
1.320000 0.040000 0
1.340000 0.040000 0
1.360000 0.040000 0
1.380000 0.040000 0
1.400000 0.040000 0
1.420000 0.040000 0
1.440000 0.040000 0
1.460000 0.040000 0
1.480000 0.040000 0
1.500000 0.040000 0
1.520000 0.040000 0
1.540000 0.040000 0
1.560000 0.040000 0
1.580000 0.040000 0
1.600000 0.040000 0
1.620000 0.040000 0
1.640000 0.040000 0
1.660000 0.040000 0
1.680000 0.040000 0
1.700000 0.040000 0
1.720000 0.040000 0
1.740000 0.040000 0
1.760000 0.040000 0
1.780000 0.040000 0
1.800000 0.040000 0
1.820000 0.040000 0
1.840000 0.040000 0
1.860000 0.040000 0
1.880000 0.040000 0
1.900000 0.040000 0
1.920000 0.040000 0
1.940000 0.040000 0
1.960000 0.040000 0
0.000000 0.060000 0
0.020000 0.060000 0
0.040000 0.060000 0
0.060000 0.060000 0
0.080000 0.060000 0
0.100000 0.060000 0
0.120000 0.060000 0
0.140000 0.060000 0
0.160000 0.060000 0
0.180000 0.060000 0
0.200000 0.060000 0
0.220000 0.060000 0
0.240000 0.060000 0
0.260000 0.060000 0
0.280000 0.060000 0
0.300000 0.060000 0
0.320000 0.060000 0
0.340000 0.060000 0
0.360000 0.060000 0
0.380000 0.060000 0
0.400000 0.060000 0
0.420000 0.060000 0
0.440000 0.060000 0
0.460000 0.060000 0
0.480000 0.060000 0
0.500000 0.060000 0
0.520000 0.060000 0
0.540000 0.060000 0
0.560000 0.060000 0
0.580000 0.060000 0
0.600000 0.060000 0
0.620000 0.060000 0
0.640000 0.060000 0
0.660000 0.060000 0
0.680000 0.060000 0
0.700000 0.060000 0
0.720000 0.060000 0
0.740000 0.060000 0
0.760000 0.060000 0
0.780000 0.060000 0
0.800000 0.060000 0
0.820000 0.060000 0
0.840000 0.060000 0
0.860000 0.060000 0
0.880000 0.060000 0
0.900000 0.060000 0
0.920000 0.060000 0
0.940000 0.060000 0
0.960000 0.060000 0
0.980000 0.060000 0
1.000000 0.060000 0
1.020000 0.060000 0
1.040000 0.060000 0
1.060000 0.060000 0
1.080000 0.060000 0
1.100000 0.060000 0
1.120000 0.060000 0
1.140000 0.060000 0
1.160000 0.060000 0
1.180000 0.060000 0
1.200000 0.060000 0
1.220000 0.060000 0
1.240000 0.060000 0
1.260000 0.060000 0
1.280000 0.060000 0
1.300000 0.060000 0
1.320000 0.060000 0
1.340000 0.060000 0
1.360000 0.060000 0
1.380000 0.060000 0
1.400000 0.060000 0
1.420000 0.060000 0
1.440000 0.060000 0
1.460000 0.060000 0
1.480000 0.060000 0
1.500000 0.060000 0
1.520000 0.060000 0
1.540000 0.060000 0
1.560000 0.060000 0
1.580000 0.060000 0
1.600000 0.060000 0
1.620000 0.060000 0
1.640000 0.060000 0
1.660000 0.060000 0
1.680000 0.060000 0
1.700000 0.060000 0
1.720000 0.060000 0
1.740000 0.060000 0
1.760000 0.060000 0
1.780000 0.060000 0
1.800000 0.060000 0
1.820000 0.060000 0
1.840000 0.060000 0
1.860000 0.060000 0
1.880000 0.060000 0
1.900000 0.060000 0
1.920000 0.060000 0
1.940000 0.060000 0
1.960000 0.060000 0
0.000000 0.080000 0
0.020000 0.080000 0
0.040000 0.080000 0
0.060000 0.080000 0
0.080000 0.080000 0
0.100000 0.080000 0
0.120000 0.080000 0
0.140000 0.080000 0
0.160000 0.080000 0
0.180000 0.080000 0
0.200000 0.080000 0
0.220000 0.080000 0
0.240000 0.080000 0
0.260000 0.080000 0
0.280000 0.080000 0
0.300000 0.080000 0
0.320000 0.080000 0
0.340000 0.080000 0
0.360000 0.080000 0
0.380000 0.080000 0
0.400000 0.080000 0
0.420000 0.080000 0
0.440000 0.080000 0
0.460000 0.080000 0
0.480000 0.080000 0
0.500000 0.080000 0
0.520000 0.080000 0
0.540000 0.080000 0
0.560000 0.080000 0
0.580000 0.080000 0
0.600000 0.080000 0
0.620000 0.080000 0
0.640000 0.080000 0
0.660000 0.080000 0
0.680000 0.080000 0
0.700000 0.080000 0
0.720000 0.080000 0
0.740000 0.080000 0
0.760000 0.080000 0
0.780000 0.080000 0
0.800000 0.080000 0
0.820000 0.080000 0
0.840000 0.080000 0
0.860000 0.080000 0
0.880000 0.080000 0
0.900000 0.080000 0
0.920000 0.080000 0
0.940000 0.080000 0
0.960000 0.080000 0
0.980000 0.080000 0
1.000000 0.080000 0
1.020000 0.080000 0
1.040000 0.080000 0
1.060000 0.080000 0
1.080000 0.080000 0
1.100000 0.080000 0
1.120000 0.080000 0
1.140000 0.080000 0
1.160000 0.080000 0
1.180000 0.080000 0
1.200000 0.080000 0
1.220000 0.080000 0
1.240000 0.080000 0
1.260000 0.080000 0
1.280000 0.080000 0
1.300000 0.080000 0
1.320000 0.080000 0
1.340000 0.080000 0
1.360000 0.080000 0
1.380000 0.080000 0
1.400000 0.080000 0
1.420000 0.080000 0
1.440000 0.080000 0
1.460000 0.080000 0
1.480000 0.080000 0
1.500000 0.080000 0
1.520000 0.080000 0
1.540000 0.080000 0
1.560000 0.080000 0
1.580000 0.080000 0
1.600000 0.080000 0
1.620000 0.080000 0
1.640000 0.080000 0
1.660000 0.080000 0
1.680000 0.080000 0
1.700000 0.080000 0
1.720000 0.080000 0
1.740000 0.080000 0
1.760000 0.080000 0
1.780000 0.080000 0
1.800000 0.080000 0
1.820000 0.080000 0
1.840000 0.080000 0
1.860000 0.080000 0
1.880000 0.080000 0
[...]
POINT_DATA 4851 

VECTORS velocity float
0.000000 0.000000 0
0.000149 0.000000 0
0.000347 0.000000 0
0.000484 0.000000 0
0.000539 0.000000 0
0.000531 0.000000 0
0.000489 0.000000 0
0.000436 0.000000 0
0.000386 0.000000 0
0.000349 0.000000 0
0.000327 0.000000 0
0.000317 0.000000 0
0.000316 0.000000 0
0.000321 0.000000 0
0.000327 0.000000 0
0.000333 0.000000 0
0.000338 0.000000 0
0.000340 0.000000 0
0.000341 0.000000 0
0.000340 0.000000 0
0.000338 0.000000 0
0.000336 0.000000 0
0.000333 0.000000 0
0.000329 0.000000 0
0.000326 0.000000 0
0.000322 0.000000 0
0.000319 0.000000 0
0.000315 0.000000 0
0.000311 0.000000 0
0.000307 0.000000 0
0.000301 0.000000 0
0.000290 0.000000 0
0.000267 0.000000 0
0.000223 0.000000 0
0.000149 0.000000 0
0.000058 0.000000 0
0.000000 0.000000 0
0.000000 0.000000 0
0.000000 0.000000 0
0.000000 0.000000 0
0.000000 0.000000 0
0.000000 0.000000 0
0.000000 0.000000 0
0.000000 0.000000 0
0.000000 0.000000 0
0.000000 0.000000 0
0.000000 0.000000 0
0.000000 0.000000 0
0.000000 0.000000 0
0.000001 0.000000 0
0.000001 0.000000 0
0.000001 0.000000 0
0.000002 0.000000 0
0.000003 0.000000 0
0.000004 0.000000 0
0.000005 0.000000 0
0.000007 0.000000 0
0.000008 0.000000 0
0.000011 0.000000 0
0.000013 0.000000 0
0.000016 0.000000 0
0.000019 0.000000 0
0.000023 0.000000 0
0.000026 0.000000 0
0.000030 0.000000 0
0.000035 0.000000 0
0.000039 0.000000 0
0.000043 0.000000 0
0.000048 0.000000 0
0.000052 0.000000 0
0.000057 0.000000 0
0.000062 0.000000 0
0.000066 0.000000 0
0.000071 0.000000 0
0.000076 0.000000 0
0.000081 0.000000 0
0.000086 0.000000 0
0.000091 0.000000 0
0.000097 0.000000 0
0.000102 0.000000 0
0.000109 0.000000 0
0.000115 0.000000 0
0.000122 0.000000 0
0.000130 0.000000 0
0.000139 0.000000 0
0.000150 0.000000 0
0.000162 0.000000 0
0.000176 0.000000 0
0.000193 0.000000 0
0.000214 0.000000 0
0.000240 0.000000 0
0.000273 0.000000 0
0.000318 0.000000 0
0.000377 0.000000 0
0.000454 0.000000 0
0.000544 0.000000 0
0.000596 0.000000 0
0.000456 0.000000 0
0.000000 0.000000 0
0.000000 -0.000149 0
0.000401 -0.000349 0
0.000959 -0.000337 0
0.001379 -0.000192 0
0.001584 -0.000048 0
0.001609 0.000049 0
0.001522 0.000095 0
0.001385 0.000102 0
0.001247 0.000086 0
0.001136 0.000059 0
0.001062 0.000032 0
0.001025 0.000010 0
0.001015 -0.000005 0
0.001023 -0.000012 0
0.001038 -0.000013 0
0.001054 -0.000011 0
0.001065 -0.000008 0
0.001072 -0.000004 0
0.001073 -0.000001 0
0.001070 0.000002 0
0.001063 0.000004 0
0.001054 0.000005 0
0.001043 0.000006 0
0.001031 0.000006 0
0.001017 0.000006 0
0.001003 0.000007 0
0.000987 0.000007 0
0.000970 0.000007 0
0.000950 0.000007 0
0.000926 0.000009 0
0.000892 0.000016 0
0.000839 0.000033 0
0.000750 0.000066 0
0.000605 0.000117 0
0.000393 0.000164 0
0.000151 0.000149 0
0.000000 0.000058 0
0.000000 0.000000 0
0.000000 0.000000 0
0.000000 0.000000 0
0.000000 0.000000 0
0.000000 0.000000 0
0.000000 0.000000 0
0.000000 0.000000 0
0.000000 0.000000 0
0.000001 0.000000 0
0.000001 0.000000 0
0.000001 0.000000 0
0.000002 -0.000000 0
0.000003 -0.000000 0
0.000004 -0.000000 0
0.000006 -0.000001 0
0.000008 -0.000001 0
0.000011 -0.000001 0
0.000014 -0.000002 0
0.000019 -0.000002 0
0.000024 -0.000003 0
0.000031 -0.000004 0
0.000039 -0.000004 0
0.000048 -0.000005 0
0.000059 -0.000006 0
0.000070 -0.000006 0
0.000083 -0.000007 0
0.000096 -0.000007 0
0.000111 -0.000008 0
0.000126 -0.000008 0
0.000142 -0.000008 0
0.000158 -0.000009 0
0.000174 -0.000009 0
0.000190 -0.000009 0
0.000207 -0.000009 0
0.000224 -0.000009 0
0.000241 -0.000009 0
0.000259 -0.000009 0
0.000277 -0.000009 0
0.000295 -0.000010 0
0.000313 -0.000010 0
0.000333 -0.000010 0
0.000353 -0.000011 0
0.000374 -0.000012 0
0.000396 -0.000012 0
0.000421 -0.000014 0
0.000447 -0.000015 0
0.000476 -0.000017 0
0.000508 -0.000019 0
0.000545 -0.000022 0
0.000586 -0.000026 0
0.000635 -0.000031 0
0.000691 -0.000037 0
0.000759 -0.000047 0
0.000839 -0.000059 0
0.000937 -0.000077 0
0.001055 -0.000103 0
0.001193 -0.000137 0
0.001342 -0.000167 0
0.001455 -0.000141 0
0.001400 0.000088 0
0.000914 0.000596 0
0.000000 0.000456 0
0.000000 -0.000402 0
0.000526 -0.000961 0
0.001298 -0.000979 0
0.001925 -0.000626 0
0.002283 -0.000231 0
0.002386 0.000062 0
0.002313 0.000223 0
0.002149 0.000274 0
0.001963 0.000248 0
0.001802 0.000184 0
0.001687 0.000110 0
0.001620 0.000046 0
0.001594 0.000001 0
0.001595 -0.000024 0
0.001608 -0.000032 0
0.001624 -0.000028 0
0.001636 -0.000019 0
0.001642 -0.000009 0
0.001639 0.000001 0
0.001631 0.000009 0
0.001617 0.000015 0
0.001599 0.000019 0
0.001578 0.000022 0
0.001555 0.000025 0
0.001528 0.000027 0
0.001499 0.000029 0
0.001467 0.000032 0
0.001430 0.000036 0
0.001387 0.000043 0
0.001332 0.000057 0
0.001257 0.000086 0
0.001150 0.000141 0
0.000993 0.000234 0
0.000768 0.000356 0
0.000480 0.000452 0
0.000179 0.000392 0
0.000000 0.000151 0
0.000000 0.000000 0
0.000000 0.000000 0
0.000000 0.000000 0
0.000000 0.000000 0
0.000000 0.000000 0
0.000001 0.000000 0
0.000001 0.000000 0
0.000001 0.000000 0
0.000001 -0.000000 0
0.000002 -0.000000 0
0.000002 -0.000001 0
0.000004 -0.000001 0
0.000005 -0.000002 0
0.000007 -0.000002 0
0.000010 -0.000003 0
0.000014 -0.000005 0
0.000020 -0.000006 0
0.000026 -0.000008 0
0.000035 -0.000010 0
0.000045 -0.000012 0
0.000057 -0.000014 0
0.000071 -0.000017 0
0.000088 -0.000019 0
0.000107 -0.000022 0
0.000128 -0.000024 0
0.000150 -0.000026 0
0.000175 -0.000028 0
0.000201 -0.000029 0
0.000228 -0.000030 0
0.000256 -0.000031 0
0.000286 -0.000032 0
0.000315 -0.000032 0
0.000345 -0.000033 0
0.000376 -0.000033 0
0.000407 -0.000034 0
0.000438 -0.000034 0
0.000470 -0.000035 0
0.000502 -0.000035 0
0.000535 -0.000036 0
0.000569 -0.000038 0
0.000604 -0.000039 0
0.000641 -0.000041 0
0.000679 -0.000043 0
0.000720 -0.000046 0
0.000763 -0.000050 0
0.000810 -0.000055 0
0.000861 -0.000061 0
0.000918 -0.000068 0
0.000981 -0.000078 0
0.001051 -0.000090 0
0.001131 -0.000105 0
0.001222 -0.000124 0
0.001326 -0.000148 0
0.001443 -0.000178 0
0.001573 -0.000215 0
0.001712 -0.000256 0
0.001842 -0.000286 0
0.001925 -0.000262 0
0.001878 -0.000058 0
0.001549 0.000542 0
0.000808 0.001401 0
0.000000 0.000914 0
0.000000 -0.000676 0
0.000538 -0.001647 0
0.001363 -0.001736 0
0.002068 -0.001178 0
0.002504 -0.000509 0
0.002667 0.000018 0
0.002629 0.000332 0
0.002477 0.000452 0
0.002287 0.000432 0
0.002113 0.000335 0
0.001980 0.000213 0
0.001897 0.000102 0
0.001856 0.000021 0
0.001844 -0.000026 0
0.001846 -0.000043 0
0.001852 -0.000040 0
0.001855 -0.000025 0
0.001850 -0.000007 0
0.001839 0.000010 0
0.001821 0.000024 0
0.001797 0.000035 0
0.001770 0.000043 0
0.001738 0.000050 0
0.001703 0.000056 0
0.001664 0.000061 0
0.001621 0.000068 0
0.001573 0.000076 0
0.001518 0.000087 0
0.001453 0.000105 0
0.001372 0.000138 0
0.001269 0.000197 0
0.001131 0.000297 0
0.000944 0.000448 0
0.000702 0.000630 0
0.000419 0.000753 0
0.000148 0.000628 0
0.000000 0.000237 0
0.000000 0.000000 0
0.000000 0.000000 0
0.000000 0.000000 0
0.000000 0.000000 0
0.000000 0.000000 0
0.000001 0.000000 0
0.000001 0.000000 0
0.000001 -0.000000 0
0.000002 -0.000000 0
0.000002 -0.000001 0
0.000003 -0.000002 0
0.000005 -0.000003 0
0.000007 -0.000004 0
0.000010 -0.000006 0
0.000014 -0.000008 0
0.000020 -0.000010 0
0.000027 -0.000013 0
0.000036 -0.000017 0
0.000047 -0.000021 0
0.000061 -0.000025 0
0.000077 -0.000030 0
0.000097 -0.000035 0
0.000119 -0.000040 0
0.000145 -0.000045 0
0.000173 -0.000050 0
0.000204 -0.000054 0
0.000237 -0.000058 0
0.000273 -0.000061 0
0.000310 -0.000063 0
0.000348 -0.000065 0
0.000387 -0.000067 0
0.000428 -0.000068 0
0.000468 -0.000069 0
0.000510 -0.000070 0
0.000552 -0.000071 0
0.000595 -0.000072 0
0.000638 -0.000073 0
0.000682 -0.000075 0
0.000727 -0.000077 0
0.000773 -0.000079 0
0.000820 -0.000082 0
0.000869 -0.000086 0
0.000921 -0.000090 0
0.000975 -0.000096 0
0.001032 -0.000104 0
0.001094 -0.000113 0
0.001160 -0.000124 0
0.001233 -0.000138 0
0.001312 -0.000155 0
0.001399 -0.000176 0
0.001494 -0.000201 0
0.001599 -0.000232 0
0.001713 -0.000267 0
0.001833 -0.000307 0
0.001953 -0.000346 0
0.002059 -0.000372 0
0.002121 -0.000350 0
0.002090 -0.000202 0
0.001879 0.000235 0
0.001386 0.001158 0
0.000616 0.002146 0
0.000000 0.001265 0
0.000000 -0.000940 0
0.000508 -0.002325 0
0.001312 -0.002510 0
0.002020 -0.001767 0
0.002476 -0.000831 0
0.002670 -0.000064 0
0.002659 0.000413 0
0.002528 0.000615 0
0.002351 0.000613 0
0.002181 0.000490 0
0.002046 0.000325 0
0.001956 0.000170 0
0.001903 0.000054 0
0.001875 -0.000014 0
0.001861 -0.000040 0
0.001850 -0.000037 0
0.001836 -0.000018 0
0.001816 0.000007 0
0.001790 0.000031 0
0.001759 0.000050 0
0.001723 0.000066 0
0.001683 0.000078 0
0.001640 0.000088 0
0.001594 0.000098 0
0.001543 0.000109 0
0.001488 0.000120 0
0.001426 0.000135 0
0.001357 0.000156 0
0.001278 0.000188 0
0.001184 0.000240 0
0.001070 0.000327 0
0.000926 0.000466 0
0.000746 0.000662 0
0.000531 0.000881 0
0.000299 0.001006 0
0.000097 0.000811 0
0.000000 0.000299 0
0.000000 0.000000 0
0.000000 0.000000 0
0.000000 0.000000 0
0.000000 0.000000 0
0.000000 0.000000 0
0.000001 -0.000000 0
0.000001 -0.000000 0
0.000001 -0.000001 0
0.000002 -0.000001 0
0.000003 -0.000002 0
0.000004 -0.000003 0
0.000006 -0.000005 0
0.000009 -0.000007 0
0.000012 -0.000009 0
0.000017 -0.000013 0
0.000023 -0.000017 0
0.000032 -0.000022 0
0.000042 -0.000028 0
0.000056 -0.000035 0
0.000072 -0.000042 0
0.000092 -0.000050 0
0.000115 -0.000059 0
0.000142 -0.000067 0
0.000173 -0.000075 0
0.000207 -0.000083 0
0.000245 -0.000090 0
0.000285 -0.000096 0
0.000328 -0.000101 0
0.000372 -0.000105 0
0.000418 -0.000109 0
0.000466 -0.000111 0
0.000514 -0.000113 0
0.000563 -0.000115 0
0.000613 -0.000117 0
0.000664 -0.000118 0
0.000715 -0.000120 0
0.000767 -0.000122 0
0.000820 -0.000124 0
0.000873 -0.000127 0
0.000928 -0.000131 0
0.000985 -0.000136 0
0.001043 -0.000141 0
0.001104 -0.000149 0
0.001167 -0.000158 0
0.001234 -0.000169 0
0.001304 -0.000183 0
0.001379 -0.000199 0
0.001460 -0.000219 0
0.001546 -0.000244 0
0.001639 -0.000272 0
0.001738 -0.000305 0
0.001842 -0.000342 0
0.001949 -0.000381 0
0.002053 -0.000418 0
0.002142 -0.000440 0
0.002197 -0.000424 0
0.002186 -0.000318 0
0.002057 -0.000019 0
0.001741 0.000646 0
0.001189 0.001805 0
0.000472 0.002787 0
0.000000 0.001530 0
0.000000 -0.001184 0
0.000464 -0.002960 0
0.001212 -0.003249 0
0.001880 -0.002342 0
0.002320 -0.001159 0
0.002517 -0.000165 0
0.002523 0.000473 0
0.002412 0.000760 0
0.002253 0.000780 0
0.002095 0.000639 0
0.001966 0.000438 0
0.001873 0.000245 0
0.001811 0.000100 0
0.001769 0.000015 0
0.001736 -0.000018 0
0.001704 -0.000015 0
0.001670 0.000008 0
0.001631 0.000038 0
0.001588 0.000067 0
0.001541 0.000091 0
0.001491 0.000110 0
0.001440 0.000125 0
0.001385 0.000139 0
0.001328 0.000152 0
0.001267 0.000167 0
0.001201 0.000185 0
0.001131 0.000206 0
0.001054 0.000235 0
0.000970 0.000278 0
0.000876 0.000346 0
0.000768 0.000455 0
0.000641 0.000620 0
0.000492 0.000843 0
0.000328 0.001077 0
0.000169 0.001186 0
0.000048 0.000927 0
0.000000 0.000334 0
0.000000 0.000000 0
0.000000 0.000000 0
0.000000 0.000000 0
0.000000 -0.000000 0
0.000000 -0.000000 0
0.000001 -0.000000 0
0.000001 -0.000001 0
0.000001 -0.000001 0
0.000002 -0.000002 0
0.000003 -0.000003 0
0.000004 -0.000005 0
0.000006 -0.000007 0
0.000009 -0.000010 0
0.000013 -0.000014 0
0.000018 -0.000019 0
0.000025 -0.000025 0
0.000034 -0.000032 0
0.000046 -0.000041 0
0.000061 -0.000050 0
0.000079 -0.000061 0
0.000101 -0.000073 0
0.000127 -0.000085 0
0.000157 -0.000098 0
0.000192 -0.000110 0
0.000231 -0.000121 0
0.000273 -0.000132 0
0.000319 -0.000141 0
0.000367 -0.000148 0
0.000417 -0.000154 0
0.000469 -0.000159 0
0.000523 -0.000163 0
0.000577 -0.000166 0
0.000633 -0.000168 0
0.000689 -0.000170 0
0.000745 -0.000173 0
0.000803 -0.000175 0
0.000861 -0.000178 0
0.000920 -0.000181 0
0.000980 -0.000185 0
0.001041 -0.000190 0
0.001103 -0.000197 0
0.001167 -0.000204 0
0.001234 -0.000214 0
0.001302 -0.000226 0
0.001373 -0.000241 0
0.001448 -0.000258 0
0.001526 -0.000280 0
0.001609 -0.000305 0
0.001696 -0.000334 0
0.001787 -0.000368 0
0.001881 -0.000405 0
0.001975 -0.000443 0
0.002066 -0.000478 0
0.002146 -0.000499 0
0.002200 -0.000490 0
0.002207 -0.000415 0
0.002136 -0.000209 0
0.001941 0.000242 0
0.001576 0.001103 0
0.001019 0.002428 0
0.000374 0.003334 0
0.000000 0.001736 0
0.000000 -0.001405 0
0.000418 -0.003538 0
0.001094 -0.003926 0
0.001698 -0.002874 0
0.002099 -0.001469 0
0.002283 -0.000268 0
0.002295 0.000518 0
0.002200 0.000886 0
0.002061 0.000929 0
0.001920 0.000776 0
0.001801 0.000546 0
0.001708 0.000325 0
0.001638 0.000159 0
0.001581 0.000061 0
0.001529 0.000024 0
0.001477 0.000029 0
0.001422 0.000055 0
0.001364 0.000089 0
0.001304 0.000120 0
0.001242 0.000146 0
0.001180 0.000167 0
0.001116 0.000184 0
0.001052 0.000200 0
0.000985 0.000216 0
0.000917 0.000235 0
0.000845 0.000256 0
0.000772 0.000282 0
0.000695 0.000316 0
0.000615 0.000365 0
0.000532 0.000442 0
0.000442 0.000563 0
0.000344 0.000742 0
0.000240 0.000974 0
0.000138 0.001204 0
0.000054 0.001287 0
0.000007 0.000980 0
0.000000 0.000346 0
0.000000 0.000000 0
0.000000 0.000000 0
0.000000 0.000000 0
0.000000 -0.000000 0
0.000000 -0.000000 0
0.000001 -0.000000 0
0.000001 -0.000001 0
0.000001 -0.000001 0
0.000002 -0.000003 0
0.000003 -0.000004 0
0.000004 -0.000006 0
0.000006 -0.000009 0
0.000009 -0.000013 0
0.000013 -0.000018 0
0.000018 -0.000025 0
0.000025 -0.000033 0
0.000034 -0.000043 0
0.000046 -0.000054 0
0.000061 -0.000067 0
0.000080 -0.000082 0
0.000104 -0.000098 0
0.000131 -0.000115 0
0.000164 -0.000132 0
0.000202 -0.000148 0
0.000244 -0.000164 0
0.000290 -0.000178 0
0.000339 -0.000190 0
0.000392 -0.000200 0
0.000447 -0.000208 0
0.000503 -0.000214 0
0.000561 -0.000219 0
0.000619 -0.000223 0
0.000679 -0.000226 0
0.000739 -0.000229 0
0.000799 -0.000232 0
0.000861 -0.000235 0
0.000923 -0.000239 0
0.000986 -0.000243 0
0.001049 -0.000248 0
0.001114 -0.000254 0
0.001180 -0.000262 0
0.001247 -0.000271 0
0.001315 -0.000283 0
0.001386 -0.000297 0
0.001458 -0.000315 0
0.001533 -0.000335 0
0.001610 -0.000360 0
0.001690 -0.000389 0
0.001772 -0.000421 0
0.001856 -0.000457 0
0.001940 -0.000494 0
0.002021 -0.000528 0
0.002093 -0.000552 0
0.002148 -0.000551 0
0.002171 -0.000502 0
0.002141 -0.000360 0
0.002029 -0.000052 0
0.001799 0.000542 0
0.001417 0.001568 0
0.000883 0.003007 0
0.000306 0.003806 0
0.000000 0.001904 0
0.000000 -0.001603 0
0.000372 -0.004055 0
0.000970 -0.004529 0
0.001501 -0.003348 0
0.001852 -0.001745 0
0.002012 -0.000361 0
0.002023 0.000556 0
0.001943 0.000993 0
0.001823 0.001059 0
0.001700 0.000899 0
0.001591 0.000649 0
0.001500 0.000408 0
0.001423 0.000227 0
0.001353 0.000123 0
0.001284 0.000086 0
0.001214 0.000092 0
0.001140 0.000121 0
0.001066 0.000157 0
0.000991 0.000189 0
0.000917 0.000215 0
0.000844 0.000235 0
0.000772 0.000253 0
0.000700 0.000269 0
0.000628 0.000287 0
0.000556 0.000307 0
0.000484 0.000330 0
0.000412 0.000356 0
0.000341 0.000391 0
0.000273 0.000441 0
0.000207 0.000519 0
0.000143 0.000642 0
0.000081 0.000822 0
0.000024 0.001049 0
-0.000018 0.001263 0
-0.000035 0.001317 0
-0.000022 0.000981 0
0.000000 0.000341 0
0.000000 0.000000 0
0.000000 0.000000 0
0.000000 0.000000 0
0.000000 -0.000000 0
0.000000 -0.000000 0
0.000001 -0.000001 0
0.000001 -0.000001 0
0.000001 -0.000002 0
0.000002 -0.000003 0
0.000003 -0.000005 0
0.000004 -0.000008 0
0.000006 -0.000011 0
0.000008 -0.000016 0
0.000012 -0.000023 0
0.000016 -0.000031 0
0.000023 -0.000041 0
0.000032 -0.000053 0
0.000043 -0.000067 0
0.000058 -0.000084 0
0.000077 -0.000103 0
0.000100 -0.000124 0
0.000129 -0.000146 0
0.000163 -0.000168 0
0.000202 -0.000189 0
0.000246 -0.000209 0
0.000295 -0.000227 0
0.000347 -0.000242 0
0.000403 -0.000255 0
0.000460 -0.000265 0
0.000519 -0.000273 0
0.000580 -0.000279 0
0.000641 -0.000284 0
0.000703 -0.000288 0
0.000765 -0.000291 0
0.000828 -0.000295 0
0.000891 -0.000298 0
0.000955 -0.000302 0
0.001020 -0.000307 0
0.001085 -0.000313 0
0.001151 -0.000320 0
0.001218 -0.000329 0
0.001285 -0.000340 0
0.001353 -0.000353 0
0.001423 -0.000369 0
0.001493 -0.000388 0
0.001565 -0.000410 0
0.001638 -0.000437 0
0.001712 -0.000467 0
0.001786 -0.000500 0
0.001860 -0.000535 0
0.001932 -0.000569 0
0.001998 -0.000596 0
0.002053 -0.000604 0
0.002087 -0.000577 0
0.002087 -0.000483 0
0.002032 -0.000273 0
0.001897 0.000133 0
0.001652 0.000855 0
0.001274 0.002020 0
0.000773 0.003538 0
0.000258 0.004217 0
0.000000 0.002043 0
0.000000 -0.001778 0
0.000328 -0.004509 0
0.000848 -0.005055 0
0.001304 -0.003757 0
0.001601 -0.001980 0
0.001734 -0.000439 0
0.001741 0.000588 0
0.001673 0.001085 0
0.001571 0.001171 0
0.001465 0.001008 0
0.001367 0.000746 0
0.001278 0.000492 0
0.001196 0.000305 0
0.001115 0.000200 0
0.001032 0.000164 0
0.000946 0.000172 0
0.000859 0.000203 0
0.000772 0.000238 0
0.000687 0.000269 0
0.000605 0.000293 0
0.000526 0.000312 0
0.000448 0.000328 0
0.000373 0.000344 0
0.000300 0.000361 0
0.000228 0.000379 0
0.000159 0.000400 0
0.000094 0.000424 0
0.000035 0.000454 0
-0.000018 0.000500 0
-0.000064 0.000572 0
-0.000101 0.000689 0
-0.000128 0.000860 0
-0.000141 0.001072 0
-0.000132 0.001262 0
-0.000096 0.001290 0
-0.000040 0.000945 0
0.000000 0.000324 0
0.000000 0.000000 0
0.000000 0.000000 0
0.000000 0.000000 0
0.000000 -0.000000 0
0.000000 -0.000000 0
0.000001 -0.000001 0
0.000001 -0.000001 0
0.000001 -0.000002 0
0.000001 -0.000004 0
0.000002 -0.000006 0
0.000003 -0.000009 0
0.000004 -0.000013 0
0.000006 -0.000019 0
0.000009 -0.000026 0
0.000013 -0.000036 0
0.000019 -0.000048 0
0.000026 -0.000063 0
0.000037 -0.000080 0
0.000050 -0.000101 0
0.000068 -0.000124 0
0.000090 -0.000150 0
0.000118 -0.000177 0
0.000152 -0.000205 0
0.000192 -0.000232 0
0.000238 -0.000257 0
0.000288 -0.000279 0
0.000342 -0.000297 0
0.000399 -0.000312 0
0.000459 -0.000324 0
0.000519 -0.000333 0
0.000581 -0.000340 0
0.000643 -0.000346 0
0.000705 -0.000350 0
0.000769 -0.000354 0
0.000832 -0.000358 0
0.000896 -0.000363 0
0.000960 -0.000367 0
0.001025 -0.000372 0
0.001090 -0.000379 0
0.001155 -0.000386 0
0.001220 -0.000396 0
0.001286 -0.000407 0
0.001352 -0.000421 0
0.001418 -0.000437 0
0.001485 -0.000457 0
0.001551 -0.000480 0
0.001617 -0.000507 0
0.001683 -0.000537 0
0.001748 -0.000569 0
0.001812 -0.000602 0
0.001871 -0.000631 0
0.001924 -0.000648 0
0.001964 -0.000640 0
0.001983 -0.000585 0
0.001967 -0.000446 0
0.001899 -0.000170 0
0.001755 0.000328 0
0.001511 0.001165 0
0.001148 0.002448 0
0.000683 0.004024 0
0.000220 0.004579 0
0.000000 0.002161 0
0.000000 -0.001931 0
0.000286 -0.004903 0
0.000732 -0.005506 0
0.001117 -0.004101 0
0.001362 -0.002175 0
0.001469 -0.000502 0
0.001472 0.000617 0
0.001414 0.001163 0
0.001329 0.001267 0
0.001238 0.001104 0
0.001149 0.000836 0
0.001063 0.000578 0
0.000976 0.000391 0
0.000887 0.000287 0
0.000794 0.000254 0
0.000698 0.000265 0
0.000602 0.000295 0
0.000509 0.000328 0
0.000418 0.000356 0
0.000332 0.000376 0
0.000251 0.000392 0
0.000173 0.000405 0
0.000099 0.000418 0
0.000028 0.000432 0
-0.000039 0.000447 0
-0.000100 0.000463 0
-0.000155 0.000481 0
-0.000201 0.000503 0
-0.000238 0.000539 0
-0.000263 0.000601 0
-0.000276 0.000706 0
-0.000274 0.000861 0
-0.000252 0.001053 0
-0.000204 0.001217 0
-0.000131 0.001224 0
-0.000049 0.000885 0
0.000000 0.000301 0
0.000000 0.000000 0
0.000000 0.000000 0
0.000000 0.000000 0
0.000000 -0.000000 0
0.000000 -0.000000 0
0.000000 -0.000001 0
0.000001 -0.000001 0
0.000001 -0.000002 0
0.000001 -0.000004 0
0.000001 -0.000006 0
0.000002 -0.000010 0
0.000003 -0.000015 0
0.000004 -0.000021 0
0.000006 -0.000029 0
0.000009 -0.000040 0
0.000013 -0.000054 0
0.000019 -0.000071 0
0.000027 -0.000091 0
0.000038 -0.000115 0
0.000054 -0.000143 0
0.000074 -0.000174 0
0.000100 -0.000208 0
0.000133 -0.000242 0
0.000172 -0.000275 0
0.000217 -0.000305 0
0.000268 -0.000332 0
0.000324 -0.000354 0
0.000382 -0.000371 0
0.000442 -0.000385 0
0.000503 -0.000395 0
0.000564 -0.000402 0
0.000626 -0.000408 0
0.000688 -0.000413 0
0.000751 -0.000418 0
0.000813 -0.000422 0
0.000876 -0.000426 0
0.000939 -0.000431 0
0.001002 -0.000437 0
0.001065 -0.000443 0
0.001128 -0.000451 0
0.001191 -0.000460 0
0.001254 -0.000471 0