# vtk DataFile Version 2.0
generated by CFD-lab course output (written by Tobias Neckel) 
ASCII

DATASET STRUCTURED_GRID
DIMENSIONS  99 49 1 
POINTS 4851 float

0.000000 0.000000 0
0.020000 0.000000 0
0.040000 0.000000 0
0.060000 0.000000 0
0.080000 0.000000 0
0.100000 0.000000 0
0.120000 0.000000 0
0.140000 0.000000 0
0.160000 0.000000 0
0.180000 0.000000 0
0.200000 0.000000 0
0.220000 0.000000 0
0.240000 0.000000 0
0.260000 0.000000 0
0.280000 0.000000 0
0.300000 0.000000 0
0.320000 0.000000 0
0.340000 0.000000 0
0.360000 0.000000 0
0.380000 0.000000 0
0.400000 0.000000 0
0.420000 0.000000 0
0.440000 0.000000 0
0.460000 0.000000 0
0.480000 0.000000 0
0.500000 0.000000 0
0.520000 0.000000 0
0.540000 0.000000 0
0.560000 0.000000 0
0.580000 0.000000 0
0.600000 0.000000 0
0.620000 0.000000 0
0.640000 0.000000 0
0.660000 0.000000 0
0.680000 0.000000 0
0.700000 0.000000 0
0.720000 0.000000 0
0.740000 0.000000 0
0.760000 0.000000 0
0.780000 0.000000 0
0.800000 0.000000 0
0.820000 0.000000 0
0.840000 0.000000 0
0.860000 0.000000 0
0.880000 0.000000 0
0.900000 0.000000 0
0.920000 0.000000 0
0.940000 0.000000 0
0.960000 0.000000 0
0.980000 0.000000 0
1.000000 0.000000 0
1.020000 0.000000 0
1.040000 0.000000 0
1.060000 0.000000 0
1.080000 0.000000 0
1.100000 0.000000 0
1.120000 0.000000 0
1.140000 0.000000 0
1.160000 0.000000 0
1.180000 0.000000 0
1.200000 0.000000 0
1.220000 0.000000 0
1.240000 0.000000 0
1.260000 0.000000 0
1.280000 0.000000 0
1.300000 0.000000 0
1.320000 0.000000 0
1.340000 0.000000 0
1.360000 0.000000 0
1.380000 0.000000 0
1.400000 0.000000 0
1.420000 0.000000 0
1.440000 0.000000 0
1.460000 0.000000 0
1.480000 0.000000 0
1.500000 0.000000 0
1.520000 0.000000 0
1.540000 0.000000 0
1.560000 0.000000 0
1.580000 0.000000 0
1.600000 0.000000 0
1.620000 0.000000 0
1.640000 0.000000 0
1.660000 0.000000 0
1.680000 0.000000 0
1.700000 0.000000 0
1.720000 0.000000 0
1.740000 0.000000 0
1.760000 0.000000 0
1.780000 0.000000 0
1.800000 0.000000 0
1.820000 0.000000 0
1.840000 0.000000 0
1.860000 0.000000 0
1.880000 0.000000 0
1.900000 0.000000 0
1.920000 0.000000 0
1.940000 0.000000 0
1.960000 0.000000 0
0.000000 0.020000 0
0.020000 0.020000 0
0.040000 0.020000 0
0.060000 0.020000 0
0.080000 0.020000 0
0.100000 0.020000 0
0.120000 0.020000 0
0.140000 0.020000 0
0.160000 0.020000 0
0.180000 0.020000 0
0.200000 0.020000 0
0.220000 0.020000 0
0.240000 0.020000 0
0.260000 0.020000 0
0.280000 0.020000 0
0.300000 0.020000 0
0.320000 0.020000 0
0.340000 0.020000 0
0.360000 0.020000 0
0.380000 0.020000 0
0.400000 0.020000 0
0.420000 0.020000 0
0.440000 0.020000 0
0.460000 0.020000 0
0.480000 0.020000 0
0.500000 0.020000 0
0.520000 0.020000 0
0.540000 0.020000 0
0.560000 0.020000 0
0.580000 0.020000 0
0.600000 0.020000 0
0.620000 0.020000 0
0.640000 0.020000 0
0.660000 0.020000 0
0.680000 0.020000 0
0.700000 0.020000 0
0.720000 0.020000 0
0.740000 0.020000 0
0.760000 0.020000 0
0.780000 0.020000 0
0.800000 0.020000 0
0.820000 0.020000 0
0.840000 0.020000 0
0.860000 0.020000 0
0.880000 0.020000 0
0.900000 0.020000 0
0.920000 0.020000 0
0.940000 0.020000 0
0.960000 0.020000 0
0.980000 0.020000 0
1.000000 0.020000 0
1.020000 0.020000 0
1.040000 0.020000 0
1.060000 0.020000 0
1.080000 0.020000 0
1.100000 0.020000 0
1.120000 0.020000 0
1.140000 0.020000 0
1.160000 0.020000 0
1.180000 0.020000 0
1.200000 0.020000 0
1.220000 0.020000 0
1.240000 0.020000 0
1.260000 0.020000 0
1.280000 0.020000 0
1.300000 0.020000 0
1.320000 0.020000 0
1.340000 0.020000 0
1.360000 0.020000 0
1.380000 0.020000 0
1.400000 0.020000 0
1.420000 0.020000 0
1.440000 0.020000 0
1.460000 0.020000 0
1.480000 0.020000 0
1.500000 0.020000 0
1.520000 0.020000 0
1.540000 0.020000 0
1.560000 0.020000 0
1.580000 0.020000 0
1.600000 0.020000 0
1.620000 0.020000 0
1.640000 0.020000 0
1.660000 0.020000 0
1.680000 0.020000 0
1.700000 0.020000 0
1.720000 0.020000 0
1.740000 0.020000 0
1.760000 0.020000 0
1.780000 0.020000 0
1.800000 0.020000 0
1.820000 0.020000 0
1.840000 0.020000 0
1.860000 0.020000 0
1.880000 0.020000 0
1.900000 0.020000 0
1.920000 0.020000 0
1.940000 0.020000 0
1.960000 0.020000 0
0.000000 0.040000 0
0.020000 0.040000 0
0.040000 0.040000 0
0.060000 0.040000 0
0.080000 0.040000 0
0.100000 0.040000 0
0.120000 0.040000 0
0.140000 0.040000 0
0.160000 0.040000 0
0.180000 0.040000 0
0.200000 0.040000 0
0.220000 0.040000 0
0.240000 0.040000 0
0.260000 0.040000 0
0.280000 0.040000 0
0.300000 0.040000 0
0.320000 0.040000 0
0.340000 0.040000 0
0.360000 0.040000 0
0.380000 0.040000 0
0.400000 0.040000 0
0.420000 0.040000 0
0.440000 0.040000 0
0.460000 0.040000 0
0.480000 0.040000 0
0.500000 0.040000 0
0.520000 0.040000 0
0.540000 0.040000 0
0.560000 0.040000 0
0.580000 0.040000 0
0.600000 0.040000 0
0.620000 0.040000 0
0.640000 0.040000 0
0.660000 0.040000 0
0.680000 0.040000 0
0.700000 0.040000 0
0.720000 0.040000 0
0.740000 0.040000 0
0.760000 0.040000 0
0.780000 0.040000 0
0.800000 0.040000 0
0.820000 0.040000 0
0.840000 0.040000 0
0.860000 0.040000 0
0.880000 0.040000 0
0.900000 0.040000 0
0.920000 0.040000 0
0.940000 0.040000 0
0.960000 0.040000 0
0.980000 0.040000 0
1.000000 0.040000 0
1.020000 0.040000 0
1.040000 0.040000 0
1.060000 0.040000 0
1.080000 0.040000 0
1.100000 0.040000 0
1.120000 0.040000 0
1.140000 0.040000 0
1.160000 0.040000 0
1.180000 0.040000 0
1.200000 0.040000 0
1.220000 0.040000 0
1.240000 0.040000 0
1.260000 0.040000 0
1.280000 0.040000 0
1.300000 0.040000 0
1.320000 0.040000 0
1.340000 0.040000 0
1.360000 0.040000 0
1.380000 0.040000 0
1.400000 0.040000 0
1.420000 0.040000 0
1.440000 0.040000 0
1.460000 0.040000 0
1.480000 0.040000 0
1.500000 0.040000 0
1.520000 0.040000 0
1.540000 0.040000 0
1.560000 0.040000 0
1.580000 0.040000 0
1.600000 0.040000 0
1.620000 0.040000 0
1.640000 0.040000 0
1.660000 0.040000 0
1.680000 0.040000 0
1.700000 0.040000 0
1.720000 0.040000 0
1.740000 0.040000 0
1.760000 0.040000 0
1.780000 0.040000 0
1.800000 0.040000 0
1.820000 0.040000 0
1.840000 0.040000 0
1.860000 0.040000 0
1.880000 0.040000 0
1.900000 0.040000 0
1.920000 0.040000 0
1.940000 0.040000 0
1.960000 0.040000 0
0.000000 0.060000 0
0.020000 0.060000 0
0.040000 0.060000 0
0.060000 0.060000 0
0.080000 0.060000 0
0.100000 0.060000 0
0.120000 0.060000 0
0.140000 0.060000 0
0.160000 0.060000 0
0.180000 0.060000 0
0.200000 0.060000 0
0.220000 0.060000 0
0.240000 0.060000 0
0.260000 0.060000 0
0.280000 0.060000 0
0.300000 0.060000 0
0.320000 0.060000 0
0.340000 0.060000 0
0.360000 0.060000 0
0.380000 0.060000 0
0.400000 0.060000 0
0.420000 0.060000 0
0.440000 0.060000 0
0.460000 0.060000 0
0.480000 0.060000 0
0.500000 0.060000 0
0.520000 0.060000 0
0.540000 0.060000 0
0.560000 0.060000 0
0.580000 0.060000 0
0.600000 0.060000 0
0.620000 0.060000 0
0.640000 0.060000 0
0.660000 0.060000 0
0.680000 0.060000 0
0.700000 0.060000 0
0.720000 0.060000 0
0.740000 0.060000 0
0.760000 0.060000 0
0.780000 0.060000 0
0.800000 0.060000 0
0.820000 0.060000 0
0.840000 0.060000 0
0.860000 0.060000 0
0.880000 0.060000 0
0.900000 0.060000 0
0.920000 0.060000 0
0.940000 0.060000 0
0.960000 0.060000 0
0.980000 0.060000 0
1.000000 0.060000 0
1.020000 0.060000 0
1.040000 0.060000 0
1.060000 0.060000 0
1.080000 0.060000 0
1.100000 0.060000 0
1.120000 0.060000 0
1.140000 0.060000 0
1.160000 0.060000 0
1.180000 0.060000 0
1.200000 0.060000 0
1.220000 0.060000 0
1.240000 0.060000 0
1.260000 0.060000 0
1.280000 0.060000 0
1.300000 0.060000 0
1.320000 0.060000 0
1.340000 0.060000 0
1.360000 0.060000 0
1.380000 0.060000 0
1.400000 0.060000 0
1.420000 0.060000 0
1.440000 0.060000 0
1.460000 0.060000 0
1.480000 0.060000 0
1.500000 0.060000 0
1.520000 0.060000 0
1.540000 0.060000 0
1.560000 0.060000 0
1.580000 0.060000 0
1.600000 0.060000 0
1.620000 0.060000 0
1.640000 0.060000 0
1.660000 0.060000 0
1.680000 0.060000 0
1.700000 0.060000 0
1.720000 0.060000 0
1.740000 0.060000 0
1.760000 0.060000 0
1.780000 0.060000 0
1.800000 0.060000 0
1.820000 0.060000 0
1.840000 0.060000 0
1.860000 0.060000 0
1.880000 0.060000 0
1.900000 0.060000 0
1.920000 0.060000 0
1.940000 0.060000 0
1.960000 0.060000 0
0.000000 0.080000 0
0.020000 0.080000 0
0.040000 0.080000 0
0.060000 0.080000 0
0.080000 0.080000 0
0.100000 0.080000 0
0.120000 0.080000 0
0.140000 0.080000 0
0.160000 0.080000 0
0.180000 0.080000 0
0.200000 0.080000 0
0.220000 0.080000 0
0.240000 0.080000 0
0.260000 0.080000 0
0.280000 0.080000 0
0.300000 0.080000 0
0.320000 0.080000 0
0.340000 0.080000 0
0.360000 0.080000 0
0.380000 0.080000 0
0.400000 0.080000 0
0.420000 0.080000 0
0.440000 0.080000 0
0.460000 0.080000 0
0.480000 0.080000 0
0.500000 0.080000 0
0.520000 0.080000 0
0.540000 0.080000 0
0.560000 0.080000 0
0.580000 0.080000 0
0.600000 0.080000 0
0.620000 0.080000 0
0.640000 0.080000 0
0.660000 0.080000 0
0.680000 0.080000 0
0.700000 0.080000 0
0.720000 0.080000 0
0.740000 0.080000 0
0.760000 0.080000 0
0.780000 0.080000 0
0.800000 0.080000 0
0.820000 0.080000 0
0.840000 0.080000 0
0.860000 0.080000 0
0.880000 0.080000 0
0.900000 0.080000 0
0.920000 0.080000 0
0.940000 0.080000 0
0.960000 0.080000 0
0.980000 0.080000 0
1.000000 0.080000 0
1.020000 0.080000 0
1.040000 0.080000 0
1.060000 0.080000 0
1.080000 0.080000 0
1.100000 0.080000 0
1.120000 0.080000 0
1.140000 0.080000 0
1.160000 0.080000 0
1.180000 0.080000 0
1.200000 0.080000 0
1.220000 0.080000 0
1.240000 0.080000 0
1.260000 0.080000 0
1.280000 0.080000 0
1.300000 0.080000 0
1.320000 0.080000 0
1.340000 0.080000 0
1.360000 0.080000 0
1.380000 0.080000 0
1.400000 0.080000 0
1.420000 0.080000 0
1.440000 0.080000 0
1.460000 0.080000 0
1.480000 0.080000 0
1.500000 0.080000 0
1.520000 0.080000 0
1.540000 0.080000 0
1.560000 0.080000 0
1.580000 0.080000 0
1.600000 0.080000 0
1.620000 0.080000 0
1.640000 0.080000 0
1.660000 0.080000 0
1.680000 0.080000 0
1.700000 0.080000 0
1.720000 0.080000 0
1.740000 0.080000 0
1.760000 0.080000 0
1.780000 0.080000 0
1.800000 0.080000 0
1.820000 0.080000 0
1.840000 0.080000 0
1.860000 0.080000 0
1.880000 0.080000 0
[...]
POINT_DATA 4851 

VECTORS velocity float
0.000000 0.000000 0
0.000091 0.000000 0
0.000218 0.000000 0
0.000311 0.000000 0
0.000355 0.000000 0
0.000360 0.000000 0
0.000343 0.000000 0
0.000318 0.000000 0
0.000293 0.000000 0
0.000274 0.000000 0
0.000261 0.000000 0
0.000254 0.000000 0
0.000252 0.000000 0
0.000252 0.000000 0
0.000253 0.000000 0
0.000254 0.000000 0
0.000255 0.000000 0
0.000255 0.000000 0
0.000255 0.000000 0
0.000254 0.000000 0
0.000253 0.000000 0
0.000251 0.000000 0
0.000250 0.000000 0
0.000248 0.000000 0
0.000246 0.000000 0
0.000244 0.000000 0
0.000242 0.000000 0
0.000239 0.000000 0
0.000236 0.000000 0
0.000231 0.000000 0
0.000224 0.000000 0
0.000210 0.000000 0
0.000186 0.000000 0
0.000147 0.000000 0
0.000092 0.000000 0
0.000032 0.000000 0
0.000000 0.000000 0
0.000000 0.000000 0
0.000000 0.000000 0
0.000000 0.000000 0
0.000000 0.000000 0
-0.000001 0.000000 0
0.000003 0.000000 0
0.000016 0.000000 0
0.000034 0.000000 0
0.000057 0.000000 0
0.000083 0.000000 0
0.000108 0.000000 0
0.000132 0.000000 0
0.000153 0.000000 0
0.000170 0.000000 0
0.000183 0.000000 0
0.000191 0.000000 0
0.000195 0.000000 0
0.000196 0.000000 0
0.000195 0.000000 0
0.000193 0.000000 0
0.000189 0.000000 0
0.000186 0.000000 0
0.000182 0.000000 0
0.000178 0.000000 0
0.000175 0.000000 0
0.000173 0.000000 0
0.000170 0.000000 0
0.000169 0.000000 0
0.000167 0.000000 0
0.000166 0.000000 0
0.000166 0.000000 0
0.000165 0.000000 0
0.000165 0.000000 0
0.000165 0.000000 0
0.000166 0.000000 0
0.000166 0.000000 0
0.000167 0.000000 0
0.000167 0.000000 0
0.000168 0.000000 0
0.000170 0.000000 0
0.000171 0.000000 0
0.000173 0.000000 0
0.000175 0.000000 0
0.000178 0.000000 0
0.000181 0.000000 0
0.000184 0.000000 0
0.000189 0.000000 0
0.000194 0.000000 0
0.000200 0.000000 0
0.000208 0.000000 0
0.000217 0.000000 0
0.000229 0.000000 0
0.000244 0.000000 0
0.000264 0.000000 0
0.000291 0.000000 0
0.000329 0.000000 0
0.000382 0.000000 0
0.000455 0.000000 0
0.000541 0.000000 0
0.000592 0.000000 0
0.000452 0.000000 0
0.000000 0.000000 0
0.000000 -0.000092 0
0.000250 -0.000219 0
0.000609 -0.000220 0
0.000890 -0.000137 0
0.001044 -0.000050 0
0.001087 0.000011 0
0.001061 0.000041 0
0.001001 0.000049 0
0.000936 0.000043 0
0.000881 0.000032 0
0.000842 0.000019 0
0.000820 0.000009 0
0.000810 0.000002 0
0.000809 -0.000002 0
0.000811 -0.000003 0
0.000813 -0.000003 0
0.000815 -0.000002 0
0.000815 -0.000000 0
0.000813 0.000001 0
0.000809 0.000002 0
0.000804 0.000002 0
0.000798 0.000003 0
0.000791 0.000003 0
0.000783 0.000003 0
0.000775 0.000003 0
0.000765 0.000004 0
0.000754 0.000004 0
0.000741 0.000005 0
0.000724 0.000007 0
0.000700 0.000012 0
0.000665 0.000021 0
0.000611 0.000037 0
0.000528 0.000063 0
0.000406 0.000094 0
0.000250 0.000113 0
0.000090 0.000091 0
0.000000 0.000032 0
0.000000 0.000000 0
0.000000 0.000000 0
0.000000 0.000000 0
0.000000 0.000001 0
0.000003 -0.000003 0
0.000026 -0.000017 0
0.000071 -0.000031 0
0.000135 -0.000041 0
0.000214 -0.000048 0
0.000300 -0.000051 0
0.000386 -0.000050 0
0.000468 -0.000045 0
0.000539 -0.000037 0
0.000597 -0.000029 0
0.000641 -0.000020 0
0.000671 -0.000012 0
0.000689 -0.000005 0
0.000696 -0.000000 0
0.000695 0.000004 0
0.000688 0.000006 0
0.000678 0.000007 0
0.000667 0.000008 0
0.000654 0.000008 0
0.000643 0.000007 0
0.000632 0.000006 0
0.000623 0.000005 0
0.000615 0.000004 0
0.000608 0.000003 0
0.000603 0.000003 0
0.000599 0.000002 0
0.000596 0.000001 0
0.000595 0.000001 0
0.000594 0.000000 0
0.000593 -0.000000 0
0.000594 -0.000000 0
0.000595 -0.000001 0
0.000597 -0.000001 0
0.000599 -0.000002 0
0.000603 -0.000002 0
0.000607 -0.000002 0
0.000612 -0.000003 0
0.000619 -0.000004 0
0.000626 -0.000004 0
0.000635 -0.000005 0
0.000646 -0.000006 0
0.000659 -0.000008 0
0.000674 -0.000009 0
0.000691 -0.000011 0
0.000713 -0.000013 0
0.000738 -0.000017 0
0.000769 -0.000021 0
0.000807 -0.000027 0
0.000854 -0.000035 0
0.000914 -0.000047 0
0.000990 -0.000065 0
0.001088 -0.000091 0
0.001208 -0.000126 0
0.001342 -0.000159 0
0.001447 -0.000136 0
0.001388 0.000090 0
0.000904 0.000592 0
0.000000 0.000452 0
0.000000 -0.000251 0
0.000335 -0.000610 0
0.000835 -0.000641 0
0.001251 -0.000436 0
0.001505 -0.000198 0
0.001605 -0.000017 0
0.001598 0.000086 0
0.001534 0.000124 0
0.001452 0.000120 0
0.001378 0.000093 0
0.001323 0.000060 0
0.001289 0.000031 0
0.001272 0.000011 0
0.001266 -0.000001 0
0.001266 -0.000006 0
0.001267 -0.000005 0
0.001267 -0.000002 0
0.001265 0.000001 0
0.001259 0.000005 0
0.001251 0.000008 0
0.001240 0.000010 0
0.001227 0.000012 0
0.001213 0.000014 0
0.001196 0.000016 0
0.001177 0.000017 0
0.001156 0.000020 0
0.001131 0.000024 0
0.001101 0.000029 0
0.001063 0.000040 0
0.001013 0.000057 0
0.000944 0.000088 0
0.000846 0.000137 0
0.000710 0.000204 0
0.000530 0.000277 0
0.000318 0.000315 0
0.000114 0.000249 0
0.000000 0.000090 0
0.000000 0.000000 0
0.000000 0.000000 0
0.000000 0.000000 0
0.000000 -0.000003 0
0.000015 -0.000026 0
0.000064 -0.000068 0
0.000147 -0.000109 0
0.000261 -0.000143 0
0.000395 -0.000164 0
0.000542 -0.000172 0
0.000689 -0.000168 0
0.000827 -0.000152 0
0.000949 -0.000129 0
0.001049 -0.000102 0
0.001126 -0.000074 0
0.001180 -0.000047 0
0.001213 -0.000024 0
0.001228 -0.000006 0
0.001230 0.000008 0
0.001221 0.000017 0
0.001206 0.000022 0
0.001188 0.000024 0
0.001168 0.000024 0
0.001148 0.000023 0
0.001129 0.000020 0
0.001113 0.000018 0
0.001098 0.000015 0
0.001086 0.000012 0
0.001076 0.000009 0
0.001068 0.000007 0
0.001062 0.000005 0
0.001058 0.000003 0
0.001055 0.000002 0
0.001054 0.000000 0
0.001054 -0.000001 0
0.001055 -0.000003 0
0.001058 -0.000004 0
0.001062 -0.000006 0
0.001068 -0.000007 0
0.001075 -0.000009 0
0.001084 -0.000011 0
0.001094 -0.000014 0
0.001107 -0.000016 0
0.001123 -0.000019 0
0.001141 -0.000023 0
0.001162 -0.000027 0
0.001187 -0.000032 0
0.001217 -0.000038 0
0.001251 -0.000046 0
0.001292 -0.000056 0
0.001340 -0.000068 0
0.001398 -0.000085 0
0.001467 -0.000107 0
0.001549 -0.000136 0
0.001645 -0.000173 0
0.001751 -0.000217 0
0.001854 -0.000254 0
0.001917 -0.000238 0
0.001859 -0.000046 0
0.001529 0.000542 0
0.000796 0.001388 0
0.000000 0.000905 0
0.000000 -0.000427 0
0.000349 -0.001054 0
0.000886 -0.001137 0
0.001350 -0.000808 0
0.001648 -0.000404 0
0.001782 -0.000083 0
0.001797 0.000112 0
0.001743 0.000195 0
0.001664 0.000199 0
0.001589 0.000161 0
0.001530 0.000108 0
0.001492 0.000060 0
0.001471 0.000024 0
0.001461 0.000003 0
0.001457 -0.000005 0
0.001453 -0.000004 0
0.001448 0.000001 0
0.001440 0.000008 0
0.001429 0.000014 0
0.001414 0.000020 0
0.001396 0.000025 0
0.001376 0.000030 0
0.001353 0.000034 0
0.001327 0.000038 0
0.001298 0.000043 0
0.001265 0.000050 0
0.001227 0.000059 0
0.001182 0.000073 0
0.001126 0.000095 0
0.001056 0.000131 0
0.000964 0.000188 0
0.000843 0.000271 0
0.000688 0.000378 0
0.000498 0.000485 0
0.000289 0.000529 0
0.000100 0.000409 0
0.000000 0.000146 0
0.000000 0.000000 0
0.000000 0.000000 0
0.000000 0.000000 0
0.000000 -0.000013 0
0.000026 -0.000067 0
0.000099 -0.000149 0
0.000214 -0.000227 0
0.000367 -0.000289 0
0.000545 -0.000329 0
0.000736 -0.000344 0
0.000928 -0.000335 0
0.001107 -0.000305 0
0.001264 -0.000260 0
0.001394 -0.000206 0
0.001493 -0.000151 0
0.001563 -0.000099 0
0.001606 -0.000053 0
0.001626 -0.000017 0
0.001628 0.000011 0
0.001618 0.000030 0
0.001599 0.000041 0
0.001575 0.000047 0
0.001549 0.000048 0
0.001523 0.000045 0
0.001498 0.000041 0
0.001475 0.000036 0
0.001455 0.000031 0
0.001437 0.000026 0
0.001423 0.000021 0
0.001411 0.000016 0
0.001401 0.000012 0
0.001394 0.000008 0
0.001389 0.000005 0
0.001386 0.000001 0
0.001385 -0.000002 0
0.001386 -0.000005 0
0.001389 -0.000008 0
0.001393 -0.000011 0
0.001400 -0.000015 0
0.001409 -0.000018 0
0.001420 -0.000023 0
0.001433 -0.000027 0
0.001449 -0.000033 0
0.001469 -0.000039 0
0.001491 -0.000046 0
0.001517 -0.000054 0
0.001548 -0.000063 0
0.001583 -0.000075 0
0.001623 -0.000089 0
0.001670 -0.000106 0
0.001723 -0.000127 0
0.001785 -0.000153 0
0.001854 -0.000186 0
0.001930 -0.000224 0
0.002008 -0.000266 0
0.002076 -0.000300 0
0.002109 -0.000292 0
0.002059 -0.000164 0
0.001841 0.000252 0
0.001354 0.001152 0
0.000600 0.002121 0
0.000000 0.001249 0
0.000000 -0.000600 0
0.000335 -0.001497 0
0.000860 -0.001643 0
0.001320 -0.001197 0
0.001623 -0.000630 0
0.001766 -0.000167 0
0.001791 0.000124 0
0.001747 0.000256 0
0.001676 0.000273 0
0.001606 0.000226 0
0.001550 0.000156 0
0.001512 0.000090 0
0.001488 0.000041 0
0.001473 0.000013 0
0.001462 0.000002 0
0.001451 0.000003 0
0.001438 0.000010 0
0.001421 0.000021 0
0.001402 0.000031 0
0.001380 0.000040 0
0.001354 0.000048 0
0.001326 0.000055 0
0.001294 0.000062 0
0.001260 0.000070 0
0.001221 0.000079 0
0.001178 0.000091 0
0.001129 0.000107 0
0.001073 0.000130 0
0.001006 0.000165 0
0.000926 0.000219 0
0.000827 0.000300 0
0.000705 0.000413 0
0.000557 0.000550 0
0.000389 0.000676 0
0.000216 0.000713 0
0.000070 0.000538 0
0.000000 0.000189 0
0.000000 0.000000 0
0.000000 0.000000 0
0.000000 0.000000 0
0.000000 -0.000029 0
0.000034 -0.000124 0
0.000125 -0.000256 0
0.000268 -0.000377 0
0.000453 -0.000473 0
0.000667 -0.000534 0
0.000895 -0.000555 0
0.001120 -0.000538 0
0.001329 -0.000489 0
0.001511 -0.000416 0
0.001658 -0.000331 0
0.001769 -0.000243 0
0.001845 -0.000159 0
0.001890 -0.000087 0
0.001909 -0.000028 0
0.001908 0.000016 0
0.001893 0.000046 0
0.001868 0.000065 0
0.001838 0.000075 0
0.001805 0.000077 0
0.001773 0.000074 0
0.001742 0.000068 0
0.001714 0.000061 0
0.001688 0.000052 0
0.001666 0.000044 0
0.001647 0.000036 0
0.001631 0.000029 0
0.001618 0.000022 0
0.001608 0.000016 0
0.001600 0.000010 0
0.001595 0.000004 0
0.001593 -0.000001 0
0.001593 -0.000006 0
0.001595 -0.000011 0
0.001600 -0.000017 0
0.001606 -0.000023 0
0.001616 -0.000029 0
0.001628 -0.000036 0
0.001643 -0.000043 0
0.001660 -0.000051 0
0.001681 -0.000061 0
0.001705 -0.000071 0
0.001733 -0.000084 0
0.001764 -0.000098 0
0.001800 -0.000114 0
0.001840 -0.000133 0
0.001885 -0.000156 0
0.001935 -0.000183 0
0.001989 -0.000215 0
0.002046 -0.000252 0
0.002101 -0.000289 0
0.002146 -0.000319 0
0.002165 -0.000319 0
0.002128 -0.000237 0
0.001987 0.000030 0
0.001676 0.000659 0
0.001140 0.001784 0
0.000449 0.002743 0
0.000000 0.001504 0
0.000000 -0.000762 0
0.000309 -0.001915 0
0.000797 -0.002123 0
0.001227 -0.001571 0
0.001510 -0.000851 0
0.001646 -0.000252 0
0.001671 0.000131 0
0.001632 0.000310 0
0.001569 0.000340 0
0.001505 0.000287 0
0.001453 0.000202 0
0.001415 0.000122 0
0.001387 0.000063 0
0.001366 0.000029 0
0.001346 0.000017 0
0.001326 0.000019 0
0.001303 0.000029 0
0.001277 0.000043 0
0.001249 0.000056 0
0.001217 0.000068 0
0.001184 0.000079 0
0.001147 0.000089 0
0.001108 0.000099 0
0.001065 0.000111 0
0.001019 0.000124 0
0.000969 0.000141 0
0.000914 0.000164 0
0.000852 0.000195 0
0.000783 0.000241 0
0.000703 0.000310 0
0.000610 0.000408 0
0.000503 0.000541 0
0.000381 0.000694 0
0.000253 0.000826 0
0.000131 0.000848 0
0.000038 0.000624 0
0.000000 0.000216 0
0.000000 0.000000 0
0.000000 0.000000 0
0.000000 0.000000 0
0.000000 -0.000047 0
0.000039 -0.000192 0
0.000144 -0.000383 0
0.000309 -0.000554 0
0.000522 -0.000688 0
0.000767 -0.000771 0
0.001026 -0.000798 0
0.001279 -0.000769 0
0.001510 -0.000695 0
0.001706 -0.000588 0
0.001861 -0.000465 0
0.001973 -0.000338 0
0.002046 -0.000220 0
0.002084 -0.000117 0
0.002094 -0.000035 0
0.002083 0.000027 0
0.002057 0.000070 0
0.002023 0.000097 0
0.001984 0.000110 0
0.001943 0.000113 0
0.001904 0.000109 0
0.001866 0.000101 0
0.001832 0.000090 0
0.001801 0.000079 0
0.001775 0.000067 0
0.001751 0.000056 0
0.001732 0.000045 0
0.001716 0.000035 0
0.001703 0.000026 0
0.001693 0.000017 0
0.001686 0.000009 0
0.001683 0.000001 0
0.001682 -0.000007 0
0.001683 -0.000014 0
0.001687 -0.000022 0
0.001694 -0.000031 0
0.001704 -0.000040 0
0.001716 -0.000049 0
0.001731 -0.000059 0
0.001749 -0.000071 0
0.001770 -0.000083 0
0.001793 -0.000097 0
0.001820 -0.000113 0
0.001850 -0.000131 0
0.001883 -0.000151 0
0.001918 -0.000174 0
0.001957 -0.000200 0
0.001998 -0.000231 0
0.002039 -0.000264 0
0.002078 -0.000297 0
0.002109 -0.000325 0
0.002122 -0.000330 0
0.002100 -0.000282 0
0.002013 -0.000115 0
0.001820 0.000289 0
0.001474 0.001100 0
0.000949 0.002379 0
0.000343 0.003261 0
0.000000 0.001698 0
0.000000 -0.000910 0
0.000279 -0.002295 0
0.000719 -0.002561 0
0.001103 -0.001910 0
0.001354 -0.001049 0
0.001471 -0.000328 0
0.001490 0.000138 0
0.001454 0.000358 0
0.001396 0.000400 0
0.001339 0.000342 0
0.001290 0.000246 0
0.001251 0.000156 0
0.001220 0.000090 0
0.001191 0.000054 0
0.001161 0.000042 0
0.001130 0.000046 0
0.001097 0.000059 0
0.001061 0.000075 0
0.001024 0.000090 0
0.000984 0.000105 0
0.000943 0.000118 0
0.000899 0.000131 0
0.000853 0.000144 0
0.000805 0.000158 0
0.000754 0.000175 0
0.000700 0.000196 0
0.000643 0.000223 0
0.000583 0.000261 0
0.000517 0.000314 0
0.000447 0.000391 0
0.000370 0.000500 0
0.000288 0.000641 0
0.000202 0.000799 0
0.000120 0.000926 0
0.000053 0.000927 0
0.000011 0.000669 0
0.000000 0.000228 0
0.000000 0.000000 0
0.000000 0.000000 0
0.000000 0.000000 0
0.000000 -0.000067 0
0.000041 -0.000268 0
0.000158 -0.000526 0
0.000341 -0.000754 0
0.000579 -0.000931 0
0.000853 -0.001038 0
0.001139 -0.001067 0
0.001415 -0.001022 0
0.001661 -0.000915 0
0.001863 -0.000767 0
0.002015 -0.000598 0
0.002118 -0.000427 0
0.002176 -0.000270 0
0.002197 -0.000135 0
0.002189 -0.000028 0
0.002160 0.000052 0
0.002118 0.000106 0
0.002069 0.000139 0
0.002017 0.000154 0
0.001966 0.000157 0
0.001917 0.000151 0
0.001873 0.000140 0
0.001832 0.000126 0
0.001796 0.000110 0
0.001765 0.000094 0
0.001738 0.000079 0
0.001716 0.000065 0
0.001697 0.000051 0
0.001683 0.000038 0
0.001672 0.000026 0
0.001664 0.000015 0
0.001660 0.000004 0
0.001659 -0.000007 0
0.001661 -0.000017 0
0.001665 -0.000028 0
0.001672 -0.000039 0
0.001682 -0.000050 0
0.001695 -0.000063 0
0.001710 -0.000076 0
0.001728 -0.000090 0
0.001747 -0.000105 0
0.001770 -0.000122 0
0.001794 -0.000140 0
0.001820 -0.000160 0
0.001848 -0.000182 0
0.001878 -0.000208 0
0.001908 -0.000235 0
0.001938 -0.000265 0
0.001965 -0.000296 0
0.001987 -0.000322 0
0.001998 -0.000333 0
0.001987 -0.000310 0
0.001939 -0.000209 0
0.001828 0.000043 0
0.001617 0.000570 0
0.001274 0.001531 0
0.000789 0.002914 0
0.000267 0.003692 0
0.000000 0.001848 0
0.000000 -0.001042 0
0.000248 -0.002635 0
0.000636 -0.002947 0
0.000968 -0.002206 0
0.001179 -0.001218 0
0.001273 -0.000389 0
0.001283 0.000148 0
0.001247 0.000403 0
0.001195 0.000455 0
0.001142 0.000393 0
0.001096 0.000289 0
0.001057 0.000192 0
0.001020 0.000124 0
0.000983 0.000087 0
0.000945 0.000077 0
0.000904 0.000083 0
0.000861 0.000098 0
0.000816 0.000116 0
0.000771 0.000133 0
0.000724 0.000149 0
0.000676 0.000163 0
0.000628 0.000178 0
0.000578 0.000193 0
0.000527 0.000210 0
0.000474 0.000229 0
0.000420 0.000252 0
0.000366 0.000281 0
0.000311 0.000321 0
0.000255 0.000377 0
0.000200 0.000457 0
0.000144 0.000567 0
0.000091 0.000709 0
0.000043 0.000862 0
0.000007 0.000975 0
-0.000010 0.000956 0
-0.000009 0.000677 0
0.000000 0.000227 0
0.000000 0.000000 0
0.000000 0.000000 0
0.000000 0.000000 0
0.000000 -0.000088 0
0.000043 -0.000350 0
0.000167 -0.000683 0
0.000367 -0.000975 0
0.000629 -0.001199 0
0.000929 -0.001331 0
0.001240 -0.001360 0
0.001534 -0.001291 0
0.001787 -0.001143 0
0.001987 -0.000943 0
0.002126 -0.000720 0
0.002209 -0.000499 0
0.002241 -0.000298 0
0.002234 -0.000130 0
0.002198 0.000002 0
0.002143 0.000098 0
0.002078 0.000161 0
0.002008 0.000198 0
0.001940 0.000213 0
0.001875 0.000213 0
0.001815 0.000203 0
0.001762 0.000186 0
0.001715 0.000167 0
0.001674 0.000146 0
0.001640 0.000125 0
0.001611 0.000105 0
0.001587 0.000086 0
0.001568 0.000068 0
0.001554 0.000052 0
0.001544 0.000036 0
0.001537 0.000021 0
0.001534 0.000007 0
0.001535 -0.000007 0
0.001538 -0.000021 0
0.001544 -0.000034 0
0.001553 -0.000048 0
0.001564 -0.000062 0
0.001578 -0.000077 0
0.001594 -0.000092 0
0.001611 -0.000108 0
0.001630 -0.000125 0
0.001651 -0.000144 0
0.001673 -0.000163 0
0.001695 -0.000185 0
0.001718 -0.000208 0
0.001740 -0.000233 0
0.001762 -0.000260 0
0.001781 -0.000288 0
0.001797 -0.000313 0
0.001806 -0.000330 0
0.001804 -0.000325 0
0.001782 -0.000272 0
0.001725 -0.000122 0
0.001609 0.000207 0
0.001407 0.000843 0
0.001089 0.001928 0
0.000656 0.003385 0
0.000210 0.004051 0
0.000000 0.001965 0
0.000000 -0.001159 0
0.000219 -0.002932 0
0.000553 -0.003281 0
0.000833 -0.002454 0
0.001004 -0.001355 0
0.001074 -0.000432 0
0.001073 0.000163 0
0.001037 0.000446 0
0.000989 0.000505 0
0.000941 0.000440 0
0.000897 0.000332 0
0.000855 0.000232 0
0.000814 0.000163 0
0.000770 0.000129 0
0.000723 0.000121 0
0.000674 0.000130 0
0.000623 0.000146 0
0.000572 0.000165 0
0.000521 0.000182 0
0.000470 0.000198 0
0.000419 0.000214 0
0.000368 0.000229 0
0.000316 0.000245 0
0.000265 0.000262 0
0.000214 0.000281 0
0.000164 0.000304 0
0.000115 0.000333 0
0.000069 0.000371 0
0.000027 0.000425 0
-0.000012 0.000502 0
-0.000045 0.000609 0
-0.000070 0.000742 0
-0.000082 0.000883 0
-0.000078 0.000979 0
-0.000056 0.000944 0
-0.000023 0.000658 0
0.000000 0.000218 0
0.000000 0.000000 0
0.000000 0.000000 0
0.000000 0.000000 0
0.000000 -0.000109 0
0.000043 -0.000435 0
0.000175 -0.000851 0
0.000391 -0.001216 0
0.000676 -0.001492 0
0.001001 -0.001649 0
0.001332 -0.001671 0
0.001638 -0.001569 0
0.001891 -0.001368 0
0.002079 -0.001106 0
0.002195 -0.000820 0
0.002246 -0.000542 0
0.002242 -0.000295 0
0.002196 -0.000092 0
0.002122 0.000064 0
0.002031 0.000173 0
0.001934 0.000242 0
0.001839 0.000277 0
0.001749 0.000288 0
0.001667 0.000282 0
0.001596 0.000264 0
0.001534 0.000240 0
0.001481 0.000213 0
0.001437 0.000185 0
0.001402 0.000158 0
0.001374 0.000132 0
0.001352 0.000107 0
0.001336 0.000084 0
0.001325 0.000063 0
0.001319 0.000043 0
0.001317 0.000024 0
0.001318 0.000007 0
0.001323 -0.000010 0
0.001330 -0.000026 0
0.001340 -0.000043 0
0.001352 -0.000059 0
0.001367 -0.000075 0
0.001383 -0.000092 0
0.001400 -0.000109 0
0.001418 -0.000126 0
0.001438 -0.000145 0
0.001457 -0.000164 0
0.001477 -0.000184 0
0.001496 -0.000205 0
0.001514 -0.000227 0
0.001530 -0.000251 0
0.001544 -0.000276 0
0.001555 -0.000300 0
0.001563 -0.000320 0
0.001565 -0.000329 0
0.001559 -0.000309 0
0.001536 -0.000230 0
0.001484 -0.000037 0
0.001383 0.000360 0
0.001204 0.001091 0
0.000922 0.002282 0
0.000543 0.003793 0
0.000165 0.004348 0
0.000000 0.002058 0
0.000000 -0.001261 0
0.000191 -0.003188 0
0.000476 -0.003563 0
0.000707 -0.002657 0
0.000839 -0.001459 0
0.000885 -0.000458 0
0.000876 0.000184 0
0.000839 0.000488 0
0.000794 0.000551 0
0.000749 0.000484 0
0.000707 0.000374 0
0.000663 0.000275 0
0.000618 0.000209 0
0.000568 0.000177 0
0.000516 0.000172 0
0.000461 0.000183 0
0.000406 0.000200 0
0.000351 0.000218 0
0.000297 0.000235 0
0.000244 0.000251 0
0.000192 0.000266 0
0.000141 0.000280 0
0.000091 0.000295 0
0.000043 0.000312 0
-0.000004 0.000330 0
-0.000048 0.000350 0
-0.000088 0.000376 0
-0.000123 0.000409 0
-0.000153 0.000458 0
-0.000174 0.000528 0
-0.000186 0.000625 0
-0.000186 0.000746 0
-0.000169 0.000869 0
-0.000134 0.000948 0
-0.000084 0.000901 0
-0.000031 0.000621 0
0.000000 0.000204 0
0.000000 0.000000 0
0.000000 0.000000 0
0.000000 0.000000 0
0.000000 -0.000131 0
0.000044 -0.000524 0
0.000184 -0.001031 0
0.000418 -0.001476 0
0.000725 -0.001809 0
0.001072 -0.001987 0
0.001418 -0.001996 0
0.001727 -0.001849 0
0.001971 -0.001583 0
0.002135 -0.001246 0
0.002217 -0.000887 0
0.002225 -0.000545 0
0.002173 -0.000248 0
0.002077 -0.000009 0
0.001953 0.000167 0
0.001818 0.000286 0
0.001682 0.000354 0
0.001555 0.000383 0
0.001440 0.000384 0
0.001340 0.000366 0
0.001256 0.000336 0
0.001188 0.000301 0
0.001133 0.000263 0
0.001091 0.000225 0
0.001059 0.000189 0
0.001037 0.000155 0
0.001023 0.000124 0
0.001015 0.000095 0
0.001013 0.000069 0
0.001015 0.000045 0
0.001021 0.000022 0
0.001030 0.000001 0
0.001042 -0.000019 0
0.001056 -0.000038 0
0.001073 -0.000056 0
0.001091 -0.000074 0
0.001110 -0.000092 0
0.001130 -0.000110 0
0.001151 -0.000128 0
0.001171 -0.000146 0
0.001191 -0.000164 0
0.001211 -0.000183 0
0.001229 -0.000202 0
0.001246 -0.000222 0
0.001260 -0.000242 0
0.001272 -0.000263 0