# vtk DataFile Version 2.0
generated by CFD-lab course output (written by Tobias Neckel) 
ASCII

DATASET STRUCTURED_GRID
DIMENSIONS  99 49 1 
POINTS 4851 float

0.000000 0.000000 0
0.020000 0.000000 0
0.040000 0.000000 0
0.060000 0.000000 0
0.080000 0.000000 0
0.100000 0.000000 0
0.120000 0.000000 0
0.140000 0.000000 0
0.160000 0.000000 0
0.180000 0.000000 0
0.200000 0.000000 0
0.220000 0.000000 0
0.240000 0.000000 0
0.260000 0.000000 0
0.280000 0.000000 0
0.300000 0.000000 0
0.320000 0.000000 0
0.340000 0.000000 0
0.360000 0.000000 0
0.380000 0.000000 0
0.400000 0.000000 0
0.420000 0.000000 0
0.440000 0.000000 0
0.460000 0.000000 0
0.480000 0.000000 0
0.500000 0.000000 0
0.520000 0.000000 0
0.540000 0.000000 0
0.560000 0.000000 0
0.580000 0.000000 0
0.600000 0.000000 0
0.620000 0.000000 0
0.640000 0.000000 0
0.660000 0.000000 0
0.680000 0.000000 0
0.700000 0.000000 0
0.720000 0.000000 0
0.740000 0.000000 0
0.760000 0.000000 0
0.780000 0.000000 0
0.800000 0.000000 0
0.820000 0.000000 0
0.840000 0.000000 0
0.860000 0.000000 0
0.880000 0.000000 0
0.900000 0.000000 0
0.920000 0.000000 0
0.940000 0.000000 0
0.960000 0.000000 0
0.980000 0.000000 0
1.000000 0.000000 0
1.020000 0.000000 0
1.040000 0.000000 0
1.060000 0.000000 0
1.080000 0.000000 0
1.100000 0.000000 0
1.120000 0.000000 0
1.140000 0.000000 0
1.160000 0.000000 0
1.180000 0.000000 0
1.200000 0.000000 0
1.220000 0.000000 0
1.240000 0.000000 0
1.260000 0.000000 0
1.280000 0.000000 0
1.300000 0.000000 0
1.320000 0.000000 0
1.340000 0.000000 0
1.360000 0.000000 0
1.380000 0.000000 0
1.400000 0.000000 0
1.420000 0.000000 0
1.440000 0.000000 0
1.460000 0.000000 0
1.480000 0.000000 0
1.500000 0.000000 0
1.520000 0.000000 0
1.540000 0.000000 0
1.560000 0.000000 0
1.580000 0.000000 0
1.600000 0.000000 0
1.620000 0.000000 0
1.640000 0.000000 0
1.660000 0.000000 0
1.680000 0.000000 0
1.700000 0.000000 0
1.720000 0.000000 0
1.740000 0.000000 0
1.760000 0.000000 0
1.780000 0.000000 0
1.800000 0.000000 0
1.820000 0.000000 0
1.840000 0.000000 0
1.860000 0.000000 0
1.880000 0.000000 0
1.900000 0.000000 0
1.920000 0.000000 0
1.940000 0.000000 0
1.960000 0.000000 0
0.000000 0.020000 0
0.020000 0.020000 0
0.040000 0.020000 0
0.060000 0.020000 0
0.080000 0.020000 0
0.100000 0.020000 0
0.120000 0.020000 0
0.140000 0.020000 0
0.160000 0.020000 0
0.180000 0.020000 0
0.200000 0.020000 0
0.220000 0.020000 0
0.240000 0.020000 0
0.260000 0.020000 0
0.280000 0.020000 0
0.300000 0.020000 0
0.320000 0.020000 0
0.340000 0.020000 0
0.360000 0.020000 0
0.380000 0.020000 0
0.400000 0.020000 0
0.420000 0.020000 0
0.440000 0.020000 0
0.460000 0.020000 0
0.480000 0.020000 0
0.500000 0.020000 0
0.520000 0.020000 0
0.540000 0.020000 0
0.560000 0.020000 0
0.580000 0.020000 0
0.600000 0.020000 0
0.620000 0.020000 0
0.640000 0.020000 0
0.660000 0.020000 0
0.680000 0.020000 0
0.700000 0.020000 0
0.720000 0.020000 0
0.740000 0.020000 0
0.760000 0.020000 0
0.780000 0.020000 0
0.800000 0.020000 0
0.820000 0.020000 0
0.840000 0.020000 0
0.860000 0.020000 0
0.880000 0.020000 0
0.900000 0.020000 0
0.920000 0.020000 0
0.940000 0.020000 0
0.960000 0.020000 0
0.980000 0.020000 0
1.000000 0.020000 0
1.020000 0.020000 0
1.040000 0.020000 0
1.060000 0.020000 0
1.080000 0.020000 0
1.100000 0.020000 0
1.120000 0.020000 0
1.140000 0.020000 0
1.160000 0.020000 0
1.180000 0.020000 0
1.200000 0.020000 0
1.220000 0.020000 0
1.240000 0.020000 0
1.260000 0.020000 0
1.280000 0.020000 0
1.300000 0.020000 0
1.320000 0.020000 0
1.340000 0.020000 0
1.360000 0.020000 0
1.380000 0.020000 0
1.400000 0.020000 0
1.420000 0.020000 0
1.440000 0.020000 0
1.460000 0.020000 0
1.480000 0.020000 0
1.500000 0.020000 0
1.520000 0.020000 0
1.540000 0.020000 0
1.560000 0.020000 0
1.580000 0.020000 0
1.600000 0.020000 0
1.620000 0.020000 0
1.640000 0.020000 0
1.660000 0.020000 0
1.680000 0.020000 0
1.700000 0.020000 0
1.720000 0.020000 0
1.740000 0.020000 0
1.760000 0.020000 0
1.780000 0.020000 0
1.800000 0.020000 0
1.820000 0.020000 0
1.840000 0.020000 0
1.860000 0.020000 0
1.880000 0.020000 0
1.900000 0.020000 0
1.920000 0.020000 0
1.940000 0.020000 0
1.960000 0.020000 0
0.000000 0.040000 0
0.020000 0.040000 0
0.040000 0.040000 0
0.060000 0.040000 0
0.080000 0.040000 0
0.100000 0.040000 0
0.120000 0.040000 0
0.140000 0.040000 0
0.160000 0.040000 0
0.180000 0.040000 0
0.200000 0.040000 0
0.220000 0.040000 0
0.240000 0.040000 0
0.260000 0.040000 0
0.280000 0.040000 0
0.300000 0.040000 0
0.320000 0.040000 0
0.340000 0.040000 0
0.360000 0.040000 0
0.380000 0.040000 0
0.400000 0.040000 0
0.420000 0.040000 0
0.440000 0.040000 0
0.460000 0.040000 0
0.480000 0.040000 0
0.500000 0.040000 0
0.520000 0.040000 0
0.540000 0.040000 0
0.560000 0.040000 0
0.580000 0.040000 0
0.600000 0.040000 0
0.620000 0.040000 0
0.640000 0.040000 0
0.660000 0.040000 0
0.680000 0.040000 0
0.700000 0.040000 0
0.720000 0.040000 0
0.740000 0.040000 0
0.760000 0.040000 0
0.780000 0.040000 0
0.800000 0.040000 0
0.820000 0.040000 0
0.840000 0.040000 0
0.860000 0.040000 0
0.880000 0.040000 0
0.900000 0.040000 0
0.920000 0.040000 0
0.940000 0.040000 0
0.960000 0.040000 0
0.980000 0.040000 0
1.000000 0.040000 0
1.020000 0.040000 0
1.040000 0.040000 0
1.060000 0.040000 0
1.080000 0.040000 0
1.100000 0.040000 0
1.120000 0.040000 0
1.140000 0.040000 0
1.160000 0.040000 0
1.180000 0.040000 0
1.200000 0.040000 0
1.220000 0.040000 0
1.240000 0.040000 0
1.260000 0.040000 0
1.280000 0.040000 0
1.300000 0.040000 0
1.320000 0.040000 0
1.340000 0.040000 0
1.360000 0.040000 0
1.380000 0.040000 0
1.400000 0.040000 0
1.420000 0.040000 0
1.440000 0.040000 0
1.460000 0.040000 0
1.480000 0.040000 0
1.500000 0.040000 0
1.520000 0.040000 0
1.540000 0.040000 0
1.560000 0.040000 0
1.580000 0.040000 0
1.600000 0.040000 0
1.620000 0.040000 0
1.640000 0.040000 0
1.660000 0.040000 0
1.680000 0.040000 0
1.700000 0.040000 0
1.720000 0.040000 0
1.740000 0.040000 0
1.760000 0.040000 0
1.780000 0.040000 0
1.800000 0.040000 0
1.820000 0.040000 0
1.840000 0.040000 0
1.860000 0.040000 0
1.880000 0.040000 0
1.900000 0.040000 0
1.920000 0.040000 0
1.940000 0.040000 0
1.960000 0.040000 0
0.000000 0.060000 0
0.020000 0.060000 0
0.040000 0.060000 0
0.060000 0.060000 0
0.080000 0.060000 0
0.100000 0.060000 0
0.120000 0.060000 0
0.140000 0.060000 0
0.160000 0.060000 0
0.180000 0.060000 0
0.200000 0.060000 0
0.220000 0.060000 0
0.240000 0.060000 0
0.260000 0.060000 0
0.280000 0.060000 0
0.300000 0.060000 0
0.320000 0.060000 0
0.340000 0.060000 0
0.360000 0.060000 0
0.380000 0.060000 0
0.400000 0.060000 0
0.420000 0.060000 0
0.440000 0.060000 0
0.460000 0.060000 0
0.480000 0.060000 0
0.500000 0.060000 0
0.520000 0.060000 0
0.540000 0.060000 0
0.560000 0.060000 0
0.580000 0.060000 0
0.600000 0.060000 0
0.620000 0.060000 0
0.640000 0.060000 0
0.660000 0.060000 0
0.680000 0.060000 0
0.700000 0.060000 0
0.720000 0.060000 0
0.740000 0.060000 0
0.760000 0.060000 0
0.780000 0.060000 0
0.800000 0.060000 0
0.820000 0.060000 0
0.840000 0.060000 0
0.860000 0.060000 0
0.880000 0.060000 0
0.900000 0.060000 0
0.920000 0.060000 0
0.940000 0.060000 0
0.960000 0.060000 0
0.980000 0.060000 0
1.000000 0.060000 0
1.020000 0.060000 0
1.040000 0.060000 0
1.060000 0.060000 0
1.080000 0.060000 0
1.100000 0.060000 0
1.120000 0.060000 0
1.140000 0.060000 0
1.160000 0.060000 0
1.180000 0.060000 0
1.200000 0.060000 0
1.220000 0.060000 0
1.240000 0.060000 0
1.260000 0.060000 0
1.280000 0.060000 0
1.300000 0.060000 0
1.320000 0.060000 0
1.340000 0.060000 0
1.360000 0.060000 0
1.380000 0.060000 0
1.400000 0.060000 0
1.420000 0.060000 0
1.440000 0.060000 0
1.460000 0.060000 0
1.480000 0.060000 0
1.500000 0.060000 0
1.520000 0.060000 0
1.540000 0.060000 0
1.560000 0.060000 0
1.580000 0.060000 0
1.600000 0.060000 0
1.620000 0.060000 0
1.640000 0.060000 0
1.660000 0.060000 0
1.680000 0.060000 0
1.700000 0.060000 0
1.720000 0.060000 0
1.740000 0.060000 0
1.760000 0.060000 0
1.780000 0.060000 0
1.800000 0.060000 0
1.820000 0.060000 0
1.840000 0.060000 0
1.860000 0.060000 0
1.880000 0.060000 0
1.900000 0.060000 0
1.920000 0.060000 0
1.940000 0.060000 0
1.960000 0.060000 0
0.000000 0.080000 0
0.020000 0.080000 0
0.040000 0.080000 0
0.060000 0.080000 0
0.080000 0.080000 0
0.100000 0.080000 0
0.120000 0.080000 0
0.140000 0.080000 0
0.160000 0.080000 0
0.180000 0.080000 0
0.200000 0.080000 0
0.220000 0.080000 0
0.240000 0.080000 0
0.260000 0.080000 0
0.280000 0.080000 0
0.300000 0.080000 0
0.320000 0.080000 0
0.340000 0.080000 0
0.360000 0.080000 0
0.380000 0.080000 0
0.400000 0.080000 0
0.420000 0.080000 0
0.440000 0.080000 0
0.460000 0.080000 0
0.480000 0.080000 0
0.500000 0.080000 0
0.520000 0.080000 0
0.540000 0.080000 0
0.560000 0.080000 0
0.580000 0.080000 0
0.600000 0.080000 0
0.620000 0.080000 0
0.640000 0.080000 0
0.660000 0.080000 0
0.680000 0.080000 0
0.700000 0.080000 0
0.720000 0.080000 0
0.740000 0.080000 0
0.760000 0.080000 0
0.780000 0.080000 0
0.800000 0.080000 0
0.820000 0.080000 0
0.840000 0.080000 0
0.860000 0.080000 0
0.880000 0.080000 0
0.900000 0.080000 0
0.920000 0.080000 0
0.940000 0.080000 0
0.960000 0.080000 0
0.980000 0.080000 0
1.000000 0.080000 0
1.020000 0.080000 0
1.040000 0.080000 0
1.060000 0.080000 0
1.080000 0.080000 0
1.100000 0.080000 0
1.120000 0.080000 0
1.140000 0.080000 0
1.160000 0.080000 0
1.180000 0.080000 0
1.200000 0.080000 0
1.220000 0.080000 0
1.240000 0.080000 0
1.260000 0.080000 0
1.280000 0.080000 0
1.300000 0.080000 0
1.320000 0.080000 0
1.340000 0.080000 0
1.360000 0.080000 0
1.380000 0.080000 0
1.400000 0.080000 0
1.420000 0.080000 0
1.440000 0.080000 0
1.460000 0.080000 0
1.480000 0.080000 0
1.500000 0.080000 0
1.520000 0.080000 0
1.540000 0.080000 0
1.560000 0.080000 0
1.580000 0.080000 0
1.600000 0.080000 0
1.620000 0.080000 0
1.640000 0.080000 0
1.660000 0.080000 0
1.680000 0.080000 0
1.700000 0.080000 0
1.720000 0.080000 0
1.740000 0.080000 0
1.760000 0.080000 0
1.780000 0.080000 0
1.800000 0.080000 0
1.820000 0.080000 0
1.840000 0.080000 0
1.860000 0.080000 0
1.880000 0.080000 0
[...]
POINT_DATA 4851 

VECTORS velocity float
0.000000 0.000000 0
0.000086 0.000000 0
0.000206 0.000000 0
0.000296 0.000000 0
0.000339 0.000000 0
0.000345 0.000000 0
0.000330 0.000000 0
0.000307 0.000000 0
0.000284 0.000000 0
0.000265 0.000000 0
0.000253 0.000000 0
0.000246 0.000000 0
0.000244 0.000000 0
0.000243 0.000000 0
0.000244 0.000000 0
0.000246 0.000000 0
0.000246 0.000000 0
0.000246 0.000000 0
0.000246 0.000000 0
0.000245 0.000000 0
0.000244 0.000000 0
0.000242 0.000000 0
0.000241 0.000000 0
0.000239 0.000000 0
0.000237 0.000000 0
0.000235 0.000000 0
0.000232 0.000000 0
0.000230 0.000000 0
0.000226 0.000000 0
0.000222 0.000000 0
0.000214 0.000000 0
0.000200 0.000000 0
0.000177 0.000000 0
0.000138 0.000000 0
0.000086 0.000000 0
0.000030 0.000000 0
0.000000 0.000000 0
0.000000 0.000000 0
0.000000 0.000000 0
0.000000 0.000000 0
0.000000 0.000000 0
-0.000007 0.000000 0
-0.000014 0.000000 0
-0.000011 0.000000 0
0.000005 0.000000 0
0.000037 0.000000 0
0.000082 0.000000 0
0.000137 0.000000 0
0.000196 0.000000 0
0.000253 0.000000 0
0.000302 0.000000 0
0.000341 0.000000 0
0.000368 0.000000 0
0.000380 0.000000 0
0.000381 0.000000 0
0.000372 0.000000 0
0.000356 0.000000 0
0.000336 0.000000 0
0.000313 0.000000 0
0.000291 0.000000 0
0.000270 0.000000 0
0.000252 0.000000 0
0.000237 0.000000 0
0.000225 0.000000 0
0.000216 0.000000 0
0.000209 0.000000 0
0.000204 0.000000 0
0.000201 0.000000 0
0.000199 0.000000 0
0.000198 0.000000 0
0.000197 0.000000 0
0.000197 0.000000 0
0.000196 0.000000 0
0.000196 0.000000 0
0.000197 0.000000 0
0.000197 0.000000 0
0.000197 0.000000 0
0.000198 0.000000 0
0.000199 0.000000 0
0.000200 0.000000 0
0.000202 0.000000 0
0.000204 0.000000 0
0.000206 0.000000 0
0.000209 0.000000 0
0.000213 0.000000 0
0.000218 0.000000 0
0.000224 0.000000 0
0.000232 0.000000 0
0.000242 0.000000 0
0.000256 0.000000 0
0.000274 0.000000 0
0.000299 0.000000 0
0.000335 0.000000 0
0.000386 0.000000 0
0.000457 0.000000 0
0.000542 0.000000 0
0.000591 0.000000 0
0.000451 0.000000 0
0.000000 0.000000 0
0.000000 -0.000086 0
0.000236 -0.000207 0
0.000578 -0.000211 0
0.000848 -0.000133 0
0.000997 -0.000050 0
0.001043 0.000008 0
0.001020 0.000037 0
0.000966 0.000046 0
0.000905 0.000041 0
0.000853 0.000030 0
0.000816 0.000018 0
0.000794 0.000009 0
0.000784 0.000002 0
0.000782 -0.000001 0
0.000784 -0.000003 0
0.000786 -0.000003 0
0.000787 -0.000002 0
0.000787 -0.000000 0
0.000785 0.000001 0
0.000781 0.000002 0
0.000776 0.000002 0
0.000770 0.000003 0
0.000763 0.000003 0
0.000755 0.000003 0
0.000746 0.000003 0
0.000736 0.000004 0
0.000725 0.000004 0
0.000712 0.000005 0
0.000695 0.000007 0
0.000672 0.000012 0
0.000637 0.000021 0
0.000584 0.000037 0
0.000502 0.000061 0
0.000385 0.000090 0
0.000235 0.000108 0
0.000084 0.000085 0
0.000000 0.000030 0
0.000000 0.000000 0
0.000000 0.000000 0
0.000000 0.000000 0
0.000000 0.000007 0
-0.000015 0.000014 0
-0.000023 0.000004 0
-0.000001 -0.000019 0
0.000064 -0.000048 0
0.000176 -0.000077 0
0.000327 -0.000100 0
0.000506 -0.000113 0
0.000696 -0.000116 0
0.000879 -0.000107 0
0.001041 -0.000089 0
0.001170 -0.000065 0
0.001260 -0.000039 0
0.001308 -0.000014 0
0.001317 0.000008 0
0.001294 0.000025 0
0.001247 0.000037 0
0.001183 0.000043 0
0.001112 0.000045 0
0.001040 0.000043 0
0.000972 0.000039 0
0.000911 0.000033 0
0.000859 0.000027 0
0.000818 0.000021 0
0.000785 0.000016 0
0.000760 0.000012 0
0.000742 0.000008 0
0.000729 0.000006 0
0.000720 0.000004 0
0.000714 0.000002 0
0.000709 0.000002 0
0.000707 0.000001 0
0.000705 0.000000 0
0.000704 0.000000 0
0.000704 -0.000000 0
0.000705 -0.000001 0
0.000706 -0.000001 0
0.000708 -0.000001 0
0.000711 -0.000002 0
0.000715 -0.000002 0
0.000720 -0.000003 0
0.000727 -0.000004 0
0.000735 -0.000005 0
0.000746 -0.000007 0
0.000759 -0.000008 0
0.000775 -0.000011 0
0.000795 -0.000014 0
0.000820 -0.000018 0
0.000853 -0.000023 0
0.000894 -0.000031 0
0.000947 -0.000043 0
0.001017 -0.000061 0
0.001108 -0.000087 0
0.001221 -0.000122 0
0.001350 -0.000155 0
0.001449 -0.000133 0
0.001388 0.000091 0
0.000903 0.000591 0
0.000000 0.000451 0
0.000000 -0.000237 0
0.000317 -0.000579 0
0.000793 -0.000613 0
0.001193 -0.000421 0
0.001439 -0.000196 0
0.001539 -0.000024 0
0.001537 0.000076 0
0.001479 0.000115 0
0.001403 0.000112 0
0.001334 0.000088 0
0.001281 0.000058 0
0.001248 0.000031 0
0.001231 0.000011 0
0.001225 -0.000000 0
0.001225 -0.000005 0
0.001225 -0.000005 0
0.001225 -0.000002 0
0.001222 0.000002 0
0.001217 0.000005 0
0.001208 0.000008 0
0.001198 0.000010 0
0.001185 0.000012 0
0.001171 0.000014 0
0.001154 0.000016 0
0.001135 0.000018 0
0.001114 0.000020 0
0.001089 0.000024 0
0.001060 0.000029 0
0.001022 0.000039 0
0.000973 0.000057 0
0.000905 0.000087 0
0.000809 0.000134 0
0.000677 0.000198 0
0.000504 0.000266 0
0.000301 0.000299 0
0.000108 0.000235 0
0.000000 0.000084 0
0.000000 0.000000 0
0.000000 0.000000 0
0.000000 0.000000 0
0.000000 0.000015 0
-0.000012 0.000023 0
-0.000003 -0.000014 0
0.000056 -0.000088 0
0.000183 -0.000177 0
0.000379 -0.000262 0
0.000634 -0.000330 0
0.000927 -0.000368 0
0.001234 -0.000373 0
0.001529 -0.000346 0
0.001791 -0.000291 0
0.002003 -0.000218 0
0.002154 -0.000137 0
0.002241 -0.000057 0
0.002266 0.000014 0
0.002238 0.000071 0
0.002169 0.000111 0
0.002071 0.000135 0
0.001958 0.000144 0
0.001841 0.000141 0
0.001729 0.000129 0
0.001628 0.000113 0
0.001541 0.000094 0
0.001468 0.000075 0
0.001411 0.000058 0
0.001366 0.000043 0
0.001332 0.000032 0
0.001307 0.000022 0
0.001288 0.000016 0
0.001275 0.000011 0
0.001265 0.000007 0
0.001258 0.000005 0
0.001253 0.000003 0
0.001250 0.000001 0
0.001248 -0.000000 0
0.001248 -0.000001 0
0.001249 -0.000003 0
0.001251 -0.000005 0
0.001256 -0.000007 0
0.001262 -0.000009 0
0.001270 -0.000011 0
0.001280 -0.000015 0
0.001294 -0.000018 0
0.001311 -0.000023 0
0.001331 -0.000029 0
0.001357 -0.000036 0
0.001389 -0.000045 0
0.001427 -0.000057 0
0.001475 -0.000073 0
0.001534 -0.000094 0
0.001605 -0.000123 0
0.001689 -0.000160 0
0.001784 -0.000204 0
0.001877 -0.000241 0
0.001931 -0.000227 0
0.001865 -0.000037 0
0.001530 0.000547 0
0.000796 0.001388 0
0.000000 0.000903 0
0.000000 -0.000404 0
0.000331 -0.001001 0
0.000844 -0.001087 0
0.001288 -0.000779 0
0.001576 -0.000397 0
0.001709 -0.000091 0
0.001727 0.000097 0
0.001679 0.000179 0
0.001607 0.000186 0
0.001536 0.000152 0
0.001481 0.000104 0
0.001444 0.000058 0
0.001424 0.000025 0
0.001414 0.000005 0
0.001409 -0.000003 0
0.001405 -0.000003 0
0.001400 0.000001 0
0.001392 0.000008 0
0.001381 0.000014 0
0.001367 0.000020 0
0.001350 0.000025 0
0.001330 0.000030 0
0.001307 0.000034 0
0.001282 0.000038 0
0.001254 0.000043 0
0.001221 0.000049 0
0.001183 0.000058 0
0.001139 0.000072 0
0.001084 0.000094 0
0.001015 0.000129 0
0.000926 0.000184 0
0.000808 0.000264 0
0.000658 0.000366 0
0.000475 0.000465 0
0.000275 0.000503 0
0.000095 0.000386 0
0.000000 0.000137 0
0.000000 0.000000 0
0.000000 0.000000 0
0.000000 0.000000 0
0.000000 0.000019 0
-0.000004 0.000017 0
0.000030 -0.000064 0
0.000130 -0.000206 0
0.000314 -0.000371 0
0.000578 -0.000528 0
0.000907 -0.000647 0
0.001274 -0.000713 0
0.001651 -0.000718 0
0.002011 -0.000664 0
0.002330 -0.000563 0
0.002589 -0.000428 0
0.002777 -0.000276 0
0.002888 -0.000125 0
0.002926 0.000011 0
0.002898 0.000123 0
0.002819 0.000204 0
0.002702 0.000254 0
0.002565 0.000275 0
0.002422 0.000272 0
0.002283 0.000253 0
0.002156 0.000222 0
0.002045 0.000187 0
0.001953 0.000152 0
0.001878 0.000119 0
0.001818 0.000091 0
0.001772 0.000068 0
0.001737 0.000050 0
0.001709 0.000036 0
0.001689 0.000026 0
0.001673 0.000018 0
0.001661 0.000013 0
0.001651 0.000009 0
0.001645 0.000005 0
0.001640 0.000002 0
0.001637 -0.000001 0
0.001637 -0.000004 0
0.001638 -0.000008 0
0.001642 -0.000012 0
0.001648 -0.000016 0
0.001657 -0.000022 0
0.001669 -0.000028 0
0.001684 -0.000035 0
0.001703 -0.000044 0
0.001727 -0.000055 0
0.001755 -0.000068 0
0.001790 -0.000084 0
0.001831 -0.000104 0
0.001879 -0.000129 0
0.001935 -0.000161 0
0.001998 -0.000199 0
0.002062 -0.000240 0
0.002117 -0.000274 0
0.002137 -0.000268 0
0.002076 -0.000143 0
0.001849 0.000268 0
0.001357 0.001160 0
0.000600 0.002122 0
0.000000 0.001247 0
0.000000 -0.000569 0
0.000318 -0.001423 0
0.000819 -0.001570 0
0.001260 -0.001153 0
0.001552 -0.000617 0
0.001693 -0.000175 0
0.001721 0.000105 0
0.001682 0.000234 0
0.001617 0.000255 0
0.001551 0.000214 0
0.001499 0.000149 0
0.001462 0.000088 0
0.001439 0.000042 0
0.001424 0.000014 0
0.001413 0.000003 0
0.001403 0.000004 0
0.001390 0.000011 0
0.001375 0.000020 0
0.001356 0.000030 0
0.001335 0.000039 0
0.001310 0.000047 0
0.001282 0.000054 0
0.001252 0.000062 0
0.001218 0.000069 0
0.001180 0.000079 0
0.001138 0.000090 0
0.001091 0.000106 0
0.001036 0.000128 0
0.000971 0.000163 0
0.000892 0.000215 0
0.000796 0.000293 0
0.000678 0.000402 0
0.000535 0.000531 0
0.000373 0.000649 0
0.000207 0.000680 0
0.000067 0.000509 0
0.000000 0.000178 0
0.000000 0.000000 0
0.000000 0.000000 0
0.000000 0.000000 0
0.000000 0.000019 0
0.000006 -0.000006 0
0.000066 -0.000148 0
0.000211 -0.000372 0
0.000449 -0.000624 0
0.000772 -0.000855 0
0.001155 -0.001026 0
0.001570 -0.001113 0
0.001985 -0.001110 0
0.002373 -0.001024 0
0.002714 -0.000869 0
0.002989 -0.000665 0
0.003190 -0.000436 0
0.003309 -0.000206 0
0.003350 0.000004 0
0.003319 0.000178 0
0.003231 0.000307 0
0.003103 0.000388 0
0.002952 0.000425 0
0.002793 0.000424 0
0.002639 0.000395 0
0.002499 0.000350 0
0.002376 0.000297 0
0.002272 0.000243 0
0.002187 0.000193 0
0.002119 0.000149 0
0.002064 0.000113 0
0.002021 0.000085 0
0.001986 0.000064 0
0.001959 0.000048 0
0.001937 0.000035 0
0.001920 0.000026 0
0.001906 0.000019 0
0.001895 0.000013 0
0.001887 0.000007 0
0.001881 0.000002 0
0.001878 -0.000004 0
0.001878 -0.000010 0
0.001880 -0.000016 0
0.001885 -0.000024 0
0.001893 -0.000032 0
0.001903 -0.000041 0
0.001918 -0.000052 0
0.001936 -0.000065 0
0.001958 -0.000081 0
0.001984 -0.000099 0
0.002015 -0.000120 0
0.002050 -0.000146 0
0.002089 -0.000177 0
0.002131 -0.000212 0
0.002171 -0.000249 0
0.002201 -0.000279 0
0.002206 -0.000279 0
0.002156 -0.000200 0
0.002003 0.000061 0
0.001683 0.000682 0
0.001142 0.001796 0
0.000449 0.002745 0
0.000000 0.001503 0
0.000000 -0.000723 0
0.000294 -0.001821 0
0.000760 -0.002029 0
0.001171 -0.001512 0
0.001444 -0.000830 0
0.001577 -0.000260 0
0.001604 0.000108 0
0.001570 0.000282 0
0.001511 0.000317 0
0.001452 0.000270 0
0.001403 0.000193 0
0.001366 0.000118 0
0.001340 0.000062 0
0.001319 0.000030 0
0.001301 0.000018 0
0.001281 0.000019 0
0.001259 0.000029 0
0.001235 0.000041 0
0.001208 0.000054 0
0.001178 0.000066 0
0.001146 0.000077 0
0.001110 0.000087 0
0.001073 0.000098 0
0.001031 0.000109 0
0.000987 0.000122 0
0.000938 0.000139 0
0.000884 0.000161 0
0.000825 0.000191 0
0.000757 0.000237 0
0.000680 0.000303 0
0.000590 0.000399 0
0.000486 0.000525 0
0.000368 0.000671 0
0.000244 0.000793 0
0.000127 0.000809 0
0.000037 0.000592 0
0.000000 0.000204 0
0.000000 0.000000 0
0.000000 0.000000 0
0.000000 0.000000 0
0.000000 0.000014 0
0.000017 -0.000049 0
0.000109 -0.000269 0
0.000302 -0.000588 0
0.000596 -0.000932 0
0.000972 -0.001234 0
0.001396 -0.001445 0
0.001836 -0.001542 0
0.002261 -0.001521 0
0.002648 -0.001393 0
0.002980 -0.001179 0
0.003244 -0.000903 0
0.003432 -0.000596 0
0.003539 -0.000285 0
0.003568 0.000002 0
0.003527 0.000241 0
0.003428 0.000420 0
0.003290 0.000533 0
0.003130 0.000585 0
0.002964 0.000585 0
0.002805 0.000547 0
0.002661 0.000486 0
0.002535 0.000414 0
0.002428 0.000341 0
0.002340 0.000273 0
0.002268 0.000214 0
0.002209 0.000166 0
0.002160 0.000127 0
0.002121 0.000098 0
0.002088 0.000075 0
0.002062 0.000058 0
0.002039 0.000045 0
0.002021 0.000034 0
0.002007 0.000024 0
0.001995 0.000016 0
0.001987 0.000008 0
0.001981 -0.000001 0
0.001978 -0.000009 0
0.001978 -0.000019 0
0.001981 -0.000029 0
0.001987 -0.000040 0
0.001995 -0.000053 0
0.002007 -0.000067 0
0.002021 -0.000084 0
0.002039 -0.000103 0
0.002060 -0.000124 0
0.002083 -0.000150 0
0.002108 -0.000178 0
0.002134 -0.000210 0
0.002157 -0.000242 0
0.002173 -0.000269 0
0.002171 -0.000275 0
0.002134 -0.000229 0
0.002035 -0.000066 0
0.001832 0.000330 0
0.001478 0.001129 0
0.000949 0.002394 0
0.000343 0.003264 0
0.000000 0.001696 0
0.000000 -0.000864 0
0.000266 -0.002185 0
0.000686 -0.002447 0
0.001054 -0.001837 0
0.001294 -0.001022 0
0.001408 -0.000335 0
0.001429 0.000111 0
0.001396 0.000327 0
0.001343 0.000373 0
0.001289 0.000322 0
0.001243 0.000234 0
0.001206 0.000150 0
0.001176 0.000088 0
0.001148 0.000053 0
0.001121 0.000041 0
0.001091 0.000045 0
0.001060 0.000057 0
0.001026 0.000072 0
0.000990 0.000087 0
0.000952 0.000101 0
0.000913 0.000114 0
0.000871 0.000127 0
0.000827 0.000140 0
0.000781 0.000155 0
0.000732 0.000172 0
0.000680 0.000192 0
0.000625 0.000219 0
0.000566 0.000255 0
0.000503 0.000307 0
0.000435 0.000382 0
0.000360 0.000487 0
0.000280 0.000623 0
0.000197 0.000773 0
0.000118 0.000890 0
0.000053 0.000886 0
0.000012 0.000636 0
0.000000 0.000216 0
0.000000 0.000000 0
0.000000 0.000000 0
0.000000 0.000000 0
0.000000 0.000002 0
0.000031 -0.000115 0
0.000162 -0.000433 0
0.000410 -0.000859 0
0.000762 -0.001294 0
0.001184 -0.001655 0
0.001636 -0.001890 0
0.002081 -0.001978 0
0.002493 -0.001922 0
0.002852 -0.001743 0
0.003148 -0.001464 0
0.003374 -0.001116 0
0.003525 -0.000731 0
0.003600 -0.000343 0
0.003602 0.000017 0
0.003538 0.000319 0
0.003423 0.000545 0
0.003273 0.000687 0
0.003108 0.000750 0
0.002942 0.000748 0
0.002785 0.000699 0
0.002646 0.000621 0
0.002525 0.000529 0
0.002423 0.000438 0
0.002338 0.000353 0
0.002267 0.000281 0
0.002208 0.000221 0
0.002158 0.000173 0
0.002116 0.000136 0
0.002081 0.000107 0
0.002050 0.000085 0
0.002025 0.000067 0
0.002004 0.000052 0
0.001987 0.000039 0
0.001973 0.000027 0
0.001963 0.000016 0
0.001955 0.000005 0
0.001951 -0.000007 0
0.001949 -0.000019 0
0.001950 -0.000032 0
0.001953 -0.000046 0
0.001959 -0.000061 0
0.001967 -0.000078 0
0.001978 -0.000097 0
0.001990 -0.000119 0
0.002003 -0.000142 0
0.002018 -0.000169 0
0.002032 -0.000197 0
0.002044 -0.000226 0
0.002051 -0.000251 0
0.002047 -0.000263 0
0.002022 -0.000240 0
0.001961 -0.000143 0
0.001839 0.000102 0
0.001621 0.000619 0
0.001272 0.001565 0
0.000786 0.002931 0
0.000265 0.003694 0
0.000000 0.001846 0
0.000000 -0.000990 0
0.000237 -0.002508 0
0.000607 -0.002817 0
0.000925 -0.002120 0
0.001127 -0.001185 0
0.001218 -0.000395 0
0.001229 0.000120 0
0.001196 0.000368 0
0.001147 0.000424 0
0.001097 0.000370 0
0.001054 0.000275 0
0.001016 0.000185 0
0.000981 0.000120 0
0.000946 0.000085 0
0.000910 0.000074 0
0.000871 0.000080 0
0.000830 0.000094 0
0.000788 0.000111 0
0.000745 0.000127 0
0.000700 0.000143 0
0.000655 0.000158 0
0.000609 0.000173 0
0.000561 0.000188 0
0.000512 0.000204 0
0.000461 0.000223 0
0.000410 0.000246 0
0.000357 0.000274 0
0.000304 0.000313 0
0.000251 0.000367 0
0.000197 0.000445 0
0.000144 0.000553 0
0.000092 0.000688 0
0.000045 0.000833 0
0.000010 0.000937 0
-0.000008 0.000915 0
-0.000008 0.000645 0
0.000000 0.000216 0
0.000000 0.000000 0
0.000000 0.000000 0
0.000000 0.000000 0
0.000000 -0.000017 0
0.000050 -0.000211 0
0.000229 -0.000648 0
0.000538 -0.001188 0
0.000946 -0.001706 0
0.001405 -0.002107 0
0.001868 -0.002342 0
0.002300 -0.002398 0
0.002676 -0.002291 0
0.002986 -0.002048 0
0.003224 -0.001700 0
0.003390 -0.001280 0
0.003482 -0.000821 0
0.003505 -0.000362 0
0.003463 0.000063 0
0.003365 0.000420 0
0.003225 0.000685 0
0.003063 0.000849 0
0.002895 0.000917 0
0.002733 0.000908 0
0.002587 0.000843 0
0.002460 0.000746 0
0.002352 0.000636 0
0.002262 0.000528 0
0.002185 0.000429 0
0.002120 0.000345 0
0.002065 0.000275 0
0.002017 0.000219 0
0.001976 0.000175 0
0.001940 0.000141 0
0.001910 0.000114 0
0.001884 0.000091 0
0.001863 0.000072 0
0.001845 0.000056 0
0.001832 0.000040 0
0.001821 0.000026 0
0.001814 0.000011 0
0.001809 -0.000003 0
0.001807 -0.000018 0
0.001807 -0.000033 0
0.001809 -0.000049 0
0.001813 -0.000067 0
0.001819 -0.000086 0
0.001825 -0.000106 0
0.001832 -0.000128 0
0.001840 -0.000152 0
0.001846 -0.000178 0
0.001850 -0.000204 0
0.001852 -0.000229 0
0.001847 -0.000245 0
0.001831 -0.000240 0
0.001797 -0.000189 0
0.001729 -0.000045 0
0.001607 0.000275 0
0.001400 0.000897 0
0.001080 0.001964 0
0.000649 0.003401 0
0.000207 0.004050 0
0.000000 0.001962 0
0.000000 -0.001101 0
0.000208 -0.002792 0
0.000528 -0.003135 0
0.000796 -0.002358 0
0.000960 -0.001316 0
0.001026 -0.000437 0
0.001027 0.000133 0
0.000993 0.000409 0
0.000947 0.000471 0
0.000901 0.000415 0
0.000859 0.000316 0
0.000819 0.000223 0
0.000780 0.000158 0
0.000738 0.000124 0
0.000694 0.000116 0
0.000648 0.000124 0
0.000600 0.000139 0
0.000551 0.000157 0
0.000503 0.000174 0
0.000454 0.000190 0
0.000405 0.000206 0
0.000356 0.000221 0
0.000307 0.000237 0
0.000258 0.000254 0
0.000210 0.000273 0
0.000162 0.000296 0
0.000115 0.000324 0
0.000071 0.000361 0
0.000030 0.000414 0
-0.000007 0.000489 0
-0.000039 0.000593 0
-0.000063 0.000721 0
-0.000075 0.000854 0
-0.000071 0.000942 0
-0.000051 0.000904 0
-0.000021 0.000628 0
0.000000 0.000208 0
0.000000 0.000000 0
0.000000 0.000000 0
0.000000 0.000000 0
0.000000 -0.000048 0
0.000075 -0.000344 0
0.000308 -0.000921 0
0.000679 -0.001575 0
0.001135 -0.002160 0
0.001618 -0.002577 0
0.002075 -0.002784 0
0.002475 -0.002785 0
0.002799 -0.002609 0
0.003043 -0.002290 0
0.003206 -0.001867 0
0.003294 -0.001374 0
0.003311 -0.000847 0
0.003264 -0.000323 0
0.003161 0.000157 0
0.003016 0.000556 0
0.002845 0.000846 0
0.002668 0.001018 0
0.002499 0.001080 0
0.002348 0.001056 0
0.002219 0.000972 0
0.002112 0.000856 0
0.002022 0.000728 0
0.001948 0.000605 0
0.001885 0.000495 0
0.001831 0.000401 0
0.001784 0.000324 0
0.001743 0.000262 0
0.001707 0.000213 0
0.001676 0.000173 0
0.001650 0.000141 0
0.001628 0.000114 0
0.001611 0.000091 0
0.001597 0.000071 0
0.001586 0.000052 0
0.001579 0.000034 0
0.001574 0.000017 0
0.001572 0.000000 0
0.001572 -0.000017 0
0.001573 -0.000034 0
0.001576 -0.000052 0
0.001580 -0.000071 0
0.001584 -0.000090 0
0.001589 -0.000111 0
0.001592 -0.000133 0
0.001595 -0.000156 0
0.001595 -0.000179 0
0.001593 -0.000203 0
0.001588 -0.000222 0
0.001578 -0.000231 0
0.001560 -0.000213 0
0.001529 -0.000138 0
0.001470 0.000047 0
0.001365 0.000432 0
0.001185 0.001145 0
0.000906 0.002316 0
0.000532 0.003805 0
0.000160 0.004343 0
0.000000 0.002052 0
0.000000 -0.001199 0
0.000182 -0.003037 0
0.000454 -0.003404 0
0.000675 -0.002552 0
0.000801 -0.001416 0
0.000846 -0.000463 0
0.000836 0.000153 0
0.000801 0.000448 0
0.000758 0.000515 0
0.000715 0.000457 0
0.000674 0.000356 0
0.000633 0.000264 0
0.000589 0.000201 0
0.000542 0.000170 0
0.000492 0.000165 0
0.000441 0.000174 0
0.000388 0.000190 0
0.000336 0.000208 0
0.000285 0.000225 0
0.000235 0.000240 0
0.000185 0.000255 0
0.000137 0.000270 0
0.000089 0.000285 0
0.000043 0.000302 0
-0.000002 0.000319 0
-0.000043 0.000340 0
-0.000082 0.000364 0
-0.000115 0.000398 0
-0.000143 0.000445 0
-0.000164 0.000514 0
-0.000176 0.000608 0
-0.000175 0.000724 0
-0.000159 0.000841 0
-0.000126 0.000914 0
-0.000078 0.000864 0
-0.000029 0.000593 0
0.000000 0.000194 0
0.000000 0.000000 0
0.000000 0.000000 0
0.000000 0.000000 0
0.000000 -0.000091 0
0.000102 -0.000518 0
0.000391 -0.001252 0
0.000818 -0.002015 0
0.001310 -0.002644 0
0.001799 -0.003047 0
0.002233 -0.003199 0
0.002586 -0.003122 0
0.002845 -0.002859 0
0.003011 -0.002455 0
0.003088 -0.001951 0
0.003086 -0.001384 0
0.003014 -0.000791 0
0.002882 -0.000211 0
0.002704 0.000312 0
0.002501 0.000736 0
0.002294 0.001033 0
0.002101 0.001195 0
0.001935 0.001237 0
0.001799 0.001188 0
0.001692 0.001080 0
0.001608 0.000943 0
0.001543 0.000800 0
0.001491 0.000665 0
0.001447 0.000546 0
0.001410 0.000446 0
0.001377 0.000363 0
0.001349 0.000297 0
0.001325 0.000242 0
0.001305 0.000198 0
0.001289 0.000162 0
0.001277 0.000131 0
0.001268 0.000104 0
0.001263 0.000080 0
0.001260 0.000058 0
0.001259 0.000038 0
0.001261 0.000018 0
0.001264 -0.000000 0
0.001268 -0.000019 0
0.001274 -0.000037 0
0.001279 -0.000056 0
0.001285 -0.000075 0
0.001290 -0.000094 0
0.001294 -0.000114 0
0.001297 -0.000134 0
0.001297 -0.000155 0
0.001295 -0.000176 0
0.001290 -0.000197 0