# vtk DataFile Version 2.0
generated by CFD-lab course output (written by Tobias Neckel) 
ASCII

DATASET STRUCTURED_GRID
DIMENSIONS  99 49 1 
POINTS 4851 float

0.000000 0.000000 0
0.020000 0.000000 0
0.040000 0.000000 0
0.060000 0.000000 0
0.080000 0.000000 0
0.100000 0.000000 0
0.120000 0.000000 0
0.140000 0.000000 0
0.160000 0.000000 0
0.180000 0.000000 0
0.200000 0.000000 0
0.220000 0.000000 0
0.240000 0.000000 0
0.260000 0.000000 0
0.280000 0.000000 0
0.300000 0.000000 0
0.320000 0.000000 0
0.340000 0.000000 0
0.360000 0.000000 0
0.380000 0.000000 0
0.400000 0.000000 0
0.420000 0.000000 0
0.440000 0.000000 0
0.460000 0.000000 0
0.480000 0.000000 0
0.500000 0.000000 0
0.520000 0.000000 0
0.540000 0.000000 0
0.560000 0.000000 0
0.580000 0.000000 0
0.600000 0.000000 0
0.620000 0.000000 0
0.640000 0.000000 0
0.660000 0.000000 0
0.680000 0.000000 0
0.700000 0.000000 0
0.720000 0.000000 0
0.740000 0.000000 0
0.760000 0.000000 0
0.780000 0.000000 0
0.800000 0.000000 0
0.820000 0.000000 0
0.840000 0.000000 0
0.860000 0.000000 0
0.880000 0.000000 0
0.900000 0.000000 0
0.920000 0.000000 0
0.940000 0.000000 0
0.960000 0.000000 0
0.980000 0.000000 0
1.000000 0.000000 0
1.020000 0.000000 0
1.040000 0.000000 0
1.060000 0.000000 0
1.080000 0.000000 0
1.100000 0.000000 0
1.120000 0.000000 0
1.140000 0.000000 0
1.160000 0.000000 0
1.180000 0.000000 0
1.200000 0.000000 0
1.220000 0.000000 0
1.240000 0.000000 0
1.260000 0.000000 0
1.280000 0.000000 0
1.300000 0.000000 0
1.320000 0.000000 0
1.340000 0.000000 0
1.360000 0.000000 0
1.380000 0.000000 0
1.400000 0.000000 0
1.420000 0.000000 0
1.440000 0.000000 0
1.460000 0.000000 0
1.480000 0.000000 0
1.500000 0.000000 0
1.520000 0.000000 0
1.540000 0.000000 0
1.560000 0.000000 0
1.580000 0.000000 0
1.600000 0.000000 0
1.620000 0.000000 0
1.640000 0.000000 0
1.660000 0.000000 0
1.680000 0.000000 0
1.700000 0.000000 0
1.720000 0.000000 0
1.740000 0.000000 0
1.760000 0.000000 0
1.780000 0.000000 0
1.800000 0.000000 0
1.820000 0.000000 0
1.840000 0.000000 0
1.860000 0.000000 0
1.880000 0.000000 0
1.900000 0.000000 0
1.920000 0.000000 0
1.940000 0.000000 0
1.960000 0.000000 0
0.000000 0.020000 0
0.020000 0.020000 0
0.040000 0.020000 0
0.060000 0.020000 0
0.080000 0.020000 0
0.100000 0.020000 0
0.120000 0.020000 0
0.140000 0.020000 0
0.160000 0.020000 0
0.180000 0.020000 0
0.200000 0.020000 0
0.220000 0.020000 0
0.240000 0.020000 0
0.260000 0.020000 0
0.280000 0.020000 0
0.300000 0.020000 0
0.320000 0.020000 0
0.340000 0.020000 0
0.360000 0.020000 0
0.380000 0.020000 0
0.400000 0.020000 0
0.420000 0.020000 0
0.440000 0.020000 0
0.460000 0.020000 0
0.480000 0.020000 0
0.500000 0.020000 0
0.520000 0.020000 0
0.540000 0.020000 0
0.560000 0.020000 0
0.580000 0.020000 0
0.600000 0.020000 0
0.620000 0.020000 0
0.640000 0.020000 0
0.660000 0.020000 0
0.680000 0.020000 0
0.700000 0.020000 0
0.720000 0.020000 0
0.740000 0.020000 0
0.760000 0.020000 0
0.780000 0.020000 0
0.800000 0.020000 0
0.820000 0.020000 0
0.840000 0.020000 0
0.860000 0.020000 0
0.880000 0.020000 0
0.900000 0.020000 0
0.920000 0.020000 0
0.940000 0.020000 0
0.960000 0.020000 0
0.980000 0.020000 0
1.000000 0.020000 0
1.020000 0.020000 0
1.040000 0.020000 0
1.060000 0.020000 0
1.080000 0.020000 0
1.100000 0.020000 0
1.120000 0.020000 0
1.140000 0.020000 0
1.160000 0.020000 0
1.180000 0.020000 0
1.200000 0.020000 0
1.220000 0.020000 0
1.240000 0.020000 0
1.260000 0.020000 0
1.280000 0.020000 0
1.300000 0.020000 0
1.320000 0.020000 0
1.340000 0.020000 0
1.360000 0.020000 0
1.380000 0.020000 0
1.400000 0.020000 0
1.420000 0.020000 0
1.440000 0.020000 0
1.460000 0.020000 0
1.480000 0.020000 0
1.500000 0.020000 0
1.520000 0.020000 0
1.540000 0.020000 0
1.560000 0.020000 0
1.580000 0.020000 0
1.600000 0.020000 0
1.620000 0.020000 0
1.640000 0.020000 0
1.660000 0.020000 0
1.680000 0.020000 0
1.700000 0.020000 0
1.720000 0.020000 0
1.740000 0.020000 0
1.760000 0.020000 0
1.780000 0.020000 0
1.800000 0.020000 0
1.820000 0.020000 0
1.840000 0.020000 0
1.860000 0.020000 0
1.880000 0.020000 0
1.900000 0.020000 0
1.920000 0.020000 0
1.940000 0.020000 0
1.960000 0.020000 0
0.000000 0.040000 0
0.020000 0.040000 0
0.040000 0.040000 0
0.060000 0.040000 0
0.080000 0.040000 0
0.100000 0.040000 0
0.120000 0.040000 0
0.140000 0.040000 0
0.160000 0.040000 0
0.180000 0.040000 0
0.200000 0.040000 0
0.220000 0.040000 0
0.240000 0.040000 0
0.260000 0.040000 0
0.280000 0.040000 0
0.300000 0.040000 0
0.320000 0.040000 0
0.340000 0.040000 0
0.360000 0.040000 0
0.380000 0.040000 0
0.400000 0.040000 0
0.420000 0.040000 0
0.440000 0.040000 0
0.460000 0.040000 0
0.480000 0.040000 0
0.500000 0.040000 0
0.520000 0.040000 0
0.540000 0.040000 0
0.560000 0.040000 0
0.580000 0.040000 0
0.600000 0.040000 0
0.620000 0.040000 0
0.640000 0.040000 0
0.660000 0.040000 0
0.680000 0.040000 0
0.700000 0.040000 0
0.720000 0.040000 0
0.740000 0.040000 0
0.760000 0.040000 0
0.780000 0.040000 0
0.800000 0.040000 0
0.820000 0.040000 0
0.840000 0.040000 0
0.860000 0.040000 0
0.880000 0.040000 0
0.900000 0.040000 0
0.920000 0.040000 0
0.940000 0.040000 0
0.960000 0.040000 0
0.980000 0.040000 0
1.000000 0.040000 0
1.020000 0.040000 0
1.040000 0.040000 0
1.060000 0.040000 0
1.080000 0.040000 0
1.100000 0.040000 0
1.120000 0.040000 0
1.140000 0.040000 0
1.160000 0.040000 0
1.180000 0.040000 0
1.200000 0.040000 0
1.220000 0.040000 0
1.240000 0.040000 0
1.260000 0.040000 0
1.280000 0.040000 0
1.300000 0.040000 0
1.320000 0.040000 0
1.340000 0.040000 0
1.360000 0.040000 0
1.380000 0.040000 0
1.400000 0.040000 0
1.420000 0.040000 0
1.440000 0.040000 0
1.460000 0.040000 0
1.480000 0.040000 0
1.500000 0.040000 0
1.520000 0.040000 0
1.540000 0.040000 0
1.560000 0.040000 0
1.580000 0.040000 0
1.600000 0.040000 0
1.620000 0.040000 0
1.640000 0.040000 0
1.660000 0.040000 0
1.680000 0.040000 0
1.700000 0.040000 0
1.720000 0.040000 0
1.740000 0.040000 0
1.760000 0.040000 0
1.780000 0.040000 0
1.800000 0.040000 0
1.820000 0.040000 0
1.840000 0.040000 0
1.860000 0.040000 0
1.880000 0.040000 0
1.900000 0.040000 0
1.920000 0.040000 0
1.940000 0.040000 0
1.960000 0.040000 0
0.000000 0.060000 0
0.020000 0.060000 0
0.040000 0.060000 0
0.060000 0.060000 0
0.080000 0.060000 0
0.100000 0.060000 0
0.120000 0.060000 0
0.140000 0.060000 0
0.160000 0.060000 0
0.180000 0.060000 0
0.200000 0.060000 0
0.220000 0.060000 0
0.240000 0.060000 0
0.260000 0.060000 0
0.280000 0.060000 0
0.300000 0.060000 0
0.320000 0.060000 0
0.340000 0.060000 0
0.360000 0.060000 0
0.380000 0.060000 0
0.400000 0.060000 0
0.420000 0.060000 0
0.440000 0.060000 0
0.460000 0.060000 0
0.480000 0.060000 0
0.500000 0.060000 0
0.520000 0.060000 0
0.540000 0.060000 0
0.560000 0.060000 0
0.580000 0.060000 0
0.600000 0.060000 0
0.620000 0.060000 0
0.640000 0.060000 0
0.660000 0.060000 0
0.680000 0.060000 0
0.700000 0.060000 0
0.720000 0.060000 0
0.740000 0.060000 0
0.760000 0.060000 0
0.780000 0.060000 0
0.800000 0.060000 0
0.820000 0.060000 0
0.840000 0.060000 0
0.860000 0.060000 0
0.880000 0.060000 0
0.900000 0.060000 0
0.920000 0.060000 0
0.940000 0.060000 0
0.960000 0.060000 0
0.980000 0.060000 0
1.000000 0.060000 0
1.020000 0.060000 0
1.040000 0.060000 0
1.060000 0.060000 0
1.080000 0.060000 0
1.100000 0.060000 0
1.120000 0.060000 0
1.140000 0.060000 0
1.160000 0.060000 0
1.180000 0.060000 0
1.200000 0.060000 0
1.220000 0.060000 0
1.240000 0.060000 0
1.260000 0.060000 0
1.280000 0.060000 0
1.300000 0.060000 0
1.320000 0.060000 0
1.340000 0.060000 0
1.360000 0.060000 0
1.380000 0.060000 0
1.400000 0.060000 0
1.420000 0.060000 0
1.440000 0.060000 0
1.460000 0.060000 0
1.480000 0.060000 0
1.500000 0.060000 0
1.520000 0.060000 0
1.540000 0.060000 0
1.560000 0.060000 0
1.580000 0.060000 0
1.600000 0.060000 0
1.620000 0.060000 0
1.640000 0.060000 0
1.660000 0.060000 0
1.680000 0.060000 0
1.700000 0.060000 0
1.720000 0.060000 0
1.740000 0.060000 0
1.760000 0.060000 0
1.780000 0.060000 0
1.800000 0.060000 0
1.820000 0.060000 0
1.840000 0.060000 0
1.860000 0.060000 0
1.880000 0.060000 0
1.900000 0.060000 0
1.920000 0.060000 0
1.940000 0.060000 0
1.960000 0.060000 0
0.000000 0.080000 0
0.020000 0.080000 0
0.040000 0.080000 0
0.060000 0.080000 0
0.080000 0.080000 0
0.100000 0.080000 0
0.120000 0.080000 0
0.140000 0.080000 0
0.160000 0.080000 0
0.180000 0.080000 0
0.200000 0.080000 0
0.220000 0.080000 0
0.240000 0.080000 0
0.260000 0.080000 0
0.280000 0.080000 0
0.300000 0.080000 0
0.320000 0.080000 0
0.340000 0.080000 0
0.360000 0.080000 0
0.380000 0.080000 0
0.400000 0.080000 0
0.420000 0.080000 0
0.440000 0.080000 0
0.460000 0.080000 0
0.480000 0.080000 0
0.500000 0.080000 0
0.520000 0.080000 0
0.540000 0.080000 0
0.560000 0.080000 0
0.580000 0.080000 0
0.600000 0.080000 0
0.620000 0.080000 0
0.640000 0.080000 0
0.660000 0.080000 0
0.680000 0.080000 0
0.700000 0.080000 0
0.720000 0.080000 0
0.740000 0.080000 0
0.760000 0.080000 0
0.780000 0.080000 0
0.800000 0.080000 0
0.820000 0.080000 0
0.840000 0.080000 0
0.860000 0.080000 0
0.880000 0.080000 0
0.900000 0.080000 0
0.920000 0.080000 0
0.940000 0.080000 0
0.960000 0.080000 0
0.980000 0.080000 0
1.000000 0.080000 0
1.020000 0.080000 0
1.040000 0.080000 0
1.060000 0.080000 0
1.080000 0.080000 0
1.100000 0.080000 0
1.120000 0.080000 0
1.140000 0.080000 0
1.160000 0.080000 0
1.180000 0.080000 0
1.200000 0.080000 0
1.220000 0.080000 0
1.240000 0.080000 0
1.260000 0.080000 0
1.280000 0.080000 0
1.300000 0.080000 0
1.320000 0.080000 0
1.340000 0.080000 0
1.360000 0.080000 0
1.380000 0.080000 0
1.400000 0.080000 0
1.420000 0.080000 0
1.440000 0.080000 0
1.460000 0.080000 0
1.480000 0.080000 0
1.500000 0.080000 0
1.520000 0.080000 0
1.540000 0.080000 0
1.560000 0.080000 0
1.580000 0.080000 0
1.600000 0.080000 0
1.620000 0.080000 0
1.640000 0.080000 0
1.660000 0.080000 0
1.680000 0.080000 0
1.700000 0.080000 0
1.720000 0.080000 0
1.740000 0.080000 0
1.760000 0.080000 0
1.780000 0.080000 0
1.800000 0.080000 0
1.820000 0.080000 0
1.840000 0.080000 0
1.860000 0.080000 0
1.880000 0.080000 0
[...]
POINT_DATA 4851 

VECTORS velocity float
0.000000 0.000000 0
0.000063 0.000000 0
0.000157 0.000000 0
0.000230 0.000000 0
0.000269 0.000000 0
0.000279 0.000000 0
0.000272 0.000000 0
0.000256 0.000000 0
0.000240 0.000000 0
0.000225 0.000000 0
0.000215 0.000000 0
0.000209 0.000000 0
0.000205 0.000000 0
0.000204 0.000000 0
0.000204 0.000000 0
0.000204 0.000000 0
0.000204 0.000000 0
0.000204 0.000000 0
0.000203 0.000000 0
0.000202 0.000000 0
0.000201 0.000000 0
0.000200 0.000000 0
0.000198 0.000000 0
0.000196 0.000000 0
0.000195 0.000000 0
0.000193 0.000000 0
0.000191 0.000000 0
0.000188 0.000000 0
0.000185 0.000000 0
0.000180 0.000000 0
0.000173 0.000000 0
0.000159 0.000000 0
0.000138 0.000000 0
0.000105 0.000000 0
0.000063 0.000000 0
0.000021 0.000000 0
0.000000 0.000000 0
0.000000 0.000000 0
0.000000 0.000000 0
0.000000 0.000000 0
0.000000 0.000000 0
-0.000010 0.000000 0
0.000015 0.000000 0
0.000078 0.000000 0
0.000163 0.000000 0
0.000254 0.000000 0
0.000334 0.000000 0
0.000396 0.000000 0
0.000436 0.000000 0
0.000456 0.000000 0
0.000458 0.000000 0
0.000447 0.000000 0
0.000429 0.000000 0
0.000406 0.000000 0
0.000381 0.000000 0
0.000358 0.000000 0
0.000338 0.000000 0
0.000321 0.000000 0
0.000309 0.000000 0
0.000300 0.000000 0
0.000294 0.000000 0
0.000292 0.000000 0
0.000292 0.000000 0
0.000294 0.000000 0
0.000297 0.000000 0
0.000301 0.000000 0
0.000305 0.000000 0
0.000309 0.000000 0
0.000313 0.000000 0
0.000317 0.000000 0
0.000320 0.000000 0
0.000323 0.000000 0
0.000326 0.000000 0
0.000328 0.000000 0
0.000330 0.000000 0
0.000331 0.000000 0
0.000333 0.000000 0
0.000334 0.000000 0
0.000335 0.000000 0
0.000336 0.000000 0
0.000337 0.000000 0
0.000338 0.000000 0
0.000339 0.000000 0
0.000340 0.000000 0
0.000341 0.000000 0
0.000342 0.000000 0
0.000344 0.000000 0
0.000346 0.000000 0
0.000350 0.000000 0
0.000356 0.000000 0
0.000365 0.000000 0
0.000380 0.000000 0
0.000405 0.000000 0
0.000443 0.000000 0
0.000501 0.000000 0
0.000573 0.000000 0
0.000612 0.000000 0
0.000465 0.000000 0
0.000000 0.000000 0
0.000000 -0.000064 0
0.000177 -0.000158 0
0.000444 -0.000167 0
0.000663 -0.000112 0
0.000795 -0.000050 0
0.000845 -0.000004 0
0.000840 0.000022 0
0.000806 0.000031 0
0.000763 0.000030 0
0.000724 0.000024 0
0.000694 0.000016 0
0.000674 0.000009 0
0.000663 0.000004 0
0.000658 0.000001 0
0.000656 -0.000001 0
0.000656 -0.000001 0
0.000656 -0.000001 0
0.000654 0.000000 0
0.000652 0.000001 0
0.000648 0.000001 0
0.000644 0.000002 0
0.000638 0.000002 0
0.000632 0.000003 0
0.000625 0.000003 0
0.000617 0.000003 0
0.000608 0.000003 0
0.000598 0.000004 0
0.000586 0.000005 0
0.000571 0.000007 0
0.000549 0.000012 0
0.000517 0.000020 0
0.000468 0.000034 0
0.000395 0.000054 0
0.000296 0.000074 0
0.000177 0.000083 0
0.000061 0.000062 0
0.000000 0.000021 0
0.000000 0.000000 0
0.000000 0.000000 0
0.000000 0.000000 0
0.000000 0.000010 0
0.000012 -0.000014 0
0.000125 -0.000087 0
0.000337 -0.000148 0
0.000608 -0.000176 0
0.000889 -0.000171 0
0.001142 -0.000142 0
0.001341 -0.000101 0
0.001477 -0.000059 0
0.001551 -0.000021 0
0.001571 0.000009 0
0.001550 0.000029 0
0.001499 0.000042 0
0.001432 0.000047 0
0.001357 0.000047 0
0.001283 0.000044 0
0.001216 0.000037 0
0.001159 0.000030 0
0.001114 0.000022 0
0.001080 0.000015 0
0.001059 0.000008 0
0.001047 0.000003 0
0.001044 -0.000002 0
0.001047 -0.000005 0
0.001055 -0.000007 0
0.001066 -0.000008 0
0.001078 -0.000008 0
0.001091 -0.000008 0
0.001103 -0.000008 0
0.001114 -0.000007 0
0.001124 -0.000006 0
0.001132 -0.000005 0
0.001140 -0.000004 0
0.001146 -0.000004 0
0.001151 -0.000003 0
0.001156 -0.000003 0
0.001160 -0.000003 0
0.001163 -0.000002 0
0.001166 -0.000002 0
0.001168 -0.000002 0
0.001171 -0.000002 0
0.001173 -0.000002 0
0.001175 -0.000002 0
0.001177 -0.000002 0
0.001180 -0.000002 0
0.001183 -0.000003 0
0.001188 -0.000004 0
0.001195 -0.000006 0
0.001205 -0.000009 0
0.001222 -0.000015 0
0.001247 -0.000024 0
0.001285 -0.000040 0
0.001340 -0.000063 0
0.001414 -0.000096 0
0.001500 -0.000129 0
0.001558 -0.000112 0
0.001459 0.000107 0
0.000941 0.000612 0
0.000000 0.000465 0
0.000000 -0.000178 0
0.000242 -0.000445 0
0.000615 -0.000487 0
0.000939 -0.000352 0
0.001150 -0.000182 0
0.001249 -0.000046 0
0.001265 0.000038 0
0.001234 0.000076 0
0.001182 0.000082 0
0.001131 0.000069 0
0.001089 0.000049 0
0.001060 0.000030 0
0.001043 0.000015 0
0.001034 0.000006 0
0.001030 0.000001 0
0.001028 -0.000000 0
0.001025 0.000001 0
0.001022 0.000003 0
0.001016 0.000005 0
0.001008 0.000007 0
0.000999 0.000009 0
0.000988 0.000011 0
0.000975 0.000013 0
0.000961 0.000014 0
0.000945 0.000016 0
0.000926 0.000018 0
0.000905 0.000021 0
0.000879 0.000027 0
0.000845 0.000036 0
0.000801 0.000053 0
0.000739 0.000081 0
0.000654 0.000120 0
0.000540 0.000170 0
0.000395 0.000218 0
0.000232 0.000234 0
0.000081 0.000176 0
0.000000 0.000061 0
0.000000 0.000000 0
0.000000 0.000000 0
0.000000 0.000000 0
0.000000 -0.000012 0
0.000077 -0.000124 0
0.000313 -0.000325 0
0.000675 -0.000482 0
0.001105 -0.000551 0
0.001542 -0.000533 0
0.001936 -0.000452 0
0.002254 -0.000335 0
0.002480 -0.000210 0
0.002615 -0.000094 0
0.002666 0.000002 0
0.002651 0.000072 0
0.002586 0.000118 0
0.002490 0.000142 0
0.002378 0.000149 0
0.002263 0.000141 0
0.002155 0.000125 0
0.002060 0.000103 0
0.001983 0.000079 0
0.001924 0.000055 0
0.001883 0.000034 0
0.001859 0.000015 0
0.001848 0.000000 0
0.001848 -0.000011 0
0.001856 -0.000018 0
0.001869 -0.000023 0
0.001885 -0.000024 0
0.001902 -0.000024 0
0.001919 -0.000023 0
0.001934 -0.000021 0
0.001947 -0.000018 0
0.001959 -0.000016 0
0.001968 -0.000013 0
0.001976 -0.000011 0
0.001982 -0.000009 0
0.001987 -0.000008 0
0.001991 -0.000007 0
0.001994 -0.000006 0
0.001996 -0.000005 0
0.001998 -0.000005 0
0.002000 -0.000004 0
0.002001 -0.000004 0
0.002003 -0.000004 0
0.002004 -0.000004 0
0.002007 -0.000006 0
0.002010 -0.000008 0
0.002016 -0.000011 0
0.002024 -0.000018 0
0.002038 -0.000027 0
0.002058 -0.000042 0
0.002085 -0.000063 0
0.002121 -0.000093 0
0.002162 -0.000129 0
0.002195 -0.000160 0
0.002185 -0.000143 0
0.002051 0.000041 0
0.001650 0.000617 0
0.000850 0.001460 0
0.000000 0.000941 0
0.000000 -0.000307 0
0.000255 -0.000774 0
0.000659 -0.000865 0
0.001018 -0.000648 0
0.001262 -0.000360 0
0.001386 -0.000119 0
0.001419 0.000037 0
0.001397 0.000114 0
0.001350 0.000133 0
0.001300 0.000117 0
0.001257 0.000087 0
0.001226 0.000055 0
0.001207 0.000030 0
0.001195 0.000013 0
0.001188 0.000005 0
0.001183 0.000003 0
0.001177 0.000005 0
0.001170 0.000009 0
0.001160 0.000014 0
0.001148 0.000018 0
0.001133 0.000022 0
0.001116 0.000026 0
0.001097 0.000029 0
0.001075 0.000033 0
0.001051 0.000037 0
0.001023 0.000043 0
0.000991 0.000051 0
0.000952 0.000064 0
0.000904 0.000085 0
0.000844 0.000117 0
0.000765 0.000166 0
0.000662 0.000233 0
0.000533 0.000312 0
0.000381 0.000381 0
0.000218 0.000397 0
0.000074 0.000294 0
0.000000 0.000102 0
0.000000 0.000000 0
0.000000 0.000000 0
0.000000 0.000000 0
0.000000 -0.000067 0
0.000136 -0.000327 0
0.000473 -0.000684 0
0.000942 -0.000940 0
0.001471 -0.001044 0
0.001995 -0.001002 0
0.002464 -0.000853 0
0.002843 -0.000645 0
0.003119 -0.000419 0
0.003291 -0.000206 0
0.003368 -0.000027 0
0.003365 0.000109 0
0.003303 0.000203 0
0.003200 0.000256 0
0.003075 0.000274 0
0.002943 0.000267 0
0.002815 0.000240 0
0.002702 0.000202 0
0.002606 0.000159 0
0.002532 0.000114 0
0.002479 0.000073 0
0.002444 0.000038 0
0.002426 0.000009 0
0.002420 -0.000013 0
0.002424 -0.000028 0
0.002433 -0.000037 0
0.002447 -0.000041 0
0.002461 -0.000041 0
0.002475 -0.000039 0
0.002488 -0.000035 0
0.002499 -0.000031 0
0.002508 -0.000026 0
0.002515 -0.000022 0
0.002520 -0.000018 0
0.002523 -0.000014 0
0.002524 -0.000011 0
0.002525 -0.000009 0
0.002524 -0.000008 0
0.002523 -0.000006 0
0.002521 -0.000005 0
0.002520 -0.000005 0
0.002518 -0.000004 0
0.002516 -0.000005 0
0.002515 -0.000006 0
0.002514 -0.000008 0
0.002515 -0.000012 0
0.002517 -0.000018 0
0.002523 -0.000028 0
0.002531 -0.000042 0
0.002543 -0.000062 0
0.002557 -0.000088 0
0.002567 -0.000117 0
0.002563 -0.000137 0
0.002518 -0.000118 0
0.002384 0.000015 0
0.002077 0.000424 0
0.001502 0.001309 0
0.000661 0.002262 0
0.000000 0.001315 0
0.000000 -0.000434 0
0.000247 -0.001105 0
0.000642 -0.001250 0
0.000998 -0.000955 0
0.001241 -0.000551 0
0.001370 -0.000204 0
0.001409 0.000027 0
0.001393 0.000145 0
0.001352 0.000179 0
0.001307 0.000162 0
0.001268 0.000122 0
0.001238 0.000080 0
0.001218 0.000046 0
0.001204 0.000024 0
0.001193 0.000013 0
0.001183 0.000011 0
0.001173 0.000014 0
0.001160 0.000020 0
0.001145 0.000027 0
0.001127 0.000034 0
0.001107 0.000040 0
0.001084 0.000047 0
0.001059 0.000053 0
0.001031 0.000060 0
0.000999 0.000067 0
0.000964 0.000078 0
0.000923 0.000092 0
0.000876 0.000113 0
0.000820 0.000145 0
0.000752 0.000193 0
0.000668 0.000261 0
0.000565 0.000351 0
0.000443 0.000452 0
0.000307 0.000533 0
0.000169 0.000540 0
0.000055 0.000393 0
0.000000 0.000135 0
0.000000 0.000000 0
0.000000 0.000000 0
0.000000 0.000000 0
0.000000 -0.000147 0
0.000175 -0.000597 0
0.000582 -0.001131 0
0.001123 -0.001481 0
0.001712 -0.001605 0
0.002281 -0.001525 0
0.002782 -0.001299 0
0.003185 -0.000991 0
0.003479 -0.000657 0
0.003665 -0.000342 0
0.003753 -0.000072 0
0.003759 0.000137 0
0.003702 0.000284 0
0.003602 0.000371 0
0.003477 0.000406 0
0.003343 0.000401 0
0.003212 0.000366 0
0.003094 0.000312 0
0.002994 0.000248 0
0.002915 0.000183 0
0.002856 0.000122 0
0.002816 0.000068 0
0.002792 0.000025 0
0.002780 -0.000009 0
0.002776 -0.000032 0
0.002779 -0.000045 0
0.002785 -0.000052 0
0.002791 -0.000053 0
0.002798 -0.000050 0
0.002803 -0.000045 0
0.002806 -0.000038 0
0.002808 -0.000031 0
0.002807 -0.000025 0
0.002805 -0.000019 0
0.002802 -0.000014 0
0.002797 -0.000010 0
0.002791 -0.000007 0
0.002785 -0.000004 0
0.002778 -0.000002 0
0.002771 -0.000001 0
0.002763 -0.000000 0
0.002756 -0.000000 0
0.002750 -0.000001 0
0.002744 -0.000002 0
0.002738 -0.000006 0
0.002734 -0.000011 0
0.002731 -0.000019 0
0.002729 -0.000031 0
0.002728 -0.000047 0
0.002727 -0.000067 0
0.002720 -0.000088 0
0.002701 -0.000099 0
0.002650 -0.000080 0
0.002539 0.000020 0
0.002316 0.000298 0
0.001918 0.000923 0
0.001291 0.002033 0
0.000510 0.002962 0
0.000000 0.001603 0
0.000000 -0.000554 0
0.000230 -0.001417 0
0.000597 -0.001616 0
0.000927 -0.001247 0
0.001152 -0.000733 0
0.001270 -0.000287 0
0.001305 0.000014 0
0.001291 0.000170 0
0.001255 0.000219 0
0.001214 0.000202 0
0.001179 0.000155 0
0.001151 0.000105 0
0.001130 0.000064 0
0.001113 0.000038 0
0.001097 0.000025 0
0.001082 0.000024 0
0.001065 0.000028 0
0.001046 0.000037 0
0.001024 0.000046 0
0.001001 0.000056 0
0.000975 0.000065 0
0.000946 0.000074 0
0.000916 0.000083 0
0.000882 0.000092 0
0.000845 0.000104 0
0.000805 0.000118 0
0.000760 0.000138 0
0.000710 0.000167 0
0.000652 0.000209 0
0.000585 0.000269 0
0.000507 0.000353 0
0.000417 0.000458 0
0.000316 0.000570 0
0.000210 0.000655 0
0.000110 0.000649 0
0.000033 0.000463 0
0.000000 0.000157 0
0.000000 0.000000 0
0.000000 0.000000 0
0.000000 0.000000 0
0.000000 -0.000242 0
0.000197 -0.000909 0
0.000645 -0.001632 0
0.001227 -0.002070 0
0.001847 -0.002202 0
0.002432 -0.002071 0
0.002936 -0.001757 0
0.003336 -0.001343 0
0.003624 -0.000899 0
0.003804 -0.000480 0
0.003889 -0.000121 0
0.003895 0.000160 0
0.003841 0.000360 0
0.003745 0.000481 0
0.003626 0.000534 0
0.003498 0.000532 0
0.003374 0.000489 0
0.003261 0.000420 0
0.003166 0.000338 0
0.003089 0.000253 0
0.003031 0.000172 0
0.002989 0.000102 0
0.002961 0.000046 0
0.002942 0.000003 0
0.002930 -0.000027 0
0.002922 -0.000045 0
0.002917 -0.000053 0
0.002911 -0.000054 0
0.002905 -0.000051 0
0.002899 -0.000044 0
0.002890 -0.000036 0
0.002881 -0.000027 0
0.002870 -0.000019 0
0.002859 -0.000012 0
0.002846 -0.000006 0
0.002833 -0.000001 0
0.002819 0.000003 0
0.002806 0.000006 0
0.002792 0.000008 0
0.002779 0.000009 0
0.002766 0.000010 0
0.002753 0.000009 0
0.002741 0.000008 0
0.002729 0.000006 0
0.002718 0.000002 0
0.002707 -0.000004 0
0.002697 -0.000013 0
0.002687 -0.000025 0
0.002676 -0.000040 0
0.002661 -0.000055 0
0.002638 -0.000062 0
0.002595 -0.000047 0
0.002514 0.000025 0
0.002366 0.000216 0
0.002106 0.000637 0
0.001686 0.001449 0
0.001082 0.002716 0
0.000396 0.003553 0
0.000000 0.001826 0
0.000000 -0.000664 0
0.000208 -0.001703 0
0.000539 -0.001948 0
0.000831 -0.001510 0
0.001027 -0.000894 0
0.001126 -0.000358 0
0.001153 0.000005 0
0.001137 0.000195 0
0.001103 0.000255 0
0.001066 0.000238 0
0.001034 0.000185 0
0.001007 0.000129 0
0.000984 0.000084 0
0.000963 0.000056 0
0.000942 0.000044 0
0.000920 0.000043 0
0.000896 0.000050 0
0.000870 0.000060 0
0.000843 0.000071 0
0.000814 0.000083 0
0.000782 0.000094 0
0.000749 0.000106 0
0.000714 0.000117 0
0.000677 0.000130 0
0.000637 0.000144 0
0.000595 0.000162 0
0.000549 0.000187 0
0.000500 0.000220 0
0.000447 0.000269 0
0.000388 0.000337 0
0.000324 0.000430 0
0.000254 0.000542 0
0.000181 0.000659 0
0.000112 0.000739 0
0.000053 0.000717 0
0.000013 0.000503 0
0.000000 0.000168 0
0.000000 0.000000 0
0.000000 0.000000 0
0.000000 0.000000 0
0.000000 -0.000344 0
0.000206 -0.001241 0
0.000673 -0.002161 0
0.001273 -0.002682 0
0.001899 -0.002809 0
0.002476 -0.002615 0
0.002963 -0.002203 0
0.003338 -0.001678 0
0.003601 -0.001125 0
0.003761 -0.000607 0
0.003830 -0.000163 0
0.003828 0.000186 0
0.003771 0.000434 0
0.003678 0.000586 0
0.003566 0.000654 0
0.003447 0.000653 0
0.003334 0.000603 0
0.003233 0.000520 0
0.003147 0.000420 0
0.003077 0.000318 0
0.003022 0.000222 0
0.002979 0.000139 0
0.002946 0.000072 0
0.002919 0.000022 0
0.002896 -0.000012 0
0.002875 -0.000032 0
0.002855 -0.000041 0
0.002834 -0.000042 0
0.002813 -0.000037 0
0.002792 -0.000029 0
0.002769 -0.000020 0
0.002747 -0.000011 0
0.002725 -0.000002 0
0.002703 0.000006 0
0.002681 0.000012 0
0.002660 0.000017 0
0.002639 0.000021 0
0.002619 0.000023 0
0.002599 0.000025 0
0.002580 0.000026 0
0.002561 0.000026 0
0.002544 0.000025 0
0.002527 0.000023 0
0.002510 0.000021 0
0.002494 0.000016 0
0.002478 0.000010 0
0.002461 0.000001 0
0.002444 -0.000010 0
0.002425 -0.000021 0
0.002401 -0.000029 0
0.002368 -0.000021 0
0.002316 0.000025 0
0.002227 0.000150 0
0.002075 0.000428 0
0.001823 0.000977 0
0.001429 0.001947 0
0.000887 0.003324 0
0.000305 0.004044 0
0.000000 0.001999 0
0.000000 -0.000763 0
0.000185 -0.001957 0
0.000475 -0.002239 0
0.000725 -0.001736 0
0.000886 -0.001028 0
0.000963 -0.000413 0
0.000979 0.000002 0
0.000960 0.000220 0
0.000928 0.000289 0
0.000894 0.000271 0
0.000864 0.000214 0
0.000836 0.000154 0
0.000811 0.000107 0
0.000785 0.000079 0
0.000758 0.000068 0
0.000730 0.000069 0
0.000700 0.000078 0
0.000668 0.000089 0
0.000635 0.000103 0
0.000601 0.000116 0
0.000566 0.000129 0
0.000529 0.000142 0
0.000492 0.000155 0
0.000453 0.000169 0
0.000412 0.000186 0
0.000371 0.000206 0
0.000328 0.000232 0
0.000284 0.000269 0
0.000239 0.000320 0
0.000193 0.000392 0
0.000147 0.000487 0
0.000101 0.000600 0
0.000059 0.000712 0
0.000026 0.000783 0
0.000005 0.000747 0
-0.000002 0.000516 0
0.000000 0.000170 0
0.000000 0.000000 0
0.000000 0.000000 0
0.000000 0.000000 0
0.000000 -0.000447 0
0.000208 -0.001581 0
0.000679 -0.002699 0
0.001277 -0.003295 0
0.001889 -0.003405 0
0.002439 -0.003135 0
0.002888 -0.002619 0
0.003223 -0.001981 0
0.003448 -0.001321 0
0.003575 -0.000709 0
0.003620 -0.000188 0
0.003602 0.000220 0
0.003538 0.000510 0
0.003445 0.000687 0
0.003338 0.000765 0
0.003230 0.000763 0
0.003127 0.000704 0
0.003037 0.000608 0
0.002960 0.000494 0
0.002896 0.000378 0
0.002843 0.000270 0
0.002798 0.000178 0
0.002757 0.000106 0
0.002719 0.000053 0
0.002681 0.000017 0
0.002644 -0.000003 0
0.002606 -0.000012 0
0.002569 -0.000012 0
0.002531 -0.000008 0
0.002495 -0.000000 0
0.002460 0.000009 0
0.002426 0.000018 0
0.002394 0.000026 0
0.002363 0.000032 0
0.002335 0.000038 0
0.002307 0.000042 0
0.002282 0.000044 0
0.002257 0.000046 0
0.002234 0.000047 0
0.002212 0.000047 0
0.002191 0.000046 0
0.002170 0.000044 0
0.002151 0.000042 0
0.002131 0.000039 0
0.002112 0.000035 0
0.002092 0.000029 0
0.002071 0.000021 0
0.002049 0.000012 0
0.002026 0.000003 0
0.002000 0.000002 0
0.001968 0.000023 0
0.001922 0.000095 0
0.001848 0.000266 0
0.001722 0.000621 0
0.001507 0.001283 0
0.001170 0.002385 0
0.000709 0.003841 0
0.000229 0.004441 0
0.000000 0.002131 0
0.000000 -0.000850 0
0.000162 -0.002178 0
0.000410 -0.002487 0
0.000617 -0.001922 0
0.000744 -0.001132 0
0.000797 -0.000450 0
0.000801 0.000007 0
0.000780 0.000245 0
0.000749 0.000321 0
0.000718 0.000302 0
0.000689 0.000243 0
0.000661 0.000181 0
0.000632 0.000135 0
0.000602 0.000108 0
0.000570 0.000099 0
0.000536 0.000101 0
0.000500 0.000111 0
0.000464 0.000124 0
0.000427 0.000138 0
0.000390 0.000152 0
0.000352 0.000166 0
0.000314 0.000180 0
0.000276 0.000194 0
0.000237 0.000209 0
0.000199 0.000226 0
0.000161 0.000246 0
0.000124 0.000273 0
0.000088 0.000309 0
0.000054 0.000360 0
0.000022 0.000430 0
-0.000006 0.000522 0
-0.000028 0.000630 0
-0.000040 0.000733 0
-0.000042 0.000793 0
-0.000031 0.000744 0
-0.000013 0.000507 0
0.000000 0.000165 0
0.000000 0.000000 0
0.000000 0.000000 0
0.000000 0.000000 0
0.000000 -0.000551 0
0.000206 -0.001920 0
0.000671 -0.003230 0
0.001251 -0.003891 0
0.001832 -0.003971 0
0.002338 -0.003614 0
0.002736 -0.002988 0
0.003018 -0.002238 0
0.003194 -0.001476 0
0.003281 -0.000779 0
0.003296 -0.000190 0
0.003258 0.000268 0
0.003182 0.000591 0
0.003085 0.000786 0
0.002980 0.000869 0
0.002877 0.000864 0
0.002781 0.000795 0
0.002697 0.000687 0
0.002625 0.000561 0
0.002561 0.000435 0
0.002504 0.000321 0
0.002449 0.000225 0
0.002395 0.000151 0
0.002341 0.000098 0
0.002286 0.000063 0
0.002231 0.000044 0
0.002176 0.000035 0
0.002123 0.000033 0
0.002073 0.000037 0
0.002025 0.000042 0
0.001981 0.000049 0
0.001941 0.000055 0
0.001904 0.000061 0
0.001871 0.000065 0
0.001840 0.000068 0
0.001811 0.000070 0
0.001785 0.000071 0
0.001761 0.000071 0
0.001738 0.000070 0
0.001717 0.000069 0
0.001697 0.000067 0
0.001678 0.000065 0
0.001659 0.000063 0
0.001639 0.000060 0
0.001619 0.000056 0
0.001598 0.000051 0
0.001576 0.000044 0
0.001554 0.000035 0
0.001532 0.000028 0
0.001511 0.000030 0
0.001491 0.000057 0
0.001467 0.000144 0
0.001427 0.000350 0
0.001345 0.000769 0
0.001189 0.001529 0
0.000923 0.002746 0
0.000548 0.004265 0
0.000165 0.004753 0
0.000000 0.002228 0
0.000000 -0.000926 0
0.000141 -0.002367 0
0.000348 -0.002694 0
0.000514 -0.002070 0
0.000607 -0.001208 0
0.000639 -0.000471 0
0.000633 0.000019 0
0.000609 0.000272 0
0.000580 0.000351 0
0.000550 0.000331 0
0.000522 0.000272 0
0.000493 0.000211 0
0.000462 0.000166 0
0.000428 0.000141 0
0.000392 0.000134 0
0.000354 0.000138 0
0.000315 0.000149 0
0.000276 0.000163 0
0.000237 0.000177 0
0.000198 0.000190 0
0.000161 0.000204 0
0.000123 0.000217 0
0.000086 0.000231 0
0.000050 0.000246 0
0.000016 0.000262 0
-0.000017 0.000281 0
-0.000047 0.000305 0
-0.000074 0.000339 0
-0.000097 0.000386 0
-0.000114 0.000451 0
-0.000124 0.000536 0
-0.000125 0.000634 0
-0.000113 0.000726 0
-0.000089 0.000774 0
-0.000055 0.000718 0
-0.000020 0.000484 0
0.000000 0.000157 0
0.000000 0.000000 0
0.000000 0.000000 0
0.000000 0.000000 0
0.000000 -0.000653 0
0.000202 -0.002252 0
0.000653 -0.003744 0
0.001203 -0.004455 0
0.001738 -0.004492 0
0.002187 -0.004039 0
0.002523 -0.003299 0
0.002745 -0.002439 0
0.002868 -0.001584 0
0.002910 -0.000811 0
0.002891 -0.000165 0
0.002828 0.000334 0
0.002736 0.000682 0
0.002630 0.000889 0
0.002519 0.000973 0
0.002413 0.000962 0
0.002315 0.000883 0
0.002227 0.000765 0
0.002147 0.000630 0
0.002073 0.000499 0
0.002001 0.000382 0
0.001929 0.000287 0
0.001856 0.000214 0
0.001783 0.000162 0
0.001711 0.000128 0
0.001641 0.000107 0
0.001575 0.000096 0
0.001514 0.000091 0
0.001459 0.000090 0
0.001410 0.000091 0
0.001366 0.000093 0
0.001328 0.000095 0
0.001294 0.000096 0
0.001265 0.000097 0
0.001239 0.000097 0
0.001216 0.000096 0
0.001195 0.000095 0
0.001177 0.000093 0
0.001160 0.000091 0
0.001144 0.000088 0
0.001130 0.000086 0
0.001115 0.000083 0
0.001101 0.000081 0
0.001085 0.000079 0
0.001068 0.000076 0
0.001049 0.000072 0
0.001030 0.000066 0
0.001011 0.000056 0
0.000995 0.000046 0
0.000987 0.000043 0