# vtk DataFile Version 2.0
generated by CFD-lab course output (written by Tobias Neckel) 
ASCII

DATASET STRUCTURED_GRID
DIMENSIONS  99 49 1 
POINTS 4851 float

0.000000 0.000000 0
0.020000 0.000000 0
0.040000 0.000000 0
0.060000 0.000000 0
0.080000 0.000000 0
0.100000 0.000000 0
0.120000 0.000000 0
0.140000 0.000000 0
0.160000 0.000000 0
0.180000 0.000000 0
0.200000 0.000000 0
0.220000 0.000000 0
0.240000 0.000000 0
0.260000 0.000000 0
0.280000 0.000000 0
0.300000 0.000000 0
0.320000 0.000000 0
0.340000 0.000000 0
0.360000 0.000000 0
0.380000 0.000000 0
0.400000 0.000000 0
0.420000 0.000000 0
0.440000 0.000000 0
0.460000 0.000000 0
0.480000 0.000000 0
0.500000 0.000000 0
0.520000 0.000000 0
0.540000 0.000000 0
0.560000 0.000000 0
0.580000 0.000000 0
0.600000 0.000000 0
0.620000 0.000000 0
0.640000 0.000000 0
0.660000 0.000000 0
0.680000 0.000000 0
0.700000 0.000000 0
0.720000 0.000000 0
0.740000 0.000000 0
0.760000 0.000000 0
0.780000 0.000000 0
0.800000 0.000000 0
0.820000 0.000000 0
0.840000 0.000000 0
0.860000 0.000000 0
0.880000 0.000000 0
0.900000 0.000000 0
0.920000 0.000000 0
0.940000 0.000000 0
0.960000 0.000000 0
0.980000 0.000000 0
1.000000 0.000000 0
1.020000 0.000000 0
1.040000 0.000000 0
1.060000 0.000000 0
1.080000 0.000000 0
1.100000 0.000000 0
1.120000 0.000000 0
1.140000 0.000000 0
1.160000 0.000000 0
1.180000 0.000000 0
1.200000 0.000000 0
1.220000 0.000000 0
1.240000 0.000000 0
1.260000 0.000000 0
1.280000 0.000000 0
1.300000 0.000000 0
1.320000 0.000000 0
1.340000 0.000000 0
1.360000 0.000000 0
1.380000 0.000000 0
1.400000 0.000000 0
1.420000 0.000000 0
1.440000 0.000000 0
1.460000 0.000000 0
1.480000 0.000000 0
1.500000 0.000000 0
1.520000 0.000000 0
1.540000 0.000000 0
1.560000 0.000000 0
1.580000 0.000000 0
1.600000 0.000000 0
1.620000 0.000000 0
1.640000 0.000000 0
1.660000 0.000000 0
1.680000 0.000000 0
1.700000 0.000000 0
1.720000 0.000000 0
1.740000 0.000000 0
1.760000 0.000000 0
1.780000 0.000000 0
1.800000 0.000000 0
1.820000 0.000000 0
1.840000 0.000000 0
1.860000 0.000000 0
1.880000 0.000000 0
1.900000 0.000000 0
1.920000 0.000000 0
1.940000 0.000000 0
1.960000 0.000000 0
0.000000 0.020000 0
0.020000 0.020000 0
0.040000 0.020000 0
0.060000 0.020000 0
0.080000 0.020000 0
0.100000 0.020000 0
0.120000 0.020000 0
0.140000 0.020000 0
0.160000 0.020000 0
0.180000 0.020000 0
0.200000 0.020000 0
0.220000 0.020000 0
0.240000 0.020000 0
0.260000 0.020000 0
0.280000 0.020000 0
0.300000 0.020000 0
0.320000 0.020000 0
0.340000 0.020000 0
0.360000 0.020000 0
0.380000 0.020000 0
0.400000 0.020000 0
0.420000 0.020000 0
0.440000 0.020000 0
0.460000 0.020000 0
0.480000 0.020000 0
0.500000 0.020000 0
0.520000 0.020000 0
0.540000 0.020000 0
0.560000 0.020000 0
0.580000 0.020000 0
0.600000 0.020000 0
0.620000 0.020000 0
0.640000 0.020000 0
0.660000 0.020000 0
0.680000 0.020000 0
0.700000 0.020000 0
0.720000 0.020000 0
0.740000 0.020000 0
0.760000 0.020000 0
0.780000 0.020000 0
0.800000 0.020000 0
0.820000 0.020000 0
0.840000 0.020000 0
0.860000 0.020000 0
0.880000 0.020000 0
0.900000 0.020000 0
0.920000 0.020000 0
0.940000 0.020000 0
0.960000 0.020000 0
0.980000 0.020000 0
1.000000 0.020000 0
1.020000 0.020000 0
1.040000 0.020000 0
1.060000 0.020000 0
1.080000 0.020000 0
1.100000 0.020000 0
1.120000 0.020000 0
1.140000 0.020000 0
1.160000 0.020000 0
1.180000 0.020000 0
1.200000 0.020000 0
1.220000 0.020000 0
1.240000 0.020000 0
1.260000 0.020000 0
1.280000 0.020000 0
1.300000 0.020000 0
1.320000 0.020000 0
1.340000 0.020000 0
1.360000 0.020000 0
1.380000 0.020000 0
1.400000 0.020000 0
1.420000 0.020000 0
1.440000 0.020000 0
1.460000 0.020000 0
1.480000 0.020000 0
1.500000 0.020000 0
1.520000 0.020000 0
1.540000 0.020000 0
1.560000 0.020000 0
1.580000 0.020000 0
1.600000 0.020000 0
1.620000 0.020000 0
1.640000 0.020000 0
1.660000 0.020000 0
1.680000 0.020000 0
1.700000 0.020000 0
1.720000 0.020000 0
1.740000 0.020000 0
1.760000 0.020000 0
1.780000 0.020000 0
1.800000 0.020000 0
1.820000 0.020000 0
1.840000 0.020000 0
1.860000 0.020000 0
1.880000 0.020000 0
1.900000 0.020000 0
1.920000 0.020000 0
1.940000 0.020000 0
1.960000 0.020000 0
0.000000 0.040000 0
0.020000 0.040000 0
0.040000 0.040000 0
0.060000 0.040000 0
0.080000 0.040000 0
0.100000 0.040000 0
0.120000 0.040000 0
0.140000 0.040000 0
0.160000 0.040000 0
0.180000 0.040000 0
0.200000 0.040000 0
0.220000 0.040000 0
0.240000 0.040000 0
0.260000 0.040000 0
0.280000 0.040000 0
0.300000 0.040000 0
0.320000 0.040000 0
0.340000 0.040000 0
0.360000 0.040000 0
0.380000 0.040000 0
0.400000 0.040000 0
0.420000 0.040000 0
0.440000 0.040000 0
0.460000 0.040000 0
0.480000 0.040000 0
0.500000 0.040000 0
0.520000 0.040000 0
0.540000 0.040000 0
0.560000 0.040000 0
0.580000 0.040000 0
0.600000 0.040000 0
0.620000 0.040000 0
0.640000 0.040000 0
0.660000 0.040000 0
0.680000 0.040000 0
0.700000 0.040000 0
0.720000 0.040000 0
0.740000 0.040000 0
0.760000 0.040000 0
0.780000 0.040000 0
0.800000 0.040000 0
0.820000 0.040000 0
0.840000 0.040000 0
0.860000 0.040000 0
0.880000 0.040000 0
0.900000 0.040000 0
0.920000 0.040000 0
0.940000 0.040000 0
0.960000 0.040000 0
0.980000 0.040000 0
1.000000 0.040000 0
1.020000 0.040000 0
1.040000 0.040000 0
1.060000 0.040000 0
1.080000 0.040000 0
1.100000 0.040000 0
1.120000 0.040000 0
1.140000 0.040000 0
1.160000 0.040000 0
1.180000 0.040000 0
1.200000 0.040000 0
1.220000 0.040000 0
1.240000 0.040000 0
1.260000 0.040000 0
1.280000 0.040000 0
1.300000 0.040000 0
1.320000 0.040000 0
1.340000 0.040000 0
1.360000 0.040000 0
1.380000 0.040000 0
1.400000 0.040000 0
1.420000 0.040000 0
1.440000 0.040000 0
1.460000 0.040000 0
1.480000 0.040000 0
1.500000 0.040000 0
1.520000 0.040000 0
1.540000 0.040000 0
1.560000 0.040000 0
1.580000 0.040000 0
1.600000 0.040000 0
1.620000 0.040000 0
1.640000 0.040000 0
1.660000 0.040000 0
1.680000 0.040000 0
1.700000 0.040000 0
1.720000 0.040000 0
1.740000 0.040000 0
1.760000 0.040000 0
1.780000 0.040000 0
1.800000 0.040000 0
1.820000 0.040000 0
1.840000 0.040000 0
1.860000 0.040000 0
1.880000 0.040000 0
1.900000 0.040000 0
1.920000 0.040000 0
1.940000 0.040000 0
1.960000 0.040000 0
0.000000 0.060000 0
0.020000 0.060000 0
0.040000 0.060000 0
0.060000 0.060000 0
0.080000 0.060000 0
0.100000 0.060000 0
0.120000 0.060000 0
0.140000 0.060000 0
0.160000 0.060000 0
0.180000 0.060000 0
0.200000 0.060000 0
0.220000 0.060000 0
0.240000 0.060000 0
0.260000 0.060000 0
0.280000 0.060000 0
0.300000 0.060000 0
0.320000 0.060000 0
0.340000 0.060000 0
0.360000 0.060000 0
0.380000 0.060000 0
0.400000 0.060000 0
0.420000 0.060000 0
0.440000 0.060000 0
0.460000 0.060000 0
0.480000 0.060000 0
0.500000 0.060000 0
0.520000 0.060000 0
0.540000 0.060000 0
0.560000 0.060000 0
0.580000 0.060000 0
0.600000 0.060000 0
0.620000 0.060000 0
0.640000 0.060000 0
0.660000 0.060000 0
0.680000 0.060000 0
0.700000 0.060000 0
0.720000 0.060000 0
0.740000 0.060000 0
0.760000 0.060000 0
0.780000 0.060000 0
0.800000 0.060000 0
0.820000 0.060000 0
0.840000 0.060000 0
0.860000 0.060000 0
0.880000 0.060000 0
0.900000 0.060000 0
0.920000 0.060000 0
0.940000 0.060000 0
0.960000 0.060000 0
0.980000 0.060000 0
1.000000 0.060000 0
1.020000 0.060000 0
1.040000 0.060000 0
1.060000 0.060000 0
1.080000 0.060000 0
1.100000 0.060000 0
1.120000 0.060000 0
1.140000 0.060000 0
1.160000 0.060000 0
1.180000 0.060000 0
1.200000 0.060000 0
1.220000 0.060000 0
1.240000 0.060000 0
1.260000 0.060000 0
1.280000 0.060000 0
1.300000 0.060000 0
1.320000 0.060000 0
1.340000 0.060000 0
1.360000 0.060000 0
1.380000 0.060000 0
1.400000 0.060000 0
1.420000 0.060000 0
1.440000 0.060000 0
1.460000 0.060000 0
1.480000 0.060000 0
1.500000 0.060000 0
1.520000 0.060000 0
1.540000 0.060000 0
1.560000 0.060000 0
1.580000 0.060000 0
1.600000 0.060000 0
1.620000 0.060000 0
1.640000 0.060000 0
1.660000 0.060000 0
1.680000 0.060000 0
1.700000 0.060000 0
1.720000 0.060000 0
1.740000 0.060000 0
1.760000 0.060000 0
1.780000 0.060000 0
1.800000 0.060000 0
1.820000 0.060000 0
1.840000 0.060000 0
1.860000 0.060000 0
1.880000 0.060000 0
1.900000 0.060000 0
1.920000 0.060000 0
1.940000 0.060000 0
1.960000 0.060000 0
0.000000 0.080000 0
0.020000 0.080000 0
0.040000 0.080000 0
0.060000 0.080000 0
0.080000 0.080000 0
0.100000 0.080000 0
0.120000 0.080000 0
0.140000 0.080000 0
0.160000 0.080000 0
0.180000 0.080000 0
0.200000 0.080000 0
0.220000 0.080000 0
0.240000 0.080000 0
0.260000 0.080000 0
0.280000 0.080000 0
0.300000 0.080000 0
0.320000 0.080000 0
0.340000 0.080000 0
0.360000 0.080000 0
0.380000 0.080000 0
0.400000 0.080000 0
0.420000 0.080000 0
0.440000 0.080000 0
0.460000 0.080000 0
0.480000 0.080000 0
0.500000 0.080000 0
0.520000 0.080000 0
0.540000 0.080000 0
0.560000 0.080000 0
0.580000 0.080000 0
0.600000 0.080000 0
0.620000 0.080000 0
0.640000 0.080000 0
0.660000 0.080000 0
0.680000 0.080000 0
0.700000 0.080000 0
0.720000 0.080000 0
0.740000 0.080000 0
0.760000 0.080000 0
0.780000 0.080000 0
0.800000 0.080000 0
0.820000 0.080000 0
0.840000 0.080000 0
0.860000 0.080000 0
0.880000 0.080000 0
0.900000 0.080000 0
0.920000 0.080000 0
0.940000 0.080000 0
0.960000 0.080000 0
0.980000 0.080000 0
1.000000 0.080000 0
1.020000 0.080000 0
1.040000 0.080000 0
1.060000 0.080000 0
1.080000 0.080000 0
1.100000 0.080000 0
1.120000 0.080000 0
1.140000 0.080000 0
1.160000 0.080000 0
1.180000 0.080000 0
1.200000 0.080000 0
1.220000 0.080000 0
1.240000 0.080000 0
1.260000 0.080000 0
1.280000 0.080000 0
1.300000 0.080000 0
1.320000 0.080000 0
1.340000 0.080000 0
1.360000 0.080000 0
1.380000 0.080000 0
1.400000 0.080000 0
1.420000 0.080000 0
1.440000 0.080000 0
1.460000 0.080000 0
1.480000 0.080000 0
1.500000 0.080000 0
1.520000 0.080000 0
1.540000 0.080000 0
1.560000 0.080000 0
1.580000 0.080000 0
1.600000 0.080000 0
1.620000 0.080000 0
1.640000 0.080000 0
1.660000 0.080000 0
1.680000 0.080000 0
1.700000 0.080000 0
1.720000 0.080000 0
1.740000 0.080000 0
1.760000 0.080000 0
1.780000 0.080000 0
1.800000 0.080000 0
1.820000 0.080000 0
1.840000 0.080000 0
1.860000 0.080000 0
1.880000 0.080000 0
[...]
POINT_DATA 4851 

VECTORS velocity float
0.000000 0.000000 0
0.000037 0.000000 0
0.000097 0.000000 0
0.000148 0.000000 0
0.000181 0.000000 0
0.000194 0.000000 0
0.000195 0.000000 0
0.000189 0.000000 0
0.000180 0.000000 0
0.000170 0.000000 0
0.000163 0.000000 0
0.000157 0.000000 0
0.000153 0.000000 0
0.000151 0.000000 0
0.000149 0.000000 0
0.000148 0.000000 0
0.000148 0.000000 0
0.000147 0.000000 0
0.000147 0.000000 0
0.000146 0.000000 0
0.000145 0.000000 0
0.000144 0.000000 0
0.000143 0.000000 0
0.000141 0.000000 0
0.000140 0.000000 0
0.000138 0.000000 0
0.000136 0.000000 0
0.000133 0.000000 0
0.000130 0.000000 0
0.000125 0.000000 0
0.000117 0.000000 0
0.000105 0.000000 0
0.000087 0.000000 0
0.000064 0.000000 0
0.000036 0.000000 0
0.000011 0.000000 0
0.000000 0.000000 0
0.000000 0.000000 0
0.000000 0.000000 0
0.000000 0.000000 0
0.000000 0.000000 0
0.000005 0.000000 0
0.000045 0.000000 0
0.000113 0.000000 0
0.000194 0.000000 0
0.000271 0.000000 0
0.000334 0.000000 0
0.000377 0.000000 0
0.000399 0.000000 0
0.000403 0.000000 0
0.000393 0.000000 0
0.000373 0.000000 0
0.000348 0.000000 0
0.000322 0.000000 0
0.000296 0.000000 0
0.000273 0.000000 0
0.000253 0.000000 0
0.000238 0.000000 0
0.000228 0.000000 0
0.000221 0.000000 0
0.000217 0.000000 0
0.000217 0.000000 0
0.000218 0.000000 0
0.000220 0.000000 0
0.000224 0.000000 0
0.000227 0.000000 0
0.000230 0.000000 0
0.000233 0.000000 0
0.000235 0.000000 0
0.000237 0.000000 0
0.000239 0.000000 0
0.000240 0.000000 0
0.000241 0.000000 0
0.000241 0.000000 0
0.000242 0.000000 0
0.000242 0.000000 0
0.000243 0.000000 0
0.000243 0.000000 0
0.000244 0.000000 0
0.000245 0.000000 0
0.000247 0.000000 0
0.000249 0.000000 0
0.000251 0.000000 0
0.000254 0.000000 0
0.000257 0.000000 0
0.000262 0.000000 0
0.000267 0.000000 0
0.000274 0.000000 0
0.000283 0.000000 0
0.000295 0.000000 0
0.000312 0.000000 0
0.000335 0.000000 0
0.000369 0.000000 0
0.000420 0.000000 0
0.000491 0.000000 0
0.000580 0.000000 0
0.000639 0.000000 0
0.000500 0.000000 0
0.000000 0.000000 0
0.000000 -0.000037 0
0.000107 -0.000098 0
0.000280 -0.000112 0
0.000435 -0.000084 0
0.000539 -0.000047 0
0.000593 -0.000015 0
0.000606 0.000005 0
0.000596 0.000015 0
0.000574 0.000018 0
0.000549 0.000017 0
0.000527 0.000013 0
0.000510 0.000009 0
0.000498 0.000006 0
0.000491 0.000003 0
0.000486 0.000001 0
0.000483 0.000001 0
0.000481 0.000000 0
0.000479 0.000000 0
0.000476 0.000001 0
0.000473 0.000001 0
0.000469 0.000001 0
0.000465 0.000002 0
0.000459 0.000002 0
0.000454 0.000002 0
0.000447 0.000003 0
0.000440 0.000003 0
0.000431 0.000004 0
0.000420 0.000005 0
0.000405 0.000008 0
0.000384 0.000012 0
0.000354 0.000019 0
0.000312 0.000029 0
0.000256 0.000041 0
0.000184 0.000050 0
0.000105 0.000052 0
0.000035 0.000035 0
0.000000 0.000011 0
0.000000 0.000000 0
0.000000 0.000000 0
0.000000 0.000000 0
0.000000 -0.000004 0
0.000041 -0.000044 0
0.000187 -0.000108 0
0.000410 -0.000149 0
0.000666 -0.000158 0
0.000913 -0.000140 0
0.001119 -0.000106 0
0.001266 -0.000065 0
0.001350 -0.000026 0
0.001376 0.000007 0
0.001357 0.000030 0
0.001305 0.000045 0
0.001233 0.000052 0
0.001152 0.000053 0
0.001070 0.000049 0
0.000995 0.000043 0
0.000930 0.000035 0
0.000878 0.000026 0
0.000840 0.000018 0
0.000814 0.000010 0
0.000799 0.000004 0
0.000794 -0.000000 0
0.000795 -0.000003 0
0.000801 -0.000005 0
0.000809 -0.000006 0
0.000819 -0.000006 0
0.000828 -0.000006 0
0.000837 -0.000005 0
0.000844 -0.000004 0
0.000850 -0.000003 0
0.000854 -0.000002 0
0.000857 -0.000002 0
0.000860 -0.000001 0
0.000861 -0.000001 0
0.000862 -0.000001 0
0.000864 -0.000001 0
0.000865 -0.000001 0
0.000867 -0.000001 0
0.000869 -0.000002 0
0.000873 -0.000002 0
0.000877 -0.000003 0
0.000882 -0.000004 0
0.000889 -0.000005 0
0.000898 -0.000006 0
0.000908 -0.000008 0
0.000922 -0.000010 0
0.000939 -0.000012 0
0.000960 -0.000016 0
0.000988 -0.000021 0
0.001024 -0.000029 0
0.001072 -0.000040 0
0.001136 -0.000057 0
0.001220 -0.000084 0
0.001329 -0.000121 0
0.001455 -0.000160 0
0.001559 -0.000148 0
0.001503 0.000081 0
0.000996 0.000639 0
0.000000 0.000500 0
0.000000 -0.000107 0
0.000150 -0.000281 0
0.000396 -0.000329 0
0.000625 -0.000261 0
0.000790 -0.000159 0
0.000884 -0.000068 0
0.000919 -0.000004 0
0.000916 0.000032 0
0.000893 0.000046 0
0.000862 0.000046 0
0.000833 0.000038 0
0.000809 0.000028 0
0.000791 0.000019 0
0.000780 0.000012 0
0.000772 0.000007 0
0.000766 0.000004 0
0.000762 0.000004 0
0.000757 0.000004 0
0.000752 0.000005 0
0.000746 0.000006 0
0.000738 0.000007 0
0.000729 0.000009 0
0.000719 0.000010 0
0.000708 0.000011 0
0.000694 0.000013 0
0.000679 0.000016 0
0.000661 0.000019 0
0.000638 0.000025 0
0.000608 0.000035 0
0.000569 0.000050 0
0.000516 0.000071 0
0.000447 0.000098 0
0.000359 0.000127 0
0.000255 0.000149 0
0.000145 0.000149 0
0.000049 0.000105 0
0.000000 0.000034 0
0.000000 0.000000 0
0.000000 0.000000 0
0.000000 0.000000 0
0.000000 -0.000040 0
0.000099 -0.000186 0
0.000357 -0.000368 0
0.000725 -0.000480 0
0.001136 -0.000504 0
0.001531 -0.000452 0
0.001865 -0.000352 0
0.002113 -0.000230 0
0.002267 -0.000110 0
0.002332 -0.000008 0
0.002323 0.000071 0
0.002258 0.000125 0
0.002157 0.000154 0
0.002036 0.000163 0
0.001910 0.000157 0
0.001790 0.000140 0
0.001685 0.000117 0
0.001598 0.000090 0
0.001532 0.000064 0
0.001485 0.000041 0
0.001456 0.000021 0
0.001442 0.000005 0
0.001440 -0.000007 0
0.001445 -0.000014 0
0.001455 -0.000018 0
0.001467 -0.000019 0
0.001479 -0.000018 0
0.001491 -0.000016 0
0.001500 -0.000013 0
0.001508 -0.000010 0
0.001513 -0.000007 0
0.001517 -0.000005 0
0.001519 -0.000004 0
0.001521 -0.000003 0
0.001522 -0.000002 0
0.001522 -0.000002 0
0.001523 -0.000003 0
0.001525 -0.000004 0
0.001528 -0.000005 0
0.001532 -0.000007 0
0.001537 -0.000009 0
0.001544 -0.000012 0
0.001553 -0.000015 0
0.001565 -0.000019 0
0.001580 -0.000024 0
0.001599 -0.000030 0
0.001624 -0.000038 0
0.001654 -0.000049 0
0.001692 -0.000064 0
0.001740 -0.000084 0
0.001801 -0.000111 0
0.001874 -0.000148 0
0.001958 -0.000193 0
0.002042 -0.000235 0
0.002088 -0.000229 0
0.002014 -0.000047 0
0.001661 0.000563 0
0.000875 0.001503 0
0.000000 0.000997 0
0.000000 -0.000188 0
0.000162 -0.000495 0
0.000431 -0.000587 0
0.000686 -0.000478 0
0.000875 -0.000305 0
0.000988 -0.000145 0
0.001037 -0.000028 0
0.001043 0.000041 0
0.001024 0.000072 0
0.000996 0.000076 0
0.000967 0.000066 0
0.000942 0.000050 0
0.000924 0.000035 0
0.000910 0.000023 0
0.000901 0.000014 0
0.000893 0.000010 0
0.000886 0.000009 0
0.000879 0.000010 0
0.000871 0.000012 0
0.000861 0.000015 0
0.000850 0.000017 0
0.000837 0.000020 0
0.000822 0.000023 0
0.000805 0.000027 0
0.000786 0.000031 0
0.000763 0.000037 0
0.000736 0.000045 0
0.000704 0.000058 0
0.000663 0.000077 0
0.000612 0.000104 0
0.000547 0.000141 0
0.000465 0.000186 0
0.000367 0.000232 0
0.000256 0.000264 0
0.000143 0.000257 0
0.000048 0.000180 0
0.000000 0.000060 0
0.000000 0.000000 0
0.000000 0.000000 0
0.000000 0.000000 0
0.000000 -0.000102 0
0.000140 -0.000401 0
0.000481 -0.000734 0
0.000945 -0.000928 0
0.001453 -0.000964 0
0.001936 -0.000869 0
0.002347 -0.000687 0
0.002657 -0.000466 0
0.002858 -0.000244 0
0.002955 -0.000050 0
0.002964 0.000103 0
0.002905 0.000211 0
0.002798 0.000275 0
0.002663 0.000300 0
0.002519 0.000295 0
0.002379 0.000268 0
0.002254 0.000227 0
0.002148 0.000179 0
0.002066 0.000131 0
0.002006 0.000086 0
0.001967 0.000048 0
0.001945 0.000017 0
0.001937 -0.000006 0
0.001937 -0.000020 0
0.001944 -0.000028 0
0.001954 -0.000031 0
0.001964 -0.000030 0
0.001974 -0.000026 0
0.001981 -0.000021 0
0.001986 -0.000016 0
0.001990 -0.000011 0
0.001991 -0.000007 0
0.001991 -0.000005 0
0.001990 -0.000003 0
0.001988 -0.000002 0
0.001986 -0.000003 0
0.001985 -0.000004 0
0.001984 -0.000006 0
0.001985 -0.000008 0
0.001987 -0.000011 0
0.001990 -0.000015 0
0.001995 -0.000020 0
0.002003 -0.000026 0
0.002013 -0.000033 0
0.002027 -0.000042 0
0.002045 -0.000053 0
0.002067 -0.000067 0
0.002095 -0.000084 0
0.002128 -0.000107 0
0.002169 -0.000137 0
0.002216 -0.000174 0
0.002265 -0.000215 0
0.002305 -0.000251 0
0.002313 -0.000251 0
0.002239 -0.000133 0
0.001997 0.000279 0
0.001473 0.001220 0
0.000659 0.002300 0
0.000000 0.001375 0
0.000000 -0.000270 0
0.000159 -0.000713 0
0.000425 -0.000853 0
0.000679 -0.000705 0
0.000867 -0.000461 0
0.000981 -0.000230 0
0.001034 -0.000059 0
0.001043 0.000044 0
0.001029 0.000093 0
0.001004 0.000103 0
0.000979 0.000091 0
0.000956 0.000071 0
0.000938 0.000051 0
0.000925 0.000034 0
0.000914 0.000024 0
0.000904 0.000018 0
0.000895 0.000017 0
0.000885 0.000019 0
0.000873 0.000022 0
0.000860 0.000027 0
0.000845 0.000031 0
0.000828 0.000036 0
0.000809 0.000042 0
0.000787 0.000048 0
0.000763 0.000055 0
0.000735 0.000065 0
0.000703 0.000078 0
0.000664 0.000098 0
0.000618 0.000127 0
0.000562 0.000166 0
0.000494 0.000217 0
0.000412 0.000277 0
0.000319 0.000336 0
0.000218 0.000373 0
0.000119 0.000357 0
0.000038 0.000248 0
0.000000 0.000082 0
0.000000 0.000000 0
0.000000 0.000000 0
0.000000 0.000000 0
0.000000 -0.000181 0
0.000167 -0.000667 0
0.000563 -0.001173 0
0.001091 -0.001451 0
0.001658 -0.001494 0
0.002190 -0.001346 0
0.002639 -0.001072 0
0.002979 -0.000741 0
0.003203 -0.000409 0
0.003319 -0.000114 0
0.003341 0.000122 0
0.003290 0.000292 0
0.003188 0.000396 0
0.003055 0.000442 0
0.002910 0.000441 0
0.002767 0.000405 0
0.002637 0.000348 0
0.002527 0.000278 0
0.002440 0.000207 0
0.002375 0.000140 0
0.002331 0.000082 0
0.002304 0.000035 0
0.002289 0.000001 0
0.002284 -0.000022 0
0.002285 -0.000034 0
0.002288 -0.000039 0
0.002292 -0.000037 0
0.002294 -0.000032 0
0.002296 -0.000025 0
0.002295 -0.000018 0
0.002292 -0.000012 0
0.002288 -0.000006 0
0.002283 -0.000002 0
0.002277 0.000000 0
0.002271 0.000001 0
0.002265 0.000001 0
0.002259 -0.000001 0
0.002254 -0.000004 0
0.002251 -0.000008 0
0.002248 -0.000012 0
0.002247 -0.000018 0
0.002248 -0.000025 0
0.002251 -0.000033 0
0.002256 -0.000043 0
0.002263 -0.000055 0
0.002274 -0.000070 0
0.002287 -0.000088 0
0.002303 -0.000110 0
0.002323 -0.000138 0
0.002344 -0.000171 0
0.002364 -0.000206 0
0.002376 -0.000237 0
0.002365 -0.000241 0
0.002302 -0.000169 0
0.002138 0.000087 0
0.001803 0.000719 0
0.001233 0.001901 0
0.000491 0.002976 0
0.000000 0.001655 0
0.000000 -0.000348 0
0.000150 -0.000921 0
0.000399 -0.001107 0
0.000635 -0.000920 0
0.000808 -0.000608 0
0.000912 -0.000312 0
0.000959 -0.000090 0
0.000968 0.000046 0
0.000955 0.000110 0
0.000933 0.000126 0
0.000910 0.000114 0
0.000890 0.000090 0
0.000874 0.000066 0
0.000860 0.000047 0
0.000847 0.000035 0
0.000836 0.000029 0
0.000823 0.000028 0
0.000810 0.000031 0
0.000795 0.000036 0
0.000778 0.000042 0
0.000759 0.000049 0
0.000739 0.000056 0
0.000716 0.000064 0
0.000691 0.000073 0
0.000663 0.000083 0
0.000632 0.000097 0
0.000597 0.000116 0
0.000557 0.000142 0
0.000510 0.000179 0
0.000456 0.000228 0
0.000393 0.000290 0
0.000321 0.000360 0
0.000242 0.000426 0
0.000161 0.000464 0
0.000085 0.000436 0
0.000026 0.000299 0
0.000000 0.000098 0
0.000000 0.000000 0
0.000000 0.000000 0
0.000000 0.000000 0
0.000000 -0.000269 0
0.000184 -0.000965 0
0.000617 -0.001659 0
0.001184 -0.002022 0
0.001781 -0.002062 0
0.002332 -0.001850 0
0.002790 -0.001476 0
0.003134 -0.001030 0
0.003360 -0.000584 0
0.003478 -0.000187 0
0.003504 0.000132 0
0.003459 0.000364 0
0.003364 0.000510 0
0.003240 0.000578 0
0.003103 0.000582 0
0.002968 0.000540 0
0.002846 0.000467 0
0.002742 0.000377 0
0.002658 0.000284 0
0.002595 0.000196 0
0.002550 0.000119 0
0.002520 0.000058 0
0.002500 0.000014 0
0.002488 -0.000016 0
0.002480 -0.000032 0
0.002473 -0.000038 0
0.002466 -0.000036 0
0.002459 -0.000030 0
0.002450 -0.000021 0
0.002440 -0.000013 0
0.002428 -0.000005 0
0.002416 0.000002 0
0.002404 0.000007 0
0.002391 0.000009 0
0.002379 0.000010 0
0.002367 0.000009 0
0.002356 0.000007 0
0.002346 0.000003 0
0.002336 -0.000002 0
0.002328 -0.000008 0
0.002321 -0.000015 0
0.002316 -0.000024 0
0.002311 -0.000033 0
0.002308 -0.000045 0
0.002306 -0.000059 0
0.002306 -0.000076 0
0.002306 -0.000096 0
0.002307 -0.000120 0
0.002307 -0.000148 0
0.002305 -0.000178 0
0.002297 -0.000205 0
0.002275 -0.000215 0
0.002223 -0.000177 0
0.002116 -0.000024 0
0.001911 0.000366 0
0.001553 0.001185 0
0.001008 0.002533 0
0.000368 0.003534 0
0.000000 0.001865 0
0.000000 -0.000420 0
0.000137 -0.001113 0
0.000363 -0.001339 0
0.000572 -0.001114 0
0.000722 -0.000738 0
0.000809 -0.000381 0
0.000846 -0.000115 0
0.000849 0.000049 0
0.000836 0.000127 0
0.000816 0.000147 0
0.000795 0.000134 0
0.000777 0.000108 0
0.000761 0.000081 0
0.000746 0.000060 0
0.000732 0.000048 0
0.000717 0.000042 0
0.000701 0.000043 0
0.000684 0.000047 0
0.000666 0.000054 0
0.000646 0.000062 0
0.000624 0.000070 0
0.000600 0.000079 0
0.000575 0.000089 0
0.000548 0.000100 0
0.000519 0.000113 0
0.000487 0.000131 0
0.000452 0.000153 0
0.000414 0.000185 0
0.000371 0.000227 0
0.000324 0.000283 0
0.000272 0.000352 0
0.000215 0.000428 0
0.000156 0.000496 0
0.000099 0.000530 0
0.000050 0.000491 0
0.000014 0.000332 0
0.000000 0.000108 0
0.000000 0.000000 0
0.000000 0.000000 0
0.000000 0.000000 0
0.000000 -0.000364 0
0.000195 -0.001284 0
0.000651 -0.002173 0
0.001237 -0.002615 0
0.001843 -0.002642 0
0.002389 -0.002355 0
0.002833 -0.001874 0
0.003159 -0.001311 0
0.003369 -0.000753 0
0.003475 -0.000258 0
0.003496 0.000141 0
0.003452 0.000432 0
0.003363 0.000615 0
0.003249 0.000703 0
0.003126 0.000712 0
0.003006 0.000663 0
0.002897 0.000575 0
0.002805 0.000467 0
0.002731 0.000354 0
0.002673 0.000248 0
0.002630 0.000157 0
0.002597 0.000085 0
0.002571 0.000033 0
0.002549 -0.000001 0
0.002529 -0.000019 0
0.002509 -0.000025 0
0.002489 -0.000023 0
0.002468 -0.000016 0
0.002446 -0.000006 0
0.002424 0.000004 0
0.002402 0.000012 0
0.002380 0.000019 0
0.002359 0.000023 0
0.002339 0.000026 0
0.002320 0.000026 0
0.002302 0.000024 0
0.002285 0.000020 0
0.002269 0.000016 0
0.002254 0.000010 0
0.002240 0.000003 0
0.002226 -0.000005 0
0.002213 -0.000015 0
0.002201 -0.000025 0
0.002189 -0.000038 0
0.002177 -0.000052 0
0.002164 -0.000069 0
0.002150 -0.000089 0
0.002134 -0.000112 0
0.002115 -0.000136 0
0.002092 -0.000160 0
0.002061 -0.000176 0
0.002016 -0.000163 0
0.001946 -0.000083 0
0.001826 0.000144 0
0.001622 0.000651 0
0.001289 0.001622 0
0.000807 0.003086 0
0.000274 0.003985 0
0.000000 0.002023 0
0.000000 -0.000485 0
0.000123 -0.001284 0
0.000321 -0.001542 0
0.000500 -0.001280 0
0.000623 -0.000846 0
0.000690 -0.000436 0
0.000714 -0.000131 0
0.000712 0.000055 0
0.000696 0.000144 0
0.000677 0.000166 0
0.000658 0.000152 0
0.000640 0.000124 0
0.000624 0.000097 0
0.000607 0.000076 0
0.000591 0.000063 0
0.000573 0.000059 0
0.000554 0.000061 0
0.000533 0.000067 0
0.000511 0.000075 0
0.000488 0.000084 0
0.000464 0.000094 0
0.000439 0.000104 0
0.000413 0.000116 0
0.000385 0.000129 0
0.000356 0.000144 0
0.000326 0.000163 0
0.000294 0.000188 0
0.000260 0.000223 0
0.000225 0.000268 0
0.000188 0.000327 0
0.000149 0.000399 0
0.000111 0.000475 0
0.000074 0.000542 0
0.000042 0.000570 0
0.000018 0.000522 0
0.000004 0.000348 0
0.000000 0.000112 0
0.000000 0.000000 0
0.000000 0.000000 0
0.000000 0.000000 0
0.000000 -0.000464 0
0.000203 -0.001615 0
0.000670 -0.002701 0
0.001259 -0.003213 0
0.001853 -0.003214 0
0.002376 -0.002840 0
0.002788 -0.002246 0
0.003080 -0.001566 0
0.003261 -0.000900 0
0.003345 -0.000314 0
0.003352 0.000156 0
0.003304 0.000497 0
0.003219 0.000713 0
0.003115 0.000815 0
0.003006 0.000826 0
0.002902 0.000769 0
0.002810 0.000668 0
0.002731 0.000544 0
0.002667 0.000415 0
0.002615 0.000296 0
0.002572 0.000196 0
0.002534 0.000117 0
0.002499 0.000061 0
0.002464 0.000026 0
0.002429 0.000008 0
0.002392 0.000003 0
0.002356 0.000006 0
0.002319 0.000013 0
0.002283 0.000023 0
0.002249 0.000032 0
0.002216 0.000039 0
0.002185 0.000045 0
0.002157 0.000048 0
0.002130 0.000049 0
0.002105 0.000047 0
0.002082 0.000044 0
0.002060 0.000040 0
0.002039 0.000034 0
0.002019 0.000027 0
0.001999 0.000020 0
0.001980 0.000011 0
0.001961 0.000002 0
0.001942 -0.000009 0
0.001921 -0.000021 0
0.001900 -0.000034 0
0.001876 -0.000049 0
0.001849 -0.000066 0
0.001819 -0.000086 0
0.001785 -0.000106 0
0.001747 -0.000124 0
0.001703 -0.000129 0
0.001651 -0.000100 0
0.001583 0.000013 0
0.001480 0.000300 0
0.001310 0.000904 0
0.001030 0.002000 0
0.000628 0.003548 0
0.000197 0.004341 0
0.000000 0.002139 0
0.000000 -0.000543 0
0.000108 -0.001434 0
0.000278 -0.001716 0
0.000425 -0.001416 0
0.000521 -0.000929 0
0.000567 -0.000473 0
0.000578 -0.000137 0
0.000569 0.000066 0
0.000552 0.000161 0
0.000533 0.000185 0
0.000514 0.000170 0
0.000497 0.000141 0
0.000479 0.000114 0
0.000461 0.000093 0
0.000441 0.000082 0
0.000421 0.000079 0
0.000398 0.000082 0
0.000375 0.000089 0
0.000351 0.000098 0
0.000326 0.000108 0
0.000301 0.000119 0
0.000275 0.000131 0
0.000249 0.000143 0
0.000222 0.000157 0
0.000195 0.000173 0
0.000168 0.000192 0
0.000141 0.000219 0
0.000114 0.000253 0
0.000088 0.000300 0
0.000062 0.000359 0
0.000039 0.000429 0
0.000019 0.000503 0
0.000003 0.000564 0
-0.000005 0.000586 0
-0.000007 0.000530 0
-0.000004 0.000350 0
0.000000 0.000112 0
0.000000 0.000000 0
0.000000 0.000000 0
0.000000 0.000000 0
0.000000 -0.000567 0
0.000208 -0.001953 0
0.000676 -0.003229 0
0.001254 -0.003798 0
0.001821 -0.003759 0
0.002303 -0.003289 0
0.002670 -0.002578 0
0.002917 -0.001783 0
0.003059 -0.001017 0
0.003114 -0.000349 0
0.003104 0.000182 0
0.003047 0.000565 0
0.002964 0.000804 0
0.002867 0.000916 0
0.002770 0.000925 0
0.002680 0.000859 0
0.002601 0.000746 0
0.002533 0.000609 0
0.002474 0.000470 0
0.002423 0.000343 0
0.002374 0.000238 0
0.002325 0.000158 0
0.002275 0.000103 0
0.002223 0.000070 0
0.002169 0.000053 0
0.002115 0.000048 0
0.002062 0.000051 0
0.002011 0.000057 0
0.001963 0.000064 0
0.001918 0.000071 0
0.001878 0.000076 0
0.001841 0.000078 0
0.001807 0.000079 0
0.001777 0.000077 0
0.001749 0.000074 0
0.001723 0.000069 0
0.001698 0.000063 0
0.001675 0.000057 0
0.001652 0.000049 0
0.001630 0.000042 0
0.001607 0.000033 0
0.001585 0.000024 0
0.001561 0.000015 0
0.001535 0.000004 0
0.001507 -0.000007 0
0.001476 -0.000019 0
0.001441 -0.000032 0
0.001402 -0.000047 0
0.001358 -0.000064 0
0.001313 -0.000078 0
0.001268 -0.000080 0
0.001225 -0.000043 0
0.001179 0.000088 0
0.001114 0.000417 0
0.000997 0.001101 0
0.000785 0.002304 0
0.000466 0.003919 0
0.000133 0.004613 0
0.000000 0.002220 0
0.000000 -0.000594 0
0.000094 -0.001563 0
0.000236 -0.001859 0
0.000352 -0.001522 0
0.000420 -0.000988 0
0.000446 -0.000493 0
0.000446 -0.000133 0
0.000431 0.000081 0
0.000413 0.000180 0
0.000394 0.000203 0
0.000376 0.000188 0
0.000358 0.000159 0
0.000339 0.000132 0
0.000319 0.000113 0
0.000297 0.000104 0
0.000273 0.000102 0
0.000249 0.000106 0
0.000224 0.000114 0
0.000199 0.000123 0
0.000173 0.000134 0
0.000148 0.000145 0
0.000123 0.000156 0
0.000098 0.000169 0
0.000073 0.000182 0
0.000050 0.000198 0
0.000027 0.000217 0
0.000006 0.000242 0
-0.000013 0.000276 0
-0.000030 0.000320 0
-0.000044 0.000376 0
-0.000053 0.000442 0
-0.000056 0.000511 0
-0.000052 0.000566 0
-0.000042 0.000581 0
-0.000026 0.000520 0
-0.000010 0.000341 0
0.000000 0.000108 0
0.000000 0.000000 0
0.000000 0.000000 0
0.000000 0.000000 0
0.000000 -0.000672 0
0.000209 -0.002291 0
0.000670 -0.003747 0
0.001224 -0.004357 0
0.001750 -0.004263 0
0.002181 -0.003689 0
0.002493 -0.002860 0
0.002689 -0.001955 0
0.002787 -0.001097 0
0.002810 -0.000359 0
0.002778 0.000223 0
0.002711 0.000638 0
0.002625 0.000893 0
0.002532 0.001009 0
0.002441 0.001014 0
0.002357 0.000939 0
0.002282 0.000815 0
0.002214 0.000670 0
0.002151 0.000525 0
0.002089 0.000397 0
0.002025 0.000293 0
0.001958 0.000216 0
0.001887 0.000164 0
0.001814 0.000132 0
0.001741 0.000116 0
0.001671 0.000110 0
0.001605 0.000110 0
0.001545 0.000113 0
0.001490 0.000115 0
0.001442 0.000117 0
0.001400 0.000117 0
0.001363 0.000115 0
0.001330 0.000112 0
0.001301 0.000107 0
0.001274 0.000102 0
0.001250 0.000095 0
0.001227 0.000088 0
0.001205 0.000080 0
0.001184 0.000073 0
0.001162 0.000065 0
0.001140 0.000057 0
0.001118 0.000049 0
0.001094 0.000041 0
0.001067 0.000033 0
0.001038 0.000025 0
0.001004 0.000017 0
0.000966 0.000008 0
0.000924 -0.000003 0
0.000880 -0.000017 0