# vtk DataFile Version 2.0
generated by CFD-lab course output (written by Tobias Neckel) 
ASCII

DATASET STRUCTURED_GRID
DIMENSIONS  99 49 1 
POINTS 4851 float

0.000000 0.000000 0
0.020000 0.000000 0
0.040000 0.000000 0
0.060000 0.000000 0
0.080000 0.000000 0
0.100000 0.000000 0
0.120000 0.000000 0
0.140000 0.000000 0
0.160000 0.000000 0
0.180000 0.000000 0
0.200000 0.000000 0
0.220000 0.000000 0
0.240000 0.000000 0
0.260000 0.000000 0
0.280000 0.000000 0
0.300000 0.000000 0
0.320000 0.000000 0
0.340000 0.000000 0
0.360000 0.000000 0
0.380000 0.000000 0
0.400000 0.000000 0
0.420000 0.000000 0
0.440000 0.000000 0
0.460000 0.000000 0
0.480000 0.000000 0
0.500000 0.000000 0
0.520000 0.000000 0
0.540000 0.000000 0
0.560000 0.000000 0
0.580000 0.000000 0
0.600000 0.000000 0
0.620000 0.000000 0
0.640000 0.000000 0
0.660000 0.000000 0
0.680000 0.000000 0
0.700000 0.000000 0
0.720000 0.000000 0
0.740000 0.000000 0
0.760000 0.000000 0
0.780000 0.000000 0
0.800000 0.000000 0
0.820000 0.000000 0
0.840000 0.000000 0
0.860000 0.000000 0
0.880000 0.000000 0
0.900000 0.000000 0
0.920000 0.000000 0
0.940000 0.000000 0
0.960000 0.000000 0
0.980000 0.000000 0
1.000000 0.000000 0
1.020000 0.000000 0
1.040000 0.000000 0
1.060000 0.000000 0
1.080000 0.000000 0
1.100000 0.000000 0
1.120000 0.000000 0
1.140000 0.000000 0
1.160000 0.000000 0
1.180000 0.000000 0
1.200000 0.000000 0
1.220000 0.000000 0
1.240000 0.000000 0
1.260000 0.000000 0
1.280000 0.000000 0
1.300000 0.000000 0
1.320000 0.000000 0
1.340000 0.000000 0
1.360000 0.000000 0
1.380000 0.000000 0
1.400000 0.000000 0
1.420000 0.000000 0
1.440000 0.000000 0
1.460000 0.000000 0
1.480000 0.000000 0
1.500000 0.000000 0
1.520000 0.000000 0
1.540000 0.000000 0
1.560000 0.000000 0
1.580000 0.000000 0
1.600000 0.000000 0
1.620000 0.000000 0
1.640000 0.000000 0
1.660000 0.000000 0
1.680000 0.000000 0
1.700000 0.000000 0
1.720000 0.000000 0
1.740000 0.000000 0
1.760000 0.000000 0
1.780000 0.000000 0
1.800000 0.000000 0
1.820000 0.000000 0
1.840000 0.000000 0
1.860000 0.000000 0
1.880000 0.000000 0
1.900000 0.000000 0
1.920000 0.000000 0
1.940000 0.000000 0
1.960000 0.000000 0
0.000000 0.020000 0
0.020000 0.020000 0
0.040000 0.020000 0
0.060000 0.020000 0
0.080000 0.020000 0
0.100000 0.020000 0
0.120000 0.020000 0
0.140000 0.020000 0
0.160000 0.020000 0
0.180000 0.020000 0
0.200000 0.020000 0
0.220000 0.020000 0
0.240000 0.020000 0
0.260000 0.020000 0
0.280000 0.020000 0
0.300000 0.020000 0
0.320000 0.020000 0
0.340000 0.020000 0
0.360000 0.020000 0
0.380000 0.020000 0
0.400000 0.020000 0
0.420000 0.020000 0
0.440000 0.020000 0
0.460000 0.020000 0
0.480000 0.020000 0
0.500000 0.020000 0
0.520000 0.020000 0
0.540000 0.020000 0
0.560000 0.020000 0
0.580000 0.020000 0
0.600000 0.020000 0
0.620000 0.020000 0
0.640000 0.020000 0
0.660000 0.020000 0
0.680000 0.020000 0
0.700000 0.020000 0
0.720000 0.020000 0
0.740000 0.020000 0
0.760000 0.020000 0
0.780000 0.020000 0
0.800000 0.020000 0
0.820000 0.020000 0
0.840000 0.020000 0
0.860000 0.020000 0
0.880000 0.020000 0
0.900000 0.020000 0
0.920000 0.020000 0
0.940000 0.020000 0
0.960000 0.020000 0
0.980000 0.020000 0
1.000000 0.020000 0
1.020000 0.020000 0
1.040000 0.020000 0
1.060000 0.020000 0
1.080000 0.020000 0
1.100000 0.020000 0
1.120000 0.020000 0
1.140000 0.020000 0
1.160000 0.020000 0
1.180000 0.020000 0
1.200000 0.020000 0
1.220000 0.020000 0
1.240000 0.020000 0
1.260000 0.020000 0
1.280000 0.020000 0
1.300000 0.020000 0
1.320000 0.020000 0
1.340000 0.020000 0
1.360000 0.020000 0
1.380000 0.020000 0
1.400000 0.020000 0
1.420000 0.020000 0
1.440000 0.020000 0
1.460000 0.020000 0
1.480000 0.020000 0
1.500000 0.020000 0
1.520000 0.020000 0
1.540000 0.020000 0
1.560000 0.020000 0
1.580000 0.020000 0
1.600000 0.020000 0
1.620000 0.020000 0
1.640000 0.020000 0
1.660000 0.020000 0
1.680000 0.020000 0
1.700000 0.020000 0
1.720000 0.020000 0
1.740000 0.020000 0
1.760000 0.020000 0
1.780000 0.020000 0
1.800000 0.020000 0
1.820000 0.020000 0
1.840000 0.020000 0
1.860000 0.020000 0
1.880000 0.020000 0
1.900000 0.020000 0
1.920000 0.020000 0
1.940000 0.020000 0
1.960000 0.020000 0
0.000000 0.040000 0
0.020000 0.040000 0
0.040000 0.040000 0
0.060000 0.040000 0
0.080000 0.040000 0
0.100000 0.040000 0
0.120000 0.040000 0
0.140000 0.040000 0
0.160000 0.040000 0
0.180000 0.040000 0
0.200000 0.040000 0
0.220000 0.040000 0
0.240000 0.040000 0
0.260000 0.040000 0
0.280000 0.040000 0
0.300000 0.040000 0
0.320000 0.040000 0
0.340000 0.040000 0
0.360000 0.040000 0
0.380000 0.040000 0
0.400000 0.040000 0
0.420000 0.040000 0
0.440000 0.040000 0
0.460000 0.040000 0
0.480000 0.040000 0
0.500000 0.040000 0
0.520000 0.040000 0
0.540000 0.040000 0
0.560000 0.040000 0
0.580000 0.040000 0
0.600000 0.040000 0
0.620000 0.040000 0
0.640000 0.040000 0
0.660000 0.040000 0
0.680000 0.040000 0
0.700000 0.040000 0
0.720000 0.040000 0
0.740000 0.040000 0
0.760000 0.040000 0
0.780000 0.040000 0
0.800000 0.040000 0
0.820000 0.040000 0
0.840000 0.040000 0
0.860000 0.040000 0
0.880000 0.040000 0
0.900000 0.040000 0
0.920000 0.040000 0
0.940000 0.040000 0
0.960000 0.040000 0
0.980000 0.040000 0
1.000000 0.040000 0
1.020000 0.040000 0
1.040000 0.040000 0
1.060000 0.040000 0
1.080000 0.040000 0
1.100000 0.040000 0
1.120000 0.040000 0
1.140000 0.040000 0
1.160000 0.040000 0
1.180000 0.040000 0
1.200000 0.040000 0
1.220000 0.040000 0
1.240000 0.040000 0
1.260000 0.040000 0
1.280000 0.040000 0
1.300000 0.040000 0
1.320000 0.040000 0
1.340000 0.040000 0
1.360000 0.040000 0
1.380000 0.040000 0
1.400000 0.040000 0
1.420000 0.040000 0
1.440000 0.040000 0
1.460000 0.040000 0
1.480000 0.040000 0
1.500000 0.040000 0
1.520000 0.040000 0
1.540000 0.040000 0
1.560000 0.040000 0
1.580000 0.040000 0
1.600000 0.040000 0
1.620000 0.040000 0
1.640000 0.040000 0
1.660000 0.040000 0
1.680000 0.040000 0
1.700000 0.040000 0
1.720000 0.040000 0
1.740000 0.040000 0
1.760000 0.040000 0
1.780000 0.040000 0
1.800000 0.040000 0
1.820000 0.040000 0
1.840000 0.040000 0
1.860000 0.040000 0
1.880000 0.040000 0
1.900000 0.040000 0
1.920000 0.040000 0
1.940000 0.040000 0
1.960000 0.040000 0
0.000000 0.060000 0
0.020000 0.060000 0
0.040000 0.060000 0
0.060000 0.060000 0
0.080000 0.060000 0
0.100000 0.060000 0
0.120000 0.060000 0
0.140000 0.060000 0
0.160000 0.060000 0
0.180000 0.060000 0
0.200000 0.060000 0
0.220000 0.060000 0
0.240000 0.060000 0
0.260000 0.060000 0
0.280000 0.060000 0
0.300000 0.060000 0
0.320000 0.060000 0
0.340000 0.060000 0
0.360000 0.060000 0
0.380000 0.060000 0
0.400000 0.060000 0
0.420000 0.060000 0
0.440000 0.060000 0
0.460000 0.060000 0
0.480000 0.060000 0
0.500000 0.060000 0
0.520000 0.060000 0
0.540000 0.060000 0
0.560000 0.060000 0
0.580000 0.060000 0
0.600000 0.060000 0
0.620000 0.060000 0
0.640000 0.060000 0
0.660000 0.060000 0
0.680000 0.060000 0
0.700000 0.060000 0
0.720000 0.060000 0
0.740000 0.060000 0
0.760000 0.060000 0
0.780000 0.060000 0
0.800000 0.060000 0
0.820000 0.060000 0
0.840000 0.060000 0
0.860000 0.060000 0
0.880000 0.060000 0
0.900000 0.060000 0
0.920000 0.060000 0
0.940000 0.060000 0
0.960000 0.060000 0
0.980000 0.060000 0
1.000000 0.060000 0
1.020000 0.060000 0
1.040000 0.060000 0
1.060000 0.060000 0
1.080000 0.060000 0
1.100000 0.060000 0
1.120000 0.060000 0
1.140000 0.060000 0
1.160000 0.060000 0
1.180000 0.060000 0
1.200000 0.060000 0
1.220000 0.060000 0
1.240000 0.060000 0
1.260000 0.060000 0
1.280000 0.060000 0
1.300000 0.060000 0
1.320000 0.060000 0
1.340000 0.060000 0
1.360000 0.060000 0
1.380000 0.060000 0
1.400000 0.060000 0
1.420000 0.060000 0
1.440000 0.060000 0
1.460000 0.060000 0
1.480000 0.060000 0
1.500000 0.060000 0
1.520000 0.060000 0
1.540000 0.060000 0
1.560000 0.060000 0
1.580000 0.060000 0
1.600000 0.060000 0
1.620000 0.060000 0
1.640000 0.060000 0
1.660000 0.060000 0
1.680000 0.060000 0
1.700000 0.060000 0
1.720000 0.060000 0
1.740000 0.060000 0
1.760000 0.060000 0
1.780000 0.060000 0
1.800000 0.060000 0
1.820000 0.060000 0
1.840000 0.060000 0
1.860000 0.060000 0
1.880000 0.060000 0
1.900000 0.060000 0
1.920000 0.060000 0
1.940000 0.060000 0
1.960000 0.060000 0
0.000000 0.080000 0
0.020000 0.080000 0
0.040000 0.080000 0
0.060000 0.080000 0
0.080000 0.080000 0
0.100000 0.080000 0
0.120000 0.080000 0
0.140000 0.080000 0
0.160000 0.080000 0
0.180000 0.080000 0
0.200000 0.080000 0
0.220000 0.080000 0
0.240000 0.080000 0
0.260000 0.080000 0
0.280000 0.080000 0
0.300000 0.080000 0
0.320000 0.080000 0
0.340000 0.080000 0
0.360000 0.080000 0
0.380000 0.080000 0
0.400000 0.080000 0
0.420000 0.080000 0
0.440000 0.080000 0
0.460000 0.080000 0
0.480000 0.080000 0
0.500000 0.080000 0
0.520000 0.080000 0
0.540000 0.080000 0
0.560000 0.080000 0
0.580000 0.080000 0
0.600000 0.080000 0
0.620000 0.080000 0
0.640000 0.080000 0
0.660000 0.080000 0
0.680000 0.080000 0
0.700000 0.080000 0
0.720000 0.080000 0
0.740000 0.080000 0
0.760000 0.080000 0
0.780000 0.080000 0
0.800000 0.080000 0
0.820000 0.080000 0
0.840000 0.080000 0
0.860000 0.080000 0
0.880000 0.080000 0
0.900000 0.080000 0
0.920000 0.080000 0
0.940000 0.080000 0
0.960000 0.080000 0
0.980000 0.080000 0
1.000000 0.080000 0
1.020000 0.080000 0
1.040000 0.080000 0
1.060000 0.080000 0
1.080000 0.080000 0
1.100000 0.080000 0
1.120000 0.080000 0
1.140000 0.080000 0
1.160000 0.080000 0
1.180000 0.080000 0
1.200000 0.080000 0
1.220000 0.080000 0
1.240000 0.080000 0
1.260000 0.080000 0
1.280000 0.080000 0
1.300000 0.080000 0
1.320000 0.080000 0
1.340000 0.080000 0
1.360000 0.080000 0
1.380000 0.080000 0
1.400000 0.080000 0
1.420000 0.080000 0
1.440000 0.080000 0
1.460000 0.080000 0
1.480000 0.080000 0
1.500000 0.080000 0
1.520000 0.080000 0
1.540000 0.080000 0
1.560000 0.080000 0
1.580000 0.080000 0
1.600000 0.080000 0
1.620000 0.080000 0
1.640000 0.080000 0
1.660000 0.080000 0
1.680000 0.080000 0
1.700000 0.080000 0
1.720000 0.080000 0
1.740000 0.080000 0
1.760000 0.080000 0
1.780000 0.080000 0
1.800000 0.080000 0
1.820000 0.080000 0
1.840000 0.080000 0
1.860000 0.080000 0
1.880000 0.080000 0
[...]
POINT_DATA 4851 

VECTORS velocity float
0.000000 0.000000 0
0.000115 0.000000 0
0.000271 0.000000 0
0.000380 0.000000 0
0.000428 0.000000 0
0.000428 0.000000 0
0.000403 0.000000 0
0.000368 0.000000 0
0.000336 0.000000 0
0.000312 0.000000 0
0.000297 0.000000 0
0.000290 0.000000 0
0.000289 0.000000 0
0.000290 0.000000 0
0.000293 0.000000 0
0.000296 0.000000 0
0.000298 0.000000 0
0.000298 0.000000 0
0.000298 0.000000 0
0.000298 0.000000 0
0.000296 0.000000 0
0.000295 0.000000 0
0.000293 0.000000 0
0.000291 0.000000 0
0.000289 0.000000 0
0.000287 0.000000 0
0.000284 0.000000 0
0.000281 0.000000 0
0.000278 0.000000 0
0.000273 0.000000 0
0.000266 0.000000 0
0.000252 0.000000 0
0.000226 0.000000 0
0.000182 0.000000 0
0.000117 0.000000 0
0.000043 0.000000 0
0.000000 0.000000 0
0.000000 0.000000 0
0.000000 0.000000 0
0.000000 0.000000 0
0.000000 0.000000 0
0.000000 0.000000 0
0.000001 0.000000 0
0.000004 0.000000 0
0.000008 0.000000 0
0.000012 0.000000 0
0.000018 0.000000 0
0.000024 0.000000 0
0.000030 0.000000 0
0.000036 0.000000 0
0.000043 0.000000 0
0.000049 0.000000 0
0.000056 0.000000 0
0.000062 0.000000 0
0.000068 0.000000 0
0.000073 0.000000 0
0.000077 0.000000 0
0.000081 0.000000 0
0.000084 0.000000 0
0.000087 0.000000 0
0.000088 0.000000 0
0.000089 0.000000 0
0.000090 0.000000 0
0.000090 0.000000 0
0.000090 0.000000 0
0.000090 0.000000 0
0.000090 0.000000 0
0.000090 0.000000 0
0.000090 0.000000 0
0.000091 0.000000 0
0.000092 0.000000 0
0.000094 0.000000 0
0.000095 0.000000 0
0.000097 0.000000 0
0.000100 0.000000 0
0.000103 0.000000 0
0.000106 0.000000 0
0.000110 0.000000 0
0.000114 0.000000 0
0.000119 0.000000 0
0.000124 0.000000 0
0.000129 0.000000 0
0.000136 0.000000 0
0.000143 0.000000 0
0.000151 0.000000 0
0.000161 0.000000 0
0.000172 0.000000 0
0.000184 0.000000 0
0.000200 0.000000 0
0.000219 0.000000 0
0.000244 0.000000 0
0.000276 0.000000 0
0.000319 0.000000 0
0.000377 0.000000 0
0.000454 0.000000 0
0.000543 0.000000 0
0.000595 0.000000 0
0.000455 0.000000 0
0.000000 0.000000 0
0.000000 -0.000115 0
0.000312 -0.000272 0
0.000751 -0.000266 0
0.001085 -0.000158 0
0.001257 -0.000049 0
0.001294 0.000024 0
0.001246 0.000059 0
0.001162 0.000066 0
0.001076 0.000056 0
0.001006 0.000038 0
0.000960 0.000021 0
0.000936 0.000008 0
0.000928 -0.000001 0
0.000931 -0.000005 0
0.000937 -0.000006 0
0.000944 -0.000005 0
0.000948 -0.000003 0
0.000950 -0.000001 0
0.000949 0.000000 0
0.000945 0.000001 0
0.000940 0.000002 0
0.000933 0.000003 0
0.000925 0.000003 0
0.000917 0.000003 0
0.000907 0.000004 0
0.000897 0.000004 0
0.000884 0.000005 0
0.000869 0.000005 0
0.000851 0.000007 0
0.000826 0.000012 0
0.000789 0.000021 0
0.000731 0.000039 0
0.000639 0.000069 0
0.000500 0.000109 0
0.000314 0.000139 0
0.000116 0.000116 0
0.000000 0.000042 0
0.000000 0.000000 0
0.000000 0.000000 0
0.000000 0.000000 0
0.000000 0.000000 0
0.000002 -0.000001 0
0.000007 -0.000004 0
0.000017 -0.000006 0
0.000030 -0.000008 0
0.000046 -0.000010 0
0.000064 -0.000011 0
0.000085 -0.000012 0
0.000106 -0.000012 0
0.000128 -0.000013 0
0.000151 -0.000013 0
0.000174 -0.000013 0
0.000197 -0.000012 0
0.000219 -0.000012 0
0.000239 -0.000011 0
0.000257 -0.000009 0
0.000273 -0.000008 0
0.000287 -0.000006 0
0.000298 -0.000005 0
0.000307 -0.000003 0
0.000313 -0.000002 0
0.000317 -0.000001 0
0.000320 -0.000000 0
0.000322 0.000000 0
0.000322 0.000000 0
0.000323 0.000000 0
0.000324 0.000000 0
0.000325 -0.000000 0
0.000327 -0.000001 0
0.000330 -0.000001 0
0.000334 -0.000002 0
0.000340 -0.000003 0
0.000346 -0.000003 0
0.000354 -0.000004 0
0.000364 -0.000005 0
0.000375 -0.000006 0
0.000387 -0.000007 0
0.000400 -0.000007 0
0.000415 -0.000008 0
0.000432 -0.000009 0
0.000451 -0.000010 0
0.000471 -0.000012 0
0.000494 -0.000013 0
0.000520 -0.000015 0
0.000548 -0.000017 0
0.000581 -0.000020 0
0.000619 -0.000023 0
0.000663 -0.000028 0
0.000714 -0.000035 0
0.000776 -0.000043 0
0.000852 -0.000056 0
0.000944 -0.000074 0
0.001057 -0.000101 0
0.001192 -0.000135 0
0.001338 -0.000166 0
0.001451 -0.000141 0
0.001397 0.000088 0
0.000912 0.000595 0
0.000000 0.000456 0
0.000000 -0.000313 0
0.000414 -0.000752 0
0.001022 -0.000774 0
0.001519 -0.000507 0
0.001810 -0.000210 0
0.001911 0.000010 0
0.001882 0.000131 0
0.001787 0.000170 0
0.001676 0.000156 0
0.001579 0.000115 0
0.001511 0.000069 0
0.001472 0.000031 0
0.001456 0.000004 0
0.001455 -0.000010 0
0.001461 -0.000014 0
0.001467 -0.000012 0
0.001470 -0.000007 0
0.001470 -0.000001 0
0.001465 0.000004 0
0.001456 0.000008 0
0.001444 0.000011 0
0.001430 0.000013 0
0.001414 0.000015 0
0.001395 0.000017 0
0.001374 0.000020 0
0.001350 0.000022 0
0.001322 0.000026 0
0.001288 0.000032 0
0.001246 0.000043 0
0.001191 0.000061 0
0.001116 0.000094 0
0.001008 0.000149 0
0.000854 0.000230 0
0.000646 0.000324 0
0.000394 0.000383 0
0.000144 0.000313 0
0.000000 0.000116 0
0.000000 0.000000 0
0.000000 0.000000 0
0.000000 0.000000 0
0.000000 -0.000001 0
0.000004 -0.000006 0
0.000016 -0.000015 0
0.000033 -0.000023 0
0.000057 -0.000029 0
0.000085 -0.000034 0
0.000116 -0.000038 0
0.000151 -0.000041 0
0.000188 -0.000043 0
0.000226 -0.000045 0
0.000266 -0.000045 0
0.000306 -0.000045 0
0.000345 -0.000044 0
0.000383 -0.000042 0
0.000418 -0.000038 0
0.000451 -0.000034 0
0.000479 -0.000029 0
0.000504 -0.000024 0
0.000524 -0.000019 0
0.000540 -0.000014 0
0.000552 -0.000010 0
0.000561 -0.000006 0
0.000566 -0.000004 0
0.000570 -0.000002 0
0.000573 -0.000001 0
0.000575 -0.000001 0
0.000578 -0.000002 0
0.000582 -0.000003 0
0.000586 -0.000005 0
0.000593 -0.000007 0
0.000601 -0.000009 0
0.000612 -0.000012 0
0.000624 -0.000014 0
0.000639 -0.000017 0
0.000657 -0.000020 0
0.000676 -0.000022 0
0.000698 -0.000025 0
0.000723 -0.000028 0
0.000750 -0.000031 0
0.000780 -0.000035 0
0.000813 -0.000039 0
0.000849 -0.000043 0
0.000890 -0.000048 0
0.000934 -0.000054 0
0.000984 -0.000061 0
0.001039 -0.000070 0
0.001102 -0.000081 0
0.001173 -0.000095 0
0.001255 -0.000113 0
0.001349 -0.000137 0
0.001457 -0.000167 0
0.001579 -0.000205 0
0.001709 -0.000247 0
0.001834 -0.000281 0
0.001915 -0.000259 0
0.001868 -0.000058 0
0.001542 0.000540 0
0.000805 0.001397 0
0.000000 0.000912 0
0.000000 -0.000530 0
0.000428 -0.001295 0
0.001080 -0.001372 0
0.001634 -0.000946 0
0.001981 -0.000441 0
0.002124 -0.000048 0
0.002122 0.000183 0
0.002038 0.000272 0
0.001929 0.000263 0
0.001829 0.000203 0
0.001755 0.000128 0
0.001710 0.000062 0
0.001688 0.000016 0
0.001680 -0.000010 0
0.001680 -0.000018 0
0.001680 -0.000015 0
0.001677 -0.000006 0
0.001670 0.000004 0
0.001657 0.000014 0
0.001641 0.000022 0
0.001621 0.000028 0
0.001598 0.000033 0
0.001572 0.000038 0
0.001542 0.000043 0
0.001509 0.000049 0
0.001471 0.000056 0
0.001427 0.000066 0
0.001376 0.000080 0
0.001313 0.000104 0
0.001235 0.000142 0
0.001133 0.000204 0
0.000998 0.000300 0
0.000821 0.000430 0
0.000600 0.000569 0
0.000352 0.000641 0
0.000123 0.000509 0
0.000000 0.000186 0
0.000000 0.000000 0
0.000000 0.000000 0
0.000000 0.000000 0
0.000000 -0.000004 0
0.000007 -0.000016 0
0.000023 -0.000032 0
0.000047 -0.000047 0
0.000078 -0.000059 0
0.000114 -0.000069 0
0.000155 -0.000077 0
0.000200 -0.000083 0
0.000248 -0.000088 0
0.000298 -0.000091 0
0.000349 -0.000092 0
0.000401 -0.000092 0
0.000452 -0.000089 0
0.000502 -0.000085 0
0.000548 -0.000078 0
0.000591 -0.000070 0
0.000628 -0.000061 0
0.000661 -0.000051 0
0.000687 -0.000041 0
0.000709 -0.000031 0
0.000725 -0.000023 0
0.000737 -0.000015 0
0.000745 -0.000010 0
0.000752 -0.000006 0
0.000757 -0.000005 0
0.000761 -0.000004 0
0.000766 -0.000006 0
0.000772 -0.000008 0
0.000780 -0.000012 0
0.000790 -0.000016 0
0.000802 -0.000021 0
0.000817 -0.000026 0
0.000835 -0.000031 0
0.000856 -0.000036 0
0.000880 -0.000042 0
0.000907 -0.000047 0
0.000937 -0.000053 0
0.000970 -0.000059 0
0.001006 -0.000065 0
0.001046 -0.000072 0
0.001089 -0.000080 0
0.001136 -0.000088 0
0.001188 -0.000098 0
0.001245 -0.000109 0
0.001307 -0.000122 0
0.001376 -0.000138 0
0.001452 -0.000158 0
0.001536 -0.000181 0
0.001628 -0.000210 0
0.001730 -0.000245 0
0.001838 -0.000285 0
0.001947 -0.000326 0
0.002044 -0.000356 0
0.002101 -0.000341 0
0.002069 -0.000199 0
0.001860 0.000233 0
0.001373 0.001152 0
0.000610 0.002137 0
0.000000 0.001260 0
0.000000 -0.000742 0
0.000408 -0.001833 0
0.001043 -0.001981 0
0.001595 -0.001409 0
0.001951 -0.000700 0
0.002110 -0.000131 0
0.002123 0.000217 0
0.002053 0.000362 0
0.001954 0.000365 0
0.001860 0.000289 0
0.001788 0.000188 0
0.001741 0.000098 0
0.001714 0.000033 0
0.001698 -0.000002 0
0.001688 -0.000014 0
0.001678 -0.000009 0
0.001665 0.000003 0
0.001647 0.000018 0
0.001624 0.000032 0
0.001598 0.000044 0
0.001568 0.000054 0
0.001535 0.000063 0
0.001498 0.000071 0
0.001458 0.000080 0
0.001413 0.000090 0
0.001363 0.000103 0
0.001306 0.000121 0
0.001242 0.000146 0
0.001166 0.000183 0
0.001076 0.000241 0
0.000965 0.000331 0
0.000827 0.000461 0
0.000658 0.000628 0
0.000462 0.000793 0
0.000258 0.000861 0
0.000084 0.000665 0
0.000000 0.000238 0
0.000000 0.000000 0
0.000000 0.000000 0
0.000000 0.000000 0
0.000000 -0.000007 0
0.000008 -0.000029 0
0.000028 -0.000055 0
0.000057 -0.000077 0
0.000093 -0.000096 0
0.000135 -0.000111 0
0.000183 -0.000124 0
0.000234 -0.000134 0
0.000289 -0.000141 0
0.000347 -0.000146 0
0.000406 -0.000148 0
0.000466 -0.000148 0
0.000525 -0.000144 0
0.000582 -0.000137 0
0.000635 -0.000127 0
0.000684 -0.000114 0
0.000727 -0.000099 0
0.000764 -0.000083 0
0.000795 -0.000067 0
0.000819 -0.000052 0
0.000837 -0.000038 0
0.000851 -0.000027 0
0.000862 -0.000018 0
0.000870 -0.000013 0
0.000876 -0.000010 0
0.000883 -0.000010 0
0.000890 -0.000012 0
0.000899 -0.000017 0
0.000910 -0.000022 0
0.000923 -0.000029 0
0.000939 -0.000037 0
0.000959 -0.000045 0
0.000981 -0.000053 0
0.001007 -0.000061 0
0.001036 -0.000070 0
0.001069 -0.000079 0
0.001104 -0.000088 0
0.001144 -0.000097 0
0.001186 -0.000107 0
0.001232 -0.000118 0
0.001282 -0.000129 0
0.001336 -0.000142 0
0.001394 -0.000156 0
0.001457 -0.000173 0
0.001525 -0.000192 0
0.001598 -0.000214 0
0.001677 -0.000241 0
0.001762 -0.000272 0
0.001852 -0.000307 0
0.001944 -0.000346 0
0.002034 -0.000384 0
0.002112 -0.000411 0
0.002160 -0.000402 0
0.002145 -0.000306 0
0.002018 -0.000017 0
0.001710 0.000638 0
0.001168 0.001790 0
0.000463 0.002770 0
0.000000 0.001522 0
0.000000 -0.000938 0
0.000374 -0.002339 0
0.000965 -0.002560 0
0.001482 -0.001855 0
0.001818 -0.000956 0
0.001972 -0.000220 0
0.001989 0.000239 0
0.001929 0.000441 0
0.001841 0.000456 0
0.001756 0.000369 0
0.001688 0.000247 0
0.001641 0.000136 0
0.001608 0.000057 0
0.001584 0.000015 0
0.001562 0.000002 0
0.001538 0.000009 0
0.001512 0.000025 0
0.001481 0.000044 0
0.001447 0.000062 0
0.001409 0.000077 0
0.001369 0.000091 0
0.001326 0.000103 0
0.001279 0.000115 0
0.001229 0.000128 0
0.001174 0.000143 0
0.001115 0.000162 0
0.001050 0.000186 0
0.000979 0.000220 0
0.000899 0.000269 0
0.000809 0.000343 0
0.000704 0.000453 0
0.000582 0.000607 0
0.000443 0.000794 0
0.000293 0.000969 0
0.000152 0.001019 0
0.000044 0.000767 0
0.000000 0.000269 0
0.000000 0.000000 0
0.000000 0.000000 0
0.000000 0.000000 0
0.000000 -0.000012 0
0.000009 -0.000044 0
0.000031 -0.000081 0
0.000063 -0.000112 0
0.000102 -0.000137 0
0.000148 -0.000158 0
0.000199 -0.000176 0
0.000254 -0.000189 0
0.000313 -0.000200 0
0.000375 -0.000207 0
0.000439 -0.000211 0
0.000503 -0.000210 0
0.000566 -0.000205 0
0.000627 -0.000195 0
0.000684 -0.000180 0
0.000736 -0.000162 0
0.000781 -0.000141 0
0.000819 -0.000118 0
0.000851 -0.000095 0
0.000875 -0.000074 0
0.000894 -0.000055 0
0.000908 -0.000039 0
0.000919 -0.000028 0
0.000927 -0.000021 0
0.000935 -0.000017 0
0.000943 -0.000018 0
0.000953 -0.000022 0
0.000964 -0.000028 0
0.000978 -0.000036 0
0.000995 -0.000046 0
0.001015 -0.000056 0
0.001038 -0.000068 0
0.001065 -0.000079 0
0.001095 -0.000091 0
0.001128 -0.000103 0
0.001165 -0.000115 0
0.001205 -0.000128 0
0.001248 -0.000140 0
0.001294 -0.000154 0
0.001343 -0.000168 0
0.001396 -0.000183 0
0.001453 -0.000200 0
0.001513 -0.000218 0
0.001577 -0.000239 0
0.001645 -0.000263 0
0.001717 -0.000290 0
0.001792 -0.000321 0
0.001870 -0.000356 0
0.001949 -0.000392 0
0.002025 -0.000428 0
0.002091 -0.000453 0
0.002135 -0.000452 0
0.002138 -0.000389 0
0.002068 -0.000199 0
0.001881 0.000236 0
0.001529 0.001084 0
0.000989 0.002399 0
0.000361 0.003305 0
0.000000 0.001723 0
0.000000 -0.001117 0
0.000337 -0.002799 0
0.000869 -0.003088 0
0.001333 -0.002262 0
0.001632 -0.001190 0
0.001768 -0.000303 0
0.001783 0.000259 0
0.001730 0.000510 0
0.001651 0.000538 0
0.001575 0.000441 0
0.001513 0.000303 0
0.001465 0.000177 0
0.001426 0.000090 0
0.001392 0.000044 0
0.001357 0.000031 0
0.001320 0.000041 0
0.001279 0.000060 0
0.001236 0.000083 0
0.001190 0.000103 0
0.001141 0.000122 0
0.001091 0.000137 0
0.001039 0.000152 0
0.000984 0.000168 0
0.000926 0.000185 0
0.000865 0.000204 0
0.000801 0.000227 0
0.000733 0.000257 0
0.000662 0.000296 0
0.000586 0.000353 0
0.000506 0.000436 0
0.000418 0.000557 0
0.000324 0.000722 0
0.000226 0.000916 0
0.000132 0.001084 0
0.000055 0.001110 0
0.000010 0.000816 0
0.000000 0.000282 0
0.000000 0.000000 0
0.000000 0.000000 0
0.000000 0.000000 0
0.000000 -0.000017 0
0.000010 -0.000060 0
0.000033 -0.000109 0
0.000066 -0.000148 0
0.000106 -0.000181 0
0.000153 -0.000208 0
0.000205 -0.000230 0
0.000261 -0.000248 0
0.000322 -0.000262 0
0.000385 -0.000271 0
0.000450 -0.000276 0
0.000515 -0.000275 0
0.000580 -0.000268 0
0.000641 -0.000255 0
0.000698 -0.000235 0
0.000749 -0.000211 0
0.000793 -0.000183 0
0.000829 -0.000153 0
0.000858 -0.000123 0
0.000880 -0.000095 0
0.000896 -0.000071 0
0.000909 -0.000051 0
0.000918 -0.000037 0
0.000927 -0.000029 0
0.000935 -0.000026 0
0.000945 -0.000028 0
0.000957 -0.000033 0
0.000971 -0.000042 0
0.000988 -0.000053 0
0.001009 -0.000066 0
0.001033 -0.000080 0
0.001060 -0.000094 0
0.001090 -0.000109 0
0.001124 -0.000124 0
0.001160 -0.000140 0
0.001200 -0.000155 0
0.001242 -0.000170 0
0.001287 -0.000186 0
0.001335 -0.000203 0
0.001386 -0.000220 0
0.001439 -0.000238 0
0.001495 -0.000258 0
0.001554 -0.000280 0
0.001615 -0.000304 0
0.001679 -0.000331 0
0.001744 -0.000361 0
0.001812 -0.000394 0
0.001879 -0.000428 0
0.001943 -0.000462 0
0.002001 -0.000488 0
0.002044 -0.000494 0
0.002060 -0.000457 0
0.002030 -0.000334 0
0.001926 -0.000049 0
0.001712 0.000522 0
0.001351 0.001529 0
0.000842 0.002958 0
0.000290 0.003760 0
0.000000 0.001883 0
0.000000 -0.001276 0
0.000300 -0.003208 0
0.000768 -0.003556 0
0.001171 -0.002618 0
0.001426 -0.001392 0
0.001537 -0.000371 0
0.001545 0.000278 0
0.001495 0.000572 0
0.001426 0.000611 0
0.001359 0.000507 0
0.001301 0.000357 0
0.001251 0.000222 0
0.001207 0.000130 0
0.001162 0.000084 0
0.001116 0.000074 0
0.001065 0.000086 0
0.001013 0.000109 0
0.000958 0.000133 0
0.000902 0.000156 0
0.000845 0.000175 0
0.000787 0.000193 0
0.000728 0.000210 0
0.000668 0.000227 0
0.000606 0.000246 0
0.000542 0.000268 0
0.000477 0.000294 0
0.000412 0.000325 0
0.000346 0.000367 0
0.000281 0.000425 0
0.000217 0.000511 0
0.000153 0.000634 0
0.000092 0.000799 0
0.000037 0.000987 0
-0.000003 0.001139 0
-0.000021 0.001140 0
-0.000015 0.000822 0
0.000000 0.000279 0
0.000000 0.000000 0
0.000000 0.000000 0
0.000000 0.000000 0
0.000000 -0.000021 0
0.000010 -0.000076 0
0.000032 -0.000137 0
0.000065 -0.000185 0
0.000105 -0.000224 0
0.000150 -0.000257 0
0.000201 -0.000284 0
0.000256 -0.000306 0
0.000315 -0.000323 0
0.000377 -0.000335 0
0.000440 -0.000341 0
0.000504 -0.000340 0
0.000566 -0.000331 0
0.000625 -0.000313 0
0.000678 -0.000288 0
0.000724 -0.000257 0
0.000763 -0.000221 0
0.000793 -0.000183 0
0.000817 -0.000146 0
0.000834 -0.000112 0
0.000846 -0.000084 0
0.000855 -0.000061 0
0.000862 -0.000046 0
0.000870 -0.000037 0
0.000879 -0.000035 0
0.000891 -0.000039 0
0.000905 -0.000047 0
0.000923 -0.000059 0
0.000944 -0.000074 0
0.000968 -0.000090 0
0.000996 -0.000107 0
0.001027 -0.000125 0
0.001061 -0.000143 0
0.001097 -0.000161 0
0.001137 -0.000179 0
0.001178 -0.000197 0
0.001222 -0.000215 0
0.001268 -0.000233 0
0.001316 -0.000252 0
0.001366 -0.000272 0
0.001417 -0.000292 0
0.001471 -0.000314 0
0.001525 -0.000338 0
0.001581 -0.000364 0
0.001638 -0.000393 0
0.001695 -0.000423 0
0.001752 -0.000455 0
0.001807 -0.000487 0
0.001857 -0.000514 0
0.001898 -0.000528 0
0.001924 -0.000512 0
0.001921 -0.000438 0
0.001874 -0.000255 0
0.001755 0.000120 0
0.001536 0.000811 0
0.001189 0.001953 0
0.000721 0.003461 0
0.000237 0.004148 0
0.000000 0.002013 0
0.000000 -0.001417 0
0.000263 -0.003567 0
0.000669 -0.003960 0
0.001010 -0.002920 0
0.001219 -0.001557 0
0.001304 -0.000422 0
0.001302 0.000300 0
0.001255 0.000629 0
0.001194 0.000675 0
0.001134 0.000567 0
0.001079 0.000410 0
0.001029 0.000271 0
0.000978 0.000178 0
0.000925 0.000135 0
0.000868 0.000128 0
0.000807 0.000143 0
0.000745 0.000168 0
0.000682 0.000193 0
0.000620 0.000216 0
0.000557 0.000236 0
0.000495 0.000254 0
0.000433 0.000272 0
0.000370 0.000290 0
0.000307 0.000310 0
0.000245 0.000332 0
0.000184 0.000357 0
0.000125 0.000387 0
0.000069 0.000427 0
0.000018 0.000482 0
-0.000028 0.000564 0
-0.000066 0.000682 0
-0.000095 0.000837 0
-0.000110 0.001010 0
-0.000104 0.001142 0
-0.000074 0.001121 0
-0.000031 0.000795 0
0.000000 0.000267 0
0.000000 0.000000 0
0.000000 0.000000 0
0.000000 0.000000 0
0.000000 -0.000026 0
0.000009 -0.000092 0
0.000031 -0.000164 0
0.000061 -0.000220 0
0.000098 -0.000266 0
0.000141 -0.000304 0
0.000189 -0.000336 0
0.000240 -0.000362 0
0.000295 -0.000382 0
0.000352 -0.000396 0
0.000411 -0.000403 0
0.000469 -0.000401 0
0.000526 -0.000389 0
0.000578 -0.000366 0
0.000623 -0.000335 0
0.000661 -0.000296 0
0.000690 -0.000252 0
0.000711 -0.000206 0
0.000726 -0.000163 0
0.000735 -0.000124 0
0.000741 -0.000092 0
0.000746 -0.000068 0
0.000752 -0.000053 0
0.000759 -0.000046 0
0.000770 -0.000046 0
0.000784 -0.000053 0
0.000802 -0.000065 0
0.000824 -0.000080 0
0.000850 -0.000098 0
0.000879 -0.000118 0
0.000911 -0.000138 0
0.000946 -0.000159 0
0.000984 -0.000180 0
0.001023 -0.000200 0
0.001064 -0.000220 0
0.001107 -0.000240 0
0.001152 -0.000260 0
0.001197 -0.000280 0
0.001244 -0.000300 0
0.001292 -0.000321 0
0.001341 -0.000343 0
0.001389 -0.000366 0
0.001439 -0.000391 0
0.001488 -0.000417 0
0.001536 -0.000445 0
0.001584 -0.000475 0
0.001629 -0.000505 0
0.001672 -0.000533 0
0.001710 -0.000553 0
0.001739 -0.000554 0
0.001754 -0.000517 0
0.001743 -0.000407 0
0.001690 -0.000167 0
0.001573 0.000290 0
0.001364 0.001088 0
0.001043 0.002344 0
0.000619 0.003910 0
0.000196 0.004481 0
0.000000 0.002120 0
0.000000 -0.001540 0
0.000230 -0.003878 0
0.000576 -0.004302 0
0.000859 -0.003169 0
0.001024 -0.001686 0
0.001084 -0.000454 0
0.001073 0.000326 0
0.001028 0.000680 0
0.000973 0.000732 0
0.000919 0.000621 0
0.000867 0.000462 0
0.000815 0.000323 0
0.000759 0.000234 0
0.000699 0.000194 0
0.000635 0.000191 0
0.000568 0.000209 0
0.000500 0.000233 0
0.000433 0.000258 0
0.000367 0.000280 0
0.000303 0.000300 0
0.000240 0.000317 0
0.000178 0.000334 0
0.000117 0.000352 0
0.000057 0.000371 0
-0.000001 0.000392 0
-0.000055 0.000414 0
-0.000105 0.000440 0
-0.000149 0.000473 0
-0.000185 0.000522 0
-0.000212 0.000595 0
-0.000228 0.000702 0
-0.000228 0.000842 0
-0.000210 0.000995 0
-0.000168 0.001104 0
-0.000106 0.001067 0
-0.000039 0.000747 0
0.000000 0.000248 0
0.000000 0.000000 0
0.000000 0.000000 0
0.000000 0.000000 0
0.000000 -0.000030 0
0.000008 -0.000107 0
0.000027 -0.000188 0
0.000055 -0.000252 0
0.000088 -0.000304 0
0.000125 -0.000347 0
0.000167 -0.000383 0
0.000213 -0.000412 0
0.000261 -0.000436 0
0.000311 -0.000451 0
0.000362 -0.000458 0
0.000412 -0.000454 0
0.000458 -0.000438 0
0.000499 -0.000410 0
0.000532 -0.000371 0
0.000557 -0.000323 0
0.000572 -0.000271 0
0.000581 -0.000219 0
0.000583 -0.000170 0
0.000583 -0.000127 0
0.000583 -0.000094 0
0.000584 -0.000072 0
0.000589 -0.000059 0
0.000598 -0.000055 0
0.000612 -0.000060 0
0.000631 -0.000071 0
0.000655 -0.000087 0
0.000683 -0.000107 0
0.000715 -0.000128 0
0.000750 -0.000151 0
0.000787 -0.000174 0
0.000826 -0.000197 0
0.000867 -0.000220 0
0.000909 -0.000242 0
0.000952 -0.000263 0
0.000996 -0.000284 0
0.001040 -0.000305 0
0.001085 -0.000326 0