# vtk DataFile Version 2.0
generated by CFD-lab course output (written by Tobias Neckel) 
ASCII

DATASET STRUCTURED_GRID
DIMENSIONS  99 49 1 
POINTS 4851 float

0.000000 0.000000 0
0.020000 0.000000 0
0.040000 0.000000 0
0.060000 0.000000 0
0.080000 0.000000 0
0.100000 0.000000 0
0.120000 0.000000 0
0.140000 0.000000 0
0.160000 0.000000 0
0.180000 0.000000 0
0.200000 0.000000 0
0.220000 0.000000 0
0.240000 0.000000 0
0.260000 0.000000 0
0.280000 0.000000 0
0.300000 0.000000 0
0.320000 0.000000 0
0.340000 0.000000 0
0.360000 0.000000 0
0.380000 0.000000 0
0.400000 0.000000 0
0.420000 0.000000 0
0.440000 0.000000 0
0.460000 0.000000 0
0.480000 0.000000 0
0.500000 0.000000 0
0.520000 0.000000 0
0.540000 0.000000 0
0.560000 0.000000 0
0.580000 0.000000 0
0.600000 0.000000 0
0.620000 0.000000 0
0.640000 0.000000 0
0.660000 0.000000 0
0.680000 0.000000 0
0.700000 0.000000 0
0.720000 0.000000 0
0.740000 0.000000 0
0.760000 0.000000 0
0.780000 0.000000 0
0.800000 0.000000 0
0.820000 0.000000 0
0.840000 0.000000 0
0.860000 0.000000 0
0.880000 0.000000 0
0.900000 0.000000 0
0.920000 0.000000 0
0.940000 0.000000 0
0.960000 0.000000 0
0.980000 0.000000 0
1.000000 0.000000 0
1.020000 0.000000 0
1.040000 0.000000 0
1.060000 0.000000 0
1.080000 0.000000 0
1.100000 0.000000 0
1.120000 0.000000 0
1.140000 0.000000 0
1.160000 0.000000 0
1.180000 0.000000 0
1.200000 0.000000 0
1.220000 0.000000 0
1.240000 0.000000 0
1.260000 0.000000 0
1.280000 0.000000 0
1.300000 0.000000 0
1.320000 0.000000 0
1.340000 0.000000 0
1.360000 0.000000 0
1.380000 0.000000 0
1.400000 0.000000 0
1.420000 0.000000 0
1.440000 0.000000 0
1.460000 0.000000 0
1.480000 0.000000 0
1.500000 0.000000 0
1.520000 0.000000 0
1.540000 0.000000 0
1.560000 0.000000 0
1.580000 0.000000 0
1.600000 0.000000 0
1.620000 0.000000 0
1.640000 0.000000 0
1.660000 0.000000 0
1.680000 0.000000 0
1.700000 0.000000 0
1.720000 0.000000 0
1.740000 0.000000 0
1.760000 0.000000 0
1.780000 0.000000 0
1.800000 0.000000 0
1.820000 0.000000 0
1.840000 0.000000 0
1.860000 0.000000 0
1.880000 0.000000 0
1.900000 0.000000 0
1.920000 0.000000 0
1.940000 0.000000 0
1.960000 0.000000 0
0.000000 0.020000 0
0.020000 0.020000 0
0.040000 0.020000 0
0.060000 0.020000 0
0.080000 0.020000 0
0.100000 0.020000 0
0.120000 0.020000 0
0.140000 0.020000 0
0.160000 0.020000 0
0.180000 0.020000 0
0.200000 0.020000 0
0.220000 0.020000 0
0.240000 0.020000 0
0.260000 0.020000 0
0.280000 0.020000 0
0.300000 0.020000 0
0.320000 0.020000 0
0.340000 0.020000 0
0.360000 0.020000 0
0.380000 0.020000 0
0.400000 0.020000 0
0.420000 0.020000 0
0.440000 0.020000 0
0.460000 0.020000 0
0.480000 0.020000 0
0.500000 0.020000 0
0.520000 0.020000 0
0.540000 0.020000 0
0.560000 0.020000 0
0.580000 0.020000 0
0.600000 0.020000 0
0.620000 0.020000 0
0.640000 0.020000 0
0.660000 0.020000 0
0.680000 0.020000 0
0.700000 0.020000 0
0.720000 0.020000 0
0.740000 0.020000 0
0.760000 0.020000 0
0.780000 0.020000 0
0.800000 0.020000 0
0.820000 0.020000 0
0.840000 0.020000 0
0.860000 0.020000 0
0.880000 0.020000 0
0.900000 0.020000 0
0.920000 0.020000 0
0.940000 0.020000 0
0.960000 0.020000 0
0.980000 0.020000 0
1.000000 0.020000 0
1.020000 0.020000 0
1.040000 0.020000 0
1.060000 0.020000 0
1.080000 0.020000 0
1.100000 0.020000 0
1.120000 0.020000 0
1.140000 0.020000 0
1.160000 0.020000 0
1.180000 0.020000 0
1.200000 0.020000 0
1.220000 0.020000 0
1.240000 0.020000 0
1.260000 0.020000 0
1.280000 0.020000 0
1.300000 0.020000 0
1.320000 0.020000 0
1.340000 0.020000 0
1.360000 0.020000 0
1.380000 0.020000 0
1.400000 0.020000 0
1.420000 0.020000 0
1.440000 0.020000 0
1.460000 0.020000 0
1.480000 0.020000 0
1.500000 0.020000 0
1.520000 0.020000 0
1.540000 0.020000 0
1.560000 0.020000 0
1.580000 0.020000 0
1.600000 0.020000 0
1.620000 0.020000 0
1.640000 0.020000 0
1.660000 0.020000 0
1.680000 0.020000 0
1.700000 0.020000 0
1.720000 0.020000 0
1.740000 0.020000 0
1.760000 0.020000 0
1.780000 0.020000 0
1.800000 0.020000 0
1.820000 0.020000 0
1.840000 0.020000 0
1.860000 0.020000 0
1.880000 0.020000 0
1.900000 0.020000 0
1.920000 0.020000 0
1.940000 0.020000 0
1.960000 0.020000 0
0.000000 0.040000 0
0.020000 0.040000 0
0.040000 0.040000 0
0.060000 0.040000 0
0.080000 0.040000 0
0.100000 0.040000 0
0.120000 0.040000 0
0.140000 0.040000 0
0.160000 0.040000 0
0.180000 0.040000 0
0.200000 0.040000 0
0.220000 0.040000 0
0.240000 0.040000 0
0.260000 0.040000 0
0.280000 0.040000 0
0.300000 0.040000 0
0.320000 0.040000 0
0.340000 0.040000 0
0.360000 0.040000 0
0.380000 0.040000 0
0.400000 0.040000 0
0.420000 0.040000 0
0.440000 0.040000 0
0.460000 0.040000 0
0.480000 0.040000 0
0.500000 0.040000 0
0.520000 0.040000 0
0.540000 0.040000 0
0.560000 0.040000 0
0.580000 0.040000 0
0.600000 0.040000 0
0.620000 0.040000 0
0.640000 0.040000 0
0.660000 0.040000 0
0.680000 0.040000 0
0.700000 0.040000 0
0.720000 0.040000 0
0.740000 0.040000 0
0.760000 0.040000 0
0.780000 0.040000 0
0.800000 0.040000 0
0.820000 0.040000 0
0.840000 0.040000 0
0.860000 0.040000 0
0.880000 0.040000 0
0.900000 0.040000 0
0.920000 0.040000 0
0.940000 0.040000 0
0.960000 0.040000 0
0.980000 0.040000 0
1.000000 0.040000 0
1.020000 0.040000 0
1.040000 0.040000 0
1.060000 0.040000 0
1.080000 0.040000 0
1.100000 0.040000 0
1.120000 0.040000 0
1.140000 0.040000 0
1.160000 0.040000 0
1.180000 0.040000 0
1.200000 0.040000 0
1.220000 0.040000 0
1.240000 0.040000 0
1.260000 0.040000 0
1.280000 0.040000 0
1.300000 0.040000 0
1.320000 0.040000 0
1.340000 0.040000 0
1.360000 0.040000 0
1.380000 0.040000 0
1.400000 0.040000 0
1.420000 0.040000 0
1.440000 0.040000 0
1.460000 0.040000 0
1.480000 0.040000 0
1.500000 0.040000 0
1.520000 0.040000 0
1.540000 0.040000 0
1.560000 0.040000 0
1.580000 0.040000 0
1.600000 0.040000 0
1.620000 0.040000 0
1.640000 0.040000 0
1.660000 0.040000 0
1.680000 0.040000 0
1.700000 0.040000 0
1.720000 0.040000 0
1.740000 0.040000 0
1.760000 0.040000 0
1.780000 0.040000 0
1.800000 0.040000 0
1.820000 0.040000 0
1.840000 0.040000 0
1.860000 0.040000 0
1.880000 0.040000 0
1.900000 0.040000 0
1.920000 0.040000 0
1.940000 0.040000 0
1.960000 0.040000 0
0.000000 0.060000 0
0.020000 0.060000 0
0.040000 0.060000 0
0.060000 0.060000 0
0.080000 0.060000 0
0.100000 0.060000 0
0.120000 0.060000 0
0.140000 0.060000 0
0.160000 0.060000 0
0.180000 0.060000 0
0.200000 0.060000 0
0.220000 0.060000 0
0.240000 0.060000 0
0.260000 0.060000 0
0.280000 0.060000 0
0.300000 0.060000 0
0.320000 0.060000 0
0.340000 0.060000 0
0.360000 0.060000 0
0.380000 0.060000 0
0.400000 0.060000 0
0.420000 0.060000 0
0.440000 0.060000 0
0.460000 0.060000 0
0.480000 0.060000 0
0.500000 0.060000 0
0.520000 0.060000 0
0.540000 0.060000 0
0.560000 0.060000 0
0.580000 0.060000 0
0.600000 0.060000 0
0.620000 0.060000 0
0.640000 0.060000 0
0.660000 0.060000 0
0.680000 0.060000 0
0.700000 0.060000 0
0.720000 0.060000 0
0.740000 0.060000 0
0.760000 0.060000 0
0.780000 0.060000 0
0.800000 0.060000 0
0.820000 0.060000 0
0.840000 0.060000 0
0.860000 0.060000 0
0.880000 0.060000 0
0.900000 0.060000 0
0.920000 0.060000 0
0.940000 0.060000 0
0.960000 0.060000 0
0.980000 0.060000 0
1.000000 0.060000 0
1.020000 0.060000 0
1.040000 0.060000 0
1.060000 0.060000 0
1.080000 0.060000 0
1.100000 0.060000 0
1.120000 0.060000 0
1.140000 0.060000 0
1.160000 0.060000 0
1.180000 0.060000 0
1.200000 0.060000 0
1.220000 0.060000 0
1.240000 0.060000 0
1.260000 0.060000 0
1.280000 0.060000 0
1.300000 0.060000 0
1.320000 0.060000 0
1.340000 0.060000 0
1.360000 0.060000 0
1.380000 0.060000 0
1.400000 0.060000 0
1.420000 0.060000 0
1.440000 0.060000 0
1.460000 0.060000 0
1.480000 0.060000 0
1.500000 0.060000 0
1.520000 0.060000 0
1.540000 0.060000 0
1.560000 0.060000 0
1.580000 0.060000 0
1.600000 0.060000 0
1.620000 0.060000 0
1.640000 0.060000 0
1.660000 0.060000 0
1.680000 0.060000 0
1.700000 0.060000 0
1.720000 0.060000 0
1.740000 0.060000 0
1.760000 0.060000 0
1.780000 0.060000 0
1.800000 0.060000 0
1.820000 0.060000 0
1.840000 0.060000 0
1.860000 0.060000 0
1.880000 0.060000 0
1.900000 0.060000 0
1.920000 0.060000 0
1.940000 0.060000 0
1.960000 0.060000 0
0.000000 0.080000 0
0.020000 0.080000 0
0.040000 0.080000 0
0.060000 0.080000 0
0.080000 0.080000 0
0.100000 0.080000 0
0.120000 0.080000 0
0.140000 0.080000 0
0.160000 0.080000 0
0.180000 0.080000 0
0.200000 0.080000 0
0.220000 0.080000 0
0.240000 0.080000 0
0.260000 0.080000 0
0.280000 0.080000 0
0.300000 0.080000 0
0.320000 0.080000 0
0.340000 0.080000 0
0.360000 0.080000 0
0.380000 0.080000 0
0.400000 0.080000 0
0.420000 0.080000 0
0.440000 0.080000 0
0.460000 0.080000 0
0.480000 0.080000 0
0.500000 0.080000 0
0.520000 0.080000 0
0.540000 0.080000 0
0.560000 0.080000 0
0.580000 0.080000 0
0.600000 0.080000 0
0.620000 0.080000 0
0.640000 0.080000 0
0.660000 0.080000 0
0.680000 0.080000 0
0.700000 0.080000 0
0.720000 0.080000 0
0.740000 0.080000 0
0.760000 0.080000 0
0.780000 0.080000 0
0.800000 0.080000 0
0.820000 0.080000 0
0.840000 0.080000 0
0.860000 0.080000 0
0.880000 0.080000 0
0.900000 0.080000 0
0.920000 0.080000 0
0.940000 0.080000 0
0.960000 0.080000 0
0.980000 0.080000 0
1.000000 0.080000 0
1.020000 0.080000 0
1.040000 0.080000 0
1.060000 0.080000 0
1.080000 0.080000 0
1.100000 0.080000 0
1.120000 0.080000 0
1.140000 0.080000 0
1.160000 0.080000 0
1.180000 0.080000 0
1.200000 0.080000 0
1.220000 0.080000 0
1.240000 0.080000 0
1.260000 0.080000 0
1.280000 0.080000 0
1.300000 0.080000 0
1.320000 0.080000 0
1.340000 0.080000 0
1.360000 0.080000 0
1.380000 0.080000 0
1.400000 0.080000 0
1.420000 0.080000 0
1.440000 0.080000 0
1.460000 0.080000 0
1.480000 0.080000 0
1.500000 0.080000 0
1.520000 0.080000 0
1.540000 0.080000 0
1.560000 0.080000 0
1.580000 0.080000 0
1.600000 0.080000 0
1.620000 0.080000 0
1.640000 0.080000 0
1.660000 0.080000 0
1.680000 0.080000 0
1.700000 0.080000 0
1.720000 0.080000 0
1.740000 0.080000 0
1.760000 0.080000 0
1.780000 0.080000 0
1.800000 0.080000 0
1.820000 0.080000 0
1.840000 0.080000 0
1.860000 0.080000 0
1.880000 0.080000 0
[...]
POINT_DATA 4851 

VECTORS velocity float
0.000000 0.000000 0
0.000064 0.000000 0
0.000159 0.000000 0
0.000233 0.000000 0
0.000272 0.000000 0
0.000282 0.000000 0
0.000274 0.000000 0
0.000259 0.000000 0
0.000241 0.000000 0
0.000227 0.000000 0
0.000216 0.000000 0
0.000210 0.000000 0
0.000206 0.000000 0
0.000205 0.000000 0
0.000205 0.000000 0
0.000205 0.000000 0
0.000205 0.000000 0
0.000205 0.000000 0
0.000204 0.000000 0
0.000204 0.000000 0
0.000202 0.000000 0
0.000201 0.000000 0
0.000200 0.000000 0
0.000198 0.000000 0
0.000196 0.000000 0
0.000195 0.000000 0
0.000193 0.000000 0
0.000190 0.000000 0
0.000187 0.000000 0
0.000183 0.000000 0
0.000175 0.000000 0
0.000162 0.000000 0
0.000140 0.000000 0
0.000107 0.000000 0
0.000064 0.000000 0
0.000022 0.000000 0
0.000000 0.000000 0
0.000000 0.000000 0
0.000000 0.000000 0
0.000000 0.000000 0
0.000000 0.000000 0
-0.000013 0.000000 0
0.000008 0.000000 0
0.000069 0.000000 0
0.000157 0.000000 0
0.000251 0.000000 0
0.000336 0.000000 0
0.000402 0.000000 0
0.000446 0.000000 0
0.000469 0.000000 0
0.000474 0.000000 0
0.000465 0.000000 0
0.000447 0.000000 0
0.000424 0.000000 0
0.000400 0.000000 0
0.000376 0.000000 0
0.000355 0.000000 0
0.000337 0.000000 0
0.000323 0.000000 0
0.000313 0.000000 0
0.000307 0.000000 0
0.000303 0.000000 0
0.000303 0.000000 0
0.000304 0.000000 0
0.000307 0.000000 0
0.000310 0.000000 0
0.000314 0.000000 0
0.000318 0.000000 0
0.000322 0.000000 0
0.000326 0.000000 0
0.000329 0.000000 0
0.000332 0.000000 0
0.000335 0.000000 0
0.000337 0.000000 0
0.000339 0.000000 0
0.000341 0.000000 0
0.000342 0.000000 0
0.000343 0.000000 0
0.000344 0.000000 0
0.000345 0.000000 0
0.000345 0.000000 0
0.000346 0.000000 0
0.000346 0.000000 0
0.000346 0.000000 0
0.000346 0.000000 0
0.000347 0.000000 0
0.000347 0.000000 0
0.000349 0.000000 0
0.000352 0.000000 0
0.000357 0.000000 0
0.000366 0.000000 0
0.000381 0.000000 0
0.000405 0.000000 0
0.000443 0.000000 0
0.000499 0.000000 0
0.000570 0.000000 0
0.000610 0.000000 0
0.000463 0.000000 0
0.000000 0.000000 0
0.000000 -0.000065 0
0.000180 -0.000160 0
0.000450 -0.000169 0
0.000672 -0.000113 0
0.000804 -0.000050 0
0.000854 -0.000003 0
0.000848 0.000023 0
0.000813 0.000032 0
0.000769 0.000031 0
0.000728 0.000025 0
0.000697 0.000016 0
0.000677 0.000009 0
0.000666 0.000004 0
0.000660 0.000001 0
0.000659 -0.000001 0
0.000659 -0.000001 0
0.000658 -0.000001 0
0.000657 -0.000000 0
0.000655 0.000001 0
0.000651 0.000001 0
0.000647 0.000002 0
0.000642 0.000002 0
0.000636 0.000002 0
0.000629 0.000003 0
0.000622 0.000003 0
0.000614 0.000003 0
0.000604 0.000004 0
0.000592 0.000005 0
0.000577 0.000007 0
0.000556 0.000012 0
0.000523 0.000020 0
0.000474 0.000034 0
0.000401 0.000054 0
0.000301 0.000075 0
0.000180 0.000085 0
0.000063 0.000064 0
0.000000 0.000021 0
0.000000 0.000000 0
0.000000 0.000000 0
0.000000 0.000000 0
0.000000 0.000013 0
0.000005 -0.000008 0
0.000110 -0.000082 0
0.000320 -0.000148 0
0.000595 -0.000181 0
0.000886 -0.000179 0
0.001151 -0.000151 0
0.001364 -0.000110 0
0.001512 -0.000067 0
0.001596 -0.000027 0
0.001624 0.000005 0
0.001608 0.000027 0
0.001561 0.000041 0
0.001494 0.000047 0
0.001419 0.000048 0
0.001344 0.000045 0
0.001274 0.000039 0
0.001214 0.000032 0
0.001165 0.000024 0
0.001128 0.000017 0
0.001103 0.000010 0
0.001089 0.000004 0
0.001083 -0.000000 0
0.001084 -0.000004 0
0.001090 -0.000006 0
0.001099 -0.000007 0
0.001110 -0.000008 0
0.001122 -0.000008 0
0.001134 -0.000008 0
0.001145 -0.000007 0
0.001155 -0.000006 0
0.001164 -0.000005 0
0.001171 -0.000005 0
0.001178 -0.000004 0
0.001183 -0.000003 0
0.001187 -0.000003 0
0.001191 -0.000002 0
0.001193 -0.000002 0
0.001196 -0.000001 0
0.001197 -0.000001 0
0.001198 -0.000001 0
0.001198 -0.000000 0
0.001198 -0.000000 0
0.001198 -0.000000 0
0.001198 -0.000000 0
0.001199 -0.000001 0
0.001201 -0.000002 0
0.001206 -0.000004 0
0.001215 -0.000008 0
0.001229 -0.000014 0
0.001253 -0.000023 0
0.001289 -0.000038 0
0.001342 -0.000062 0
0.001414 -0.000095 0
0.001497 -0.000128 0
0.001553 -0.000110 0
0.001454 0.000108 0
0.000936 0.000610 0
0.000000 0.000463 0
0.000000 -0.000181 0
0.000245 -0.000451 0
0.000624 -0.000493 0
0.000951 -0.000355 0
0.001164 -0.000183 0
0.001262 -0.000045 0
0.001277 0.000040 0
0.001243 0.000078 0
0.001190 0.000084 0
0.001137 0.000070 0
0.001094 0.000050 0
0.001065 0.000031 0
0.001047 0.000016 0
0.001037 0.000006 0
0.001033 0.000001 0
0.001031 -0.000000 0
0.001029 0.000001 0
0.001025 0.000003 0
0.001020 0.000005 0
0.001013 0.000007 0
0.001004 0.000009 0
0.000993 0.000010 0
0.000981 0.000012 0
0.000967 0.000013 0
0.000951 0.000015 0
0.000934 0.000017 0
0.000913 0.000020 0
0.000887 0.000026 0
0.000854 0.000036 0
0.000810 0.000053 0
0.000748 0.000081 0
0.000663 0.000121 0
0.000548 0.000172 0
0.000401 0.000221 0
0.000236 0.000238 0
0.000083 0.000179 0
0.000000 0.000062 0
0.000000 0.000000 0
0.000000 0.000000 0
0.000000 0.000000 0
0.000000 -0.000005 0
0.000071 -0.000110 0
0.000301 -0.000315 0
0.000664 -0.000484 0
0.001101 -0.000565 0
0.001551 -0.000555 0
0.001962 -0.000477 0
0.002297 -0.000361 0
0.002540 -0.000232 0
0.002689 -0.000112 0
0.002752 -0.000011 0
0.002745 0.000064 0
0.002686 0.000114 0
0.002593 0.000142 0
0.002481 0.000151 0
0.002364 0.000146 0
0.002252 0.000130 0
0.002153 0.000109 0
0.002070 0.000086 0
0.002006 0.000062 0
0.001959 0.000040 0
0.001930 0.000021 0
0.001915 0.000005 0
0.001911 -0.000007 0
0.001916 -0.000015 0
0.001927 -0.000020 0
0.001941 -0.000023 0
0.001956 -0.000023 0
0.001972 -0.000023 0
0.001987 -0.000021 0
0.002000 -0.000019 0
0.002011 -0.000016 0
0.002021 -0.000014 0
0.002028 -0.000011 0
0.002034 -0.000009 0
0.002039 -0.000008 0
0.002042 -0.000006 0
0.002044 -0.000005 0
0.002045 -0.000003 0
0.002045 -0.000002 0
0.002045 -0.000001 0
0.002044 -0.000000 0
0.002042 0.000000 0
0.002041 0.000000 0
0.002040 -0.000001 0
0.002040 -0.000003 0
0.002042 -0.000007 0
0.002047 -0.000013 0
0.002057 -0.000023 0
0.002074 -0.000038 0
0.002098 -0.000059 0
0.002131 -0.000089 0
0.002169 -0.000125 0
0.002198 -0.000155 0
0.002184 -0.000139 0
0.002047 0.000044 0
0.001644 0.000617 0
0.000846 0.001454 0
0.000000 0.000936 0
0.000000 -0.000311 0
0.000259 -0.000785 0
0.000668 -0.000875 0
0.001031 -0.000654 0
0.001276 -0.000361 0
0.001400 -0.000117 0
0.001432 0.000041 0
0.001408 0.000119 0
0.001359 0.000137 0
0.001307 0.000120 0
0.001263 0.000089 0
0.001231 0.000057 0
0.001211 0.000031 0
0.001199 0.000014 0
0.001192 0.000005 0
0.001186 0.000003 0
0.001180 0.000005 0
0.001173 0.000009 0
0.001163 0.000013 0
0.001151 0.000017 0
0.001137 0.000021 0
0.001121 0.000025 0
0.001102 0.000028 0
0.001081 0.000032 0
0.001058 0.000036 0
0.001030 0.000042 0
0.000999 0.000050 0
0.000961 0.000063 0
0.000913 0.000084 0
0.000852 0.000117 0
0.000773 0.000167 0
0.000670 0.000235 0
0.000540 0.000315 0
0.000386 0.000386 0
0.000221 0.000403 0
0.000075 0.000299 0
0.000000 0.000104 0
0.000000 0.000000 0
0.000000 0.000000 0
0.000000 0.000000 0
0.000000 -0.000058 0
0.000134 -0.000308 0
0.000471 -0.000674 0
0.000945 -0.000948 0
0.001484 -0.001069 0
0.002022 -0.001039 0
0.002506 -0.000896 0
0.002903 -0.000689 0
0.003196 -0.000458 0
0.003383 -0.000239 0
0.003472 -0.000052 0
0.003480 0.000093 0
0.003424 0.000194 0
0.003324 0.000253 0
0.003200 0.000278 0
0.003065 0.000274 0
0.002934 0.000250 0
0.002815 0.000214 0
0.002714 0.000171 0
0.002634 0.000127 0
0.002574 0.000086 0
0.002533 0.000049 0
0.002510 0.000019 0
0.002499 -0.000005 0
0.002499 -0.000021 0
0.002506 -0.000032 0
0.002516 -0.000037 0
0.002529 -0.000039 0
0.002542 -0.000038 0
0.002554 -0.000035 0
0.002564 -0.000031 0
0.002572 -0.000026 0
0.002578 -0.000022 0
0.002583 -0.000017 0
0.002585 -0.000014 0
0.002586 -0.000010 0
0.002585 -0.000007 0
0.002583 -0.000005 0
0.002581 -0.000003 0
0.002578 -0.000001 0
0.002574 0.000001 0
0.002569 0.000002 0
0.002565 0.000003 0
0.002561 0.000003 0
0.002557 0.000001 0
0.002554 -0.000003 0
0.002553 -0.000009 0
0.002555 -0.000020 0
0.002560 -0.000035 0
0.002568 -0.000055 0
0.002578 -0.000081 0
0.002585 -0.000109 0
0.002577 -0.000129 0
0.002527 -0.000110 0
0.002388 0.000024 0
0.002077 0.000430 0
0.001499 0.001309 0
0.000659 0.002254 0
0.000000 0.001309 0
0.000000 -0.000440 0
0.000251 -0.001120 0
0.000651 -0.001265 0
0.001010 -0.000964 0
0.001256 -0.000553 0
0.001384 -0.000201 0
0.001422 0.000032 0
0.001404 0.000151 0
0.001362 0.000184 0
0.001314 0.000166 0
0.001274 0.000126 0
0.001243 0.000083 0
0.001222 0.000048 0
0.001207 0.000025 0
0.001196 0.000014 0
0.001186 0.000011 0
0.001175 0.000014 0
0.001162 0.000019 0
0.001147 0.000026 0
0.001129 0.000033 0
0.001109 0.000039 0
0.001087 0.000045 0
0.001062 0.000051 0
0.001035 0.000057 0
0.001004 0.000065 0
0.000969 0.000075 0
0.000929 0.000090 0
0.000883 0.000111 0
0.000827 0.000144 0
0.000759 0.000193 0
0.000675 0.000262 0
0.000572 0.000354 0
0.000449 0.000456 0
0.000311 0.000540 0
0.000172 0.000548 0
0.000056 0.000399 0
0.000000 0.000137 0
0.000000 0.000000 0
0.000000 0.000000 0
0.000000 0.000000 0
0.000000 -0.000138 0
0.000177 -0.000580 0
0.000590 -0.001125 0
0.001140 -0.001497 0
0.001740 -0.001642 0
0.002323 -0.001577 0
0.002839 -0.001359 0
0.003258 -0.001051 0
0.003567 -0.000712 0
0.003766 -0.000388 0
0.003866 -0.000108 0
0.003881 0.000113 0
0.003830 0.000270 0
0.003733 0.000366 0
0.003608 0.000410 0
0.003472 0.000411 0
0.003338 0.000381 0
0.003214 0.000330 0
0.003109 0.000267 0
0.003023 0.000202 0
0.002958 0.000140 0
0.002912 0.000085 0
0.002882 0.000039 0
0.002865 0.000004 0
0.002858 -0.000021 0
0.002857 -0.000038 0
0.002860 -0.000046 0
0.002865 -0.000049 0
0.002869 -0.000047 0
0.002873 -0.000043 0
0.002875 -0.000037 0
0.002875 -0.000030 0
0.002874 -0.000024 0
0.002870 -0.000018 0
0.002865 -0.000012 0
0.002859 -0.000008 0
0.002852 -0.000004 0
0.002844 -0.000000 0
0.002836 0.000003 0
0.002827 0.000005 0
0.002819 0.000007 0
0.002810 0.000009 0
0.002801 0.000009 0
0.002793 0.000008 0
0.002785 0.000006 0
0.002778 0.000001 0
0.002772 -0.000007 0
0.002768 -0.000020 0
0.002764 -0.000036 0
0.002760 -0.000056 0
0.002750 -0.000076 0
0.002726 -0.000087 0
0.002671 -0.000066 0
0.002554 0.000034 0
0.002326 0.000311 0
0.001922 0.000933 0
0.001292 0.002035 0
0.000510 0.002953 0
0.000000 0.001596 0
0.000000 -0.000562 0
0.000233 -0.001436 0
0.000605 -0.001635 0
0.000938 -0.001259 0
0.001165 -0.000736 0
0.001283 -0.000284 0
0.001317 0.000021 0
0.001302 0.000179 0
0.001263 0.000227 0
0.001221 0.000208 0
0.001184 0.000160 0
0.001155 0.000108 0
0.001133 0.000066 0
0.001115 0.000039 0
0.001099 0.000026 0
0.001083 0.000024 0
0.001066 0.000028 0
0.001046 0.000036 0
0.001025 0.000045 0
0.001001 0.000054 0
0.000976 0.000063 0
0.000948 0.000071 0
0.000917 0.000080 0
0.000884 0.000090 0
0.000848 0.000101 0
0.000808 0.000116 0
0.000764 0.000136 0
0.000714 0.000165 0
0.000656 0.000207 0
0.000589 0.000269 0
0.000511 0.000354 0
0.000420 0.000461 0
0.000319 0.000576 0
0.000212 0.000663 0
0.000111 0.000657 0
0.000033 0.000470 0
0.000000 0.000159 0
0.000000 0.000000 0
0.000000 0.000000 0
0.000000 0.000000 0
0.000000 -0.000235 0
0.000202 -0.000898 0
0.000660 -0.001636 0
0.001254 -0.002098 0
0.001886 -0.002252 0
0.002485 -0.002137 0
0.003003 -0.001831 0
0.003416 -0.001416 0
0.003716 -0.000967 0
0.003908 -0.000538 0
0.004002 -0.000166 0
0.004014 0.000129 0
0.003964 0.000342 0
0.003871 0.000475 0
0.003751 0.000538 0
0.003621 0.000545 0
0.003493 0.000508 0
0.003376 0.000443 0
0.003275 0.000363 0
0.003193 0.000278 0
0.003129 0.000197 0
0.003081 0.000125 0
0.003048 0.000065 0
0.003025 0.000019 0
0.003010 -0.000013 0
0.002999 -0.000034 0
0.002991 -0.000045 0
0.002983 -0.000048 0
0.002975 -0.000046 0
0.002966 -0.000040 0
0.002956 -0.000033 0
0.002945 -0.000025 0
0.002932 -0.000016 0
0.002918 -0.000009 0
0.002904 -0.000002 0
0.002889 0.000003 0
0.002874 0.000008 0
0.002858 0.000011 0
0.002844 0.000014 0
0.002829 0.000017 0
0.002815 0.000019 0
0.002801 0.000020 0
0.002788 0.000020 0
0.002775 0.000019 0
0.002763 0.000016 0
0.002752 0.000010 0
0.002741 0.000001 0
0.002729 -0.000011 0
0.002717 -0.000026 0
0.002700 -0.000041 0
0.002674 -0.000047 0
0.002627 -0.000030 0
0.002542 0.000044 0
0.002388 0.000236 0
0.002122 0.000656 0
0.001695 0.001464 0
0.001086 0.002721 0
0.000397 0.003546 0
0.000000 0.001819 0
0.000000 -0.000674 0
0.000211 -0.001725 0
0.000545 -0.001971 0
0.000841 -0.001524 0
0.001038 -0.000898 0
0.001137 -0.000354 0
0.001163 0.000013 0
0.001146 0.000205 0
0.001111 0.000265 0
0.001073 0.000246 0
0.001038 0.000192 0
0.001010 0.000134 0
0.000986 0.000087 0
0.000964 0.000058 0
0.000943 0.000045 0
0.000920 0.000044 0
0.000895 0.000050 0
0.000869 0.000060 0
0.000842 0.000071 0
0.000812 0.000082 0
0.000781 0.000092 0
0.000748 0.000103 0
0.000713 0.000114 0
0.000676 0.000127 0
0.000637 0.000141 0
0.000595 0.000159 0
0.000550 0.000184 0
0.000501 0.000218 0
0.000448 0.000268 0
0.000390 0.000337 0
0.000325 0.000431 0
0.000255 0.000546 0
0.000182 0.000665 0
0.000112 0.000747 0
0.000053 0.000726 0
0.000013 0.000510 0
0.000000 0.000171 0
0.000000 0.000000 0
0.000000 0.000000 0
0.000000 0.000000 0
0.000000 -0.000339 0
0.000212 -0.001239 0
0.000691 -0.002177 0
0.001304 -0.002724 0
0.001944 -0.002873 0
0.002536 -0.002694 0
0.003034 -0.002290 0
0.003421 -0.001763 0
0.003693 -0.001203 0
0.003860 -0.000673 0
0.003936 -0.000214 0
0.003938 0.000150 0
0.003883 0.000413 0
0.003791 0.000580 0
0.003677 0.000660 0
0.003556 0.000669 0
0.003438 0.000626 0
0.003332 0.000548 0
0.003241 0.000451 0
0.003166 0.000349 0
0.003106 0.000251 0
0.003060 0.000166 0
0.003023 0.000096 0
0.002993 0.000042 0
0.002967 0.000005 0
0.002943 -0.000018 0
0.002920 -0.000030 0
0.002897 -0.000033 0
0.002874 -0.000030 0
0.002850 -0.000024 0
0.002825 -0.000015 0
0.002801 -0.000006 0
0.002776 0.000003 0
0.002751 0.000011 0
0.002727 0.000017 0
0.002703 0.000023 0
0.002681 0.000027 0
0.002659 0.000030 0
0.002638 0.000032 0
0.002618 0.000034 0
0.002600 0.000035 0
0.002582 0.000036 0
0.002565 0.000035 0
0.002549 0.000033 0
0.002534 0.000030 0
0.002518 0.000024 0
0.002502 0.000015 0
0.002486 0.000004 0
0.002466 -0.000007 0
0.002442 -0.000013 0
0.002408 -0.000003 0
0.002353 0.000045 0
0.002260 0.000173 0
0.002102 0.000454 0
0.001843 0.001004 0
0.001442 0.001969 0
0.000894 0.003333 0
0.000307 0.004039 0
0.000000 0.001993 0
0.000000 -0.000774 0
0.000188 -0.001982 0
0.000480 -0.002265 0
0.000733 -0.001752 0
0.000896 -0.001032 0
0.000973 -0.000409 0
0.000988 0.000012 0
0.000968 0.000231 0
0.000934 0.000300 0
0.000899 0.000280 0
0.000867 0.000222 0
0.000839 0.000160 0
0.000812 0.000112 0
0.000786 0.000083 0
0.000758 0.000071 0
0.000729 0.000071 0
0.000698 0.000079 0
0.000665 0.000090 0
0.000632 0.000102 0
0.000598 0.000114 0
0.000563 0.000127 0
0.000526 0.000139 0
0.000489 0.000152 0
0.000450 0.000166 0
0.000410 0.000182 0
0.000369 0.000203 0
0.000326 0.000229 0
0.000283 0.000266 0
0.000238 0.000319 0
0.000192 0.000392 0
0.000146 0.000488 0
0.000100 0.000604 0
0.000058 0.000719 0
0.000025 0.000792 0
0.000004 0.000756 0
-0.000003 0.000523 0
0.000000 0.000173 0
0.000000 0.000000 0
0.000000 0.000000 0
0.000000 0.000000 0
0.000000 -0.000446 0
0.000214 -0.001589 0
0.000698 -0.002728 0
0.001310 -0.003351 0
0.001936 -0.003483 0
0.002499 -0.003227 0
0.002960 -0.002716 0
0.003303 -0.002075 0
0.003535 -0.001406 0
0.003666 -0.000781 0
0.003715 -0.000243 0
0.003698 0.000182 0
0.003633 0.000489 0
0.003539 0.000682 0
0.003429 0.000773 0
0.003316 0.000783 0
0.003210 0.000732 0
0.003115 0.000641 0
0.003033 0.000529 0
0.002965 0.000413 0
0.002909 0.000304 0
0.002860 0.000209 0
0.002817 0.000132 0
0.002776 0.000075 0
0.002737 0.000036 0
0.002698 0.000013 0
0.002658 0.000001 0
0.002618 -0.000002 0
0.002578 0.000002 0
0.002539 0.000008 0
0.002501 0.000017 0
0.002464 0.000025 0
0.002429 0.000033 0
0.002396 0.000040 0
0.002364 0.000045 0
0.002335 0.000050 0
0.002307 0.000052 0
0.002282 0.000054 0
0.002258 0.000055 0
0.002236 0.000055 0
0.002215 0.000055 0
0.002196 0.000054 0
0.002178 0.000053 0
0.002160 0.000051 0
0.002143 0.000047 0
0.002125 0.000041 0
0.002106 0.000034 0
0.002087 0.000025 0
0.002065 0.000017 0
0.002040 0.000018 0
0.002008 0.000042 0
0.001962 0.000118 0
0.001885 0.000294 0
0.001752 0.000654 0
0.001531 0.001316 0
0.001186 0.002413 0
0.000717 0.003856 0
0.000232 0.004440 0
0.000000 0.002126 0
0.000000 -0.000862 0
0.000164 -0.002206 0
0.000415 -0.002517 0
0.000624 -0.001940 0
0.000752 -0.001138 0
0.000805 -0.000446 0
0.000809 0.000018 0
0.000786 0.000258 0
0.000754 0.000333 0
0.000722 0.000312 0
0.000691 0.000252 0
0.000662 0.000189 0
0.000633 0.000140 0
0.000601 0.000112 0
0.000568 0.000102 0
0.000533 0.000104 0
0.000497 0.000113 0
0.000460 0.000125 0
0.000422 0.000138 0
0.000385 0.000151 0
0.000347 0.000164 0
0.000309 0.000177 0
0.000271 0.000190 0
0.000233 0.000205 0
0.000194 0.000222 0
0.000156 0.000243 0
0.000120 0.000269 0
0.000084 0.000306 0
0.000050 0.000358 0
0.000019 0.000429 0
-0.000009 0.000523 0
-0.000030 0.000633 0
-0.000043 0.000739 0
-0.000043 0.000801 0
-0.000032 0.000753 0
-0.000014 0.000514 0
0.000000 0.000168 0
0.000000 0.000000 0
0.000000 0.000000 0
0.000000 0.000000 0
0.000000 -0.000553 0
0.000212 -0.001937 0
0.000689 -0.003273 0
0.001284 -0.003962 0
0.001878 -0.004063 0
0.002396 -0.003718 0
0.002803 -0.003094 0
0.003091 -0.002338 0
0.003271 -0.001566 0
0.003360 -0.000853 0
0.003375 -0.000246 0
0.003335 0.000231 0
0.003256 0.000573 0
0.003155 0.000784 0
0.003046 0.000882 0
0.002938 0.000888 0
0.002838 0.000828 0
0.002749 0.000724 0
0.002673 0.000600 0
0.002606 0.000474 0
0.002546 0.000357 0
0.002490 0.000258 0
0.002435 0.000180 0
0.002379 0.000123 0
0.002323 0.000084 0
0.002267 0.000061 0
0.002210 0.000050 0
0.002155 0.000047 0
0.002102 0.000049 0
0.002052 0.000054 0
0.002005 0.000060 0
0.001962 0.000066 0
0.001922 0.000071 0
0.001885 0.000076 0
0.001852 0.000078 0
0.001821 0.000080 0
0.001794 0.000080 0
0.001769 0.000080 0
0.001746 0.000079 0
0.001726 0.000077 0
0.001707 0.000075 0
0.001690 0.000073 0
0.001673 0.000071 0
0.001657 0.000069 0
0.001640 0.000065 0
0.001622 0.000060 0
0.001604 0.000054 0
0.001585 0.000046 0
0.001566 0.000040 0
0.001548 0.000044 0
0.001530 0.000075 0
0.001506 0.000169 0
0.001464 0.000383 0
0.001377 0.000809 0
0.001213 0.001571 0
0.000939 0.002782 0
0.000557 0.004287 0
0.000168 0.004757 0
0.000000 0.002225 0
0.000000 -0.000939 0
0.000142 -0.002398 0
0.000352 -0.002725 0
0.000520 -0.002089 0
0.000614 -0.001214 0
0.000645 -0.000466 0
0.000638 0.000030 0
0.000613 0.000285 0
0.000583 0.000364 0
0.000553 0.000343 0
0.000524 0.000281 0
0.000494 0.000219 0
0.000461 0.000173 0
0.000426 0.000147 0
0.000389 0.000139 0
0.000350 0.000142 0
0.000310 0.000152 0
0.000270 0.000164 0
0.000231 0.000177 0
0.000192 0.000190 0
0.000154 0.000202 0
0.000116 0.000215 0
0.000080 0.000228 0
0.000044 0.000242 0
0.000009 0.000258 0
-0.000023 0.000277 0
-0.000053 0.000302 0
-0.000080 0.000336 0
-0.000102 0.000384 0
-0.000119 0.000450 0
-0.000128 0.000537 0
-0.000128 0.000637 0
-0.000116 0.000732 0
-0.000091 0.000781 0
-0.000056 0.000726 0
-0.000020 0.000490 0
0.000000 0.000159 0
0.000000 0.000000 0
0.000000 0.000000 0
0.000000 0.000000 0
0.000000 -0.000658 0
0.000208 -0.002277 0
0.000669 -0.003800 0
0.001233 -0.004540 0
0.001780 -0.004595 0
0.002240 -0.004152 0
0.002583 -0.003411 0
0.002809 -0.002544 0
0.002932 -0.001674 0
0.002973 -0.000884 0
0.002952 -0.000218 0
0.002884 0.000301 0
0.002787 0.000668 0
0.002674 0.000892 0
0.002558 0.000992 0
0.002445 0.000991 0
0.002342 0.000920 0
0.002250 0.000806 0
0.002167 0.000673 0
0.002091 0.000540 0
0.002018 0.000420 0
0.001945 0.000320 0
0.001873 0.000243 0
0.001800 0.000187 0
0.001727 0.000149 0
0.001657 0.000126 0
0.001590 0.000113 0
0.001527 0.000107 0
0.001470 0.000105 0
0.001418 0.000106 0
0.001371 0.000107 0
0.001330 0.000109 0
0.001293 0.000110 0
0.001261 0.000110 0
0.001233 0.000109 0
0.001209 0.000108 0
0.001187 0.000105 0
0.001169 0.000102 0
0.001152 0.000098 0
0.001138 0.000095 0
0.001125 0.000091 0
0.001114 0.000088 0
0.001102 0.000086 0
0.001090 0.000084 0
0.001077 0.000082 0
0.001062 0.000078 0
0.001047 0.000072 0
0.001033 0.000063 0
0.001022 0.000054 0
0.001018 0.000054 0
0.001023 0.000084 0