# vtk DataFile Version 2.0
generated by CFD-lab course output (written by Tobias Neckel) 
ASCII

DATASET STRUCTURED_GRID
DIMENSIONS  99 49 1 
POINTS 4851 float

0.000000 0.000000 0
0.020000 0.000000 0
0.040000 0.000000 0
0.060000 0.000000 0
0.080000 0.000000 0
0.100000 0.000000 0
0.120000 0.000000 0
0.140000 0.000000 0
0.160000 0.000000 0
0.180000 0.000000 0
0.200000 0.000000 0
0.220000 0.000000 0
0.240000 0.000000 0
0.260000 0.000000 0
0.280000 0.000000 0
0.300000 0.000000 0
0.320000 0.000000 0
0.340000 0.000000 0
0.360000 0.000000 0
0.380000 0.000000 0
0.400000 0.000000 0
0.420000 0.000000 0
0.440000 0.000000 0
0.460000 0.000000 0
0.480000 0.000000 0
0.500000 0.000000 0
0.520000 0.000000 0
0.540000 0.000000 0
0.560000 0.000000 0
0.580000 0.000000 0
0.600000 0.000000 0
0.620000 0.000000 0
0.640000 0.000000 0
0.660000 0.000000 0
0.680000 0.000000 0
0.700000 0.000000 0
0.720000 0.000000 0
0.740000 0.000000 0
0.760000 0.000000 0
0.780000 0.000000 0
0.800000 0.000000 0
0.820000 0.000000 0
0.840000 0.000000 0
0.860000 0.000000 0
0.880000 0.000000 0
0.900000 0.000000 0
0.920000 0.000000 0
0.940000 0.000000 0
0.960000 0.000000 0
0.980000 0.000000 0
1.000000 0.000000 0
1.020000 0.000000 0
1.040000 0.000000 0
1.060000 0.000000 0
1.080000 0.000000 0
1.100000 0.000000 0
1.120000 0.000000 0
1.140000 0.000000 0
1.160000 0.000000 0
1.180000 0.000000 0
1.200000 0.000000 0
1.220000 0.000000 0
1.240000 0.000000 0
1.260000 0.000000 0
1.280000 0.000000 0
1.300000 0.000000 0
1.320000 0.000000 0
1.340000 0.000000 0
1.360000 0.000000 0
1.380000 0.000000 0
1.400000 0.000000 0
1.420000 0.000000 0
1.440000 0.000000 0
1.460000 0.000000 0
1.480000 0.000000 0
1.500000 0.000000 0
1.520000 0.000000 0
1.540000 0.000000 0
1.560000 0.000000 0
1.580000 0.000000 0
1.600000 0.000000 0
1.620000 0.000000 0
1.640000 0.000000 0
1.660000 0.000000 0
1.680000 0.000000 0
1.700000 0.000000 0
1.720000 0.000000 0
1.740000 0.000000 0
1.760000 0.000000 0
1.780000 0.000000 0
1.800000 0.000000 0
1.820000 0.000000 0
1.840000 0.000000 0
1.860000 0.000000 0
1.880000 0.000000 0
1.900000 0.000000 0
1.920000 0.000000 0
1.940000 0.000000 0
1.960000 0.000000 0
0.000000 0.020000 0
0.020000 0.020000 0
0.040000 0.020000 0
0.060000 0.020000 0
0.080000 0.020000 0
0.100000 0.020000 0
0.120000 0.020000 0
0.140000 0.020000 0
0.160000 0.020000 0
0.180000 0.020000 0
0.200000 0.020000 0
0.220000 0.020000 0
0.240000 0.020000 0
0.260000 0.020000 0
0.280000 0.020000 0
0.300000 0.020000 0
0.320000 0.020000 0
0.340000 0.020000 0
0.360000 0.020000 0
0.380000 0.020000 0
0.400000 0.020000 0
0.420000 0.020000 0
0.440000 0.020000 0
0.460000 0.020000 0
0.480000 0.020000 0
0.500000 0.020000 0
0.520000 0.020000 0
0.540000 0.020000 0
0.560000 0.020000 0
0.580000 0.020000 0
0.600000 0.020000 0
0.620000 0.020000 0
0.640000 0.020000 0
0.660000 0.020000 0
0.680000 0.020000 0
0.700000 0.020000 0
0.720000 0.020000 0
0.740000 0.020000 0
0.760000 0.020000 0
0.780000 0.020000 0
0.800000 0.020000 0
0.820000 0.020000 0
0.840000 0.020000 0
0.860000 0.020000 0
0.880000 0.020000 0
0.900000 0.020000 0
0.920000 0.020000 0
0.940000 0.020000 0
0.960000 0.020000 0
0.980000 0.020000 0
1.000000 0.020000 0
1.020000 0.020000 0
1.040000 0.020000 0
1.060000 0.020000 0
1.080000 0.020000 0
1.100000 0.020000 0
1.120000 0.020000 0
1.140000 0.020000 0
1.160000 0.020000 0
1.180000 0.020000 0
1.200000 0.020000 0
1.220000 0.020000 0
1.240000 0.020000 0
1.260000 0.020000 0
1.280000 0.020000 0
1.300000 0.020000 0
1.320000 0.020000 0
1.340000 0.020000 0
1.360000 0.020000 0
1.380000 0.020000 0
1.400000 0.020000 0
1.420000 0.020000 0
1.440000 0.020000 0
1.460000 0.020000 0
1.480000 0.020000 0
1.500000 0.020000 0
1.520000 0.020000 0
1.540000 0.020000 0
1.560000 0.020000 0
1.580000 0.020000 0
1.600000 0.020000 0
1.620000 0.020000 0
1.640000 0.020000 0
1.660000 0.020000 0
1.680000 0.020000 0
1.700000 0.020000 0
1.720000 0.020000 0
1.740000 0.020000 0
1.760000 0.020000 0
1.780000 0.020000 0
1.800000 0.020000 0
1.820000 0.020000 0
1.840000 0.020000 0
1.860000 0.020000 0
1.880000 0.020000 0
1.900000 0.020000 0
1.920000 0.020000 0
1.940000 0.020000 0
1.960000 0.020000 0
0.000000 0.040000 0
0.020000 0.040000 0
0.040000 0.040000 0
0.060000 0.040000 0
0.080000 0.040000 0
0.100000 0.040000 0
0.120000 0.040000 0
0.140000 0.040000 0
0.160000 0.040000 0
0.180000 0.040000 0
0.200000 0.040000 0
0.220000 0.040000 0
0.240000 0.040000 0
0.260000 0.040000 0
0.280000 0.040000 0
0.300000 0.040000 0
0.320000 0.040000 0
0.340000 0.040000 0
0.360000 0.040000 0
0.380000 0.040000 0
0.400000 0.040000 0
0.420000 0.040000 0
0.440000 0.040000 0
0.460000 0.040000 0
0.480000 0.040000 0
0.500000 0.040000 0
0.520000 0.040000 0
0.540000 0.040000 0
0.560000 0.040000 0
0.580000 0.040000 0
0.600000 0.040000 0
0.620000 0.040000 0
0.640000 0.040000 0
0.660000 0.040000 0
0.680000 0.040000 0
0.700000 0.040000 0
0.720000 0.040000 0
0.740000 0.040000 0
0.760000 0.040000 0
0.780000 0.040000 0
0.800000 0.040000 0
0.820000 0.040000 0
0.840000 0.040000 0
0.860000 0.040000 0
0.880000 0.040000 0
0.900000 0.040000 0
0.920000 0.040000 0
0.940000 0.040000 0
0.960000 0.040000 0
0.980000 0.040000 0
1.000000 0.040000 0
1.020000 0.040000 0
1.040000 0.040000 0
1.060000 0.040000 0
1.080000 0.040000 0
1.100000 0.040000 0
1.120000 0.040000 0
1.140000 0.040000 0
1.160000 0.040000 0
1.180000 0.040000 0
1.200000 0.040000 0
1.220000 0.040000 0
1.240000 0.040000 0
1.260000 0.040000 0
1.280000 0.040000 0
1.300000 0.040000 0
1.320000 0.040000 0
1.340000 0.040000 0
1.360000 0.040000 0
1.380000 0.040000 0
1.400000 0.040000 0
1.420000 0.040000 0
1.440000 0.040000 0
1.460000 0.040000 0
1.480000 0.040000 0
1.500000 0.040000 0
1.520000 0.040000 0
1.540000 0.040000 0
1.560000 0.040000 0
1.580000 0.040000 0
1.600000 0.040000 0
1.620000 0.040000 0
1.640000 0.040000 0
1.660000 0.040000 0
1.680000 0.040000 0
1.700000 0.040000 0
1.720000 0.040000 0
1.740000 0.040000 0
1.760000 0.040000 0
1.780000 0.040000 0
1.800000 0.040000 0
1.820000 0.040000 0
1.840000 0.040000 0
1.860000 0.040000 0
1.880000 0.040000 0
1.900000 0.040000 0
1.920000 0.040000 0
1.940000 0.040000 0
1.960000 0.040000 0
0.000000 0.060000 0
0.020000 0.060000 0
0.040000 0.060000 0
0.060000 0.060000 0
0.080000 0.060000 0
0.100000 0.060000 0
0.120000 0.060000 0
0.140000 0.060000 0
0.160000 0.060000 0
0.180000 0.060000 0
0.200000 0.060000 0
0.220000 0.060000 0
0.240000 0.060000 0
0.260000 0.060000 0
0.280000 0.060000 0
0.300000 0.060000 0
0.320000 0.060000 0
0.340000 0.060000 0
0.360000 0.060000 0
0.380000 0.060000 0
0.400000 0.060000 0
0.420000 0.060000 0
0.440000 0.060000 0
0.460000 0.060000 0
0.480000 0.060000 0
0.500000 0.060000 0
0.520000 0.060000 0
0.540000 0.060000 0
0.560000 0.060000 0
0.580000 0.060000 0
0.600000 0.060000 0
0.620000 0.060000 0
0.640000 0.060000 0
0.660000 0.060000 0
0.680000 0.060000 0
0.700000 0.060000 0
0.720000 0.060000 0
0.740000 0.060000 0
0.760000 0.060000 0
0.780000 0.060000 0
0.800000 0.060000 0
0.820000 0.060000 0
0.840000 0.060000 0
0.860000 0.060000 0
0.880000 0.060000 0
0.900000 0.060000 0
0.920000 0.060000 0
0.940000 0.060000 0
0.960000 0.060000 0
0.980000 0.060000 0
1.000000 0.060000 0
1.020000 0.060000 0
1.040000 0.060000 0
1.060000 0.060000 0
1.080000 0.060000 0
1.100000 0.060000 0
1.120000 0.060000 0
1.140000 0.060000 0
1.160000 0.060000 0
1.180000 0.060000 0
1.200000 0.060000 0
1.220000 0.060000 0
1.240000 0.060000 0
1.260000 0.060000 0
1.280000 0.060000 0
1.300000 0.060000 0
1.320000 0.060000 0
1.340000 0.060000 0
1.360000 0.060000 0
1.380000 0.060000 0
1.400000 0.060000 0
1.420000 0.060000 0
1.440000 0.060000 0
1.460000 0.060000 0
1.480000 0.060000 0
1.500000 0.060000 0
1.520000 0.060000 0
1.540000 0.060000 0
1.560000 0.060000 0
1.580000 0.060000 0
1.600000 0.060000 0
1.620000 0.060000 0
1.640000 0.060000 0
1.660000 0.060000 0
1.680000 0.060000 0
1.700000 0.060000 0
1.720000 0.060000 0
1.740000 0.060000 0
1.760000 0.060000 0
1.780000 0.060000 0
1.800000 0.060000 0
1.820000 0.060000 0
1.840000 0.060000 0
1.860000 0.060000 0
1.880000 0.060000 0
1.900000 0.060000 0
1.920000 0.060000 0
1.940000 0.060000 0
1.960000 0.060000 0
0.000000 0.080000 0
0.020000 0.080000 0
0.040000 0.080000 0
0.060000 0.080000 0
0.080000 0.080000 0
0.100000 0.080000 0
0.120000 0.080000 0
0.140000 0.080000 0
0.160000 0.080000 0
0.180000 0.080000 0
0.200000 0.080000 0
0.220000 0.080000 0
0.240000 0.080000 0
0.260000 0.080000 0
0.280000 0.080000 0
0.300000 0.080000 0
0.320000 0.080000 0
0.340000 0.080000 0
0.360000 0.080000 0
0.380000 0.080000 0
0.400000 0.080000 0
0.420000 0.080000 0
0.440000 0.080000 0
0.460000 0.080000 0
0.480000 0.080000 0
0.500000 0.080000 0
0.520000 0.080000 0
0.540000 0.080000 0
0.560000 0.080000 0
0.580000 0.080000 0
0.600000 0.080000 0
0.620000 0.080000 0
0.640000 0.080000 0
0.660000 0.080000 0
0.680000 0.080000 0
0.700000 0.080000 0
0.720000 0.080000 0
0.740000 0.080000 0
0.760000 0.080000 0
0.780000 0.080000 0
0.800000 0.080000 0
0.820000 0.080000 0
0.840000 0.080000 0
0.860000 0.080000 0
0.880000 0.080000 0
0.900000 0.080000 0
0.920000 0.080000 0
0.940000 0.080000 0
0.960000 0.080000 0
0.980000 0.080000 0
1.000000 0.080000 0
1.020000 0.080000 0
1.040000 0.080000 0
1.060000 0.080000 0
1.080000 0.080000 0
1.100000 0.080000 0
1.120000 0.080000 0
1.140000 0.080000 0
1.160000 0.080000 0
1.180000 0.080000 0
1.200000 0.080000 0
1.220000 0.080000 0
1.240000 0.080000 0
1.260000 0.080000 0
1.280000 0.080000 0
1.300000 0.080000 0
1.320000 0.080000 0
1.340000 0.080000 0
1.360000 0.080000 0
1.380000 0.080000 0
1.400000 0.080000 0
1.420000 0.080000 0
1.440000 0.080000 0
1.460000 0.080000 0
1.480000 0.080000 0
1.500000 0.080000 0
1.520000 0.080000 0
1.540000 0.080000 0
1.560000 0.080000 0
1.580000 0.080000 0
1.600000 0.080000 0
1.620000 0.080000 0
1.640000 0.080000 0
1.660000 0.080000 0
1.680000 0.080000 0
1.700000 0.080000 0
1.720000 0.080000 0
1.740000 0.080000 0
1.760000 0.080000 0
1.780000 0.080000 0
1.800000 0.080000 0
1.820000 0.080000 0
1.840000 0.080000 0
1.860000 0.080000 0
1.880000 0.080000 0
[...]
POINT_DATA 4851 

VECTORS velocity float
0.000000 0.000000 0
0.000065 0.000000 0
0.000161 0.000000 0
0.000235 0.000000 0
0.000274 0.000000 0
0.000284 0.000000 0
0.000276 0.000000 0
0.000260 0.000000 0
0.000242 0.000000 0
0.000227 0.000000 0
0.000217 0.000000 0
0.000210 0.000000 0
0.000207 0.000000 0
0.000205 0.000000 0
0.000205 0.000000 0
0.000205 0.000000 0
0.000205 0.000000 0
0.000205 0.000000 0
0.000205 0.000000 0
0.000204 0.000000 0
0.000203 0.000000 0
0.000202 0.000000 0
0.000200 0.000000 0
0.000199 0.000000 0
0.000197 0.000000 0
0.000195 0.000000 0
0.000194 0.000000 0
0.000191 0.000000 0
0.000188 0.000000 0
0.000184 0.000000 0
0.000176 0.000000 0
0.000163 0.000000 0
0.000141 0.000000 0
0.000108 0.000000 0
0.000065 0.000000 0
0.000022 0.000000 0
0.000000 0.000000 0
0.000000 0.000000 0
0.000000 0.000000 0
0.000000 0.000000 0
0.000000 0.000000 0
-0.000014 0.000000 0
0.000004 0.000000 0
0.000065 0.000000 0
0.000152 0.000000 0
0.000248 0.000000 0
0.000335 0.000000 0
0.000404 0.000000 0
0.000451 0.000000 0
0.000476 0.000000 0
0.000482 0.000000 0
0.000474 0.000000 0
0.000456 0.000000 0
0.000434 0.000000 0
0.000409 0.000000 0
0.000385 0.000000 0
0.000364 0.000000 0
0.000345 0.000000 0
0.000331 0.000000 0
0.000320 0.000000 0
0.000313 0.000000 0
0.000310 0.000000 0
0.000308 0.000000 0
0.000309 0.000000 0
0.000312 0.000000 0
0.000315 0.000000 0
0.000319 0.000000 0
0.000323 0.000000 0
0.000327 0.000000 0
0.000331 0.000000 0
0.000334 0.000000 0
0.000337 0.000000 0
0.000340 0.000000 0
0.000342 0.000000 0
0.000344 0.000000 0
0.000346 0.000000 0
0.000347 0.000000 0
0.000348 0.000000 0
0.000349 0.000000 0
0.000349 0.000000 0
0.000349 0.000000 0
0.000349 0.000000 0
0.000349 0.000000 0
0.000349 0.000000 0
0.000348 0.000000 0
0.000348 0.000000 0
0.000349 0.000000 0
0.000350 0.000000 0
0.000353 0.000000 0
0.000358 0.000000 0
0.000366 0.000000 0
0.000381 0.000000 0
0.000405 0.000000 0
0.000442 0.000000 0
0.000498 0.000000 0
0.000569 0.000000 0
0.000608 0.000000 0
0.000462 0.000000 0
0.000000 0.000000 0
0.000000 -0.000066 0
0.000181 -0.000161 0
0.000453 -0.000170 0
0.000677 -0.000114 0
0.000809 -0.000050 0
0.000859 -0.000003 0
0.000852 0.000023 0
0.000816 0.000033 0
0.000772 0.000032 0
0.000731 0.000025 0
0.000699 0.000017 0
0.000679 0.000009 0
0.000667 0.000004 0
0.000662 0.000001 0
0.000660 -0.000001 0
0.000660 -0.000001 0
0.000660 -0.000001 0
0.000659 -0.000000 0
0.000656 0.000001 0
0.000653 0.000001 0
0.000649 0.000002 0
0.000644 0.000002 0
0.000638 0.000002 0
0.000632 0.000002 0
0.000624 0.000003 0
0.000616 0.000003 0
0.000607 0.000003 0
0.000596 0.000005 0
0.000581 0.000007 0
0.000559 0.000012 0
0.000527 0.000020 0
0.000477 0.000035 0
0.000404 0.000054 0
0.000303 0.000075 0
0.000181 0.000085 0
0.000063 0.000064 0
0.000000 0.000022 0
0.000000 0.000000 0
0.000000 0.000000 0
0.000000 0.000000 0
0.000000 0.000015 0
0.000001 -0.000004 0
0.000102 -0.000079 0
0.000310 -0.000148 0
0.000587 -0.000183 0
0.000882 -0.000183 0
0.001153 -0.000156 0
0.001373 -0.000115 0
0.001528 -0.000071 0
0.001618 -0.000030 0
0.001651 0.000002 0
0.001638 0.000026 0
0.001592 0.000040 0
0.001526 0.000047 0
0.001451 0.000049 0
0.001375 0.000046 0
0.001304 0.000040 0
0.001242 0.000033 0
0.001192 0.000025 0
0.001153 0.000018 0
0.001127 0.000011 0
0.001110 0.000005 0
0.001103 0.000000 0
0.001103 -0.000003 0
0.001108 -0.000006 0
0.001117 -0.000007 0
0.001127 -0.000008 0
0.001139 -0.000008 0
0.001151 -0.000008 0
0.001162 -0.000007 0
0.001172 -0.000006 0
0.001181 -0.000006 0
0.001188 -0.000005 0
0.001195 -0.000004 0
0.001200 -0.000003 0
0.001204 -0.000003 0
0.001208 -0.000002 0
0.001210 -0.000001 0
0.001211 -0.000001 0
0.001212 -0.000000 0
0.001212 0.000000 0
0.001211 0.000000 0
0.001210 0.000001 0
0.001208 0.000001 0
0.001207 0.000000 0
0.001206 -0.000000 0
0.001207 -0.000002 0
0.001211 -0.000004 0
0.001219 -0.000008 0
0.001233 -0.000014 0
0.001256 -0.000023 0
0.001291 -0.000038 0
0.001343 -0.000061 0
0.001413 -0.000094 0
0.001496 -0.000127 0
0.001551 -0.000110 0
0.001450 0.000108 0
0.000934 0.000608 0
0.000000 0.000462 0
0.000000 -0.000182 0
0.000247 -0.000455 0
0.000628 -0.000496 0
0.000958 -0.000357 0
0.001171 -0.000183 0
0.001270 -0.000044 0
0.001284 0.000042 0
0.001249 0.000080 0
0.001195 0.000085 0
0.001141 0.000071 0
0.001098 0.000051 0
0.001068 0.000031 0
0.001049 0.000016 0
0.001040 0.000006 0
0.001035 0.000001 0
0.001033 -0.000000 0
0.001031 0.000001 0
0.001027 0.000002 0
0.001022 0.000005 0
0.001015 0.000007 0
0.001006 0.000008 0
0.000996 0.000010 0
0.000984 0.000011 0
0.000971 0.000013 0
0.000955 0.000014 0
0.000938 0.000016 0
0.000917 0.000020 0
0.000892 0.000026 0
0.000859 0.000036 0
0.000815 0.000053 0
0.000753 0.000081 0
0.000667 0.000122 0
0.000551 0.000173 0
0.000404 0.000222 0
0.000238 0.000239 0
0.000083 0.000180 0
0.000000 0.000063 0
0.000000 0.000000 0
0.000000 0.000000 0
0.000000 0.000000 0
0.000000 -0.000001 0
0.000068 -0.000101 0
0.000294 -0.000308 0
0.000656 -0.000484 0
0.001096 -0.000572 0
0.001553 -0.000566 0
0.001972 -0.000491 0
0.002316 -0.000374 0
0.002568 -0.000245 0
0.002725 -0.000122 0
0.002796 -0.000019 0
0.002794 0.000059 0
0.002738 0.000111 0
0.002646 0.000141 0
0.002534 0.000152 0
0.002416 0.000148 0
0.002303 0.000133 0
0.002201 0.000113 0
0.002116 0.000089 0
0.002049 0.000065 0
0.002000 0.000043 0
0.001968 0.000024 0
0.001950 0.000008 0
0.001944 -0.000005 0
0.001948 -0.000013 0
0.001957 -0.000019 0
0.001970 -0.000022 0
0.001985 -0.000023 0
0.002001 -0.000023 0
0.002015 -0.000021 0
0.002028 -0.000019 0
0.002040 -0.000016 0
0.002049 -0.000014 0
0.002057 -0.000012 0
0.002063 -0.000009 0
0.002067 -0.000007 0
0.002070 -0.000005 0
0.002072 -0.000003 0
0.002072 -0.000002 0
0.002071 -0.000000 0
0.002069 0.000001 0
0.002066 0.000002 0
0.002063 0.000003 0
0.002059 0.000003 0
0.002056 0.000002 0
0.002054 -0.000000 0
0.002054 -0.000005 0
0.002058 -0.000011 0
0.002067 -0.000022 0
0.002082 -0.000036 0
0.002105 -0.000058 0
0.002136 -0.000087 0
0.002172 -0.000122 0
0.002200 -0.000153 0
0.002184 -0.000137 0
0.002045 0.000046 0
0.001642 0.000617 0
0.000844 0.001451 0
0.000000 0.000934 0
0.000000 -0.000313 0
0.000261 -0.000790 0
0.000672 -0.000881 0
0.001038 -0.000657 0
0.001284 -0.000362 0
0.001409 -0.000116 0
0.001440 0.000043 0
0.001415 0.000121 0
0.001365 0.000139 0
0.001312 0.000122 0
0.001267 0.000090 0
0.001235 0.000058 0
0.001214 0.000032 0
0.001202 0.000014 0
0.001194 0.000006 0
0.001188 0.000003 0
0.001183 0.000005 0
0.001175 0.000008 0
0.001166 0.000013 0
0.001154 0.000017 0
0.001140 0.000020 0
0.001124 0.000024 0
0.001106 0.000027 0
0.001085 0.000031 0
0.001062 0.000035 0
0.001035 0.000041 0
0.001003 0.000049 0
0.000965 0.000063 0
0.000918 0.000084 0
0.000857 0.000117 0
0.000778 0.000167 0
0.000675 0.000236 0
0.000544 0.000317 0
0.000389 0.000389 0
0.000222 0.000406 0
0.000076 0.000302 0
0.000000 0.000105 0
0.000000 0.000000 0
0.000000 0.000000 0
0.000000 0.000000 0
0.000000 -0.000053 0
0.000132 -0.000297 0
0.000468 -0.000666 0
0.000944 -0.000950 0
0.001488 -0.001080 0
0.002032 -0.001058 0
0.002525 -0.000919 0
0.002932 -0.000712 0
0.003234 -0.000480 0
0.003429 -0.000257 0
0.003525 -0.000066 0
0.003538 0.000083 0
0.003486 0.000188 0
0.003389 0.000251 0
0.003265 0.000279 0
0.003130 0.000277 0
0.002997 0.000255 0
0.002875 0.000220 0
0.002771 0.000178 0
0.002687 0.000134 0
0.002624 0.000092 0
0.002581 0.000055 0
0.002554 0.000024 0
0.002541 -0.000000 0
0.002539 -0.000018 0
0.002544 -0.000030 0
0.002554 -0.000036 0
0.002566 -0.000038 0
0.002578 -0.000037 0
0.002589 -0.000035 0
0.002599 -0.000031 0
0.002608 -0.000026 0
0.002614 -0.000022 0
0.002618 -0.000018 0
0.002620 -0.000013 0
0.002620 -0.000010 0
0.002619 -0.000006 0
0.002617 -0.000003 0
0.002614 -0.000000 0
0.002609 0.000003 0
0.002604 0.000005 0
0.002598 0.000007 0
0.002592 0.000008 0
0.002586 0.000007 0
0.002580 0.000006 0
0.002575 0.000002 0
0.002572 -0.000005 0
0.002572 -0.000016 0
0.002575 -0.000031 0
0.002582 -0.000052 0
0.002590 -0.000077 0
0.002595 -0.000105 0
0.002584 -0.000124 0
0.002532 -0.000105 0
0.002390 0.000028 0
0.002077 0.000433 0
0.001498 0.001309 0
0.000658 0.002250 0
0.000000 0.001306 0
0.000000 -0.000444 0
0.000252 -0.001128 0
0.000655 -0.001273 0
0.001016 -0.000969 0
0.001264 -0.000554 0
0.001392 -0.000200 0
0.001430 0.000035 0
0.001412 0.000154 0
0.001368 0.000188 0
0.001320 0.000169 0
0.001278 0.000128 0
0.001247 0.000084 0
0.001225 0.000049 0
0.001210 0.000026 0
0.001199 0.000014 0
0.001188 0.000011 0
0.001177 0.000014 0
0.001164 0.000019 0
0.001149 0.000026 0
0.001132 0.000032 0
0.001112 0.000038 0
0.001090 0.000044 0
0.001065 0.000050 0
0.001038 0.000056 0
0.001007 0.000064 0
0.000973 0.000074 0
0.000933 0.000089 0
0.000887 0.000111 0
0.000831 0.000144 0
0.000763 0.000193 0
0.000679 0.000263 0
0.000575 0.000355 0
0.000451 0.000459 0
0.000313 0.000543 0
0.000173 0.000552 0
0.000056 0.000403 0
0.000000 0.000138 0
0.000000 0.000000 0
0.000000 0.000000 0
0.000000 0.000000 0
0.000000 -0.000133 0
0.000178 -0.000569 0
0.000593 -0.001120 0
0.001147 -0.001503 0
0.001753 -0.001660 0
0.002343 -0.001604 0
0.002867 -0.001390 0
0.003294 -0.001083 0
0.003611 -0.000742 0
0.003818 -0.000414 0
0.003923 -0.000128 0
0.003943 0.000098 0
0.003896 0.000261 0
0.003801 0.000363 0
0.003677 0.000411 0
0.003540 0.000416 0
0.003404 0.000388 0
0.003278 0.000338 0
0.003169 0.000277 0
0.003080 0.000212 0
0.003012 0.000150 0
0.002963 0.000094 0
0.002930 0.000047 0
0.002911 0.000011 0
0.002902 -0.000016 0
0.002899 -0.000034 0
0.002901 -0.000043 0
0.002904 -0.000047 0
0.002908 -0.000046 0
0.002911 -0.000042 0
0.002913 -0.000037 0
0.002912 -0.000030 0
0.002910 -0.000024 0
0.002907 -0.000018 0
0.002901 -0.000012 0
0.002895 -0.000007 0
0.002887 -0.000002 0
0.002879 0.000002 0
0.002870 0.000006 0
0.002861 0.000010 0
0.002851 0.000012 0
0.002841 0.000015 0
0.002831 0.000016 0
0.002822 0.000015 0
0.002812 0.000013 0
0.002804 0.000007 0
0.002796 -0.000001 0
0.002790 -0.000014 0
0.002785 -0.000031 0
0.002778 -0.000051 0
0.002767 -0.000071 0
0.002741 -0.000081 0
0.002683 -0.000059 0
0.002562 0.000041 0
0.002331 0.000318 0
0.001924 0.000938 0
0.001292 0.002036 0
0.000510 0.002948 0
0.000000 0.001592 0
0.000000 -0.000567 0
0.000234 -0.001446 0
0.000609 -0.001645 0
0.000944 -0.001266 0
0.001172 -0.000738 0
0.001291 -0.000283 0
0.001325 0.000024 0
0.001309 0.000183 0
0.001270 0.000231 0
0.001227 0.000211 0
0.001189 0.000163 0
0.001159 0.000110 0
0.001136 0.000068 0
0.001118 0.000041 0
0.001102 0.000027 0
0.001085 0.000025 0
0.001068 0.000029 0
0.001048 0.000036 0
0.001027 0.000045 0
0.001003 0.000053 0
0.000978 0.000062 0
0.000950 0.000070 0
0.000919 0.000079 0
0.000886 0.000088 0
0.000850 0.000100 0
0.000811 0.000115 0
0.000766 0.000135 0
0.000716 0.000164 0
0.000659 0.000207 0
0.000592 0.000269 0
0.000514 0.000355 0
0.000423 0.000463 0
0.000320 0.000579 0
0.000213 0.000667 0
0.000112 0.000662 0
0.000034 0.000474 0
0.000000 0.000161 0
0.000000 0.000000 0
0.000000 0.000000 0
0.000000 0.000000 0
0.000000 -0.000230 0
0.000204 -0.000890 0
0.000666 -0.001635 0
0.001266 -0.002110 0
0.001905 -0.002277 0
0.002512 -0.002171 0
0.003037 -0.001870 0
0.003457 -0.001456 0
0.003764 -0.001004 0
0.003961 -0.000570 0
0.004060 -0.000192 0
0.004077 0.000111 0
0.004030 0.000331 0
0.003937 0.000471 0
0.003817 0.000540 0
0.003686 0.000551 0
0.003557 0.000517 0
0.003437 0.000455 0
0.003333 0.000376 0
0.003248 0.000291 0
0.003181 0.000210 0
0.003131 0.000137 0
0.003095 0.000076 0
0.003070 0.000028 0
0.003052 -0.000006 0
0.003040 -0.000028 0
0.003030 -0.000041 0
0.003021 -0.000045 0
0.003012 -0.000044 0
0.003002 -0.000039 0
0.002991 -0.000032 0
0.002979 -0.000024 0
0.002966 -0.000016 0
0.002951 -0.000008 0
0.002936 -0.000002 0
0.002921 0.000004 0
0.002906 0.000010 0
0.002890 0.000014 0
0.002875 0.000018 0
0.002860 0.000022 0
0.002846 0.000025 0
0.002832 0.000027 0
0.002818 0.000027 0
0.002805 0.000027 0
0.002792 0.000024 0
0.002780 0.000018 0
0.002768 0.000008 0
0.002755 -0.000004 0
0.002741 -0.000019 0
0.002723 -0.000033 0
0.002695 -0.000040 0
0.002646 -0.000021 0
0.002557 0.000054 0
0.002400 0.000247 0
0.002130 0.000667 0
0.001700 0.001472 0
0.001088 0.002723 0
0.000397 0.003542 0
0.000000 0.001816 0
0.000000 -0.000679 0
0.000212 -0.001737 0
0.000549 -0.001983 0
0.000847 -0.001533 0
0.001045 -0.000901 0
0.001145 -0.000353 0
0.001170 0.000016 0
0.001153 0.000209 0
0.001117 0.000269 0
0.001078 0.000250 0
0.001043 0.000195 0
0.001014 0.000136 0
0.000990 0.000090 0
0.000967 0.000060 0
0.000945 0.000046 0
0.000922 0.000045 0
0.000897 0.000050 0
0.000871 0.000060 0
0.000843 0.000070 0
0.000813 0.000081 0
0.000782 0.000091 0
0.000749 0.000102 0
0.000715 0.000113 0
0.000678 0.000125 0
0.000638 0.000140 0
0.000596 0.000158 0
0.000551 0.000183 0
0.000503 0.000218 0
0.000450 0.000268 0
0.000391 0.000338 0
0.000326 0.000432 0
0.000256 0.000548 0
0.000183 0.000668 0
0.000113 0.000752 0
0.000053 0.000731 0
0.000013 0.000514 0
0.000000 0.000172 0
0.000000 0.000000 0
0.000000 0.000000 0
0.000000 0.000000 0
0.000000 -0.000336 0
0.000215 -0.001235 0
0.000700 -0.002182 0
0.001320 -0.002742 0
0.001967 -0.002905 0
0.002566 -0.002735 0
0.003071 -0.002335 0
0.003464 -0.001809 0
0.003742 -0.001246 0
0.003913 -0.000709 0
0.003993 -0.000244 0
0.003996 0.000129 0
0.003943 0.000401 0
0.003851 0.000575 0
0.003736 0.000662 0
0.003614 0.000677 0
0.003494 0.000638 0
0.003385 0.000562 0
0.003292 0.000467 0
0.003214 0.000365 0
0.003152 0.000267 0
0.003103 0.000180 0
0.003064 0.000108 0
0.003032 0.000053 0
0.003004 0.000014 0
0.002979 -0.000011 0
0.002955 -0.000025 0
0.002931 -0.000029 0
0.002906 -0.000027 0
0.002881 -0.000021 0
0.002855 -0.000013 0
0.002829 -0.000005 0
0.002803 0.000004 0
0.002778 0.000012 0
0.002753 0.000019 0
0.002729 0.000024 0
0.002706 0.000029 0
0.002685 0.000033 0
0.002664 0.000036 0
0.002645 0.000039 0
0.002627 0.000041 0
0.002610 0.000042 0
0.002593 0.000043 0
0.002578 0.000041 0
0.002562 0.000038 0
0.002547 0.000032 0
0.002530 0.000024 0
0.002513 0.000013 0
0.002493 0.000002 0
0.002468 -0.000004 0
0.002432 0.000007 0
0.002375 0.000057 0
0.002279 0.000187 0
0.002117 0.000469 0
0.001853 0.001018 0
0.001449 0.001980 0
0.000897 0.003338 0
0.000308 0.004036 0
0.000000 0.001990 0
0.000000 -0.000779 0
0.000189 -0.001996 0
0.000484 -0.002280 0
0.000738 -0.001762 0
0.000902 -0.001036 0
0.000979 -0.000408 0
0.000994 0.000015 0
0.000974 0.000236 0
0.000940 0.000305 0
0.000904 0.000285 0
0.000872 0.000226 0
0.000843 0.000163 0
0.000816 0.000115 0
0.000788 0.000085 0
0.000760 0.000072 0
0.000730 0.000072 0
0.000699 0.000079 0
0.000667 0.000090 0
0.000633 0.000102 0
0.000598 0.000114 0
0.000563 0.000126 0
0.000526 0.000138 0
0.000489 0.000150 0
0.000450 0.000164 0
0.000410 0.000181 0
0.000369 0.000201 0
0.000326 0.000228 0
0.000283 0.000266 0
0.000238 0.000319 0
0.000192 0.000392 0
0.000146 0.000490 0
0.000100 0.000606 0
0.000058 0.000722 0
0.000025 0.000797 0
0.000004 0.000761 0
-0.000003 0.000527 0
0.000000 0.000174 0
0.000000 0.000000 0
0.000000 0.000000 0
0.000000 0.000000 0
0.000000 -0.000445 0
0.000217 -0.001589 0
0.000707 -0.002740 0
0.001327 -0.003377 0
0.001961 -0.003523 0
0.002531 -0.003275 0
0.002998 -0.002768 0
0.003347 -0.002126 0
0.003581 -0.001453 0
0.003716 -0.000820 0
0.003766 -0.000275 0
0.003750 0.000160 0
0.003685 0.000476 0
0.003590 0.000678 0
0.003478 0.000777 0
0.003363 0.000793 0
0.003254 0.000746 0
0.003157 0.000658 0
0.003073 0.000547 0
0.003003 0.000431 0
0.002944 0.000321 0
0.002894 0.000225 0
0.002849 0.000147 0
0.002807 0.000088 0
0.002766 0.000047 0
0.002725 0.000021 0
0.002685 0.000008 0
0.002643 0.000004 0
0.002602 0.000006 0
0.002562 0.000012 0
0.002522 0.000020 0
0.002484 0.000028 0
0.002448 0.000035 0
0.002414 0.000042 0
0.002382 0.000047 0
0.002352 0.000051 0
0.002325 0.000054 0
0.002299 0.000057 0
0.002276 0.000058 0
0.002255 0.000059 0
0.002236 0.000060 0
0.002218 0.000060 0
0.002201 0.000060 0
0.002185 0.000058 0
0.002168 0.000055 0
0.002151 0.000050 0
0.002133 0.000042 0
0.002114 0.000033 0
0.002092 0.000026 0
0.002067 0.000028 0
0.002034 0.000054 0
0.001985 0.000132 0
0.001906 0.000311 0
0.001770 0.000673 0
0.001543 0.001335 0
0.001194 0.002429 0
0.000722 0.003864 0
0.000234 0.004439 0
0.000000 0.002124 0
0.000000 -0.000868 0
0.000166 -0.002222 0
0.000418 -0.002533 0
0.000628 -0.001951 0
0.000757 -0.001142 0
0.000810 -0.000445 0
0.000814 0.000021 0
0.000791 0.000263 0
0.000759 0.000339 0
0.000726 0.000318 0
0.000695 0.000256 0
0.000665 0.000192 0
0.000635 0.000144 0
0.000604 0.000115 0
0.000570 0.000104 0
0.000534 0.000106 0
0.000498 0.000114 0
0.000460 0.000126 0
0.000422 0.000138 0
0.000385 0.000151 0
0.000347 0.000163 0
0.000308 0.000176 0
0.000270 0.000189 0
0.000232 0.000204 0
0.000193 0.000221 0
0.000155 0.000241 0
0.000118 0.000268 0
0.000083 0.000306 0
0.000049 0.000358 0
0.000018 0.000430 0
-0.000010 0.000525 0
-0.000031 0.000636 0
-0.000043 0.000743 0
-0.000044 0.000806 0
-0.000033 0.000758 0
-0.000014 0.000518 0
0.000000 0.000169 0
0.000000 0.000000 0
0.000000 0.000000 0
0.000000 0.000000 0
0.000000 -0.000553 0
0.000215 -0.001942 0
0.000699 -0.003292 0
0.001301 -0.003996 0
0.001902 -0.004109 0
0.002427 -0.003772 0
0.002840 -0.003151 0
0.003132 -0.002393 0
0.003314 -0.001615 0
0.003404 -0.000894 0
0.003419 -0.000278 0
0.003378 0.000210 0
0.003298 0.000561 0
0.003195 0.000782 0
0.003083 0.000888 0
0.002972 0.000900 0
0.002869 0.000844 0
0.002778 0.000743 0
0.002699 0.000621 0
0.002631 0.000494 0
0.002569 0.000376 0
0.002512 0.000276 0
0.002456 0.000195 0
0.002399 0.000136 0
0.002342 0.000095 0
0.002284 0.000071 0
0.002227 0.000058 0
0.002171 0.000053 0
0.002116 0.000055 0
0.002065 0.000059 0
0.002016 0.000064 0
0.001971 0.000070 0
0.001930 0.000074 0
0.001893 0.000078 0
0.001859 0.000080 0
0.001829 0.000082 0
0.001802 0.000082 0
0.001778 0.000081 0
0.001757 0.000081 0
0.001738 0.000079 0
0.001721 0.000078 0
0.001706 0.000077 0
0.001691 0.000076 0
0.001676 0.000074 0
0.001661 0.000072 0
0.001645 0.000067 0
0.001628 0.000061 0
0.001610 0.000054 0
0.001592 0.000049 0
0.001574 0.000054 0
0.001556 0.000088 0
0.001531 0.000185 0
0.001486 0.000403 0
0.001396 0.000832 0
0.001227 0.001594 0
0.000948 0.002802 0
0.000562 0.004298 0
0.000170 0.004758 0
0.000000 0.002224 0
0.000000 -0.000946 0
0.000143 -0.002415 0
0.000355 -0.002743 0
0.000523 -0.002101 0
0.000617 -0.001219 0
0.000649 -0.000466 0
0.000642 0.000034 0
0.000617 0.000291 0
0.000587 0.000370 0
0.000556 0.000348 0
0.000527 0.000286 0
0.000496 0.000223 0
0.000464 0.000176 0
0.000428 0.000150 0
0.000390 0.000141 0
0.000351 0.000144 0
0.000310 0.000153 0
0.000270 0.000165 0
0.000230 0.000177 0
0.000191 0.000190 0
0.000153 0.000202 0
0.000115 0.000214 0
0.000078 0.000227 0
0.000042 0.000241 0
0.000007 0.000257 0
-0.000025 0.000276 0
-0.000055 0.000301 0
-0.000082 0.000335 0
-0.000104 0.000384 0
-0.000121 0.000451 0
-0.000130 0.000538 0
-0.000130 0.000640 0
-0.000118 0.000735 0
-0.000092 0.000786 0
-0.000057 0.000731 0
-0.000021 0.000494 0
0.000000 0.000160 0
0.000000 0.000000 0
0.000000 0.000000 0
0.000000 0.000000 0
0.000000 -0.000660 0
0.000211 -0.002288 0
0.000679 -0.003825 0
0.001250 -0.004581 0
0.001804 -0.004649 0
0.002270 -0.004212 0
0.002617 -0.003472 0
0.002846 -0.002601 0
0.002970 -0.001725 0
0.003010 -0.000925 0
0.002987 -0.000248 0
0.002917 0.000282 0
0.002817 0.000660 0
0.002701 0.000893 0
0.002581 0.001000 0
0.002465 0.001006 0
0.002359 0.000940 0
0.002264 0.000827 0
0.002179 0.000695 0
0.002101 0.000561 0
0.002027 0.000440 0
0.001954 0.000339 0
0.001881 0.000260 0
0.001808 0.000201 0
0.001735 0.000162 0
0.001664 0.000136 0
0.001595 0.000122 0
0.001532 0.000115 0
0.001473 0.000112 0
0.001419 0.000112 0
0.001372 0.000113 0
0.001329 0.000114 0
0.001292 0.000114 0
0.001260 0.000113 0
0.001231 0.000112 0
0.001207 0.000109 0
0.001187 0.000106 0
0.001169 0.000102 0
0.001155 0.000099 0
0.001142 0.000095 0
0.001132 0.000093 0
0.001122 0.000090 0
0.001113 0.000089 0
0.001103 0.000088 0
0.001092 0.000086 0
0.001080 0.000083 0
0.001067 0.000077 0
0.001054 0.000069 0
0.001045 0.000062 0
0.001042 0.000064 0
0.001047 0.000098 0
0.001056 0.000202 0