# vtk DataFile Version 2.0
generated by CFD-lab course output (written by Tobias Neckel) 
ASCII

DATASET STRUCTURED_GRID
DIMENSIONS  99 49 1 
POINTS 4851 float

0.000000 0.000000 0
0.020000 0.000000 0
0.040000 0.000000 0
0.060000 0.000000 0
0.080000 0.000000 0
0.100000 0.000000 0
0.120000 0.000000 0
0.140000 0.000000 0
0.160000 0.000000 0
0.180000 0.000000 0
0.200000 0.000000 0
0.220000 0.000000 0
0.240000 0.000000 0
0.260000 0.000000 0
0.280000 0.000000 0
0.300000 0.000000 0
0.320000 0.000000 0
0.340000 0.000000 0
0.360000 0.000000 0
0.380000 0.000000 0
0.400000 0.000000 0
0.420000 0.000000 0
0.440000 0.000000 0
0.460000 0.000000 0
0.480000 0.000000 0
0.500000 0.000000 0
0.520000 0.000000 0
0.540000 0.000000 0
0.560000 0.000000 0
0.580000 0.000000 0
0.600000 0.000000 0
0.620000 0.000000 0
0.640000 0.000000 0
0.660000 0.000000 0
0.680000 0.000000 0
0.700000 0.000000 0
0.720000 0.000000 0
0.740000 0.000000 0
0.760000 0.000000 0
0.780000 0.000000 0
0.800000 0.000000 0
0.820000 0.000000 0
0.840000 0.000000 0
0.860000 0.000000 0
0.880000 0.000000 0
0.900000 0.000000 0
0.920000 0.000000 0
0.940000 0.000000 0
0.960000 0.000000 0
0.980000 0.000000 0
1.000000 0.000000 0
1.020000 0.000000 0
1.040000 0.000000 0
1.060000 0.000000 0
1.080000 0.000000 0
1.100000 0.000000 0
1.120000 0.000000 0
1.140000 0.000000 0
1.160000 0.000000 0
1.180000 0.000000 0
1.200000 0.000000 0
1.220000 0.000000 0
1.240000 0.000000 0
1.260000 0.000000 0
1.280000 0.000000 0
1.300000 0.000000 0
1.320000 0.000000 0
1.340000 0.000000 0
1.360000 0.000000 0
1.380000 0.000000 0
1.400000 0.000000 0
1.420000 0.000000 0
1.440000 0.000000 0
1.460000 0.000000 0
1.480000 0.000000 0
1.500000 0.000000 0
1.520000 0.000000 0
1.540000 0.000000 0
1.560000 0.000000 0
1.580000 0.000000 0
1.600000 0.000000 0
1.620000 0.000000 0
1.640000 0.000000 0
1.660000 0.000000 0
1.680000 0.000000 0
1.700000 0.000000 0
1.720000 0.000000 0
1.740000 0.000000 0
1.760000 0.000000 0
1.780000 0.000000 0
1.800000 0.000000 0
1.820000 0.000000 0
1.840000 0.000000 0
1.860000 0.000000 0
1.880000 0.000000 0
1.900000 0.000000 0
1.920000 0.000000 0
1.940000 0.000000 0
1.960000 0.000000 0
0.000000 0.020000 0
0.020000 0.020000 0
0.040000 0.020000 0
0.060000 0.020000 0
0.080000 0.020000 0
0.100000 0.020000 0
0.120000 0.020000 0
0.140000 0.020000 0
0.160000 0.020000 0
0.180000 0.020000 0
0.200000 0.020000 0
0.220000 0.020000 0
0.240000 0.020000 0
0.260000 0.020000 0
0.280000 0.020000 0
0.300000 0.020000 0
0.320000 0.020000 0
0.340000 0.020000 0
0.360000 0.020000 0
0.380000 0.020000 0
0.400000 0.020000 0
0.420000 0.020000 0
0.440000 0.020000 0
0.460000 0.020000 0
0.480000 0.020000 0
0.500000 0.020000 0
0.520000 0.020000 0
0.540000 0.020000 0
0.560000 0.020000 0
0.580000 0.020000 0
0.600000 0.020000 0
0.620000 0.020000 0
0.640000 0.020000 0
0.660000 0.020000 0
0.680000 0.020000 0
0.700000 0.020000 0
0.720000 0.020000 0
0.740000 0.020000 0
0.760000 0.020000 0
0.780000 0.020000 0
0.800000 0.020000 0
0.820000 0.020000 0
0.840000 0.020000 0
0.860000 0.020000 0
0.880000 0.020000 0
0.900000 0.020000 0
0.920000 0.020000 0
0.940000 0.020000 0
0.960000 0.020000 0
0.980000 0.020000 0
1.000000 0.020000 0
1.020000 0.020000 0
1.040000 0.020000 0
1.060000 0.020000 0
1.080000 0.020000 0
1.100000 0.020000 0
1.120000 0.020000 0
1.140000 0.020000 0
1.160000 0.020000 0
1.180000 0.020000 0
1.200000 0.020000 0
1.220000 0.020000 0
1.240000 0.020000 0
1.260000 0.020000 0
1.280000 0.020000 0
1.300000 0.020000 0
1.320000 0.020000 0
1.340000 0.020000 0
1.360000 0.020000 0
1.380000 0.020000 0
1.400000 0.020000 0
1.420000 0.020000 0
1.440000 0.020000 0
1.460000 0.020000 0
1.480000 0.020000 0
1.500000 0.020000 0
1.520000 0.020000 0
1.540000 0.020000 0
1.560000 0.020000 0
1.580000 0.020000 0
1.600000 0.020000 0
1.620000 0.020000 0
1.640000 0.020000 0
1.660000 0.020000 0
1.680000 0.020000 0
1.700000 0.020000 0
1.720000 0.020000 0
1.740000 0.020000 0
1.760000 0.020000 0
1.780000 0.020000 0
1.800000 0.020000 0
1.820000 0.020000 0
1.840000 0.020000 0
1.860000 0.020000 0
1.880000 0.020000 0
1.900000 0.020000 0
1.920000 0.020000 0
1.940000 0.020000 0
1.960000 0.020000 0
0.000000 0.040000 0
0.020000 0.040000 0
0.040000 0.040000 0
0.060000 0.040000 0
0.080000 0.040000 0
0.100000 0.040000 0
0.120000 0.040000 0
0.140000 0.040000 0
0.160000 0.040000 0
0.180000 0.040000 0
0.200000 0.040000 0
0.220000 0.040000 0
0.240000 0.040000 0
0.260000 0.040000 0
0.280000 0.040000 0
0.300000 0.040000 0
0.320000 0.040000 0
0.340000 0.040000 0
0.360000 0.040000 0
0.380000 0.040000 0
0.400000 0.040000 0
0.420000 0.040000 0
0.440000 0.040000 0
0.460000 0.040000 0
0.480000 0.040000 0
0.500000 0.040000 0
0.520000 0.040000 0
0.540000 0.040000 0
0.560000 0.040000 0
0.580000 0.040000 0
0.600000 0.040000 0
0.620000 0.040000 0
0.640000 0.040000 0
0.660000 0.040000 0
0.680000 0.040000 0
0.700000 0.040000 0
0.720000 0.040000 0
0.740000 0.040000 0
0.760000 0.040000 0
0.780000 0.040000 0
0.800000 0.040000 0
0.820000 0.040000 0
0.840000 0.040000 0
0.860000 0.040000 0
0.880000 0.040000 0
0.900000 0.040000 0
0.920000 0.040000 0
0.940000 0.040000 0
0.960000 0.040000 0
0.980000 0.040000 0
1.000000 0.040000 0
1.020000 0.040000 0
1.040000 0.040000 0
1.060000 0.040000 0
1.080000 0.040000 0
1.100000 0.040000 0
1.120000 0.040000 0
1.140000 0.040000 0
1.160000 0.040000 0
1.180000 0.040000 0
1.200000 0.040000 0
1.220000 0.040000 0
1.240000 0.040000 0
1.260000 0.040000 0
1.280000 0.040000 0
1.300000 0.040000 0
1.320000 0.040000 0
1.340000 0.040000 0
1.360000 0.040000 0
1.380000 0.040000 0
1.400000 0.040000 0
1.420000 0.040000 0
1.440000 0.040000 0
1.460000 0.040000 0
1.480000 0.040000 0
1.500000 0.040000 0
1.520000 0.040000 0
1.540000 0.040000 0
1.560000 0.040000 0
1.580000 0.040000 0
1.600000 0.040000 0
1.620000 0.040000 0
1.640000 0.040000 0
1.660000 0.040000 0
1.680000 0.040000 0
1.700000 0.040000 0
1.720000 0.040000 0
1.740000 0.040000 0
1.760000 0.040000 0
1.780000 0.040000 0
1.800000 0.040000 0
1.820000 0.040000 0
1.840000 0.040000 0
1.860000 0.040000 0
1.880000 0.040000 0
1.900000 0.040000 0
1.920000 0.040000 0
1.940000 0.040000 0
1.960000 0.040000 0
0.000000 0.060000 0
0.020000 0.060000 0
0.040000 0.060000 0
0.060000 0.060000 0
0.080000 0.060000 0
0.100000 0.060000 0
0.120000 0.060000 0
0.140000 0.060000 0
0.160000 0.060000 0
0.180000 0.060000 0
0.200000 0.060000 0
0.220000 0.060000 0
0.240000 0.060000 0
0.260000 0.060000 0
0.280000 0.060000 0
0.300000 0.060000 0
0.320000 0.060000 0
0.340000 0.060000 0
0.360000 0.060000 0
0.380000 0.060000 0
0.400000 0.060000 0
0.420000 0.060000 0
0.440000 0.060000 0
0.460000 0.060000 0
0.480000 0.060000 0
0.500000 0.060000 0
0.520000 0.060000 0
0.540000 0.060000 0
0.560000 0.060000 0
0.580000 0.060000 0
0.600000 0.060000 0
0.620000 0.060000 0
0.640000 0.060000 0
0.660000 0.060000 0
0.680000 0.060000 0
0.700000 0.060000 0
0.720000 0.060000 0
0.740000 0.060000 0
0.760000 0.060000 0
0.780000 0.060000 0
0.800000 0.060000 0
0.820000 0.060000 0
0.840000 0.060000 0
0.860000 0.060000 0
0.880000 0.060000 0
0.900000 0.060000 0
0.920000 0.060000 0
0.940000 0.060000 0
0.960000 0.060000 0
0.980000 0.060000 0
1.000000 0.060000 0
1.020000 0.060000 0
1.040000 0.060000 0
1.060000 0.060000 0
1.080000 0.060000 0
1.100000 0.060000 0
1.120000 0.060000 0
1.140000 0.060000 0
1.160000 0.060000 0
1.180000 0.060000 0
1.200000 0.060000 0
1.220000 0.060000 0
1.240000 0.060000 0
1.260000 0.060000 0
1.280000 0.060000 0
1.300000 0.060000 0
1.320000 0.060000 0
1.340000 0.060000 0
1.360000 0.060000 0
1.380000 0.060000 0
1.400000 0.060000 0
1.420000 0.060000 0
1.440000 0.060000 0
1.460000 0.060000 0
1.480000 0.060000 0
1.500000 0.060000 0
1.520000 0.060000 0
1.540000 0.060000 0
1.560000 0.060000 0
1.580000 0.060000 0
1.600000 0.060000 0
1.620000 0.060000 0
1.640000 0.060000 0
1.660000 0.060000 0
1.680000 0.060000 0
1.700000 0.060000 0
1.720000 0.060000 0
1.740000 0.060000 0
1.760000 0.060000 0
1.780000 0.060000 0
1.800000 0.060000 0
1.820000 0.060000 0
1.840000 0.060000 0
1.860000 0.060000 0
1.880000 0.060000 0
1.900000 0.060000 0
1.920000 0.060000 0
1.940000 0.060000 0
1.960000 0.060000 0
0.000000 0.080000 0
0.020000 0.080000 0
0.040000 0.080000 0
0.060000 0.080000 0
0.080000 0.080000 0
0.100000 0.080000 0
0.120000 0.080000 0
0.140000 0.080000 0
0.160000 0.080000 0
0.180000 0.080000 0
0.200000 0.080000 0
0.220000 0.080000 0
0.240000 0.080000 0
0.260000 0.080000 0
0.280000 0.080000 0
0.300000 0.080000 0
0.320000 0.080000 0
0.340000 0.080000 0
0.360000 0.080000 0
0.380000 0.080000 0
0.400000 0.080000 0
0.420000 0.080000 0
0.440000 0.080000 0
0.460000 0.080000 0
0.480000 0.080000 0
0.500000 0.080000 0
0.520000 0.080000 0
0.540000 0.080000 0
0.560000 0.080000 0
0.580000 0.080000 0
0.600000 0.080000 0
0.620000 0.080000 0
0.640000 0.080000 0
0.660000 0.080000 0
0.680000 0.080000 0
0.700000 0.080000 0
0.720000 0.080000 0
0.740000 0.080000 0
0.760000 0.080000 0
0.780000 0.080000 0
0.800000 0.080000 0
0.820000 0.080000 0
0.840000 0.080000 0
0.860000 0.080000 0
0.880000 0.080000 0
0.900000 0.080000 0
0.920000 0.080000 0
0.940000 0.080000 0
0.960000 0.080000 0
0.980000 0.080000 0
1.000000 0.080000 0
1.020000 0.080000 0
1.040000 0.080000 0
1.060000 0.080000 0
1.080000 0.080000 0
1.100000 0.080000 0
1.120000 0.080000 0
1.140000 0.080000 0
1.160000 0.080000 0
1.180000 0.080000 0
1.200000 0.080000 0
1.220000 0.080000 0
1.240000 0.080000 0
1.260000 0.080000 0
1.280000 0.080000 0
1.300000 0.080000 0
1.320000 0.080000 0
1.340000 0.080000 0
1.360000 0.080000 0
1.380000 0.080000 0
1.400000 0.080000 0
1.420000 0.080000 0
1.440000 0.080000 0
1.460000 0.080000 0
1.480000 0.080000 0
1.500000 0.080000 0
1.520000 0.080000 0
1.540000 0.080000 0
1.560000 0.080000 0
1.580000 0.080000 0
1.600000 0.080000 0
1.620000 0.080000 0
1.640000 0.080000 0
1.660000 0.080000 0
1.680000 0.080000 0
1.700000 0.080000 0
1.720000 0.080000 0
1.740000 0.080000 0
1.760000 0.080000 0
1.780000 0.080000 0
1.800000 0.080000 0
1.820000 0.080000 0
1.840000 0.080000 0
1.860000 0.080000 0
1.880000 0.080000 0
[...]
POINT_DATA 4851 

VECTORS velocity float
0.000000 0.000000 0
0.000040 0.000000 0
0.000105 0.000000 0
0.000159 0.000000 0
0.000192 0.000000 0
0.000206 0.000000 0
0.000206 0.000000 0
0.000198 0.000000 0
0.000188 0.000000 0
0.000178 0.000000 0
0.000170 0.000000 0
0.000164 0.000000 0
0.000160 0.000000 0
0.000158 0.000000 0
0.000157 0.000000 0
0.000156 0.000000 0
0.000156 0.000000 0
0.000155 0.000000 0
0.000155 0.000000 0
0.000154 0.000000 0
0.000153 0.000000 0
0.000152 0.000000 0
0.000150 0.000000 0
0.000149 0.000000 0
0.000147 0.000000 0
0.000146 0.000000 0
0.000144 0.000000 0
0.000141 0.000000 0
0.000138 0.000000 0
0.000133 0.000000 0
0.000125 0.000000 0
0.000112 0.000000 0
0.000094 0.000000 0
0.000069 0.000000 0
0.000039 0.000000 0
0.000012 0.000000 0
0.000000 0.000000 0
0.000000 0.000000 0
0.000000 0.000000 0
0.000000 0.000000 0
0.000000 0.000000 0
0.000004 0.000000 0
0.000043 0.000000 0
0.000111 0.000000 0
0.000191 0.000000 0
0.000268 0.000000 0
0.000331 0.000000 0
0.000375 0.000000 0
0.000398 0.000000 0
0.000403 0.000000 0
0.000394 0.000000 0
0.000376 0.000000 0
0.000352 0.000000 0
0.000326 0.000000 0
0.000300 0.000000 0
0.000277 0.000000 0
0.000258 0.000000 0
0.000243 0.000000 0
0.000232 0.000000 0
0.000224 0.000000 0
0.000220 0.000000 0
0.000219 0.000000 0
0.000220 0.000000 0
0.000222 0.000000 0
0.000225 0.000000 0
0.000228 0.000000 0
0.000232 0.000000 0
0.000234 0.000000 0
0.000237 0.000000 0
0.000238 0.000000 0
0.000240 0.000000 0
0.000241 0.000000 0
0.000242 0.000000 0
0.000242 0.000000 0
0.000243 0.000000 0
0.000243 0.000000 0
0.000244 0.000000 0
0.000244 0.000000 0
0.000245 0.000000 0
0.000246 0.000000 0
0.000248 0.000000 0
0.000249 0.000000 0
0.000252 0.000000 0
0.000254 0.000000 0
0.000258 0.000000 0
0.000262 0.000000 0
0.000268 0.000000 0
0.000275 0.000000 0
0.000284 0.000000 0
0.000296 0.000000 0
0.000312 0.000000 0
0.000336 0.000000 0
0.000370 0.000000 0
0.000419 0.000000 0
0.000491 0.000000 0
0.000579 0.000000 0
0.000637 0.000000 0
0.000498 0.000000 0
0.000000 0.000000 0
0.000000 -0.000041 0
0.000116 -0.000106 0
0.000301 -0.000119 0
0.000465 -0.000088 0
0.000574 -0.000048 0
0.000627 -0.000014 0
0.000639 0.000007 0
0.000626 0.000017 0
0.000601 0.000020 0
0.000574 0.000017 0
0.000551 0.000013 0
0.000533 0.000009 0
0.000521 0.000005 0
0.000514 0.000003 0
0.000510 0.000001 0
0.000507 0.000000 0
0.000505 0.000000 0
0.000503 0.000000 0
0.000501 0.000001 0
0.000498 0.000001 0
0.000494 0.000001 0
0.000489 0.000002 0
0.000484 0.000002 0
0.000478 0.000002 0
0.000471 0.000003 0
0.000464 0.000003 0
0.000455 0.000004 0
0.000443 0.000005 0
0.000428 0.000008 0
0.000407 0.000012 0
0.000377 0.000020 0
0.000334 0.000030 0
0.000274 0.000043 0
0.000199 0.000054 0
0.000114 0.000056 0
0.000038 0.000039 0
0.000000 0.000012 0
0.000000 0.000000 0
0.000000 0.000000 0
0.000000 0.000000 0
0.000000 -0.000004 0
0.000040 -0.000043 0
0.000182 -0.000106 0
0.000402 -0.000148 0
0.000657 -0.000157 0
0.000903 -0.000140 0
0.001110 -0.000107 0
0.001260 -0.000067 0
0.001347 -0.000028 0
0.001378 0.000004 0
0.001362 0.000028 0
0.001313 0.000043 0
0.001244 0.000050 0
0.001164 0.000052 0
0.001084 0.000049 0
0.001009 0.000043 0
0.000944 0.000035 0
0.000892 0.000027 0
0.000853 0.000019 0
0.000826 0.000011 0
0.000810 0.000005 0
0.000803 0.000000 0
0.000803 -0.000003 0
0.000808 -0.000005 0
0.000816 -0.000006 0
0.000825 -0.000006 0
0.000834 -0.000006 0
0.000842 -0.000005 0
0.000848 -0.000004 0
0.000854 -0.000003 0
0.000858 -0.000002 0
0.000861 -0.000002 0
0.000863 -0.000001 0
0.000865 -0.000001 0
0.000866 -0.000001 0
0.000867 -0.000001 0
0.000868 -0.000001 0
0.000870 -0.000001 0
0.000872 -0.000002 0
0.000875 -0.000002 0
0.000879 -0.000003 0
0.000885 -0.000004 0
0.000891 -0.000005 0
0.000900 -0.000006 0
0.000910 -0.000007 0
0.000924 -0.000009 0
0.000941 -0.000012 0
0.000962 -0.000016 0
0.000989 -0.000021 0
0.001025 -0.000028 0
0.001073 -0.000040 0
0.001136 -0.000057 0
0.001220 -0.000084 0
0.001329 -0.000121 0
0.001454 -0.000160 0
0.001557 -0.000147 0
0.001500 0.000081 0
0.000994 0.000638 0
0.000000 0.000498 0
0.000000 -0.000116 0
0.000162 -0.000302 0
0.000425 -0.000350 0
0.000667 -0.000274 0
0.000839 -0.000163 0
0.000934 -0.000066 0
0.000967 0.000001 0
0.000961 0.000037 0
0.000934 0.000051 0
0.000900 0.000049 0
0.000869 0.000040 0
0.000845 0.000029 0
0.000827 0.000018 0
0.000815 0.000011 0
0.000808 0.000006 0
0.000803 0.000004 0
0.000799 0.000003 0
0.000794 0.000004 0
0.000789 0.000005 0
0.000783 0.000006 0
0.000775 0.000008 0
0.000766 0.000009 0
0.000756 0.000010 0
0.000744 0.000012 0
0.000730 0.000013 0
0.000714 0.000016 0
0.000695 0.000019 0
0.000672 0.000025 0
0.000642 0.000035 0
0.000601 0.000050 0
0.000547 0.000073 0
0.000476 0.000102 0
0.000384 0.000134 0
0.000274 0.000159 0
0.000157 0.000160 0
0.000053 0.000114 0
0.000000 0.000038 0
0.000000 0.000000 0
0.000000 0.000000 0
0.000000 0.000000 0
0.000000 -0.000039 0
0.000097 -0.000181 0
0.000351 -0.000362 0
0.000714 -0.000475 0
0.001122 -0.000501 0
0.001516 -0.000453 0
0.001852 -0.000356 0
0.002104 -0.000236 0
0.002262 -0.000118 0
0.002333 -0.000015 0
0.002330 0.000064 0
0.002270 0.000119 0
0.002173 0.000150 0
0.002055 0.000160 0
0.001932 0.000156 0
0.001813 0.000140 0
0.001708 0.000117 0
0.001620 0.000092 0
0.001553 0.000066 0
0.001504 0.000043 0
0.001474 0.000023 0
0.001458 0.000007 0
0.001453 -0.000005 0
0.001457 -0.000012 0
0.001465 -0.000016 0
0.001476 -0.000017 0
0.001488 -0.000017 0
0.001499 -0.000015 0
0.001508 -0.000012 0
0.001515 -0.000009 0
0.001520 -0.000007 0
0.001523 -0.000005 0
0.001525 -0.000003 0
0.001527 -0.000002 0
0.001527 -0.000002 0
0.001528 -0.000002 0
0.001528 -0.000003 0
0.001530 -0.000004 0
0.001532 -0.000005 0
0.001536 -0.000007 0
0.001541 -0.000009 0
0.001548 -0.000012 0
0.001557 -0.000015 0
0.001568 -0.000019 0
0.001583 -0.000024 0
0.001602 -0.000030 0
0.001626 -0.000038 0
0.001656 -0.000049 0
0.001694 -0.000063 0
0.001742 -0.000083 0
0.001802 -0.000110 0
0.001875 -0.000147 0
0.001959 -0.000192 0
0.002041 -0.000234 0
0.002087 -0.000228 0
0.002012 -0.000045 0
0.001658 0.000564 0
0.000873 0.001500 0
0.000000 0.000994 0
0.000000 -0.000203 0
0.000174 -0.000531 0
0.000461 -0.000625 0
0.000730 -0.000502 0
0.000927 -0.000315 0
0.001042 -0.000143 0
0.001090 -0.000021 0
0.001092 0.000050 0
0.001070 0.000080 0
0.001039 0.000082 0
0.001008 0.000069 0
0.000983 0.000051 0
0.000964 0.000034 0
0.000950 0.000021 0
0.000941 0.000013 0
0.000934 0.000009 0
0.000927 0.000008 0
0.000920 0.000010 0
0.000912 0.000012 0
0.000902 0.000015 0
0.000890 0.000018 0
0.000877 0.000021 0
0.000862 0.000024 0
0.000844 0.000028 0
0.000824 0.000032 0
0.000801 0.000037 0
0.000773 0.000046 0
0.000740 0.000059 0
0.000698 0.000078 0
0.000645 0.000106 0
0.000578 0.000145 0
0.000493 0.000193 0
0.000390 0.000244 0
0.000273 0.000280 0
0.000153 0.000276 0
0.000051 0.000195 0
0.000000 0.000065 0
0.000000 0.000000 0
0.000000 0.000000 0
0.000000 0.000000 0
0.000000 -0.000100 0
0.000138 -0.000393 0
0.000474 -0.000724 0
0.000933 -0.000918 0
0.001437 -0.000960 0
0.001920 -0.000870 0
0.002332 -0.000694 0
0.002646 -0.000477 0
0.002852 -0.000257 0
0.002956 -0.000063 0
0.002971 0.000091 0
0.002918 0.000200 0
0.002816 0.000266 0
0.002685 0.000294 0
0.002544 0.000291 0
0.002406 0.000267 0
0.002280 0.000228 0
0.002174 0.000182 0
0.002090 0.000134 0
0.002029 0.000090 0
0.001987 0.000052 0
0.001963 0.000021 0
0.001953 -0.000002 0
0.001952 -0.000017 0
0.001957 -0.000025 0
0.001965 -0.000028 0
0.001974 -0.000028 0
0.001983 -0.000025 0
0.001990 -0.000020 0
0.001995 -0.000015 0
0.001997 -0.000011 0
0.001998 -0.000007 0
0.001998 -0.000004 0
0.001996 -0.000002 0
0.001994 -0.000002 0
0.001992 -0.000002 0
0.001991 -0.000003 0
0.001990 -0.000005 0
0.001990 -0.000008 0
0.001991 -0.000011 0
0.001995 -0.000015 0
0.002000 -0.000020 0
0.002007 -0.000025 0
0.002017 -0.000032 0
0.002031 -0.000041 0
0.002048 -0.000052 0
0.002070 -0.000066 0
0.002097 -0.000084 0
0.002131 -0.000107 0
0.002171 -0.000136 0
0.002218 -0.000172 0
0.002266 -0.000214 0
0.002306 -0.000250 0
0.002313 -0.000249 0
0.002239 -0.000130 0
0.001995 0.000282 0
0.001472 0.001221 0
0.000657 0.002296 0
0.000000 0.001371 0
0.000000 -0.000291 0
0.000171 -0.000764 0
0.000454 -0.000907 0
0.000721 -0.000740 0
0.000917 -0.000475 0
0.001034 -0.000229 0
0.001085 -0.000050 0
0.001092 0.000057 0
0.001074 0.000104 0
0.001047 0.000111 0
0.001019 0.000096 0
0.000996 0.000073 0
0.000977 0.000050 0
0.000964 0.000033 0
0.000953 0.000022 0
0.000943 0.000017 0
0.000934 0.000017 0
0.000924 0.000019 0
0.000912 0.000023 0
0.000898 0.000027 0
0.000883 0.000032 0
0.000865 0.000038 0
0.000845 0.000043 0
0.000822 0.000049 0
0.000797 0.000057 0
0.000768 0.000066 0
0.000735 0.000080 0
0.000695 0.000100 0
0.000647 0.000130 0
0.000589 0.000170 0
0.000519 0.000224 0
0.000434 0.000289 0
0.000336 0.000353 0
0.000230 0.000395 0
0.000126 0.000382 0
0.000041 0.000267 0
0.000000 0.000089 0
0.000000 0.000000 0
0.000000 0.000000 0
0.000000 0.000000 0
0.000000 -0.000177 0
0.000164 -0.000655 0
0.000556 -0.001157 0
0.001079 -0.001438 0
0.001642 -0.001487 0
0.002173 -0.001347 0
0.002623 -0.001081 0
0.002967 -0.000757 0
0.003196 -0.000428 0
0.003318 -0.000134 0
0.003347 0.000103 0
0.003302 0.000275 0
0.003205 0.000382 0
0.003077 0.000432 0
0.002934 0.000435 0
0.002793 0.000404 0
0.002664 0.000349 0
0.002553 0.000282 0
0.002464 0.000212 0
0.002397 0.000146 0
0.002351 0.000089 0
0.002321 0.000042 0
0.002305 0.000007 0
0.002298 -0.000016 0
0.002297 -0.000029 0
0.002299 -0.000035 0
0.002302 -0.000034 0
0.002304 -0.000030 0
0.002304 -0.000024 0
0.002303 -0.000017 0
0.002300 -0.000010 0
0.002296 -0.000005 0
0.002290 -0.000001 0
0.002284 0.000001 0
0.002277 0.000002 0
0.002271 0.000002 0
0.002265 0.000000 0
0.002260 -0.000003 0
0.002256 -0.000007 0
0.002253 -0.000011 0
0.002252 -0.000017 0
0.002253 -0.000024 0
0.002255 -0.000032 0
0.002260 -0.000042 0
0.002267 -0.000054 0
0.002277 -0.000069 0
0.002290 -0.000087 0
0.002307 -0.000110 0
0.002326 -0.000137 0
0.002347 -0.000170 0
0.002367 -0.000205 0
0.002378 -0.000235 0
0.002366 -0.000239 0
0.002303 -0.000166 0
0.002138 0.000091 0
0.001802 0.000722 0
0.001232 0.001901 0
0.000490 0.002972 0
0.000000 0.001651 0
0.000000 -0.000375 0
0.000160 -0.000986 0
0.000425 -0.001176 0
0.000673 -0.000966 0
0.000854 -0.000627 0
0.000960 -0.000311 0
0.001006 -0.000079 0
0.001011 0.000061 0
0.000995 0.000124 0
0.000971 0.000136 0
0.000947 0.000119 0
0.000926 0.000092 0
0.000909 0.000066 0
0.000895 0.000046 0
0.000882 0.000033 0
0.000870 0.000028 0
0.000857 0.000028 0
0.000843 0.000032 0
0.000827 0.000037 0
0.000810 0.000044 0
0.000790 0.000051 0
0.000769 0.000058 0
0.000745 0.000066 0
0.000719 0.000075 0
0.000690 0.000086 0
0.000657 0.000100 0
0.000621 0.000119 0
0.000579 0.000146 0
0.000531 0.000183 0
0.000475 0.000235 0
0.000410 0.000300 0
0.000335 0.000375 0
0.000253 0.000447 0
0.000168 0.000491 0
0.000089 0.000465 0
0.000027 0.000321 0
0.000000 0.000106 0
0.000000 0.000000 0
0.000000 0.000000 0
0.000000 0.000000 0
0.000000 -0.000264 0
0.000181 -0.000949 0
0.000610 -0.001638 0
0.001171 -0.002004 0
0.001765 -0.002053 0
0.002315 -0.001851 0
0.002774 -0.001488 0
0.003121 -0.001050 0
0.003353 -0.000609 0
0.003476 -0.000214 0
0.003509 0.000107 0
0.003470 0.000342 0
0.003380 0.000492 0
0.003259 0.000565 0
0.003125 0.000575 0
0.002992 0.000537 0
0.002869 0.000468 0
0.002764 0.000382 0
0.002679 0.000290 0
0.002614 0.000204 0
0.002567 0.000128 0
0.002535 0.000067 0
0.002514 0.000022 0
0.002500 -0.000009 0
0.002490 -0.000026 0
0.002482 -0.000033 0
0.002475 -0.000032 0
0.002466 -0.000027 0
0.002457 -0.000019 0
0.002447 -0.000011 0
0.002435 -0.000003 0
0.002422 0.000003 0
0.002410 0.000008 0
0.002397 0.000011 0
0.002384 0.000011 0
0.002372 0.000010 0
0.002361 0.000008 0
0.002351 0.000004 0
0.002341 -0.000001 0
0.002333 -0.000007 0
0.002326 -0.000014 0
0.002320 -0.000022 0
0.002315 -0.000032 0
0.002312 -0.000044 0
0.002310 -0.000058 0
0.002309 -0.000075 0
0.002310 -0.000095 0
0.002310 -0.000119 0
0.002311 -0.000147 0
0.002309 -0.000177 0
0.002300 -0.000203 0
0.002278 -0.000213 0
0.002226 -0.000174 0
0.002118 -0.000020 0
0.001912 0.000371 0
0.001553 0.001188 0
0.001008 0.002533 0
0.000368 0.003529 0
0.000000 0.001861 0
0.000000 -0.000452 0
0.000146 -0.001190 0
0.000386 -0.001420 0
0.000606 -0.001169 0
0.000762 -0.000762 0
0.000851 -0.000381 0
0.000886 -0.000101 0
0.000887 0.000067 0
0.000871 0.000143 0
0.000849 0.000159 0
0.000827 0.000141 0
0.000808 0.000111 0
0.000791 0.000081 0
0.000775 0.000060 0
0.000760 0.000047 0
0.000745 0.000042 0
0.000728 0.000043 0
0.000710 0.000048 0
0.000690 0.000056 0
0.000669 0.000064 0
0.000646 0.000073 0
0.000622 0.000082 0
0.000595 0.000093 0
0.000567 0.000104 0
0.000536 0.000117 0
0.000503 0.000135 0
0.000467 0.000158 0
0.000427 0.000190 0
0.000383 0.000234 0
0.000334 0.000292 0
0.000280 0.000364 0
0.000221 0.000445 0
0.000160 0.000520 0
0.000102 0.000559 0
0.000050 0.000522 0
0.000014 0.000355 0
0.000000 0.000116 0
0.000000 0.000000 0
0.000000 0.000000 0
0.000000 0.000000 0
0.000000 -0.000358 0
0.000193 -0.001265 0
0.000644 -0.002147 0
0.001225 -0.002593 0
0.001826 -0.002631 0
0.002372 -0.002356 0
0.002817 -0.001888 0
0.003147 -0.001335 0
0.003362 -0.000783 0
0.003473 -0.000290 0
0.003500 0.000110 0
0.003461 0.000404 0
0.003376 0.000593 0
0.003265 0.000687 0
0.003143 0.000703 0
0.003024 0.000659 0
0.002915 0.000576 0
0.002822 0.000472 0
0.002746 0.000362 0
0.002687 0.000258 0
0.002642 0.000168 0
0.002607 0.000096 0
0.002580 0.000043 0
0.002557 0.000008 0
0.002536 -0.000012 0
0.002515 -0.000019 0
0.002494 -0.000018 0
0.002473 -0.000012 0
0.002451 -0.000003 0
0.002428 0.000006 0
0.002406 0.000014 0
0.002384 0.000020 0
0.002363 0.000025 0
0.002343 0.000027 0
0.002324 0.000027 0
0.002306 0.000025 0
0.002289 0.000022 0
0.002273 0.000017 0
0.002258 0.000011 0
0.002244 0.000004 0
0.002230 -0.000004 0
0.002217 -0.000013 0
0.002205 -0.000024 0
0.002193 -0.000037 0
0.002181 -0.000051 0
0.002168 -0.000068 0
0.002154 -0.000088 0
0.002138 -0.000111 0
0.002120 -0.000135 0
0.002097 -0.000159 0
0.002066 -0.000174 0
0.002021 -0.000161 0
0.001950 -0.000079 0
0.001830 0.000148 0
0.001625 0.000656 0
0.001290 0.001626 0
0.000807 0.003087 0
0.000274 0.003980 0
0.000000 0.002019 0
0.000000 -0.000522 0
0.000131 -0.001373 0
0.000341 -0.001636 0
0.000529 -0.001342 0
0.000657 -0.000873 0
0.000725 -0.000435 0
0.000748 -0.000115 0
0.000744 0.000076 0
0.000726 0.000162 0
0.000705 0.000180 0
0.000685 0.000160 0
0.000666 0.000128 0
0.000648 0.000098 0
0.000631 0.000076 0
0.000613 0.000064 0
0.000593 0.000060 0
0.000573 0.000062 0
0.000551 0.000069 0
0.000528 0.000078 0
0.000504 0.000088 0
0.000478 0.000098 0
0.000451 0.000109 0
0.000424 0.000121 0
0.000395 0.000134 0
0.000364 0.000149 0
0.000332 0.000169 0
0.000299 0.000194 0
0.000264 0.000229 0
0.000228 0.000276 0
0.000189 0.000337 0
0.000150 0.000413 0
0.000110 0.000495 0
0.000073 0.000567 0
0.000041 0.000600 0
0.000017 0.000553 0
0.000003 0.000371 0
0.000000 0.000120 0
0.000000 0.000000 0
0.000000 0.000000 0
0.000000 0.000000 0
0.000000 -0.000457 0
0.000201 -0.001593 0
0.000663 -0.002670 0
0.001247 -0.003186 0
0.001838 -0.003200 0
0.002359 -0.002842 0
0.002773 -0.002263 0
0.003069 -0.001594 0
0.003254 -0.000935 0
0.003343 -0.000352 0
0.003355 0.000120 0
0.003310 0.000466 0
0.003229 0.000687 0
0.003127 0.000798 0
0.003018 0.000816 0
0.002914 0.000766 0
0.002821 0.000670 0
0.002741 0.000551 0
0.002675 0.000426 0
0.002622 0.000308 0
0.002577 0.000208 0
0.002538 0.000129 0
0.002502 0.000072 0
0.002466 0.000036 0
0.002430 0.000016 0
0.002394 0.000009 0
0.002357 0.000010 0
0.002321 0.000017 0
0.002285 0.000025 0
0.002251 0.000034 0
0.002218 0.000041 0
0.002187 0.000046 0
0.002159 0.000049 0
0.002132 0.000050 0
0.002107 0.000049 0
0.002084 0.000046 0
0.002062 0.000041 0
0.002042 0.000036 0
0.002022 0.000029 0
0.002003 0.000021 0
0.001984 0.000012 0
0.001965 0.000003 0
0.001946 -0.000008 0
0.001926 -0.000020 0
0.001904 -0.000033 0
0.001881 -0.000048 0
0.001855 -0.000066 0
0.001825 -0.000085 0
0.001791 -0.000105 0
0.001753 -0.000123 0
0.001710 -0.000128 0
0.001658 -0.000097 0
0.001590 0.000018 0
0.001486 0.000305 0
0.001314 0.000911 0
0.001033 0.002006 0
0.000629 0.003550 0
0.000198 0.004336 0
0.000000 0.002135 0
0.000000 -0.000583 0
0.000115 -0.001532 0
0.000295 -0.001819 0
0.000450 -0.001485 0
0.000549 -0.000958 0
0.000596 -0.000472 0
0.000606 -0.000120 0
0.000595 0.000088 0
0.000576 0.000182 0
0.000556 0.000200 0
0.000536 0.000180 0
0.000517 0.000147 0
0.000498 0.000116 0
0.000478 0.000095 0
0.000457 0.000084 0
0.000435 0.000082 0
0.000411 0.000085 0
0.000386 0.000093 0
0.000360 0.000103 0
0.000334 0.000114 0
0.000307 0.000125 0
0.000279 0.000137 0
0.000252 0.000149 0
0.000223 0.000163 0
0.000195 0.000179 0
0.000167 0.000199 0
0.000138 0.000226 0
0.000110 0.000261 0
0.000083 0.000308 0
0.000057 0.000369 0
0.000033 0.000443 0
0.000013 0.000522 0
-0.000002 0.000589 0
-0.000010 0.000615 0
-0.000010 0.000559 0
-0.000005 0.000371 0
0.000000 0.000119 0
0.000000 0.000000 0
0.000000 0.000000 0
0.000000 0.000000 0
0.000000 -0.000558 0
0.000205 -0.001927 0
0.000669 -0.003193 0
0.001242 -0.003768 0
0.001806 -0.003743 0
0.002288 -0.003292 0
0.002657 -0.002598 0
0.002908 -0.001815 0
0.003053 -0.001056 0
0.003112 -0.000391 0
0.003105 0.000142 0
0.003051 0.000530 0
0.002969 0.000777 0
0.002874 0.000898 0
0.002776 0.000915 0
0.002685 0.000857 0
0.002604 0.000750 0
0.002534 0.000618 0
0.002474 0.000482 0
0.002421 0.000357 0
0.002371 0.000252 0
0.002322 0.000171 0
0.002272 0.000114 0
0.002220 0.000079 0
0.002166 0.000060 0
0.002112 0.000054 0
0.002059 0.000055 0
0.002009 0.000060 0
0.001961 0.000067 0
0.001917 0.000073 0
0.001877 0.000077 0
0.001840 0.000080 0
0.001807 0.000080 0
0.001777 0.000079 0
0.001750 0.000075 0
0.001724 0.000070 0
0.001700 0.000065 0
0.001677 0.000058 0
0.001655 0.000050 0
0.001633 0.000042 0
0.001611 0.000034 0
0.001589 0.000025 0
0.001565 0.000015 0
0.001541 0.000005 0
0.001513 -0.000006 0
0.001483 -0.000018 0
0.001448 -0.000032 0
0.001409 -0.000047 0
0.001367 -0.000063 0
0.001322 -0.000078 0
0.001278 -0.000079 0
0.001235 -0.000041 0
0.001188 0.000093 0
0.001122 0.000424 0
0.001003 0.001110 0
0.000789 0.002312 0
0.000469 0.003922 0
0.000134 0.004609 0
0.000000 0.002217 0
0.000000 -0.000637 0
0.000100 -0.001669 0
0.000250 -0.001970 0
0.000372 -0.001596 0
0.000443 -0.001019 0
0.000470 -0.000493 0
0.000468 -0.000115 0
0.000453 0.000105 0
0.000433 0.000202 0
0.000412 0.000220 0
0.000393 0.000199 0
0.000374 0.000166 0
0.000353 0.000136 0
0.000331 0.000117 0
0.000307 0.000107 0
0.000282 0.000106 0
0.000256 0.000111 0
0.000229 0.000119 0
0.000202 0.000130 0
0.000175 0.000141 0
0.000148 0.000152 0
0.000121 0.000164 0
0.000094 0.000176 0
0.000069 0.000190 0
0.000044 0.000206 0
0.000020 0.000225 0
-0.000002 0.000250 0
-0.000023 0.000284 0
-0.000040 0.000329 0
-0.000054 0.000387 0
-0.000063 0.000456 0
-0.000065 0.000529 0
-0.000060 0.000589 0
-0.000048 0.000608 0
-0.000030 0.000548 0
-0.000011 0.000360 0
0.000000 0.000114 0
0.000000 0.000000 0
0.000000 0.000000 0
0.000000 0.000000 0
0.000000 -0.000661 0
0.000207 -0.002261 0
0.000662 -0.003706 0
0.001212 -0.004324 0
0.001737 -0.004247 0
0.002168 -0.003693 0
0.002482 -0.002882 0
0.002681 -0.001990 0
0.002782 -0.001140 0
0.002808 -0.000404 0
0.002778 0.000181 0
0.002713 0.000602 0
0.002627 0.000865 0
0.002533 0.000991 0
0.002440 0.001005 0
0.002354 0.000938 0
0.002277 0.000821 0
0.002207 0.000681 0
0.002143 0.000539 0
0.002080 0.000412 0
0.002015 0.000307 0
0.001948 0.000229 0
0.001877 0.000175 0
0.001805 0.000141 0
0.001734 0.000123 0
0.001664 0.000116 0
0.001599 0.000114 0
0.001540 0.000115 0
0.001486 0.000117 0
0.001439 0.000118 0
0.001397 0.000118 0
0.001361 0.000116 0
0.001329 0.000113 0
0.001300 0.000108 0
0.001275 0.000102 0
0.001251 0.000096 0
0.001229 0.000088 0
0.001208 0.000081 0
0.001187 0.000073 0
0.001167 0.000065 0
0.001145 0.000057 0
0.001123 0.000049 0
0.001100 0.000041 0
0.001074 0.000033 0
0.001046 0.000025 0
0.001013 0.000017 0
0.000976 0.000008 0
0.000934 -0.000004 0
0.000891 -0.000018 0