# vtk DataFile Version 2.0
generated by CFD-lab course output (written by Tobias Neckel) 
ASCII

DATASET STRUCTURED_GRID
DIMENSIONS  99 49 1 
POINTS 4851 float

0.000000 0.000000 0
0.020000 0.000000 0
0.040000 0.000000 0
0.060000 0.000000 0
0.080000 0.000000 0
0.100000 0.000000 0
0.120000 0.000000 0
0.140000 0.000000 0
0.160000 0.000000 0
0.180000 0.000000 0
0.200000 0.000000 0
0.220000 0.000000 0
0.240000 0.000000 0
0.260000 0.000000 0
0.280000 0.000000 0
0.300000 0.000000 0
0.320000 0.000000 0
0.340000 0.000000 0
0.360000 0.000000 0
0.380000 0.000000 0
0.400000 0.000000 0
0.420000 0.000000 0
0.440000 0.000000 0
0.460000 0.000000 0
0.480000 0.000000 0
0.500000 0.000000 0
0.520000 0.000000 0
0.540000 0.000000 0
0.560000 0.000000 0
0.580000 0.000000 0
0.600000 0.000000 0
0.620000 0.000000 0
0.640000 0.000000 0
0.660000 0.000000 0
0.680000 0.000000 0
0.700000 0.000000 0
0.720000 0.000000 0
0.740000 0.000000 0
0.760000 0.000000 0
0.780000 0.000000 0
0.800000 0.000000 0
0.820000 0.000000 0
0.840000 0.000000 0
0.860000 0.000000 0
0.880000 0.000000 0
0.900000 0.000000 0
0.920000 0.000000 0
0.940000 0.000000 0
0.960000 0.000000 0
0.980000 0.000000 0
1.000000 0.000000 0
1.020000 0.000000 0
1.040000 0.000000 0
1.060000 0.000000 0
1.080000 0.000000 0
1.100000 0.000000 0
1.120000 0.000000 0
1.140000 0.000000 0
1.160000 0.000000 0
1.180000 0.000000 0
1.200000 0.000000 0
1.220000 0.000000 0
1.240000 0.000000 0
1.260000 0.000000 0
1.280000 0.000000 0
1.300000 0.000000 0
1.320000 0.000000 0
1.340000 0.000000 0
1.360000 0.000000 0
1.380000 0.000000 0
1.400000 0.000000 0
1.420000 0.000000 0
1.440000 0.000000 0
1.460000 0.000000 0
1.480000 0.000000 0
1.500000 0.000000 0
1.520000 0.000000 0
1.540000 0.000000 0
1.560000 0.000000 0
1.580000 0.000000 0
1.600000 0.000000 0
1.620000 0.000000 0
1.640000 0.000000 0
1.660000 0.000000 0
1.680000 0.000000 0
1.700000 0.000000 0
1.720000 0.000000 0
1.740000 0.000000 0
1.760000 0.000000 0
1.780000 0.000000 0
1.800000 0.000000 0
1.820000 0.000000 0
1.840000 0.000000 0
1.860000 0.000000 0
1.880000 0.000000 0
1.900000 0.000000 0
1.920000 0.000000 0
1.940000 0.000000 0
1.960000 0.000000 0
0.000000 0.020000 0
0.020000 0.020000 0
0.040000 0.020000 0
0.060000 0.020000 0
0.080000 0.020000 0
0.100000 0.020000 0
0.120000 0.020000 0
0.140000 0.020000 0
0.160000 0.020000 0
0.180000 0.020000 0
0.200000 0.020000 0
0.220000 0.020000 0
0.240000 0.020000 0
0.260000 0.020000 0
0.280000 0.020000 0
0.300000 0.020000 0
0.320000 0.020000 0
0.340000 0.020000 0
0.360000 0.020000 0
0.380000 0.020000 0
0.400000 0.020000 0
0.420000 0.020000 0
0.440000 0.020000 0
0.460000 0.020000 0
0.480000 0.020000 0
0.500000 0.020000 0
0.520000 0.020000 0
0.540000 0.020000 0
0.560000 0.020000 0
0.580000 0.020000 0
0.600000 0.020000 0
0.620000 0.020000 0
0.640000 0.020000 0
0.660000 0.020000 0
0.680000 0.020000 0
0.700000 0.020000 0
0.720000 0.020000 0
0.740000 0.020000 0
0.760000 0.020000 0
0.780000 0.020000 0
0.800000 0.020000 0
0.820000 0.020000 0
0.840000 0.020000 0
0.860000 0.020000 0
0.880000 0.020000 0
0.900000 0.020000 0
0.920000 0.020000 0
0.940000 0.020000 0
0.960000 0.020000 0
0.980000 0.020000 0
1.000000 0.020000 0
1.020000 0.020000 0
1.040000 0.020000 0
1.060000 0.020000 0
1.080000 0.020000 0
1.100000 0.020000 0
1.120000 0.020000 0
1.140000 0.020000 0
1.160000 0.020000 0
1.180000 0.020000 0
1.200000 0.020000 0
1.220000 0.020000 0
1.240000 0.020000 0
1.260000 0.020000 0
1.280000 0.020000 0
1.300000 0.020000 0
1.320000 0.020000 0
1.340000 0.020000 0
1.360000 0.020000 0
1.380000 0.020000 0
1.400000 0.020000 0
1.420000 0.020000 0
1.440000 0.020000 0
1.460000 0.020000 0
1.480000 0.020000 0
1.500000 0.020000 0
1.520000 0.020000 0
1.540000 0.020000 0
1.560000 0.020000 0
1.580000 0.020000 0
1.600000 0.020000 0
1.620000 0.020000 0
1.640000 0.020000 0
1.660000 0.020000 0
1.680000 0.020000 0
1.700000 0.020000 0
1.720000 0.020000 0
1.740000 0.020000 0
1.760000 0.020000 0
1.780000 0.020000 0
1.800000 0.020000 0
1.820000 0.020000 0
1.840000 0.020000 0
1.860000 0.020000 0
1.880000 0.020000 0
1.900000 0.020000 0
1.920000 0.020000 0
1.940000 0.020000 0
1.960000 0.020000 0
0.000000 0.040000 0
0.020000 0.040000 0
0.040000 0.040000 0
0.060000 0.040000 0
0.080000 0.040000 0
0.100000 0.040000 0
0.120000 0.040000 0
0.140000 0.040000 0
0.160000 0.040000 0
0.180000 0.040000 0
0.200000 0.040000 0
0.220000 0.040000 0
0.240000 0.040000 0
0.260000 0.040000 0
0.280000 0.040000 0
0.300000 0.040000 0
0.320000 0.040000 0
0.340000 0.040000 0
0.360000 0.040000 0
0.380000 0.040000 0
0.400000 0.040000 0
0.420000 0.040000 0
0.440000 0.040000 0
0.460000 0.040000 0
0.480000 0.040000 0
0.500000 0.040000 0
0.520000 0.040000 0
0.540000 0.040000 0
0.560000 0.040000 0
0.580000 0.040000 0
0.600000 0.040000 0
0.620000 0.040000 0
0.640000 0.040000 0
0.660000 0.040000 0
0.680000 0.040000 0
0.700000 0.040000 0
0.720000 0.040000 0
0.740000 0.040000 0
0.760000 0.040000 0
0.780000 0.040000 0
0.800000 0.040000 0
0.820000 0.040000 0
0.840000 0.040000 0
0.860000 0.040000 0
0.880000 0.040000 0
0.900000 0.040000 0
0.920000 0.040000 0
0.940000 0.040000 0
0.960000 0.040000 0
0.980000 0.040000 0
1.000000 0.040000 0
1.020000 0.040000 0
1.040000 0.040000 0
1.060000 0.040000 0
1.080000 0.040000 0
1.100000 0.040000 0
1.120000 0.040000 0
1.140000 0.040000 0
1.160000 0.040000 0
1.180000 0.040000 0
1.200000 0.040000 0
1.220000 0.040000 0
1.240000 0.040000 0
1.260000 0.040000 0
1.280000 0.040000 0
1.300000 0.040000 0
1.320000 0.040000 0
1.340000 0.040000 0
1.360000 0.040000 0
1.380000 0.040000 0
1.400000 0.040000 0
1.420000 0.040000 0
1.440000 0.040000 0
1.460000 0.040000 0
1.480000 0.040000 0
1.500000 0.040000 0
1.520000 0.040000 0
1.540000 0.040000 0
1.560000 0.040000 0
1.580000 0.040000 0
1.600000 0.040000 0
1.620000 0.040000 0
1.640000 0.040000 0
1.660000 0.040000 0
1.680000 0.040000 0
1.700000 0.040000 0
1.720000 0.040000 0
1.740000 0.040000 0
1.760000 0.040000 0
1.780000 0.040000 0
1.800000 0.040000 0
1.820000 0.040000 0
1.840000 0.040000 0
1.860000 0.040000 0
1.880000 0.040000 0
1.900000 0.040000 0
1.920000 0.040000 0
1.940000 0.040000 0
1.960000 0.040000 0
0.000000 0.060000 0
0.020000 0.060000 0
0.040000 0.060000 0
0.060000 0.060000 0
0.080000 0.060000 0
0.100000 0.060000 0
0.120000 0.060000 0
0.140000 0.060000 0
0.160000 0.060000 0
0.180000 0.060000 0
0.200000 0.060000 0
0.220000 0.060000 0
0.240000 0.060000 0
0.260000 0.060000 0
0.280000 0.060000 0
0.300000 0.060000 0
0.320000 0.060000 0
0.340000 0.060000 0
0.360000 0.060000 0
0.380000 0.060000 0
0.400000 0.060000 0
0.420000 0.060000 0
0.440000 0.060000 0
0.460000 0.060000 0
0.480000 0.060000 0
0.500000 0.060000 0
0.520000 0.060000 0
0.540000 0.060000 0
0.560000 0.060000 0
0.580000 0.060000 0
0.600000 0.060000 0
0.620000 0.060000 0
0.640000 0.060000 0
0.660000 0.060000 0
0.680000 0.060000 0
0.700000 0.060000 0
0.720000 0.060000 0
0.740000 0.060000 0
0.760000 0.060000 0
0.780000 0.060000 0
0.800000 0.060000 0
0.820000 0.060000 0
0.840000 0.060000 0
0.860000 0.060000 0
0.880000 0.060000 0
0.900000 0.060000 0
0.920000 0.060000 0
0.940000 0.060000 0
0.960000 0.060000 0
0.980000 0.060000 0
1.000000 0.060000 0
1.020000 0.060000 0
1.040000 0.060000 0
1.060000 0.060000 0
1.080000 0.060000 0
1.100000 0.060000 0
1.120000 0.060000 0
1.140000 0.060000 0
1.160000 0.060000 0
1.180000 0.060000 0
1.200000 0.060000 0
1.220000 0.060000 0
1.240000 0.060000 0
1.260000 0.060000 0
1.280000 0.060000 0
1.300000 0.060000 0
1.320000 0.060000 0
1.340000 0.060000 0
1.360000 0.060000 0
1.380000 0.060000 0
1.400000 0.060000 0
1.420000 0.060000 0
1.440000 0.060000 0
1.460000 0.060000 0
1.480000 0.060000 0
1.500000 0.060000 0
1.520000 0.060000 0
1.540000 0.060000 0
1.560000 0.060000 0
1.580000 0.060000 0
1.600000 0.060000 0
1.620000 0.060000 0
1.640000 0.060000 0
1.660000 0.060000 0
1.680000 0.060000 0
1.700000 0.060000 0
1.720000 0.060000 0
1.740000 0.060000 0
1.760000 0.060000 0
1.780000 0.060000 0
1.800000 0.060000 0
1.820000 0.060000 0
1.840000 0.060000 0
1.860000 0.060000 0
1.880000 0.060000 0
1.900000 0.060000 0
1.920000 0.060000 0
1.940000 0.060000 0
1.960000 0.060000 0
0.000000 0.080000 0
0.020000 0.080000 0
0.040000 0.080000 0
0.060000 0.080000 0
0.080000 0.080000 0
0.100000 0.080000 0
0.120000 0.080000 0
0.140000 0.080000 0
0.160000 0.080000 0
0.180000 0.080000 0
0.200000 0.080000 0
0.220000 0.080000 0
0.240000 0.080000 0
0.260000 0.080000 0
0.280000 0.080000 0
0.300000 0.080000 0
0.320000 0.080000 0
0.340000 0.080000 0
0.360000 0.080000 0
0.380000 0.080000 0
0.400000 0.080000 0
0.420000 0.080000 0
0.440000 0.080000 0
0.460000 0.080000 0
0.480000 0.080000 0
0.500000 0.080000 0
0.520000 0.080000 0
0.540000 0.080000 0
0.560000 0.080000 0
0.580000 0.080000 0
0.600000 0.080000 0
0.620000 0.080000 0
0.640000 0.080000 0
0.660000 0.080000 0
0.680000 0.080000 0
0.700000 0.080000 0
0.720000 0.080000 0
0.740000 0.080000 0
0.760000 0.080000 0
0.780000 0.080000 0
0.800000 0.080000 0
0.820000 0.080000 0
0.840000 0.080000 0
0.860000 0.080000 0
0.880000 0.080000 0
0.900000 0.080000 0
0.920000 0.080000 0
0.940000 0.080000 0
0.960000 0.080000 0
0.980000 0.080000 0
1.000000 0.080000 0
1.020000 0.080000 0
1.040000 0.080000 0
1.060000 0.080000 0
1.080000 0.080000 0
1.100000 0.080000 0
1.120000 0.080000 0
1.140000 0.080000 0
1.160000 0.080000 0
1.180000 0.080000 0
1.200000 0.080000 0
1.220000 0.080000 0
1.240000 0.080000 0
1.260000 0.080000 0
1.280000 0.080000 0
1.300000 0.080000 0
1.320000 0.080000 0
1.340000 0.080000 0
1.360000 0.080000 0
1.380000 0.080000 0
1.400000 0.080000 0
1.420000 0.080000 0
1.440000 0.080000 0
1.460000 0.080000 0
1.480000 0.080000 0
1.500000 0.080000 0
1.520000 0.080000 0
1.540000 0.080000 0
1.560000 0.080000 0
1.580000 0.080000 0
1.600000 0.080000 0
1.620000 0.080000 0
1.640000 0.080000 0
1.660000 0.080000 0
1.680000 0.080000 0
1.700000 0.080000 0
1.720000 0.080000 0
1.740000 0.080000 0
1.760000 0.080000 0
1.780000 0.080000 0
1.800000 0.080000 0
1.820000 0.080000 0
1.840000 0.080000 0
1.860000 0.080000 0
1.880000 0.080000 0
[...]
POINT_DATA 4851 

VECTORS velocity float
0.000000 0.000000 0
0.000047 0.000000 0
0.000120 0.000000 0
0.000181 0.000000 0
0.000216 0.000000 0
0.000229 0.000000 0
0.000227 0.000000 0
0.000217 0.000000 0
0.000205 0.000000 0
0.000193 0.000000 0
0.000185 0.000000 0
0.000178 0.000000 0
0.000175 0.000000 0
0.000173 0.000000 0
0.000172 0.000000 0
0.000171 0.000000 0
0.000171 0.000000 0
0.000171 0.000000 0
0.000170 0.000000 0
0.000169 0.000000 0
0.000168 0.000000 0
0.000167 0.000000 0
0.000166 0.000000 0
0.000164 0.000000 0
0.000162 0.000000 0
0.000161 0.000000 0
0.000159 0.000000 0
0.000156 0.000000 0
0.000153 0.000000 0
0.000148 0.000000 0
0.000140 0.000000 0
0.000127 0.000000 0
0.000107 0.000000 0
0.000080 0.000000 0
0.000046 0.000000 0
0.000015 0.000000 0
0.000000 0.000000 0
0.000000 0.000000 0
0.000000 0.000000 0
0.000000 0.000000 0
0.000000 0.000000 0
0.000003 0.000000 0
0.000040 0.000000 0
0.000104 0.000000 0
0.000182 0.000000 0
0.000258 0.000000 0
0.000322 0.000000 0
0.000368 0.000000 0
0.000393 0.000000 0
0.000401 0.000000 0
0.000395 0.000000 0
0.000379 0.000000 0
0.000357 0.000000 0
0.000332 0.000000 0
0.000307 0.000000 0
0.000284 0.000000 0
0.000265 0.000000 0
0.000249 0.000000 0
0.000237 0.000000 0
0.000229 0.000000 0
0.000224 0.000000 0
0.000222 0.000000 0
0.000223 0.000000 0
0.000224 0.000000 0
0.000227 0.000000 0
0.000230 0.000000 0
0.000233 0.000000 0
0.000235 0.000000 0
0.000238 0.000000 0
0.000240 0.000000 0
0.000241 0.000000 0
0.000243 0.000000 0
0.000244 0.000000 0
0.000245 0.000000 0
0.000246 0.000000 0
0.000246 0.000000 0
0.000247 0.000000 0
0.000248 0.000000 0
0.000249 0.000000 0
0.000251 0.000000 0
0.000253 0.000000 0
0.000255 0.000000 0
0.000257 0.000000 0
0.000260 0.000000 0
0.000264 0.000000 0
0.000268 0.000000 0
0.000273 0.000000 0
0.000280 0.000000 0
0.000289 0.000000 0
0.000301 0.000000 0
0.000317 0.000000 0
0.000340 0.000000 0
0.000373 0.000000 0
0.000422 0.000000 0
0.000492 0.000000 0
0.000579 0.000000 0
0.000634 0.000000 0
0.000494 0.000000 0
0.000000 0.000000 0
0.000000 -0.000048 0
0.000134 -0.000121 0
0.000344 -0.000134 0
0.000526 -0.000096 0
0.000642 -0.000049 0
0.000695 -0.000011 0
0.000702 0.000011 0
0.000683 0.000021 0
0.000653 0.000023 0
0.000622 0.000020 0
0.000597 0.000014 0
0.000579 0.000009 0
0.000567 0.000005 0
0.000560 0.000002 0
0.000557 0.000001 0
0.000555 -0.000000 0
0.000553 -0.000000 0
0.000551 0.000000 0
0.000549 0.000001 0
0.000546 0.000001 0
0.000542 0.000002 0
0.000537 0.000002 0
0.000531 0.000002 0
0.000525 0.000003 0
0.000518 0.000003 0
0.000510 0.000003 0
0.000500 0.000004 0
0.000489 0.000005 0
0.000473 0.000008 0
0.000452 0.000012 0
0.000420 0.000020 0
0.000375 0.000032 0
0.000311 0.000046 0
0.000228 0.000060 0
0.000133 0.000064 0
0.000045 0.000046 0
0.000000 0.000015 0
0.000000 0.000000 0
0.000000 0.000000 0
0.000000 0.000000 0
0.000000 -0.000003 0
0.000036 -0.000039 0
0.000171 -0.000101 0
0.000382 -0.000142 0
0.000630 -0.000154 0
0.000873 -0.000140 0
0.001081 -0.000109 0
0.001236 -0.000071 0
0.001331 -0.000033 0
0.001370 -0.000001 0
0.001363 0.000023 0
0.001322 0.000039 0
0.001259 0.000047 0
0.001184 0.000050 0
0.001106 0.000048 0
0.001033 0.000043 0
0.000968 0.000036 0
0.000914 0.000028 0
0.000873 0.000020 0
0.000843 0.000013 0
0.000824 0.000007 0
0.000815 0.000002 0
0.000813 -0.000002 0
0.000816 -0.000004 0
0.000822 -0.000005 0
0.000830 -0.000006 0
0.000838 -0.000005 0
0.000846 -0.000005 0
0.000853 -0.000004 0
0.000859 -0.000003 0
0.000864 -0.000003 0
0.000867 -0.000002 0
0.000870 -0.000002 0
0.000873 -0.000001 0
0.000875 -0.000001 0
0.000877 -0.000001 0
0.000879 -0.000002 0
0.000882 -0.000002 0
0.000885 -0.000002 0
0.000889 -0.000003 0
0.000894 -0.000004 0
0.000900 -0.000004 0
0.000907 -0.000005 0
0.000916 -0.000006 0
0.000927 -0.000008 0
0.000940 -0.000009 0
0.000957 -0.000012 0
0.000978 -0.000015 0
0.001005 -0.000020 0
0.001040 -0.000028 0
0.001086 -0.000039 0
0.001148 -0.000056 0
0.001230 -0.000082 0
0.001336 -0.000119 0
0.001458 -0.000156 0
0.001556 -0.000142 0
0.001494 0.000085 0
0.000987 0.000635 0
0.000000 0.000494 0
0.000000 -0.000135 0
0.000186 -0.000346 0
0.000483 -0.000393 0
0.000751 -0.000299 0
0.000935 -0.000170 0
0.001032 -0.000061 0
0.001061 0.000011 0
0.001047 0.000049 0
0.001013 0.000060 0
0.000974 0.000055 0
0.000940 0.000043 0
0.000914 0.000029 0
0.000896 0.000018 0
0.000885 0.000009 0
0.000879 0.000005 0
0.000875 0.000002 0
0.000871 0.000002 0
0.000867 0.000003 0
0.000862 0.000005 0
0.000855 0.000007 0
0.000847 0.000008 0
0.000837 0.000010 0
0.000826 0.000011 0
0.000813 0.000012 0
0.000799 0.000014 0
0.000782 0.000017 0
0.000762 0.000020 0
0.000738 0.000026 0
0.000706 0.000036 0
0.000664 0.000052 0
0.000607 0.000076 0
0.000531 0.000108 0
0.000431 0.000146 0
0.000311 0.000178 0
0.000179 0.000182 0
0.000062 0.000132 0
0.000000 0.000044 0
0.000000 0.000000 0
0.000000 0.000000 0
0.000000 0.000000 0
0.000000 -0.000036 0
0.000091 -0.000170 0
0.000333 -0.000345 0
0.000683 -0.000459 0
0.001081 -0.000491 0
0.001471 -0.000451 0
0.001808 -0.000362 0
0.002066 -0.000249 0
0.002236 -0.000134 0
0.002320 -0.000032 0
0.002330 0.000048 0
0.002283 0.000105 0
0.002196 0.000139 0
0.002086 0.000153 0
0.001968 0.000152 0
0.001852 0.000139 0
0.001747 0.000119 0
0.001658 0.000096 0
0.001587 0.000071 0
0.001535 0.000048 0
0.001500 0.000028 0
0.001480 0.000012 0
0.001471 -0.000000 0
0.001471 -0.000009 0
0.001477 -0.000014 0
0.001486 -0.000016 0
0.001497 -0.000016 0
0.001507 -0.000015 0
0.001516 -0.000013 0
0.001523 -0.000010 0
0.001529 -0.000008 0
0.001533 -0.000006 0
0.001536 -0.000005 0
0.001539 -0.000004 0
0.001540 -0.000004 0
0.001542 -0.000004 0
0.001544 -0.000005 0
0.001547 -0.000006 0
0.001550 -0.000007 0
0.001555 -0.000009 0
0.001561 -0.000011 0
0.001569 -0.000013 0
0.001578 -0.000016 0
0.001591 -0.000020 0
0.001606 -0.000024 0
0.001625 -0.000030 0
0.001649 -0.000037 0
0.001678 -0.000048 0
0.001715 -0.000062 0
0.001762 -0.000081 0
0.001820 -0.000108 0
0.001891 -0.000144 0
0.001973 -0.000188 0
0.002052 -0.000228 0
0.002093 -0.000220 0
0.002013 -0.000036 0
0.001656 0.000570 0
0.000869 0.001495 0
0.000000 0.000987 0
0.000000 -0.000234 0
0.000199 -0.000605 0
0.000521 -0.000699 0
0.000818 -0.000549 0
0.001030 -0.000330 0
0.001148 -0.000138 0
0.001192 -0.000004 0
0.001188 0.000069 0
0.001158 0.000095 0
0.001121 0.000092 0
0.001087 0.000074 0
0.001060 0.000053 0
0.001041 0.000033 0
0.001028 0.000019 0
0.001020 0.000011 0
0.001013 0.000007 0
0.001007 0.000007 0
0.001000 0.000009 0
0.000991 0.000012 0
0.000981 0.000016 0
0.000968 0.000019 0
0.000954 0.000022 0
0.000937 0.000026 0
0.000918 0.000029 0
0.000897 0.000034 0
0.000872 0.000040 0
0.000843 0.000048 0
0.000808 0.000061 0
0.000764 0.000081 0
0.000708 0.000111 0
0.000636 0.000153 0
0.000546 0.000207 0
0.000434 0.000266 0
0.000306 0.000312 0
0.000173 0.000313 0
0.000058 0.000224 0
0.000000 0.000076 0
0.000000 0.000000 0
0.000000 0.000000 0
0.000000 0.000000 0
0.000000 -0.000093 0
0.000131 -0.000372 0
0.000453 -0.000693 0
0.000897 -0.000890 0
0.001390 -0.000941 0
0.001867 -0.000867 0
0.002281 -0.000705 0
0.002602 -0.000499 0
0.002821 -0.000287 0
0.002939 -0.000095 0
0.002970 0.000060 0
0.002931 0.000173 0
0.002842 0.000244 0
0.002722 0.000278 0
0.002587 0.000282 0
0.002453 0.000264 0
0.002328 0.000230 0
0.002221 0.000188 0
0.002133 0.000143 0
0.002067 0.000100 0
0.002021 0.000062 0
0.001992 0.000031 0
0.001977 0.000007 0
0.001972 -0.000010 0
0.001974 -0.000020 0
0.001979 -0.000025 0
0.001987 -0.000026 0
0.001994 -0.000024 0
0.002001 -0.000021 0
0.002006 -0.000016 0
0.002009 -0.000013 0
0.002010 -0.000009 0
0.002010 -0.000007 0
0.002010 -0.000005 0
0.002009 -0.000005 0
0.002008 -0.000005 0
0.002007 -0.000006 0
0.002007 -0.000008 0
0.002008 -0.000010 0
0.002010 -0.000013 0
0.002014 -0.000017 0
0.002020 -0.000022 0
0.002028 -0.000027 0
0.002039 -0.000034 0
0.002052 -0.000042 0
0.002070 -0.000052 0
0.002091 -0.000065 0
0.002118 -0.000082 0
0.002151 -0.000104 0
0.002191 -0.000133 0
0.002236 -0.000168 0
0.002282 -0.000208 0
0.002320 -0.000242 0
0.002324 -0.000239 0
0.002246 -0.000118 0
0.001998 0.000295 0
0.001472 0.001229 0
0.000657 0.002291 0
0.000000 0.001363 0
0.000000 -0.000334 0
0.000194 -0.000868 0
0.000511 -0.001013 0
0.000805 -0.000808 0
0.001016 -0.000501 0
0.001137 -0.000224 0
0.001184 -0.000028 0
0.001185 0.000082 0
0.001160 0.000126 0
0.001128 0.000126 0
0.001097 0.000104 0
0.001072 0.000075 0
0.001053 0.000049 0
0.001039 0.000030 0
0.001029 0.000019 0
0.001019 0.000015 0
0.001009 0.000015 0
0.000998 0.000019 0
0.000986 0.000024 0
0.000971 0.000029 0
0.000954 0.000035 0
0.000935 0.000040 0
0.000913 0.000046 0
0.000889 0.000052 0
0.000862 0.000060 0
0.000831 0.000070 0
0.000795 0.000084 0
0.000753 0.000105 0
0.000703 0.000135 0
0.000641 0.000179 0
0.000566 0.000238 0
0.000475 0.000310 0
0.000370 0.000385 0
0.000254 0.000439 0
0.000139 0.000430 0
0.000045 0.000304 0
0.000000 0.000102 0
0.000000 0.000000 0
0.000000 0.000000 0
0.000000 0.000000 0
0.000000 -0.000166 0
0.000157 -0.000623 0
0.000535 -0.001112 0
0.001042 -0.001396 0
0.001593 -0.001461 0
0.002119 -0.001341 0
0.002570 -0.001097 0
0.002922 -0.000789 0
0.003164 -0.000471 0
0.003301 -0.000182 0
0.003346 0.000056 0
0.003316 0.000233 0
0.003233 0.000348 0
0.003115 0.000408 0
0.002980 0.000421 0
0.002843 0.000398 0
0.002714 0.000351 0
0.002602 0.000291 0
0.002510 0.000225 0
0.002439 0.000161 0
0.002387 0.000104 0
0.002353 0.000056 0
0.002332 0.000020 0
0.002321 -0.000005 0
0.002316 -0.000021 0
0.002315 -0.000029 0
0.002316 -0.000031 0
0.002317 -0.000028 0
0.002317 -0.000024 0
0.002315 -0.000018 0
0.002312 -0.000013 0
0.002308 -0.000008 0
0.002302 -0.000004 0
0.002297 -0.000002 0
0.002290 -0.000002 0
0.002285 -0.000002 0
0.002279 -0.000004 0
0.002275 -0.000007 0
0.002271 -0.000010 0
0.002269 -0.000015 0
0.002268 -0.000020 0
0.002269 -0.000027 0
0.002272 -0.000034 0
0.002277 -0.000044 0
0.002284 -0.000055 0
0.002294 -0.000069 0
0.002307 -0.000086 0
0.002323 -0.000107 0
0.002342 -0.000134 0
0.002363 -0.000165 0
0.002382 -0.000199 0
0.002392 -0.000228 0
0.002379 -0.000230 0
0.002313 -0.000154 0
0.002146 0.000106 0
0.001807 0.000739 0
0.001234 0.001912 0
0.000490 0.002967 0
0.000000 0.001643 0
0.000000 -0.000429 0
0.000181 -0.001117 0
0.000478 -0.001311 0
0.000750 -0.001054 0
0.000944 -0.000662 0
0.001054 -0.000306 0
0.001096 -0.000053 0
0.001096 0.000093 0
0.001074 0.000152 0
0.001046 0.000156 0
0.001018 0.000130 0
0.000995 0.000096 0
0.000977 0.000065 0
0.000962 0.000043 0
0.000949 0.000031 0
0.000936 0.000026 0
0.000922 0.000028 0
0.000906 0.000033 0
0.000889 0.000039 0
0.000870 0.000047 0
0.000848 0.000055 0
0.000825 0.000063 0
0.000799 0.000071 0
0.000771 0.000080 0
0.000740 0.000092 0
0.000705 0.000106 0
0.000666 0.000126 0
0.000621 0.000153 0
0.000570 0.000193 0
0.000511 0.000247 0
0.000441 0.000319 0
0.000361 0.000403 0
0.000273 0.000488 0
0.000181 0.000542 0
0.000095 0.000521 0
0.000029 0.000363 0
0.000000 0.000121 0
0.000000 0.000000 0
0.000000 0.000000 0
0.000000 0.000000 0
0.000000 -0.000250 0
0.000174 -0.000906 0
0.000588 -0.001578 0
0.001135 -0.001948 0
0.001717 -0.002018 0
0.002263 -0.001844 0
0.002724 -0.001508 0
0.003079 -0.001092 0
0.003322 -0.000666 0
0.003461 -0.000277 0
0.003508 0.000044 0
0.003484 0.000286 0
0.003407 0.000446 0
0.003296 0.000532 0
0.003169 0.000555 0
0.003039 0.000529 0
0.002918 0.000471 0
0.002811 0.000392 0
0.002723 0.000307 0
0.002654 0.000223 0
0.002602 0.000148 0
0.002565 0.000086 0
0.002539 0.000039 0
0.002521 0.000006 0
0.002509 -0.000015 0
0.002498 -0.000025 0
0.002489 -0.000027 0
0.002479 -0.000024 0
0.002469 -0.000019 0
0.002458 -0.000012 0
0.002446 -0.000005 0
0.002433 0.000000 0
0.002421 0.000004 0
0.002408 0.000007 0
0.002395 0.000007 0
0.002383 0.000006 0
0.002372 0.000004 0
0.002361 0.000000 0
0.002352 -0.000004 0
0.002344 -0.000010 0
0.002337 -0.000017 0
0.002331 -0.000025 0
0.002326 -0.000035 0
0.002323 -0.000046 0
0.002321 -0.000059 0
0.002320 -0.000075 0
0.002321 -0.000094 0
0.002322 -0.000117 0
0.002322 -0.000144 0
0.002321 -0.000172 0
0.002312 -0.000197 0
0.002289 -0.000205 0
0.002237 -0.000163 0
0.002128 -0.000006 0
0.001919 0.000389 0
0.001557 0.001208 0
0.001010 0.002546 0
0.000368 0.003525 0
0.000000 0.001854 0
0.000000 -0.000516 0
0.000165 -0.001346 0
0.000432 -0.001582 0
0.000674 -0.001274 0
0.000841 -0.000804 0
0.000933 -0.000377 0
0.000966 -0.000071 0
0.000962 0.000104 0
0.000940 0.000176 0
0.000914 0.000182 0
0.000889 0.000154 0
0.000867 0.000116 0
0.000849 0.000082 0
0.000832 0.000058 0
0.000815 0.000045 0
0.000798 0.000042 0
0.000779 0.000045 0
0.000759 0.000051 0
0.000737 0.000060 0
0.000713 0.000069 0
0.000688 0.000079 0
0.000661 0.000089 0
0.000632 0.000100 0
0.000601 0.000112 0
0.000568 0.000126 0
0.000532 0.000144 0
0.000493 0.000167 0
0.000451 0.000200 0
0.000404 0.000246 0
0.000352 0.000308 0
0.000294 0.000387 0
0.000232 0.000478 0
0.000168 0.000565 0
0.000105 0.000616 0
0.000051 0.000582 0
0.000014 0.000399 0
0.000000 0.000131 0
0.000000 0.000000 0
0.000000 0.000000 0
0.000000 0.000000 0
0.000000 -0.000340 0
0.000186 -0.001211 0
0.000623 -0.002072 0
0.001190 -0.002524 0
0.001782 -0.002588 0
0.002324 -0.002348 0
0.002772 -0.001913 0
0.003110 -0.001387 0
0.003336 -0.000853 0
0.003461 -0.000368 0
0.003501 0.000033 0
0.003475 0.000335 0
0.003401 0.000537 0
0.003298 0.000646 0
0.003182 0.000678 0
0.003065 0.000649 0
0.002956 0.000580 0
0.002861 0.000486 0
0.002782 0.000382 0
0.002719 0.000282 0
0.002669 0.000193 0
0.002631 0.000119 0
0.002600 0.000064 0
0.002574 0.000025 0
0.002551 0.000002 0
0.002528 -0.000009 0
0.002506 -0.000012 0
0.002484 -0.000008 0
0.002461 -0.000002 0
0.002438 0.000005 0
0.002415 0.000012 0
0.002393 0.000018 0
0.002372 0.000021 0
0.002351 0.000023 0
0.002332 0.000023 0
0.002313 0.000021 0
0.002296 0.000018 0
0.002280 0.000013 0
0.002264 0.000008 0
0.002250 0.000001 0
0.002236 -0.000007 0
0.002223 -0.000016 0
0.002211 -0.000026 0
0.002199 -0.000038 0
0.002187 -0.000052 0
0.002174 -0.000068 0
0.002161 -0.000087 0
0.002146 -0.000109 0
0.002128 -0.000132 0
0.002106 -0.000155 0
0.002076 -0.000168 0
0.002032 -0.000152 0
0.001961 -0.000068 0
0.001839 0.000165 0
0.001632 0.000677 0
0.001295 0.001648 0
0.000810 0.003101 0
0.000275 0.003977 0
0.000000 0.002012 0
0.000000 -0.000595 0
0.000147 -0.001550 0
0.000381 -0.001820 0
0.000587 -0.001464 0
0.000725 -0.000922 0
0.000795 -0.000431 0
0.000816 -0.000082 0
0.000807 0.000118 0
0.000785 0.000200 0
0.000760 0.000207 0
0.000736 0.000176 0
0.000715 0.000136 0
0.000695 0.000101 0
0.000676 0.000077 0
0.000655 0.000064 0
0.000633 0.000062 0
0.000610 0.000066 0
0.000585 0.000075 0
0.000559 0.000085 0
0.000532 0.000096 0
0.000503 0.000107 0
0.000474 0.000118 0
0.000443 0.000131 0
0.000411 0.000144 0
0.000378 0.000160 0
0.000344 0.000180 0
0.000308 0.000207 0
0.000270 0.000242 0
0.000231 0.000291 0
0.000191 0.000356 0
0.000149 0.000438 0
0.000108 0.000530 0
0.000069 0.000614 0
0.000036 0.000658 0
0.000013 0.000612 0
0.000002 0.000415 0
0.000000 0.000135 0
0.000000 0.000000 0
0.000000 0.000000 0
0.000000 0.000000 0
0.000000 -0.000436 0
0.000194 -0.001529 0
0.000643 -0.002581 0
0.001214 -0.003107 0
0.001797 -0.003152 0
0.002317 -0.002834 0
0.002734 -0.002293 0
0.003038 -0.001655 0
0.003234 -0.001017 0
0.003334 -0.000442 0
0.003358 0.000031 0
0.003324 0.000386 0
0.003250 0.000622 0
0.003154 0.000751 0
0.003049 0.000788 0
0.002945 0.000755 0
0.002851 0.000675 0
0.002768 0.000567 0
0.002699 0.000449 0
0.002642 0.000336 0
0.002594 0.000237 0
0.002552 0.000156 0
0.002513 0.000096 0
0.002476 0.000055 0
0.002439 0.000031 0
0.002402 0.000020 0
0.002365 0.000018 0
0.002328 0.000021 0
0.002291 0.000027 0
0.002257 0.000034 0
0.002224 0.000040 0
0.002193 0.000044 0
0.002164 0.000047 0
0.002137 0.000047 0
0.002111 0.000045 0
0.002088 0.000042 0
0.002065 0.000038 0
0.002044 0.000032 0
0.002024 0.000025 0
0.002005 0.000018 0
0.001986 0.000010 0
0.001967 0.000000 0
0.001948 -0.000010 0
0.001928 -0.000021 0
0.001907 -0.000034 0
0.001884 -0.000049 0
0.001859 -0.000066 0
0.001831 -0.000084 0
0.001798 -0.000104 0
0.001762 -0.000120 0
0.001720 -0.000123 0
0.001670 -0.000089 0
0.001602 0.000030 0
0.001497 0.000323 0
0.001323 0.000933 0
0.001039 0.002030 0
0.000632 0.003566 0
0.000199 0.004334 0
0.000000 0.002128 0
0.000000 -0.000664 0
0.000129 -0.001728 0
0.000329 -0.002022 0
0.000499 -0.001619 0
0.000606 -0.001013 0
0.000654 -0.000467 0
0.000662 -0.000083 0
0.000648 0.000134 0
0.000625 0.000223 0
0.000601 0.000230 0
0.000579 0.000198 0
0.000557 0.000157 0
0.000535 0.000121 0
0.000512 0.000098 0
0.000488 0.000088 0
0.000462 0.000087 0
0.000435 0.000092 0
0.000406 0.000102 0
0.000377 0.000113 0
0.000347 0.000125 0
0.000317 0.000137 0
0.000287 0.000149 0
0.000256 0.000162 0
0.000225 0.000177 0
0.000194 0.000193 0
0.000163 0.000214 0
0.000132 0.000240 0
0.000102 0.000277 0
0.000073 0.000325 0
0.000045 0.000390 0
0.000020 0.000470 0
-0.000000 0.000558 0
-0.000014 0.000636 0
-0.000020 0.000671 0
-0.000017 0.000616 0
-0.000008 0.000412 0
0.000000 0.000133 0
0.000000 0.000000 0
0.000000 0.000000 0
0.000000 0.000000 0
0.000000 -0.000534 0
0.000199 -0.001853 0
0.000650 -0.003092 0
0.001212 -0.003679 0
0.001770 -0.003691 0
0.002252 -0.003285 0
0.002626 -0.002634 0
0.002885 -0.001886 0
0.003040 -0.001148 0
0.003108 -0.000492 0
0.003110 0.000043 0
0.003064 0.000443 0
0.002987 0.000707 0
0.002894 0.000848 0
0.002796 0.000887 0
0.002703 0.000848 0
0.002619 0.000757 0
0.002546 0.000637 0
0.002483 0.000509 0
0.002426 0.000388 0
0.002374 0.000283 0
0.002323 0.000200 0
0.002272 0.000140 0
0.002220 0.000099 0
0.002166 0.000076 0
0.002113 0.000065 0
0.002061 0.000063 0
0.002010 0.000065 0
0.001963 0.000069 0
0.001919 0.000073 0
0.001879 0.000076 0
0.001842 0.000078 0
0.001809 0.000078 0
0.001779 0.000076 0
0.001751 0.000072 0
0.001725 0.000067 0
0.001701 0.000061 0
0.001678 0.000055 0
0.001656 0.000047 0
0.001634 0.000039 0
0.001612 0.000031 0
0.001590 0.000022 0
0.001567 0.000013 0
0.001543 0.000003 0
0.001516 -0.000008 0
0.001487 -0.000020 0
0.001453 -0.000033 0
0.001416 -0.000048 0
0.001376 -0.000064 0
0.001334 -0.000077 0
0.001292 -0.000076 0
0.001250 -0.000034 0
0.001205 0.000105 0
0.001137 0.000444 0
0.001015 0.001136 0
0.000797 0.002339 0
0.000473 0.003941 0
0.000136 0.004609 0
0.000000 0.002211 0
0.000000 -0.000725 0
0.000112 -0.001880 0
0.000279 -0.002189 0
0.000413 -0.001740 0
0.000490 -0.001077 0
0.000518 -0.000487 0
0.000514 -0.000076 0
0.000496 0.000154 0
0.000473 0.000246 0
0.000450 0.000253 0
0.000428 0.000220 0
0.000405 0.000179 0
0.000382 0.000145 0
0.000356 0.000124 0
0.000328 0.000115 0
0.000299 0.000115 0
0.000269 0.000122 0
0.000238 0.000132 0
0.000207 0.000143 0
0.000177 0.000155 0
0.000147 0.000167 0
0.000117 0.000179 0
0.000087 0.000192 0
0.000059 0.000206 0
0.000031 0.000222 0
0.000005 0.000242 0
-0.000019 0.000267 0
-0.000041 0.000301 0
-0.000060 0.000348 0
-0.000074 0.000409 0
-0.000083 0.000483 0
-0.000085 0.000564 0
-0.000077 0.000633 0
-0.000061 0.000660 0
-0.000038 0.000600 0
-0.000014 0.000398 0
0.000000 0.000127 0
0.000000 0.000000 0
0.000000 0.000000 0
0.000000 0.000000 0
0.000000 -0.000634 0
0.000200 -0.002178 0
0.000645 -0.003594 0
0.001186 -0.004227 0
0.001707 -0.004192 0
0.002140 -0.003690 0
0.002459 -0.002925 0
0.002666 -0.002069 0
0.002775 -0.001240 0
0.002809 -0.000513 0
0.002785 0.000075 0
0.002723 0.000510 0
0.002638 0.000793 0
0.002543 0.000941 0
0.002447 0.000978 0
0.002357 0.000932 0
0.002275 0.000832 0
0.002201 0.000704 0
0.002132 0.000569 0
0.002067 0.000445 0
0.002002 0.000340 0
0.001934 0.000258 0
0.001865 0.000200 0
0.001795 0.000161 0
0.001725 0.000138 0
0.001657 0.000126 0
0.001594 0.000121 0
0.001536 0.000119 0
0.001483 0.000119 0
0.001437 0.000118 0
0.001396 0.000117 0
0.001360 0.000114 0
0.001328 0.000110 0
0.001300 0.000105 0
0.001275 0.000099 0
0.001252 0.000092 0
0.001230 0.000085 0
0.001209 0.000077 0
0.001189 0.000070 0
0.001169 0.000062 0
0.001148 0.000054 0
0.001127 0.000046 0
0.001105 0.000038 0
0.001080 0.000030 0
0.001052 0.000022 0
0.001021 0.000014 0
0.000986 0.000005 0
0.000946 -0.000007 0
0.000905 -0.000021 0