# vtk DataFile Version 2.0
generated by CFD-lab course output (written by Tobias Neckel) 
ASCII

DATASET STRUCTURED_GRID
DIMENSIONS  99 49 1 
POINTS 4851 float

0.000000 0.000000 0
0.020000 0.000000 0
0.040000 0.000000 0
0.060000 0.000000 0
0.080000 0.000000 0
0.100000 0.000000 0
0.120000 0.000000 0
0.140000 0.000000 0
0.160000 0.000000 0
0.180000 0.000000 0
0.200000 0.000000 0
0.220000 0.000000 0
0.240000 0.000000 0
0.260000 0.000000 0
0.280000 0.000000 0
0.300000 0.000000 0
0.320000 0.000000 0
0.340000 0.000000 0
0.360000 0.000000 0
0.380000 0.000000 0
0.400000 0.000000 0
0.420000 0.000000 0
0.440000 0.000000 0
0.460000 0.000000 0
0.480000 0.000000 0
0.500000 0.000000 0
0.520000 0.000000 0
0.540000 0.000000 0
0.560000 0.000000 0
0.580000 0.000000 0
0.600000 0.000000 0
0.620000 0.000000 0
0.640000 0.000000 0
0.660000 0.000000 0
0.680000 0.000000 0
0.700000 0.000000 0
0.720000 0.000000 0
0.740000 0.000000 0
0.760000 0.000000 0
0.780000 0.000000 0
0.800000 0.000000 0
0.820000 0.000000 0
0.840000 0.000000 0
0.860000 0.000000 0
0.880000 0.000000 0
0.900000 0.000000 0
0.920000 0.000000 0
0.940000 0.000000 0
0.960000 0.000000 0
0.980000 0.000000 0
1.000000 0.000000 0
1.020000 0.000000 0
1.040000 0.000000 0
1.060000 0.000000 0
1.080000 0.000000 0
1.100000 0.000000 0
1.120000 0.000000 0
1.140000 0.000000 0
1.160000 0.000000 0
1.180000 0.000000 0
1.200000 0.000000 0
1.220000 0.000000 0
1.240000 0.000000 0
1.260000 0.000000 0
1.280000 0.000000 0
1.300000 0.000000 0
1.320000 0.000000 0
1.340000 0.000000 0
1.360000 0.000000 0
1.380000 0.000000 0
1.400000 0.000000 0
1.420000 0.000000 0
1.440000 0.000000 0
1.460000 0.000000 0
1.480000 0.000000 0
1.500000 0.000000 0
1.520000 0.000000 0
1.540000 0.000000 0
1.560000 0.000000 0
1.580000 0.000000 0
1.600000 0.000000 0
1.620000 0.000000 0
1.640000 0.000000 0
1.660000 0.000000 0
1.680000 0.000000 0
1.700000 0.000000 0
1.720000 0.000000 0
1.740000 0.000000 0
1.760000 0.000000 0
1.780000 0.000000 0
1.800000 0.000000 0
1.820000 0.000000 0
1.840000 0.000000 0
1.860000 0.000000 0
1.880000 0.000000 0
1.900000 0.000000 0
1.920000 0.000000 0
1.940000 0.000000 0
1.960000 0.000000 0
0.000000 0.020000 0
0.020000 0.020000 0
0.040000 0.020000 0
0.060000 0.020000 0
0.080000 0.020000 0
0.100000 0.020000 0
0.120000 0.020000 0
0.140000 0.020000 0
0.160000 0.020000 0
0.180000 0.020000 0
0.200000 0.020000 0
0.220000 0.020000 0
0.240000 0.020000 0
0.260000 0.020000 0
0.280000 0.020000 0
0.300000 0.020000 0
0.320000 0.020000 0
0.340000 0.020000 0
0.360000 0.020000 0
0.380000 0.020000 0
0.400000 0.020000 0
0.420000 0.020000 0
0.440000 0.020000 0
0.460000 0.020000 0
0.480000 0.020000 0
0.500000 0.020000 0
0.520000 0.020000 0
0.540000 0.020000 0
0.560000 0.020000 0
0.580000 0.020000 0
0.600000 0.020000 0
0.620000 0.020000 0
0.640000 0.020000 0
0.660000 0.020000 0
0.680000 0.020000 0
0.700000 0.020000 0
0.720000 0.020000 0
0.740000 0.020000 0
0.760000 0.020000 0
0.780000 0.020000 0
0.800000 0.020000 0
0.820000 0.020000 0
0.840000 0.020000 0
0.860000 0.020000 0
0.880000 0.020000 0
0.900000 0.020000 0
0.920000 0.020000 0
0.940000 0.020000 0
0.960000 0.020000 0
0.980000 0.020000 0
1.000000 0.020000 0
1.020000 0.020000 0
1.040000 0.020000 0
1.060000 0.020000 0
1.080000 0.020000 0
1.100000 0.020000 0
1.120000 0.020000 0
1.140000 0.020000 0
1.160000 0.020000 0
1.180000 0.020000 0
1.200000 0.020000 0
1.220000 0.020000 0
1.240000 0.020000 0
1.260000 0.020000 0
1.280000 0.020000 0
1.300000 0.020000 0
1.320000 0.020000 0
1.340000 0.020000 0
1.360000 0.020000 0
1.380000 0.020000 0
1.400000 0.020000 0
1.420000 0.020000 0
1.440000 0.020000 0
1.460000 0.020000 0
1.480000 0.020000 0
1.500000 0.020000 0
1.520000 0.020000 0
1.540000 0.020000 0
1.560000 0.020000 0
1.580000 0.020000 0
1.600000 0.020000 0
1.620000 0.020000 0
1.640000 0.020000 0
1.660000 0.020000 0
1.680000 0.020000 0
1.700000 0.020000 0
1.720000 0.020000 0
1.740000 0.020000 0
1.760000 0.020000 0
1.780000 0.020000 0
1.800000 0.020000 0
1.820000 0.020000 0
1.840000 0.020000 0
1.860000 0.020000 0
1.880000 0.020000 0
1.900000 0.020000 0
1.920000 0.020000 0
1.940000 0.020000 0
1.960000 0.020000 0
0.000000 0.040000 0
0.020000 0.040000 0
0.040000 0.040000 0
0.060000 0.040000 0
0.080000 0.040000 0
0.100000 0.040000 0
0.120000 0.040000 0
0.140000 0.040000 0
0.160000 0.040000 0
0.180000 0.040000 0
0.200000 0.040000 0
0.220000 0.040000 0
0.240000 0.040000 0
0.260000 0.040000 0
0.280000 0.040000 0
0.300000 0.040000 0
0.320000 0.040000 0
0.340000 0.040000 0
0.360000 0.040000 0
0.380000 0.040000 0
0.400000 0.040000 0
0.420000 0.040000 0
0.440000 0.040000 0
0.460000 0.040000 0
0.480000 0.040000 0
0.500000 0.040000 0
0.520000 0.040000 0
0.540000 0.040000 0
0.560000 0.040000 0
0.580000 0.040000 0
0.600000 0.040000 0
0.620000 0.040000 0
0.640000 0.040000 0
0.660000 0.040000 0
0.680000 0.040000 0
0.700000 0.040000 0
0.720000 0.040000 0
0.740000 0.040000 0
0.760000 0.040000 0
0.780000 0.040000 0
0.800000 0.040000 0
0.820000 0.040000 0
0.840000 0.040000 0
0.860000 0.040000 0
0.880000 0.040000 0
0.900000 0.040000 0
0.920000 0.040000 0
0.940000 0.040000 0
0.960000 0.040000 0
0.980000 0.040000 0
1.000000 0.040000 0
1.020000 0.040000 0
1.040000 0.040000 0
1.060000 0.040000 0
1.080000 0.040000 0
1.100000 0.040000 0
1.120000 0.040000 0
1.140000 0.040000 0
1.160000 0.040000 0
1.180000 0.040000 0
1.200000 0.040000 0
1.220000 0.040000 0
1.240000 0.040000 0
1.260000 0.040000 0
1.280000 0.040000 0
1.300000 0.040000 0
1.320000 0.040000 0
1.340000 0.040000 0
1.360000 0.040000 0
1.380000 0.040000 0
1.400000 0.040000 0
1.420000 0.040000 0
1.440000 0.040000 0
1.460000 0.040000 0
1.480000 0.040000 0
1.500000 0.040000 0
1.520000 0.040000 0
1.540000 0.040000 0
1.560000 0.040000 0
1.580000 0.040000 0
1.600000 0.040000 0
1.620000 0.040000 0
1.640000 0.040000 0
1.660000 0.040000 0
1.680000 0.040000 0
1.700000 0.040000 0
1.720000 0.040000 0
1.740000 0.040000 0
1.760000 0.040000 0
1.780000 0.040000 0
1.800000 0.040000 0
1.820000 0.040000 0
1.840000 0.040000 0
1.860000 0.040000 0
1.880000 0.040000 0
1.900000 0.040000 0
1.920000 0.040000 0
1.940000 0.040000 0
1.960000 0.040000 0
0.000000 0.060000 0
0.020000 0.060000 0
0.040000 0.060000 0
0.060000 0.060000 0
0.080000 0.060000 0
0.100000 0.060000 0
0.120000 0.060000 0
0.140000 0.060000 0
0.160000 0.060000 0
0.180000 0.060000 0
0.200000 0.060000 0
0.220000 0.060000 0
0.240000 0.060000 0
0.260000 0.060000 0
0.280000 0.060000 0
0.300000 0.060000 0
0.320000 0.060000 0
0.340000 0.060000 0
0.360000 0.060000 0
0.380000 0.060000 0
0.400000 0.060000 0
0.420000 0.060000 0
0.440000 0.060000 0
0.460000 0.060000 0
0.480000 0.060000 0
0.500000 0.060000 0
0.520000 0.060000 0
0.540000 0.060000 0
0.560000 0.060000 0
0.580000 0.060000 0
0.600000 0.060000 0
0.620000 0.060000 0
0.640000 0.060000 0
0.660000 0.060000 0
0.680000 0.060000 0
0.700000 0.060000 0
0.720000 0.060000 0
0.740000 0.060000 0
0.760000 0.060000 0
0.780000 0.060000 0
0.800000 0.060000 0
0.820000 0.060000 0
0.840000 0.060000 0
0.860000 0.060000 0
0.880000 0.060000 0
0.900000 0.060000 0
0.920000 0.060000 0
0.940000 0.060000 0
0.960000 0.060000 0
0.980000 0.060000 0
1.000000 0.060000 0
1.020000 0.060000 0
1.040000 0.060000 0
1.060000 0.060000 0
1.080000 0.060000 0
1.100000 0.060000 0
1.120000 0.060000 0
1.140000 0.060000 0
1.160000 0.060000 0
1.180000 0.060000 0
1.200000 0.060000 0
1.220000 0.060000 0
1.240000 0.060000 0
1.260000 0.060000 0
1.280000 0.060000 0
1.300000 0.060000 0
1.320000 0.060000 0
1.340000 0.060000 0
1.360000 0.060000 0
1.380000 0.060000 0
1.400000 0.060000 0
1.420000 0.060000 0
1.440000 0.060000 0
1.460000 0.060000 0
1.480000 0.060000 0
1.500000 0.060000 0
1.520000 0.060000 0
1.540000 0.060000 0
1.560000 0.060000 0
1.580000 0.060000 0
1.600000 0.060000 0
1.620000 0.060000 0
1.640000 0.060000 0
1.660000 0.060000 0
1.680000 0.060000 0
1.700000 0.060000 0
1.720000 0.060000 0
1.740000 0.060000 0
1.760000 0.060000 0
1.780000 0.060000 0
1.800000 0.060000 0
1.820000 0.060000 0
1.840000 0.060000 0
1.860000 0.060000 0
1.880000 0.060000 0
1.900000 0.060000 0
1.920000 0.060000 0
1.940000 0.060000 0
1.960000 0.060000 0
0.000000 0.080000 0
0.020000 0.080000 0
0.040000 0.080000 0
0.060000 0.080000 0
0.080000 0.080000 0
0.100000 0.080000 0
0.120000 0.080000 0
0.140000 0.080000 0
0.160000 0.080000 0
0.180000 0.080000 0
0.200000 0.080000 0
0.220000 0.080000 0
0.240000 0.080000 0
0.260000 0.080000 0
0.280000 0.080000 0
0.300000 0.080000 0
0.320000 0.080000 0
0.340000 0.080000 0
0.360000 0.080000 0
0.380000 0.080000 0
0.400000 0.080000 0
0.420000 0.080000 0
0.440000 0.080000 0
0.460000 0.080000 0
0.480000 0.080000 0
0.500000 0.080000 0
0.520000 0.080000 0
0.540000 0.080000 0
0.560000 0.080000 0
0.580000 0.080000 0
0.600000 0.080000 0
0.620000 0.080000 0
0.640000 0.080000 0
0.660000 0.080000 0
0.680000 0.080000 0
0.700000 0.080000 0
0.720000 0.080000 0
0.740000 0.080000 0
0.760000 0.080000 0
0.780000 0.080000 0
0.800000 0.080000 0
0.820000 0.080000 0
0.840000 0.080000 0
0.860000 0.080000 0
0.880000 0.080000 0
0.900000 0.080000 0
0.920000 0.080000 0
0.940000 0.080000 0
0.960000 0.080000 0
0.980000 0.080000 0
1.000000 0.080000 0
1.020000 0.080000 0
1.040000 0.080000 0
1.060000 0.080000 0
1.080000 0.080000 0
1.100000 0.080000 0
1.120000 0.080000 0
1.140000 0.080000 0
1.160000 0.080000 0
1.180000 0.080000 0
1.200000 0.080000 0
1.220000 0.080000 0
1.240000 0.080000 0
1.260000 0.080000 0
1.280000 0.080000 0
1.300000 0.080000 0
1.320000 0.080000 0
1.340000 0.080000 0
1.360000 0.080000 0
1.380000 0.080000 0
1.400000 0.080000 0
1.420000 0.080000 0
1.440000 0.080000 0
1.460000 0.080000 0
1.480000 0.080000 0
1.500000 0.080000 0
1.520000 0.080000 0
1.540000 0.080000 0
1.560000 0.080000 0
1.580000 0.080000 0
1.600000 0.080000 0
1.620000 0.080000 0
1.640000 0.080000 0
1.660000 0.080000 0
1.680000 0.080000 0
1.700000 0.080000 0
1.720000 0.080000 0
1.740000 0.080000 0
1.760000 0.080000 0
1.780000 0.080000 0
1.800000 0.080000 0
1.820000 0.080000 0
1.840000 0.080000 0
1.860000 0.080000 0
1.880000 0.080000 0
[...]
POINT_DATA 4851 

VECTORS velocity float
0.000000 0.000000 0
0.000152 0.000000 0
0.000355 0.000000 0
0.000495 0.000000 0
0.000551 0.000000 0
0.000543 0.000000 0
0.000499 0.000000 0
0.000443 0.000000 0
0.000391 0.000000 0
0.000352 0.000000 0
0.000328 0.000000 0
0.000316 0.000000 0
0.000315 0.000000 0
0.000319 0.000000 0
0.000325 0.000000 0
0.000330 0.000000 0
0.000335 0.000000 0
0.000337 0.000000 0
0.000338 0.000000 0
0.000337 0.000000 0
0.000335 0.000000 0
0.000332 0.000000 0
0.000329 0.000000 0
0.000326 0.000000 0
0.000323 0.000000 0
0.000320 0.000000 0
0.000317 0.000000 0
0.000314 0.000000 0
0.000312 0.000000 0
0.000309 0.000000 0
0.000304 0.000000 0
0.000294 0.000000 0
0.000272 0.000000 0
0.000228 0.000000 0
0.000153 0.000000 0
0.000060 0.000000 0
0.000000 0.000000 0
0.000000 0.000000 0
0.000000 0.000000 0
0.000000 0.000000 0
0.000000 0.000000 0
0.000000 0.000000 0
0.000000 0.000000 0
0.000000 0.000000 0
0.000000 0.000000 0
0.000000 0.000000 0
0.000000 0.000000 0
0.000000 0.000000 0
0.000000 0.000000 0
0.000000 0.000000 0
0.000001 0.000000 0
0.000001 0.000000 0
0.000001 0.000000 0
0.000002 0.000000 0
0.000003 0.000000 0
0.000004 0.000000 0
0.000005 0.000000 0
0.000007 0.000000 0
0.000009 0.000000 0
0.000011 0.000000 0
0.000014 0.000000 0
0.000017 0.000000 0
0.000020 0.000000 0
0.000024 0.000000 0
0.000028 0.000000 0
0.000032 0.000000 0
0.000036 0.000000 0
0.000040 0.000000 0
0.000045 0.000000 0
0.000049 0.000000 0
0.000053 0.000000 0
0.000058 0.000000 0
0.000063 0.000000 0
0.000067 0.000000 0
0.000072 0.000000 0
0.000077 0.000000 0
0.000082 0.000000 0
0.000087 0.000000 0
0.000092 0.000000 0
0.000098 0.000000 0
0.000104 0.000000 0
0.000111 0.000000 0
0.000118 0.000000 0
0.000126 0.000000 0
0.000135 0.000000 0
0.000146 0.000000 0
0.000158 0.000000 0
0.000173 0.000000 0
0.000190 0.000000 0
0.000212 0.000000 0
0.000238 0.000000 0
0.000272 0.000000 0
0.000317 0.000000 0
0.000377 0.000000 0
0.000455 0.000000 0
0.000544 0.000000 0
0.000596 0.000000 0
0.000456 0.000000 0
0.000000 0.000000 0
0.000000 -0.000152 0
0.000409 -0.000356 0
0.000979 -0.000344 0
0.001409 -0.000197 0
0.001620 -0.000049 0
0.001645 0.000051 0
0.001554 0.000099 0
0.001411 0.000107 0
0.001266 0.000090 0
0.001148 0.000063 0
0.001068 0.000035 0
0.001026 0.000012 0
0.001013 -0.000003 0
0.001018 -0.000011 0
0.001031 -0.000013 0
0.001046 -0.000011 0
0.001057 -0.000007 0
0.001063 -0.000004 0
0.001063 -0.000000 0
0.001060 0.000002 0
0.001053 0.000004 0
0.001044 0.000005 0
0.001033 0.000005 0
0.001022 0.000005 0
0.001010 0.000005 0
0.000997 0.000005 0
0.000984 0.000005 0
0.000969 0.000005 0
0.000952 0.000005 0
0.000931 0.000007 0
0.000900 0.000014 0
0.000850 0.000031 0
0.000763 0.000065 0
0.000617 0.000118 0
0.000403 0.000167 0
0.000156 0.000153 0
0.000000 0.000059 0
0.000000 0.000000 0
0.000000 0.000000 0
0.000000 0.000000 0
0.000000 0.000000 0
0.000000 0.000000 0
0.000000 0.000000 0
0.000000 0.000000 0
0.000000 0.000000 0
0.000000 0.000000 0
0.000000 0.000000 0
0.000001 0.000000 0
0.000001 0.000000 0
0.000002 -0.000000 0
0.000003 -0.000000 0
0.000004 -0.000000 0
0.000006 -0.000001 0
0.000008 -0.000001 0
0.000011 -0.000002 0
0.000015 -0.000002 0
0.000020 -0.000003 0
0.000026 -0.000003 0
0.000033 -0.000004 0
0.000042 -0.000005 0
0.000051 -0.000005 0
0.000062 -0.000006 0
0.000074 -0.000007 0
0.000087 -0.000007 0
0.000101 -0.000008 0
0.000116 -0.000008 0
0.000131 -0.000008 0
0.000146 -0.000008 0
0.000162 -0.000009 0
0.000178 -0.000009 0
0.000195 -0.000009 0
0.000211 -0.000009 0
0.000228 -0.000009 0
0.000245 -0.000009 0
0.000262 -0.000009 0
0.000280 -0.000009 0
0.000298 -0.000010 0
0.000317 -0.000010 0
0.000337 -0.000011 0
0.000358 -0.000011 0
0.000380 -0.000012 0
0.000404 -0.000014 0
0.000431 -0.000015 0
0.000460 -0.000017 0
0.000493 -0.000019 0
0.000531 -0.000023 0
0.000574 -0.000027 0
0.000624 -0.000032 0
0.000682 -0.000039 0
0.000751 -0.000048 0
0.000834 -0.000061 0
0.000934 -0.000079 0
0.001053 -0.000104 0
0.001193 -0.000137 0
0.001342 -0.000167 0
0.001456 -0.000141 0
0.001401 0.000088 0
0.000914 0.000596 0
0.000000 0.000456 0
0.000000 -0.000410 0
0.000536 -0.000981 0
0.001325 -0.001001 0
0.001968 -0.000641 0
0.002335 -0.000237 0
0.002442 0.000065 0
0.002366 0.000233 0
0.002194 0.000287 0
0.001999 0.000262 0
0.001827 0.000197 0
0.001702 0.000121 0
0.001628 0.000055 0
0.001596 0.000007 0
0.001591 -0.000019 0
0.001601 -0.000029 0
0.001615 -0.000026 0
0.001625 -0.000018 0
0.001629 -0.000007 0
0.001626 0.000002 0
0.001617 0.000010 0
0.001603 0.000015 0
0.001585 0.000018 0
0.001565 0.000021 0
0.001543 0.000023 0
0.001519 0.000024 0
0.001493 0.000025 0
0.001463 0.000027 0
0.001430 0.000030 0
0.001390 0.000037 0
0.001339 0.000051 0
0.001269 0.000080 0
0.001165 0.000137 0
0.001009 0.000232 0
0.000783 0.000359 0
0.000491 0.000460 0
0.000184 0.000402 0
0.000000 0.000155 0
0.000000 0.000000 0
0.000000 0.000000 0
0.000000 0.000000 0
0.000000 0.000000 0
0.000000 0.000000 0
0.000000 0.000000 0
0.000000 0.000000 0
0.000000 0.000000 0
0.000001 0.000000 0
0.000001 0.000000 0
0.000001 -0.000000 0
0.000002 -0.000001 0
0.000003 -0.000001 0
0.000005 -0.000002 0
0.000007 -0.000003 0
0.000011 -0.000004 0
0.000015 -0.000005 0
0.000021 -0.000007 0
0.000028 -0.000009 0
0.000037 -0.000011 0
0.000048 -0.000013 0
0.000061 -0.000015 0
0.000076 -0.000018 0
0.000094 -0.000020 0
0.000113 -0.000022 0
0.000135 -0.000025 0
0.000159 -0.000026 0
0.000184 -0.000028 0
0.000210 -0.000029 0
0.000237 -0.000030 0
0.000266 -0.000031 0
0.000295 -0.000032 0
0.000324 -0.000032 0
0.000354 -0.000033 0
0.000384 -0.000033 0
0.000415 -0.000033 0
0.000446 -0.000034 0
0.000477 -0.000035 0
0.000509 -0.000035 0
0.000542 -0.000037 0
0.000577 -0.000038 0
0.000613 -0.000040 0
0.000650 -0.000043 0
0.000691 -0.000046 0
0.000734 -0.000050 0
0.000782 -0.000055 0
0.000834 -0.000062 0
0.000891 -0.000070 0
0.000956 -0.000080 0
0.001029 -0.000092 0
0.001111 -0.000108 0
0.001206 -0.000127 0
0.001312 -0.000152 0
0.001433 -0.000182 0
0.001567 -0.000218 0
0.001708 -0.000259 0
0.001840 -0.000288 0
0.001925 -0.000263 0
0.001878 -0.000058 0
0.001550 0.000542 0
0.000809 0.001401 0
0.000000 0.000914 0
0.000000 -0.000689 0
0.000548 -0.001682 0
0.001392 -0.001777 0
0.002115 -0.001208 0
0.002563 -0.000523 0
0.002733 0.000020 0
0.002694 0.000346 0
0.002535 0.000474 0
0.002335 0.000457 0
0.002149 0.000359 0
0.002006 0.000234 0
0.001914 0.000119 0
0.001865 0.000033 0
0.001846 -0.000017 0
0.001844 -0.000037 0
0.001846 -0.000035 0
0.001846 -0.000022 0
0.001840 -0.000005 0
0.001827 0.000012 0
0.001808 0.000025 0
0.001784 0.000035 0
0.001757 0.000042 0
0.001726 0.000047 0
0.001693 0.000051 0
0.001656 0.000056 0
0.001616 0.000061 0
0.001571 0.000067 0
0.001519 0.000078 0
0.001458 0.000096 0
0.001381 0.000129 0
0.001281 0.000188 0
0.001145 0.000291 0
0.000959 0.000446 0
0.000715 0.000635 0
0.000428 0.000766 0
0.000152 0.000643 0
0.000000 0.000243 0
0.000000 0.000000 0
0.000000 0.000000 0
0.000000 0.000000 0
0.000000 0.000000 0
0.000000 0.000000 0
0.000000 0.000000 0
0.000001 0.000000 0
0.000001 0.000000 0
0.000001 0.000000 0
0.000001 -0.000000 0
0.000002 -0.000001 0
0.000003 -0.000002 0
0.000005 -0.000003 0
0.000007 -0.000004 0
0.000010 -0.000006 0
0.000015 -0.000008 0
0.000021 -0.000011 0
0.000028 -0.000014 0
0.000038 -0.000018 0
0.000050 -0.000023 0
0.000065 -0.000027 0
0.000083 -0.000032 0
0.000104 -0.000037 0
0.000128 -0.000042 0
0.000154 -0.000047 0
0.000184 -0.000052 0
0.000216 -0.000056 0
0.000250 -0.000059 0
0.000286 -0.000062 0
0.000323 -0.000064 0
0.000361 -0.000065 0
0.000401 -0.000067 0
0.000441 -0.000068 0
0.000481 -0.000068 0
0.000522 -0.000069 0
0.000564 -0.000070 0
0.000606 -0.000071 0
0.000649 -0.000073 0
0.000692 -0.000075 0
0.000737 -0.000077 0
0.000784 -0.000080 0
0.000832 -0.000084 0
0.000883 -0.000090 0
0.000937 -0.000096 0
0.000994 -0.000104 0
0.001056 -0.000114 0
0.001124 -0.000127 0
0.001198 -0.000142 0
0.001279 -0.000160 0
0.001369 -0.000182 0
0.001468 -0.000208 0
0.001577 -0.000239 0
0.001695 -0.000275 0
0.001820 -0.000315 0
0.001944 -0.000353 0
0.002053 -0.000377 0
0.002119 -0.000354 0
0.002089 -0.000205 0
0.001879 0.000235 0
0.001387 0.001158 0
0.000616 0.002146 0
0.000000 0.001265 0
0.000000 -0.000958 0
0.000517 -0.002374 0
0.001339 -0.002569 0
0.002065 -0.001813 0
0.002535 -0.000855 0
0.002737 -0.000066 0
0.002728 0.000430 0
0.002592 0.000645 0
0.002407 0.000648 0
0.002226 0.000526 0
0.002082 0.000356 0
0.001981 0.000196 0
0.001920 0.000074 0
0.001886 0.000001 0
0.001867 -0.000029 0
0.001852 -0.000029 0
0.001835 -0.000012 0
0.001812 0.000011 0
0.001784 0.000034 0
0.001751 0.000052 0
0.001714 0.000066 0
0.001675 0.000076 0
0.001633 0.000085 0
0.001587 0.000092 0
0.001538 0.000101 0
0.001485 0.000110 0
0.001426 0.000124 0
0.001360 0.000143 0
0.001284 0.000175 0
0.001193 0.000227 0
0.001081 0.000316 0
0.000938 0.000459 0
0.000758 0.000661 0
0.000541 0.000889 0
0.000305 0.001024 0
0.000100 0.000830 0
0.000000 0.000307 0
0.000000 0.000000 0
0.000000 0.000000 0
0.000000 0.000000 0
0.000000 0.000000 0
0.000000 0.000000 0
0.000000 0.000000 0
0.000001 0.000000 0
0.000001 0.000000 0
0.000001 -0.000000 0
0.000002 -0.000001 0
0.000002 -0.000002 0
0.000004 -0.000003 0
0.000006 -0.000005 0
0.000008 -0.000007 0
0.000012 -0.000010 0
0.000018 -0.000014 0
0.000025 -0.000019 0
0.000034 -0.000024 0
0.000046 -0.000030 0
0.000060 -0.000038 0
0.000078 -0.000045 0
0.000099 -0.000054 0
0.000125 -0.000062 0
0.000153 -0.000070 0
0.000186 -0.000078 0
0.000221 -0.000086 0
0.000260 -0.000092 0
0.000301 -0.000098 0
0.000344 -0.000102 0
0.000389 -0.000106 0
0.000436 -0.000109 0
0.000483 -0.000111 0
0.000531 -0.000112 0
0.000580 -0.000114 0
0.000629 -0.000115 0
0.000679 -0.000117 0
0.000730 -0.000119 0
0.000781 -0.000121 0
0.000834 -0.000124 0
0.000887 -0.000128 0
0.000943 -0.000133 0
0.001000 -0.000139 0
0.001060 -0.000147 0
0.001123 -0.000157 0
0.001190 -0.000170 0
0.001261 -0.000185 0
0.001337 -0.000203 0
0.001419 -0.000225 0
0.001508 -0.000251 0
0.001604 -0.000281 0
0.001707 -0.000316 0
0.001816 -0.000354 0
0.001928 -0.000394 0
0.002037 -0.000430 0
0.002131 -0.000452 0
0.002190 -0.000433 0
0.002182 -0.000325 0
0.002055 -0.000023 0
0.001741 0.000644 0
0.001189 0.001805 0
0.000472 0.002788 0
0.000000 0.001530 0
0.000000 -0.001207 0
0.000473 -0.003022 0
0.001237 -0.003324 0
0.001921 -0.002404 0
0.002375 -0.001195 0
0.002582 -0.000172 0
0.002591 0.000490 0
0.002477 0.000794 0
0.002312 0.000823 0
0.002147 0.000684 0
0.002009 0.000479 0
0.001907 0.000280 0
0.001837 0.000128 0
0.001789 0.000036 0
0.001751 -0.000003 0
0.001715 -0.000003 0
0.001677 0.000017 0
0.001635 0.000045 0
0.001589 0.000072 0
0.001541 0.000094 0
0.001490 0.000111 0
0.001437 0.000123 0
0.001383 0.000134 0
0.001326 0.000145 0
0.001266 0.000157 0
0.001203 0.000172 0
0.001134 0.000192 0
0.001060 0.000220 0
0.000978 0.000263 0
0.000885 0.000331 0
0.000778 0.000443 0
0.000651 0.000613 0
0.000501 0.000844 0
0.000336 0.001088 0
0.000173 0.001207 0
0.000049 0.000948 0
0.000000 0.000343 0
0.000000 0.000000 0
0.000000 0.000000 0
0.000000 0.000000 0
0.000000 0.000000 0
0.000000 0.000000 0
0.000000 0.000000 0
0.000001 0.000000 0
0.000001 -0.000000 0
0.000001 -0.000001 0
0.000002 -0.000001 0
0.000003 -0.000003 0
0.000004 -0.000005 0
0.000006 -0.000007 0
0.000009 -0.000011 0
0.000013 -0.000015 0
0.000019 -0.000021 0
0.000027 -0.000027 0
0.000037 -0.000035 0
0.000050 -0.000044 0
0.000066 -0.000055 0
0.000086 -0.000066 0
0.000110 -0.000078 0
0.000138 -0.000091 0
0.000170 -0.000103 0
0.000207 -0.000115 0
0.000248 -0.000126 0
0.000291 -0.000135 0
0.000338 -0.000143 0
0.000387 -0.000150 0
0.000438 -0.000155 0
0.000491 -0.000159 0
0.000544 -0.000162 0
0.000598 -0.000164 0
0.000653 -0.000167 0
0.000709 -0.000168 0
0.000765 -0.000171 0
0.000822 -0.000173 0
0.000879 -0.000176 0
0.000938 -0.000181 0
0.000997 -0.000186 0
0.001059 -0.000193 0
0.001122 -0.000201 0
0.001187 -0.000212 0
0.001255 -0.000226 0
0.001326 -0.000242 0
0.001401 -0.000262 0
0.001481 -0.000285 0
0.001565 -0.000313 0
0.001655 -0.000345 0
0.001749 -0.000381 0
0.001847 -0.000420 0
0.001947 -0.000460 0
0.002043 -0.000495 0
0.002128 -0.000517 0
0.002187 -0.000507 0
0.002199 -0.000429 0
0.002132 -0.000219 0
0.001940 0.000236 0
0.001575 0.001101 0
0.001019 0.002428 0
0.000374 0.003336 0
0.000000 0.001737 0
0.000000 -0.001432 0
0.000425 -0.003612 0
0.001115 -0.004017 0
0.001734 -0.002951 0
0.002148 -0.001516 0
0.002341 -0.000282 0
0.002357 0.000534 0
0.002263 0.000922 0
0.002121 0.000978 0
0.001975 0.000829 0
0.001848 0.000596 0
0.001749 0.000367 0
0.001673 0.000193 0
0.001610 0.000087 0
0.001554 0.000044 0
0.001498 0.000044 0
0.001439 0.000068 0
0.001378 0.000099 0
0.001314 0.000128 0
0.001250 0.000151 0
0.001186 0.000169 0
0.001121 0.000183 0
0.001056 0.000195 0
0.000990 0.000209 0
0.000922 0.000224 0
0.000851 0.000242 0
0.000778 0.000266 0
0.000702 0.000299 0
0.000623 0.000349 0
0.000540 0.000427 0
0.000451 0.000550 0
0.000353 0.000735 0
0.000247 0.000976 0
0.000143 0.001218 0
0.000056 0.001310 0
0.000007 0.001002 0
0.000000 0.000355 0
0.000000 0.000000 0
0.000000 0.000000 0
0.000000 0.000000 0
0.000000 0.000000 0
0.000000 0.000000 0
0.000000 0.000000 0
0.000001 0.000000 0
0.000001 -0.000000 0
0.000001 -0.000001 0
0.000002 -0.000002 0
0.000003 -0.000004 0
0.000004 -0.000006 0
0.000006 -0.000010 0
0.000009 -0.000014 0
0.000013 -0.000020 0
0.000019 -0.000027 0
0.000027 -0.000036 0
0.000037 -0.000047 0
0.000050 -0.000059 0
0.000067 -0.000073 0
0.000088 -0.000089 0
0.000114 -0.000106 0
0.000144 -0.000123 0
0.000179 -0.000139 0
0.000219 -0.000155 0
0.000263 -0.000170 0
0.000311 -0.000183 0
0.000362 -0.000193 0
0.000416 -0.000202 0
0.000471 -0.000209 0
0.000528 -0.000214 0
0.000586 -0.000218 0
0.000644 -0.000222 0
0.000704 -0.000224 0
0.000763 -0.000227 0
0.000823 -0.000229 0
0.000884 -0.000233 0
0.000945 -0.000237 0
0.001008 -0.000242 0
0.001071 -0.000248 0
0.001135 -0.000257 0
0.001201 -0.000267 0
0.001268 -0.000281 0
0.001338 -0.000297 0
0.001410 -0.000316 0
0.001486 -0.000339 0
0.001564 -0.000367 0
0.001646 -0.000399 0
0.001730 -0.000435 0
0.001818 -0.000474 0
0.001906 -0.000513 0
0.001992 -0.000550 0
0.002069 -0.000575 0
0.002130 -0.000574 0
0.002158 -0.000523 0
0.002133 -0.000378 0
0.002025 -0.000065 0
0.001797 0.000534 0
0.001417 0.001565 0
0.000883 0.003007 0
0.000307 0.003808 0
0.000000 0.001904 0
0.000000 -0.001633 0
0.000378 -0.004138 0
0.000987 -0.004634 0
0.001531 -0.003437 0
0.001892 -0.001802 0
0.002061 -0.000382 0
0.002078 0.000568 0
0.002000 0.001030 0
0.001880 0.001111 0
0.001754 0.000956 0
0.001641 0.000704 0
0.001546 0.000455 0
0.001465 0.000266 0
0.001391 0.000154 0
0.001318 0.000110 0
0.001244 0.000112 0
0.001167 0.000137 0
0.001089 0.000170 0
0.001011 0.000199 0
0.000934 0.000222 0
0.000859 0.000239 0
0.000785 0.000253 0
0.000711 0.000266 0
0.000639 0.000280 0
0.000566 0.000296 0
0.000493 0.000316 0
0.000421 0.000341 0
0.000350 0.000374 0
0.000282 0.000424 0
0.000215 0.000504 0
0.000150 0.000630 0
0.000087 0.000816 0
0.000029 0.001053 0
-0.000015 0.001279 0
-0.000034 0.001342 0
-0.000022 0.001004 0
0.000000 0.000350 0
0.000000 0.000000 0
0.000000 0.000000 0
0.000000 0.000000 0
0.000000 0.000000 0
0.000000 0.000000 0
0.000000 0.000000 0
0.000001 0.000000 0
0.000001 -0.000000 0
0.000001 -0.000001 0
0.000001 -0.000003 0
0.000002 -0.000005 0
0.000003 -0.000008 0
0.000005 -0.000012 0
0.000008 -0.000018 0
0.000012 -0.000025 0
0.000017 -0.000034 0
0.000025 -0.000045 0
0.000035 -0.000059 0
0.000048 -0.000074 0
0.000064 -0.000093 0
0.000085 -0.000113 0
0.000112 -0.000134 0
0.000143 -0.000156 0
0.000180 -0.000178 0
0.000222 -0.000199 0
0.000269 -0.000218 0
0.000320 -0.000234 0
0.000374 -0.000248 0
0.000431 -0.000258 0
0.000489 -0.000267 0
0.000549 -0.000273 0
0.000609 -0.000278 0
0.000670 -0.000282 0
0.000732 -0.000285 0
0.000794 -0.000288 0
0.000856 -0.000291 0
0.000919 -0.000295 0
0.000982 -0.000300 0
0.001046 -0.000306 0
0.001111 -0.000313 0
0.001176 -0.000323 0
0.001242 -0.000335 0
0.001309 -0.000349 0
0.001378 -0.000367 0
0.001448 -0.000389 0
0.001520 -0.000415 0
0.001594 -0.000445 0
0.001669 -0.000479 0
0.001746 -0.000517 0
0.001823 -0.000556 0
0.001899 -0.000594 0
0.001970 -0.000623 0
0.002030 -0.000633 0
0.002070 -0.000606 0
0.002075 -0.000510 0
0.002025 -0.000296 0
0.001894 0.000117 0
0.001652 0.000845 0
0.001275 0.002015 0
0.000774 0.003538 0
0.000258 0.004219 0
0.000000 0.002044 0
0.000000 -0.001811 0
0.000333 -0.004600 0
0.000861 -0.005170 0
0.001327 -0.003856 0
0.001633 -0.002047 0
0.001773 -0.000467 0
0.001786 0.000595 0
0.001722 0.001120 0
0.001623 0.001223 0
0.001517 0.001067 0
0.001418 0.000803 0
0.001328 0.000543 0
0.001243 0.000348 0
0.001159 0.000234 0
0.001073 0.000191 0
0.000985 0.000195 0
0.000894 0.000222 0
0.000804 0.000255 0
0.000715 0.000283 0
0.000630 0.000303 0
0.000547 0.000318 0
0.000468 0.000330 0
0.000390 0.000341 0
0.000315 0.000354 0
0.000242 0.000369 0
0.000172 0.000387 0
0.000106 0.000409 0
0.000045 0.000438 0
-0.000009 0.000484 0
-0.000055 0.000558 0
-0.000094 0.000678 0
-0.000123 0.000856 0
-0.000138 0.001078 0
-0.000130 0.001280 0
-0.000095 0.001317 0
-0.000040 0.000968 0
0.000000 0.000333 0
0.000000 0.000000 0
0.000000 0.000000 0
0.000000 0.000000 0
0.000000 0.000000 0
0.000000 0.000000 0
0.000000 0.000000 0
0.000000 0.000000 0
0.000001 -0.000001 0
0.000001 -0.000002 0
0.000001 -0.000003 0
0.000002 -0.000006 0
0.000003 -0.000009 0
0.000004 -0.000014 0
0.000006 -0.000021 0
0.000009 -0.000029 0
0.000014 -0.000040 0
0.000020 -0.000053 0
0.000029 -0.000070 0
0.000041 -0.000089 0
0.000057 -0.000111 0
0.000077 -0.000136 0
0.000103 -0.000163 0
0.000134 -0.000191 0
0.000172 -0.000218 0
0.000215 -0.000244 0
0.000264 -0.000268 0
0.000317 -0.000288 0
0.000373 -0.000304 0
0.000432 -0.000317 0
0.000492 -0.000327 0
0.000553 -0.000334 0
0.000615 -0.000340 0
0.000677 -0.000344 0
0.000740 -0.000348 0
0.000803 -0.000351 0
0.000866 -0.000354 0
0.000929 -0.000358 0
0.000992 -0.000363 0
0.001056 -0.000370 0
0.001119 -0.000378 0
0.001184 -0.000388 0
0.001248 -0.000401 0
0.001313 -0.000416 0
0.001378 -0.000435 0
0.001444 -0.000458 0
0.001510 -0.000485 0
0.001577 -0.000516 0
0.001645 -0.000551 0
0.001712 -0.000589 0
0.001778 -0.000627 0
0.001841 -0.000660 0
0.001899 -0.000681 0
0.001944 -0.000674 0
0.001968 -0.000619 0
0.001958 -0.000478 0
0.001894 -0.000196 0
0.001754 0.000309 0
0.001511 0.001153 0
0.001149 0.002443 0
0.000684 0.004024 0
0.000221 0.004582 0
0.000000 0.002162 0
0.000000 -0.001966 0
0.000290 -0.005000 0
0.000742 -0.005628 0
0.001133 -0.004209 0
0.001385 -0.002248 0
0.001498 -0.000536 0
0.001507 0.000619 0
0.001454 0.001194 0
0.001374 0.001316 0
0.001286 0.001161 0
0.001199 0.000893 0
0.001113 0.000630 0
0.001027 0.000434 0
0.000937 0.000323 0
0.000842 0.000284 0
0.000744 0.000291 0
0.000644 0.000318 0
0.000547 0.000349 0
0.000453 0.000373 0
0.000363 0.000390 0
0.000278 0.000401 0
0.000197 0.000409 0
0.000120 0.000418 0
0.000047 0.000427 0
-0.000021 0.000439 0
-0.000085 0.000452 0
-0.000142 0.000467 0
-0.000190 0.000489 0
-0.000228 0.000525 0
-0.000255 0.000589 0
-0.000270 0.000697 0
-0.000269 0.000859 0
-0.000249 0.001061 0
-0.000203 0.001236 0
-0.000131 0.001252 0
-0.000050 0.000909 0
0.000000 0.000310 0
0.000000 0.000000 0
0.000000 0.000000 0
0.000000 0.000000 0
0.000000 0.000000 0
0.000000 0.000000 0
0.000000 0.000000 0
0.000000 0.000000 0
0.000000 -0.000001 0
0.000000 -0.000002 0
0.000001 -0.000004 0
0.000001 -0.000006 0
0.000002 -0.000010 0
0.000002 -0.000016 0
0.000004 -0.000023 0
0.000006 -0.000033 0
0.000009 -0.000045 0
0.000014 -0.000060 0
0.000021 -0.000079 0
0.000031 -0.000102 0
0.000044 -0.000128 0
0.000063 -0.000158 0
0.000086 -0.000191 0
0.000117 -0.000225 0
0.000154 -0.000259 0
0.000198 -0.000291 0
0.000247 -0.000319 0
0.000301 -0.000343 0
0.000359 -0.000362 0
0.000419 -0.000377 0
0.000480 -0.000388 0
0.000542 -0.000396 0
0.000604 -0.000402 0
0.000666 -0.000407 0
0.000728 -0.000410 0
0.000790 -0.000414 0
0.000852 -0.000417 0
0.000914 -0.000421 0
0.000976 -0.000426 0
0.001038 -0.000433 0
0.001100 -0.000441 0
0.001161 -0.000451 0
0.001223 -0.000464 0
0.001283 -0.000479 0