# vtk DataFile Version 2.0
generated by CFD-lab course output (written by Tobias Neckel) 
ASCII

DATASET STRUCTURED_GRID
DIMENSIONS  99 49 1 
POINTS 4851 float

0.000000 0.000000 0
0.020000 0.000000 0
0.040000 0.000000 0
0.060000 0.000000 0
0.080000 0.000000 0
0.100000 0.000000 0
0.120000 0.000000 0
0.140000 0.000000 0
0.160000 0.000000 0
0.180000 0.000000 0
0.200000 0.000000 0
0.220000 0.000000 0
0.240000 0.000000 0
0.260000 0.000000 0
0.280000 0.000000 0
0.300000 0.000000 0
0.320000 0.000000 0
0.340000 0.000000 0
0.360000 0.000000 0
0.380000 0.000000 0
0.400000 0.000000 0
0.420000 0.000000 0
0.440000 0.000000 0
0.460000 0.000000 0
0.480000 0.000000 0
0.500000 0.000000 0
0.520000 0.000000 0
0.540000 0.000000 0
0.560000 0.000000 0
0.580000 0.000000 0
0.600000 0.000000 0
0.620000 0.000000 0
0.640000 0.000000 0
0.660000 0.000000 0
0.680000 0.000000 0
0.700000 0.000000 0
0.720000 0.000000 0
0.740000 0.000000 0
0.760000 0.000000 0
0.780000 0.000000 0
0.800000 0.000000 0
0.820000 0.000000 0
0.840000 0.000000 0
0.860000 0.000000 0
0.880000 0.000000 0
0.900000 0.000000 0
0.920000 0.000000 0
0.940000 0.000000 0
0.960000 0.000000 0
0.980000 0.000000 0
1.000000 0.000000 0
1.020000 0.000000 0
1.040000 0.000000 0
1.060000 0.000000 0
1.080000 0.000000 0
1.100000 0.000000 0
1.120000 0.000000 0
1.140000 0.000000 0
1.160000 0.000000 0
1.180000 0.000000 0
1.200000 0.000000 0
1.220000 0.000000 0
1.240000 0.000000 0
1.260000 0.000000 0
1.280000 0.000000 0
1.300000 0.000000 0
1.320000 0.000000 0
1.340000 0.000000 0
1.360000 0.000000 0
1.380000 0.000000 0
1.400000 0.000000 0
1.420000 0.000000 0
1.440000 0.000000 0
1.460000 0.000000 0
1.480000 0.000000 0
1.500000 0.000000 0
1.520000 0.000000 0
1.540000 0.000000 0
1.560000 0.000000 0
1.580000 0.000000 0
1.600000 0.000000 0
1.620000 0.000000 0
1.640000 0.000000 0
1.660000 0.000000 0
1.680000 0.000000 0
1.700000 0.000000 0
1.720000 0.000000 0
1.740000 0.000000 0
1.760000 0.000000 0
1.780000 0.000000 0
1.800000 0.000000 0
1.820000 0.000000 0
1.840000 0.000000 0
1.860000 0.000000 0
1.880000 0.000000 0
1.900000 0.000000 0
1.920000 0.000000 0
1.940000 0.000000 0
1.960000 0.000000 0
0.000000 0.020000 0
0.020000 0.020000 0
0.040000 0.020000 0
0.060000 0.020000 0
0.080000 0.020000 0
0.100000 0.020000 0
0.120000 0.020000 0
0.140000 0.020000 0
0.160000 0.020000 0
0.180000 0.020000 0
0.200000 0.020000 0
0.220000 0.020000 0
0.240000 0.020000 0
0.260000 0.020000 0
0.280000 0.020000 0
0.300000 0.020000 0
0.320000 0.020000 0
0.340000 0.020000 0
0.360000 0.020000 0
0.380000 0.020000 0
0.400000 0.020000 0
0.420000 0.020000 0
0.440000 0.020000 0
0.460000 0.020000 0
0.480000 0.020000 0
0.500000 0.020000 0
0.520000 0.020000 0
0.540000 0.020000 0
0.560000 0.020000 0
0.580000 0.020000 0
0.600000 0.020000 0
0.620000 0.020000 0
0.640000 0.020000 0
0.660000 0.020000 0
0.680000 0.020000 0
0.700000 0.020000 0
0.720000 0.020000 0
0.740000 0.020000 0
0.760000 0.020000 0
0.780000 0.020000 0
0.800000 0.020000 0
0.820000 0.020000 0
0.840000 0.020000 0
0.860000 0.020000 0
0.880000 0.020000 0
0.900000 0.020000 0
0.920000 0.020000 0
0.940000 0.020000 0
0.960000 0.020000 0
0.980000 0.020000 0
1.000000 0.020000 0
1.020000 0.020000 0
1.040000 0.020000 0
1.060000 0.020000 0
1.080000 0.020000 0
1.100000 0.020000 0
1.120000 0.020000 0
1.140000 0.020000 0
1.160000 0.020000 0
1.180000 0.020000 0
1.200000 0.020000 0
1.220000 0.020000 0
1.240000 0.020000 0
1.260000 0.020000 0
1.280000 0.020000 0
1.300000 0.020000 0
1.320000 0.020000 0
1.340000 0.020000 0
1.360000 0.020000 0
1.380000 0.020000 0
1.400000 0.020000 0
1.420000 0.020000 0
1.440000 0.020000 0
1.460000 0.020000 0
1.480000 0.020000 0
1.500000 0.020000 0
1.520000 0.020000 0
1.540000 0.020000 0
1.560000 0.020000 0
1.580000 0.020000 0
1.600000 0.020000 0
1.620000 0.020000 0
1.640000 0.020000 0
1.660000 0.020000 0
1.680000 0.020000 0
1.700000 0.020000 0
1.720000 0.020000 0
1.740000 0.020000 0
1.760000 0.020000 0
1.780000 0.020000 0
1.800000 0.020000 0
1.820000 0.020000 0
1.840000 0.020000 0
1.860000 0.020000 0
1.880000 0.020000 0
1.900000 0.020000 0
1.920000 0.020000 0
1.940000 0.020000 0
1.960000 0.020000 0
0.000000 0.040000 0
0.020000 0.040000 0
0.040000 0.040000 0
0.060000 0.040000 0
0.080000 0.040000 0
0.100000 0.040000 0
0.120000 0.040000 0
0.140000 0.040000 0
0.160000 0.040000 0
0.180000 0.040000 0
0.200000 0.040000 0
0.220000 0.040000 0
0.240000 0.040000 0
0.260000 0.040000 0
0.280000 0.040000 0
0.300000 0.040000 0
0.320000 0.040000 0
0.340000 0.040000 0
0.360000 0.040000 0
0.380000 0.040000 0
0.400000 0.040000 0
0.420000 0.040000 0
0.440000 0.040000 0
0.460000 0.040000 0
0.480000 0.040000 0
0.500000 0.040000 0
0.520000 0.040000 0
0.540000 0.040000 0
0.560000 0.040000 0
0.580000 0.040000 0
0.600000 0.040000 0
0.620000 0.040000 0
0.640000 0.040000 0
0.660000 0.040000 0
0.680000 0.040000 0
0.700000 0.040000 0
0.720000 0.040000 0
0.740000 0.040000 0
0.760000 0.040000 0
0.780000 0.040000 0
0.800000 0.040000 0
0.820000 0.040000 0
0.840000 0.040000 0
0.860000 0.040000 0
0.880000 0.040000 0
0.900000 0.040000 0
0.920000 0.040000 0
0.940000 0.040000 0
0.960000 0.040000 0
0.980000 0.040000 0
1.000000 0.040000 0
1.020000 0.040000 0
1.040000 0.040000 0
1.060000 0.040000 0
1.080000 0.040000 0
1.100000 0.040000 0
1.120000 0.040000 0
1.140000 0.040000 0
1.160000 0.040000 0
1.180000 0.040000 0
1.200000 0.040000 0
1.220000 0.040000 0
1.240000 0.040000 0
1.260000 0.040000 0
1.280000 0.040000 0
1.300000 0.040000 0
1.320000 0.040000 0
1.340000 0.040000 0
1.360000 0.040000 0
1.380000 0.040000 0
1.400000 0.040000 0
1.420000 0.040000 0
1.440000 0.040000 0
1.460000 0.040000 0
1.480000 0.040000 0
1.500000 0.040000 0
1.520000 0.040000 0
1.540000 0.040000 0
1.560000 0.040000 0
1.580000 0.040000 0
1.600000 0.040000 0
1.620000 0.040000 0
1.640000 0.040000 0
1.660000 0.040000 0
1.680000 0.040000 0
1.700000 0.040000 0
1.720000 0.040000 0
1.740000 0.040000 0
1.760000 0.040000 0
1.780000 0.040000 0
1.800000 0.040000 0
1.820000 0.040000 0
1.840000 0.040000 0
1.860000 0.040000 0
1.880000 0.040000 0
1.900000 0.040000 0
1.920000 0.040000 0
1.940000 0.040000 0
1.960000 0.040000 0
0.000000 0.060000 0
0.020000 0.060000 0
0.040000 0.060000 0
0.060000 0.060000 0
0.080000 0.060000 0
0.100000 0.060000 0
0.120000 0.060000 0
0.140000 0.060000 0
0.160000 0.060000 0
0.180000 0.060000 0
0.200000 0.060000 0
0.220000 0.060000 0
0.240000 0.060000 0
0.260000 0.060000 0
0.280000 0.060000 0
0.300000 0.060000 0
0.320000 0.060000 0
0.340000 0.060000 0
0.360000 0.060000 0
0.380000 0.060000 0
0.400000 0.060000 0
0.420000 0.060000 0
0.440000 0.060000 0
0.460000 0.060000 0
0.480000 0.060000 0
0.500000 0.060000 0
0.520000 0.060000 0
0.540000 0.060000 0
0.560000 0.060000 0
0.580000 0.060000 0
0.600000 0.060000 0
0.620000 0.060000 0
0.640000 0.060000 0
0.660000 0.060000 0
0.680000 0.060000 0
0.700000 0.060000 0
0.720000 0.060000 0
0.740000 0.060000 0
0.760000 0.060000 0
0.780000 0.060000 0
0.800000 0.060000 0
0.820000 0.060000 0
0.840000 0.060000 0
0.860000 0.060000 0
0.880000 0.060000 0
0.900000 0.060000 0
0.920000 0.060000 0
0.940000 0.060000 0
0.960000 0.060000 0
0.980000 0.060000 0
1.000000 0.060000 0
1.020000 0.060000 0
1.040000 0.060000 0
1.060000 0.060000 0
1.080000 0.060000 0
1.100000 0.060000 0
1.120000 0.060000 0
1.140000 0.060000 0
1.160000 0.060000 0
1.180000 0.060000 0
1.200000 0.060000 0
1.220000 0.060000 0
1.240000 0.060000 0
1.260000 0.060000 0
1.280000 0.060000 0
1.300000 0.060000 0
1.320000 0.060000 0
1.340000 0.060000 0
1.360000 0.060000 0
1.380000 0.060000 0
1.400000 0.060000 0
1.420000 0.060000 0
1.440000 0.060000 0
1.460000 0.060000 0
1.480000 0.060000 0
1.500000 0.060000 0
1.520000 0.060000 0
1.540000 0.060000 0
1.560000 0.060000 0
1.580000 0.060000 0
1.600000 0.060000 0
1.620000 0.060000 0
1.640000 0.060000 0
1.660000 0.060000 0
1.680000 0.060000 0
1.700000 0.060000 0
1.720000 0.060000 0
1.740000 0.060000 0
1.760000 0.060000 0
1.780000 0.060000 0
1.800000 0.060000 0
1.820000 0.060000 0
1.840000 0.060000 0
1.860000 0.060000 0
1.880000 0.060000 0
1.900000 0.060000 0
1.920000 0.060000 0
1.940000 0.060000 0
1.960000 0.060000 0
0.000000 0.080000 0
0.020000 0.080000 0
0.040000 0.080000 0
0.060000 0.080000 0
0.080000 0.080000 0
0.100000 0.080000 0
0.120000 0.080000 0
0.140000 0.080000 0
0.160000 0.080000 0
0.180000 0.080000 0
0.200000 0.080000 0
0.220000 0.080000 0
0.240000 0.080000 0
0.260000 0.080000 0
0.280000 0.080000 0
0.300000 0.080000 0
0.320000 0.080000 0
0.340000 0.080000 0
0.360000 0.080000 0
0.380000 0.080000 0
0.400000 0.080000 0
0.420000 0.080000 0
0.440000 0.080000 0
0.460000 0.080000 0
0.480000 0.080000 0
0.500000 0.080000 0
0.520000 0.080000 0
0.540000 0.080000 0
0.560000 0.080000 0
0.580000 0.080000 0
0.600000 0.080000 0
0.620000 0.080000 0
0.640000 0.080000 0
0.660000 0.080000 0
0.680000 0.080000 0
0.700000 0.080000 0
0.720000 0.080000 0
0.740000 0.080000 0
0.760000 0.080000 0
0.780000 0.080000 0
0.800000 0.080000 0
0.820000 0.080000 0
0.840000 0.080000 0
0.860000 0.080000 0
0.880000 0.080000 0
0.900000 0.080000 0
0.920000 0.080000 0
0.940000 0.080000 0
0.960000 0.080000 0
0.980000 0.080000 0
1.000000 0.080000 0
1.020000 0.080000 0
1.040000 0.080000 0
1.060000 0.080000 0
1.080000 0.080000 0
1.100000 0.080000 0
1.120000 0.080000 0
1.140000 0.080000 0
1.160000 0.080000 0
1.180000 0.080000 0
1.200000 0.080000 0
1.220000 0.080000 0
1.240000 0.080000 0
1.260000 0.080000 0
1.280000 0.080000 0
1.300000 0.080000 0
1.320000 0.080000 0
1.340000 0.080000 0
1.360000 0.080000 0
1.380000 0.080000 0
1.400000 0.080000 0
1.420000 0.080000 0
1.440000 0.080000 0
1.460000 0.080000 0
1.480000 0.080000 0
1.500000 0.080000 0
1.520000 0.080000 0
1.540000 0.080000 0
1.560000 0.080000 0
1.580000 0.080000 0
1.600000 0.080000 0
1.620000 0.080000 0
1.640000 0.080000 0
1.660000 0.080000 0
1.680000 0.080000 0
1.700000 0.080000 0
1.720000 0.080000 0
1.740000 0.080000 0
1.760000 0.080000 0
1.780000 0.080000 0
1.800000 0.080000 0
1.820000 0.080000 0
1.840000 0.080000 0
1.860000 0.080000 0
1.880000 0.080000 0
[...]
POINT_DATA 4851 

VECTORS velocity float
0.000000 0.000000 0
0.000069 0.000000 0
0.000171 0.000000 0
0.000249 0.000000 0
0.000290 0.000000 0
0.000300 0.000000 0
0.000291 0.000000 0
0.000274 0.000000 0
0.000256 0.000000 0
0.000241 0.000000 0
0.000230 0.000000 0
0.000223 0.000000 0
0.000220 0.000000 0
0.000219 0.000000 0
0.000219 0.000000 0
0.000220 0.000000 0
0.000220 0.000000 0
0.000220 0.000000 0
0.000220 0.000000 0
0.000219 0.000000 0
0.000218 0.000000 0
0.000216 0.000000 0
0.000214 0.000000 0
0.000213 0.000000 0
0.000211 0.000000 0
0.000208 0.000000 0
0.000206 0.000000 0
0.000203 0.000000 0
0.000199 0.000000 0
0.000194 0.000000 0
0.000186 0.000000 0
0.000172 0.000000 0
0.000149 0.000000 0
0.000115 0.000000 0
0.000069 0.000000 0
0.000024 0.000000 0
0.000000 0.000000 0
0.000000 0.000000 0
0.000000 0.000000 0
0.000000 0.000000 0
0.000000 0.000000 0
-0.000027 0.000000 0
-0.000031 0.000000 0
0.000011 0.000000 0
0.000093 0.000000 0
0.000196 0.000000 0
0.000300 0.000000 0
0.000390 0.000000 0
0.000459 0.000000 0
0.000504 0.000000 0
0.000527 0.000000 0
0.000533 0.000000 0
0.000525 0.000000 0
0.000509 0.000000 0
0.000488 0.000000 0
0.000465 0.000000 0
0.000444 0.000000 0
0.000424 0.000000 0
0.000408 0.000000 0
0.000395 0.000000 0
0.000385 0.000000 0
0.000379 0.000000 0
0.000376 0.000000 0
0.000375 0.000000 0
0.000376 0.000000 0
0.000377 0.000000 0
0.000380 0.000000 0
0.000382 0.000000 0
0.000384 0.000000 0
0.000386 0.000000 0
0.000387 0.000000 0
0.000386 0.000000 0
0.000385 0.000000 0
0.000384 0.000000 0
0.000381 0.000000 0
0.000379 0.000000 0
0.000376 0.000000 0
0.000374 0.000000 0
0.000371 0.000000 0
0.000369 0.000000 0
0.000368 0.000000 0
0.000367 0.000000 0
0.000366 0.000000 0
0.000364 0.000000 0
0.000363 0.000000 0
0.000361 0.000000 0
0.000359 0.000000 0
0.000357 0.000000 0
0.000356 0.000000 0
0.000356 0.000000 0
0.000360 0.000000 0
0.000370 0.000000 0
0.000389 0.000000 0
0.000425 0.000000 0
0.000480 0.000000 0
0.000553 0.000000 0
0.000595 0.000000 0
0.000453 0.000000 0
0.000000 0.000000 0
0.000000 -0.000070 0
0.000193 -0.000172 0
0.000481 -0.000180 0
0.000717 -0.000119 0
0.000856 -0.000052 0
0.000907 -0.000002 0
0.000899 0.000025 0
0.000862 0.000034 0
0.000815 0.000033 0
0.000773 0.000025 0
0.000742 0.000017 0
0.000722 0.000009 0
0.000712 0.000003 0
0.000708 0.000000 0
0.000708 -0.000001 0
0.000708 -0.000001 0
0.000708 -0.000001 0
0.000708 -0.000000 0
0.000705 0.000001 0
0.000702 0.000001 0
0.000697 0.000002 0
0.000691 0.000002 0
0.000684 0.000003 0
0.000677 0.000003 0
0.000668 0.000003 0
0.000658 0.000004 0
0.000647 0.000005 0
0.000633 0.000006 0
0.000616 0.000008 0
0.000592 0.000013 0
0.000557 0.000022 0
0.000505 0.000036 0
0.000428 0.000057 0
0.000322 0.000079 0
0.000193 0.000090 0
0.000068 0.000069 0
0.000000 0.000023 0
0.000000 0.000000 0
0.000000 0.000000 0
0.000000 0.000000 0
0.000000 0.000027 0
-0.000035 0.000032 0
0.000008 -0.000038 0
0.000174 -0.000124 0
0.000439 -0.000185 0
0.000755 -0.000206 0
0.001071 -0.000194 0
0.001349 -0.000159 0
0.001567 -0.000114 0
0.001717 -0.000068 0
0.001802 -0.000029 0
0.001832 0.000002 0
0.001819 0.000024 0
0.001776 0.000037 0
0.001716 0.000044 0
0.001647 0.000045 0
0.001578 0.000042 0
0.001513 0.000036 0
0.001458 0.000030 0
0.001413 0.000022 0
0.001378 0.000016 0
0.001354 0.000009 0
0.001340 0.000004 0
0.001333 0.000000 0
0.001332 -0.000003 0
0.001335 -0.000004 0
0.001340 -0.000005 0
0.001345 -0.000005 0
0.001350 -0.000004 0
0.001354 -0.000002 0
0.001355 -0.000001 0
0.001353 0.000001 0
0.001349 0.000003 0
0.001343 0.000004 0
0.001335 0.000005 0
0.001326 0.000005 0
0.001317 0.000005 0
0.001307 0.000005 0
0.001299 0.000004 0
0.001291 0.000003 0
0.001285 0.000003 0
0.001279 0.000002 0
0.001274 0.000002 0
0.001269 0.000003 0
0.001264 0.000003 0
0.001258 0.000004 0
0.001251 0.000004 0
0.001244 0.000003 0
0.001239 0.000001 0
0.001239 -0.000004 0
0.001246 -0.000013 0
0.001266 -0.000029 0
0.001305 -0.000055 0
0.001367 -0.000091 0
0.001446 -0.000128 0
0.001505 -0.000115 0
0.001414 0.000100 0
0.000913 0.000595 0
0.000000 0.000453 0
0.000000 -0.000194 0
0.000263 -0.000483 0
0.000666 -0.000524 0
0.001014 -0.000375 0
0.001238 -0.000191 0
0.001341 -0.000045 0
0.001355 0.000044 0
0.001320 0.000083 0
0.001264 0.000087 0
0.001210 0.000072 0
0.001167 0.000050 0
0.001138 0.000029 0
0.001122 0.000013 0
0.001115 0.000004 0
0.001112 -0.000001 0
0.001111 -0.000002 0
0.001110 -0.000000 0
0.001107 0.000002 0
0.001101 0.000005 0
0.001094 0.000008 0
0.001084 0.000010 0
0.001072 0.000012 0
0.001058 0.000014 0
0.001042 0.000015 0
0.001024 0.000018 0
0.001003 0.000020 0
0.000979 0.000024 0
0.000950 0.000030 0
0.000913 0.000040 0
0.000864 0.000058 0
0.000798 0.000086 0
0.000706 0.000128 0
0.000584 0.000182 0
0.000429 0.000234 0
0.000253 0.000254 0
0.000089 0.000192 0
0.000000 0.000067 0
0.000000 0.000000 0
0.000000 0.000000 0
0.000000 0.000000 0
0.000000 0.000035 0
0.000023 -0.000008 0
0.000186 -0.000208 0
0.000507 -0.000431 0
0.000943 -0.000582 0
0.001431 -0.000632 0
0.001908 -0.000593 0
0.002328 -0.000495 0
0.002664 -0.000367 0
0.002903 -0.000235 0
0.003049 -0.000115 0
0.003112 -0.000017 0
0.003108 0.000056 0
0.003055 0.000103 0
0.002969 0.000130 0
0.002867 0.000138 0
0.002760 0.000134 0
0.002658 0.000120 0
0.002566 0.000101 0
0.002490 0.000080 0
0.002430 0.000058 0
0.002385 0.000039 0
0.002356 0.000022 0
0.002339 0.000008 0
0.002331 -0.000002 0
0.002330 -0.000008 0
0.002333 -0.000011 0
0.002337 -0.000011 0
0.002341 -0.000008 0
0.002343 -0.000004 0
0.002342 0.000000 0
0.002338 0.000005 0
0.002329 0.000010 0
0.002318 0.000014 0
0.002304 0.000017 0
0.002288 0.000018 0
0.002271 0.000019 0
0.002254 0.000018 0
0.002238 0.000016 0
0.002223 0.000014 0
0.002210 0.000012 0
0.002198 0.000011 0
0.002187 0.000010 0
0.002176 0.000011 0
0.002165 0.000012 0
0.002153 0.000013 0
0.002141 0.000013 0
0.002129 0.000012 0
0.002118 0.000006 0
0.002112 -0.000007 0
0.002112 -0.000028 0
0.002120 -0.000059 0
0.002135 -0.000101 0
0.002147 -0.000141 0
0.002122 -0.000138 0
0.001985 0.000032 0
0.001595 0.000591 0
0.000820 0.001414 0
0.000000 0.000913 0
0.000000 -0.000334 0
0.000277 -0.000839 0
0.000712 -0.000931 0
0.001097 -0.000691 0
0.001357 -0.000379 0
0.001488 -0.000120 0
0.001521 0.000046 0
0.001496 0.000125 0
0.001446 0.000142 0
0.001393 0.000122 0
0.001350 0.000088 0
0.001320 0.000054 0
0.001301 0.000027 0
0.001292 0.000010 0
0.001286 0.000002 0
0.001282 0.000000 0
0.001277 0.000003 0
0.001270 0.000008 0
0.001260 0.000013 0
0.001247 0.000019 0
0.001232 0.000023 0
0.001214 0.000028 0
0.001193 0.000032 0
0.001169 0.000037 0
0.001141 0.000042 0
0.001110 0.000049 0
0.001074 0.000058 0
0.001031 0.000072 0
0.000978 0.000094 0
0.000911 0.000128 0
0.000825 0.000179 0
0.000715 0.000249 0
0.000576 0.000334 0
0.000412 0.000410 0
0.000236 0.000430 0
0.000081 0.000321 0
0.000000 0.000112 0
0.000000 0.000000 0
0.000000 0.000000 0
0.000000 0.000000 0
0.000000 0.000005 0
0.000098 -0.000154 0
0.000394 -0.000522 0
0.000850 -0.000881 0
0.001404 -0.001108 0
0.001986 -0.001171 0
0.002538 -0.001091 0
0.003019 -0.000915 0
0.003402 -0.000689 0
0.003680 -0.000454 0
0.003853 -0.000237 0
0.003934 -0.000056 0
0.003939 0.000081 0
0.003886 0.000176 0
0.003794 0.000231 0
0.003679 0.000254 0
0.003556 0.000251 0
0.003436 0.000230 0
0.003326 0.000197 0
0.003233 0.000159 0
0.003157 0.000120 0
0.003100 0.000083 0
0.003059 0.000051 0
0.003032 0.000025 0
0.003016 0.000006 0
0.003007 -0.000006 0
0.003004 -0.000012 0
0.003003 -0.000013 0
0.003002 -0.000009 0
0.002999 -0.000003 0
0.002993 0.000005 0
0.002984 0.000014 0
0.002970 0.000023 0
0.002954 0.000030 0
0.002934 0.000035 0
0.002913 0.000038 0
0.002890 0.000039 0
0.002867 0.000038 0
0.002845 0.000035 0
0.002823 0.000032 0
0.002803 0.000028 0
0.002784 0.000026 0
0.002767 0.000024 0
0.002749 0.000025 0
0.002732 0.000026 0
0.002715 0.000028 0
0.002697 0.000028 0
0.002679 0.000026 0
0.002662 0.000018 0
0.002645 0.000003 0
0.002627 -0.000022 0
0.002606 -0.000053 0
0.002570 -0.000081 0
0.002497 -0.000078 0
0.002341 0.000033 0
0.002025 0.000413 0
0.001455 0.001265 0
0.000638 0.002190 0
0.000000 0.001273 0
0.000000 -0.000472 0
0.000267 -0.001195 0
0.000693 -0.001345 0
0.001074 -0.001020 0
0.001334 -0.000581 0
0.001470 -0.000209 0
0.001511 0.000036 0
0.001494 0.000158 0
0.001451 0.000190 0
0.001404 0.000168 0
0.001365 0.000124 0
0.001336 0.000077 0
0.001318 0.000041 0
0.001305 0.000018 0
0.001296 0.000008 0
0.001287 0.000007 0
0.001277 0.000012 0
0.001264 0.000019 0
0.001248 0.000027 0
0.001229 0.000036 0
0.001207 0.000043 0
0.001182 0.000051 0
0.001154 0.000058 0
0.001123 0.000066 0
0.001088 0.000076 0
0.001048 0.000087 0
0.001003 0.000103 0
0.000951 0.000126 0
0.000888 0.000160 0
0.000813 0.000210 0
0.000722 0.000282 0
0.000611 0.000377 0
0.000479 0.000484 0
0.000331 0.000574 0
0.000183 0.000585 0
0.000059 0.000428 0
0.000000 0.000148 0
0.000000 0.000000 0
0.000000 0.000000 0
0.000000 0.000000 0
0.000000 -0.000063 0
0.000165 -0.000401 0
0.000571 -0.000960 0
0.001133 -0.001441 0
0.001765 -0.001717 0
0.002398 -0.001766 0
0.002978 -0.001626 0
0.003470 -0.001359 0
0.003857 -0.001028 0
0.004134 -0.000685 0
0.004306 -0.000369 0
0.004385 -0.000102 0
0.004389 0.000104 0
0.004334 0.000249 0
0.004240 0.000337 0
0.004122 0.000376 0
0.003995 0.000377 0
0.003871 0.000350 0
0.003757 0.000304 0
0.003659 0.000249 0
0.003577 0.000192 0
0.003514 0.000137 0
0.003466 0.000090 0
0.003432 0.000051 0
0.003408 0.000023 0
0.003392 0.000004 0
0.003380 -0.000006 0
0.003370 -0.000008 0
0.003361 -0.000004 0
0.003350 0.000005 0
0.003337 0.000016 0
0.003321 0.000028 0
0.003303 0.000040 0
0.003281 0.000050 0
0.003257 0.000058 0
0.003230 0.000063 0
0.003203 0.000064 0
0.003175 0.000063 0
0.003148 0.000060 0
0.003121 0.000056 0
0.003095 0.000051 0
0.003069 0.000047 0
0.003045 0.000045 0
0.003022 0.000045 0
0.002999 0.000046 0
0.002976 0.000048 0
0.002953 0.000049 0
0.002930 0.000047 0
0.002905 0.000040 0
0.002877 0.000028 0
0.002841 0.000011 0
0.002790 -0.000002 0
0.002706 0.000008 0
0.002562 0.000088 0
0.002311 0.000335 0
0.001894 0.000918 0
0.001263 0.001979 0
0.000496 0.002870 0
0.000000 0.001551 0
0.000000 -0.000601 0
0.000248 -0.001532 0
0.000643 -0.001738 0
0.000997 -0.001333 0
0.001237 -0.000775 0
0.001363 -0.000297 0
0.001401 0.000022 0
0.001386 0.000185 0
0.001349 0.000231 0
0.001308 0.000208 0
0.001273 0.000156 0
0.001247 0.000100 0
0.001227 0.000057 0
0.001211 0.000031 0
0.001197 0.000019 0
0.001182 0.000019 0
0.001164 0.000026 0
0.001144 0.000037 0
0.001122 0.000048 0
0.001096 0.000059 0
0.001068 0.000070 0
0.001037 0.000080 0
0.001003 0.000091 0
0.000965 0.000103 0
0.000924 0.000116 0
0.000879 0.000133 0
0.000829 0.000155 0
0.000772 0.000186 0
0.000708 0.000230 0
0.000634 0.000294 0
0.000549 0.000381 0
0.000450 0.000492 0
0.000341 0.000613 0
0.000226 0.000706 0
0.000118 0.000702 0
0.000035 0.000504 0
0.000000 0.000171 0
0.000000 0.000000 0
0.000000 0.000000 0
0.000000 0.000000 0
0.000000 -0.000160 0
0.000211 -0.000725 0
0.000694 -0.001490 0
0.001326 -0.002075 0
0.002005 -0.002373 0
0.002659 -0.002383 0
0.003238 -0.002163 0
0.003714 -0.001794 0
0.004077 -0.001352 0
0.004329 -0.000902 0
0.004478 -0.000489 0
0.004539 -0.000139 0
0.004530 0.000132 0
0.004467 0.000325 0
0.004369 0.000444 0
0.004250 0.000498 0
0.004126 0.000502 0
0.004005 0.000468 0
0.003894 0.000410 0
0.003798 0.000339 0
0.003718 0.000265 0
0.003654 0.000195 0
0.003603 0.000133 0
0.003563 0.000084 0
0.003532 0.000047 0
0.003507 0.000022 0
0.003486 0.000009 0
0.003466 0.000006 0
0.003446 0.000011 0
0.003426 0.000021 0
0.003404 0.000034 0
0.003381 0.000049 0
0.003355 0.000063 0
0.003329 0.000076 0
0.003300 0.000085 0
0.003271 0.000092 0
0.003240 0.000094 0
0.003209 0.000093 0
0.003178 0.000090 0
0.003147 0.000085 0
0.003117 0.000080 0
0.003087 0.000075 0
0.003058 0.000072 0
0.003030 0.000071 0
0.003002 0.000072 0
0.002976 0.000074 0
0.002949 0.000075 0
0.002921 0.000074 0
0.002891 0.000071 0
0.002856 0.000066 0
0.002808 0.000065 0
0.002736 0.000082 0
0.002623 0.000147 0
0.002439 0.000317 0
0.002145 0.000701 0
0.001697 0.001460 0
0.001078 0.002663 0
0.000391 0.003453 0
0.000000 0.001769 0
0.000000 -0.000720 0
0.000224 -0.001839 0
0.000579 -0.002094 0
0.000893 -0.001615 0
0.001102 -0.000948 0
0.001208 -0.000373 0
0.001238 0.000012 0
0.001222 0.000210 0
0.001189 0.000268 0
0.001152 0.000244 0
0.001121 0.000185 0
0.001095 0.000123 0
0.001074 0.000076 0
0.001054 0.000048 0
0.001033 0.000037 0
0.001011 0.000039 0
0.000986 0.000049 0
0.000959 0.000062 0
0.000929 0.000075 0
0.000897 0.000089 0
0.000863 0.000103 0
0.000827 0.000116 0
0.000788 0.000129 0
0.000746 0.000144 0
0.000701 0.000162 0
0.000654 0.000183 0
0.000603 0.000210 0
0.000548 0.000246 0
0.000488 0.000297 0
0.000423 0.000369 0
0.000352 0.000466 0
0.000275 0.000584 0
0.000196 0.000709 0
0.000120 0.000796 0
0.000056 0.000775 0
0.000014 0.000546 0
0.000000 0.000183 0
0.000000 0.000000 0
0.000000 0.000000 0
0.000000 0.000000 0
0.000000 -0.000274 0
0.000236 -0.001095 0
0.000762 -0.002074 0
0.001430 -0.002751 0
0.002129 -0.003050 0
0.002781 -0.002999 0
0.003338 -0.002681 0
0.003780 -0.002198 0
0.004101 -0.001642 0
0.004311 -0.001086 0
0.004423 -0.000580 0
0.004455 -0.000154 0
0.004423 0.000176 0
0.004346 0.000410 0
0.004240 0.000554 0
0.004120 0.000619 0
0.003998 0.000623 0
0.003883 0.000581 0
0.003779 0.000511 0
0.003689 0.000425 0
0.003613 0.000336 0
0.003550 0.000253 0
0.003497 0.000180 0
0.003452 0.000122 0
0.003413 0.000079 0
0.003378 0.000051 0
0.003346 0.000036 0
0.003314 0.000032 0
0.003283 0.000036 0
0.003253 0.000047 0
0.003222 0.000061 0
0.003191 0.000077 0
0.003161 0.000092 0
0.003130 0.000106 0
0.003098 0.000116 0
0.003067 0.000123 0
0.003035 0.000126 0
0.003003 0.000125 0
0.002971 0.000122 0
0.002939 0.000117 0
0.002907 0.000111 0
0.002876 0.000106 0
0.002845 0.000103 0
0.002815 0.000101 0
0.002786 0.000101 0
0.002758 0.000102 0
0.002730 0.000103 0
0.002702 0.000105 0
0.002671 0.000106 0
0.002633 0.000112 0
0.002582 0.000131 0
0.002506 0.000183 0
0.002387 0.000305 0
0.002197 0.000566 0
0.001904 0.001077 0
0.001474 0.001985 0
0.000906 0.003284 0
0.000310 0.003948 0
0.000000 0.001942 0
0.000000 -0.000826 0
0.000199 -0.002112 0
0.000510 -0.002407 0
0.000778 -0.001856 0
0.000951 -0.001091 0
0.001033 -0.000432 0
0.001051 0.000008 0
0.001033 0.000234 0
0.001002 0.000301 0
0.000970 0.000276 0
0.000941 0.000212 0
0.000915 0.000147 0
0.000891 0.000098 0
0.000866 0.000071 0
0.000838 0.000062 0
0.000809 0.000067 0
0.000777 0.000078 0
0.000743 0.000093 0
0.000707 0.000109 0
0.000670 0.000125 0
0.000631 0.000140 0
0.000591 0.000156 0
0.000549 0.000171 0
0.000505 0.000189 0
0.000460 0.000208 0
0.000414 0.000232 0
0.000365 0.000261 0
0.000316 0.000301 0
0.000265 0.000355 0
0.000214 0.000430 0
0.000162 0.000529 0
0.000111 0.000648 0
0.000064 0.000768 0
0.000027 0.000845 0
0.000004 0.000807 0
-0.000003 0.000559 0
0.000000 0.000185 0
0.000000 0.000000 0
0.000000 0.000000 0
0.000000 0.000000 0
0.000000 -0.000395 0
0.000244 -0.001486 0
0.000785 -0.002684 0
0.001464 -0.003442 0
0.002158 -0.003724 0
0.002786 -0.003592 0
0.003304 -0.003162 0
0.003695 -0.002557 0
0.003963 -0.001884 0
0.004121 -0.001224 0
0.004187 -0.000632 0
0.004181 -0.000139 0
0.004121 0.000241 0
0.004024 0.000508 0
0.003907 0.000669 0
0.003783 0.000740 0
0.003663 0.000740 0
0.003551 0.000688 0
0.003453 0.000604 0
0.003367 0.000505 0
0.003294 0.000404 0
0.003230 0.000311 0
0.003173 0.000231 0
0.003121 0.000167 0
0.003073 0.000121 0
0.003026 0.000090 0
0.002982 0.000074 0
0.002939 0.000069 0
0.002897 0.000072 0
0.002858 0.000082 0
0.002821 0.000096 0
0.002785 0.000111 0
0.002751 0.000125 0
0.002719 0.000138 0
0.002688 0.000148 0
0.002658 0.000155 0
0.002628 0.000158 0
0.002599 0.000157 0
0.002569 0.000154 0
0.002539 0.000149 0
0.002510 0.000143 0
0.002480 0.000138 0
0.002452 0.000133 0
0.002424 0.000130 0
0.002397 0.000129 0
0.002371 0.000130 0
0.002345 0.000131 0
0.002320 0.000134 0
0.002293 0.000140 0
0.002262 0.000155 0
0.002219 0.000193 0
0.002154 0.000278 0
0.002051 0.000456 0
0.001885 0.000800 0
0.001625 0.001425 0
0.001243 0.002459 0
0.000746 0.003827 0
0.000242 0.004359 0
0.000000 0.002079 0
0.000000 -0.000920 0
0.000174 -0.002350 0
0.000440 -0.002673 0
0.000662 -0.002056 0
0.000797 -0.001204 0
0.000855 -0.000473 0
0.000861 0.000011 0
0.000841 0.000258 0
0.000811 0.000332 0
0.000781 0.000305 0
0.000754 0.000239 0
0.000727 0.000173 0
0.000700 0.000125 0
0.000669 0.000100 0
0.000636 0.000094 0
0.000600 0.000101 0
0.000562 0.000114 0
0.000523 0.000131 0
0.000483 0.000148 0
0.000443 0.000165 0
0.000401 0.000181 0
0.000359 0.000198 0
0.000317 0.000215 0
0.000274 0.000233 0
0.000231 0.000253 0
0.000188 0.000277 0
0.000145 0.000307 0
0.000104 0.000346 0
0.000066 0.000400 0
0.000029 0.000473 0
-0.000002 0.000569 0
-0.000028 0.000682 0
-0.000043 0.000792 0
-0.000045 0.000856 0
-0.000034 0.000805 0
-0.000015 0.000550 0
0.000000 0.000180 0
0.000000 0.000000 0
0.000000 0.000000 0
0.000000 0.000000 0
0.000000 -0.000518 0
0.000243 -0.001880 0
0.000781 -0.003294 0
0.001448 -0.004124 0
0.002115 -0.004372 0
0.002700 -0.004144 0
0.003161 -0.003590 0
0.003489 -0.002857 0
0.003693 -0.002068 0
0.003792 -0.001310 0
0.003807 -0.000640 0
0.003760 -0.000088 0
0.003667 0.000333 0
0.003547 0.000624 0
0.003415 0.000794 0
0.003283 0.000864 0
0.003158 0.000855 0
0.003046 0.000791 0
0.002947 0.000695 0
0.002861 0.000584 0
0.002784 0.000474 0
0.002714 0.000373 0
0.002648 0.000289 0
0.002586 0.000222 0
0.002526 0.000174 0
0.002469 0.000142 0
0.002414 0.000123 0
0.002363 0.000116 0
0.002316 0.000117 0
0.002272 0.000124 0
0.002233 0.000134 0
0.002198 0.000146 0
0.002167 0.000158 0
0.002139 0.000169 0
0.002113 0.000178 0
0.002088 0.000183 0
0.002065 0.000186 0
0.002042 0.000185 0
0.002019 0.000182 0
0.001996 0.000177 0
0.001973 0.000171 0
0.001951 0.000165 0
0.001928 0.000160 0
0.001906 0.000156 0
0.001885 0.000154 0
0.001865 0.000153 0
0.001846 0.000154 0
0.001828 0.000157 0
0.001810 0.000165 0
0.001791 0.000187 0
0.001767 0.000238 0
0.001728 0.000351 0
0.001659 0.000575 0
0.001536 0.000993 0
0.001330 0.001719 0
0.001015 0.002864 0
0.000598 0.004286 0
0.000183 0.004694 0
0.000000 0.002185 0
0.000000 -0.001001 0
0.000151 -0.002553 0
0.000374 -0.002895 0
0.000551 -0.002214 0
0.000652 -0.001285 0
0.000686 -0.000496 0
0.000681 0.000023 0
0.000657 0.000284 0
0.000629 0.000360 0
0.000601 0.000332 0
0.000575 0.000266 0
0.000547 0.000201 0
0.000516 0.000156 0
0.000481 0.000134 0
0.000443 0.000131 0
0.000403 0.000140 0
0.000362 0.000155 0
0.000319 0.000172 0
0.000277 0.000190 0
0.000236 0.000207 0
0.000194 0.000223 0
0.000153 0.000240 0
0.000112 0.000257 0
0.000071 0.000275 0
0.000032 0.000294 0
-0.000005 0.000317 0
-0.000039 0.000344 0
-0.000070 0.000380 0
-0.000097 0.000430 0
-0.000117 0.000497 0
-0.000130 0.000586 0
-0.000132 0.000688 0
-0.000121 0.000785 0
-0.000096 0.000836 0
-0.000060 0.000776 0
-0.000022 0.000525 0
0.000000 0.000170 0
0.000000 0.000000 0
0.000000 0.000000 0
0.000000 0.000000 0
0.000000 -0.000638 0
0.000237 -0.002267 0
0.000759 -0.003888 0
0.001397 -0.004776 0
0.002018 -0.004976 0
0.002543 -0.004638 0
0.002935 -0.003951 0
0.003191 -0.003089 0
0.003325 -0.002187 0
0.003361 -0.001338 0
0.003322 -0.000599 0
0.003229 0.000002 0
0.003101 0.000454 0
0.002953 0.000760 0
0.002800 0.000933 0
0.002651 0.000997 0
0.002514 0.000976 0
0.002390 0.000899 0
0.002280 0.000790 0
0.002182 0.000669 0
0.002093 0.000552 0
0.002010 0.000446 0
0.001932 0.000358 0
0.001859 0.000289 0
0.001791 0.000238 0
0.001727 0.000202 0
0.001670 0.000180 0
0.001618 0.000168 0
0.001574 0.000163 0
0.001536 0.000165 0
0.001504 0.000170 0
0.001478 0.000177 0
0.001456 0.000185 0
0.001438 0.000193 0
0.001423 0.000199 0
0.001409 0.000203 0
0.001397 0.000204 0
0.001386 0.000203 0
0.001375 0.000200 0
0.001364 0.000195 0
0.001352 0.000189 0
0.001340 0.000183 0
0.001328 0.000178 0
0.001316 0.000174 0
0.001303 0.000171 0
0.001292 0.000169 0
0.001281 0.000168 0
0.001274 0.000169 0
0.001270 0.000176 0
0.001270 0.000199 0
0.001272 0.000257 0
0.001268 0.000386 0
0.001246 0.000647 0
0.001180 0.001128 0
0.001040 0.001946 0