# vtk DataFile Version 2.0
generated by CFD-lab course output (written by Tobias Neckel) 
ASCII

DATASET STRUCTURED_GRID
DIMENSIONS  99 49 1 
POINTS 4851 float

0.000000 0.000000 0
0.020000 0.000000 0
0.040000 0.000000 0
0.060000 0.000000 0
0.080000 0.000000 0
0.100000 0.000000 0
0.120000 0.000000 0
0.140000 0.000000 0
0.160000 0.000000 0
0.180000 0.000000 0
0.200000 0.000000 0
0.220000 0.000000 0
0.240000 0.000000 0
0.260000 0.000000 0
0.280000 0.000000 0
0.300000 0.000000 0
0.320000 0.000000 0
0.340000 0.000000 0
0.360000 0.000000 0
0.380000 0.000000 0
0.400000 0.000000 0
0.420000 0.000000 0
0.440000 0.000000 0
0.460000 0.000000 0
0.480000 0.000000 0
0.500000 0.000000 0
0.520000 0.000000 0
0.540000 0.000000 0
0.560000 0.000000 0
0.580000 0.000000 0
0.600000 0.000000 0
0.620000 0.000000 0
0.640000 0.000000 0
0.660000 0.000000 0
0.680000 0.000000 0
0.700000 0.000000 0
0.720000 0.000000 0
0.740000 0.000000 0
0.760000 0.000000 0
0.780000 0.000000 0
0.800000 0.000000 0
0.820000 0.000000 0
0.840000 0.000000 0
0.860000 0.000000 0
0.880000 0.000000 0
0.900000 0.000000 0
0.920000 0.000000 0
0.940000 0.000000 0
0.960000 0.000000 0
0.980000 0.000000 0
1.000000 0.000000 0
1.020000 0.000000 0
1.040000 0.000000 0
1.060000 0.000000 0
1.080000 0.000000 0
1.100000 0.000000 0
1.120000 0.000000 0
1.140000 0.000000 0
1.160000 0.000000 0
1.180000 0.000000 0
1.200000 0.000000 0
1.220000 0.000000 0
1.240000 0.000000 0
1.260000 0.000000 0
1.280000 0.000000 0
1.300000 0.000000 0
1.320000 0.000000 0
1.340000 0.000000 0
1.360000 0.000000 0
1.380000 0.000000 0
1.400000 0.000000 0
1.420000 0.000000 0
1.440000 0.000000 0
1.460000 0.000000 0
1.480000 0.000000 0
1.500000 0.000000 0
1.520000 0.000000 0
1.540000 0.000000 0
1.560000 0.000000 0
1.580000 0.000000 0
1.600000 0.000000 0
1.620000 0.000000 0
1.640000 0.000000 0
1.660000 0.000000 0
1.680000 0.000000 0
1.700000 0.000000 0
1.720000 0.000000 0
1.740000 0.000000 0
1.760000 0.000000 0
1.780000 0.000000 0
1.800000 0.000000 0
1.820000 0.000000 0
1.840000 0.000000 0
1.860000 0.000000 0
1.880000 0.000000 0
1.900000 0.000000 0
1.920000 0.000000 0
1.940000 0.000000 0
1.960000 0.000000 0
0.000000 0.020000 0
0.020000 0.020000 0
0.040000 0.020000 0
0.060000 0.020000 0
0.080000 0.020000 0
0.100000 0.020000 0
0.120000 0.020000 0
0.140000 0.020000 0
0.160000 0.020000 0
0.180000 0.020000 0
0.200000 0.020000 0
0.220000 0.020000 0
0.240000 0.020000 0
0.260000 0.020000 0
0.280000 0.020000 0
0.300000 0.020000 0
0.320000 0.020000 0
0.340000 0.020000 0
0.360000 0.020000 0
0.380000 0.020000 0
0.400000 0.020000 0
0.420000 0.020000 0
0.440000 0.020000 0
0.460000 0.020000 0
0.480000 0.020000 0
0.500000 0.020000 0
0.520000 0.020000 0
0.540000 0.020000 0
0.560000 0.020000 0
0.580000 0.020000 0
0.600000 0.020000 0
0.620000 0.020000 0
0.640000 0.020000 0
0.660000 0.020000 0
0.680000 0.020000 0
0.700000 0.020000 0
0.720000 0.020000 0
0.740000 0.020000 0
0.760000 0.020000 0
0.780000 0.020000 0
0.800000 0.020000 0
0.820000 0.020000 0
0.840000 0.020000 0
0.860000 0.020000 0
0.880000 0.020000 0
0.900000 0.020000 0
0.920000 0.020000 0
0.940000 0.020000 0
0.960000 0.020000 0
0.980000 0.020000 0
1.000000 0.020000 0
1.020000 0.020000 0
1.040000 0.020000 0
1.060000 0.020000 0
1.080000 0.020000 0
1.100000 0.020000 0
1.120000 0.020000 0
1.140000 0.020000 0
1.160000 0.020000 0
1.180000 0.020000 0
1.200000 0.020000 0
1.220000 0.020000 0
1.240000 0.020000 0
1.260000 0.020000 0
1.280000 0.020000 0
1.300000 0.020000 0
1.320000 0.020000 0
1.340000 0.020000 0
1.360000 0.020000 0
1.380000 0.020000 0
1.400000 0.020000 0
1.420000 0.020000 0
1.440000 0.020000 0
1.460000 0.020000 0
1.480000 0.020000 0
1.500000 0.020000 0
1.520000 0.020000 0
1.540000 0.020000 0
1.560000 0.020000 0
1.580000 0.020000 0
1.600000 0.020000 0
1.620000 0.020000 0
1.640000 0.020000 0
1.660000 0.020000 0
1.680000 0.020000 0
1.700000 0.020000 0
1.720000 0.020000 0
1.740000 0.020000 0
1.760000 0.020000 0
1.780000 0.020000 0
1.800000 0.020000 0
1.820000 0.020000 0
1.840000 0.020000 0
1.860000 0.020000 0
1.880000 0.020000 0
1.900000 0.020000 0
1.920000 0.020000 0
1.940000 0.020000 0
1.960000 0.020000 0
0.000000 0.040000 0
0.020000 0.040000 0
0.040000 0.040000 0
0.060000 0.040000 0
0.080000 0.040000 0
0.100000 0.040000 0
0.120000 0.040000 0
0.140000 0.040000 0
0.160000 0.040000 0
0.180000 0.040000 0
0.200000 0.040000 0
0.220000 0.040000 0
0.240000 0.040000 0
0.260000 0.040000 0
0.280000 0.040000 0
0.300000 0.040000 0
0.320000 0.040000 0
0.340000 0.040000 0
0.360000 0.040000 0
0.380000 0.040000 0
0.400000 0.040000 0
0.420000 0.040000 0
0.440000 0.040000 0
0.460000 0.040000 0
0.480000 0.040000 0
0.500000 0.040000 0
0.520000 0.040000 0
0.540000 0.040000 0
0.560000 0.040000 0
0.580000 0.040000 0
0.600000 0.040000 0
0.620000 0.040000 0
0.640000 0.040000 0
0.660000 0.040000 0
0.680000 0.040000 0
0.700000 0.040000 0
0.720000 0.040000 0
0.740000 0.040000 0
0.760000 0.040000 0
0.780000 0.040000 0
0.800000 0.040000 0
0.820000 0.040000 0
0.840000 0.040000 0
0.860000 0.040000 0
0.880000 0.040000 0
0.900000 0.040000 0
0.920000 0.040000 0
0.940000 0.040000 0
0.960000 0.040000 0
0.980000 0.040000 0
1.000000 0.040000 0
1.020000 0.040000 0
1.040000 0.040000 0
1.060000 0.040000 0
1.080000 0.040000 0
1.100000 0.040000 0
1.120000 0.040000 0
1.140000 0.040000 0
1.160000 0.040000 0
1.180000 0.040000 0
1.200000 0.040000 0
1.220000 0.040000 0
1.240000 0.040000 0
1.260000 0.040000 0
1.280000 0.040000 0
1.300000 0.040000 0
1.320000 0.040000 0
1.340000 0.040000 0
1.360000 0.040000 0
1.380000 0.040000 0
1.400000 0.040000 0
1.420000 0.040000 0
1.440000 0.040000 0
1.460000 0.040000 0
1.480000 0.040000 0
1.500000 0.040000 0
1.520000 0.040000 0
1.540000 0.040000 0
1.560000 0.040000 0
1.580000 0.040000 0
1.600000 0.040000 0
1.620000 0.040000 0
1.640000 0.040000 0
1.660000 0.040000 0
1.680000 0.040000 0
1.700000 0.040000 0
1.720000 0.040000 0
1.740000 0.040000 0
1.760000 0.040000 0
1.780000 0.040000 0
1.800000 0.040000 0
1.820000 0.040000 0
1.840000 0.040000 0
1.860000 0.040000 0
1.880000 0.040000 0
1.900000 0.040000 0
1.920000 0.040000 0
1.940000 0.040000 0
1.960000 0.040000 0
0.000000 0.060000 0
0.020000 0.060000 0
0.040000 0.060000 0
0.060000 0.060000 0
0.080000 0.060000 0
0.100000 0.060000 0
0.120000 0.060000 0
0.140000 0.060000 0
0.160000 0.060000 0
0.180000 0.060000 0
0.200000 0.060000 0
0.220000 0.060000 0
0.240000 0.060000 0
0.260000 0.060000 0
0.280000 0.060000 0
0.300000 0.060000 0
0.320000 0.060000 0
0.340000 0.060000 0
0.360000 0.060000 0
0.380000 0.060000 0
0.400000 0.060000 0
0.420000 0.060000 0
0.440000 0.060000 0
0.460000 0.060000 0
0.480000 0.060000 0
0.500000 0.060000 0
0.520000 0.060000 0
0.540000 0.060000 0
0.560000 0.060000 0
0.580000 0.060000 0
0.600000 0.060000 0
0.620000 0.060000 0
0.640000 0.060000 0
0.660000 0.060000 0
0.680000 0.060000 0
0.700000 0.060000 0
0.720000 0.060000 0
0.740000 0.060000 0
0.760000 0.060000 0
0.780000 0.060000 0
0.800000 0.060000 0
0.820000 0.060000 0
0.840000 0.060000 0
0.860000 0.060000 0
0.880000 0.060000 0
0.900000 0.060000 0
0.920000 0.060000 0
0.940000 0.060000 0
0.960000 0.060000 0
0.980000 0.060000 0
1.000000 0.060000 0
1.020000 0.060000 0
1.040000 0.060000 0
1.060000 0.060000 0
1.080000 0.060000 0
1.100000 0.060000 0
1.120000 0.060000 0
1.140000 0.060000 0
1.160000 0.060000 0
1.180000 0.060000 0
1.200000 0.060000 0
1.220000 0.060000 0
1.240000 0.060000 0
1.260000 0.060000 0
1.280000 0.060000 0
1.300000 0.060000 0
1.320000 0.060000 0
1.340000 0.060000 0
1.360000 0.060000 0
1.380000 0.060000 0
1.400000 0.060000 0
1.420000 0.060000 0
1.440000 0.060000 0
1.460000 0.060000 0
1.480000 0.060000 0
1.500000 0.060000 0
1.520000 0.060000 0
1.540000 0.060000 0
1.560000 0.060000 0
1.580000 0.060000 0
1.600000 0.060000 0
1.620000 0.060000 0
1.640000 0.060000 0
1.660000 0.060000 0
1.680000 0.060000 0
1.700000 0.060000 0
1.720000 0.060000 0
1.740000 0.060000 0
1.760000 0.060000 0
1.780000 0.060000 0
1.800000 0.060000 0
1.820000 0.060000 0
1.840000 0.060000 0
1.860000 0.060000 0
1.880000 0.060000 0
1.900000 0.060000 0
1.920000 0.060000 0
1.940000 0.060000 0
1.960000 0.060000 0
0.000000 0.080000 0
0.020000 0.080000 0
0.040000 0.080000 0
0.060000 0.080000 0
0.080000 0.080000 0
0.100000 0.080000 0
0.120000 0.080000 0
0.140000 0.080000 0
0.160000 0.080000 0
0.180000 0.080000 0
0.200000 0.080000 0
0.220000 0.080000 0
0.240000 0.080000 0
0.260000 0.080000 0
0.280000 0.080000 0
0.300000 0.080000 0
0.320000 0.080000 0
0.340000 0.080000 0
0.360000 0.080000 0
0.380000 0.080000 0
0.400000 0.080000 0
0.420000 0.080000 0
0.440000 0.080000 0
0.460000 0.080000 0
0.480000 0.080000 0
0.500000 0.080000 0
0.520000 0.080000 0
0.540000 0.080000 0
0.560000 0.080000 0
0.580000 0.080000 0
0.600000 0.080000 0
0.620000 0.080000 0
0.640000 0.080000 0
0.660000 0.080000 0
0.680000 0.080000 0
0.700000 0.080000 0
0.720000 0.080000 0
0.740000 0.080000 0
0.760000 0.080000 0
0.780000 0.080000 0
0.800000 0.080000 0
0.820000 0.080000 0
0.840000 0.080000 0
0.860000 0.080000 0
0.880000 0.080000 0
0.900000 0.080000 0
0.920000 0.080000 0
0.940000 0.080000 0
0.960000 0.080000 0
0.980000 0.080000 0
1.000000 0.080000 0
1.020000 0.080000 0
1.040000 0.080000 0
1.060000 0.080000 0
1.080000 0.080000 0
1.100000 0.080000 0
1.120000 0.080000 0
1.140000 0.080000 0
1.160000 0.080000 0
1.180000 0.080000 0
1.200000 0.080000 0
1.220000 0.080000 0
1.240000 0.080000 0
1.260000 0.080000 0
1.280000 0.080000 0
1.300000 0.080000 0
1.320000 0.080000 0
1.340000 0.080000 0
1.360000 0.080000 0
1.380000 0.080000 0
1.400000 0.080000 0
1.420000 0.080000 0
1.440000 0.080000 0
1.460000 0.080000 0
1.480000 0.080000 0
1.500000 0.080000 0
1.520000 0.080000 0
1.540000 0.080000 0
1.560000 0.080000 0
1.580000 0.080000 0
1.600000 0.080000 0
1.620000 0.080000 0
1.640000 0.080000 0
1.660000 0.080000 0
1.680000 0.080000 0
1.700000 0.080000 0
1.720000 0.080000 0
1.740000 0.080000 0
1.760000 0.080000 0
1.780000 0.080000 0
1.800000 0.080000 0
1.820000 0.080000 0
1.840000 0.080000 0
1.860000 0.080000 0
1.880000 0.080000 0
[...]
POINT_DATA 4851 

VECTORS velocity float
0.000000 0.000000 0
0.000076 0.000000 0
0.000186 0.000000 0
0.000268 0.000000 0
0.000310 0.000000 0
0.000318 0.000000 0
0.000306 0.000000 0
0.000286 0.000000 0
0.000265 0.000000 0
0.000248 0.000000 0
0.000237 0.000000 0
0.000230 0.000000 0
0.000227 0.000000 0
0.000226 0.000000 0
0.000227 0.000000 0
0.000227 0.000000 0
0.000228 0.000000 0
0.000228 0.000000 0
0.000228 0.000000 0
0.000227 0.000000 0
0.000225 0.000000 0
0.000224 0.000000 0
0.000222 0.000000 0
0.000221 0.000000 0
0.000219 0.000000 0
0.000217 0.000000 0
0.000215 0.000000 0
0.000212 0.000000 0
0.000209 0.000000 0
0.000204 0.000000 0
0.000197 0.000000 0
0.000183 0.000000 0
0.000160 0.000000 0
0.000124 0.000000 0
0.000076 0.000000 0
0.000026 0.000000 0
0.000000 0.000000 0
0.000000 0.000000 0
0.000000 0.000000 0
0.000000 0.000000 0
0.000000 0.000000 0
-0.000024 0.000000 0
-0.000047 0.000000 0
-0.000043 0.000000 0
-0.000003 0.000000 0
0.000067 0.000000 0
0.000156 0.000000 0
0.000249 0.000000 0
0.000336 0.000000 0
0.000408 0.000000 0
0.000462 0.000000 0
0.000499 0.000000 0
0.000519 0.000000 0
0.000526 0.000000 0
0.000522 0.000000 0
0.000512 0.000000 0
0.000498 0.000000 0
0.000482 0.000000 0
0.000467 0.000000 0
0.000452 0.000000 0
0.000440 0.000000 0
0.000430 0.000000 0
0.000423 0.000000 0
0.000419 0.000000 0
0.000417 0.000000 0
0.000417 0.000000 0
0.000417 0.000000 0
0.000418 0.000000 0
0.000418 0.000000 0
0.000416 0.000000 0
0.000411 0.000000 0
0.000403 0.000000 0
0.000391 0.000000 0
0.000378 0.000000 0
0.000362 0.000000 0
0.000346 0.000000 0
0.000331 0.000000 0
0.000317 0.000000 0
0.000304 0.000000 0
0.000293 0.000000 0
0.000285 0.000000 0
0.000279 0.000000 0
0.000274 0.000000 0
0.000271 0.000000 0
0.000269 0.000000 0
0.000269 0.000000 0
0.000270 0.000000 0
0.000273 0.000000 0
0.000279 0.000000 0
0.000287 0.000000 0
0.000300 0.000000 0
0.000320 0.000000 0
0.000350 0.000000 0
0.000396 0.000000 0
0.000462 0.000000 0
0.000543 0.000000 0
0.000590 0.000000 0
0.000450 0.000000 0
0.000000 0.000000 0
0.000000 -0.000077 0
0.000211 -0.000187 0
0.000522 -0.000193 0
0.000771 -0.000124 0
0.000913 -0.000050 0
0.000960 0.000003 0
0.000944 0.000031 0
0.000898 0.000040 0
0.000844 0.000037 0
0.000797 0.000028 0
0.000763 0.000018 0
0.000741 0.000009 0
0.000731 0.000003 0
0.000727 -0.000001 0
0.000728 -0.000002 0
0.000729 -0.000002 0
0.000730 -0.000001 0
0.000729 -0.000000 0
0.000727 0.000001 0
0.000723 0.000001 0
0.000718 0.000002 0
0.000713 0.000002 0
0.000706 0.000003 0
0.000699 0.000003 0
0.000691 0.000003 0
0.000681 0.000003 0
0.000671 0.000004 0
0.000658 0.000005 0
0.000642 0.000007 0
0.000620 0.000012 0
0.000586 0.000020 0
0.000535 0.000036 0
0.000457 0.000058 0
0.000347 0.000083 0
0.000210 0.000097 0
0.000075 0.000075 0
0.000000 0.000026 0
0.000000 0.000000 0
0.000000 0.000000 0
0.000000 0.000000 0
0.000000 0.000024 0
-0.000050 0.000047 0
-0.000081 0.000019 0
-0.000030 -0.000044 0
0.000120 -0.000111 0
0.000352 -0.000159 0
0.000631 -0.000182 0
0.000920 -0.000180 0
0.001188 -0.000159 0
0.001415 -0.000127 0
0.001591 -0.000091 0
0.001714 -0.000056 0
0.001786 -0.000027 0
0.001818 -0.000003 0
0.001816 0.000013 0
0.001792 0.000024 0
0.001752 0.000030 0
0.001705 0.000032 0
0.001656 0.000030 0
0.001610 0.000027 0
0.001568 0.000022 0
0.001534 0.000017 0
0.001509 0.000011 0
0.001491 0.000006 0
0.001481 0.000002 0
0.001476 -0.000001 0
0.001474 -0.000002 0
0.001473 -0.000001 0
0.001468 0.000002 0
0.001457 0.000007 0
0.001439 0.000013 0
0.001411 0.000019 0
0.001374 0.000025 0
0.001329 0.000029 0
0.001279 0.000031 0
0.001228 0.000031 0
0.001177 0.000030 0
0.001130 0.000027 0
0.001088 0.000023 0
0.001053 0.000019 0
0.001024 0.000015 0
0.001001 0.000011 0
0.000984 0.000008 0
0.000972 0.000005 0
0.000965 0.000002 0
0.000963 -0.000001 0
0.000966 -0.000004 0
0.000974 -0.000008 0
0.000988 -0.000014 0
0.001012 -0.000021 0
0.001047 -0.000033 0
0.001098 -0.000050 0
0.001170 -0.000076 0
0.001265 -0.000112 0
0.001376 -0.000147 0
0.001462 -0.000128 0
0.001392 0.000093 0
0.000904 0.000591 0
0.000000 0.000451 0
0.000000 -0.000212 0
0.000286 -0.000523 0
0.000719 -0.000561 0
0.001087 -0.000392 0
0.001318 -0.000190 0
0.001417 -0.000032 0
0.001422 0.000061 0
0.001374 0.000099 0
0.001308 0.000100 0
0.001245 0.000081 0
0.001196 0.000055 0
0.001164 0.000031 0
0.001147 0.000013 0
0.001139 0.000002 0
0.001137 -0.000002 0
0.001137 -0.000003 0
0.001136 -0.000001 0
0.001133 0.000002 0
0.001127 0.000005 0
0.001119 0.000007 0
0.001109 0.000010 0
0.001098 0.000011 0
0.001084 0.000013 0
0.001069 0.000015 0
0.001052 0.000016 0
0.001032 0.000019 0
0.001009 0.000022 0
0.000981 0.000028 0
0.000946 0.000038 0
0.000899 0.000055 0
0.000834 0.000084 0
0.000743 0.000128 0
0.000618 0.000187 0
0.000457 0.000246 0
0.000271 0.000272 0
0.000096 0.000209 0
0.000000 0.000074 0
0.000000 0.000000 0
0.000000 0.000000 0
0.000000 0.000000 0
0.000000 0.000050 0
-0.000034 0.000081 0
-0.000007 -0.000020 0
0.000146 -0.000201 0
0.000431 -0.000382 0
0.000818 -0.000511 0
0.001258 -0.000568 0
0.001701 -0.000557 0
0.002110 -0.000496 0
0.002459 -0.000403 0
0.002732 -0.000298 0
0.002929 -0.000195 0
0.003052 -0.000104 0
0.003113 -0.000030 0
0.003123 0.000026 0
0.003094 0.000064 0
0.003041 0.000087 0
0.002972 0.000096 0
0.002897 0.000096 0
0.002823 0.000088 0
0.002756 0.000075 0
0.002698 0.000060 0
0.002652 0.000043 0
0.002618 0.000028 0
0.002594 0.000015 0
0.002578 0.000007 0
0.002566 0.000003 0
0.002555 0.000006 0
0.002541 0.000015 0
0.002518 0.000029 0
0.002484 0.000047 0
0.002437 0.000065 0
0.002378 0.000082 0
0.002307 0.000094 0
0.002229 0.000101 0
0.002148 0.000102 0
0.002068 0.000098 0
0.001993 0.000089 0
0.001925 0.000078 0
0.001866 0.000065 0
0.001818 0.000052 0
0.001778 0.000040 0
0.001748 0.000029 0
0.001726 0.000019 0
0.001711 0.000009 0
0.001704 -0.000000 0
0.001703 -0.000010 0
0.001711 -0.000023 0
0.001727 -0.000038 0
0.001754 -0.000058 0
0.001793 -0.000086 0
0.001845 -0.000122 0
0.001907 -0.000167 0
0.001967 -0.000206 0
0.001991 -0.000197 0
0.001899 -0.000016 0
0.001546 0.000559 0
0.000801 0.001392 0
0.000000 0.000904 0
0.000000 -0.000363 0
0.000300 -0.000907 0
0.000767 -0.000994 0
0.001175 -0.000724 0
0.001444 -0.000381 0
0.001572 -0.000101 0
0.001596 0.000074 0
0.001557 0.000154 0
0.001494 0.000166 0
0.001431 0.000139 0
0.001380 0.000098 0
0.001345 0.000058 0
0.001324 0.000027 0
0.001313 0.000009 0
0.001307 0.000000 0
0.001303 -0.000001 0
0.001297 0.000003 0
0.001290 0.000008 0
0.001279 0.000014 0
0.001266 0.000019 0
0.001250 0.000023 0
0.001232 0.000027 0
0.001211 0.000031 0
0.001188 0.000035 0
0.001162 0.000040 0
0.001132 0.000046 0
0.001097 0.000054 0
0.001055 0.000068 0
0.001004 0.000089 0
0.000939 0.000123 0
0.000855 0.000176 0
0.000744 0.000251 0
0.000603 0.000343 0
0.000434 0.000430 0
0.000250 0.000458 0
0.000086 0.000347 0
0.000000 0.000122 0
0.000000 0.000000 0
0.000000 0.000000 0
0.000000 0.000000 0
0.000000 0.000058 0
0.000010 0.000054 0
0.000134 -0.000161 0
0.000410 -0.000482 0
0.000820 -0.000783 0
0.001319 -0.000985 0
0.001851 -0.001065 0
0.002369 -0.001032 0
0.002835 -0.000916 0
0.003228 -0.000748 0
0.003537 -0.000561 0
0.003760 -0.000376 0
0.003902 -0.000211 0
0.003974 -0.000074 0
0.003990 0.000032 0
0.003961 0.000106 0
0.003902 0.000153 0
0.003824 0.000176 0
0.003737 0.000179 0
0.003650 0.000168 0
0.003568 0.000147 0
0.003496 0.000121 0
0.003435 0.000092 0
0.003387 0.000065 0
0.003349 0.000042 0
0.003320 0.000027 0
0.003296 0.000021 0
0.003273 0.000025 0
0.003246 0.000040 0
0.003212 0.000064 0
0.003166 0.000094 0
0.003109 0.000126 0
0.003038 0.000155 0
0.002957 0.000177 0
0.002868 0.000190 0
0.002775 0.000193 0
0.002683 0.000185 0
0.002596 0.000170 0
0.002516 0.000150 0
0.002446 0.000127 0
0.002387 0.000103 0
0.002337 0.000081 0
0.002298 0.000060 0
0.002267 0.000042 0
0.002244 0.000024 0
0.002229 0.000007 0
0.002221 -0.000011 0
0.002221 -0.000032 0
0.002228 -0.000057 0
0.002242 -0.000087 0
0.002262 -0.000123 0
0.002283 -0.000164 0
0.002295 -0.000198 0
0.002272 -0.000196 0
0.002169 -0.000079 0
0.001907 0.000317 0
0.001386 0.001191 0
0.000610 0.002137 0
0.000000 0.001252 0
0.000000 -0.000513 0
0.000289 -0.001291 0
0.000745 -0.001436 0
0.001150 -0.001070 0
0.001421 -0.000587 0
0.001556 -0.000184 0
0.001587 0.000075 0
0.001556 0.000200 0
0.001499 0.000226 0
0.001441 0.000195 0
0.001392 0.000140 0
0.001358 0.000086 0
0.001335 0.000045 0
0.001320 0.000019 0
0.001308 0.000008 0
0.001298 0.000007 0
0.001286 0.000012 0
0.001271 0.000020 0
0.001254 0.000028 0
0.001234 0.000036 0
0.001212 0.000043 0
0.001187 0.000050 0
0.001159 0.000057 0
0.001128 0.000064 0
0.001094 0.000072 0
0.001055 0.000083 0
0.001011 0.000098 0
0.000960 0.000120 0
0.000900 0.000153 0
0.000827 0.000204 0
0.000737 0.000279 0
0.000626 0.000379 0
0.000493 0.000497 0
0.000343 0.000599 0
0.000190 0.000620 0
0.000062 0.000459 0
0.000000 0.000160 0
0.000000 0.000000 0
0.000000 0.000000 0
0.000000 0.000000 0
0.000000 0.000040 0
0.000064 -0.000053 0
0.000299 -0.000420 0
0.000699 -0.000887 0
0.001220 -0.001291 0
0.001799 -0.001541 0
0.002381 -0.001617 0
0.002922 -0.001541 0
0.003395 -0.001355 0
0.003782 -0.001104 0
0.004078 -0.000829 0
0.004287 -0.000560 0
0.004417 -0.000319 0
0.004479 -0.000117 0
0.004485 0.000039 0
0.004449 0.000152 0
0.004383 0.000224 0
0.004298 0.000261 0
0.004206 0.000270 0
0.004112 0.000257 0
0.004023 0.000229 0
0.003943 0.000192 0
0.003874 0.000152 0
0.003815 0.000114 0
0.003766 0.000082 0
0.003724 0.000060 0
0.003687 0.000051 0
0.003651 0.000056 0
0.003613 0.000076 0
0.003568 0.000109 0
0.003515 0.000150 0
0.003453 0.000193 0
0.003380 0.000234 0
0.003299 0.000265 0
0.003212 0.000283 0
0.003123 0.000287 0
0.003034 0.000277 0
0.002949 0.000256 0
0.002870 0.000227 0
0.002799 0.000194 0
0.002738 0.000161 0
0.002685 0.000129 0
0.002640 0.000099 0
0.002603 0.000072 0
0.002573 0.000047 0
0.002549 0.000023 0
0.002531 -0.000002 0
0.002519 -0.000029 0
0.002510 -0.000059 0
0.002503 -0.000093 0
0.002494 -0.000127 0
0.002474 -0.000155 0
0.002428 -0.000155 0
0.002326 -0.000081 0
0.002124 0.000169 0
0.001759 0.000768 0
0.001183 0.001855 0
0.000464 0.002778 0
0.000000 0.001514 0
0.000000 -0.000653 0
0.000267 -0.001653 0
0.000692 -0.001856 0
0.001069 -0.001400 0
0.001321 -0.000786 0
0.001446 -0.000267 0
0.001474 0.000074 0
0.001447 0.000241 0
0.001395 0.000281 0
0.001342 0.000246 0
0.001297 0.000180 0
0.001262 0.000115 0
0.001237 0.000065 0
0.001217 0.000035 0
0.001199 0.000022 0
0.001181 0.000022 0
0.001160 0.000029 0
0.001138 0.000039 0
0.001113 0.000050 0
0.001086 0.000061 0
0.001056 0.000071 0
0.001024 0.000080 0
0.000990 0.000089 0
0.000953 0.000100 0
0.000912 0.000112 0
0.000868 0.000128 0
0.000819 0.000149 0
0.000765 0.000178 0
0.000703 0.000222 0
0.000631 0.000286 0
0.000547 0.000377 0
0.000451 0.000495 0
0.000341 0.000626 0
0.000226 0.000733 0
0.000118 0.000739 0
0.000035 0.000536 0
0.000000 0.000184 0
0.000000 0.000000 0
0.000000 0.000000 0
0.000000 0.000000 0
0.000000 -0.000006 0
0.000119 -0.000245 0
0.000461 -0.000796 0
0.000972 -0.001403 0
0.001580 -0.001882 0
0.002212 -0.002147 0
0.002814 -0.002188 0
0.003348 -0.002046 0
0.003793 -0.001775 0
0.004142 -0.001432 0
0.004397 -0.001067 0
0.004565 -0.000715 0
0.004657 -0.000402 0
0.004688 -0.000141 0
0.004669 0.000062 0
0.004614 0.000209 0
0.004534 0.000303 0
0.004441 0.000353 0
0.004342 0.000366 0
0.004243 0.000351 0
0.004151 0.000316 0
0.004067 0.000270 0
0.003992 0.000220 0
0.003926 0.000172 0
0.003868 0.000133 0
0.003816 0.000105 0
0.003768 0.000094 0
0.003720 0.000100 0
0.003672 0.000123 0
0.003620 0.000161 0
0.003563 0.000210 0
0.003501 0.000261 0
0.003434 0.000309 0
0.003363 0.000346 0
0.003288 0.000367 0
0.003213 0.000372 0
0.003138 0.000360 0
0.003067 0.000334 0
0.002999 0.000299 0
0.002937 0.000259 0
0.002881 0.000218 0
0.002830 0.000179 0
0.002785 0.000142 0
0.002745 0.000109 0
0.002709 0.000078 0
0.002678 0.000049 0
0.002649 0.000019 0
0.002623 -0.000011 0
0.002597 -0.000041 0
0.002569 -0.000071 0
0.002531 -0.000094 0
0.002474 -0.000097 0
0.002381 -0.000050 0
0.002225 0.000108 0
0.001968 0.000488 0
0.001565 0.001258 0
0.000996 0.002487 0
0.000359 0.003320 0
0.000000 0.001715 0
0.000000 -0.000781 0
0.000242 -0.001984 0
0.000625 -0.002238 0
0.000961 -0.001698 0
0.001182 -0.000964 0
0.001288 -0.000338 0
0.001309 0.000074 0
0.001280 0.000279 0
0.001232 0.000331 0
0.001183 0.000293 0
0.001141 0.000219 0
0.001106 0.000145 0
0.001077 0.000090 0
0.001051 0.000057 0
0.001025 0.000044 0
0.000998 0.000045 0
0.000969 0.000054 0
0.000938 0.000067 0
0.000906 0.000080 0
0.000871 0.000093 0
0.000835 0.000104 0
0.000798 0.000116 0
0.000758 0.000128 0
0.000716 0.000141 0
0.000672 0.000157 0
0.000626 0.000176 0
0.000576 0.000201 0
0.000523 0.000236 0
0.000466 0.000287 0
0.000403 0.000359 0
0.000335 0.000459 0
0.000261 0.000585 0
0.000184 0.000721 0
0.000111 0.000822 0
0.000051 0.000811 0
0.000012 0.000577 0
0.000000 0.000195 0
0.000000 0.000000 0
0.000000 0.000000 0
0.000000 0.000000 0
0.000000 -0.000080 0
0.000169 -0.000514 0
0.000600 -0.001272 0
0.001197 -0.002006 0
0.001865 -0.002530 0
0.002524 -0.002775 0
0.003123 -0.002753 0
0.003628 -0.002521 0
0.004027 -0.002150 0
0.004320 -0.001708 0
0.004514 -0.001251 0
0.004624 -0.000820 0
0.004663 -0.000442 0
0.004648 -0.000129 0
0.004591 0.000113 0
0.004507 0.000287 0
0.004405 0.000398 0
0.004297 0.000454 0
0.004188 0.000467 0
0.004084 0.000448 0
0.003988 0.000406 0
0.003900 0.000352 0
0.003821 0.000293 0
0.003750 0.000238 0
0.003685 0.000192 0
0.003625 0.000161 0
0.003568 0.000147 0
0.003512 0.000153 0
0.003457 0.000177 0
0.003402 0.000218 0
0.003347 0.000268 0
0.003292 0.000323 0
0.003237 0.000372 0
0.003183 0.000411 0
0.003129 0.000433 0
0.003076 0.000437 0
0.003024 0.000423 0
0.002974 0.000395 0
0.002925 0.000357 0
0.002877 0.000313 0
0.002832 0.000268 0
0.002788 0.000225 0
0.002746 0.000185 0
0.002706 0.000148 0
0.002667 0.000114 0
0.002630 0.000083 0
0.002594 0.000052 0
0.002556 0.000023 0
0.002516 -0.000005 0
0.002470 -0.000026 0
0.002412 -0.000033 0
0.002331 -0.000005 0
0.002211 0.000094 0
0.002031 0.000333 0
0.001758 0.000829 0
0.001360 0.001739 0
0.000834 0.003061 0
0.000282 0.003775 0
0.000000 0.001873 0
0.000000 -0.000895 0
0.000215 -0.002278 0
0.000552 -0.002575 0
0.000842 -0.001957 0
0.001026 -0.001114 0
0.001110 -0.000394 0
0.001120 0.000081 0
0.001090 0.000317 0
0.001044 0.000378 0
0.000998 0.000337 0
0.000957 0.000257 0
0.000922 0.000178 0
0.000889 0.000119 0
0.000856 0.000086 0
0.000822 0.000075 0
0.000787 0.000078 0
0.000749 0.000088 0
0.000711 0.000103 0
0.000671 0.000117 0
0.000631 0.000131 0
0.000590 0.000144 0
0.000548 0.000157 0
0.000505 0.000171 0
0.000461 0.000185 0
0.000417 0.000203 0
0.000371 0.000224 0
0.000324 0.000251 0
0.000277 0.000288 0
0.000229 0.000341 0
0.000181 0.000417 0
0.000133 0.000519 0
0.000086 0.000645 0
0.000044 0.000776 0
0.000012 0.000866 0
-0.000005 0.000838 0
-0.000006 0.000586 0
0.000000 0.000195 0
0.000000 0.000000 0
0.000000 0.000000 0
0.000000 0.000000 0
0.000000 -0.000175 0
0.000208 -0.000844 0
0.000703 -0.001823 0
0.001356 -0.002667 0
0.002056 -0.003209 0
0.002720 -0.003404 0
0.003296 -0.003292 0
0.003757 -0.002950 0
0.004096 -0.002466 0
0.004321 -0.001919 0
0.004445 -0.001370 0
0.004487 -0.000864 0
0.004464 -0.000426 0
0.004394 -0.000069 0
0.004290 0.000203 0
0.004167 0.000395 0
0.004037 0.000514 0
0.003908 0.000570 0
0.003785 0.000579 0
0.003671 0.000551 0
0.003569 0.000500 0
0.003476 0.000437 0
0.003393 0.000370 0
0.003316 0.000309 0
0.003246 0.000258 0
0.003181 0.000223 0
0.003119 0.000207 0
0.003060 0.000211 0
0.003006 0.000233 0
0.002955 0.000271 0
0.002909 0.000320 0
0.002869 0.000371 0
0.002833 0.000418 0
0.002802 0.000454 0
0.002774 0.000474 0
0.002749 0.000477 0
0.002725 0.000462 0
0.002699 0.000433 0
0.002673 0.000395 0
0.002644 0.000352 0
0.002612 0.000308 0
0.002579 0.000265 0
0.002544 0.000224 0
0.002507 0.000187 0
0.002469 0.000154 0
0.002429 0.000122 0
0.002388 0.000093 0
0.002344 0.000067 0
0.002295 0.000045 0
0.002240 0.000034 0
0.002171 0.000045 0
0.002082 0.000103 0
0.001959 0.000250 0
0.001782 0.000561 0
0.001525 0.001159 0
0.001160 0.002183 0
0.000691 0.003566 0
0.000221 0.004154 0
0.000000 0.001997 0
0.000000 -0.000997 0
0.000189 -0.002536 0
0.000480 -0.002865 0
0.000723 -0.002173 0
0.000870 -0.001233 0
0.000930 -0.000432 0
0.000929 0.000094 0
0.000896 0.000355 0
0.000853 0.000422 0
0.000809 0.000379 0
0.000769 0.000296 0
0.000732 0.000214 0
0.000694 0.000155 0
0.000655 0.000123 0
0.000614 0.000113 0
0.000571 0.000118 0
0.000527 0.000130 0
0.000483 0.000145 0
0.000439 0.000159 0
0.000394 0.000174 0
0.000350 0.000187 0
0.000306 0.000200 0
0.000263 0.000214 0
0.000219 0.000230 0
0.000176 0.000247 0
0.000134 0.000268 0
0.000094 0.000295 0
0.000056 0.000331 0
0.000020 0.000383 0
-0.000012 0.000456 0
-0.000039 0.000554 0
-0.000059 0.000673 0
-0.000069 0.000794 0
-0.000064 0.000870 0
-0.000045 0.000829 0
-0.000019 0.000572 0
0.000000 0.000188 0
0.000000 0.000000 0
0.000000 0.000000 0
0.000000 0.000000 0
0.000000 -0.000287 0
0.000233 -0.001216 0
0.000765 -0.002420 0
0.001446 -0.003359 0
0.002154 -0.003894 0
0.002801 -0.004015 0
0.003337 -0.003789 0
0.003741 -0.003321 0
0.004011 -0.002714 0
0.004160 -0.002057 0
0.004208 -0.001417 0
0.004176 -0.000839 0
0.004085 -0.000348 0
0.003953 0.000045 0
0.003796 0.000340 0
0.003630 0.000540 0
0.003464 0.000657 0
0.003308 0.000707 0
0.003165 0.000704 0
0.003038 0.000664 0
0.002925 0.000602 0
0.002825 0.000528 0
0.002736 0.000453 0
0.002656 0.000384 0
0.002584 0.000328 0
0.002518 0.000288 0
0.002459 0.000267 0
0.002406 0.000266 0
0.002361 0.000283 0
0.002325 0.000314 0
0.002297 0.000355 0
0.002279 0.000399 0
0.002270 0.000439 0
0.002267 0.000470 0
0.002270 0.000486 0
0.002274 0.000487 0
0.002278 0.000473 0
0.002279 0.000447 0
0.002275 0.000413 0
0.002265 0.000374 0
0.002250 0.000333 0
0.002229 0.000294 0
0.002204 0.000257 0
0.002173 0.000223 0
0.002139 0.000192 0
0.002102 0.000164 0
0.002061 0.000138 0
0.002016 0.000115 0
0.001966 0.000100 0
0.001911 0.000098 0
0.001846 0.000125 0
0.001766 0.000207 0
0.001659 0.000394 0
0.001507 0.000768 0
0.001285 0.001452 0
0.000968 0.002573 0
0.000565 0.003999 0
0.000170 0.004466 0
0.000000 0.002094 0
0.000000 -0.001085 0
0.000165 -0.002759 0
0.000412 -0.003108 0
0.000610 -0.002348 0
0.000723 -0.001321 0
0.000760 -0.000453 0
0.000749 0.000114 0
0.000714 0.000393 0
0.000672 0.000464 0
0.000631 0.000420 0
0.000591 0.000335 0
0.000551 0.000253 0
0.000510 0.000196 0
0.000466 0.000166 0
0.000420 0.000158 0
0.000372 0.000164 0
0.000323 0.000177 0
0.000275 0.000191 0
0.000228 0.000205 0
0.000182 0.000219 0
0.000138 0.000232 0
0.000094 0.000244 0
0.000052 0.000257 0
0.000011 0.000272 0
-0.000027 0.000287 0
-0.000063 0.000306 0
-0.000096 0.000330 0
-0.000124 0.000362 0
-0.000147 0.000409 0
-0.000163 0.000476 0
-0.000170 0.000566 0
-0.000167 0.000674 0
-0.000149 0.000781 0
-0.000116 0.000843 0
-0.000072 0.000792 0
-0.000026 0.000541 0
0.000000 0.000176 0
0.000000 0.000000 0
0.000000 0.000000 0
0.000000 0.000000 0
0.000000 -0.000408 0
0.000245 -0.001609 0
0.000792 -0.003036 0
0.001477 -0.004056 0
0.002169 -0.004564 0
0.002781 -0.004588 0
0.003262 -0.004231 0
0.003596 -0.003623 0
0.003788 -0.002885 0
0.003857 -0.002116 0
0.003824 -0.001386 0
0.003716 -0.000741 0
0.003553 -0.000203 0
0.003353 0.000220 0
0.003137 0.000527 0
0.002919 0.000727 0
0.002712 0.000835 0
0.002522 0.000870 0
0.002353 0.000849 0
0.002205 0.000792 0
0.002079 0.000713 0
0.001971 0.000626 0
0.001880 0.000539 0
0.001802 0.000461 0
0.001735 0.000396 0
0.001680 0.000348 0
0.001635 0.000319 0
0.001600 0.000308 0
0.001577 0.000315 0
0.001566 0.000336 0
0.001566 0.000365 0
0.001578 0.000399 0
0.001599 0.000431 0
0.001627 0.000455 0
0.001660 0.000468 0
0.001693 0.000469 0
0.001724 0.000458 0
0.001749 0.000437 0
0.001767 0.000409 0
0.001777 0.000377 0
0.001779 0.000344 0
0.001772 0.000311 0
0.001759 0.000280 0
0.001739 0.000252 0
0.001713 0.000226 0
0.001682 0.000201 0
0.001646 0.000179 0
0.001607 0.000161 0
0.001564 0.000150 0
0.001519 0.000154 0
0.001470 0.000191 0
0.001413 0.000290 0
0.001337 0.000509 0