# vtk DataFile Version 2.0
generated by CFD-lab course output (written by Tobias Neckel) 
ASCII

DATASET STRUCTURED_GRID
DIMENSIONS  99 49 1 
POINTS 4851 float

0.000000 0.000000 0
0.020000 0.000000 0
0.040000 0.000000 0
0.060000 0.000000 0
0.080000 0.000000 0
0.100000 0.000000 0
0.120000 0.000000 0
0.140000 0.000000 0
0.160000 0.000000 0
0.180000 0.000000 0
0.200000 0.000000 0
0.220000 0.000000 0
0.240000 0.000000 0
0.260000 0.000000 0
0.280000 0.000000 0
0.300000 0.000000 0
0.320000 0.000000 0
0.340000 0.000000 0
0.360000 0.000000 0
0.380000 0.000000 0
0.400000 0.000000 0
0.420000 0.000000 0
0.440000 0.000000 0
0.460000 0.000000 0
0.480000 0.000000 0
0.500000 0.000000 0
0.520000 0.000000 0
0.540000 0.000000 0
0.560000 0.000000 0
0.580000 0.000000 0
0.600000 0.000000 0
0.620000 0.000000 0
0.640000 0.000000 0
0.660000 0.000000 0
0.680000 0.000000 0
0.700000 0.000000 0
0.720000 0.000000 0
0.740000 0.000000 0
0.760000 0.000000 0
0.780000 0.000000 0
0.800000 0.000000 0
0.820000 0.000000 0
0.840000 0.000000 0
0.860000 0.000000 0
0.880000 0.000000 0
0.900000 0.000000 0
0.920000 0.000000 0
0.940000 0.000000 0
0.960000 0.000000 0
0.980000 0.000000 0
1.000000 0.000000 0
1.020000 0.000000 0
1.040000 0.000000 0
1.060000 0.000000 0
1.080000 0.000000 0
1.100000 0.000000 0
1.120000 0.000000 0
1.140000 0.000000 0
1.160000 0.000000 0
1.180000 0.000000 0
1.200000 0.000000 0
1.220000 0.000000 0
1.240000 0.000000 0
1.260000 0.000000 0
1.280000 0.000000 0
1.300000 0.000000 0
1.320000 0.000000 0
1.340000 0.000000 0
1.360000 0.000000 0
1.380000 0.000000 0
1.400000 0.000000 0
1.420000 0.000000 0
1.440000 0.000000 0
1.460000 0.000000 0
1.480000 0.000000 0
1.500000 0.000000 0
1.520000 0.000000 0
1.540000 0.000000 0
1.560000 0.000000 0
1.580000 0.000000 0
1.600000 0.000000 0
1.620000 0.000000 0
1.640000 0.000000 0
1.660000 0.000000 0
1.680000 0.000000 0
1.700000 0.000000 0
1.720000 0.000000 0
1.740000 0.000000 0
1.760000 0.000000 0
1.780000 0.000000 0
1.800000 0.000000 0
1.820000 0.000000 0
1.840000 0.000000 0
1.860000 0.000000 0
1.880000 0.000000 0
1.900000 0.000000 0
1.920000 0.000000 0
1.940000 0.000000 0
1.960000 0.000000 0
0.000000 0.020000 0
0.020000 0.020000 0
0.040000 0.020000 0
0.060000 0.020000 0
0.080000 0.020000 0
0.100000 0.020000 0
0.120000 0.020000 0
0.140000 0.020000 0
0.160000 0.020000 0
0.180000 0.020000 0
0.200000 0.020000 0
0.220000 0.020000 0
0.240000 0.020000 0
0.260000 0.020000 0
0.280000 0.020000 0
0.300000 0.020000 0
0.320000 0.020000 0
0.340000 0.020000 0
0.360000 0.020000 0
0.380000 0.020000 0
0.400000 0.020000 0
0.420000 0.020000 0
0.440000 0.020000 0
0.460000 0.020000 0
0.480000 0.020000 0
0.500000 0.020000 0
0.520000 0.020000 0
0.540000 0.020000 0
0.560000 0.020000 0
0.580000 0.020000 0
0.600000 0.020000 0
0.620000 0.020000 0
0.640000 0.020000 0
0.660000 0.020000 0
0.680000 0.020000 0
0.700000 0.020000 0
0.720000 0.020000 0
0.740000 0.020000 0
0.760000 0.020000 0
0.780000 0.020000 0
0.800000 0.020000 0
0.820000 0.020000 0
0.840000 0.020000 0
0.860000 0.020000 0
0.880000 0.020000 0
0.900000 0.020000 0
0.920000 0.020000 0
0.940000 0.020000 0
0.960000 0.020000 0
0.980000 0.020000 0
1.000000 0.020000 0
1.020000 0.020000 0
1.040000 0.020000 0
1.060000 0.020000 0
1.080000 0.020000 0
1.100000 0.020000 0
1.120000 0.020000 0
1.140000 0.020000 0
1.160000 0.020000 0
1.180000 0.020000 0
1.200000 0.020000 0
1.220000 0.020000 0
1.240000 0.020000 0
1.260000 0.020000 0
1.280000 0.020000 0
1.300000 0.020000 0
1.320000 0.020000 0
1.340000 0.020000 0
1.360000 0.020000 0
1.380000 0.020000 0
1.400000 0.020000 0
1.420000 0.020000 0
1.440000 0.020000 0
1.460000 0.020000 0
1.480000 0.020000 0
1.500000 0.020000 0
1.520000 0.020000 0
1.540000 0.020000 0
1.560000 0.020000 0
1.580000 0.020000 0
1.600000 0.020000 0
1.620000 0.020000 0
1.640000 0.020000 0
1.660000 0.020000 0
1.680000 0.020000 0
1.700000 0.020000 0
1.720000 0.020000 0
1.740000 0.020000 0
1.760000 0.020000 0
1.780000 0.020000 0
1.800000 0.020000 0
1.820000 0.020000 0
1.840000 0.020000 0
1.860000 0.020000 0
1.880000 0.020000 0
1.900000 0.020000 0
1.920000 0.020000 0
1.940000 0.020000 0
1.960000 0.020000 0
0.000000 0.040000 0
0.020000 0.040000 0
0.040000 0.040000 0
0.060000 0.040000 0
0.080000 0.040000 0
0.100000 0.040000 0
0.120000 0.040000 0
0.140000 0.040000 0
0.160000 0.040000 0
0.180000 0.040000 0
0.200000 0.040000 0
0.220000 0.040000 0
0.240000 0.040000 0
0.260000 0.040000 0
0.280000 0.040000 0
0.300000 0.040000 0
0.320000 0.040000 0
0.340000 0.040000 0
0.360000 0.040000 0
0.380000 0.040000 0
0.400000 0.040000 0
0.420000 0.040000 0
0.440000 0.040000 0
0.460000 0.040000 0
0.480000 0.040000 0
0.500000 0.040000 0
0.520000 0.040000 0
0.540000 0.040000 0
0.560000 0.040000 0
0.580000 0.040000 0
0.600000 0.040000 0
0.620000 0.040000 0
0.640000 0.040000 0
0.660000 0.040000 0
0.680000 0.040000 0
0.700000 0.040000 0
0.720000 0.040000 0
0.740000 0.040000 0
0.760000 0.040000 0
0.780000 0.040000 0
0.800000 0.040000 0
0.820000 0.040000 0
0.840000 0.040000 0
0.860000 0.040000 0
0.880000 0.040000 0
0.900000 0.040000 0
0.920000 0.040000 0
0.940000 0.040000 0
0.960000 0.040000 0
0.980000 0.040000 0
1.000000 0.040000 0
1.020000 0.040000 0
1.040000 0.040000 0
1.060000 0.040000 0
1.080000 0.040000 0
1.100000 0.040000 0
1.120000 0.040000 0
1.140000 0.040000 0
1.160000 0.040000 0
1.180000 0.040000 0
1.200000 0.040000 0
1.220000 0.040000 0
1.240000 0.040000 0
1.260000 0.040000 0
1.280000 0.040000 0
1.300000 0.040000 0
1.320000 0.040000 0
1.340000 0.040000 0
1.360000 0.040000 0
1.380000 0.040000 0
1.400000 0.040000 0
1.420000 0.040000 0
1.440000 0.040000 0
1.460000 0.040000 0
1.480000 0.040000 0
1.500000 0.040000 0
1.520000 0.040000 0
1.540000 0.040000 0
1.560000 0.040000 0
1.580000 0.040000 0
1.600000 0.040000 0
1.620000 0.040000 0
1.640000 0.040000 0
1.660000 0.040000 0
1.680000 0.040000 0
1.700000 0.040000 0
1.720000 0.040000 0
1.740000 0.040000 0
1.760000 0.040000 0
1.780000 0.040000 0
1.800000 0.040000 0
1.820000 0.040000 0
1.840000 0.040000 0
1.860000 0.040000 0
1.880000 0.040000 0
1.900000 0.040000 0
1.920000 0.040000 0
1.940000 0.040000 0
1.960000 0.040000 0
0.000000 0.060000 0
0.020000 0.060000 0
0.040000 0.060000 0
0.060000 0.060000 0
0.080000 0.060000 0
0.100000 0.060000 0
0.120000 0.060000 0
0.140000 0.060000 0
0.160000 0.060000 0
0.180000 0.060000 0
0.200000 0.060000 0
0.220000 0.060000 0
0.240000 0.060000 0
0.260000 0.060000 0
0.280000 0.060000 0
0.300000 0.060000 0
0.320000 0.060000 0
0.340000 0.060000 0
0.360000 0.060000 0
0.380000 0.060000 0
0.400000 0.060000 0
0.420000 0.060000 0
0.440000 0.060000 0
0.460000 0.060000 0
0.480000 0.060000 0
0.500000 0.060000 0
0.520000 0.060000 0
0.540000 0.060000 0
0.560000 0.060000 0
0.580000 0.060000 0
0.600000 0.060000 0
0.620000 0.060000 0
0.640000 0.060000 0
0.660000 0.060000 0
0.680000 0.060000 0
0.700000 0.060000 0
0.720000 0.060000 0
0.740000 0.060000 0
0.760000 0.060000 0
0.780000 0.060000 0
0.800000 0.060000 0
0.820000 0.060000 0
0.840000 0.060000 0
0.860000 0.060000 0
0.880000 0.060000 0
0.900000 0.060000 0
0.920000 0.060000 0
0.940000 0.060000 0
0.960000 0.060000 0
0.980000 0.060000 0
1.000000 0.060000 0
1.020000 0.060000 0
1.040000 0.060000 0
1.060000 0.060000 0
1.080000 0.060000 0
1.100000 0.060000 0
1.120000 0.060000 0
1.140000 0.060000 0
1.160000 0.060000 0
1.180000 0.060000 0
1.200000 0.060000 0
1.220000 0.060000 0
1.240000 0.060000 0
1.260000 0.060000 0
1.280000 0.060000 0
1.300000 0.060000 0
1.320000 0.060000 0
1.340000 0.060000 0
1.360000 0.060000 0
1.380000 0.060000 0
1.400000 0.060000 0
1.420000 0.060000 0
1.440000 0.060000 0
1.460000 0.060000 0
1.480000 0.060000 0
1.500000 0.060000 0
1.520000 0.060000 0
1.540000 0.060000 0
1.560000 0.060000 0
1.580000 0.060000 0
1.600000 0.060000 0
1.620000 0.060000 0
1.640000 0.060000 0
1.660000 0.060000 0
1.680000 0.060000 0
1.700000 0.060000 0
1.720000 0.060000 0
1.740000 0.060000 0
1.760000 0.060000 0
1.780000 0.060000 0
1.800000 0.060000 0
1.820000 0.060000 0
1.840000 0.060000 0
1.860000 0.060000 0
1.880000 0.060000 0
1.900000 0.060000 0
1.920000 0.060000 0
1.940000 0.060000 0
1.960000 0.060000 0
0.000000 0.080000 0
0.020000 0.080000 0
0.040000 0.080000 0
0.060000 0.080000 0
0.080000 0.080000 0
0.100000 0.080000 0
0.120000 0.080000 0
0.140000 0.080000 0
0.160000 0.080000 0
0.180000 0.080000 0
0.200000 0.080000 0
0.220000 0.080000 0
0.240000 0.080000 0
0.260000 0.080000 0
0.280000 0.080000 0
0.300000 0.080000 0
0.320000 0.080000 0
0.340000 0.080000 0
0.360000 0.080000 0
0.380000 0.080000 0
0.400000 0.080000 0
0.420000 0.080000 0
0.440000 0.080000 0
0.460000 0.080000 0
0.480000 0.080000 0
0.500000 0.080000 0
0.520000 0.080000 0
0.540000 0.080000 0
0.560000 0.080000 0
0.580000 0.080000 0
0.600000 0.080000 0
0.620000 0.080000 0
0.640000 0.080000 0
0.660000 0.080000 0
0.680000 0.080000 0
0.700000 0.080000 0
0.720000 0.080000 0
0.740000 0.080000 0
0.760000 0.080000 0
0.780000 0.080000 0
0.800000 0.080000 0
0.820000 0.080000 0
0.840000 0.080000 0
0.860000 0.080000 0
0.880000 0.080000 0
0.900000 0.080000 0
0.920000 0.080000 0
0.940000 0.080000 0
0.960000 0.080000 0
0.980000 0.080000 0
1.000000 0.080000 0
1.020000 0.080000 0
1.040000 0.080000 0
1.060000 0.080000 0
1.080000 0.080000 0
1.100000 0.080000 0
1.120000 0.080000 0
1.140000 0.080000 0
1.160000 0.080000 0
1.180000 0.080000 0
1.200000 0.080000 0
1.220000 0.080000 0
1.240000 0.080000 0
1.260000 0.080000 0
1.280000 0.080000 0
1.300000 0.080000 0
1.320000 0.080000 0
1.340000 0.080000 0
1.360000 0.080000 0
1.380000 0.080000 0
1.400000 0.080000 0
1.420000 0.080000 0
1.440000 0.080000 0
1.460000 0.080000 0
1.480000 0.080000 0
1.500000 0.080000 0
1.520000 0.080000 0
1.540000 0.080000 0
1.560000 0.080000 0
1.580000 0.080000 0
1.600000 0.080000 0
1.620000 0.080000 0
1.640000 0.080000 0
1.660000 0.080000 0
1.680000 0.080000 0
1.700000 0.080000 0
1.720000 0.080000 0
1.740000 0.080000 0
1.760000 0.080000 0
1.780000 0.080000 0
1.800000 0.080000 0
1.820000 0.080000 0
1.840000 0.080000 0
1.860000 0.080000 0
1.880000 0.080000 0
[...]
POINT_DATA 4851 

VECTORS velocity float
0.000000 0.000000 0
0.000257 0.000000 0
0.000665 0.000000 0
0.001016 0.000000 0
0.001228 0.000000 0
0.001296 0.000000 0
0.001252 0.000000 0
0.001137 0.000000 0
0.000986 0.000000 0
0.000827 0.000000 0
0.000678 0.000000 0
0.000551 0.000000 0
0.000452 0.000000 0
0.000381 0.000000 0
0.000337 0.000000 0
0.000315 0.000000 0
0.000311 0.000000 0
0.000321 0.000000 0
0.000339 0.000000 0
0.000361 0.000000 0
0.000384 0.000000 0
0.000405 0.000000 0
0.000424 0.000000 0
0.000438 0.000000 0
0.000448 0.000000 0
0.000455 0.000000 0
0.000459 0.000000 0
0.000462 0.000000 0
0.000467 0.000000 0
0.000476 0.000000 0
0.000490 0.000000 0
0.000505 0.000000 0
0.000502 0.000000 0
0.000452 0.000000 0
0.000322 0.000000 0
0.000131 0.000000 0
0.000000 0.000000 0
0.000000 0.000000 0
0.000000 0.000000 0
0.000000 0.000000 0
0.000000 0.000000 0
0.000000 0.000000 0
0.000000 0.000000 0
-0.000000 0.000000 0
-0.000000 0.000000 0
-0.000001 0.000000 0
-0.000001 0.000000 0
-0.000002 0.000000 0
-0.000002 0.000000 0
-0.000003 0.000000 0
-0.000003 0.000000 0
-0.000004 0.000000 0
-0.000004 0.000000 0
-0.000005 0.000000 0
-0.000006 0.000000 0
-0.000006 0.000000 0
-0.000007 0.000000 0
-0.000007 0.000000 0
-0.000008 0.000000 0
-0.000008 0.000000 0
-0.000007 0.000000 0
-0.000006 0.000000 0
-0.000005 0.000000 0
-0.000004 0.000000 0
-0.000001 0.000000 0
0.000001 0.000000 0
0.000005 0.000000 0
0.000009 0.000000 0
0.000013 0.000000 0
0.000018 0.000000 0
0.000023 0.000000 0
0.000029 0.000000 0
0.000035 0.000000 0
0.000042 0.000000 0
0.000048 0.000000 0
0.000055 0.000000 0
0.000062 0.000000 0
0.000069 0.000000 0
0.000076 0.000000 0
0.000083 0.000000 0
0.000091 0.000000 0
0.000098 0.000000 0
0.000107 0.000000 0
0.000115 0.000000 0
0.000125 0.000000 0
0.000136 0.000000 0
0.000148 0.000000 0
0.000162 0.000000 0
0.000179 0.000000 0
0.000201 0.000000 0
0.000227 0.000000 0
0.000262 0.000000 0
0.000308 0.000000 0
0.000370 0.000000 0
0.000450 0.000000 0
0.000542 0.000000 0
0.000595 0.000000 0
0.000456 0.000000 0
0.000000 0.000000 0
0.000000 -0.000257 0
0.000699 -0.000666 0
0.001825 -0.000760 0
0.002850 -0.000563 0
0.003550 -0.000280 0
0.003878 -0.000025 0
0.003884 0.000158 0
0.003657 0.000266 0
0.003289 0.000310 0
0.002857 0.000308 0
0.002422 0.000275 0
0.002028 0.000225 0
0.001700 0.000169 0
0.001448 0.000114 0
0.001273 0.000065 0
0.001169 0.000025 0
0.001123 -0.000007 0
0.001122 -0.000028 0
0.001152 -0.000041 0
0.001200 -0.000046 0
0.001255 -0.000045 0
0.001309 -0.000040 0
0.001355 -0.000033 0
0.001391 -0.000025 0
0.001416 -0.000018 0
0.001430 -0.000012 0
0.001436 -0.000008 0
0.001438 -0.000009 0
0.001440 -0.000015 0
0.001447 -0.000024 0
0.001457 -0.000029 0
0.001456 -0.000013 0
0.001401 0.000052 0
0.001219 0.000180 0
0.000849 0.000320 0
0.000347 0.000321 0
0.000000 0.000130 0
0.000000 0.000000 0
0.000000 0.000000 0
0.000000 0.000000 0
0.000000 0.000000 0
0.000000 0.000000 0
-0.000000 0.000001 0
-0.000001 0.000001 0
-0.000002 0.000001 0
-0.000003 0.000001 0
-0.000004 0.000001 0
-0.000006 0.000001 0
-0.000007 0.000001 0
-0.000009 0.000001 0
-0.000011 0.000001 0
-0.000013 0.000002 0
-0.000015 0.000002 0
-0.000017 0.000002 0
-0.000019 0.000002 0
-0.000021 0.000001 0
-0.000023 0.000001 0
-0.000024 0.000001 0
-0.000024 0.000000 0
-0.000023 -0.000000 0
-0.000021 -0.000001 0
-0.000018 -0.000002 0
-0.000013 -0.000003 0
-0.000006 -0.000004 0
0.000002 -0.000005 0
0.000013 -0.000006 0
0.000026 -0.000007 0
0.000041 -0.000008 0
0.000057 -0.000009 0
0.000076 -0.000010 0
0.000096 -0.000011 0
0.000117 -0.000012 0
0.000140 -0.000012 0
0.000163 -0.000013 0
0.000187 -0.000013 0
0.000212 -0.000013 0
0.000237 -0.000014 0
0.000263 -0.000014 0
0.000289 -0.000014 0
0.000316 -0.000014 0
0.000343 -0.000015 0
0.000371 -0.000016 0
0.000401 -0.000017 0
0.000433 -0.000018 0
0.000467 -0.000020 0
0.000505 -0.000023 0
0.000547 -0.000026 0
0.000596 -0.000031 0
0.000653 -0.000038 0
0.000722 -0.000048 0
0.000804 -0.000061 0
0.000905 -0.000081 0
0.001027 -0.000107 0
0.001171 -0.000142 0
0.001327 -0.000172 0
0.001447 -0.000145 0
0.001397 0.000086 0
0.000913 0.000596 0
0.000000 0.000456 0
0.000000 -0.000700 0
0.000906 -0.001826 0
0.002409 -0.002151 0
0.003861 -0.001726 0
0.004964 -0.001029 0
0.005620 -0.000334 0
0.005840 0.000220 0
0.005706 0.000594 0
0.005322 0.000800 0
0.004791 0.000865 0
0.004202 0.000827 0
0.003625 0.000721 0
0.003111 0.000579 0
0.002689 0.000425 0
0.002369 0.000278 0
0.002151 0.000150 0
0.002022 0.000046 0
0.001966 -0.000030 0
0.001964 -0.000079 0
0.001997 -0.000104 0
0.002047 -0.000110 0
0.002101 -0.000101 0
0.002148 -0.000083 0
0.002183 -0.000062 0
0.002202 -0.000040 0
0.002207 -0.000021 0
0.002197 -0.000009 0
0.002178 -0.000005 0
0.002153 -0.000010 0
0.002122 -0.000018 0
0.002081 -0.000010 0
0.002008 0.000055 0
0.001854 0.000236 0
0.001549 0.000551 0
0.001043 0.000871 0
0.000418 0.000848 0
0.000000 0.000346 0
0.000000 0.000000 0
0.000000 0.000000 0
0.000000 0.000000 0
0.000000 0.000000 0
0.000000 0.000001 0
-0.000001 0.000001 0
-0.000002 0.000002 0
-0.000003 0.000002 0
-0.000005 0.000003 0
-0.000008 0.000003 0
-0.000010 0.000004 0
-0.000013 0.000004 0
-0.000016 0.000004 0
-0.000019 0.000004 0
-0.000023 0.000004 0
-0.000026 0.000005 0
-0.000029 0.000004 0
-0.000032 0.000004 0
-0.000035 0.000004 0
-0.000037 0.000003 0
-0.000038 0.000002 0
-0.000037 -0.000000 0
-0.000035 -0.000002 0
-0.000030 -0.000005 0
-0.000023 -0.000008 0
-0.000013 -0.000011 0
0.000000 -0.000015 0
0.000017 -0.000019 0
0.000038 -0.000023 0
0.000062 -0.000027 0
0.000090 -0.000031 0
0.000121 -0.000035 0
0.000156 -0.000038 0
0.000193 -0.000041 0
0.000232 -0.000044 0
0.000274 -0.000046 0
0.000317 -0.000047 0
0.000361 -0.000049 0
0.000406 -0.000050 0
0.000452 -0.000051 0
0.000499 -0.000051 0
0.000547 -0.000052 0
0.000595 -0.000054 0
0.000645 -0.000055 0
0.000696 -0.000058 0
0.000749 -0.000061 0
0.000805 -0.000065 0
0.000865 -0.000072 0
0.000930 -0.000080 0
0.001002 -0.000091 0
0.001083 -0.000106 0
0.001174 -0.000125 0
0.001279 -0.000151 0
0.001397 -0.000183 0
0.001531 -0.000223 0
0.001674 -0.000266 0
0.001811 -0.000300 0
0.001903 -0.000276 0
0.001864 -0.000070 0
0.001543 0.000534 0
0.000806 0.001398 0
0.000000 0.000913 0
0.000000 -0.001164 0
0.000891 -0.003076 0
0.002425 -0.003715 0
0.003964 -0.003119 0
0.005212 -0.002039 0
0.006059 -0.000901 0
0.006487 0.000072 0
0.006537 0.000783 0
0.006293 0.001225 0
0.005848 0.001428 0
0.005290 0.001440 0
0.004699 0.001315 0
0.004135 0.001105 0
0.003639 0.000856 0
0.003237 0.000603 0
0.002935 0.000371 0
0.002729 0.000177 0
0.002605 0.000029 0
0.002545 -0.000072 0
0.002530 -0.000129 0
0.002540 -0.000149 0
0.002561 -0.000142 0
0.002578 -0.000116 0
0.002585 -0.000080 0
0.002576 -0.000042 0
0.002550 -0.000007 0
0.002508 0.000020 0
0.002450 0.000035 0
0.002379 0.000040 0
0.002293 0.000047 0
0.002185 0.000085 0
0.002033 0.000214 0
0.001802 0.000511 0
0.001441 0.000991 0
0.000928 0.001450 0
0.000353 0.001364 0
0.000000 0.000548 0
0.000000 0.000000 0
0.000000 0.000000 0
0.000000 0.000000 0
0.000000 0.000000 0
-0.000000 0.000001 0
-0.000001 0.000003 0
-0.000003 0.000004 0
-0.000005 0.000005 0
-0.000007 0.000005 0
-0.000010 0.000006 0
-0.000013 0.000007 0
-0.000017 0.000007 0
-0.000020 0.000008 0
-0.000024 0.000008 0
-0.000028 0.000008 0
-0.000032 0.000008 0
-0.000036 0.000008 0
-0.000039 0.000007 0
-0.000042 0.000006 0
-0.000044 0.000004 0
-0.000044 0.000001 0
-0.000042 -0.000002 0
-0.000038 -0.000007 0
-0.000031 -0.000012 0
-0.000020 -0.000019 0
-0.000005 -0.000026 0
0.000015 -0.000034 0
0.000039 -0.000042 0
0.000069 -0.000051 0
0.000103 -0.000059 0
0.000142 -0.000067 0
0.000186 -0.000075 0
0.000233 -0.000081 0
0.000285 -0.000087 0
0.000340 -0.000092 0
0.000397 -0.000097 0
0.000456 -0.000100 0
0.000517 -0.000103 0
0.000579 -0.000105 0
0.000642 -0.000107 0
0.000706 -0.000108 0
0.000771 -0.000110 0
0.000837 -0.000112 0
0.000903 -0.000115 0
0.000972 -0.000120 0
0.001042 -0.000126 0
0.001116 -0.000134 0
0.001193 -0.000145 0
0.001275 -0.000160 0
0.001364 -0.000179 0
0.001460 -0.000203 0
0.001565 -0.000234 0
0.001678 -0.000271 0
0.001798 -0.000314 0
0.001918 -0.000357 0
0.002026 -0.000388 0
0.002093 -0.000371 0
0.002068 -0.000225 0
0.001864 0.000215 0
0.001379 0.001144 0
0.000613 0.002139 0
0.000000 0.001263 0
0.000000 -0.001592 0
0.000805 -0.004252 0
0.002218 -0.005224 0
0.003663 -0.004513 0
0.004880 -0.003125 0
0.005777 -0.001610 0
0.006329 -0.000258 0
0.006547 0.000788 0
0.006480 0.001489 0
0.006195 0.001868 0
0.005767 0.001976 0
0.005266 0.001877 0
0.004750 0.001639 0
0.004268 0.001323 0
0.003849 0.000982 0
0.003510 0.000657 0
0.003253 0.000376 0
0.003073 0.000153 0
0.002954 -0.000004 0
0.002882 -0.000100 0
0.002838 -0.000141 0
0.002809 -0.000139 0
0.002780 -0.000108 0
0.002743 -0.000060 0
0.002692 -0.000005 0
0.002624 0.000047 0
0.002538 0.000091 0
0.002435 0.000123 0
0.002315 0.000146 0
0.002174 0.000176 0
0.002005 0.000249 0
0.001796 0.000437 0
0.001522 0.000828 0
0.001157 0.001424 0
0.000701 0.001959 0
0.000245 0.001776 0
0.000000 0.000699 0
0.000000 0.000000 0
0.000000 0.000000 0
0.000000 0.000000 0
0.000000 0.000001 0
-0.000000 0.000002 0
-0.000001 0.000004 0
-0.000003 0.000006 0
-0.000006 0.000007 0
-0.000008 0.000008 0
-0.000011 0.000009 0
-0.000015 0.000010 0
-0.000019 0.000011 0
-0.000023 0.000012 0
-0.000027 0.000012 0
-0.000031 0.000013 0
-0.000035 0.000012 0
-0.000039 0.000012 0
-0.000042 0.000010 0
-0.000045 0.000008 0
-0.000046 0.000005 0
-0.000045 0.000000 0
-0.000042 -0.000006 0
-0.000036 -0.000014 0
-0.000026 -0.000023 0
-0.000012 -0.000034 0
0.000008 -0.000046 0
0.000033 -0.000059 0
0.000063 -0.000073 0
0.000100 -0.000087 0
0.000143 -0.000101 0
0.000192 -0.000114 0
0.000247 -0.000126 0
0.000306 -0.000137 0
0.000369 -0.000147 0
0.000436 -0.000155 0
0.000507 -0.000162 0
0.000579 -0.000167 0
0.000654 -0.000172 0
0.000729 -0.000175 0
0.000806 -0.000178 0
0.000883 -0.000180 0
0.000961 -0.000183 0
0.001040 -0.000186 0
0.001119 -0.000190 0
0.001200 -0.000196 0
0.001282 -0.000205 0
0.001366 -0.000216 0
0.001453 -0.000231 0
0.001544 -0.000251 0
0.001639 -0.000276 0
0.001738 -0.000307 0
0.001841 -0.000343 0
0.001945 -0.000383 0
0.002045 -0.000423 0
0.002131 -0.000451 0
0.002184 -0.000441 0
0.002171 -0.000341 0
0.002043 -0.000046 0
0.001731 0.000620 0
0.001183 0.001785 0
0.000470 0.002776 0
0.000000 0.001526 0
0.000000 -0.001970 0
0.000705 -0.005295 0
0.001937 -0.006573 0
0.003200 -0.005781 0
0.004285 -0.004154 0
0.005129 -0.002350 0
0.005718 -0.000698 0
0.006050 0.000633 0
0.006140 0.001576 0
0.006029 0.002140 0
0.005766 0.002369 0
0.005406 0.002332 0
0.004998 0.002103 0
0.004587 0.001757 0
0.004204 0.001361 0
0.003871 0.000966 0
0.003596 0.000614 0
0.003381 0.000328 0
0.003217 0.000119 0
0.003093 -0.000014 0
0.002996 -0.000077 0
0.002914 -0.000084 0
0.002834 -0.000051 0
0.002749 0.000008 0
0.002653 0.000077 0
0.002541 0.000147 0
0.002412 0.000208 0
0.002267 0.000259 0
0.002103 0.000302 0
0.001919 0.000356 0
0.001711 0.000462 0
0.001470 0.000696 0
0.001183 0.001150 0
0.000843 0.001811 0
0.000469 0.002362 0
0.000143 0.002065 0
0.000000 0.000793 0
0.000000 0.000000 0
0.000000 0.000000 0
0.000000 0.000000 0
0.000000 0.000001 0
-0.000000 0.000003 0
-0.000002 0.000006 0
-0.000003 0.000008 0
-0.000006 0.000010 0
-0.000009 0.000011 0
-0.000012 0.000013 0
-0.000015 0.000014 0
-0.000019 0.000015 0
-0.000023 0.000016 0
-0.000027 0.000017 0
-0.000031 0.000017 0
-0.000035 0.000017 0
-0.000039 0.000015 0
-0.000042 0.000013 0
-0.000044 0.000010 0
-0.000045 0.000005 0
-0.000043 -0.000002 0
-0.000039 -0.000011 0
-0.000031 -0.000023 0
-0.000019 -0.000036 0
-0.000002 -0.000052 0
0.000021 -0.000070 0
0.000051 -0.000090 0
0.000087 -0.000110 0
0.000130 -0.000130 0
0.000181 -0.000151 0
0.000238 -0.000170 0
0.000301 -0.000188 0
0.000370 -0.000204 0
0.000444 -0.000218 0
0.000521 -0.000230 0
0.000602 -0.000239 0
0.000686 -0.000247 0
0.000771 -0.000253 0
0.000858 -0.000257 0
0.000945 -0.000260 0
0.001032 -0.000263 0
0.001120 -0.000266 0
0.001207 -0.000270 0
0.001295 -0.000275 0
0.001384 -0.000282 0
0.001472 -0.000292 0
0.001562 -0.000305 0
0.001653 -0.000323 0
0.001746 -0.000345 0
0.001839 -0.000373 0
0.001932 -0.000405 0
0.002024 -0.000440 0
0.002109 -0.000475 0
0.002180 -0.000499 0
0.002226 -0.000495 0
0.002224 -0.000428 0
0.002144 -0.000230 0
0.001944 0.000215 0
0.001575 0.001076 0
0.001018 0.002406 0
0.000374 0.003322 0
0.000000 0.001732 0
0.000000 -0.002298 0
0.000604 -0.006190 0
0.001638 -0.007719 0
0.002684 -0.006862 0
0.003590 -0.005055 0
0.004323 -0.003043 0
0.004885 -0.001179 0
0.005274 0.000366 0
0.005483 0.001510 0
0.005525 0.002242 0
0.005427 0.002599 0
0.005222 0.002645 0
0.004947 0.002457 0
0.004639 0.002117 0
0.004326 0.001698 0
0.004031 0.001264 0
0.003766 0.000865 0
0.003539 0.000533 0
0.003346 0.000283 0
0.003184 0.000121 0
0.003043 0.000038 0
0.002914 0.000022 0
0.002789 0.000056 0
0.002660 0.000121 0
0.002524 0.000203 0
0.002375 0.000287 0
0.002213 0.000365 0
0.002036 0.000432 0
0.001843 0.000493 0
0.001634 0.000568 0
0.001406 0.000699 0
0.001154 0.000965 0
0.000874 0.001454 0
0.000572 0.002138 0
0.000279 0.002659 0
0.000065 0.002245 0
0.000000 0.000842 0
0.000000 0.000000 0
0.000000 0.000000 0
0.000000 0.000000 0
0.000000 0.000001 0
-0.000000 0.000004 0
-0.000002 0.000007 0
-0.000003 0.000010 0
-0.000006 0.000012 0
-0.000008 0.000014 0
-0.000011 0.000016 0
-0.000014 0.000018 0
-0.000018 0.000019 0
-0.000022 0.000020 0
-0.000025 0.000021 0
-0.000029 0.000021 0
-0.000033 0.000020 0
-0.000036 0.000019 0
-0.000039 0.000016 0
-0.000041 0.000011 0
-0.000041 0.000004 0
-0.000039 -0.000005 0
-0.000034 -0.000018 0
-0.000025 -0.000033 0
-0.000012 -0.000052 0
0.000008 -0.000074 0
0.000034 -0.000098 0
0.000067 -0.000125 0
0.000108 -0.000153 0
0.000157 -0.000181 0
0.000213 -0.000208 0
0.000278 -0.000234 0
0.000349 -0.000258 0
0.000426 -0.000280 0
0.000508 -0.000298 0
0.000595 -0.000314 0
0.000685 -0.000326 0
0.000777 -0.000336 0
0.000871 -0.000343 0
0.000966 -0.000348 0
0.001061 -0.000352 0
0.001156 -0.000355 0
0.001250 -0.000358 0
0.001344 -0.000361 0
0.001437 -0.000366 0
0.001529 -0.000373 0
0.001621 -0.000383 0
0.001712 -0.000397 0
0.001802 -0.000415 0
0.001891 -0.000437 0
0.001978 -0.000463 0
0.002060 -0.000492 0
0.002136 -0.000520 0
0.002198 -0.000540 0
0.002240 -0.000540 0
0.002246 -0.000494 0
0.002199 -0.000360 0
0.002069 -0.000061 0
0.001823 0.000523 0
0.001430 0.001545 0
0.000889 0.002987 0
0.000309 0.003794 0
0.000000 0.001900 0
0.000000 -0.002575 0
0.000505 -0.006933 0
0.001341 -0.008653 0
0.002169 -0.007734 0
0.002883 -0.005793 0
0.003481 -0.003646 0
0.003978 -0.001650 0
0.004378 0.000034 0
0.004665 0.001325 0
0.004828 0.002196 0
0.004873 0.002672 0
0.004814 0.002811 0
0.004675 0.002686 0
0.004479 0.002379 0
0.004253 0.001968 0
0.004015 0.001526 0
0.003782 0.001106 0
0.003561 0.000748 0
0.003358 0.000473 0
0.003172 0.000290 0
0.002999 0.000193 0
0.002835 0.000169 0
0.002676 0.000202 0
0.002515 0.000272 0
0.002349 0.000362 0
0.002176 0.000457 0
0.001993 0.000547 0
0.001799 0.000628 0
0.001593 0.000703 0
0.001376 0.000793 0
0.001144 0.000941 0
0.000896 0.001228 0
0.000632 0.001732 0
0.000368 0.002406 0
0.000143 0.002868 0
0.000014 0.002344 0
0.000000 0.000858 0
0.000000 0.000000 0
0.000000 0.000000 0
0.000000 0.000000 0
0.000000 0.000001 0
-0.000000 0.000005 0
-0.000001 0.000009 0
-0.000003 0.000012 0
-0.000005 0.000015 0
-0.000007 0.000017 0
-0.000010 0.000019 0
-0.000013 0.000021 0
-0.000016 0.000022 0
-0.000019 0.000023 0
-0.000022 0.000024 0
-0.000025 0.000024 0
-0.000028 0.000024 0
-0.000031 0.000022 0
-0.000034 0.000018 0
-0.000035 0.000012 0
-0.000035 0.000003 0
-0.000033 -0.000009 0
-0.000028 -0.000025 0
-0.000019 -0.000045 0
-0.000004 -0.000069 0
0.000016 -0.000098 0
0.000044 -0.000129 0
0.000080 -0.000164 0
0.000125 -0.000200 0
0.000178 -0.000236 0
0.000241 -0.000272 0
0.000311 -0.000305 0
0.000389 -0.000336 0
0.000474 -0.000363 0
0.000564 -0.000387 0
0.000658 -0.000406 0
0.000755 -0.000421 0
0.000855 -0.000433 0
0.000956 -0.000441 0
0.001057 -0.000447 0
0.001158 -0.000450 0
0.001258 -0.000453 0
0.001356 -0.000454 0
0.001454 -0.000457 0
0.001549 -0.000460 0
0.001643 -0.000466 0
0.001734 -0.000475 0
0.001823 -0.000487 0
0.001909 -0.000502 0
0.001991 -0.000521 0
0.002068 -0.000542 0
0.002138 -0.000563 0
0.002195 -0.000578 0
0.002235 -0.000579 0
0.002249 -0.000547 0
0.002223 -0.000454 0
0.002139 -0.000251 0
0.001975 0.000145 0
0.001704 0.000854 0
0.001305 0.002010 0
0.000789 0.003527 0
0.000264 0.004211 0
0.000000 0.002041 0
0.000000 -0.002803 0
0.000410 -0.007532 0
0.001061 -0.009383 0
0.001685 -0.008403 0
0.002217 -0.006366 0
0.002678 -0.004139 0
0.003093 -0.002077 0
0.003472 -0.000321 0
0.003798 0.001059 0
0.004047 0.002033 0
0.004204 0.002613 0
0.004270 0.002843 0
0.004252 0.002792 0
0.004166 0.002538 0
0.004029 0.002162 0
0.003858 0.001735 0
0.003667 0.001319 0
0.003468 0.000956 0
0.003269 0.000673 0
0.003074 0.000479 0
0.002884 0.000374 0
0.002700 0.000345 0
0.002520 0.000376 0
0.002341 0.000447 0
0.002160 0.000541 0
0.001976 0.000643 0
0.001786 0.000741 0
0.001589 0.000831 0
0.001383 0.000916 0
0.001169 0.001017 0
0.000944 0.001178 0
0.000707 0.001477 0
0.000460 0.001983 0
0.000227 0.002627 0
0.000054 0.003012 0
-0.000016 0.002388 0
0.000000 0.000856 0
0.000000 0.000000 0
0.000000 0.000000 0
0.000000 0.000000 0
0.000000 0.000002 0
-0.000000 0.000006 0
-0.000001 0.000010 0
-0.000002 0.000014 0
-0.000004 0.000017 0
-0.000006 0.000019 0
-0.000008 0.000022 0
-0.000010 0.000024 0
-0.000013 0.000025 0
-0.000015 0.000026 0
-0.000018 0.000027 0
-0.000020 0.000027 0
-0.000023 0.000026 0
-0.000025 0.000024 0
-0.000027 0.000020 0
-0.000028 0.000013 0
-0.000028 0.000002 0
-0.000026 -0.000012 0
-0.000021 -0.000032 0
-0.000012 -0.000057 0
0.000002 -0.000087 0
0.000023 -0.000122 0
0.000052 -0.000162 0
0.000090 -0.000206 0
0.000138 -0.000251 0
0.000196 -0.000296 0
0.000263 -0.000341 0
0.000339 -0.000382 0
0.000423 -0.000420 0
0.000514 -0.000454 0
0.000611 -0.000482 0
0.000712 -0.000505 0
0.000816 -0.000523 0
0.000922 -0.000536 0
0.001028 -0.000545 0
0.001134 -0.000550 0
0.001239 -0.000553 0
0.001342 -0.000554 0
0.001444 -0.000554 0
0.001542 -0.000554 0
0.001638 -0.000555 0
0.001730 -0.000558 0
0.001819 -0.000564 0
0.001903 -0.000572 0
0.001983 -0.000583 0
0.002057 -0.000596 0
0.002123 -0.000609 0
0.002178 -0.000618 0
0.002218 -0.000617 0
0.002237 -0.000593 0
0.002227 -0.000527 0
0.002175 -0.000385 0
0.002065 -0.000112 0
0.001878 0.000375 0
0.001594 0.001194 0
0.001199 0.002460 0
0.000710 0.004028 0
0.000230 0.004583 0
0.000000 0.002164 0
0.000000 -0.002985 0
0.000321 -0.007995 0
0.000807 -0.009928 0
0.001251 -0.008890 0
0.001624 -0.006786 0
0.001958 -0.004522 0
0.002289 -0.002445 0
0.002627 -0.000671 0
0.002961 0.000750 0
0.003258 0.001789 0
0.003495 0.002449 0
0.003657 0.002763 0
0.003740 0.002789 0
0.003750 0.002601 0
0.003696 0.002277 0
0.003592 0.001887 0
0.003450 0.001495 0
0.003283 0.001145 0
0.003100 0.000867 0
0.002910 0.000674 0
0.002718 0.000566 0
0.002528 0.000534 0
0.002341 0.000562 0
0.002157 0.000632 0
0.001974 0.000727 0
0.001791 0.000831 0
0.001605 0.000934 0
0.001414 0.001030 0
0.001218 0.001122 0
0.001015 0.001231 0
0.000801 0.001404 0
0.000574 0.001712 0
0.000343 0.002211 0
0.000134 0.002813 0
-0.000003 0.003111 0
-0.000034 0.002397 0
0.000000 0.000842 0
0.000000 0.000000 0
0.000000 0.000000 0
0.000000 0.000000 0
0.000000 0.000002 0
-0.000000 0.000006 0
-0.000001 0.000011 0
-0.000002 0.000015 0
-0.000003 0.000019 0
-0.000004 0.000021 0
-0.000006 0.000024 0
-0.000007 0.000026 0
-0.000009 0.000027 0
-0.000010 0.000029 0
-0.000012 0.000029 0
-0.000014 0.000030 0
-0.000015 0.000029 0
-0.000017 0.000026 0
-0.000018 0.000021 0
-0.000020 0.000013 0
-0.000020 0.000002 0
-0.000018 -0.000015 0
-0.000014 -0.000038 0
-0.000006 -0.000068 0
0.000007 -0.000104 0
0.000028 -0.000148 0
0.000057 -0.000196 0
0.000097 -0.000250 0
0.000147 -0.000305 0
0.000209 -0.000361 0
0.000281 -0.000415 0
0.000362 -0.000465 0
0.000453 -0.000511 0
0.000550 -0.000551 0
0.000653 -0.000584 0
0.000760 -0.000611 0
0.000870 -0.000631 0
0.000981 -0.000645 0
0.001092 -0.000653 0