# vtk DataFile Version 2.0
generated by CFD-lab course output (written by Tobias Neckel) 
ASCII

DATASET STRUCTURED_GRID
DIMENSIONS  99 49 1 
POINTS 4851 float

0.000000 0.000000 0
0.020000 0.000000 0
0.040000 0.000000 0
0.060000 0.000000 0
0.080000 0.000000 0
0.100000 0.000000 0
0.120000 0.000000 0
0.140000 0.000000 0
0.160000 0.000000 0
0.180000 0.000000 0
0.200000 0.000000 0
0.220000 0.000000 0
0.240000 0.000000 0
0.260000 0.000000 0
0.280000 0.000000 0
0.300000 0.000000 0
0.320000 0.000000 0
0.340000 0.000000 0
0.360000 0.000000 0
0.380000 0.000000 0
0.400000 0.000000 0
0.420000 0.000000 0
0.440000 0.000000 0
0.460000 0.000000 0
0.480000 0.000000 0
0.500000 0.000000 0
0.520000 0.000000 0
0.540000 0.000000 0
0.560000 0.000000 0
0.580000 0.000000 0
0.600000 0.000000 0
0.620000 0.000000 0
0.640000 0.000000 0
0.660000 0.000000 0
0.680000 0.000000 0
0.700000 0.000000 0
0.720000 0.000000 0
0.740000 0.000000 0
0.760000 0.000000 0
0.780000 0.000000 0
0.800000 0.000000 0
0.820000 0.000000 0
0.840000 0.000000 0
0.860000 0.000000 0
0.880000 0.000000 0
0.900000 0.000000 0
0.920000 0.000000 0
0.940000 0.000000 0
0.960000 0.000000 0
0.980000 0.000000 0
1.000000 0.000000 0
1.020000 0.000000 0
1.040000 0.000000 0
1.060000 0.000000 0
1.080000 0.000000 0
1.100000 0.000000 0
1.120000 0.000000 0
1.140000 0.000000 0
1.160000 0.000000 0
1.180000 0.000000 0
1.200000 0.000000 0
1.220000 0.000000 0
1.240000 0.000000 0
1.260000 0.000000 0
1.280000 0.000000 0
1.300000 0.000000 0
1.320000 0.000000 0
1.340000 0.000000 0
1.360000 0.000000 0
1.380000 0.000000 0
1.400000 0.000000 0
1.420000 0.000000 0
1.440000 0.000000 0
1.460000 0.000000 0
1.480000 0.000000 0
1.500000 0.000000 0
1.520000 0.000000 0
1.540000 0.000000 0
1.560000 0.000000 0
1.580000 0.000000 0
1.600000 0.000000 0
1.620000 0.000000 0
1.640000 0.000000 0
1.660000 0.000000 0
1.680000 0.000000 0
1.700000 0.000000 0
1.720000 0.000000 0
1.740000 0.000000 0
1.760000 0.000000 0
1.780000 0.000000 0
1.800000 0.000000 0
1.820000 0.000000 0
1.840000 0.000000 0
1.860000 0.000000 0
1.880000 0.000000 0
1.900000 0.000000 0
1.920000 0.000000 0
1.940000 0.000000 0
1.960000 0.000000 0
0.000000 0.020000 0
0.020000 0.020000 0
0.040000 0.020000 0
0.060000 0.020000 0
0.080000 0.020000 0
0.100000 0.020000 0
0.120000 0.020000 0
0.140000 0.020000 0
0.160000 0.020000 0
0.180000 0.020000 0
0.200000 0.020000 0
0.220000 0.020000 0
0.240000 0.020000 0
0.260000 0.020000 0
0.280000 0.020000 0
0.300000 0.020000 0
0.320000 0.020000 0
0.340000 0.020000 0
0.360000 0.020000 0
0.380000 0.020000 0
0.400000 0.020000 0
0.420000 0.020000 0
0.440000 0.020000 0
0.460000 0.020000 0
0.480000 0.020000 0
0.500000 0.020000 0
0.520000 0.020000 0
0.540000 0.020000 0
0.560000 0.020000 0
0.580000 0.020000 0
0.600000 0.020000 0
0.620000 0.020000 0
0.640000 0.020000 0
0.660000 0.020000 0
0.680000 0.020000 0
0.700000 0.020000 0
0.720000 0.020000 0
0.740000 0.020000 0
0.760000 0.020000 0
0.780000 0.020000 0
0.800000 0.020000 0
0.820000 0.020000 0
0.840000 0.020000 0
0.860000 0.020000 0
0.880000 0.020000 0
0.900000 0.020000 0
0.920000 0.020000 0
0.940000 0.020000 0
0.960000 0.020000 0
0.980000 0.020000 0
1.000000 0.020000 0
1.020000 0.020000 0
1.040000 0.020000 0
1.060000 0.020000 0
1.080000 0.020000 0
1.100000 0.020000 0
1.120000 0.020000 0
1.140000 0.020000 0
1.160000 0.020000 0
1.180000 0.020000 0
1.200000 0.020000 0
1.220000 0.020000 0
1.240000 0.020000 0
1.260000 0.020000 0
1.280000 0.020000 0
1.300000 0.020000 0
1.320000 0.020000 0
1.340000 0.020000 0
1.360000 0.020000 0
1.380000 0.020000 0
1.400000 0.020000 0
1.420000 0.020000 0
1.440000 0.020000 0
1.460000 0.020000 0
1.480000 0.020000 0
1.500000 0.020000 0
1.520000 0.020000 0
1.540000 0.020000 0
1.560000 0.020000 0
1.580000 0.020000 0
1.600000 0.020000 0
1.620000 0.020000 0
1.640000 0.020000 0
1.660000 0.020000 0
1.680000 0.020000 0
1.700000 0.020000 0
1.720000 0.020000 0
1.740000 0.020000 0
1.760000 0.020000 0
1.780000 0.020000 0
1.800000 0.020000 0
1.820000 0.020000 0
1.840000 0.020000 0
1.860000 0.020000 0
1.880000 0.020000 0
1.900000 0.020000 0
1.920000 0.020000 0
1.940000 0.020000 0
1.960000 0.020000 0
0.000000 0.040000 0
0.020000 0.040000 0
0.040000 0.040000 0
0.060000 0.040000 0
0.080000 0.040000 0
0.100000 0.040000 0
0.120000 0.040000 0
0.140000 0.040000 0
0.160000 0.040000 0
0.180000 0.040000 0
0.200000 0.040000 0
0.220000 0.040000 0
0.240000 0.040000 0
0.260000 0.040000 0
0.280000 0.040000 0
0.300000 0.040000 0
0.320000 0.040000 0
0.340000 0.040000 0
0.360000 0.040000 0
0.380000 0.040000 0
0.400000 0.040000 0
0.420000 0.040000 0
0.440000 0.040000 0
0.460000 0.040000 0
0.480000 0.040000 0
0.500000 0.040000 0
0.520000 0.040000 0
0.540000 0.040000 0
0.560000 0.040000 0
0.580000 0.040000 0
0.600000 0.040000 0
0.620000 0.040000 0
0.640000 0.040000 0
0.660000 0.040000 0
0.680000 0.040000 0
0.700000 0.040000 0
0.720000 0.040000 0
0.740000 0.040000 0
0.760000 0.040000 0
0.780000 0.040000 0
0.800000 0.040000 0
0.820000 0.040000 0
0.840000 0.040000 0
0.860000 0.040000 0
0.880000 0.040000 0
0.900000 0.040000 0
0.920000 0.040000 0
0.940000 0.040000 0
0.960000 0.040000 0
0.980000 0.040000 0
1.000000 0.040000 0
1.020000 0.040000 0
1.040000 0.040000 0
1.060000 0.040000 0
1.080000 0.040000 0
1.100000 0.040000 0
1.120000 0.040000 0
1.140000 0.040000 0
1.160000 0.040000 0
1.180000 0.040000 0
1.200000 0.040000 0
1.220000 0.040000 0
1.240000 0.040000 0
1.260000 0.040000 0
1.280000 0.040000 0
1.300000 0.040000 0
1.320000 0.040000 0
1.340000 0.040000 0
1.360000 0.040000 0
1.380000 0.040000 0
1.400000 0.040000 0
1.420000 0.040000 0
1.440000 0.040000 0
1.460000 0.040000 0
1.480000 0.040000 0
1.500000 0.040000 0
1.520000 0.040000 0
1.540000 0.040000 0
1.560000 0.040000 0
1.580000 0.040000 0
1.600000 0.040000 0
1.620000 0.040000 0
1.640000 0.040000 0
1.660000 0.040000 0
1.680000 0.040000 0
1.700000 0.040000 0
1.720000 0.040000 0
1.740000 0.040000 0
1.760000 0.040000 0
1.780000 0.040000 0
1.800000 0.040000 0
1.820000 0.040000 0
1.840000 0.040000 0
1.860000 0.040000 0
1.880000 0.040000 0
1.900000 0.040000 0
1.920000 0.040000 0
1.940000 0.040000 0
1.960000 0.040000 0
0.000000 0.060000 0
0.020000 0.060000 0
0.040000 0.060000 0
0.060000 0.060000 0
0.080000 0.060000 0
0.100000 0.060000 0
0.120000 0.060000 0
0.140000 0.060000 0
0.160000 0.060000 0
0.180000 0.060000 0
0.200000 0.060000 0
0.220000 0.060000 0
0.240000 0.060000 0
0.260000 0.060000 0
0.280000 0.060000 0
0.300000 0.060000 0
0.320000 0.060000 0
0.340000 0.060000 0
0.360000 0.060000 0
0.380000 0.060000 0
0.400000 0.060000 0
0.420000 0.060000 0
0.440000 0.060000 0
0.460000 0.060000 0
0.480000 0.060000 0
0.500000 0.060000 0
0.520000 0.060000 0
0.540000 0.060000 0
0.560000 0.060000 0
0.580000 0.060000 0
0.600000 0.060000 0
0.620000 0.060000 0
0.640000 0.060000 0
0.660000 0.060000 0
0.680000 0.060000 0
0.700000 0.060000 0
0.720000 0.060000 0
0.740000 0.060000 0
0.760000 0.060000 0
0.780000 0.060000 0
0.800000 0.060000 0
0.820000 0.060000 0
0.840000 0.060000 0
0.860000 0.060000 0
0.880000 0.060000 0
0.900000 0.060000 0
0.920000 0.060000 0
0.940000 0.060000 0
0.960000 0.060000 0
0.980000 0.060000 0
1.000000 0.060000 0
1.020000 0.060000 0
1.040000 0.060000 0
1.060000 0.060000 0
1.080000 0.060000 0
1.100000 0.060000 0
1.120000 0.060000 0
1.140000 0.060000 0
1.160000 0.060000 0
1.180000 0.060000 0
1.200000 0.060000 0
1.220000 0.060000 0
1.240000 0.060000 0
1.260000 0.060000 0
1.280000 0.060000 0
1.300000 0.060000 0
1.320000 0.060000 0
1.340000 0.060000 0
1.360000 0.060000 0
1.380000 0.060000 0
1.400000 0.060000 0
1.420000 0.060000 0
1.440000 0.060000 0
1.460000 0.060000 0
1.480000 0.060000 0
1.500000 0.060000 0
1.520000 0.060000 0
1.540000 0.060000 0
1.560000 0.060000 0
1.580000 0.060000 0
1.600000 0.060000 0
1.620000 0.060000 0
1.640000 0.060000 0
1.660000 0.060000 0
1.680000 0.060000 0
1.700000 0.060000 0
1.720000 0.060000 0
1.740000 0.060000 0
1.760000 0.060000 0
1.780000 0.060000 0
1.800000 0.060000 0
1.820000 0.060000 0
1.840000 0.060000 0
1.860000 0.060000 0
1.880000 0.060000 0
1.900000 0.060000 0
1.920000 0.060000 0
1.940000 0.060000 0
1.960000 0.060000 0
0.000000 0.080000 0
0.020000 0.080000 0
0.040000 0.080000 0
0.060000 0.080000 0
0.080000 0.080000 0
0.100000 0.080000 0
0.120000 0.080000 0
0.140000 0.080000 0
0.160000 0.080000 0
0.180000 0.080000 0
0.200000 0.080000 0
0.220000 0.080000 0
0.240000 0.080000 0
0.260000 0.080000 0
0.280000 0.080000 0
0.300000 0.080000 0
0.320000 0.080000 0
0.340000 0.080000 0
0.360000 0.080000 0
0.380000 0.080000 0
0.400000 0.080000 0
0.420000 0.080000 0
0.440000 0.080000 0
0.460000 0.080000 0
0.480000 0.080000 0
0.500000 0.080000 0
0.520000 0.080000 0
0.540000 0.080000 0
0.560000 0.080000 0
0.580000 0.080000 0
0.600000 0.080000 0
0.620000 0.080000 0
0.640000 0.080000 0
0.660000 0.080000 0
0.680000 0.080000 0
0.700000 0.080000 0
0.720000 0.080000 0
0.740000 0.080000 0
0.760000 0.080000 0
0.780000 0.080000 0
0.800000 0.080000 0
0.820000 0.080000 0
0.840000 0.080000 0
0.860000 0.080000 0
0.880000 0.080000 0
0.900000 0.080000 0
0.920000 0.080000 0
0.940000 0.080000 0
0.960000 0.080000 0
0.980000 0.080000 0
1.000000 0.080000 0
1.020000 0.080000 0
1.040000 0.080000 0
1.060000 0.080000 0
1.080000 0.080000 0
1.100000 0.080000 0
1.120000 0.080000 0
1.140000 0.080000 0
1.160000 0.080000 0
1.180000 0.080000 0
1.200000 0.080000 0
1.220000 0.080000 0
1.240000 0.080000 0
1.260000 0.080000 0
1.280000 0.080000 0
1.300000 0.080000 0
1.320000 0.080000 0
1.340000 0.080000 0
1.360000 0.080000 0
1.380000 0.080000 0
1.400000 0.080000 0
1.420000 0.080000 0
1.440000 0.080000 0
1.460000 0.080000 0
1.480000 0.080000 0
1.500000 0.080000 0
1.520000 0.080000 0
1.540000 0.080000 0
1.560000 0.080000 0
1.580000 0.080000 0
1.600000 0.080000 0
1.620000 0.080000 0
1.640000 0.080000 0
1.660000 0.080000 0
1.680000 0.080000 0
1.700000 0.080000 0
1.720000 0.080000 0
1.740000 0.080000 0
1.760000 0.080000 0
1.780000 0.080000 0
1.800000 0.080000 0
1.820000 0.080000 0
1.840000 0.080000 0
1.860000 0.080000 0
1.880000 0.080000 0
[...]
POINT_DATA 4851 

VECTORS velocity float
0.000000 0.000000 0
0.000061 0.000000 0
0.000152 0.000000 0
0.000223 0.000000 0
0.000261 0.000000 0
0.000272 0.000000 0
0.000265 0.000000 0
0.000251 0.000000 0
0.000234 0.000000 0
0.000221 0.000000 0
0.000210 0.000000 0
0.000204 0.000000 0
0.000200 0.000000 0
0.000199 0.000000 0
0.000198 0.000000 0
0.000198 0.000000 0
0.000199 0.000000 0
0.000198 0.000000 0
0.000198 0.000000 0
0.000197 0.000000 0
0.000196 0.000000 0
0.000194 0.000000 0
0.000193 0.000000 0
0.000191 0.000000 0
0.000189 0.000000 0
0.000187 0.000000 0
0.000185 0.000000 0
0.000183 0.000000 0
0.000180 0.000000 0
0.000175 0.000000 0
0.000167 0.000000 0
0.000154 0.000000 0
0.000133 0.000000 0
0.000101 0.000000 0
0.000060 0.000000 0
0.000020 0.000000 0
0.000000 0.000000 0
0.000000 0.000000 0
0.000000 0.000000 0
0.000000 0.000000 0
0.000000 0.000000 0
-0.000004 0.000000 0
0.000027 0.000000 0
0.000091 0.000000 0
0.000173 0.000000 0
0.000256 0.000000 0
0.000327 0.000000 0
0.000380 0.000000 0
0.000413 0.000000 0
0.000426 0.000000 0
0.000424 0.000000 0
0.000411 0.000000 0
0.000392 0.000000 0
0.000368 0.000000 0
0.000345 0.000000 0
0.000323 0.000000 0
0.000304 0.000000 0
0.000289 0.000000 0
0.000278 0.000000 0
0.000270 0.000000 0
0.000266 0.000000 0
0.000265 0.000000 0
0.000267 0.000000 0
0.000269 0.000000 0
0.000273 0.000000 0
0.000278 0.000000 0
0.000282 0.000000 0
0.000286 0.000000 0
0.000290 0.000000 0
0.000294 0.000000 0
0.000297 0.000000 0
0.000300 0.000000 0
0.000302 0.000000 0
0.000304 0.000000 0
0.000305 0.000000 0
0.000307 0.000000 0
0.000308 0.000000 0
0.000309 0.000000 0
0.000311 0.000000 0
0.000312 0.000000 0
0.000313 0.000000 0
0.000315 0.000000 0
0.000317 0.000000 0
0.000319 0.000000 0
0.000321 0.000000 0
0.000324 0.000000 0
0.000327 0.000000 0
0.000331 0.000000 0
0.000337 0.000000 0
0.000345 0.000000 0
0.000357 0.000000 0
0.000374 0.000000 0
0.000401 0.000000 0
0.000442 0.000000 0
0.000502 0.000000 0
0.000576 0.000000 0
0.000618 0.000000 0
0.000472 0.000000 0
0.000000 0.000000 0
0.000000 -0.000062 0
0.000171 -0.000152 0
0.000429 -0.000162 0
0.000643 -0.000110 0
0.000772 -0.000050 0
0.000823 -0.000005 0
0.000820 0.000020 0
0.000788 0.000030 0
0.000747 0.000029 0
0.000709 0.000024 0
0.000679 0.000016 0
0.000659 0.000009 0
0.000647 0.000004 0
0.000642 0.000001 0
0.000640 -0.000000 0
0.000639 -0.000001 0
0.000639 -0.000000 0
0.000637 0.000000 0
0.000635 0.000001 0
0.000631 0.000001 0
0.000627 0.000002 0
0.000621 0.000002 0
0.000615 0.000003 0
0.000608 0.000003 0
0.000601 0.000003 0
0.000592 0.000003 0
0.000582 0.000004 0
0.000570 0.000005 0
0.000555 0.000007 0
0.000533 0.000012 0
0.000501 0.000020 0
0.000452 0.000034 0
0.000381 0.000052 0
0.000285 0.000072 0
0.000169 0.000080 0
0.000059 0.000060 0
0.000000 0.000020 0
0.000000 0.000000 0
0.000000 0.000000 0
0.000000 0.000000 0
0.000000 0.000004 0
0.000025 -0.000027 0
0.000149 -0.000094 0
0.000361 -0.000145 0
0.000619 -0.000164 0
0.000880 -0.000154 0
0.001108 -0.000124 0
0.001283 -0.000085 0
0.001397 -0.000046 0
0.001453 -0.000011 0
0.001460 0.000015 0
0.001430 0.000033 0
0.001375 0.000043 0
0.001306 0.000047 0
0.001233 0.000046 0
0.001162 0.000041 0
0.001099 0.000034 0
0.001047 0.000027 0
0.001007 0.000019 0
0.000979 0.000012 0
0.000963 0.000005 0
0.000956 0.000000 0
0.000957 -0.000004 0
0.000963 -0.000006 0
0.000973 -0.000008 0
0.000986 -0.000009 0
0.000999 -0.000009 0
0.001012 -0.000008 0
0.001024 -0.000007 0
0.001035 -0.000006 0
0.001044 -0.000005 0
0.001052 -0.000004 0
0.001058 -0.000004 0
0.001064 -0.000003 0
0.001068 -0.000003 0
0.001072 -0.000003 0
0.001076 -0.000002 0
0.001079 -0.000002 0
0.001083 -0.000003 0
0.001087 -0.000003 0
0.001091 -0.000003 0
0.001095 -0.000003 0
0.001100 -0.000004 0
0.001106 -0.000004 0
0.001113 -0.000005 0
0.001121 -0.000006 0
0.001131 -0.000007 0
0.001144 -0.000010 0
0.001161 -0.000014 0
0.001185 -0.000019 0
0.001217 -0.000029 0
0.001263 -0.000044 0
0.001325 -0.000068 0
0.001407 -0.000101 0
0.001501 -0.000134 0
0.001565 -0.000116 0
0.001472 0.000105 0
0.000952 0.000619 0
0.000000 0.000472 0
0.000000 -0.000172 0
0.000233 -0.000430 0
0.000595 -0.000473 0
0.000911 -0.000344 0
0.001119 -0.000181 0
0.001217 -0.000049 0
0.001235 0.000034 0
0.001206 0.000072 0
0.001157 0.000079 0
0.001107 0.000067 0
0.001066 0.000049 0
0.001038 0.000031 0
0.001020 0.000016 0
0.001010 0.000007 0
0.001005 0.000002 0
0.001003 0.000000 0
0.001000 0.000001 0
0.000996 0.000003 0
0.000991 0.000005 0
0.000984 0.000007 0
0.000974 0.000009 0
0.000964 0.000011 0
0.000951 0.000012 0
0.000937 0.000014 0
0.000921 0.000015 0
0.000903 0.000018 0
0.000881 0.000021 0
0.000855 0.000027 0
0.000822 0.000037 0
0.000778 0.000053 0
0.000717 0.000080 0
0.000634 0.000118 0
0.000522 0.000166 0
0.000381 0.000211 0
0.000223 0.000225 0
0.000078 0.000169 0
0.000000 0.000058 0
0.000000 0.000000 0
0.000000 0.000000 0
0.000000 0.000000 0
0.000000 -0.000024 0
0.000086 -0.000149 0
0.000327 -0.000336 0
0.000682 -0.000470 0
0.001093 -0.000518 0
0.001503 -0.000488 0
0.001865 -0.000403 0
0.002150 -0.000289 0
0.002346 -0.000170 0
0.002454 -0.000063 0
0.002485 0.000024 0
0.002456 0.000086 0
0.002383 0.000124 0
0.002283 0.000143 0
0.002172 0.000144 0
0.002061 0.000134 0
0.001959 0.000115 0
0.001872 0.000092 0
0.001803 0.000068 0
0.001753 0.000045 0
0.001721 0.000024 0
0.001704 0.000006 0
0.001700 -0.000007 0
0.001706 -0.000016 0
0.001718 -0.000022 0
0.001734 -0.000025 0
0.001752 -0.000026 0
0.001769 -0.000025 0
0.001786 -0.000022 0
0.001801 -0.000020 0
0.001813 -0.000017 0
0.001824 -0.000014 0
0.001832 -0.000012 0
0.001839 -0.000010 0
0.001845 -0.000008 0
0.001849 -0.000007 0
0.001853 -0.000007 0
0.001857 -0.000007 0
0.001861 -0.000007 0
0.001865 -0.000008 0
0.001869 -0.000008 0
0.001874 -0.000009 0
0.001880 -0.000011 0
0.001888 -0.000012 0
0.001896 -0.000015 0
0.001907 -0.000018 0
0.001921 -0.000023 0
0.001939 -0.000030 0
0.001961 -0.000040 0
0.001991 -0.000056 0
0.002030 -0.000078 0
0.002077 -0.000108 0
0.002130 -0.000144 0
0.002175 -0.000175 0
0.002177 -0.000158 0
0.002053 0.000029 0
0.001658 0.000613 0
0.000857 0.001472 0
0.000000 0.000952 0
0.000000 -0.000296 0
0.000247 -0.000749 0
0.000638 -0.000840 0
0.000988 -0.000634 0
0.001227 -0.000356 0
0.001351 -0.000122 0
0.001386 0.000031 0
0.001367 0.000108 0
0.001322 0.000128 0
0.001273 0.000114 0
0.001232 0.000086 0
0.001201 0.000056 0
0.001181 0.000031 0
0.001169 0.000015 0
0.001162 0.000007 0
0.001156 0.000004 0
0.001150 0.000006 0
0.001142 0.000009 0
0.001133 0.000013 0
0.001121 0.000018 0
0.001107 0.000021 0
0.001090 0.000025 0
0.001071 0.000029 0
0.001050 0.000032 0
0.001026 0.000037 0
0.000999 0.000043 0
0.000967 0.000051 0
0.000928 0.000064 0
0.000881 0.000084 0
0.000821 0.000116 0
0.000743 0.000164 0
0.000643 0.000229 0
0.000517 0.000305 0
0.000368 0.000370 0
0.000210 0.000383 0
0.000071 0.000283 0
0.000000 0.000098 0
0.000000 0.000000 0
0.000000 0.000000 0
0.000000 0.000000 0
0.000000 -0.000082 0
0.000136 -0.000353 0
0.000466 -0.000690 0
0.000920 -0.000912 0
0.001426 -0.000985 0
0.001921 -0.000925 0
0.002358 -0.000771 0
0.002705 -0.000566 0
0.002951 -0.000350 0
0.003096 -0.000151 0
0.003151 0.000013 0
0.003133 0.000136 0
0.003060 0.000216 0
0.002952 0.000258 0
0.002826 0.000268 0
0.002698 0.000254 0
0.002577 0.000223 0
0.002472 0.000182 0
0.002386 0.000138 0
0.002322 0.000094 0
0.002279 0.000055 0
0.002253 0.000021 0
0.002243 -0.000005 0
0.002243 -0.000024 0
0.002252 -0.000036 0
0.002265 -0.000042 0
0.002281 -0.000044 0
0.002297 -0.000042 0
0.002311 -0.000038 0
0.002324 -0.000034 0
0.002334 -0.000028 0
0.002342 -0.000023 0
0.002349 -0.000019 0
0.002353 -0.000015 0
0.002356 -0.000013 0
0.002358 -0.000011 0
0.002359 -0.000010 0
0.002360 -0.000010 0
0.002361 -0.000010 0
0.002362 -0.000011 0
0.002364 -0.000012 0
0.002367 -0.000014 0
0.002370 -0.000017 0
0.002375 -0.000020 0
0.002382 -0.000024 0
0.002390 -0.000030 0
0.002402 -0.000039 0
0.002416 -0.000050 0
0.002435 -0.000066 0
0.002457 -0.000088 0
0.002482 -0.000115 0
0.002505 -0.000144 0
0.002514 -0.000166 0
0.002484 -0.000147 0
0.002363 -0.000012 0
0.002070 0.000403 0
0.001503 0.001302 0
0.000664 0.002277 0
0.000000 0.001329 0
0.000000 -0.000419 0
0.000239 -0.001069 0
0.000623 -0.001215 0
0.000969 -0.000934 0
0.001208 -0.000544 0
0.001336 -0.000208 0
0.001376 0.000018 0
0.001363 0.000136 0
0.001325 0.000171 0
0.001281 0.000157 0
0.001243 0.000121 0
0.001213 0.000081 0
0.001193 0.000048 0
0.001179 0.000026 0
0.001168 0.000015 0
0.001158 0.000012 0
0.001147 0.000014 0
0.001135 0.000020 0
0.001120 0.000026 0
0.001102 0.000033 0
0.001083 0.000039 0
0.001060 0.000046 0
0.001036 0.000052 0
0.001008 0.000059 0
0.000977 0.000067 0
0.000942 0.000077 0
0.000902 0.000091 0
0.000856 0.000112 0
0.000800 0.000144 0
0.000733 0.000191 0
0.000650 0.000258 0
0.000550 0.000344 0
0.000430 0.000441 0
0.000298 0.000517 0
0.000164 0.000522 0
0.000053 0.000378 0
0.000000 0.000129 0
0.000000 0.000000 0
0.000000 0.000000 0
0.000000 0.000000 0
0.000000 -0.000160 0
0.000167 -0.000614 0
0.000557 -0.001120 0
0.001076 -0.001430 0
0.001639 -0.001520 0
0.002180 -0.001419 0
0.002652 -0.001186 0
0.003027 -0.000882 0
0.003295 -0.000561 0
0.003458 -0.000263 0
0.003526 -0.000013 0
0.003518 0.000177 0
0.003451 0.000305 0
0.003345 0.000376 0
0.003220 0.000399 0
0.003089 0.000383 0
0.002964 0.000341 0
0.002854 0.000283 0
0.002764 0.000218 0
0.002694 0.000152 0
0.002645 0.000093 0
0.002614 0.000043 0
0.002597 0.000003 0
0.002592 -0.000026 0
0.002593 -0.000044 0
0.002599 -0.000054 0
0.002607 -0.000057 0
0.002615 -0.000055 0
0.002622 -0.000050 0
0.002627 -0.000043 0
0.002630 -0.000035 0
0.002632 -0.000028 0
0.002631 -0.000022 0
0.002629 -0.000017 0
0.002626 -0.000013 0
0.002623 -0.000010 0
0.002619 -0.000009 0
0.002615 -0.000009 0
0.002611 -0.000009 0
0.002608 -0.000011 0
0.002605 -0.000013 0
0.002602 -0.000015 0
0.002601 -0.000019 0
0.002601 -0.000023 0
0.002602 -0.000030 0
0.002605 -0.000038 0
0.002609 -0.000049 0
0.002615 -0.000063 0
0.002623 -0.000081 0
0.002631 -0.000103 0
0.002634 -0.000126 0
0.002626 -0.000140 0
0.002588 -0.000122 0
0.002491 -0.000024 0
0.002284 0.000256 0
0.001900 0.000890 0
0.001284 0.002019 0
0.000509 0.002975 0
0.000000 0.001616 0
0.000000 -0.000535 0
0.000222 -0.001372 0
0.000580 -0.001571 0
0.000901 -0.001219 0
0.001121 -0.000723 0
0.001238 -0.000291 0
0.001275 0.000003 0
0.001263 0.000159 0
0.001229 0.000210 0
0.001190 0.000196 0
0.001156 0.000153 0
0.001128 0.000105 0
0.001107 0.000066 0
0.001090 0.000040 0
0.001075 0.000027 0
0.001060 0.000025 0
0.001043 0.000029 0
0.001024 0.000036 0
0.001003 0.000045 0
0.000980 0.000054 0
0.000955 0.000063 0
0.000927 0.000072 0
0.000897 0.000081 0
0.000864 0.000091 0
0.000828 0.000102 0
0.000788 0.000117 0
0.000744 0.000137 0
0.000695 0.000165 0
0.000638 0.000207 0
0.000572 0.000266 0
0.000495 0.000347 0
0.000407 0.000449 0
0.000308 0.000556 0
0.000204 0.000636 0
0.000107 0.000627 0
0.000032 0.000446 0
0.000000 0.000151 0
0.000000 0.000000 0
0.000000 0.000000 0
0.000000 0.000000 0
0.000000 -0.000249 0
0.000184 -0.000910 0
0.000609 -0.001598 0
0.001165 -0.001993 0
0.001757 -0.002089 0
0.002316 -0.001938 0
0.002795 -0.001618 0
0.003172 -0.001209 0
0.003439 -0.000780 0
0.003601 -0.000382 0
0.003671 -0.000046 0
0.003666 0.000212 0
0.003604 0.000388 0
0.003505 0.000489 0
0.003385 0.000525 0
0.003261 0.000510 0
0.003142 0.000458 0
0.003037 0.000383 0
0.002950 0.000298 0
0.002882 0.000213 0
0.002833 0.000135 0
0.002798 0.000069 0
0.002776 0.000018 0
0.002762 -0.000020 0
0.002754 -0.000043 0
0.002749 -0.000056 0
0.002745 -0.000060 0
0.002740 -0.000057 0
0.002735 -0.000051 0
0.002728 -0.000042 0
0.002720 -0.000033 0
0.002711 -0.000024 0
0.002701 -0.000017 0
0.002691 -0.000011 0
0.002680 -0.000006 0
0.002669 -0.000003 0
0.002658 -0.000002 0
0.002648 -0.000002 0
0.002638 -0.000003 0
0.002629 -0.000004 0
0.002620 -0.000007 0
0.002612 -0.000011 0
0.002605 -0.000015 0
0.002598 -0.000021 0
0.002592 -0.000028 0
0.002587 -0.000037 0
0.002582 -0.000049 0
0.002578 -0.000064 0
0.002572 -0.000081 0
0.002564 -0.000099 0
0.002547 -0.000110 0
0.002513 -0.000098 0
0.002443 -0.000031 0
0.002308 0.000157 0
0.002064 0.000579 0
0.001659 0.001403 0
0.001069 0.002693 0
0.000391 0.003561 0
0.000000 0.001838 0
0.000000 -0.000642 0
0.000202 -0.001649 0
0.000523 -0.001894 0
0.000808 -0.001476 0
0.001000 -0.000882 0
0.001098 -0.000362 0
0.001126 -0.000007 0
0.001112 0.000182 0
0.001080 0.000244 0
0.001045 0.000231 0
0.001014 0.000182 0
0.000987 0.000129 0
0.000965 0.000085 0
0.000944 0.000058 0
0.000924 0.000045 0
0.000902 0.000044 0
0.000879 0.000050 0
0.000854 0.000059 0
0.000827 0.000070 0
0.000798 0.000081 0
0.000768 0.000092 0
0.000735 0.000103 0
0.000701 0.000115 0
0.000664 0.000127 0
0.000625 0.000142 0
0.000584 0.000160 0
0.000539 0.000185 0
0.000491 0.000218 0
0.000439 0.000266 0
0.000381 0.000333 0
0.000318 0.000423 0
0.000249 0.000532 0
0.000178 0.000643 0
0.000110 0.000718 0
0.000052 0.000693 0
0.000013 0.000485 0
0.000000 0.000162 0
0.000000 0.000000 0
0.000000 0.000000 0
0.000000 0.000000 0
0.000000 -0.000343 0
0.000192 -0.001223 0
0.000634 -0.002101 0
0.001205 -0.002577 0
0.001804 -0.002670 0
0.002358 -0.002457 0
0.002822 -0.002042 0
0.003180 -0.001525 0
0.003428 -0.000990 0
0.003575 -0.000495 0
0.003635 -0.000077 0
0.003625 0.000245 0
0.003564 0.000467 0
0.003471 0.000595 0
0.003360 0.000643 0
0.003246 0.000627 0
0.003138 0.000565 0
0.003043 0.000475 0
0.002964 0.000373 0
0.002901 0.000270 0
0.002853 0.000177 0
0.002816 0.000100 0
0.002787 0.000039 0
0.002764 -0.000004 0
0.002743 -0.000031 0
0.002723 -0.000044 0
0.002703 -0.000048 0
0.002683 -0.000045 0
0.002662 -0.000037 0
0.002641 -0.000028 0
0.002620 -0.000018 0
0.002598 -0.000009 0
0.002578 -0.000001 0
0.002558 0.000005 0
0.002538 0.000009 0
0.002520 0.000011 0
0.002502 0.000012 0
0.002486 0.000012 0
0.002470 0.000010 0
0.002455 0.000008 0
0.002441 0.000004 0
0.002428 0.000000 0
0.002414 -0.000005 0
0.002402 -0.000011 0
0.002389 -0.000018 0
0.002376 -0.000028 0
0.002362 -0.000039 0
0.002348 -0.000053 0
0.002331 -0.000067 0
0.002310 -0.000078 0
0.002280 -0.000075 0
0.002233 -0.000035 0
0.002152 0.000083 0
0.002011 0.000356 0
0.001774 0.000905 0
0.001397 0.001885 0
0.000870 0.003288 0
0.000298 0.004044 0
0.000000 0.002008 0
0.000000 -0.000738 0
0.000180 -0.001896 0
0.000461 -0.002177 0
0.000705 -0.001696 0
0.000863 -0.001013 0
0.000939 -0.000417 0
0.000956 -0.000011 0
0.000939 0.000204 0
0.000909 0.000277 0
0.000876 0.000262 0
0.000847 0.000211 0
0.000820 0.000154 0
0.000795 0.000108 0
0.000770 0.000081 0
0.000744 0.000069 0
0.000717 0.000069 0
0.000687 0.000077 0
0.000656 0.000088 0
0.000624 0.000100 0
0.000591 0.000113 0
0.000556 0.000126 0
0.000521 0.000138 0
0.000484 0.000152 0
0.000446 0.000166 0
0.000406 0.000183 0
0.000366 0.000203 0
0.000324 0.000230 0
0.000281 0.000266 0
0.000237 0.000317 0
0.000192 0.000387 0
0.000146 0.000479 0
0.000101 0.000588 0
0.000060 0.000695 0
0.000027 0.000762 0
0.000006 0.000723 0
-0.000002 0.000498 0
0.000000 0.000164 0
0.000000 0.000000 0
0.000000 0.000000 0
0.000000 0.000000 0
0.000000 -0.000440 0
0.000194 -0.001543 0
0.000641 -0.002611 0
0.001212 -0.003163 0
0.001798 -0.003242 0
0.002327 -0.002956 0
0.002759 -0.002440 0
0.003081 -0.001814 0
0.003295 -0.001175 0
0.003415 -0.000589 0
0.003457 -0.000097 0
0.003436 0.000282 0
0.003373 0.000543 0
0.003282 0.000694 0
0.003179 0.000750 0
0.003075 0.000732 0
0.002979 0.000660 0
0.002895 0.000557 0
0.002824 0.000440 0
0.002766 0.000324 0
0.002717 0.000221 0
0.002675 0.000135 0
0.002636 0.000070 0
0.002599 0.000025 0
0.002562 -0.000003 0
0.002525 -0.000016 0
0.002487 -0.000019 0
0.002449 -0.000016 0
0.002411 -0.000008 0
0.002375 0.000001 0
0.002341 0.000010 0
0.002309 0.000018 0
0.002279 0.000024 0
0.002251 0.000029 0
0.002225 0.000032 0
0.002201 0.000033 0
0.002179 0.000032 0
0.002158 0.000031 0
0.002138 0.000028 0
0.002120 0.000025 0
0.002102 0.000021 0
0.002085 0.000016 0
0.002068 0.000011 0
0.002051 0.000005 0
0.002033 -0.000002 0
0.002014 -0.000010 0
0.001994 -0.000021 0
0.001971 -0.000032 0
0.001947 -0.000043 0
0.001920 -0.000048 0
0.001887 -0.000033 0
0.001842 0.000030 0
0.001773 0.000191 0
0.001656 0.000536 0
0.001456 0.001194 0
0.001135 0.002306 0
0.000689 0.003791 0
0.000222 0.004431 0
0.000000 0.002136 0
0.000000 -0.000822 0
0.000158 -0.002111 0
0.000398 -0.002419 0
0.000600 -0.001879 0
0.000724 -0.001116 0
0.000778 -0.000455 0
0.000783 -0.000007 0
0.000762 0.000229 0
0.000733 0.000307 0
0.000703 0.000292 0
0.000675 0.000238 0
0.000648 0.000180 0
0.000620 0.000135 0
0.000591 0.000108 0
0.000560 0.000099 0
0.000526 0.000101 0
0.000492 0.000110 0
0.000456 0.000122 0
0.000420 0.000135 0
0.000384 0.000149 0
0.000347 0.000162 0
0.000310 0.000175 0
0.000272 0.000189 0
0.000235 0.000205 0
0.000197 0.000222 0
0.000160 0.000242 0
0.000124 0.000269 0
0.000089 0.000305 0
0.000055 0.000355 0
0.000024 0.000424 0
-0.000003 0.000513 0
-0.000024 0.000617 0
-0.000037 0.000716 0
-0.000039 0.000771 0
-0.000029 0.000722 0
-0.000012 0.000491 0
0.000000 0.000160 0
0.000000 0.000000 0
0.000000 0.000000 0
0.000000 0.000000 0
0.000000 -0.000538 0
0.000194 -0.001864 0
0.000637 -0.003118 0
0.001192 -0.003734 0
0.001750 -0.003785 0
0.002239 -0.003418 0
0.002624 -0.002796 0
0.002898 -0.002062 0
0.003070 -0.001324 0
0.003155 -0.000656 0
0.003171 -0.000098 0
0.003135 0.000329 0
0.003063 0.000621 0
0.002972 0.000789 0
0.002873 0.000850 0
0.002777 0.000827 0
0.002688 0.000745 0
0.002610 0.000630 0
0.002542 0.000502 0
0.002483 0.000378 0
0.002428 0.000269 0
0.002374 0.000180 0
0.002320 0.000115 0
0.002265 0.000071 0
0.002209 0.000044 0
0.002152 0.000031 0
0.002096 0.000028 0
0.002043 0.000030 0
0.001992 0.000036 0
0.001945 0.000043 0
0.001902 0.000049 0
0.001863 0.000054 0
0.001828 0.000057 0
0.001797 0.000059 0
0.001769 0.000059 0
0.001743 0.000058 0
0.001720 0.000055 0
0.001699 0.000052 0
0.001680 0.000048 0
0.001661 0.000044 0
0.001643 0.000039 0
0.001626 0.000035 0
0.001608 0.000030 0
0.001590 0.000024 0
0.001570 0.000019 0
0.001548 0.000012 0
0.001524 0.000004 0
0.001498 -0.000006 0
0.001472 -0.000015 0
0.001446 -0.000018 0
0.001421 0.000003 0
0.001394 0.000078 0
0.001356 0.000270 0
0.001282 0.000674 0
0.001138 0.001426 0
0.000887 0.002652 0
0.000527 0.004201 0
0.000157 0.004733 0
0.000000 0.002230 0
0.000000 -0.000896 0
0.000137 -0.002295 0
0.000339 -0.002620 0
0.000500 -0.002023 0
0.000591 -0.001191 0
0.000623 -0.000475 0
0.000618 0.000004 0
0.000595 0.000254 0
0.000566 0.000336 0
0.000538 0.000321 0
0.000511 0.000266 0
0.000483 0.000208 0
0.000453 0.000165 0
0.000420 0.000141 0
0.000385 0.000133 0
0.000348 0.000137 0
0.000310 0.000147 0
0.000272 0.000159 0
0.000234 0.000173 0
0.000196 0.000186 0
0.000159 0.000199 0
0.000122 0.000213 0
0.000086 0.000226 0
0.000051 0.000241 0
0.000017 0.000257 0
-0.000015 0.000276 0
-0.000044 0.000301 0
-0.000070 0.000334 0
-0.000092 0.000381 0
-0.000109 0.000445 0
-0.000119 0.000527 0
-0.000119 0.000622 0
-0.000108 0.000710 0
-0.000085 0.000753 0
-0.000053 0.000697 0
-0.000019 0.000469 0
0.000000 0.000151 0
0.000000 0.000000 0
0.000000 0.000000 0
0.000000 0.000000 0
0.000000 -0.000634 0
0.000192 -0.002180 0
0.000623 -0.003609 0
0.001152 -0.004276 0
0.001669 -0.004288 0
0.002105 -0.003830 0
0.002433 -0.003099 0
0.002652 -0.002260 0
0.002775 -0.001432 0
0.002821 -0.000690 0
0.002807 -0.000076 0
0.002751 0.000389 0
0.002667 0.000706 0
0.002569 0.000884 0
0.002468 0.000946 0
0.002370 0.000917 0
0.002279 0.000827 0
0.002197 0.000703 0
0.002122 0.000567 0
0.002050 0.000439 0
0.001979 0.000329 0
0.001906 0.000242 0
0.001831 0.000179 0
0.001756 0.000137 0
0.001681 0.000111 0
0.001608 0.000097 0
0.001540 0.000090 0
0.001478 0.000089 0
0.001422 0.000090 0
0.001372 0.000091 0
0.001329 0.000092 0
0.001292 0.000092 0
0.001260 0.000091 0
0.001232 0.000089 0
0.001208 0.000085 0
0.001187 0.000081 0
0.001169 0.000077 0
0.001152 0.000072 0
0.001137 0.000066 0
0.001123 0.000061 0
0.001109 0.000056 0
0.001096 0.000052 0
0.001081 0.000047 0
0.001065 0.000044 0
0.001047 0.000040 0
0.001026 0.000036 0
0.001003 0.000029 0
0.000979 0.000020 0