# vtk DataFile Version 2.0
generated by CFD-lab course output (written by Tobias Neckel) 
ASCII

DATASET STRUCTURED_GRID
DIMENSIONS  99 49 1 
POINTS 4851 float

0.000000 0.000000 0
0.020000 0.000000 0
0.040000 0.000000 0
0.060000 0.000000 0
0.080000 0.000000 0
0.100000 0.000000 0
0.120000 0.000000 0
0.140000 0.000000 0
0.160000 0.000000 0
0.180000 0.000000 0
0.200000 0.000000 0
0.220000 0.000000 0
0.240000 0.000000 0
0.260000 0.000000 0
0.280000 0.000000 0
0.300000 0.000000 0
0.320000 0.000000 0
0.340000 0.000000 0
0.360000 0.000000 0
0.380000 0.000000 0
0.400000 0.000000 0
0.420000 0.000000 0
0.440000 0.000000 0
0.460000 0.000000 0
0.480000 0.000000 0
0.500000 0.000000 0
0.520000 0.000000 0
0.540000 0.000000 0
0.560000 0.000000 0
0.580000 0.000000 0
0.600000 0.000000 0
0.620000 0.000000 0
0.640000 0.000000 0
0.660000 0.000000 0
0.680000 0.000000 0
0.700000 0.000000 0
0.720000 0.000000 0
0.740000 0.000000 0
0.760000 0.000000 0
0.780000 0.000000 0
0.800000 0.000000 0
0.820000 0.000000 0
0.840000 0.000000 0
0.860000 0.000000 0
0.880000 0.000000 0
0.900000 0.000000 0
0.920000 0.000000 0
0.940000 0.000000 0
0.960000 0.000000 0
0.980000 0.000000 0
1.000000 0.000000 0
1.020000 0.000000 0
1.040000 0.000000 0
1.060000 0.000000 0
1.080000 0.000000 0
1.100000 0.000000 0
1.120000 0.000000 0
1.140000 0.000000 0
1.160000 0.000000 0
1.180000 0.000000 0
1.200000 0.000000 0
1.220000 0.000000 0
1.240000 0.000000 0
1.260000 0.000000 0
1.280000 0.000000 0
1.300000 0.000000 0
1.320000 0.000000 0
1.340000 0.000000 0
1.360000 0.000000 0
1.380000 0.000000 0
1.400000 0.000000 0
1.420000 0.000000 0
1.440000 0.000000 0
1.460000 0.000000 0
1.480000 0.000000 0
1.500000 0.000000 0
1.520000 0.000000 0
1.540000 0.000000 0
1.560000 0.000000 0
1.580000 0.000000 0
1.600000 0.000000 0
1.620000 0.000000 0
1.640000 0.000000 0
1.660000 0.000000 0
1.680000 0.000000 0
1.700000 0.000000 0
1.720000 0.000000 0
1.740000 0.000000 0
1.760000 0.000000 0
1.780000 0.000000 0
1.800000 0.000000 0
1.820000 0.000000 0
1.840000 0.000000 0
1.860000 0.000000 0
1.880000 0.000000 0
1.900000 0.000000 0
1.920000 0.000000 0
1.940000 0.000000 0
1.960000 0.000000 0
0.000000 0.020000 0
0.020000 0.020000 0
0.040000 0.020000 0
0.060000 0.020000 0
0.080000 0.020000 0
0.100000 0.020000 0
0.120000 0.020000 0
0.140000 0.020000 0
0.160000 0.020000 0
0.180000 0.020000 0
0.200000 0.020000 0
0.220000 0.020000 0
0.240000 0.020000 0
0.260000 0.020000 0
0.280000 0.020000 0
0.300000 0.020000 0
0.320000 0.020000 0
0.340000 0.020000 0
0.360000 0.020000 0
0.380000 0.020000 0
0.400000 0.020000 0
0.420000 0.020000 0
0.440000 0.020000 0
0.460000 0.020000 0
0.480000 0.020000 0
0.500000 0.020000 0
0.520000 0.020000 0
0.540000 0.020000 0
0.560000 0.020000 0
0.580000 0.020000 0
0.600000 0.020000 0
0.620000 0.020000 0
0.640000 0.020000 0
0.660000 0.020000 0
0.680000 0.020000 0
0.700000 0.020000 0
0.720000 0.020000 0
0.740000 0.020000 0
0.760000 0.020000 0
0.780000 0.020000 0
0.800000 0.020000 0
0.820000 0.020000 0
0.840000 0.020000 0
0.860000 0.020000 0
0.880000 0.020000 0
0.900000 0.020000 0
0.920000 0.020000 0
0.940000 0.020000 0
0.960000 0.020000 0
0.980000 0.020000 0
1.000000 0.020000 0
1.020000 0.020000 0
1.040000 0.020000 0
1.060000 0.020000 0
1.080000 0.020000 0
1.100000 0.020000 0
1.120000 0.020000 0
1.140000 0.020000 0
1.160000 0.020000 0
1.180000 0.020000 0
1.200000 0.020000 0
1.220000 0.020000 0
1.240000 0.020000 0
1.260000 0.020000 0
1.280000 0.020000 0
1.300000 0.020000 0
1.320000 0.020000 0
1.340000 0.020000 0
1.360000 0.020000 0
1.380000 0.020000 0
1.400000 0.020000 0
1.420000 0.020000 0
1.440000 0.020000 0
1.460000 0.020000 0
1.480000 0.020000 0
1.500000 0.020000 0
1.520000 0.020000 0
1.540000 0.020000 0
1.560000 0.020000 0
1.580000 0.020000 0
1.600000 0.020000 0
1.620000 0.020000 0
1.640000 0.020000 0
1.660000 0.020000 0
1.680000 0.020000 0
1.700000 0.020000 0
1.720000 0.020000 0
1.740000 0.020000 0
1.760000 0.020000 0
1.780000 0.020000 0
1.800000 0.020000 0
1.820000 0.020000 0
1.840000 0.020000 0
1.860000 0.020000 0
1.880000 0.020000 0
1.900000 0.020000 0
1.920000 0.020000 0
1.940000 0.020000 0
1.960000 0.020000 0
0.000000 0.040000 0
0.020000 0.040000 0
0.040000 0.040000 0
0.060000 0.040000 0
0.080000 0.040000 0
0.100000 0.040000 0
0.120000 0.040000 0
0.140000 0.040000 0
0.160000 0.040000 0
0.180000 0.040000 0
0.200000 0.040000 0
0.220000 0.040000 0
0.240000 0.040000 0
0.260000 0.040000 0
0.280000 0.040000 0
0.300000 0.040000 0
0.320000 0.040000 0
0.340000 0.040000 0
0.360000 0.040000 0
0.380000 0.040000 0
0.400000 0.040000 0
0.420000 0.040000 0
0.440000 0.040000 0
0.460000 0.040000 0
0.480000 0.040000 0
0.500000 0.040000 0
0.520000 0.040000 0
0.540000 0.040000 0
0.560000 0.040000 0
0.580000 0.040000 0
0.600000 0.040000 0
0.620000 0.040000 0
0.640000 0.040000 0
0.660000 0.040000 0
0.680000 0.040000 0
0.700000 0.040000 0
0.720000 0.040000 0
0.740000 0.040000 0
0.760000 0.040000 0
0.780000 0.040000 0
0.800000 0.040000 0
0.820000 0.040000 0
0.840000 0.040000 0
0.860000 0.040000 0
0.880000 0.040000 0
0.900000 0.040000 0
0.920000 0.040000 0
0.940000 0.040000 0
0.960000 0.040000 0
0.980000 0.040000 0
1.000000 0.040000 0
1.020000 0.040000 0
1.040000 0.040000 0
1.060000 0.040000 0
1.080000 0.040000 0
1.100000 0.040000 0
1.120000 0.040000 0
1.140000 0.040000 0
1.160000 0.040000 0
1.180000 0.040000 0
1.200000 0.040000 0
1.220000 0.040000 0
1.240000 0.040000 0
1.260000 0.040000 0
1.280000 0.040000 0
1.300000 0.040000 0
1.320000 0.040000 0
1.340000 0.040000 0
1.360000 0.040000 0
1.380000 0.040000 0
1.400000 0.040000 0
1.420000 0.040000 0
1.440000 0.040000 0
1.460000 0.040000 0
1.480000 0.040000 0
1.500000 0.040000 0
1.520000 0.040000 0
1.540000 0.040000 0
1.560000 0.040000 0
1.580000 0.040000 0
1.600000 0.040000 0
1.620000 0.040000 0
1.640000 0.040000 0
1.660000 0.040000 0
1.680000 0.040000 0
1.700000 0.040000 0
1.720000 0.040000 0
1.740000 0.040000 0
1.760000 0.040000 0
1.780000 0.040000 0
1.800000 0.040000 0
1.820000 0.040000 0
1.840000 0.040000 0
1.860000 0.040000 0
1.880000 0.040000 0
1.900000 0.040000 0
1.920000 0.040000 0
1.940000 0.040000 0
1.960000 0.040000 0
0.000000 0.060000 0
0.020000 0.060000 0
0.040000 0.060000 0
0.060000 0.060000 0
0.080000 0.060000 0
0.100000 0.060000 0
0.120000 0.060000 0
0.140000 0.060000 0
0.160000 0.060000 0
0.180000 0.060000 0
0.200000 0.060000 0
0.220000 0.060000 0
0.240000 0.060000 0
0.260000 0.060000 0
0.280000 0.060000 0
0.300000 0.060000 0
0.320000 0.060000 0
0.340000 0.060000 0
0.360000 0.060000 0
0.380000 0.060000 0
0.400000 0.060000 0
0.420000 0.060000 0
0.440000 0.060000 0
0.460000 0.060000 0
0.480000 0.060000 0
0.500000 0.060000 0
0.520000 0.060000 0
0.540000 0.060000 0
0.560000 0.060000 0
0.580000 0.060000 0
0.600000 0.060000 0
0.620000 0.060000 0
0.640000 0.060000 0
0.660000 0.060000 0
0.680000 0.060000 0
0.700000 0.060000 0
0.720000 0.060000 0
0.740000 0.060000 0
0.760000 0.060000 0
0.780000 0.060000 0
0.800000 0.060000 0
0.820000 0.060000 0
0.840000 0.060000 0
0.860000 0.060000 0
0.880000 0.060000 0
0.900000 0.060000 0
0.920000 0.060000 0
0.940000 0.060000 0
0.960000 0.060000 0
0.980000 0.060000 0
1.000000 0.060000 0
1.020000 0.060000 0
1.040000 0.060000 0
1.060000 0.060000 0
1.080000 0.060000 0
1.100000 0.060000 0
1.120000 0.060000 0
1.140000 0.060000 0
1.160000 0.060000 0
1.180000 0.060000 0
1.200000 0.060000 0
1.220000 0.060000 0
1.240000 0.060000 0
1.260000 0.060000 0
1.280000 0.060000 0
1.300000 0.060000 0
1.320000 0.060000 0
1.340000 0.060000 0
1.360000 0.060000 0
1.380000 0.060000 0
1.400000 0.060000 0
1.420000 0.060000 0
1.440000 0.060000 0
1.460000 0.060000 0
1.480000 0.060000 0
1.500000 0.060000 0
1.520000 0.060000 0
1.540000 0.060000 0
1.560000 0.060000 0
1.580000 0.060000 0
1.600000 0.060000 0
1.620000 0.060000 0
1.640000 0.060000 0
1.660000 0.060000 0
1.680000 0.060000 0
1.700000 0.060000 0
1.720000 0.060000 0
1.740000 0.060000 0
1.760000 0.060000 0
1.780000 0.060000 0
1.800000 0.060000 0
1.820000 0.060000 0
1.840000 0.060000 0
1.860000 0.060000 0
1.880000 0.060000 0
1.900000 0.060000 0
1.920000 0.060000 0
1.940000 0.060000 0
1.960000 0.060000 0
0.000000 0.080000 0
0.020000 0.080000 0
0.040000 0.080000 0
0.060000 0.080000 0
0.080000 0.080000 0
0.100000 0.080000 0
0.120000 0.080000 0
0.140000 0.080000 0
0.160000 0.080000 0
0.180000 0.080000 0
0.200000 0.080000 0
0.220000 0.080000 0
0.240000 0.080000 0
0.260000 0.080000 0
0.280000 0.080000 0
0.300000 0.080000 0
0.320000 0.080000 0
0.340000 0.080000 0
0.360000 0.080000 0
0.380000 0.080000 0
0.400000 0.080000 0
0.420000 0.080000 0
0.440000 0.080000 0
0.460000 0.080000 0
0.480000 0.080000 0
0.500000 0.080000 0
0.520000 0.080000 0
0.540000 0.080000 0
0.560000 0.080000 0
0.580000 0.080000 0
0.600000 0.080000 0
0.620000 0.080000 0
0.640000 0.080000 0
0.660000 0.080000 0
0.680000 0.080000 0
0.700000 0.080000 0
0.720000 0.080000 0
0.740000 0.080000 0
0.760000 0.080000 0
0.780000 0.080000 0
0.800000 0.080000 0
0.820000 0.080000 0
0.840000 0.080000 0
0.860000 0.080000 0
0.880000 0.080000 0
0.900000 0.080000 0
0.920000 0.080000 0
0.940000 0.080000 0
0.960000 0.080000 0
0.980000 0.080000 0
1.000000 0.080000 0
1.020000 0.080000 0
1.040000 0.080000 0
1.060000 0.080000 0
1.080000 0.080000 0
1.100000 0.080000 0
1.120000 0.080000 0
1.140000 0.080000 0
1.160000 0.080000 0
1.180000 0.080000 0
1.200000 0.080000 0
1.220000 0.080000 0
1.240000 0.080000 0
1.260000 0.080000 0
1.280000 0.080000 0
1.300000 0.080000 0
1.320000 0.080000 0
1.340000 0.080000 0
1.360000 0.080000 0
1.380000 0.080000 0
1.400000 0.080000 0
1.420000 0.080000 0
1.440000 0.080000 0
1.460000 0.080000 0
1.480000 0.080000 0
1.500000 0.080000 0
1.520000 0.080000 0
1.540000 0.080000 0
1.560000 0.080000 0
1.580000 0.080000 0
1.600000 0.080000 0
1.620000 0.080000 0
1.640000 0.080000 0
1.660000 0.080000 0
1.680000 0.080000 0
1.700000 0.080000 0
1.720000 0.080000 0
1.740000 0.080000 0
1.760000 0.080000 0
1.780000 0.080000 0
1.800000 0.080000 0
1.820000 0.080000 0
1.840000 0.080000 0
1.860000 0.080000 0
1.880000 0.080000 0
[...]
POINT_DATA 4851 

VECTORS velocity float
0.000000 0.000000 0
0.000043 0.000000 0
0.000112 0.000000 0
0.000169 0.000000 0
0.000204 0.000000 0
0.000217 0.000000 0
0.000216 0.000000 0
0.000207 0.000000 0
0.000196 0.000000 0
0.000186 0.000000 0
0.000177 0.000000 0
0.000171 0.000000 0
0.000167 0.000000 0
0.000165 0.000000 0
0.000164 0.000000 0
0.000163 0.000000 0
0.000163 0.000000 0
0.000163 0.000000 0
0.000162 0.000000 0
0.000161 0.000000 0
0.000160 0.000000 0
0.000159 0.000000 0
0.000158 0.000000 0
0.000156 0.000000 0
0.000155 0.000000 0
0.000153 0.000000 0
0.000151 0.000000 0
0.000148 0.000000 0
0.000145 0.000000 0
0.000140 0.000000 0
0.000132 0.000000 0
0.000119 0.000000 0
0.000100 0.000000 0
0.000074 0.000000 0
0.000043 0.000000 0
0.000014 0.000000 0
0.000000 0.000000 0
0.000000 0.000000 0
0.000000 0.000000 0
0.000000 0.000000 0
0.000000 0.000000 0
0.000003 0.000000 0
0.000041 0.000000 0
0.000108 0.000000 0
0.000187 0.000000 0
0.000264 0.000000 0
0.000328 0.000000 0
0.000373 0.000000 0
0.000397 0.000000 0
0.000404 0.000000 0
0.000396 0.000000 0
0.000378 0.000000 0
0.000355 0.000000 0
0.000330 0.000000 0
0.000304 0.000000 0
0.000282 0.000000 0
0.000262 0.000000 0
0.000246 0.000000 0
0.000235 0.000000 0
0.000227 0.000000 0
0.000223 0.000000 0
0.000221 0.000000 0
0.000222 0.000000 0
0.000224 0.000000 0
0.000226 0.000000 0
0.000229 0.000000 0
0.000232 0.000000 0
0.000235 0.000000 0
0.000237 0.000000 0
0.000239 0.000000 0
0.000240 0.000000 0
0.000241 0.000000 0
0.000242 0.000000 0
0.000243 0.000000 0
0.000243 0.000000 0
0.000244 0.000000 0
0.000244 0.000000 0
0.000245 0.000000 0
0.000246 0.000000 0
0.000247 0.000000 0
0.000249 0.000000 0
0.000251 0.000000 0
0.000253 0.000000 0
0.000256 0.000000 0
0.000259 0.000000 0
0.000264 0.000000 0
0.000269 0.000000 0
0.000276 0.000000 0
0.000285 0.000000 0
0.000297 0.000000 0
0.000313 0.000000 0
0.000337 0.000000 0
0.000371 0.000000 0
0.000420 0.000000 0
0.000491 0.000000 0
0.000579 0.000000 0
0.000636 0.000000 0
0.000496 0.000000 0
0.000000 0.000000 0
0.000000 -0.000044 0
0.000124 -0.000113 0
0.000321 -0.000127 0
0.000494 -0.000092 0
0.000607 -0.000048 0
0.000660 -0.000013 0
0.000669 0.000009 0
0.000653 0.000019 0
0.000626 0.000021 0
0.000597 0.000018 0
0.000573 0.000014 0
0.000555 0.000009 0
0.000543 0.000005 0
0.000536 0.000003 0
0.000532 0.000001 0
0.000530 0.000000 0
0.000528 0.000000 0
0.000526 0.000000 0
0.000524 0.000001 0
0.000521 0.000001 0
0.000517 0.000002 0
0.000512 0.000002 0
0.000507 0.000002 0
0.000501 0.000002 0
0.000494 0.000003 0
0.000486 0.000003 0
0.000477 0.000004 0
0.000465 0.000005 0
0.000450 0.000008 0
0.000429 0.000012 0
0.000398 0.000020 0
0.000353 0.000031 0
0.000292 0.000044 0
0.000213 0.000057 0
0.000123 0.000060 0
0.000041 0.000042 0
0.000000 0.000013 0
0.000000 0.000000 0
0.000000 0.000000 0
0.000000 0.000000 0
0.000000 -0.000003 0
0.000038 -0.000041 0
0.000177 -0.000104 0
0.000394 -0.000145 0
0.000646 -0.000156 0
0.000892 -0.000141 0
0.001100 -0.000108 0
0.001252 -0.000069 0
0.001343 -0.000031 0
0.001378 0.000001 0
0.001367 0.000025 0
0.001322 0.000041 0
0.001255 0.000049 0
0.001177 0.000051 0
0.001098 0.000048 0
0.001024 0.000043 0
0.000959 0.000035 0
0.000905 0.000027 0
0.000865 0.000019 0
0.000837 0.000012 0
0.000819 0.000006 0
0.000811 0.000001 0
0.000810 -0.000002 0
0.000813 -0.000004 0
0.000820 -0.000005 0
0.000828 -0.000006 0
0.000836 -0.000005 0
0.000844 -0.000005 0
0.000851 -0.000004 0
0.000856 -0.000003 0
0.000860 -0.000002 0
0.000863 -0.000002 0
0.000865 -0.000001 0
0.000867 -0.000001 0
0.000868 -0.000001 0
0.000869 -0.000001 0
0.000871 -0.000001 0
0.000873 -0.000001 0
0.000875 -0.000002 0
0.000879 -0.000002 0
0.000883 -0.000003 0
0.000889 -0.000004 0
0.000895 -0.000005 0
0.000904 -0.000006 0
0.000915 -0.000008 0
0.000928 -0.000009 0
0.000945 -0.000012 0
0.000966 -0.000016 0
0.000994 -0.000021 0
0.001029 -0.000028 0
0.001077 -0.000039 0
0.001139 -0.000057 0
0.001223 -0.000083 0
0.001330 -0.000120 0
0.001455 -0.000158 0
0.001556 -0.000145 0
0.001497 0.000083 0
0.000991 0.000636 0
0.000000 0.000497 0
0.000000 -0.000125 0
0.000173 -0.000323 0
0.000452 -0.000370 0
0.000707 -0.000286 0
0.000885 -0.000167 0
0.000981 -0.000064 0
0.001012 0.000006 0
0.001002 0.000043 0
0.000972 0.000055 0
0.000936 0.000052 0
0.000903 0.000041 0
0.000878 0.000029 0
0.000860 0.000018 0
0.000849 0.000010 0
0.000842 0.000005 0
0.000837 0.000003 0
0.000834 0.000003 0
0.000829 0.000003 0
0.000824 0.000005 0
0.000818 0.000006 0
0.000810 0.000008 0
0.000800 0.000009 0
0.000790 0.000011 0
0.000777 0.000012 0
0.000763 0.000014 0
0.000747 0.000016 0
0.000728 0.000020 0
0.000704 0.000026 0
0.000673 0.000036 0
0.000632 0.000051 0
0.000576 0.000074 0
0.000502 0.000105 0
0.000407 0.000140 0
0.000291 0.000168 0
0.000167 0.000171 0
0.000057 0.000122 0
0.000000 0.000041 0
0.000000 0.000000 0
0.000000 0.000000 0
0.000000 0.000000 0
0.000000 -0.000037 0
0.000094 -0.000176 0
0.000344 -0.000355 0
0.000701 -0.000469 0
0.001106 -0.000498 0
0.001499 -0.000454 0
0.001837 -0.000360 0
0.002092 -0.000243 0
0.002256 -0.000126 0
0.002333 -0.000023 0
0.002336 0.000057 0
0.002283 0.000112 0
0.002190 0.000145 0
0.002076 0.000157 0
0.001954 0.000154 0
0.001836 0.000140 0
0.001731 0.000118 0
0.001643 0.000094 0
0.001573 0.000069 0
0.001523 0.000046 0
0.001490 0.000026 0
0.001471 0.000010 0
0.001465 -0.000002 0
0.001466 -0.000010 0
0.001473 -0.000014 0
0.001483 -0.000016 0
0.001493 -0.000016 0
0.001503 -0.000014 0
0.001512 -0.000012 0
0.001519 -0.000009 0
0.001524 -0.000007 0
0.001527 -0.000005 0
0.001529 -0.000003 0
0.001531 -0.000003 0
0.001531 -0.000002 0
0.001532 -0.000002 0
0.001533 -0.000003 0
0.001534 -0.000004 0
0.001537 -0.000006 0
0.001541 -0.000007 0
0.001546 -0.000009 0
0.001553 -0.000012 0
0.001563 -0.000015 0
0.001574 -0.000019 0
0.001589 -0.000024 0
0.001608 -0.000030 0
0.001632 -0.000038 0
0.001662 -0.000048 0
0.001700 -0.000063 0
0.001748 -0.000082 0
0.001807 -0.000110 0
0.001879 -0.000146 0
0.001962 -0.000191 0
0.002044 -0.000232 0
0.002088 -0.000225 0
0.002011 -0.000042 0
0.001657 0.000566 0
0.000871 0.001498 0
0.000000 0.000991 0
0.000000 -0.000218 0
0.000186 -0.000566 0
0.000490 -0.000660 0
0.000772 -0.000525 0
0.000976 -0.000322 0
0.001093 -0.000141 0
0.001139 -0.000013 0
0.001138 0.000059 0
0.001113 0.000087 0
0.001079 0.000087 0
0.001046 0.000072 0
0.001020 0.000052 0
0.001001 0.000034 0
0.000988 0.000020 0
0.000979 0.000012 0
0.000972 0.000008 0
0.000966 0.000008 0
0.000959 0.000009 0
0.000950 0.000012 0
0.000940 0.000015 0
0.000928 0.000018 0
0.000914 0.000022 0
0.000898 0.000025 0
0.000880 0.000028 0
0.000859 0.000033 0
0.000835 0.000038 0
0.000807 0.000047 0
0.000773 0.000060 0
0.000730 0.000079 0
0.000676 0.000109 0
0.000606 0.000149 0
0.000518 0.000200 0
0.000411 0.000255 0
0.000289 0.000296 0
0.000163 0.000294 0
0.000055 0.000209 0
0.000000 0.000070 0
0.000000 0.000000 0
0.000000 0.000000 0
0.000000 0.000000 0
0.000000 -0.000097 0
0.000135 -0.000384 0
0.000466 -0.000711 0
0.000919 -0.000908 0
0.001420 -0.000954 0
0.001901 -0.000871 0
0.002314 -0.000701 0
0.002632 -0.000488 0
0.002845 -0.000272 0
0.002955 -0.000078 0
0.002978 0.000076 0
0.002931 0.000188 0
0.002835 0.000256 0
0.002709 0.000287 0
0.002570 0.000288 0
0.002433 0.000266 0
0.002308 0.000229 0
0.002201 0.000185 0
0.002115 0.000139 0
0.002051 0.000096 0
0.002007 0.000058 0
0.001981 0.000027 0
0.001967 0.000003 0
0.001964 -0.000013 0
0.001967 -0.000022 0
0.001974 -0.000026 0
0.001982 -0.000026 0
0.001990 -0.000023 0
0.001996 -0.000019 0
0.002000 -0.000015 0
0.002003 -0.000010 0
0.002004 -0.000007 0
0.002003 -0.000004 0
0.002002 -0.000003 0
0.002000 -0.000002 0
0.001998 -0.000002 0
0.001996 -0.000004 0
0.001995 -0.000005 0
0.001995 -0.000008 0
0.001997 -0.000011 0
0.002000 -0.000015 0
0.002006 -0.000020 0
0.002013 -0.000026 0
0.002023 -0.000033 0
0.002037 -0.000041 0
0.002054 -0.000052 0
0.002076 -0.000066 0
0.002103 -0.000083 0
0.002136 -0.000106 0
0.002177 -0.000135 0
0.002222 -0.000171 0
0.002270 -0.000212 0
0.002309 -0.000247 0
0.002316 -0.000245 0
0.002240 -0.000126 0
0.001995 0.000286 0
0.001471 0.001223 0
0.000657 0.002293 0
0.000000 0.001368 0
0.000000 -0.000312 0
0.000182 -0.000813 0
0.000481 -0.000957 0
0.000761 -0.000773 0
0.000964 -0.000488 0
0.001083 -0.000227 0
0.001133 -0.000040 0
0.001136 0.000069 0
0.001116 0.000114 0
0.001086 0.000118 0
0.001057 0.000100 0
0.001032 0.000074 0
0.001014 0.000050 0
0.001000 0.000032 0
0.000990 0.000021 0
0.000980 0.000016 0
0.000970 0.000016 0
0.000960 0.000019 0
0.000948 0.000023 0
0.000933 0.000028 0
0.000917 0.000033 0
0.000899 0.000039 0
0.000878 0.000044 0
0.000855 0.000051 0
0.000829 0.000058 0
0.000799 0.000068 0
0.000764 0.000082 0
0.000723 0.000103 0
0.000674 0.000132 0
0.000615 0.000175 0
0.000542 0.000231 0
0.000454 0.000299 0
0.000353 0.000369 0
0.000242 0.000416 0
0.000132 0.000405 0
0.000043 0.000285 0
0.000000 0.000095 0
0.000000 0.000000 0
0.000000 0.000000 0
0.000000 0.000000 0
0.000000 -0.000172 0
0.000162 -0.000642 0
0.000548 -0.001139 0
0.001065 -0.001422 0
0.001624 -0.001479 0
0.002153 -0.001348 0
0.002605 -0.001091 0
0.002952 -0.000774 0
0.003188 -0.000449 0
0.003317 -0.000156 0
0.003353 0.000082 0
0.003315 0.000256 0
0.003224 0.000367 0
0.003100 0.000422 0
0.002961 0.000429 0
0.002821 0.000402 0
0.002692 0.000351 0
0.002581 0.000287 0
0.002490 0.000219 0
0.002421 0.000154 0
0.002372 0.000097 0
0.002340 0.000050 0
0.002321 0.000015 0
0.002312 -0.000010 0
0.002309 -0.000024 0
0.002309 -0.000031 0
0.002311 -0.000031 0
0.002312 -0.000028 0
0.002311 -0.000022 0
0.002310 -0.000016 0
0.002306 -0.000010 0
0.002302 -0.000005 0
0.002296 -0.000001 0
0.002289 0.000001 0
0.002283 0.000002 0
0.002276 0.000001 0
0.002271 -0.000000 0
0.002265 -0.000003 0
0.002261 -0.000007 0
0.002259 -0.000012 0
0.002257 -0.000018 0
0.002258 -0.000025 0
0.002260 -0.000033 0
0.002265 -0.000043 0
0.002272 -0.000054 0
0.002282 -0.000069 0
0.002295 -0.000087 0
0.002311 -0.000109 0
0.002331 -0.000136 0
0.002351 -0.000168 0
0.002371 -0.000203 0
0.002382 -0.000233 0
0.002370 -0.000236 0
0.002305 -0.000162 0
0.002140 0.000096 0
0.001803 0.000727 0
0.001232 0.001904 0
0.000490 0.002968 0
0.000000 0.001647 0
0.000000 -0.000400 0
0.000170 -0.001049 0
0.000450 -0.001240 0
0.000710 -0.001008 0
0.000897 -0.000645 0
0.001005 -0.000309 0
0.001049 -0.000067 0
0.001052 0.000076 0
0.001033 0.000137 0
0.001007 0.000145 0
0.000981 0.000125 0
0.000960 0.000094 0
0.000942 0.000066 0
0.000927 0.000044 0
0.000914 0.000032 0
0.000902 0.000027 0
0.000888 0.000028 0
0.000874 0.000032 0
0.000857 0.000038 0
0.000839 0.000045 0
0.000818 0.000053 0
0.000796 0.000060 0
0.000771 0.000068 0
0.000744 0.000078 0
0.000714 0.000089 0
0.000681 0.000103 0
0.000643 0.000122 0
0.000600 0.000149 0
0.000550 0.000188 0
0.000493 0.000241 0
0.000425 0.000309 0
0.000348 0.000389 0
0.000263 0.000467 0
0.000174 0.000516 0
0.000092 0.000492 0
0.000028 0.000341 0
0.000000 0.000113 0
0.000000 0.000000 0
0.000000 0.000000 0
0.000000 0.000000 0
0.000000 -0.000258 0
0.000179 -0.000932 0
0.000602 -0.001614 0
0.001158 -0.001983 0
0.001747 -0.002042 0
0.002296 -0.001852 0
0.002757 -0.001500 0
0.003108 -0.001072 0
0.003344 -0.000636 0
0.003475 -0.000243 0
0.003514 0.000078 0
0.003482 0.000317 0
0.003397 0.000471 0
0.003281 0.000551 0
0.003149 0.000567 0
0.003018 0.000535 0
0.002895 0.000470 0
0.002790 0.000388 0
0.002703 0.000299 0
0.002636 0.000214 0
0.002586 0.000139 0
0.002552 0.000078 0
0.002528 0.000031 0
0.002512 -0.000000 0
0.002501 -0.000019 0
0.002492 -0.000027 0
0.002483 -0.000028 0
0.002474 -0.000024 0
0.002464 -0.000017 0
0.002453 -0.000009 0
0.002441 -0.000002 0
0.002429 0.000004 0
0.002415 0.000008 0
0.002402 0.000011 0
0.002390 0.000011 0
0.002377 0.000010 0
0.002366 0.000008 0
0.002356 0.000004 0
0.002346 -0.000001 0
0.002338 -0.000007 0
0.002330 -0.000014 0
0.002324 -0.000023 0
0.002320 -0.000033 0
0.002316 -0.000045 0
0.002314 -0.000058 0
0.002313 -0.000075 0
0.002313 -0.000095 0
0.002314 -0.000118 0
0.002315 -0.000146 0
0.002313 -0.000175 0
0.002304 -0.000201 0
0.002281 -0.000210 0
0.002229 -0.000170 0
0.002121 -0.000015 0
0.001913 0.000377 0
0.001553 0.001194 0
0.001008 0.002536 0
0.000367 0.003525 0
0.000000 0.001857 0
0.000000 -0.000482 0
0.000155 -0.001264 0
0.000408 -0.001497 0
0.000638 -0.001219 0
0.000800 -0.000783 0
0.000890 -0.000380 0
0.000924 -0.000088 0
0.000923 0.000084 0
0.000905 0.000159 0
0.000880 0.000170 0
0.000857 0.000147 0
0.000837 0.000113 0
0.000819 0.000082 0
0.000803 0.000059 0
0.000787 0.000046 0
0.000771 0.000042 0
0.000753 0.000044 0
0.000734 0.000050 0
0.000713 0.000058 0
0.000691 0.000066 0
0.000667 0.000076 0
0.000641 0.000086 0
0.000613 0.000096 0
0.000584 0.000108 0
0.000552 0.000121 0
0.000517 0.000139 0
0.000480 0.000162 0
0.000439 0.000195 0
0.000393 0.000240 0
0.000343 0.000300 0
0.000287 0.000375 0
0.000227 0.000461 0
0.000164 0.000542 0
0.000103 0.000587 0
0.000051 0.000551 0
0.000014 0.000376 0
0.000000 0.000123 0
0.000000 0.000000 0
0.000000 0.000000 0
0.000000 0.000000 0
0.000000 -0.000351 0
0.000190 -0.001243 0
0.000636 -0.002118 0
0.001211 -0.002567 0
0.001809 -0.002617 0
0.002354 -0.002357 0
0.002801 -0.001903 0
0.003134 -0.001361 0
0.003354 -0.000816 0
0.003472 -0.000326 0
0.003504 0.000075 0
0.003471 0.000373 0
0.003391 0.000568 0
0.003283 0.000670 0
0.003164 0.000693 0
0.003045 0.000656 0
0.002936 0.000579 0
0.002842 0.000480 0
0.002765 0.000373 0
0.002703 0.000271 0
0.002656 0.000181 0
0.002620 0.000108 0
0.002591 0.000054 0
0.002566 0.000018 0
0.002544 -0.000004 0
0.002523 -0.000013 0
0.002501 -0.000013 0
0.002479 -0.000009 0
0.002457 -0.000001 0
0.002434 0.000007 0
0.002412 0.000015 0
0.002390 0.000021 0
0.002369 0.000025 0
0.002348 0.000027 0
0.002329 0.000027 0
0.002311 0.000025 0
0.002293 0.000022 0
0.002277 0.000017 0
0.002262 0.000011 0
0.002247 0.000004 0
0.002234 -0.000004 0
0.002221 -0.000014 0
0.002208 -0.000024 0
0.002196 -0.000037 0
0.002184 -0.000051 0
0.002171 -0.000068 0
0.002157 -0.000088 0
0.002142 -0.000110 0
0.002124 -0.000134 0
0.002101 -0.000158 0
0.002070 -0.000172 0
0.002025 -0.000158 0
0.001954 -0.000075 0
0.001833 0.000154 0
0.001627 0.000663 0
0.001291 0.001633 0
0.000808 0.003090 0
0.000274 0.003976 0
0.000000 0.002015 0
0.000000 -0.000556 0
0.000139 -0.001457 0
0.000360 -0.001723 0
0.000557 -0.001401 0
0.000690 -0.000897 0
0.000759 -0.000434 0
0.000780 -0.000100 0
0.000774 0.000095 0
0.000754 0.000180 0
0.000731 0.000192 0
0.000710 0.000168 0
0.000690 0.000132 0
0.000671 0.000099 0
0.000652 0.000076 0
0.000633 0.000064 0
0.000613 0.000061 0
0.000591 0.000064 0
0.000568 0.000072 0
0.000543 0.000081 0
0.000517 0.000091 0
0.000491 0.000102 0
0.000463 0.000113 0
0.000434 0.000125 0
0.000403 0.000139 0
0.000371 0.000155 0
0.000338 0.000174 0
0.000304 0.000200 0
0.000268 0.000236 0
0.000230 0.000284 0
0.000190 0.000347 0
0.000150 0.000425 0
0.000109 0.000512 0
0.000071 0.000590 0
0.000039 0.000628 0
0.000015 0.000581 0
0.000002 0.000392 0
0.000000 0.000127 0
0.000000 0.000000 0
0.000000 0.000000 0
0.000000 0.000000 0
0.000000 -0.000448 0
0.000198 -0.001567 0
0.000655 -0.002635 0
0.001234 -0.003157 0
0.001822 -0.003184 0
0.002343 -0.002844 0
0.002759 -0.002281 0
0.003058 -0.001625 0
0.003248 -0.000974 0
0.003342 -0.000393 0
0.003359 0.000080 0
0.003319 0.000430 0
0.003240 0.000659 0
0.003141 0.000778 0
0.003033 0.000805 0
0.002929 0.000763 0
0.002835 0.000674 0
0.002754 0.000560 0
0.002687 0.000438 0
0.002631 0.000323 0
0.002585 0.000223 0
0.002545 0.000143 0
0.002507 0.000085 0
0.002471 0.000047 0
0.002435 0.000025 0
0.002398 0.000016 0
0.002362 0.000016 0
0.002325 0.000021 0
0.002289 0.000028 0
0.002255 0.000036 0
0.002222 0.000042 0
0.002191 0.000047 0
0.002163 0.000050 0
0.002136 0.000050 0
0.002111 0.000049 0
0.002088 0.000046 0
0.002066 0.000041 0
0.002045 0.000035 0
0.002025 0.000029 0
0.002006 0.000021 0
0.001987 0.000012 0
0.001968 0.000003 0
0.001949 -0.000008 0
0.001929 -0.000020 0
0.001908 -0.000033 0
0.001884 -0.000048 0
0.001858 -0.000065 0
0.001829 -0.000085 0
0.001796 -0.000105 0
0.001758 -0.000122 0
0.001716 -0.000126 0
0.001664 -0.000094 0
0.001596 0.000022 0
0.001491 0.000312 0
0.001318 0.000919 0
0.001035 0.002013 0
0.000630 0.003554 0
0.000198 0.004333 0
0.000000 0.002131 0
0.000000 -0.000622 0
0.000122 -0.001625 0
0.000311 -0.001916 0
0.000473 -0.001549 0
0.000576 -0.000985 0
0.000623 -0.000471 0
0.000632 -0.000103 0
0.000620 0.000110 0
0.000600 0.000201 0
0.000578 0.000214 0
0.000557 0.000189 0
0.000536 0.000152 0
0.000516 0.000119 0
0.000495 0.000096 0
0.000472 0.000086 0
0.000448 0.000084 0
0.000422 0.000089 0
0.000396 0.000097 0
0.000369 0.000107 0
0.000341 0.000119 0
0.000312 0.000130 0
0.000283 0.000142 0
0.000254 0.000155 0
0.000225 0.000169 0
0.000195 0.000186 0
0.000165 0.000206 0
0.000136 0.000233 0
0.000107 0.000269 0
0.000078 0.000317 0
0.000052 0.000380 0
0.000027 0.000456 0
0.000007 0.000540 0
-0.000008 0.000612 0
-0.000014 0.000643 0
-0.000013 0.000587 0
-0.000006 0.000391 0
0.000000 0.000125 0
0.000000 0.000000 0
0.000000 0.000000 0
0.000000 0.000000 0
0.000000 -0.000548 0
0.000203 -0.001897 0
0.000661 -0.003153 0
0.001229 -0.003734 0
0.001791 -0.003726 0
0.002274 -0.003294 0
0.002645 -0.002618 0
0.002899 -0.001850 0
0.003048 -0.001099 0
0.003112 -0.000437 0
0.003108 0.000098 0
0.003058 0.000492 0
0.002977 0.000747 0
0.002883 0.000877 0
0.002785 0.000904 0
0.002693 0.000855 0
0.002610 0.000755 0
0.002539 0.000628 0
0.002477 0.000496 0
0.002423 0.000373 0
0.002372 0.000268 0
0.002322 0.000186 0
0.002272 0.000128 0
0.002219 0.000090 0
0.002166 0.000069 0
0.002113 0.000061 0
0.002060 0.000060 0
0.002010 0.000064 0
0.001963 0.000069 0
0.001919 0.000075 0
0.001879 0.000079 0
0.001843 0.000081 0
0.001810 0.000081 0
0.001780 0.000079 0
0.001752 0.000075 0
0.001727 0.000071 0
0.001703 0.000065 0
0.001680 0.000058 0
0.001658 0.000050 0
0.001636 0.000042 0
0.001615 0.000034 0
0.001592 0.000024 0
0.001569 0.000015 0
0.001544 0.000005 0
0.001517 -0.000007 0
0.001487 -0.000019 0
0.001453 -0.000032 0
0.001415 -0.000047 0
0.001373 -0.000063 0
0.001329 -0.000077 0
0.001286 -0.000077 0
0.001243 -0.000038 0
0.001197 0.000098 0
0.001130 0.000432 0
0.001009 0.001120 0
0.000792 0.002321 0
0.000471 0.003927 0
0.000135 0.004606 0
0.000000 0.002213 0
0.000000 -0.000679 0
0.000106 -0.001769 0
0.000264 -0.002075 0
0.000391 -0.001665 0
0.000465 -0.001047 0
0.000493 -0.000491 0
0.000490 -0.000097 0
0.000473 0.000128 0
0.000452 0.000222 0
0.000430 0.000235 0
0.000410 0.000209 0
0.000389 0.000172 0
0.000367 0.000140 0
0.000343 0.000120 0
0.000318 0.000111 0
0.000290 0.000110 0
0.000262 0.000116 0
0.000234 0.000125 0
0.000205 0.000136 0
0.000176 0.000147 0
0.000147 0.000159 0
0.000119 0.000171 0
0.000091 0.000184 0
0.000064 0.000198 0
0.000038 0.000214 0
0.000013 0.000233 0
-0.000010 0.000259 0
-0.000031 0.000293 0
-0.000049 0.000338 0
-0.000063 0.000398 0
-0.000072 0.000470 0
-0.000074 0.000547 0
-0.000068 0.000611 0
-0.000054 0.000634 0
-0.000034 0.000573 0
-0.000012 0.000378 0
0.000000 0.000120 0
0.000000 0.000000 0
0.000000 0.000000 0
0.000000 0.000000 0
0.000000 -0.000650 0
0.000204 -0.002228 0
0.000655 -0.003662 0
0.001201 -0.004287 0
0.001724 -0.004229 0
0.002156 -0.003697 0
0.002472 -0.002905 0
0.002674 -0.002028 0
0.002779 -0.001186 0
0.002808 -0.000453 0
0.002781 0.000134 0
0.002716 0.000561 0
0.002630 0.000834 0
0.002536 0.000970 0
0.002442 0.000995 0
0.002354 0.000937 0
0.002274 0.000828 0
0.002202 0.000693 0
0.002136 0.000555 0
0.002072 0.000428 0
0.002007 0.000324 0
0.001940 0.000244 0
0.001871 0.000188 0
0.001800 0.000152 0
0.001729 0.000132 0
0.001661 0.000122 0
0.001597 0.000119 0
0.001538 0.000118 0
0.001485 0.000119 0
0.001439 0.000120 0
0.001398 0.000119 0
0.001362 0.000117 0
0.001330 0.000113 0
0.001302 0.000108 0
0.001277 0.000102 0
0.001254 0.000095 0
0.001232 0.000088 0
0.001211 0.000080 0
0.001191 0.000073 0
0.001171 0.000064 0
0.001150 0.000056 0
0.001128 0.000048 0
0.001105 0.000040 0
0.001080 0.000032 0
0.001052 0.000024 0
0.001020 0.000016 0
0.000983 0.000007 0
0.000943 -0.000005 0
0.000900 -0.000019 0