# vtk DataFile Version 2.0
generated by CFD-lab course output (written by Tobias Neckel) 
ASCII

DATASET STRUCTURED_GRID
DIMENSIONS  99 49 1 
POINTS 4851 float

0.000000 0.000000 0
0.020000 0.000000 0
0.040000 0.000000 0
0.060000 0.000000 0
0.080000 0.000000 0
0.100000 0.000000 0
0.120000 0.000000 0
0.140000 0.000000 0
0.160000 0.000000 0
0.180000 0.000000 0
0.200000 0.000000 0
0.220000 0.000000 0
0.240000 0.000000 0
0.260000 0.000000 0
0.280000 0.000000 0
0.300000 0.000000 0
0.320000 0.000000 0
0.340000 0.000000 0
0.360000 0.000000 0
0.380000 0.000000 0
0.400000 0.000000 0
0.420000 0.000000 0
0.440000 0.000000 0
0.460000 0.000000 0
0.480000 0.000000 0
0.500000 0.000000 0
0.520000 0.000000 0
0.540000 0.000000 0
0.560000 0.000000 0
0.580000 0.000000 0
0.600000 0.000000 0
0.620000 0.000000 0
0.640000 0.000000 0
0.660000 0.000000 0
0.680000 0.000000 0
0.700000 0.000000 0
0.720000 0.000000 0
0.740000 0.000000 0
0.760000 0.000000 0
0.780000 0.000000 0
0.800000 0.000000 0
0.820000 0.000000 0
0.840000 0.000000 0
0.860000 0.000000 0
0.880000 0.000000 0
0.900000 0.000000 0
0.920000 0.000000 0
0.940000 0.000000 0
0.960000 0.000000 0
0.980000 0.000000 0
1.000000 0.000000 0
1.020000 0.000000 0
1.040000 0.000000 0
1.060000 0.000000 0
1.080000 0.000000 0
1.100000 0.000000 0
1.120000 0.000000 0
1.140000 0.000000 0
1.160000 0.000000 0
1.180000 0.000000 0
1.200000 0.000000 0
1.220000 0.000000 0
1.240000 0.000000 0
1.260000 0.000000 0
1.280000 0.000000 0
1.300000 0.000000 0
1.320000 0.000000 0
1.340000 0.000000 0
1.360000 0.000000 0
1.380000 0.000000 0
1.400000 0.000000 0
1.420000 0.000000 0
1.440000 0.000000 0
1.460000 0.000000 0
1.480000 0.000000 0
1.500000 0.000000 0
1.520000 0.000000 0
1.540000 0.000000 0
1.560000 0.000000 0
1.580000 0.000000 0
1.600000 0.000000 0
1.620000 0.000000 0
1.640000 0.000000 0
1.660000 0.000000 0
1.680000 0.000000 0
1.700000 0.000000 0
1.720000 0.000000 0
1.740000 0.000000 0
1.760000 0.000000 0
1.780000 0.000000 0
1.800000 0.000000 0
1.820000 0.000000 0
1.840000 0.000000 0
1.860000 0.000000 0
1.880000 0.000000 0
1.900000 0.000000 0
1.920000 0.000000 0
1.940000 0.000000 0
1.960000 0.000000 0
0.000000 0.020000 0
0.020000 0.020000 0
0.040000 0.020000 0
0.060000 0.020000 0
0.080000 0.020000 0
0.100000 0.020000 0
0.120000 0.020000 0
0.140000 0.020000 0
0.160000 0.020000 0
0.180000 0.020000 0
0.200000 0.020000 0
0.220000 0.020000 0
0.240000 0.020000 0
0.260000 0.020000 0
0.280000 0.020000 0
0.300000 0.020000 0
0.320000 0.020000 0
0.340000 0.020000 0
0.360000 0.020000 0
0.380000 0.020000 0
0.400000 0.020000 0
0.420000 0.020000 0
0.440000 0.020000 0
0.460000 0.020000 0
0.480000 0.020000 0
0.500000 0.020000 0
0.520000 0.020000 0
0.540000 0.020000 0
0.560000 0.020000 0
0.580000 0.020000 0
0.600000 0.020000 0
0.620000 0.020000 0
0.640000 0.020000 0
0.660000 0.020000 0
0.680000 0.020000 0
0.700000 0.020000 0
0.720000 0.020000 0
0.740000 0.020000 0
0.760000 0.020000 0
0.780000 0.020000 0
0.800000 0.020000 0
0.820000 0.020000 0
0.840000 0.020000 0
0.860000 0.020000 0
0.880000 0.020000 0
0.900000 0.020000 0
0.920000 0.020000 0
0.940000 0.020000 0
0.960000 0.020000 0
0.980000 0.020000 0
1.000000 0.020000 0
1.020000 0.020000 0
1.040000 0.020000 0
1.060000 0.020000 0
1.080000 0.020000 0
1.100000 0.020000 0
1.120000 0.020000 0
1.140000 0.020000 0
1.160000 0.020000 0
1.180000 0.020000 0
1.200000 0.020000 0
1.220000 0.020000 0
1.240000 0.020000 0
1.260000 0.020000 0
1.280000 0.020000 0
1.300000 0.020000 0
1.320000 0.020000 0
1.340000 0.020000 0
1.360000 0.020000 0
1.380000 0.020000 0
1.400000 0.020000 0
1.420000 0.020000 0
1.440000 0.020000 0
1.460000 0.020000 0
1.480000 0.020000 0
1.500000 0.020000 0
1.520000 0.020000 0
1.540000 0.020000 0
1.560000 0.020000 0
1.580000 0.020000 0
1.600000 0.020000 0
1.620000 0.020000 0
1.640000 0.020000 0
1.660000 0.020000 0
1.680000 0.020000 0
1.700000 0.020000 0
1.720000 0.020000 0
1.740000 0.020000 0
1.760000 0.020000 0
1.780000 0.020000 0
1.800000 0.020000 0
1.820000 0.020000 0
1.840000 0.020000 0
1.860000 0.020000 0
1.880000 0.020000 0
1.900000 0.020000 0
1.920000 0.020000 0
1.940000 0.020000 0
1.960000 0.020000 0
0.000000 0.040000 0
0.020000 0.040000 0
0.040000 0.040000 0
0.060000 0.040000 0
0.080000 0.040000 0
0.100000 0.040000 0
0.120000 0.040000 0
0.140000 0.040000 0
0.160000 0.040000 0
0.180000 0.040000 0
0.200000 0.040000 0
0.220000 0.040000 0
0.240000 0.040000 0
0.260000 0.040000 0
0.280000 0.040000 0
0.300000 0.040000 0
0.320000 0.040000 0
0.340000 0.040000 0
0.360000 0.040000 0
0.380000 0.040000 0
0.400000 0.040000 0
0.420000 0.040000 0
0.440000 0.040000 0
0.460000 0.040000 0
0.480000 0.040000 0
0.500000 0.040000 0
0.520000 0.040000 0
0.540000 0.040000 0
0.560000 0.040000 0
0.580000 0.040000 0
0.600000 0.040000 0
0.620000 0.040000 0
0.640000 0.040000 0
0.660000 0.040000 0
0.680000 0.040000 0
0.700000 0.040000 0
0.720000 0.040000 0
0.740000 0.040000 0
0.760000 0.040000 0
0.780000 0.040000 0
0.800000 0.040000 0
0.820000 0.040000 0
0.840000 0.040000 0
0.860000 0.040000 0
0.880000 0.040000 0
0.900000 0.040000 0
0.920000 0.040000 0
0.940000 0.040000 0
0.960000 0.040000 0
0.980000 0.040000 0
1.000000 0.040000 0
1.020000 0.040000 0
1.040000 0.040000 0
1.060000 0.040000 0
1.080000 0.040000 0
1.100000 0.040000 0
1.120000 0.040000 0
1.140000 0.040000 0
1.160000 0.040000 0
1.180000 0.040000 0
1.200000 0.040000 0
1.220000 0.040000 0
1.240000 0.040000 0
1.260000 0.040000 0
1.280000 0.040000 0
1.300000 0.040000 0
1.320000 0.040000 0
1.340000 0.040000 0
1.360000 0.040000 0
1.380000 0.040000 0
1.400000 0.040000 0
1.420000 0.040000 0
1.440000 0.040000 0
1.460000 0.040000 0
1.480000 0.040000 0
1.500000 0.040000 0
1.520000 0.040000 0
1.540000 0.040000 0
1.560000 0.040000 0
1.580000 0.040000 0
1.600000 0.040000 0
1.620000 0.040000 0
1.640000 0.040000 0
1.660000 0.040000 0
1.680000 0.040000 0
1.700000 0.040000 0
1.720000 0.040000 0
1.740000 0.040000 0
1.760000 0.040000 0
1.780000 0.040000 0
1.800000 0.040000 0
1.820000 0.040000 0
1.840000 0.040000 0
1.860000 0.040000 0
1.880000 0.040000 0
1.900000 0.040000 0
1.920000 0.040000 0
1.940000 0.040000 0
1.960000 0.040000 0
0.000000 0.060000 0
0.020000 0.060000 0
0.040000 0.060000 0
0.060000 0.060000 0
0.080000 0.060000 0
0.100000 0.060000 0
0.120000 0.060000 0
0.140000 0.060000 0
0.160000 0.060000 0
0.180000 0.060000 0
0.200000 0.060000 0
0.220000 0.060000 0
0.240000 0.060000 0
0.260000 0.060000 0
0.280000 0.060000 0
0.300000 0.060000 0
0.320000 0.060000 0
0.340000 0.060000 0
0.360000 0.060000 0
0.380000 0.060000 0
0.400000 0.060000 0
0.420000 0.060000 0
0.440000 0.060000 0
0.460000 0.060000 0
0.480000 0.060000 0
0.500000 0.060000 0
0.520000 0.060000 0
0.540000 0.060000 0
0.560000 0.060000 0
0.580000 0.060000 0
0.600000 0.060000 0
0.620000 0.060000 0
0.640000 0.060000 0
0.660000 0.060000 0
0.680000 0.060000 0
0.700000 0.060000 0
0.720000 0.060000 0
0.740000 0.060000 0
0.760000 0.060000 0
0.780000 0.060000 0
0.800000 0.060000 0
0.820000 0.060000 0
0.840000 0.060000 0
0.860000 0.060000 0
0.880000 0.060000 0
0.900000 0.060000 0
0.920000 0.060000 0
0.940000 0.060000 0
0.960000 0.060000 0
0.980000 0.060000 0
1.000000 0.060000 0
1.020000 0.060000 0
1.040000 0.060000 0
1.060000 0.060000 0
1.080000 0.060000 0
1.100000 0.060000 0
1.120000 0.060000 0
1.140000 0.060000 0
1.160000 0.060000 0
1.180000 0.060000 0
1.200000 0.060000 0
1.220000 0.060000 0
1.240000 0.060000 0
1.260000 0.060000 0
1.280000 0.060000 0
1.300000 0.060000 0
1.320000 0.060000 0
1.340000 0.060000 0
1.360000 0.060000 0
1.380000 0.060000 0
1.400000 0.060000 0
1.420000 0.060000 0
1.440000 0.060000 0
1.460000 0.060000 0
1.480000 0.060000 0
1.500000 0.060000 0
1.520000 0.060000 0
1.540000 0.060000 0
1.560000 0.060000 0
1.580000 0.060000 0
1.600000 0.060000 0
1.620000 0.060000 0
1.640000 0.060000 0
1.660000 0.060000 0
1.680000 0.060000 0
1.700000 0.060000 0
1.720000 0.060000 0
1.740000 0.060000 0
1.760000 0.060000 0
1.780000 0.060000 0
1.800000 0.060000 0
1.820000 0.060000 0
1.840000 0.060000 0
1.860000 0.060000 0
1.880000 0.060000 0
1.900000 0.060000 0
1.920000 0.060000 0
1.940000 0.060000 0
1.960000 0.060000 0
0.000000 0.080000 0
0.020000 0.080000 0
0.040000 0.080000 0
0.060000 0.080000 0
0.080000 0.080000 0
0.100000 0.080000 0
0.120000 0.080000 0
0.140000 0.080000 0
0.160000 0.080000 0
0.180000 0.080000 0
0.200000 0.080000 0
0.220000 0.080000 0
0.240000 0.080000 0
0.260000 0.080000 0
0.280000 0.080000 0
0.300000 0.080000 0
0.320000 0.080000 0
0.340000 0.080000 0
0.360000 0.080000 0
0.380000 0.080000 0
0.400000 0.080000 0
0.420000 0.080000 0
0.440000 0.080000 0
0.460000 0.080000 0
0.480000 0.080000 0
0.500000 0.080000 0
0.520000 0.080000 0
0.540000 0.080000 0
0.560000 0.080000 0
0.580000 0.080000 0
0.600000 0.080000 0
0.620000 0.080000 0
0.640000 0.080000 0
0.660000 0.080000 0
0.680000 0.080000 0
0.700000 0.080000 0
0.720000 0.080000 0
0.740000 0.080000 0
0.760000 0.080000 0
0.780000 0.080000 0
0.800000 0.080000 0
0.820000 0.080000 0
0.840000 0.080000 0
0.860000 0.080000 0
0.880000 0.080000 0
0.900000 0.080000 0
0.920000 0.080000 0
0.940000 0.080000 0
0.960000 0.080000 0
0.980000 0.080000 0
1.000000 0.080000 0
1.020000 0.080000 0
1.040000 0.080000 0
1.060000 0.080000 0
1.080000 0.080000 0
1.100000 0.080000 0
1.120000 0.080000 0
1.140000 0.080000 0
1.160000 0.080000 0
1.180000 0.080000 0
1.200000 0.080000 0
1.220000 0.080000 0
1.240000 0.080000 0
1.260000 0.080000 0
1.280000 0.080000 0
1.300000 0.080000 0
1.320000 0.080000 0
1.340000 0.080000 0
1.360000 0.080000 0
1.380000 0.080000 0
1.400000 0.080000 0
1.420000 0.080000 0
1.440000 0.080000 0
1.460000 0.080000 0
1.480000 0.080000 0
1.500000 0.080000 0
1.520000 0.080000 0
1.540000 0.080000 0
1.560000 0.080000 0
1.580000 0.080000 0
1.600000 0.080000 0
1.620000 0.080000 0
1.640000 0.080000 0
1.660000 0.080000 0
1.680000 0.080000 0
1.700000 0.080000 0
1.720000 0.080000 0
1.740000 0.080000 0
1.760000 0.080000 0
1.780000 0.080000 0
1.800000 0.080000 0
1.820000 0.080000 0
1.840000 0.080000 0
1.860000 0.080000 0
1.880000 0.080000 0
[...]
POINT_DATA 4851 

VECTORS velocity float
0.000000 0.000000 0
0.000057 0.000000 0
0.000143 0.000000 0
0.000211 0.000000 0
0.000249 0.000000 0
0.000260 0.000000 0
0.000255 0.000000 0
0.000242 0.000000 0
0.000227 0.000000 0
0.000214 0.000000 0
0.000204 0.000000 0
0.000197 0.000000 0
0.000194 0.000000 0
0.000192 0.000000 0
0.000192 0.000000 0
0.000192 0.000000 0
0.000192 0.000000 0
0.000191 0.000000 0
0.000191 0.000000 0
0.000190 0.000000 0
0.000189 0.000000 0
0.000188 0.000000 0
0.000186 0.000000 0
0.000184 0.000000 0
0.000183 0.000000 0
0.000181 0.000000 0
0.000179 0.000000 0
0.000176 0.000000 0
0.000173 0.000000 0
0.000168 0.000000 0
0.000160 0.000000 0
0.000147 0.000000 0
0.000126 0.000000 0
0.000095 0.000000 0
0.000056 0.000000 0
0.000019 0.000000 0
0.000000 0.000000 0
0.000000 0.000000 0
0.000000 0.000000 0
0.000000 0.000000 0
0.000000 0.000000 0
0.000001 0.000000 0
0.000035 0.000000 0
0.000098 0.000000 0
0.000175 0.000000 0
0.000251 0.000000 0
0.000316 0.000000 0
0.000363 0.000000 0
0.000390 0.000000 0
0.000401 0.000000 0
0.000397 0.000000 0
0.000383 0.000000 0
0.000362 0.000000 0
0.000339 0.000000 0
0.000316 0.000000 0
0.000294 0.000000 0
0.000276 0.000000 0
0.000261 0.000000 0
0.000251 0.000000 0
0.000244 0.000000 0
0.000240 0.000000 0
0.000240 0.000000 0
0.000241 0.000000 0
0.000244 0.000000 0
0.000248 0.000000 0
0.000252 0.000000 0
0.000256 0.000000 0
0.000261 0.000000 0
0.000264 0.000000 0
0.000268 0.000000 0
0.000271 0.000000 0
0.000273 0.000000 0
0.000276 0.000000 0
0.000277 0.000000 0
0.000279 0.000000 0
0.000281 0.000000 0
0.000282 0.000000 0
0.000284 0.000000 0
0.000286 0.000000 0
0.000287 0.000000 0
0.000289 0.000000 0
0.000291 0.000000 0
0.000293 0.000000 0
0.000295 0.000000 0
0.000298 0.000000 0
0.000302 0.000000 0
0.000306 0.000000 0
0.000311 0.000000 0
0.000318 0.000000 0
0.000328 0.000000 0
0.000341 0.000000 0
0.000361 0.000000 0
0.000391 0.000000 0
0.000435 0.000000 0
0.000500 0.000000 0
0.000579 0.000000 0
0.000625 0.000000 0
0.000480 0.000000 0
0.000000 0.000000 0
0.000000 -0.000058 0
0.000161 -0.000144 0
0.000406 -0.000155 0
0.000612 -0.000106 0
0.000738 -0.000050 0
0.000789 -0.000007 0
0.000789 0.000018 0
0.000760 0.000028 0
0.000722 0.000028 0
0.000686 0.000022 0
0.000658 0.000016 0
0.000638 0.000009 0
0.000627 0.000004 0
0.000621 0.000001 0
0.000619 -0.000000 0
0.000618 -0.000001 0
0.000617 -0.000000 0
0.000616 0.000000 0
0.000613 0.000001 0
0.000610 0.000001 0
0.000605 0.000002 0
0.000600 0.000002 0
0.000594 0.000003 0
0.000587 0.000003 0
0.000580 0.000003 0
0.000571 0.000003 0
0.000561 0.000004 0
0.000549 0.000005 0
0.000534 0.000008 0
0.000512 0.000012 0
0.000479 0.000020 0
0.000432 0.000033 0
0.000362 0.000051 0
0.000270 0.000069 0
0.000159 0.000076 0
0.000055 0.000056 0
0.000000 0.000018 0
0.000000 0.000000 0
0.000000 0.000000 0
0.000000 0.000000 0
0.000000 -0.000001 0
0.000033 -0.000035 0
0.000161 -0.000097 0
0.000368 -0.000139 0
0.000612 -0.000153 0
0.000854 -0.000140 0
0.001064 -0.000111 0
0.001222 -0.000075 0
0.001322 -0.000038 0
0.001368 -0.000006 0
0.001368 0.000018 0
0.001334 0.000035 0
0.001277 0.000044 0
0.001207 0.000047 0
0.001134 0.000045 0
0.001065 0.000040 0
0.001003 0.000033 0
0.000953 0.000026 0
0.000915 0.000018 0
0.000889 0.000011 0
0.000874 0.000005 0
0.000868 -0.000000 0
0.000870 -0.000004 0
0.000877 -0.000006 0
0.000887 -0.000008 0
0.000899 -0.000008 0
0.000912 -0.000008 0
0.000925 -0.000008 0
0.000936 -0.000007 0
0.000946 -0.000006 0
0.000955 -0.000005 0
0.000963 -0.000005 0
0.000970 -0.000004 0
0.000975 -0.000003 0
0.000980 -0.000003 0
0.000985 -0.000003 0
0.000989 -0.000003 0
0.000994 -0.000003 0
0.000998 -0.000003 0
0.001003 -0.000003 0
0.001008 -0.000003 0
0.001013 -0.000004 0
0.001020 -0.000004 0
0.001027 -0.000005 0
0.001036 -0.000006 0
0.001046 -0.000007 0
0.001059 -0.000009 0
0.001075 -0.000012 0
0.001097 -0.000016 0
0.001125 -0.000023 0
0.001164 -0.000033 0
0.001217 -0.000049 0
0.001288 -0.000074 0
0.001381 -0.000108 0
0.001487 -0.000143 0
0.001565 -0.000125 0
0.001483 0.000099 0
0.000966 0.000626 0
0.000000 0.000480 0
0.000000 -0.000162 0
0.000221 -0.000407 0
0.000565 -0.000452 0
0.000868 -0.000332 0
0.001069 -0.000178 0
0.001167 -0.000052 0
0.001188 0.000028 0
0.001163 0.000066 0
0.001119 0.000073 0
0.001072 0.000064 0
0.001033 0.000047 0
0.001005 0.000030 0
0.000988 0.000016 0
0.000978 0.000007 0
0.000973 0.000002 0
0.000970 0.000001 0
0.000967 0.000001 0
0.000963 0.000003 0
0.000958 0.000005 0
0.000951 0.000007 0
0.000942 0.000009 0
0.000931 0.000011 0
0.000919 0.000012 0
0.000905 0.000014 0
0.000890 0.000015 0
0.000872 0.000018 0
0.000851 0.000021 0
0.000825 0.000027 0
0.000792 0.000037 0
0.000748 0.000053 0
0.000688 0.000079 0
0.000606 0.000116 0
0.000498 0.000161 0
0.000362 0.000202 0
0.000211 0.000214 0
0.000074 0.000158 0
0.000000 0.000054 0
0.000000 0.000000 0
0.000000 0.000000 0
0.000000 0.000000 0
0.000000 -0.000032 0
0.000088 -0.000161 0
0.000325 -0.000335 0
0.000667 -0.000450 0
0.001058 -0.000486 0
0.001445 -0.000451 0
0.001783 -0.000367 0
0.002046 -0.000259 0
0.002223 -0.000146 0
0.002317 -0.000046 0
0.002338 0.000035 0
0.002301 0.000092 0
0.002224 0.000127 0
0.002122 0.000143 0
0.002011 0.000143 0
0.001901 0.000131 0
0.001802 0.000112 0
0.001717 0.000089 0
0.001652 0.000065 0
0.001604 0.000042 0
0.001574 0.000021 0
0.001559 0.000005 0
0.001557 -0.000008 0
0.001563 -0.000017 0
0.001575 -0.000022 0
0.001591 -0.000025 0
0.001608 -0.000025 0
0.001625 -0.000024 0
0.001641 -0.000021 0
0.001655 -0.000019 0
0.001667 -0.000016 0
0.001677 -0.000014 0
0.001686 -0.000012 0
0.001693 -0.000010 0
0.001700 -0.000009 0
0.001705 -0.000009 0
0.001711 -0.000008 0
0.001716 -0.000008 0
0.001721 -0.000009 0
0.001727 -0.000009 0
0.001733 -0.000010 0
0.001740 -0.000012 0
0.001748 -0.000013 0
0.001758 -0.000016 0
0.001770 -0.000019 0
0.001784 -0.000023 0
0.001802 -0.000029 0
0.001825 -0.000037 0
0.001855 -0.000050 0
0.001892 -0.000067 0
0.001940 -0.000091 0
0.001999 -0.000124 0
0.002065 -0.000164 0
0.002126 -0.000199 0
0.002146 -0.000184 0
0.002041 0.000005 0
0.001660 0.000599 0
0.000863 0.001483 0
0.000000 0.000966 0
0.000000 -0.000279 0
0.000234 -0.000710 0
0.000607 -0.000803 0
0.000942 -0.000611 0
0.001174 -0.000349 0
0.001296 -0.000126 0
0.001333 0.000022 0
0.001317 0.000097 0
0.001277 0.000119 0
0.001232 0.000108 0
0.001193 0.000082 0
0.001163 0.000054 0
0.001144 0.000031 0
0.001132 0.000016 0
0.001124 0.000007 0
0.001119 0.000005 0
0.001113 0.000006 0
0.001105 0.000009 0
0.001096 0.000013 0
0.001084 0.000017 0
0.001071 0.000021 0
0.001055 0.000025 0
0.001037 0.000028 0
0.001016 0.000032 0
0.000993 0.000036 0
0.000966 0.000042 0
0.000935 0.000051 0
0.000897 0.000063 0
0.000850 0.000084 0
0.000791 0.000116 0
0.000715 0.000162 0
0.000617 0.000224 0
0.000495 0.000295 0
0.000351 0.000355 0
0.000200 0.000364 0
0.000068 0.000267 0
0.000000 0.000092 0
0.000000 0.000000 0
0.000000 0.000000 0
0.000000 0.000000 0
0.000000 -0.000089 0
0.000130 -0.000359 0
0.000446 -0.000675 0
0.000881 -0.000873 0
0.001365 -0.000930 0
0.001837 -0.000865 0
0.002251 -0.000712 0
0.002577 -0.000515 0
0.002804 -0.000308 0
0.002934 -0.000120 0
0.002977 0.000035 0
0.002950 0.000149 0
0.002873 0.000223 0
0.002762 0.000260 0
0.002636 0.000266 0
0.002508 0.000250 0
0.002390 0.000217 0
0.002287 0.000176 0
0.002205 0.000131 0
0.002144 0.000088 0
0.002103 0.000050 0
0.002079 0.000017 0
0.002070 -0.000007 0
0.002071 -0.000025 0
0.002080 -0.000036 0
0.002093 -0.000041 0
0.002108 -0.000042 0
0.002123 -0.000040 0
0.002136 -0.000037 0
0.002148 -0.000032 0
0.002158 -0.000028 0
0.002166 -0.000023 0
0.002173 -0.000020 0
0.002178 -0.000017 0
0.002181 -0.000015 0
0.002185 -0.000014 0
0.002187 -0.000013 0
0.002190 -0.000013 0
0.002193 -0.000014 0
0.002197 -0.000015 0
0.002201 -0.000017 0
0.002206 -0.000019 0
0.002212 -0.000022 0
0.002220 -0.000026 0
0.002230 -0.000032 0
0.002243 -0.000040 0
0.002259 -0.000050 0
0.002280 -0.000064 0
0.002305 -0.000083 0
0.002336 -0.000108 0
0.002371 -0.000140 0
0.002406 -0.000175 0
0.002429 -0.000202 0
0.002416 -0.000189 0
0.002316 -0.000057 0
0.002043 0.000360 0
0.001493 0.001277 0
0.000662 0.002286 0
0.000000 0.001343 0
0.000000 -0.000396 0
0.000227 -0.001015 0
0.000593 -0.001160 0
0.000924 -0.000899 0
0.001155 -0.000532 0
0.001280 -0.000212 0
0.001323 0.000006 0
0.001313 0.000121 0
0.001278 0.000159 0
0.001238 0.000148 0
0.001202 0.000115 0
0.001174 0.000078 0
0.001154 0.000047 0
0.001141 0.000026 0
0.001130 0.000015 0
0.001120 0.000012 0
0.001110 0.000014 0
0.001098 0.000019 0
0.001084 0.000026 0
0.001067 0.000032 0
0.001048 0.000038 0
0.001027 0.000044 0
0.001003 0.000050 0
0.000977 0.000057 0
0.000947 0.000065 0
0.000913 0.000075 0
0.000874 0.000090 0
0.000829 0.000111 0
0.000775 0.000142 0
0.000709 0.000188 0
0.000628 0.000253 0
0.000530 0.000336 0
0.000414 0.000427 0
0.000286 0.000497 0
0.000157 0.000497 0
0.000051 0.000358 0
0.000000 0.000122 0
0.000000 0.000000 0
0.000000 0.000000 0
0.000000 0.000000 0
0.000000 -0.000162 0
0.000156 -0.000606 0
0.000525 -0.001085 0
0.001021 -0.001369 0
0.001562 -0.001442 0
0.002082 -0.001337 0
0.002534 -0.001107 0
0.002891 -0.000812 0
0.003143 -0.000503 0
0.003292 -0.000218 0
0.003350 0.000019 0
0.003334 0.000197 0
0.003262 0.000316 0
0.003154 0.000380 0
0.003027 0.000397 0
0.002897 0.000378 0
0.002774 0.000333 0
0.002666 0.000274 0
0.002578 0.000208 0
0.002511 0.000144 0
0.002464 0.000086 0
0.002435 0.000037 0
0.002419 -0.000000 0
0.002413 -0.000027 0
0.002415 -0.000044 0
0.002421 -0.000052 0
0.002428 -0.000054 0
0.002435 -0.000052 0
0.002441 -0.000047 0
0.002446 -0.000041 0
0.002449 -0.000034 0
0.002450 -0.000028 0
0.002450 -0.000023 0
0.002449 -0.000019 0
0.002447 -0.000016 0
0.002445 -0.000015 0
0.002443 -0.000014 0
0.002440 -0.000014 0
0.002439 -0.000015 0
0.002437 -0.000017 0
0.002437 -0.000019 0
0.002437 -0.000023 0
0.002439 -0.000027 0
0.002442 -0.000033 0
0.002447 -0.000041 0
0.002453 -0.000052 0
0.002462 -0.000065 0
0.002473 -0.000083 0
0.002487 -0.000106 0
0.002502 -0.000133 0
0.002514 -0.000161 0
0.002516 -0.000183 0
0.002491 -0.000174 0
0.002411 -0.000085 0
0.002224 0.000190 0
0.001861 0.000828 0
0.001264 0.001980 0
0.000502 0.002976 0
0.000000 0.001628 0
0.000000 -0.000507 0
0.000211 -0.001304 0
0.000552 -0.001500 0
0.000859 -0.001174 0
0.001072 -0.000705 0
0.001186 -0.000294 0
0.001224 -0.000011 0
0.001215 0.000141 0
0.001184 0.000194 0
0.001148 0.000184 0
0.001116 0.000146 0
0.001090 0.000101 0
0.001070 0.000064 0
0.001054 0.000040 0
0.001039 0.000027 0
0.001024 0.000025 0
0.001009 0.000028 0
0.000991 0.000035 0
0.000971 0.000043 0
0.000949 0.000052 0
0.000925 0.000061 0
0.000899 0.000069 0
0.000870 0.000078 0
0.000839 0.000088 0
0.000804 0.000100 0
0.000766 0.000114 0
0.000723 0.000134 0
0.000675 0.000163 0
0.000620 0.000204 0
0.000555 0.000262 0
0.000481 0.000341 0
0.000394 0.000438 0
0.000298 0.000539 0
0.000198 0.000611 0
0.000104 0.000598 0
0.000031 0.000424 0
0.000000 0.000142 0
0.000000 0.000000 0
0.000000 0.000000 0
0.000000 0.000000 0
0.000000 -0.000244 0
0.000171 -0.000884 0
0.000574 -0.001540 0
0.001107 -0.001909 0
0.001678 -0.001991 0
0.002217 -0.001836 0
0.002680 -0.001521 0
0.003041 -0.001124 0
0.003296 -0.000710 0
0.003447 -0.000327 0
0.003509 -0.000007 0
0.003498 0.000237 0
0.003432 0.000403 0
0.003331 0.000495 0
0.003211 0.000523 0
0.003087 0.000503 0
0.002969 0.000448 0
0.002866 0.000372 0
0.002781 0.000286 0
0.002714 0.000202 0
0.002666 0.000126 0
0.002632 0.000063 0
0.002611 0.000014 0
0.002597 -0.000021 0
0.002589 -0.000043 0
0.002583 -0.000054 0
0.002578 -0.000056 0
0.002573 -0.000054 0
0.002568 -0.000047 0
0.002561 -0.000040 0
0.002553 -0.000032 0
0.002544 -0.000024 0
0.002535 -0.000018 0
0.002526 -0.000014 0
0.002516 -0.000011 0
0.002507 -0.000009 0
0.002497 -0.000008 0
0.002489 -0.000009 0
0.002481 -0.000011 0
0.002474 -0.000013 0
0.002467 -0.000016 0
0.002461 -0.000021 0
0.002456 -0.000026 0
0.002452 -0.000034 0
0.002449 -0.000043 0
0.002447 -0.000055 0
0.002446 -0.000070 0
0.002445 -0.000089 0
0.002443 -0.000111 0
0.002439 -0.000135 0
0.002428 -0.000154 0
0.002402 -0.000152 0
0.002343 -0.000096 0
0.002222 0.000079 0
0.001997 0.000493 0
0.001614 0.001320 0
0.001043 0.002636 0
0.000382 0.003550 0
0.000000 0.001845 0
0.000000 -0.000608 0
0.000192 -0.001568 0
0.000498 -0.001809 0
0.000771 -0.001420 0
0.000955 -0.000859 0
0.001051 -0.000364 0
0.001079 -0.000024 0
0.001068 0.000161 0
0.001039 0.000225 0
0.001006 0.000216 0
0.000976 0.000173 0
0.000951 0.000124 0
0.000930 0.000083 0
0.000910 0.000057 0
0.000891 0.000044 0
0.000871 0.000042 0
0.000849 0.000048 0
0.000825 0.000056 0
0.000800 0.000067 0
0.000773 0.000078 0
0.000744 0.000088 0
0.000713 0.000099 0
0.000681 0.000111 0
0.000646 0.000123 0
0.000609 0.000138 0
0.000569 0.000156 0
0.000526 0.000180 0
0.000480 0.000214 0
0.000429 0.000261 0
0.000373 0.000327 0
0.000311 0.000414 0
0.000244 0.000518 0
0.000175 0.000623 0
0.000108 0.000691 0
0.000052 0.000663 0
0.000013 0.000462 0
0.000000 0.000153 0
0.000000 0.000000 0
0.000000 0.000000 0
0.000000 0.000000 0
0.000000 -0.000332 0
0.000180 -0.001180 0
0.000602 -0.002021 0
0.001153 -0.002472 0
0.001732 -0.002553 0
0.002269 -0.002338 0
0.002720 -0.001931 0
0.003066 -0.001428 0
0.003304 -0.000909 0
0.003443 -0.000432 0
0.003498 -0.000032 0
0.003484 0.000274 0
0.003421 0.000483 0
0.003327 0.000601 0
0.003216 0.000641 0
0.003103 0.000619 0
0.002996 0.000554 0
0.002902 0.000462 0
0.002825 0.000360 0
0.002763 0.000259 0
0.002715 0.000168 0
0.002678 0.000093 0
0.002649 0.000035 0
0.002626 -0.000005 0
0.002605 -0.000030 0
0.002585 -0.000042 0
0.002565 -0.000045 0
0.002544 -0.000041 0
0.002524 -0.000034 0
0.002503 -0.000026 0
0.002482 -0.000017 0
0.002462 -0.000010 0
0.002442 -0.000004 0
0.002423 0.000000 0
0.002405 0.000003 0
0.002388 0.000004 0
0.002372 0.000004 0
0.002357 0.000003 0
0.002343 0.000000 0
0.002330 -0.000003 0
0.002317 -0.000007 0
0.002305 -0.000012 0
0.002294 -0.000018 0
0.002282 -0.000026 0
0.002271 -0.000036 0
0.002259 -0.000048 0
0.002247 -0.000063 0
0.002234 -0.000081 0
0.002218 -0.000100 0
0.002198 -0.000118 0
0.002170 -0.000123 0
0.002127 -0.000097 0
0.002054 0.000006 0
0.001925 0.000261 0
0.001705 0.000798 0
0.001349 0.001782 0
0.000842 0.003212 0
0.000288 0.004019 0
0.000000 0.002010 0
0.000000 -0.000699 0
0.000171 -0.001803 0
0.000439 -0.002079 0
0.000672 -0.001631 0
0.000824 -0.000986 0
0.000897 -0.000418 0
0.000914 -0.000029 0
0.000899 0.000182 0
0.000870 0.000255 0
0.000840 0.000246 0
0.000812 0.000200 0
0.000787 0.000147 0
0.000763 0.000105 0
0.000740 0.000078 0
0.000715 0.000067 0
0.000689 0.000066 0
0.000662 0.000073 0
0.000633 0.000084 0
0.000602 0.000096 0
0.000571 0.000108 0
0.000538 0.000120 0
0.000505 0.000132 0
0.000470 0.000145 0
0.000434 0.000160 0
0.000396 0.000176 0
0.000358 0.000197 0
0.000318 0.000223 0
0.000277 0.000260 0
0.000234 0.000310 0
0.000190 0.000379 0
0.000146 0.000469 0
0.000102 0.000573 0
0.000062 0.000674 0
0.000029 0.000734 0
0.000008 0.000693 0
-0.000001 0.000475 0
0.000000 0.000156 0
0.000000 0.000000 0
0.000000 0.000000 0
0.000000 0.000000 0
0.000000 -0.000424 0
0.000185 -0.001486 0
0.000616 -0.002513 0
0.001169 -0.003040 0
0.001740 -0.003107 0
0.002255 -0.002824 0
0.002676 -0.002317 0
0.002990 -0.001707 0
0.003198 -0.001087 0
0.003313 -0.000521 0
0.003351 -0.000048 0
0.003329 0.000314 0
0.003264 0.000560 0
0.003174 0.000700 0
0.003072 0.000748 0
0.002970 0.000723 0
0.002876 0.000648 0
0.002793 0.000543 0
0.002723 0.000426 0
0.002665 0.000312 0
0.002616 0.000211 0
0.002574 0.000128 0
0.002536 0.000066 0
0.002499 0.000024 0
0.002462 -0.000001 0
0.002424 -0.000013 0
0.002387 -0.000016 0
0.002350 -0.000013 0
0.002313 -0.000006 0
0.002278 0.000002 0
0.002245 0.000009 0
0.002214 0.000016 0
0.002185 0.000020 0
0.002158 0.000023 0
0.002134 0.000024 0
0.002111 0.000024 0
0.002089 0.000023 0
0.002069 0.000020 0
0.002051 0.000017 0
0.002033 0.000013 0
0.002016 0.000008 0
0.001999 0.000003 0
0.001982 -0.000003 0
0.001965 -0.000011 0
0.001947 -0.000020 0
0.001928 -0.000031 0
0.001906 -0.000044 0
0.001882 -0.000060 0
0.001856 -0.000076 0
0.001826 -0.000087 0
0.001791 -0.000083 0
0.001747 -0.000035 0
0.001682 0.000105 0
0.001574 0.000428 0
0.001389 0.001070 0
0.001088 0.002183 0
0.000662 0.003697 0
0.000211 0.004393 0
0.000000 0.002133 0
0.000000 -0.000780 0
0.000150 -0.002007 0
0.000379 -0.002310 0
0.000572 -0.001805 0
0.000690 -0.001084 0
0.000741 -0.000455 0
0.000746 -0.000025 0
0.000727 0.000204 0
0.000699 0.000284 0
0.000670 0.000275 0
0.000643 0.000226 0
0.000618 0.000172 0
0.000591 0.000130 0
0.000564 0.000104 0
0.000534 0.000095 0
0.000503 0.000096 0
0.000471 0.000104 0
0.000437 0.000116 0
0.000403 0.000128 0
0.000369 0.000141 0
0.000334 0.000154 0
0.000299 0.000167 0
0.000264 0.000181 0
0.000229 0.000196 0
0.000193 0.000213 0
0.000158 0.000234 0
0.000124 0.000261 0
0.000090 0.000297 0
0.000058 0.000347 0
0.000029 0.000415 0
0.000002 0.000502 0
-0.000018 0.000602 0
-0.000031 0.000695 0
-0.000034 0.000745 0
-0.000026 0.000693 0
-0.000011 0.000469 0
0.000000 0.000152 0
0.000000 0.000000 0
0.000000 0.000000 0
0.000000 0.000000 0
0.000000 -0.000517 0
0.000188 -0.001796 0
0.000620 -0.003005 0
0.001162 -0.003596 0
0.001708 -0.003638 0
0.002187 -0.003275 0
0.002565 -0.002665 0
0.002833 -0.001949 0
0.003001 -0.001232 0
0.003084 -0.000585 0
0.003099 -0.000048 0
0.003063 0.000361 0
0.002993 0.000638 0
0.002903 0.000793 0
0.002807 0.000845 0
0.002713 0.000816 0
0.002626 0.000732 0
0.002550 0.000615 0
0.002484 0.000488 0
0.002425 0.000366 0
0.002370 0.000259 0
0.002317 0.000174 0
0.002264 0.000111 0
0.002210 0.000069 0
0.002154 0.000045 0
0.002098 0.000033 0
0.002044 0.000030 0
0.001991 0.000032 0
0.001942 0.000037 0
0.001896 0.000042 0
0.001855 0.000047 0
0.001817 0.000050 0
0.001783 0.000052 0
0.001753 0.000052 0
0.001725 0.000051 0
0.001700 0.000049 0
0.001677 0.000045 0
0.001655 0.000042 0
0.001635 0.000037 0
0.001616 0.000032 0
0.001597 0.000027 0
0.001578 0.000022 0
0.001559 0.000016 0
0.001539 0.000009 0
0.001518 0.000002 0
0.001494 -0.000007 0
0.001467 -0.000018 0
0.001437 -0.000030 0
0.001406 -0.000044 0
0.001374 -0.000053 0
0.001343 -0.000044 0
0.001312 0.000013 0
0.001273 0.000179 0
0.001206 0.000554 0
0.001075 0.001285 0
0.000842 0.002509 0
0.000501 0.004089 0
0.000147 0.004681 0
0.000000 0.002222 0
0.000000 -0.000850 0
0.000130 -0.002183 0
0.000322 -0.002501 0
0.000476 -0.001942 0
0.000562 -0.001155 0
0.000592 -0.000474 0
0.000586 -0.000015 0
0.000564 0.000229 0
0.000537 0.000312 0
0.000509 0.000302 0
0.000483 0.000253 0
0.000456 0.000199 0
0.000427 0.000158 0
0.000396 0.000135 0
0.000363 0.000127 0
0.000328 0.000130 0
0.000292 0.000139 0
0.000256 0.000151 0
0.000221 0.000164 0
0.000185 0.000176 0
0.000150 0.000189 0
0.000116 0.000202 0
0.000082 0.000216 0
0.000049 0.000230 0
0.000017 0.000247 0
-0.000012 0.000266 0
-0.000040 0.000291 0
-0.000065 0.000325 0
-0.000086 0.000372 0
-0.000101 0.000435 0
-0.000110 0.000516 0
-0.000111 0.000607 0
-0.000100 0.000690 0
-0.000079 0.000728 0
-0.000049 0.000670 0
-0.000018 0.000449 0
0.000000 0.000145 0
0.000000 0.000000 0
0.000000 0.000000 0
0.000000 0.000000 0
0.000000 -0.000612 0
0.000189 -0.002105 0
0.000613 -0.003487 0
0.001134 -0.004128 0
0.001643 -0.004132 0
0.002074 -0.003680 0
0.002398 -0.002963 0
0.002615 -0.002144 0
0.002737 -0.001338 0
0.002782 -0.000618 0
0.002769 -0.000026 0
0.002715 0.000420 0
0.002634 0.000720 0
0.002539 0.000886 0
0.002441 0.000938 0
0.002347 0.000904 0
0.002260 0.000811 0
0.002180 0.000686 0
0.002107 0.000552 0
0.002037 0.000426 0
0.001968 0.000319 0
0.001897 0.000235 0
0.001823 0.000174 0
0.001749 0.000134 0
0.001676 0.000110 0
0.001605 0.000097 0
0.001538 0.000091 0
0.001477 0.000089 0
0.001423 0.000089 0
0.001375 0.000089 0
0.001332 0.000089 0
0.001296 0.000087 0
0.001264 0.000085 0
0.001236 0.000082 0
0.001211 0.000077 0
0.001189 0.000073 0
0.001169 0.000068 0
0.001151 0.000062 0
0.001134 0.000057 0
0.001117 0.000051 0
0.001101 0.000046 0
0.001085 0.000041 0
0.001068 0.000036 0
0.001049 0.000031 0
0.001027 0.000026 0
0.001003 0.000020 0
0.000975 0.000012 0