# vtk DataFile Version 2.0
generated by CFD-lab course output (written by Tobias Neckel) 
ASCII

DATASET STRUCTURED_GRID
DIMENSIONS  99 49 1 
POINTS 4851 float

0.000000 0.000000 0
0.020000 0.000000 0
0.040000 0.000000 0
0.060000 0.000000 0
0.080000 0.000000 0
0.100000 0.000000 0
0.120000 0.000000 0
0.140000 0.000000 0
0.160000 0.000000 0
0.180000 0.000000 0
0.200000 0.000000 0
0.220000 0.000000 0
0.240000 0.000000 0
0.260000 0.000000 0
0.280000 0.000000 0
0.300000 0.000000 0
0.320000 0.000000 0
0.340000 0.000000 0
0.360000 0.000000 0
0.380000 0.000000 0
0.400000 0.000000 0
0.420000 0.000000 0
0.440000 0.000000 0
0.460000 0.000000 0
0.480000 0.000000 0
0.500000 0.000000 0
0.520000 0.000000 0
0.540000 0.000000 0
0.560000 0.000000 0
0.580000 0.000000 0
0.600000 0.000000 0
0.620000 0.000000 0
0.640000 0.000000 0
0.660000 0.000000 0
0.680000 0.000000 0
0.700000 0.000000 0
0.720000 0.000000 0
0.740000 0.000000 0
0.760000 0.000000 0
0.780000 0.000000 0
0.800000 0.000000 0
0.820000 0.000000 0
0.840000 0.000000 0
0.860000 0.000000 0
0.880000 0.000000 0
0.900000 0.000000 0
0.920000 0.000000 0
0.940000 0.000000 0
0.960000 0.000000 0
0.980000 0.000000 0
1.000000 0.000000 0
1.020000 0.000000 0
1.040000 0.000000 0
1.060000 0.000000 0
1.080000 0.000000 0
1.100000 0.000000 0
1.120000 0.000000 0
1.140000 0.000000 0
1.160000 0.000000 0
1.180000 0.000000 0
1.200000 0.000000 0
1.220000 0.000000 0
1.240000 0.000000 0
1.260000 0.000000 0
1.280000 0.000000 0
1.300000 0.000000 0
1.320000 0.000000 0
1.340000 0.000000 0
1.360000 0.000000 0
1.380000 0.000000 0
1.400000 0.000000 0
1.420000 0.000000 0
1.440000 0.000000 0
1.460000 0.000000 0
1.480000 0.000000 0
1.500000 0.000000 0
1.520000 0.000000 0
1.540000 0.000000 0
1.560000 0.000000 0
1.580000 0.000000 0
1.600000 0.000000 0
1.620000 0.000000 0
1.640000 0.000000 0
1.660000 0.000000 0
1.680000 0.000000 0
1.700000 0.000000 0
1.720000 0.000000 0
1.740000 0.000000 0
1.760000 0.000000 0
1.780000 0.000000 0
1.800000 0.000000 0
1.820000 0.000000 0
1.840000 0.000000 0
1.860000 0.000000 0
1.880000 0.000000 0
1.900000 0.000000 0
1.920000 0.000000 0
1.940000 0.000000 0
1.960000 0.000000 0
0.000000 0.020000 0
0.020000 0.020000 0
0.040000 0.020000 0
0.060000 0.020000 0
0.080000 0.020000 0
0.100000 0.020000 0
0.120000 0.020000 0
0.140000 0.020000 0
0.160000 0.020000 0
0.180000 0.020000 0
0.200000 0.020000 0
0.220000 0.020000 0
0.240000 0.020000 0
0.260000 0.020000 0
0.280000 0.020000 0
0.300000 0.020000 0
0.320000 0.020000 0
0.340000 0.020000 0
0.360000 0.020000 0
0.380000 0.020000 0
0.400000 0.020000 0
0.420000 0.020000 0
0.440000 0.020000 0
0.460000 0.020000 0
0.480000 0.020000 0
0.500000 0.020000 0
0.520000 0.020000 0
0.540000 0.020000 0
0.560000 0.020000 0
0.580000 0.020000 0
0.600000 0.020000 0
0.620000 0.020000 0
0.640000 0.020000 0
0.660000 0.020000 0
0.680000 0.020000 0
0.700000 0.020000 0
0.720000 0.020000 0
0.740000 0.020000 0
0.760000 0.020000 0
0.780000 0.020000 0
0.800000 0.020000 0
0.820000 0.020000 0
0.840000 0.020000 0
0.860000 0.020000 0
0.880000 0.020000 0
0.900000 0.020000 0
0.920000 0.020000 0
0.940000 0.020000 0
0.960000 0.020000 0
0.980000 0.020000 0
1.000000 0.020000 0
1.020000 0.020000 0
1.040000 0.020000 0
1.060000 0.020000 0
1.080000 0.020000 0
1.100000 0.020000 0
1.120000 0.020000 0
1.140000 0.020000 0
1.160000 0.020000 0
1.180000 0.020000 0
1.200000 0.020000 0
1.220000 0.020000 0
1.240000 0.020000 0
1.260000 0.020000 0
1.280000 0.020000 0
1.300000 0.020000 0
1.320000 0.020000 0
1.340000 0.020000 0
1.360000 0.020000 0
1.380000 0.020000 0
1.400000 0.020000 0
1.420000 0.020000 0
1.440000 0.020000 0
1.460000 0.020000 0
1.480000 0.020000 0
1.500000 0.020000 0
1.520000 0.020000 0
1.540000 0.020000 0
1.560000 0.020000 0
1.580000 0.020000 0
1.600000 0.020000 0
1.620000 0.020000 0
1.640000 0.020000 0
1.660000 0.020000 0
1.680000 0.020000 0
1.700000 0.020000 0
1.720000 0.020000 0
1.740000 0.020000 0
1.760000 0.020000 0
1.780000 0.020000 0
1.800000 0.020000 0
1.820000 0.020000 0
1.840000 0.020000 0
1.860000 0.020000 0
1.880000 0.020000 0
1.900000 0.020000 0
1.920000 0.020000 0
1.940000 0.020000 0
1.960000 0.020000 0
0.000000 0.040000 0
0.020000 0.040000 0
0.040000 0.040000 0
0.060000 0.040000 0
0.080000 0.040000 0
0.100000 0.040000 0
0.120000 0.040000 0
0.140000 0.040000 0
0.160000 0.040000 0
0.180000 0.040000 0
0.200000 0.040000 0
0.220000 0.040000 0
0.240000 0.040000 0
0.260000 0.040000 0
0.280000 0.040000 0
0.300000 0.040000 0
0.320000 0.040000 0
0.340000 0.040000 0
0.360000 0.040000 0
0.380000 0.040000 0
0.400000 0.040000 0
0.420000 0.040000 0
0.440000 0.040000 0
0.460000 0.040000 0
0.480000 0.040000 0
0.500000 0.040000 0
0.520000 0.040000 0
0.540000 0.040000 0
0.560000 0.040000 0
0.580000 0.040000 0
0.600000 0.040000 0
0.620000 0.040000 0
0.640000 0.040000 0
0.660000 0.040000 0
0.680000 0.040000 0
0.700000 0.040000 0
0.720000 0.040000 0
0.740000 0.040000 0
0.760000 0.040000 0
0.780000 0.040000 0
0.800000 0.040000 0
0.820000 0.040000 0
0.840000 0.040000 0
0.860000 0.040000 0
0.880000 0.040000 0
0.900000 0.040000 0
0.920000 0.040000 0
0.940000 0.040000 0
0.960000 0.040000 0
0.980000 0.040000 0
1.000000 0.040000 0
1.020000 0.040000 0
1.040000 0.040000 0
1.060000 0.040000 0
1.080000 0.040000 0
1.100000 0.040000 0
1.120000 0.040000 0
1.140000 0.040000 0
1.160000 0.040000 0
1.180000 0.040000 0
1.200000 0.040000 0
1.220000 0.040000 0
1.240000 0.040000 0
1.260000 0.040000 0
1.280000 0.040000 0
1.300000 0.040000 0
1.320000 0.040000 0
1.340000 0.040000 0
1.360000 0.040000 0
1.380000 0.040000 0
1.400000 0.040000 0
1.420000 0.040000 0
1.440000 0.040000 0
1.460000 0.040000 0
1.480000 0.040000 0
1.500000 0.040000 0
1.520000 0.040000 0
1.540000 0.040000 0
1.560000 0.040000 0
1.580000 0.040000 0
1.600000 0.040000 0
1.620000 0.040000 0
1.640000 0.040000 0
1.660000 0.040000 0
1.680000 0.040000 0
1.700000 0.040000 0
1.720000 0.040000 0
1.740000 0.040000 0
1.760000 0.040000 0
1.780000 0.040000 0
1.800000 0.040000 0
1.820000 0.040000 0
1.840000 0.040000 0
1.860000 0.040000 0
1.880000 0.040000 0
1.900000 0.040000 0
1.920000 0.040000 0
1.940000 0.040000 0
1.960000 0.040000 0
0.000000 0.060000 0
0.020000 0.060000 0
0.040000 0.060000 0
0.060000 0.060000 0
0.080000 0.060000 0
0.100000 0.060000 0
0.120000 0.060000 0
0.140000 0.060000 0
0.160000 0.060000 0
0.180000 0.060000 0
0.200000 0.060000 0
0.220000 0.060000 0
0.240000 0.060000 0
0.260000 0.060000 0
0.280000 0.060000 0
0.300000 0.060000 0
0.320000 0.060000 0
0.340000 0.060000 0
0.360000 0.060000 0
0.380000 0.060000 0
0.400000 0.060000 0
0.420000 0.060000 0
0.440000 0.060000 0
0.460000 0.060000 0
0.480000 0.060000 0
0.500000 0.060000 0
0.520000 0.060000 0
0.540000 0.060000 0
0.560000 0.060000 0
0.580000 0.060000 0
0.600000 0.060000 0
0.620000 0.060000 0
0.640000 0.060000 0
0.660000 0.060000 0
0.680000 0.060000 0
0.700000 0.060000 0
0.720000 0.060000 0
0.740000 0.060000 0
0.760000 0.060000 0
0.780000 0.060000 0
0.800000 0.060000 0
0.820000 0.060000 0
0.840000 0.060000 0
0.860000 0.060000 0
0.880000 0.060000 0
0.900000 0.060000 0
0.920000 0.060000 0
0.940000 0.060000 0
0.960000 0.060000 0
0.980000 0.060000 0
1.000000 0.060000 0
1.020000 0.060000 0
1.040000 0.060000 0
1.060000 0.060000 0
1.080000 0.060000 0
1.100000 0.060000 0
1.120000 0.060000 0
1.140000 0.060000 0
1.160000 0.060000 0
1.180000 0.060000 0
1.200000 0.060000 0
1.220000 0.060000 0
1.240000 0.060000 0
1.260000 0.060000 0
1.280000 0.060000 0
1.300000 0.060000 0
1.320000 0.060000 0
1.340000 0.060000 0
1.360000 0.060000 0
1.380000 0.060000 0
1.400000 0.060000 0
1.420000 0.060000 0
1.440000 0.060000 0
1.460000 0.060000 0
1.480000 0.060000 0
1.500000 0.060000 0
1.520000 0.060000 0
1.540000 0.060000 0
1.560000 0.060000 0
1.580000 0.060000 0
1.600000 0.060000 0
1.620000 0.060000 0
1.640000 0.060000 0
1.660000 0.060000 0
1.680000 0.060000 0
1.700000 0.060000 0
1.720000 0.060000 0
1.740000 0.060000 0
1.760000 0.060000 0
1.780000 0.060000 0
1.800000 0.060000 0
1.820000 0.060000 0
1.840000 0.060000 0
1.860000 0.060000 0
1.880000 0.060000 0
1.900000 0.060000 0
1.920000 0.060000 0
1.940000 0.060000 0
1.960000 0.060000 0
0.000000 0.080000 0
0.020000 0.080000 0
0.040000 0.080000 0
0.060000 0.080000 0
0.080000 0.080000 0
0.100000 0.080000 0
0.120000 0.080000 0
0.140000 0.080000 0
0.160000 0.080000 0
0.180000 0.080000 0
0.200000 0.080000 0
0.220000 0.080000 0
0.240000 0.080000 0
0.260000 0.080000 0
0.280000 0.080000 0
0.300000 0.080000 0
0.320000 0.080000 0
0.340000 0.080000 0
0.360000 0.080000 0
0.380000 0.080000 0
0.400000 0.080000 0
0.420000 0.080000 0
0.440000 0.080000 0
0.460000 0.080000 0
0.480000 0.080000 0
0.500000 0.080000 0
0.520000 0.080000 0
0.540000 0.080000 0
0.560000 0.080000 0
0.580000 0.080000 0
0.600000 0.080000 0
0.620000 0.080000 0
0.640000 0.080000 0
0.660000 0.080000 0
0.680000 0.080000 0
0.700000 0.080000 0
0.720000 0.080000 0
0.740000 0.080000 0
0.760000 0.080000 0
0.780000 0.080000 0
0.800000 0.080000 0
0.820000 0.080000 0
0.840000 0.080000 0
0.860000 0.080000 0
0.880000 0.080000 0
0.900000 0.080000 0
0.920000 0.080000 0
0.940000 0.080000 0
0.960000 0.080000 0
0.980000 0.080000 0
1.000000 0.080000 0
1.020000 0.080000 0
1.040000 0.080000 0
1.060000 0.080000 0
1.080000 0.080000 0
1.100000 0.080000 0
1.120000 0.080000 0
1.140000 0.080000 0
1.160000 0.080000 0
1.180000 0.080000 0
1.200000 0.080000 0
1.220000 0.080000 0
1.240000 0.080000 0
1.260000 0.080000 0
1.280000 0.080000 0
1.300000 0.080000 0
1.320000 0.080000 0
1.340000 0.080000 0
1.360000 0.080000 0
1.380000 0.080000 0
1.400000 0.080000 0
1.420000 0.080000 0
1.440000 0.080000 0
1.460000 0.080000 0
1.480000 0.080000 0
1.500000 0.080000 0
1.520000 0.080000 0
1.540000 0.080000 0
1.560000 0.080000 0
1.580000 0.080000 0
1.600000 0.080000 0
1.620000 0.080000 0
1.640000 0.080000 0
1.660000 0.080000 0
1.680000 0.080000 0
1.700000 0.080000 0
1.720000 0.080000 0
1.740000 0.080000 0
1.760000 0.080000 0
1.780000 0.080000 0
1.800000 0.080000 0
1.820000 0.080000 0
1.840000 0.080000 0
1.860000 0.080000 0
1.880000 0.080000 0
[...]
POINT_DATA 4851 

VECTORS velocity float
0.000000 0.000000 0
0.000097 0.000000 0
0.000231 0.000000 0
0.000327 0.000000 0
0.000372 0.000000 0
0.000376 0.000000 0
0.000358 0.000000 0
0.000330 0.000000 0
0.000304 0.000000 0
0.000284 0.000000 0
0.000271 0.000000 0
0.000264 0.000000 0
0.000262 0.000000 0
0.000263 0.000000 0
0.000264 0.000000 0
0.000266 0.000000 0
0.000267 0.000000 0
0.000267 0.000000 0
0.000267 0.000000 0
0.000266 0.000000 0
0.000265 0.000000 0
0.000263 0.000000 0
0.000262 0.000000 0
0.000260 0.000000 0
0.000258 0.000000 0
0.000255 0.000000 0
0.000253 0.000000 0
0.000250 0.000000 0
0.000247 0.000000 0
0.000242 0.000000 0
0.000234 0.000000 0
0.000220 0.000000 0
0.000196 0.000000 0
0.000155 0.000000 0
0.000098 0.000000 0
0.000035 0.000000 0
0.000000 0.000000 0
0.000000 0.000000 0
0.000000 0.000000 0
0.000000 0.000000 0
0.000000 0.000000 0
-0.000001 0.000000 0
0.000003 0.000000 0
0.000012 0.000000 0
0.000025 0.000000 0
0.000041 0.000000 0
0.000059 0.000000 0
0.000077 0.000000 0
0.000093 0.000000 0
0.000109 0.000000 0
0.000122 0.000000 0
0.000132 0.000000 0
0.000140 0.000000 0
0.000145 0.000000 0
0.000149 0.000000 0
0.000151 0.000000 0
0.000151 0.000000 0
0.000151 0.000000 0
0.000150 0.000000 0
0.000148 0.000000 0
0.000147 0.000000 0
0.000145 0.000000 0
0.000144 0.000000 0
0.000142 0.000000 0
0.000141 0.000000 0
0.000140 0.000000 0
0.000140 0.000000 0
0.000140 0.000000 0
0.000140 0.000000 0
0.000140 0.000000 0
0.000140 0.000000 0
0.000141 0.000000 0
0.000142 0.000000 0
0.000143 0.000000 0
0.000144 0.000000 0
0.000146 0.000000 0
0.000147 0.000000 0
0.000150 0.000000 0
0.000152 0.000000 0
0.000155 0.000000 0
0.000158 0.000000 0
0.000162 0.000000 0
0.000167 0.000000 0
0.000172 0.000000 0
0.000178 0.000000 0
0.000186 0.000000 0
0.000194 0.000000 0
0.000205 0.000000 0
0.000218 0.000000 0
0.000234 0.000000 0
0.000256 0.000000 0
0.000285 0.000000 0
0.000325 0.000000 0
0.000380 0.000000 0
0.000454 0.000000 0
0.000542 0.000000 0
0.000592 0.000000 0
0.000453 0.000000 0
0.000000 0.000000 0
0.000000 -0.000097 0
0.000265 -0.000232 0
0.000643 -0.000231 0
0.000937 -0.000142 0
0.001095 -0.000049 0
0.001137 0.000014 0
0.001105 0.000045 0
0.001041 0.000053 0
0.000971 0.000046 0
0.000914 0.000033 0
0.000874 0.000019 0
0.000852 0.000008 0
0.000843 0.000001 0
0.000843 -0.000003 0
0.000846 -0.000004 0
0.000850 -0.000003 0
0.000853 -0.000002 0
0.000853 -0.000001 0
0.000851 0.000001 0
0.000847 0.000002 0
0.000842 0.000002 0
0.000836 0.000003 0
0.000828 0.000003 0
0.000820 0.000003 0
0.000811 0.000004 0
0.000801 0.000004 0
0.000789 0.000005 0
0.000775 0.000005 0
0.000757 0.000007 0
0.000733 0.000012 0
0.000697 0.000021 0
0.000641 0.000038 0
0.000556 0.000064 0
0.000429 0.000097 0
0.000266 0.000120 0
0.000096 0.000097 0
0.000000 0.000035 0
0.000000 0.000000 0
0.000000 0.000000 0
0.000000 0.000000 0
0.000000 0.000001 0
0.000003 -0.000003 0
0.000021 -0.000012 0
0.000054 -0.000022 0
0.000100 -0.000029 0
0.000155 -0.000033 0
0.000215 -0.000035 0
0.000276 -0.000034 0
0.000333 -0.000032 0
0.000386 -0.000028 0
0.000431 -0.000023 0
0.000468 -0.000018 0
0.000496 -0.000013 0
0.000517 -0.000009 0
0.000530 -0.000005 0
0.000538 -0.000002 0
0.000541 0.000000 0
0.000540 0.000002 0
0.000537 0.000003 0
0.000533 0.000003 0
0.000528 0.000004 0
0.000522 0.000003 0
0.000517 0.000003 0
0.000512 0.000003 0
0.000509 0.000002 0
0.000505 0.000002 0
0.000503 0.000001 0
0.000502 0.000001 0
0.000502 0.000000 0
0.000502 -0.000000 0
0.000503 -0.000001 0
0.000505 -0.000001 0
0.000508 -0.000002 0
0.000512 -0.000002 0
0.000517 -0.000002 0
0.000522 -0.000003 0
0.000529 -0.000004 0
0.000537 -0.000004 0
0.000546 -0.000005 0
0.000556 -0.000006 0
0.000568 -0.000007 0
0.000582 -0.000008 0
0.000598 -0.000009 0
0.000617 -0.000011 0
0.000638 -0.000013 0
0.000663 -0.000016 0
0.000693 -0.000019 0
0.000728 -0.000023 0
0.000771 -0.000029 0
0.000823 -0.000038 0
0.000888 -0.000050 0
0.000970 -0.000068 0
0.001073 -0.000094 0
0.001199 -0.000129 0
0.001338 -0.000161 0
0.001446 -0.000138 0
0.001390 0.000089 0
0.000907 0.000593 0
0.000000 0.000453 0
0.000000 -0.000266 0
0.000354 -0.000644 0
0.000880 -0.000673 0
0.001315 -0.000452 0
0.001577 -0.000201 0
0.001678 -0.000011 0
0.001666 0.000095 0
0.001595 0.000133 0
0.001508 0.000126 0
0.001430 0.000096 0
0.001373 0.000061 0
0.001339 0.000030 0
0.001323 0.000008 0
0.001319 -0.000004 0
0.001321 -0.000008 0
0.001324 -0.000007 0
0.001325 -0.000003 0
0.001322 0.000001 0
0.001317 0.000005 0
0.001309 0.000008 0
0.001297 0.000011 0
0.001284 0.000013 0
0.001269 0.000015 0
0.001251 0.000017 0
0.001231 0.000019 0
0.001209 0.000021 0
0.001182 0.000025 0
0.001151 0.000031 0
0.001111 0.000041 0
0.001059 0.000059 0
0.000987 0.000090 0
0.000887 0.000140 0
0.000746 0.000211 0
0.000559 0.000289 0
0.000337 0.000332 0
0.000121 0.000265 0
0.000000 0.000096 0
0.000000 0.000000 0
0.000000 0.000000 0
0.000000 0.000000 0
0.000000 -0.000003 0
0.000012 -0.000020 0
0.000050 -0.000050 0
0.000112 -0.000079 0
0.000194 -0.000101 0
0.000289 -0.000115 0
0.000392 -0.000120 0
0.000495 -0.000118 0
0.000594 -0.000110 0
0.000684 -0.000097 0
0.000761 -0.000081 0
0.000826 -0.000065 0
0.000876 -0.000049 0
0.000913 -0.000034 0
0.000938 -0.000021 0
0.000953 -0.000010 0
0.000960 -0.000002 0
0.000960 0.000004 0
0.000956 0.000008 0
0.000948 0.000010 0
0.000940 0.000011 0
0.000930 0.000011 0
0.000921 0.000010 0
0.000913 0.000009 0
0.000906 0.000007 0
0.000900 0.000006 0
0.000896 0.000004 0
0.000893 0.000002 0
0.000892 0.000000 0
0.000892 -0.000001 0
0.000894 -0.000003 0
0.000898 -0.000005 0
0.000903 -0.000006 0
0.000910 -0.000008 0
0.000918 -0.000010 0
0.000928 -0.000012 0
0.000939 -0.000014 0
0.000953 -0.000016 0
0.000969 -0.000019 0
0.000987 -0.000022 0
0.001008 -0.000025 0
0.001032 -0.000029 0
0.001060 -0.000034 0
0.001091 -0.000039 0
0.001128 -0.000046 0
0.001169 -0.000054 0
0.001217 -0.000064 0
0.001274 -0.000078 0
0.001340 -0.000095 0
0.001417 -0.000117 0
0.001508 -0.000147 0
0.001613 -0.000185 0
0.001729 -0.000228 0
0.001840 -0.000264 0
0.001911 -0.000247 0
0.001858 -0.000051 0
0.001531 0.000540 0
0.000798 0.001391 0
0.000000 0.000907 0
0.000000 -0.000452 0
0.000368 -0.001112 0
0.000933 -0.001193 0
0.001417 -0.000840 0
0.001726 -0.000412 0
0.001862 -0.000075 0
0.001873 0.000127 0
0.001813 0.000210 0
0.001729 0.000211 0
0.001649 0.000168 0
0.001589 0.000110 0
0.001550 0.000058 0
0.001530 0.000020 0
0.001522 -0.000001 0
0.001519 -0.000009 0
0.001517 -0.000007 0
0.001512 -0.000001 0
0.001505 0.000007 0
0.001493 0.000014 0
0.001478 0.000021 0
0.001460 0.000026 0
0.001438 0.000031 0
0.001414 0.000036 0
0.001387 0.000040 0
0.001356 0.000046 0
0.001321 0.000053 0
0.001281 0.000062 0
0.001233 0.000076 0
0.001175 0.000099 0
0.001102 0.000135 0
0.001007 0.000193 0
0.000882 0.000279 0
0.000721 0.000392 0
0.000523 0.000506 0
0.000304 0.000557 0
0.000105 0.000433 0
0.000000 0.000156 0
0.000000 0.000000 0
0.000000 0.000000 0
0.000000 0.000000 0
0.000000 -0.000011 0
0.000021 -0.000052 0
0.000078 -0.000112 0
0.000164 -0.000166 0
0.000275 -0.000206 0
0.000401 -0.000231 0
0.000534 -0.000241 0
0.000668 -0.000236 0
0.000796 -0.000220 0
0.000911 -0.000195 0
0.001011 -0.000165 0
0.001094 -0.000133 0
0.001159 -0.000100 0
0.001208 -0.000071 0
0.001240 -0.000045 0
0.001260 -0.000023 0
0.001268 -0.000006 0
0.001269 0.000006 0
0.001263 0.000014 0
0.001254 0.000019 0
0.001242 0.000022 0
0.001229 0.000022 0
0.001217 0.000021 0
0.001205 0.000018 0
0.001195 0.000015 0
0.001187 0.000012 0
0.001181 0.000008 0
0.001177 0.000005 0
0.001175 0.000001 0
0.001175 -0.000003 0
0.001178 -0.000006 0
0.001182 -0.000010 0
0.001188 -0.000013 0
0.001197 -0.000017 0
0.001208 -0.000020 0
0.001221 -0.000024 0
0.001236 -0.000029 0
0.001254 -0.000034 0
0.001275 -0.000039 0
0.001299 -0.000045 0
0.001326 -0.000052 0
0.001356 -0.000059 0
0.001391 -0.000068 0
0.001430 -0.000078 0
0.001474 -0.000091 0
0.001524 -0.000105 0
0.001580 -0.000123 0
0.001644 -0.000145 0
0.001716 -0.000173 0
0.001797 -0.000206 0
0.001884 -0.000246 0
0.001973 -0.000288 0
0.002052 -0.000321 0
0.002096 -0.000311 0
0.002053 -0.000179 0
0.001841 0.000242 0
0.001357 0.001149 0
0.000601 0.002124 0
0.000000 0.001252 0
0.000000 -0.000635 0
0.000352 -0.001578 0
0.000904 -0.001722 0
0.001385 -0.001246 0
0.001699 -0.000646 0
0.001845 -0.000159 0
0.001868 0.000144 0
0.001818 0.000277 0
0.001742 0.000290 0
0.001668 0.000236 0
0.001610 0.000159 0
0.001571 0.000088 0
0.001548 0.000036 0
0.001534 0.000007 0
0.001524 -0.000003 0
0.001513 -0.000001 0
0.001501 0.000008 0
0.001484 0.000020 0
0.001464 0.000031 0
0.001441 0.000041 0
0.001414 0.000050 0
0.001384 0.000058 0
0.001351 0.000066 0
0.001315 0.000074 0
0.001274 0.000084 0
0.001229 0.000096 0
0.001177 0.000113 0
0.001118 0.000137 0
0.001048 0.000172 0
0.000964 0.000227 0
0.000862 0.000310 0
0.000735 0.000426 0
0.000582 0.000570 0
0.000406 0.000705 0
0.000226 0.000750 0
0.000073 0.000569 0
0.000000 0.000201 0
0.000000 0.000000 0
0.000000 0.000000 0
0.000000 0.000000 0
0.000000 -0.000023 0
0.000028 -0.000097 0
0.000100 -0.000193 0
0.000208 -0.000276 0
0.000341 -0.000337 0
0.000490 -0.000374 0
0.000647 -0.000387 0
0.000803 -0.000379 0
0.000950 -0.000352 0
0.001082 -0.000313 0
0.001196 -0.000264 0
0.001289 -0.000213 0
0.001361 -0.000162 0
0.001414 -0.000114 0
0.001449 -0.000073 0
0.001469 -0.000038 0
0.001477 -0.000011 0
0.001475 0.000009 0
0.001467 0.000023 0
0.001454 0.000032 0
0.001439 0.000036 0
0.001423 0.000036 0
0.001408 0.000034 0
0.001393 0.000031 0
0.001381 0.000026 0
0.001370 0.000020 0
0.001363 0.000014 0
0.001357 0.000008 0
0.001355 0.000002 0
0.001355 -0.000004 0
0.001357 -0.000009 0
0.001362 -0.000015 0
0.001369 -0.000021 0
0.001379 -0.000027 0
0.001392 -0.000033 0
0.001407 -0.000040 0
0.001425 -0.000047 0
0.001445 -0.000055 0
0.001469 -0.000063 0
0.001496 -0.000072 0
0.001526 -0.000083 0
0.001560 -0.000094 0
0.001598 -0.000107 0
0.001639 -0.000122 0
0.001686 -0.000140 0
0.001737 -0.000160 0
0.001794 -0.000185 0
0.001855 -0.000213 0
0.001922 -0.000247 0
0.001991 -0.000285 0
0.002059 -0.000323 0
0.002116 -0.000353 0
0.002146 -0.000350 0
0.002119 -0.000265 0
0.001986 0.000008 0
0.001679 0.000645 0
0.001144 0.001780 0
0.000451 0.002747 0
0.000000 0.001508 0
0.000000 -0.000805 0
0.000325 -0.002016 0
0.000837 -0.002225 0
0.001286 -0.001636 0
0.001581 -0.000873 0
0.001720 -0.000244 0
0.001743 0.000154 0
0.001700 0.000335 0
0.001632 0.000361 0
0.001565 0.000299 0
0.001511 0.000206 0
0.001472 0.000120 0
0.001444 0.000058 0
0.001423 0.000023 0
0.001404 0.000011 0
0.001383 0.000015 0
0.001360 0.000028 0
0.001333 0.000043 0
0.001303 0.000057 0
0.001271 0.000071 0
0.001235 0.000082 0
0.001197 0.000094 0
0.001156 0.000105 0
0.001111 0.000117 0
0.001062 0.000132 0
0.001009 0.000150 0
0.000951 0.000173 0
0.000886 0.000205 0
0.000813 0.000252 0
0.000730 0.000321 0
0.000634 0.000422 0
0.000522 0.000559 0
0.000396 0.000720 0
0.000262 0.000862 0
0.000136 0.000890 0
0.000040 0.000659 0
0.000000 0.000229 0
0.000000 0.000000 0
0.000000 0.000000 0
0.000000 0.000000 0
0.000000 -0.000039 0
0.000034 -0.000152 0
0.000118 -0.000291 0
0.000242 -0.000406 0
0.000394 -0.000489 0
0.000562 -0.000538 0
0.000736 -0.000553 0
0.000906 -0.000538 0
0.001065 -0.000499 0
0.001206 -0.000441 0
0.001325 -0.000372 0
0.001421 -0.000298 0
0.001493 -0.000226 0
0.001544 -0.000158 0
0.001575 -0.000100 0
0.001590 -0.000051 0
0.001593 -0.000012 0
0.001586 0.000016 0
0.001572 0.000036 0
0.001555 0.000047 0
0.001535 0.000053 0
0.001515 0.000054 0
0.001496 0.000051 0
0.001479 0.000045 0
0.001464 0.000038 0
0.001452 0.000030 0
0.001443 0.000022 0
0.001437 0.000013 0
0.001434 0.000004 0
0.001434 -0.000005 0
0.001437 -0.000013 0
0.001442 -0.000022 0
0.001451 -0.000030 0
0.001462 -0.000039 0
0.001476 -0.000048 0
0.001492 -0.000057 0
0.001512 -0.000067 0
0.001534 -0.000078 0
0.001559 -0.000089 0
0.001588 -0.000102 0
0.001619 -0.000116 0
0.001653 -0.000131 0
0.001691 -0.000148 0
0.001732 -0.000167 0
0.001776 -0.000188 0
0.001824 -0.000213 0
0.001875 -0.000241 0
0.001929 -0.000273 0
0.001983 -0.000308 0
0.002035 -0.000343 0
0.002078 -0.000371 0
0.002103 -0.000375 0
0.002091 -0.000324 0
0.002013 -0.000151 0
0.001826 0.000262 0
0.001481 0.001084 0
0.000956 0.002376 0
0.000347 0.003268 0
0.000000 0.001703 0
0.000000 -0.000960 0
0.000293 -0.002416 0
0.000755 -0.002684 0
0.001157 -0.001990 0
0.001417 -0.001079 0
0.001538 -0.000321 0
0.001556 0.000163 0
0.001515 0.000388 0
0.001454 0.000425 0
0.001393 0.000357 0
0.001343 0.000252 0
0.001303 0.000154 0
0.001271 0.000085 0
0.001241 0.000048 0
0.001212 0.000037 0
0.001180 0.000043 0
0.001145 0.000058 0
0.001108 0.000076 0
0.001068 0.000093 0
0.001027 0.000109 0
0.000983 0.000123 0
0.000937 0.000137 0
0.000889 0.000152 0
0.000838 0.000167 0
0.000785 0.000186 0
0.000728 0.000208 0
0.000667 0.000236 0
0.000603 0.000274 0
0.000535 0.000328 0
0.000462 0.000406 0
0.000382 0.000517 0
0.000296 0.000664 0
0.000207 0.000830 0
0.000122 0.000965 0
0.000053 0.000972 0
0.000011 0.000704 0
0.000000 0.000241 0
0.000000 0.000000 0
0.000000 0.000000 0
0.000000 0.000000 0
0.000000 -0.000057 0
0.000038 -0.000215 0
0.000132 -0.000402 0
0.000270 -0.000551 0
0.000436 -0.000657 0
0.000618 -0.000716 0
0.000804 -0.000732 0
0.000983 -0.000708 0
0.001147 -0.000652 0
0.001290 -0.000573 0
0.001407 -0.000479 0
0.001498 -0.000381 0
0.001562 -0.000285 0
0.001604 -0.000196 0
0.001625 -0.000119 0
0.001629 -0.000056 0
0.001622 -0.000006 0
0.001605 0.000030 0
0.001583 0.000055 0
0.001558 0.000069 0
0.001532 0.000075 0
0.001508 0.000075 0
0.001485 0.000071 0
0.001465 0.000063 0
0.001449 0.000053 0
0.001435 0.000042 0
0.001426 0.000030 0
0.001420 0.000018 0
0.001417 0.000006 0
0.001418 -0.000006 0
0.001422 -0.000018 0
0.001429 -0.000029 0
0.001438 -0.000040 0
0.001451 -0.000052 0
0.001467 -0.000064 0
0.001485 -0.000076 0
0.001506 -0.000089 0
0.001529 -0.000102 0
0.001555 -0.000116 0
0.001584 -0.000132 0
0.001615 -0.000148 0
0.001648 -0.000166 0
0.001684 -0.000186 0
0.001722 -0.000208 0
0.001761 -0.000232 0
0.001803 -0.000259 0
0.001845 -0.000289 0
0.001887 -0.000321 0
0.001927 -0.000353 0
0.001962 -0.000380 0
0.001985 -0.000392 0
0.001985 -0.000366 0
0.001945 -0.000260 0
0.001840 0.000000 0
0.001632 0.000540 0
0.001288 0.001515 0
0.000800 0.002915 0
0.000272 0.003704 0
0.000000 0.001855 0
0.000000 -0.001099 0
0.000261 -0.002772 0
0.000667 -0.003089 0
0.001015 -0.002299 0
0.001236 -0.001255 0
0.001332 -0.000383 0
0.001341 0.000176 0
0.001302 0.000437 0
0.001246 0.000483 0
0.001191 0.000410 0
0.001143 0.000296 0
0.001102 0.000192 0
0.001064 0.000119 0
0.001026 0.000082 0
0.000986 0.000073 0
0.000944 0.000082 0
0.000899 0.000099 0
0.000852 0.000119 0
0.000804 0.000138 0
0.000755 0.000155 0
0.000706 0.000171 0
0.000654 0.000187 0
0.000602 0.000204 0
0.000548 0.000222 0
0.000492 0.000242 0
0.000436 0.000266 0
0.000378 0.000297 0
0.000320 0.000337 0
0.000262 0.000393 0
0.000203 0.000474 0
0.000146 0.000588 0
0.000090 0.000734 0
0.000040 0.000894 0
0.000004 0.001015 0
-0.000013 0.001001 0
-0.000011 0.000711 0
0.000000 0.000240 0
0.000000 0.000000 0
0.000000 0.000000 0
0.000000 0.000000 0
0.000000 -0.000076 0
0.000041 -0.000284 0
0.000144 -0.000523 0
0.000292 -0.000709 0
0.000469 -0.000837 0
0.000661 -0.000905 0
0.000854 -0.000918 0
0.001038 -0.000881 0
0.001201 -0.000805 0
0.001338 -0.000700 0
0.001446 -0.000579 0
0.001524 -0.000453 0
0.001574 -0.000331 0
0.001598 -0.000221 0
0.001602 -0.000125 0
0.001589 -0.000048 0
0.001565 0.000012 0
0.001534 0.000055 0
0.001500 0.000083 0
0.001465 0.000098 0
0.001432 0.000104 0
0.001402 0.000101 0
0.001376 0.000094 0
0.001354 0.000082 0
0.001337 0.000068 0
0.001324 0.000053 0
0.001316 0.000037 0
0.001311 0.000022 0
0.001310 0.000006 0
0.001313 -0.000009 0
0.001320 -0.000024 0
0.001329 -0.000038 0
0.001342 -0.000053 0
0.001357 -0.000067 0
0.001375 -0.000081 0
0.001395 -0.000096 0
0.001418 -0.000111 0
0.001442 -0.000127 0
0.001469 -0.000144 0
0.001497 -0.000161 0
0.001527 -0.000180 0
0.001559 -0.000200 0
0.001591 -0.000221 0
0.001625 -0.000244 0
0.001659 -0.000269 0
0.001692 -0.000297 0
0.001725 -0.000326 0
0.001756 -0.000355 0
0.001784 -0.000382 0
0.001804 -0.000400 0
0.001812 -0.000393 0
0.001799 -0.000336 0
0.001748 -0.000179 0
0.001635 0.000162 0
0.001432 0.000814 0
0.001109 0.001917 0
0.000670 0.003392 0
0.000216 0.004069 0
0.000000 0.001975 0
0.000000 -0.001221 0
0.000229 -0.003083 0
0.000581 -0.003439 0
0.000874 -0.002559 0
0.001053 -0.001397 0
0.001125 -0.000427 0
0.001123 0.000194 0
0.001084 0.000483 0
0.001033 0.000536 0
0.000983 0.000459 0
0.000937 0.000340 0
0.000894 0.000233 0
0.000850 0.000160 0
0.000805 0.000125 0
0.000756 0.000119 0
0.000705 0.000130 0
0.000652 0.000149 0
0.000598 0.000170 0
0.000544 0.000190 0
0.000491 0.000207 0
0.000437 0.000224 0
0.000383 0.000241 0
0.000329 0.000258 0
0.000275 0.000277 0
0.000221 0.000298 0
0.000168 0.000322 0
0.000117 0.000351 0
0.000069 0.000390 0
0.000024 0.000444 0
-0.000017 0.000522 0
-0.000051 0.000631 0
-0.000077 0.000768 0
-0.000090 0.000915 0
-0.000085 0.001019 0
-0.000061 0.000986 0
-0.000025 0.000690 0
0.000000 0.000230 0
0.000000 0.000000 0
0.000000 0.000000 0
0.000000 0.000000 0
0.000000 -0.000097 0
0.000044 -0.000359 0
0.000153 -0.000653 0
0.000309 -0.000876 0
0.000494 -0.001026 0
0.000693 -0.001101 0
0.000889 -0.001108 0
0.001071 -0.001054 0
0.001228 -0.000952 0
0.001354 -0.000818 0
0.001445 -0.000665 0
0.001503 -0.000508 0
0.001529 -0.000358 0
0.001528 -0.000224 0
0.001506 -0.000110 0
0.001470 -0.000020 0
0.001424 0.000049 0
0.001374 0.000095 0
0.001324 0.000124 0
0.001277 0.000137 0
0.001236 0.000139 0
0.001200 0.000132 0
0.001172 0.000119 0
0.001150 0.000102 0
0.001134 0.000083 0
0.001124 0.000063 0
0.001119 0.000043 0
0.001119 0.000023 0
0.001123 0.000003 0
0.001130 -0.000015 0
0.001141 -0.000033 0
0.001155 -0.000051 0
0.001172 -0.000068 0
0.001192 -0.000085 0
0.001213 -0.000102 0
0.001236 -0.000119 0
0.001261 -0.000136 0
0.001288 -0.000153 0
0.001315 -0.000171 0
0.001344 -0.000190 0
0.001373 -0.000209 0
0.001402 -0.000230 0
0.001431 -0.000252 0
0.001460 -0.000275 0
0.001488 -0.000300 0
0.001514 -0.000326 0
0.001539 -0.000353 0
0.001560 -0.000379 0
0.001578 -0.000401 0
0.001590 -0.000409 0
0.001591 -0.000386 0
0.001574 -0.000300 0
0.001525 -0.000097 0
0.001422 0.000316 0
0.001239 0.001066 0
0.000949 0.002277 0
0.000561 0.003808 0
0.000173 0.004374 0
0.000000 0.002072 0
0.000000 -0.001329 0
0.000200 -0.003353 0
0.000499 -0.003734 0
0.000742 -0.002771 0
0.000881 -0.001506 0
0.000929 -0.000454 0
0.000918 0.000216 0
0.000879 0.000527 0
0.000832 0.000584 0
0.000785 0.000506 0
0.000740 0.000385 0
0.000695 0.000278 0
0.000647 0.000208 0
0.000596 0.000176 0
0.000541 0.000173 0
0.000483 0.000186 0
0.000426 0.000206 0
0.000368 0.000226 0
0.000312 0.000245 0
0.000256 0.000262 0
0.000202 0.000279 0
0.000148 0.000295 0
0.000096 0.000312 0
0.000045 0.000330 0
-0.000005 0.000349 0
-0.000051 0.000370 0
-0.000094 0.000396 0
-0.000131 0.000430 0
-0.000162 0.000479 0
-0.000185 0.000549 0
-0.000198 0.000648 0
-0.000198 0.000772 0
-0.000180 0.000901 0
-0.000143 0.000986 0
-0.000090 0.000940 0
-0.000033 0.000650 0
0.000000 0.000214 0
0.000000 0.000000 0
0.000000 0.000000 0
0.000000 0.000000 0
0.000000 -0.000120 0
0.000046 -0.000437 0
0.000160 -0.000788 0
0.000322 -0.001050 0
0.000512 -0.001220 0
0.000714 -0.001300 0
0.000909 -0.001296 0
0.001085 -0.001220 0
0.001230 -0.001088 0
0.001337 -0.000917 0
0.001405 -0.000728 0
0.001434 -0.000536 0
0.001428 -0.000357 0
0.001393 -0.000198 0
0.001338 -0.000067 0
0.001269 0.000035 0
0.001194 0.000108 0
0.001120 0.000155 0
0.001052 0.000180 0
0.000993 0.000187 0
0.000944 0.000180 0
0.000905 0.000165 0
0.000877 0.000144 0
0.000859 0.000120 0
0.000849 0.000094 0
0.000845 0.000068 0
0.000848 0.000043 0
0.000856 0.000018 0
0.000868 -0.000005 0
0.000883 -0.000027 0
0.000902 -0.000049 0
0.000923 -0.000069 0
0.000947 -0.000089 0
0.000972 -0.000108 0
0.000998 -0.000126 0
0.001026 -0.000144 0
0.001054 -0.000163 0
0.001083 -0.000181 0
0.001112 -0.000199 0
0.001141 -0.000218 0
0.001169 -0.000238 0
0.001197 -0.000258 0
0.001223 -0.000279 0
0.001247 -0.000301 0