# vtk DataFile Version 2.0
generated by CFD-lab course output (written by Tobias Neckel) 
ASCII

DATASET STRUCTURED_GRID
DIMENSIONS  99 49 1 
POINTS 4851 float

0.000000 0.000000 0
0.020000 0.000000 0
0.040000 0.000000 0
0.060000 0.000000 0
0.080000 0.000000 0
0.100000 0.000000 0
0.120000 0.000000 0
0.140000 0.000000 0
0.160000 0.000000 0
0.180000 0.000000 0
0.200000 0.000000 0
0.220000 0.000000 0
0.240000 0.000000 0
0.260000 0.000000 0
0.280000 0.000000 0
0.300000 0.000000 0
0.320000 0.000000 0
0.340000 0.000000 0
0.360000 0.000000 0
0.380000 0.000000 0
0.400000 0.000000 0
0.420000 0.000000 0
0.440000 0.000000 0
0.460000 0.000000 0
0.480000 0.000000 0
0.500000 0.000000 0
0.520000 0.000000 0
0.540000 0.000000 0
0.560000 0.000000 0
0.580000 0.000000 0
0.600000 0.000000 0
0.620000 0.000000 0
0.640000 0.000000 0
0.660000 0.000000 0
0.680000 0.000000 0
0.700000 0.000000 0
0.720000 0.000000 0
0.740000 0.000000 0
0.760000 0.000000 0
0.780000 0.000000 0
0.800000 0.000000 0
0.820000 0.000000 0
0.840000 0.000000 0
0.860000 0.000000 0
0.880000 0.000000 0
0.900000 0.000000 0
0.920000 0.000000 0
0.940000 0.000000 0
0.960000 0.000000 0
0.980000 0.000000 0
1.000000 0.000000 0
1.020000 0.000000 0
1.040000 0.000000 0
1.060000 0.000000 0
1.080000 0.000000 0
1.100000 0.000000 0
1.120000 0.000000 0
1.140000 0.000000 0
1.160000 0.000000 0
1.180000 0.000000 0
1.200000 0.000000 0
1.220000 0.000000 0
1.240000 0.000000 0
1.260000 0.000000 0
1.280000 0.000000 0
1.300000 0.000000 0
1.320000 0.000000 0
1.340000 0.000000 0
1.360000 0.000000 0
1.380000 0.000000 0
1.400000 0.000000 0
1.420000 0.000000 0
1.440000 0.000000 0
1.460000 0.000000 0
1.480000 0.000000 0
1.500000 0.000000 0
1.520000 0.000000 0
1.540000 0.000000 0
1.560000 0.000000 0
1.580000 0.000000 0
1.600000 0.000000 0
1.620000 0.000000 0
1.640000 0.000000 0
1.660000 0.000000 0
1.680000 0.000000 0
1.700000 0.000000 0
1.720000 0.000000 0
1.740000 0.000000 0
1.760000 0.000000 0
1.780000 0.000000 0
1.800000 0.000000 0
1.820000 0.000000 0
1.840000 0.000000 0
1.860000 0.000000 0
1.880000 0.000000 0
1.900000 0.000000 0
1.920000 0.000000 0
1.940000 0.000000 0
1.960000 0.000000 0
0.000000 0.020000 0
0.020000 0.020000 0
0.040000 0.020000 0
0.060000 0.020000 0
0.080000 0.020000 0
0.100000 0.020000 0
0.120000 0.020000 0
0.140000 0.020000 0
0.160000 0.020000 0
0.180000 0.020000 0
0.200000 0.020000 0
0.220000 0.020000 0
0.240000 0.020000 0
0.260000 0.020000 0
0.280000 0.020000 0
0.300000 0.020000 0
0.320000 0.020000 0
0.340000 0.020000 0
0.360000 0.020000 0
0.380000 0.020000 0
0.400000 0.020000 0
0.420000 0.020000 0
0.440000 0.020000 0
0.460000 0.020000 0
0.480000 0.020000 0
0.500000 0.020000 0
0.520000 0.020000 0
0.540000 0.020000 0
0.560000 0.020000 0
0.580000 0.020000 0
0.600000 0.020000 0
0.620000 0.020000 0
0.640000 0.020000 0
0.660000 0.020000 0
0.680000 0.020000 0
0.700000 0.020000 0
0.720000 0.020000 0
0.740000 0.020000 0
0.760000 0.020000 0
0.780000 0.020000 0
0.800000 0.020000 0
0.820000 0.020000 0
0.840000 0.020000 0
0.860000 0.020000 0
0.880000 0.020000 0
0.900000 0.020000 0
0.920000 0.020000 0
0.940000 0.020000 0
0.960000 0.020000 0
0.980000 0.020000 0
1.000000 0.020000 0
1.020000 0.020000 0
1.040000 0.020000 0
1.060000 0.020000 0
1.080000 0.020000 0
1.100000 0.020000 0
1.120000 0.020000 0
1.140000 0.020000 0
1.160000 0.020000 0
1.180000 0.020000 0
1.200000 0.020000 0
1.220000 0.020000 0
1.240000 0.020000 0
1.260000 0.020000 0
1.280000 0.020000 0
1.300000 0.020000 0
1.320000 0.020000 0
1.340000 0.020000 0
1.360000 0.020000 0
1.380000 0.020000 0
1.400000 0.020000 0
1.420000 0.020000 0
1.440000 0.020000 0
1.460000 0.020000 0
1.480000 0.020000 0
1.500000 0.020000 0
1.520000 0.020000 0
1.540000 0.020000 0
1.560000 0.020000 0
1.580000 0.020000 0
1.600000 0.020000 0
1.620000 0.020000 0
1.640000 0.020000 0
1.660000 0.020000 0
1.680000 0.020000 0
1.700000 0.020000 0
1.720000 0.020000 0
1.740000 0.020000 0
1.760000 0.020000 0
1.780000 0.020000 0
1.800000 0.020000 0
1.820000 0.020000 0
1.840000 0.020000 0
1.860000 0.020000 0
1.880000 0.020000 0
1.900000 0.020000 0
1.920000 0.020000 0
1.940000 0.020000 0
1.960000 0.020000 0
0.000000 0.040000 0
0.020000 0.040000 0
0.040000 0.040000 0
0.060000 0.040000 0
0.080000 0.040000 0
0.100000 0.040000 0
0.120000 0.040000 0
0.140000 0.040000 0
0.160000 0.040000 0
0.180000 0.040000 0
0.200000 0.040000 0
0.220000 0.040000 0
0.240000 0.040000 0
0.260000 0.040000 0
0.280000 0.040000 0
0.300000 0.040000 0
0.320000 0.040000 0
0.340000 0.040000 0
0.360000 0.040000 0
0.380000 0.040000 0
0.400000 0.040000 0
0.420000 0.040000 0
0.440000 0.040000 0
0.460000 0.040000 0
0.480000 0.040000 0
0.500000 0.040000 0
0.520000 0.040000 0
0.540000 0.040000 0
0.560000 0.040000 0
0.580000 0.040000 0
0.600000 0.040000 0
0.620000 0.040000 0
0.640000 0.040000 0
0.660000 0.040000 0
0.680000 0.040000 0
0.700000 0.040000 0
0.720000 0.040000 0
0.740000 0.040000 0
0.760000 0.040000 0
0.780000 0.040000 0
0.800000 0.040000 0
0.820000 0.040000 0
0.840000 0.040000 0
0.860000 0.040000 0
0.880000 0.040000 0
0.900000 0.040000 0
0.920000 0.040000 0
0.940000 0.040000 0
0.960000 0.040000 0
0.980000 0.040000 0
1.000000 0.040000 0
1.020000 0.040000 0
1.040000 0.040000 0
1.060000 0.040000 0
1.080000 0.040000 0
1.100000 0.040000 0
1.120000 0.040000 0
1.140000 0.040000 0
1.160000 0.040000 0
1.180000 0.040000 0
1.200000 0.040000 0
1.220000 0.040000 0
1.240000 0.040000 0
1.260000 0.040000 0
1.280000 0.040000 0
1.300000 0.040000 0
1.320000 0.040000 0
1.340000 0.040000 0
1.360000 0.040000 0
1.380000 0.040000 0
1.400000 0.040000 0
1.420000 0.040000 0
1.440000 0.040000 0
1.460000 0.040000 0
1.480000 0.040000 0
1.500000 0.040000 0
1.520000 0.040000 0
1.540000 0.040000 0
1.560000 0.040000 0
1.580000 0.040000 0
1.600000 0.040000 0
1.620000 0.040000 0
1.640000 0.040000 0
1.660000 0.040000 0
1.680000 0.040000 0
1.700000 0.040000 0
1.720000 0.040000 0
1.740000 0.040000 0
1.760000 0.040000 0
1.780000 0.040000 0
1.800000 0.040000 0
1.820000 0.040000 0
1.840000 0.040000 0
1.860000 0.040000 0
1.880000 0.040000 0
1.900000 0.040000 0
1.920000 0.040000 0
1.940000 0.040000 0
1.960000 0.040000 0
0.000000 0.060000 0
0.020000 0.060000 0
0.040000 0.060000 0
0.060000 0.060000 0
0.080000 0.060000 0
0.100000 0.060000 0
0.120000 0.060000 0
0.140000 0.060000 0
0.160000 0.060000 0
0.180000 0.060000 0
0.200000 0.060000 0
0.220000 0.060000 0
0.240000 0.060000 0
0.260000 0.060000 0
0.280000 0.060000 0
0.300000 0.060000 0
0.320000 0.060000 0
0.340000 0.060000 0
0.360000 0.060000 0
0.380000 0.060000 0
0.400000 0.060000 0
0.420000 0.060000 0
0.440000 0.060000 0
0.460000 0.060000 0
0.480000 0.060000 0
0.500000 0.060000 0
0.520000 0.060000 0
0.540000 0.060000 0
0.560000 0.060000 0
0.580000 0.060000 0
0.600000 0.060000 0
0.620000 0.060000 0
0.640000 0.060000 0
0.660000 0.060000 0
0.680000 0.060000 0
0.700000 0.060000 0
0.720000 0.060000 0
0.740000 0.060000 0
0.760000 0.060000 0
0.780000 0.060000 0
0.800000 0.060000 0
0.820000 0.060000 0
0.840000 0.060000 0
0.860000 0.060000 0
0.880000 0.060000 0
0.900000 0.060000 0
0.920000 0.060000 0
0.940000 0.060000 0
0.960000 0.060000 0
0.980000 0.060000 0
1.000000 0.060000 0
1.020000 0.060000 0
1.040000 0.060000 0
1.060000 0.060000 0
1.080000 0.060000 0
1.100000 0.060000 0
1.120000 0.060000 0
1.140000 0.060000 0
1.160000 0.060000 0
1.180000 0.060000 0
1.200000 0.060000 0
1.220000 0.060000 0
1.240000 0.060000 0
1.260000 0.060000 0
1.280000 0.060000 0
1.300000 0.060000 0
1.320000 0.060000 0
1.340000 0.060000 0
1.360000 0.060000 0
1.380000 0.060000 0
1.400000 0.060000 0
1.420000 0.060000 0
1.440000 0.060000 0
1.460000 0.060000 0
1.480000 0.060000 0
1.500000 0.060000 0
1.520000 0.060000 0
1.540000 0.060000 0
1.560000 0.060000 0
1.580000 0.060000 0
1.600000 0.060000 0
1.620000 0.060000 0
1.640000 0.060000 0
1.660000 0.060000 0
1.680000 0.060000 0
1.700000 0.060000 0
1.720000 0.060000 0
1.740000 0.060000 0
1.760000 0.060000 0
1.780000 0.060000 0
1.800000 0.060000 0
1.820000 0.060000 0
1.840000 0.060000 0
1.860000 0.060000 0
1.880000 0.060000 0
1.900000 0.060000 0
1.920000 0.060000 0
1.940000 0.060000 0
1.960000 0.060000 0
0.000000 0.080000 0
0.020000 0.080000 0
0.040000 0.080000 0
0.060000 0.080000 0
0.080000 0.080000 0
0.100000 0.080000 0
0.120000 0.080000 0
0.140000 0.080000 0
0.160000 0.080000 0
0.180000 0.080000 0
0.200000 0.080000 0
0.220000 0.080000 0
0.240000 0.080000 0
0.260000 0.080000 0
0.280000 0.080000 0
0.300000 0.080000 0
0.320000 0.080000 0
0.340000 0.080000 0
0.360000 0.080000 0
0.380000 0.080000 0
0.400000 0.080000 0
0.420000 0.080000 0
0.440000 0.080000 0
0.460000 0.080000 0
0.480000 0.080000 0
0.500000 0.080000 0
0.520000 0.080000 0
0.540000 0.080000 0
0.560000 0.080000 0
0.580000 0.080000 0
0.600000 0.080000 0
0.620000 0.080000 0
0.640000 0.080000 0
0.660000 0.080000 0
0.680000 0.080000 0
0.700000 0.080000 0
0.720000 0.080000 0
0.740000 0.080000 0
0.760000 0.080000 0
0.780000 0.080000 0
0.800000 0.080000 0
0.820000 0.080000 0
0.840000 0.080000 0
0.860000 0.080000 0
0.880000 0.080000 0
0.900000 0.080000 0
0.920000 0.080000 0
0.940000 0.080000 0
0.960000 0.080000 0
0.980000 0.080000 0
1.000000 0.080000 0
1.020000 0.080000 0
1.040000 0.080000 0
1.060000 0.080000 0
1.080000 0.080000 0
1.100000 0.080000 0
1.120000 0.080000 0
1.140000 0.080000 0
1.160000 0.080000 0
1.180000 0.080000 0
1.200000 0.080000 0
1.220000 0.080000 0
1.240000 0.080000 0
1.260000 0.080000 0
1.280000 0.080000 0
1.300000 0.080000 0
1.320000 0.080000 0
1.340000 0.080000 0
1.360000 0.080000 0
1.380000 0.080000 0
1.400000 0.080000 0
1.420000 0.080000 0
1.440000 0.080000 0
1.460000 0.080000 0
1.480000 0.080000 0
1.500000 0.080000 0
1.520000 0.080000 0
1.540000 0.080000 0
1.560000 0.080000 0
1.580000 0.080000 0
1.600000 0.080000 0
1.620000 0.080000 0
1.640000 0.080000 0
1.660000 0.080000 0
1.680000 0.080000 0
1.700000 0.080000 0
1.720000 0.080000 0
1.740000 0.080000 0
1.760000 0.080000 0
1.780000 0.080000 0
1.800000 0.080000 0
1.820000 0.080000 0
1.840000 0.080000 0
1.860000 0.080000 0
1.880000 0.080000 0
[...]
POINT_DATA 4851 

VECTORS velocity float
0.000000 0.000000 0
0.000101 0.000000 0
0.000240 0.000000 0
0.000339 0.000000 0
0.000384 0.000000 0
0.000387 0.000000 0
0.000367 0.000000 0
0.000338 0.000000 0
0.000311 0.000000 0
0.000290 0.000000 0
0.000276 0.000000 0
0.000269 0.000000 0
0.000267 0.000000 0
0.000268 0.000000 0
0.000270 0.000000 0
0.000272 0.000000 0
0.000273 0.000000 0
0.000274 0.000000 0
0.000273 0.000000 0
0.000272 0.000000 0
0.000271 0.000000 0
0.000270 0.000000 0
0.000268 0.000000 0
0.000266 0.000000 0
0.000264 0.000000 0
0.000262 0.000000 0
0.000259 0.000000 0
0.000257 0.000000 0
0.000254 0.000000 0
0.000249 0.000000 0
0.000241 0.000000 0
0.000228 0.000000 0
0.000203 0.000000 0
0.000162 0.000000 0
0.000102 0.000000 0
0.000037 0.000000 0
0.000000 0.000000 0
0.000000 0.000000 0
0.000000 0.000000 0
0.000000 0.000000 0
0.000000 0.000000 0
-0.000000 0.000000 0
0.000003 0.000000 0
0.000010 0.000000 0
0.000021 0.000000 0
0.000034 0.000000 0
0.000049 0.000000 0
0.000064 0.000000 0
0.000078 0.000000 0
0.000091 0.000000 0
0.000103 0.000000 0
0.000112 0.000000 0
0.000120 0.000000 0
0.000126 0.000000 0
0.000130 0.000000 0
0.000132 0.000000 0
0.000133 0.000000 0
0.000134 0.000000 0
0.000133 0.000000 0
0.000132 0.000000 0
0.000131 0.000000 0
0.000129 0.000000 0
0.000128 0.000000 0
0.000127 0.000000 0
0.000126 0.000000 0
0.000125 0.000000 0
0.000124 0.000000 0
0.000124 0.000000 0
0.000124 0.000000 0
0.000124 0.000000 0
0.000125 0.000000 0
0.000126 0.000000 0
0.000127 0.000000 0
0.000128 0.000000 0
0.000130 0.000000 0
0.000132 0.000000 0
0.000134 0.000000 0
0.000137 0.000000 0
0.000140 0.000000 0
0.000143 0.000000 0
0.000147 0.000000 0
0.000151 0.000000 0
0.000157 0.000000 0
0.000162 0.000000 0
0.000169 0.000000 0
0.000177 0.000000 0
0.000187 0.000000 0
0.000198 0.000000 0
0.000212 0.000000 0
0.000229 0.000000 0
0.000252 0.000000 0
0.000282 0.000000 0
0.000322 0.000000 0
0.000378 0.000000 0
0.000454 0.000000 0
0.000542 0.000000 0
0.000593 0.000000 0
0.000454 0.000000 0
0.000000 0.000000 0
0.000000 -0.000102 0
0.000276 -0.000241 0
0.000668 -0.000239 0
0.000970 -0.000145 0
0.001130 -0.000049 0
0.001170 0.000017 0
0.001135 0.000049 0
0.001065 0.000056 0
0.000992 0.000048 0
0.000931 0.000034 0
0.000890 0.000020 0
0.000868 0.000008 0
0.000860 0.000000 0
0.000860 -0.000003 0
0.000864 -0.000004 0
0.000868 -0.000004 0
0.000871 -0.000002 0
0.000872 -0.000001 0
0.000870 0.000001 0
0.000866 0.000001 0
0.000861 0.000002 0
0.000855 0.000003 0
0.000847 0.000003 0
0.000839 0.000003 0
0.000830 0.000004 0
0.000820 0.000004 0
0.000808 0.000004 0
0.000794 0.000005 0
0.000776 0.000007 0
0.000753 0.000012 0
0.000717 0.000021 0
0.000662 0.000038 0
0.000575 0.000065 0
0.000446 0.000100 0
0.000277 0.000124 0
0.000101 0.000102 0
0.000000 0.000037 0
0.000000 0.000000 0
0.000000 0.000000 0
0.000000 0.000000 0
0.000000 0.000001 0
0.000003 -0.000002 0
0.000018 -0.000010 0
0.000046 -0.000018 0
0.000084 -0.000024 0
0.000129 -0.000027 0
0.000178 -0.000029 0
0.000229 -0.000029 0
0.000278 -0.000027 0
0.000323 -0.000024 0
0.000363 -0.000021 0
0.000397 -0.000017 0
0.000424 -0.000013 0
0.000445 -0.000009 0
0.000460 -0.000006 0
0.000470 -0.000003 0
0.000475 -0.000001 0
0.000477 0.000001 0
0.000476 0.000002 0
0.000473 0.000003 0
0.000469 0.000003 0
0.000465 0.000003 0
0.000460 0.000003 0
0.000456 0.000003 0
0.000452 0.000002 0
0.000450 0.000002 0
0.000448 0.000001 0
0.000447 0.000001 0
0.000447 0.000000 0
0.000448 -0.000000 0
0.000450 -0.000001 0
0.000453 -0.000001 0
0.000457 -0.000002 0
0.000461 -0.000003 0
0.000467 -0.000003 0
0.000475 -0.000004 0
0.000483 -0.000004 0
0.000492 -0.000005 0
0.000503 -0.000006 0
0.000516 -0.000007 0
0.000530 -0.000008 0
0.000546 -0.000009 0
0.000564 -0.000011 0
0.000585 -0.000012 0
0.000609 -0.000014 0
0.000636 -0.000017 0
0.000668 -0.000020 0
0.000706 -0.000025 0
0.000752 -0.000031 0
0.000807 -0.000040 0
0.000875 -0.000052 0
0.000961 -0.000070 0
0.001067 -0.000096 0
0.001195 -0.000131 0
0.001337 -0.000163 0
0.001447 -0.000139 0
0.001392 0.000088 0
0.000908 0.000594 0
0.000000 0.000454 0
0.000000 -0.000277 0
0.000368 -0.000669 0
0.000912 -0.000695 0
0.001360 -0.000463 0
0.001628 -0.000201 0
0.001727 -0.000005 0
0.001710 0.000104 0
0.001633 0.000142 0
0.001540 0.000133 0
0.001458 0.000101 0
0.001398 0.000063 0
0.001363 0.000030 0
0.001347 0.000007 0
0.001344 -0.000005 0
0.001346 -0.000009 0
0.001350 -0.000008 0
0.001351 -0.000004 0
0.001349 0.000000 0
0.001344 0.000005 0
0.001335 0.000008 0
0.001324 0.000011 0
0.001311 0.000013 0
0.001295 0.000015 0
0.001277 0.000017 0
0.001258 0.000019 0
0.001235 0.000021 0
0.001209 0.000025 0
0.001177 0.000031 0
0.001138 0.000041 0
0.001086 0.000059 0
0.001014 0.000090 0
0.000913 0.000141 0
0.000770 0.000215 0
0.000578 0.000297 0
0.000350 0.000344 0
0.000126 0.000276 0
0.000000 0.000101 0
0.000000 0.000000 0
0.000000 0.000000 0
0.000000 0.000000 0
0.000000 -0.000002 0
0.000011 -0.000017 0
0.000042 -0.000042 0
0.000094 -0.000065 0
0.000161 -0.000083 0
0.000239 -0.000094 0
0.000324 -0.000099 0
0.000410 -0.000099 0
0.000494 -0.000094 0
0.000571 -0.000085 0
0.000641 -0.000074 0
0.000700 -0.000061 0
0.000748 -0.000048 0
0.000785 -0.000036 0
0.000812 -0.000024 0
0.000830 -0.000014 0
0.000840 -0.000006 0
0.000844 -0.000000 0
0.000844 0.000004 0
0.000840 0.000007 0
0.000833 0.000009 0
0.000826 0.000009 0
0.000819 0.000009 0
0.000812 0.000008 0
0.000805 0.000007 0
0.000801 0.000005 0
0.000797 0.000003 0
0.000796 0.000001 0
0.000796 -0.000001 0
0.000798 -0.000002 0
0.000801 -0.000004 0
0.000807 -0.000006 0
0.000814 -0.000008 0
0.000823 -0.000010 0
0.000834 -0.000013 0
0.000846 -0.000015 0
0.000861 -0.000017 0
0.000878 -0.000020 0
0.000898 -0.000023 0
0.000920 -0.000026 0
0.000945 -0.000030 0
0.000972 -0.000034 0
0.001004 -0.000038 0
0.001040 -0.000044 0
0.001080 -0.000051 0
0.001126 -0.000059 0
0.001179 -0.000070 0
0.001240 -0.000083 0
0.001311 -0.000100 0
0.001394 -0.000123 0
0.001490 -0.000153 0
0.001600 -0.000191 0
0.001720 -0.000234 0
0.001836 -0.000270 0
0.001910 -0.000251 0
0.001859 -0.000054 0
0.001534 0.000540 0
0.000800 0.001392 0
0.000000 0.000908 0
0.000000 -0.000470 0
0.000382 -0.001154 0
0.000966 -0.001232 0
0.001465 -0.000861 0
0.001781 -0.000416 0
0.001917 -0.000066 0
0.001923 0.000142 0
0.001857 0.000226 0
0.001766 0.000224 0
0.001682 0.000176 0
0.001618 0.000114 0
0.001578 0.000059 0
0.001557 0.000019 0
0.001549 -0.000003 0
0.001546 -0.000011 0
0.001544 -0.000009 0
0.001540 -0.000002 0
0.001532 0.000006 0
0.001520 0.000014 0
0.001505 0.000021 0
0.001486 0.000027 0
0.001465 0.000031 0
0.001440 0.000036 0
0.001413 0.000040 0
0.001382 0.000046 0
0.001347 0.000052 0
0.001306 0.000062 0
0.001259 0.000076 0
0.001200 0.000098 0
0.001127 0.000135 0
0.001031 0.000194 0
0.000905 0.000282 0
0.000742 0.000399 0
0.000539 0.000520 0
0.000314 0.000576 0
0.000109 0.000451 0
0.000000 0.000163 0
0.000000 0.000000 0
0.000000 0.000000 0
0.000000 0.000000 0
0.000000 -0.000010 0
0.000018 -0.000044 0
0.000065 -0.000093 0
0.000136 -0.000136 0
0.000226 -0.000169 0
0.000329 -0.000190 0
0.000440 -0.000199 0
0.000551 -0.000198 0
0.000659 -0.000188 0
0.000759 -0.000171 0
0.000849 -0.000149 0
0.000925 -0.000124 0
0.000987 -0.000098 0
0.001035 -0.000074 0
0.001071 -0.000051 0
0.001094 -0.000031 0
0.001107 -0.000015 0
0.001113 -0.000002 0
0.001112 0.000007 0
0.001107 0.000013 0
0.001099 0.000017 0
0.001089 0.000018 0
0.001079 0.000018 0
0.001070 0.000016 0
0.001062 0.000013 0
0.001056 0.000010 0
0.001052 0.000006 0
0.001050 0.000002 0
0.001050 -0.000002 0
0.001053 -0.000006 0
0.001058 -0.000010 0
0.001065 -0.000014 0
0.001075 -0.000018 0
0.001087 -0.000022 0
0.001102 -0.000027 0
0.001119 -0.000031 0
0.001139 -0.000036 0
0.001162 -0.000041 0
0.001187 -0.000047 0
0.001216 -0.000054 0
0.001248 -0.000061 0
0.001284 -0.000069 0
0.001324 -0.000078 0
0.001368 -0.000088 0
0.001418 -0.000101 0
0.001474 -0.000116 0
0.001537 -0.000134 0
0.001607 -0.000157 0
0.001685 -0.000184 0
0.001772 -0.000218 0
0.001866 -0.000258 0
0.001961 -0.000300 0
0.002045 -0.000332 0
0.002093 -0.000321 0
0.002055 -0.000186 0
0.001844 0.000238 0
0.001360 0.001148 0
0.000603 0.002127 0
0.000000 0.001254 0
0.000000 -0.000659 0
0.000365 -0.001636 0
0.000935 -0.001779 0
0.001431 -0.001279 0
0.001753 -0.000653 0
0.001900 -0.000148 0
0.001919 0.000164 0
0.001864 0.000299 0
0.001781 0.000308 0
0.001702 0.000249 0
0.001641 0.000166 0
0.001599 0.000090 0
0.001575 0.000036 0
0.001560 0.000006 0
0.001549 -0.000005 0
0.001539 -0.000002 0
0.001525 0.000008 0
0.001508 0.000020 0
0.001488 0.000032 0
0.001464 0.000042 0
0.001436 0.000051 0
0.001406 0.000059 0
0.001372 0.000066 0
0.001335 0.000075 0
0.001294 0.000084 0
0.001248 0.000096 0
0.001196 0.000113 0
0.001137 0.000136 0
0.001067 0.000172 0
0.000983 0.000227 0
0.000879 0.000311 0
0.000751 0.000431 0
0.000596 0.000581 0
0.000417 0.000724 0
0.000232 0.000774 0
0.000075 0.000590 0
0.000000 0.000210 0
0.000000 0.000000 0
0.000000 0.000000 0
0.000000 0.000000 0
0.000000 -0.000020 0
0.000024 -0.000082 0
0.000083 -0.000160 0
0.000170 -0.000227 0
0.000278 -0.000276 0
0.000400 -0.000307 0
0.000529 -0.000321 0
0.000658 -0.000318 0
0.000783 -0.000302 0
0.000898 -0.000274 0
0.000999 -0.000239 0
0.001085 -0.000199 0
0.001155 -0.000158 0
0.001209 -0.000119 0
0.001247 -0.000083 0
0.001272 -0.000051 0
0.001286 -0.000025 0
0.001290 -0.000004 0
0.001287 0.000011 0
0.001280 0.000021 0
0.001270 0.000026 0
0.001258 0.000029 0
0.001246 0.000028 0
0.001236 0.000026 0
0.001226 0.000021 0
0.001219 0.000016 0
0.001214 0.000010 0
0.001212 0.000003 0
0.001213 -0.000003 0
0.001217 -0.000010 0
0.001223 -0.000017 0
0.001232 -0.000023 0
0.001244 -0.000030 0
0.001259 -0.000037 0
0.001276 -0.000044 0
0.001297 -0.000052 0
0.001320 -0.000060 0
0.001347 -0.000068 0
0.001376 -0.000077 0
0.001409 -0.000087 0
0.001445 -0.000097 0
0.001485 -0.000109 0
0.001530 -0.000123 0
0.001578 -0.000138 0
0.001631 -0.000156 0
0.001689 -0.000177 0
0.001753 -0.000202 0
0.001822 -0.000231 0
0.001895 -0.000265 0
0.001971 -0.000303 0
0.002046 -0.000341 0
0.002109 -0.000370 0
0.002145 -0.000367 0
0.002122 -0.000279 0
0.001991 -0.000002 0
0.001685 0.000640 0
0.001149 0.001781 0
0.000454 0.002753 0
0.000000 0.001512 0
0.000000 -0.000836 0
0.000336 -0.002089 0
0.000866 -0.002298 0
0.001329 -0.001680 0
0.001632 -0.000885 0
0.001772 -0.000232 0
0.001792 0.000178 0
0.001744 0.000363 0
0.001670 0.000385 0
0.001598 0.000316 0
0.001540 0.000216 0
0.001498 0.000124 0
0.001469 0.000058 0
0.001447 0.000022 0
0.001426 0.000010 0
0.001404 0.000015 0
0.001379 0.000028 0
0.001352 0.000043 0
0.001321 0.000059 0
0.001287 0.000072 0
0.001250 0.000084 0
0.001211 0.000095 0
0.001169 0.000106 0
0.001123 0.000118 0
0.001074 0.000132 0
0.001020 0.000150 0
0.000961 0.000173 0
0.000896 0.000205 0
0.000823 0.000252 0
0.000739 0.000322 0
0.000643 0.000425 0
0.000530 0.000565 0
0.000402 0.000733 0
0.000266 0.000883 0
0.000138 0.000917 0
0.000040 0.000682 0
0.000000 0.000238 0
0.000000 0.000000 0
0.000000 0.000000 0
0.000000 0.000000 0
0.000000 -0.000033 0
0.000028 -0.000127 0
0.000097 -0.000240 0
0.000197 -0.000332 0
0.000318 -0.000399 0
0.000454 -0.000441 0
0.000596 -0.000457 0
0.000737 -0.000452 0
0.000872 -0.000427 0
0.000994 -0.000387 0
0.001101 -0.000336 0
0.001191 -0.000280 0
0.001262 -0.000222 0
0.001314 -0.000165 0
0.001351 -0.000114 0
0.001372 -0.000070 0
0.001382 -0.000033 0
0.001382 -0.000004 0
0.001375 0.000017 0
0.001364 0.000031 0
0.001351 0.000039 0
0.001336 0.000042 0
0.001322 0.000041 0
0.001310 0.000036 0
0.001300 0.000030 0
0.001292 0.000022 0
0.001288 0.000013 0
0.001286 0.000004 0
0.001288 -0.000006 0
0.001292 -0.000015 0
0.001300 -0.000025 0
0.001311 -0.000035 0
0.001325 -0.000044 0
0.001342 -0.000054 0
0.001362 -0.000064 0
0.001385 -0.000075 0
0.001410 -0.000086 0
0.001439 -0.000097 0
0.001471 -0.000109 0
0.001506 -0.000123 0
0.001544 -0.000137 0
0.001586 -0.000153 0
0.001630 -0.000170 0
0.001679 -0.000190 0
0.001730 -0.000212 0
0.001786 -0.000237 0
0.001844 -0.000266 0
0.001905 -0.000299 0
0.001966 -0.000334 0
0.002025 -0.000368 0
0.002075 -0.000396 0
0.002106 -0.000399 0
0.002098 -0.000345 0
0.002023 -0.000167 0
0.001837 0.000251 0
0.001492 0.001080 0
0.000964 0.002379 0
0.000350 0.003277 0
0.000000 0.001708 0
0.000000 -0.000996 0
0.000303 -0.002503 0
0.000781 -0.002772 0
0.001196 -0.002044 0
0.001464 -0.001096 0
0.001586 -0.000309 0
0.001601 0.000192 0
0.001556 0.000421 0
0.001489 0.000454 0
0.001424 0.000378 0
0.001370 0.000265 0
0.001327 0.000161 0
0.001293 0.000087 0
0.001261 0.000048 0
0.001230 0.000037 0
0.001196 0.000044 0
0.001159 0.000060 0
0.001120 0.000078 0
0.001079 0.000096 0
0.001036 0.000112 0
0.000991 0.000126 0
0.000944 0.000140 0
0.000894 0.000154 0
0.000842 0.000169 0
0.000787 0.000187 0
0.000730 0.000209 0
0.000669 0.000236 0
0.000604 0.000274 0
0.000536 0.000328 0
0.000462 0.000407 0
0.000382 0.000520 0
0.000296 0.000671 0
0.000206 0.000844 0
0.000121 0.000988 0
0.000052 0.001000 0
0.000010 0.000728 0
0.000000 0.000249 0
0.000000 0.000000 0
0.000000 0.000000 0
0.000000 0.000000 0
0.000000 -0.000048 0
0.000031 -0.000178 0
0.000107 -0.000329 0
0.000216 -0.000448 0
0.000348 -0.000533 0
0.000493 -0.000585 0
0.000644 -0.000604 0
0.000791 -0.000594 0
0.000930 -0.000558 0
0.001055 -0.000504 0
0.001161 -0.000435 0
0.001247 -0.000359 0
0.001313 -0.000282 0
0.001358 -0.000208 0
0.001386 -0.000140 0
0.001399 -0.000082 0
0.001400 -0.000035 0
0.001393 0.000002 0
0.001379 0.000029 0
0.001362 0.000046 0
0.001344 0.000055 0
0.001326 0.000057 0
0.001310 0.000055 0
0.001296 0.000048 0
0.001285 0.000039 0
0.001278 0.000028 0
0.001274 0.000016 0
0.001274 0.000003 0
0.001277 -0.000009 0
0.001284 -0.000022 0
0.001294 -0.000035 0
0.001307 -0.000048 0
0.001323 -0.000061 0
0.001342 -0.000074 0
0.001365 -0.000087 0
0.001389 -0.000100 0
0.001417 -0.000114 0
0.001447 -0.000128 0
0.001480 -0.000143 0
0.001516 -0.000160 0
0.001554 -0.000177 0
0.001595 -0.000195 0
0.001637 -0.000216 0
0.001683 -0.000238 0
0.001730 -0.000263 0
0.001779 -0.000291 0
0.001828 -0.000321 0
0.001878 -0.000353 0
0.001925 -0.000385 0
0.001966 -0.000412 0
0.001995 -0.000422 0
0.002000 -0.000394 0
0.001963 -0.000284 0
0.001859 -0.000017 0
0.001650 0.000530 0
0.001302 0.001514 0
0.000810 0.002922 0
0.000276 0.003716 0
0.000000 0.001862 0
0.000000 -0.001140 0
0.000270 -0.002871 0
0.000690 -0.003191 0
0.001050 -0.002363 0
0.001277 -0.001276 0
0.001375 -0.000370 0
0.001382 0.000208 0
0.001339 0.000474 0
0.001278 0.000517 0
0.001219 0.000435 0
0.001167 0.000313 0
0.001123 0.000201 0
0.001083 0.000124 0
0.001042 0.000085 0
0.001000 0.000076 0
0.000955 0.000085 0
0.000907 0.000103 0
0.000858 0.000124 0
0.000808 0.000143 0
0.000757 0.000160 0
0.000706 0.000176 0
0.000653 0.000191 0
0.000599 0.000207 0
0.000544 0.000225 0
0.000487 0.000245 0
0.000429 0.000268 0
0.000371 0.000298 0
0.000313 0.000338 0
0.000254 0.000394 0
0.000196 0.000475 0
0.000139 0.000591 0
0.000083 0.000741 0
0.000034 0.000908 0
-0.000001 0.001038 0
-0.000017 0.001028 0
-0.000012 0.000734 0
0.000000 0.000248 0
0.000000 0.000000 0
0.000000 0.000000 0
0.000000 0.000000 0
0.000000 -0.000063 0
0.000033 -0.000233 0
0.000114 -0.000425 0
0.000230 -0.000573 0
0.000368 -0.000676 0
0.000519 -0.000736 0
0.000673 -0.000755 0
0.000823 -0.000738 0
0.000961 -0.000690 0
0.001082 -0.000618 0
0.001182 -0.000529 0
0.001258 -0.000431 0
0.001312 -0.000333 0
0.001344 -0.000239 0
0.001357 -0.000155 0
0.001356 -0.000083 0
0.001343 -0.000026 0
0.001323 0.000018 0
0.001300 0.000048 0
0.001274 0.000066 0
0.001250 0.000075 0
0.001229 0.000076 0
0.001211 0.000071 0
0.001197 0.000061 0
0.001187 0.000048 0
0.001181 0.000033 0
0.001180 0.000017 0
0.001182 0.000001 0
0.001188 -0.000015 0
0.001198 -0.000032 0
0.001211 -0.000048 0
0.001227 -0.000064 0
0.001246 -0.000080 0
0.001269 -0.000096 0
0.001293 -0.000111 0
0.001320 -0.000127 0
0.001350 -0.000144 0
0.001381 -0.000160 0
0.001414 -0.000178 0
0.001450 -0.000196 0
0.001487 -0.000215 0
0.001525 -0.000236 0
0.001565 -0.000258 0
0.001605 -0.000282 0
0.001646 -0.000308 0
0.001687 -0.000336 0
0.001727 -0.000365 0
0.001765 -0.000395 0
0.001798 -0.000422 0
0.001825 -0.000438 0
0.001838 -0.000429 0
0.001827 -0.000367 0
0.001777 -0.000204 0
0.001663 0.000146 0
0.001457 0.000807 0
0.001128 0.001921 0
0.000682 0.003405 0
0.000221 0.004087 0
0.000000 0.001985 0
0.000000 -0.001267 0
0.000237 -0.003193 0
0.000601 -0.003552 0
0.000905 -0.002632 0
0.001090 -0.001421 0
0.001163 -0.000414 0
0.001160 0.000228 0
0.001117 0.000524 0
0.001062 0.000574 0
0.001007 0.000489 0
0.000958 0.000360 0
0.000912 0.000245 0
0.000866 0.000168 0
0.000817 0.000131 0
0.000765 0.000125 0
0.000711 0.000136 0
0.000655 0.000156 0
0.000599 0.000177 0
0.000543 0.000197 0
0.000487 0.000214 0
0.000431 0.000230 0
0.000376 0.000246 0
0.000320 0.000263 0
0.000265 0.000281 0
0.000210 0.000301 0
0.000156 0.000324 0
0.000104 0.000353 0
0.000055 0.000391 0
0.000010 0.000444 0
-0.000030 0.000523 0
-0.000063 0.000633 0
-0.000088 0.000775 0
-0.000100 0.000928 0
-0.000093 0.001039 0
-0.000066 0.001011 0
-0.000027 0.000710 0
0.000000 0.000237 0
0.000000 0.000000 0
0.000000 0.000000 0
0.000000 0.000000 0
0.000000 -0.000080 0
0.000034 -0.000292 0
0.000119 -0.000525 0
0.000238 -0.000702 0
0.000379 -0.000823 0
0.000532 -0.000890 0
0.000687 -0.000908 0
0.000834 -0.000881 0
0.000966 -0.000817 0
0.001078 -0.000724 0
0.001164 -0.000611 0
0.001225 -0.000489 0
0.001259 -0.000367 0
0.001271 -0.000253 0
0.001263 -0.000152 0
0.001241 -0.000068 0
0.001210 -0.000002 0
0.001174 0.000046 0
0.001137 0.000078 0
0.001103 0.000095 0
0.001072 0.000100 0
0.001048 0.000097 0
0.001029 0.000087 0
0.001016 0.000073 0
0.001009 0.000055 0
0.001007 0.000036 0
0.001010 0.000015 0
0.001017 -0.000005 0
0.001028 -0.000025 0
0.001043 -0.000045 0
0.001061 -0.000064 0
0.001082 -0.000083 0
0.001105 -0.000102 0
0.001131 -0.000120 0
0.001159 -0.000138 0
0.001189 -0.000156 0
0.001220 -0.000175 0
0.001253 -0.000193 0
0.001286 -0.000212 0
0.001321 -0.000231 0
0.001356 -0.000252 0
0.001392 -0.000273 0
0.001427 -0.000296 0
0.001462 -0.000319 0
0.001496 -0.000345 0
0.001529 -0.000371 0
0.001560 -0.000399 0
0.001587 -0.000425 0
0.001610 -0.000445 0
0.001626 -0.000451 0
0.001631 -0.000424 0
0.001616 -0.000333 0
0.001566 -0.000120 0
0.001459 0.000303 0
0.001269 0.001065 0
0.000972 0.002289 0
0.000575 0.003830 0
0.000178 0.004399 0
0.000000 0.002083 0
0.000000 -0.001378 0
0.000207 -0.003472 0
0.000517 -0.003859 0
0.000769 -0.002852 0
0.000913 -0.001534 0
0.000963 -0.000440 0
0.000950 0.000253 0
0.000908 0.000572 0
0.000857 0.000626 0
0.000807 0.000539 0
0.000759 0.000408 0
0.000710 0.000293 0
0.000659 0.000219 0
0.000604 0.000185 0
0.000546 0.000181 0
0.000486 0.000195 0
0.000425 0.000215 0
0.000365 0.000236 0
0.000306 0.000255 0
0.000248 0.000271 0
0.000192 0.000287 0
0.000136 0.000302 0
0.000082 0.000318 0
0.000030 0.000335 0
-0.000020 0.000353 0
-0.000067 0.000374 0
-0.000110 0.000398 0
-0.000148 0.000431 0
-0.000178 0.000479 0
-0.000201 0.000549 0
-0.000213 0.000649 0
-0.000211 0.000777 0
-0.000192 0.000912 0
-0.000152 0.001003 0
-0.000095 0.000962 0
-0.000035 0.000668 0
0.000000 0.000221 0
0.000000 0.000000 0
0.000000 0.000000 0
0.000000 0.000000 0
0.000000 -0.000098 0
0.000035 -0.000352 0
0.000121 -0.000628 0
0.000241 -0.000833 0
0.000382 -0.000970 0
0.000533 -0.001043 0
0.000683 -0.001057 0
0.000823 -0.001018 0
0.000944 -0.000934 0
0.001041 -0.000816 0
0.001109 -0.000676 0
0.001146 -0.000526 0
0.001155 -0.000379 0
0.001139 -0.000243 0
0.001103 -0.000125 0
0.001054 -0.000030 0
0.000999 0.000042 0
0.000943 0.000091 0
0.000891 0.000119 0
0.000847 0.000131 0
0.000812 0.000130 0
0.000786 0.000120 0
0.000769 0.000102 0
0.000761 0.000081 0
0.000760 0.000057 0
0.000765 0.000033 0
0.000775 0.000008 0
0.000790 -0.000017 0
0.000810 -0.000041 0
0.000832 -0.000064 0
0.000857 -0.000087 0
0.000885 -0.000108 0
0.000914 -0.000129 0
0.000945 -0.000149 0
0.000977 -0.000169 0
0.001010 -0.000188 0
0.001043 -0.000207 0
0.001077 -0.000226 0
0.001111 -0.000246 0
0.001145 -0.000266 0
0.001178 -0.000286 0
0.001211 -0.000307 0
0.001243 -0.000328 0