# vtk DataFile Version 2.0
generated by CFD-lab course output (written by Tobias Neckel) 
ASCII

DATASET STRUCTURED_GRID
DIMENSIONS  99 49 1 
POINTS 4851 float

0.000000 0.000000 0
0.020000 0.000000 0
0.040000 0.000000 0
0.060000 0.000000 0
0.080000 0.000000 0
0.100000 0.000000 0
0.120000 0.000000 0
0.140000 0.000000 0
0.160000 0.000000 0
0.180000 0.000000 0
0.200000 0.000000 0
0.220000 0.000000 0
0.240000 0.000000 0
0.260000 0.000000 0
0.280000 0.000000 0
0.300000 0.000000 0
0.320000 0.000000 0
0.340000 0.000000 0
0.360000 0.000000 0
0.380000 0.000000 0
0.400000 0.000000 0
0.420000 0.000000 0
0.440000 0.000000 0
0.460000 0.000000 0
0.480000 0.000000 0
0.500000 0.000000 0
0.520000 0.000000 0
0.540000 0.000000 0
0.560000 0.000000 0
0.580000 0.000000 0
0.600000 0.000000 0
0.620000 0.000000 0
0.640000 0.000000 0
0.660000 0.000000 0
0.680000 0.000000 0
0.700000 0.000000 0
0.720000 0.000000 0
0.740000 0.000000 0
0.760000 0.000000 0
0.780000 0.000000 0
0.800000 0.000000 0
0.820000 0.000000 0
0.840000 0.000000 0
0.860000 0.000000 0
0.880000 0.000000 0
0.900000 0.000000 0
0.920000 0.000000 0
0.940000 0.000000 0
0.960000 0.000000 0
0.980000 0.000000 0
1.000000 0.000000 0
1.020000 0.000000 0
1.040000 0.000000 0
1.060000 0.000000 0
1.080000 0.000000 0
1.100000 0.000000 0
1.120000 0.000000 0
1.140000 0.000000 0
1.160000 0.000000 0
1.180000 0.000000 0
1.200000 0.000000 0
1.220000 0.000000 0
1.240000 0.000000 0
1.260000 0.000000 0
1.280000 0.000000 0
1.300000 0.000000 0
1.320000 0.000000 0
1.340000 0.000000 0
1.360000 0.000000 0
1.380000 0.000000 0
1.400000 0.000000 0
1.420000 0.000000 0
1.440000 0.000000 0
1.460000 0.000000 0
1.480000 0.000000 0
1.500000 0.000000 0
1.520000 0.000000 0
1.540000 0.000000 0
1.560000 0.000000 0
1.580000 0.000000 0
1.600000 0.000000 0
1.620000 0.000000 0
1.640000 0.000000 0
1.660000 0.000000 0
1.680000 0.000000 0
1.700000 0.000000 0
1.720000 0.000000 0
1.740000 0.000000 0
1.760000 0.000000 0
1.780000 0.000000 0
1.800000 0.000000 0
1.820000 0.000000 0
1.840000 0.000000 0
1.860000 0.000000 0
1.880000 0.000000 0
1.900000 0.000000 0
1.920000 0.000000 0
1.940000 0.000000 0
1.960000 0.000000 0
0.000000 0.020000 0
0.020000 0.020000 0
0.040000 0.020000 0
0.060000 0.020000 0
0.080000 0.020000 0
0.100000 0.020000 0
0.120000 0.020000 0
0.140000 0.020000 0
0.160000 0.020000 0
0.180000 0.020000 0
0.200000 0.020000 0
0.220000 0.020000 0
0.240000 0.020000 0
0.260000 0.020000 0
0.280000 0.020000 0
0.300000 0.020000 0
0.320000 0.020000 0
0.340000 0.020000 0
0.360000 0.020000 0
0.380000 0.020000 0
0.400000 0.020000 0
0.420000 0.020000 0
0.440000 0.020000 0
0.460000 0.020000 0
0.480000 0.020000 0
0.500000 0.020000 0
0.520000 0.020000 0
0.540000 0.020000 0
0.560000 0.020000 0
0.580000 0.020000 0
0.600000 0.020000 0
0.620000 0.020000 0
0.640000 0.020000 0
0.660000 0.020000 0
0.680000 0.020000 0
0.700000 0.020000 0
0.720000 0.020000 0
0.740000 0.020000 0
0.760000 0.020000 0
0.780000 0.020000 0
0.800000 0.020000 0
0.820000 0.020000 0
0.840000 0.020000 0
0.860000 0.020000 0
0.880000 0.020000 0
0.900000 0.020000 0
0.920000 0.020000 0
0.940000 0.020000 0
0.960000 0.020000 0
0.980000 0.020000 0
1.000000 0.020000 0
1.020000 0.020000 0
1.040000 0.020000 0
1.060000 0.020000 0
1.080000 0.020000 0
1.100000 0.020000 0
1.120000 0.020000 0
1.140000 0.020000 0
1.160000 0.020000 0
1.180000 0.020000 0
1.200000 0.020000 0
1.220000 0.020000 0
1.240000 0.020000 0
1.260000 0.020000 0
1.280000 0.020000 0
1.300000 0.020000 0
1.320000 0.020000 0
1.340000 0.020000 0
1.360000 0.020000 0
1.380000 0.020000 0
1.400000 0.020000 0
1.420000 0.020000 0
1.440000 0.020000 0
1.460000 0.020000 0
1.480000 0.020000 0
1.500000 0.020000 0
1.520000 0.020000 0
1.540000 0.020000 0
1.560000 0.020000 0
1.580000 0.020000 0
1.600000 0.020000 0
1.620000 0.020000 0
1.640000 0.020000 0
1.660000 0.020000 0
1.680000 0.020000 0
1.700000 0.020000 0
1.720000 0.020000 0
1.740000 0.020000 0
1.760000 0.020000 0
1.780000 0.020000 0
1.800000 0.020000 0
1.820000 0.020000 0
1.840000 0.020000 0
1.860000 0.020000 0
1.880000 0.020000 0
1.900000 0.020000 0
1.920000 0.020000 0
1.940000 0.020000 0
1.960000 0.020000 0
0.000000 0.040000 0
0.020000 0.040000 0
0.040000 0.040000 0
0.060000 0.040000 0
0.080000 0.040000 0
0.100000 0.040000 0
0.120000 0.040000 0
0.140000 0.040000 0
0.160000 0.040000 0
0.180000 0.040000 0
0.200000 0.040000 0
0.220000 0.040000 0
0.240000 0.040000 0
0.260000 0.040000 0
0.280000 0.040000 0
0.300000 0.040000 0
0.320000 0.040000 0
0.340000 0.040000 0
0.360000 0.040000 0
0.380000 0.040000 0
0.400000 0.040000 0
0.420000 0.040000 0
0.440000 0.040000 0
0.460000 0.040000 0
0.480000 0.040000 0
0.500000 0.040000 0
0.520000 0.040000 0
0.540000 0.040000 0
0.560000 0.040000 0
0.580000 0.040000 0
0.600000 0.040000 0
0.620000 0.040000 0
0.640000 0.040000 0
0.660000 0.040000 0
0.680000 0.040000 0
0.700000 0.040000 0
0.720000 0.040000 0
0.740000 0.040000 0
0.760000 0.040000 0
0.780000 0.040000 0
0.800000 0.040000 0
0.820000 0.040000 0
0.840000 0.040000 0
0.860000 0.040000 0
0.880000 0.040000 0
0.900000 0.040000 0
0.920000 0.040000 0
0.940000 0.040000 0
0.960000 0.040000 0
0.980000 0.040000 0
1.000000 0.040000 0
1.020000 0.040000 0
1.040000 0.040000 0
1.060000 0.040000 0
1.080000 0.040000 0
1.100000 0.040000 0
1.120000 0.040000 0
1.140000 0.040000 0
1.160000 0.040000 0
1.180000 0.040000 0
1.200000 0.040000 0
1.220000 0.040000 0
1.240000 0.040000 0
1.260000 0.040000 0
1.280000 0.040000 0
1.300000 0.040000 0
1.320000 0.040000 0
1.340000 0.040000 0
1.360000 0.040000 0
1.380000 0.040000 0
1.400000 0.040000 0
1.420000 0.040000 0
1.440000 0.040000 0
1.460000 0.040000 0
1.480000 0.040000 0
1.500000 0.040000 0
1.520000 0.040000 0
1.540000 0.040000 0
1.560000 0.040000 0
1.580000 0.040000 0
1.600000 0.040000 0
1.620000 0.040000 0
1.640000 0.040000 0
1.660000 0.040000 0
1.680000 0.040000 0
1.700000 0.040000 0
1.720000 0.040000 0
1.740000 0.040000 0
1.760000 0.040000 0
1.780000 0.040000 0
1.800000 0.040000 0
1.820000 0.040000 0
1.840000 0.040000 0
1.860000 0.040000 0
1.880000 0.040000 0
1.900000 0.040000 0
1.920000 0.040000 0
1.940000 0.040000 0
1.960000 0.040000 0
0.000000 0.060000 0
0.020000 0.060000 0
0.040000 0.060000 0
0.060000 0.060000 0
0.080000 0.060000 0
0.100000 0.060000 0
0.120000 0.060000 0
0.140000 0.060000 0
0.160000 0.060000 0
0.180000 0.060000 0
0.200000 0.060000 0
0.220000 0.060000 0
0.240000 0.060000 0
0.260000 0.060000 0
0.280000 0.060000 0
0.300000 0.060000 0
0.320000 0.060000 0
0.340000 0.060000 0
0.360000 0.060000 0
0.380000 0.060000 0
0.400000 0.060000 0
0.420000 0.060000 0
0.440000 0.060000 0
0.460000 0.060000 0
0.480000 0.060000 0
0.500000 0.060000 0
0.520000 0.060000 0
0.540000 0.060000 0
0.560000 0.060000 0
0.580000 0.060000 0
0.600000 0.060000 0
0.620000 0.060000 0
0.640000 0.060000 0
0.660000 0.060000 0
0.680000 0.060000 0
0.700000 0.060000 0
0.720000 0.060000 0
0.740000 0.060000 0
0.760000 0.060000 0
0.780000 0.060000 0
0.800000 0.060000 0
0.820000 0.060000 0
0.840000 0.060000 0
0.860000 0.060000 0
0.880000 0.060000 0
0.900000 0.060000 0
0.920000 0.060000 0
0.940000 0.060000 0
0.960000 0.060000 0
0.980000 0.060000 0
1.000000 0.060000 0
1.020000 0.060000 0
1.040000 0.060000 0
1.060000 0.060000 0
1.080000 0.060000 0
1.100000 0.060000 0
1.120000 0.060000 0
1.140000 0.060000 0
1.160000 0.060000 0
1.180000 0.060000 0
1.200000 0.060000 0
1.220000 0.060000 0
1.240000 0.060000 0
1.260000 0.060000 0
1.280000 0.060000 0
1.300000 0.060000 0
1.320000 0.060000 0
1.340000 0.060000 0
1.360000 0.060000 0
1.380000 0.060000 0
1.400000 0.060000 0
1.420000 0.060000 0
1.440000 0.060000 0
1.460000 0.060000 0
1.480000 0.060000 0
1.500000 0.060000 0
1.520000 0.060000 0
1.540000 0.060000 0
1.560000 0.060000 0
1.580000 0.060000 0
1.600000 0.060000 0
1.620000 0.060000 0
1.640000 0.060000 0
1.660000 0.060000 0
1.680000 0.060000 0
1.700000 0.060000 0
1.720000 0.060000 0
1.740000 0.060000 0
1.760000 0.060000 0
1.780000 0.060000 0
1.800000 0.060000 0
1.820000 0.060000 0
1.840000 0.060000 0
1.860000 0.060000 0
1.880000 0.060000 0
1.900000 0.060000 0
1.920000 0.060000 0
1.940000 0.060000 0
1.960000 0.060000 0
0.000000 0.080000 0
0.020000 0.080000 0
0.040000 0.080000 0
0.060000 0.080000 0
0.080000 0.080000 0
0.100000 0.080000 0
0.120000 0.080000 0
0.140000 0.080000 0
0.160000 0.080000 0
0.180000 0.080000 0
0.200000 0.080000 0
0.220000 0.080000 0
0.240000 0.080000 0
0.260000 0.080000 0
0.280000 0.080000 0
0.300000 0.080000 0
0.320000 0.080000 0
0.340000 0.080000 0
0.360000 0.080000 0
0.380000 0.080000 0
0.400000 0.080000 0
0.420000 0.080000 0
0.440000 0.080000 0
0.460000 0.080000 0
0.480000 0.080000 0
0.500000 0.080000 0
0.520000 0.080000 0
0.540000 0.080000 0
0.560000 0.080000 0
0.580000 0.080000 0
0.600000 0.080000 0
0.620000 0.080000 0
0.640000 0.080000 0
0.660000 0.080000 0
0.680000 0.080000 0
0.700000 0.080000 0
0.720000 0.080000 0
0.740000 0.080000 0
0.760000 0.080000 0
0.780000 0.080000 0
0.800000 0.080000 0
0.820000 0.080000 0
0.840000 0.080000 0
0.860000 0.080000 0
0.880000 0.080000 0
0.900000 0.080000 0
0.920000 0.080000 0
0.940000 0.080000 0
0.960000 0.080000 0
0.980000 0.080000 0
1.000000 0.080000 0
1.020000 0.080000 0
1.040000 0.080000 0
1.060000 0.080000 0
1.080000 0.080000 0
1.100000 0.080000 0
1.120000 0.080000 0
1.140000 0.080000 0
1.160000 0.080000 0
1.180000 0.080000 0
1.200000 0.080000 0
1.220000 0.080000 0
1.240000 0.080000 0
1.260000 0.080000 0
1.280000 0.080000 0
1.300000 0.080000 0
1.320000 0.080000 0
1.340000 0.080000 0
1.360000 0.080000 0
1.380000 0.080000 0
1.400000 0.080000 0
1.420000 0.080000 0
1.440000 0.080000 0
1.460000 0.080000 0
1.480000 0.080000 0
1.500000 0.080000 0
1.520000 0.080000 0
1.540000 0.080000 0
1.560000 0.080000 0
1.580000 0.080000 0
1.600000 0.080000 0
1.620000 0.080000 0
1.640000 0.080000 0
1.660000 0.080000 0
1.680000 0.080000 0
1.700000 0.080000 0
1.720000 0.080000 0
1.740000 0.080000 0
1.760000 0.080000 0
1.780000 0.080000 0
1.800000 0.080000 0
1.820000 0.080000 0
1.840000 0.080000 0
1.860000 0.080000 0
1.880000 0.080000 0
[...]
POINT_DATA 4851 

VECTORS velocity float
0.000000 0.000000 0
0.000042 0.000000 0
0.000108 0.000000 0
0.000164 0.000000 0
0.000198 0.000000 0
0.000211 0.000000 0
0.000211 0.000000 0
0.000203 0.000000 0
0.000192 0.000000 0
0.000182 0.000000 0
0.000173 0.000000 0
0.000167 0.000000 0
0.000164 0.000000 0
0.000161 0.000000 0
0.000160 0.000000 0
0.000160 0.000000 0
0.000159 0.000000 0
0.000159 0.000000 0
0.000158 0.000000 0
0.000157 0.000000 0
0.000156 0.000000 0
0.000155 0.000000 0
0.000154 0.000000 0
0.000152 0.000000 0
0.000151 0.000000 0
0.000149 0.000000 0
0.000147 0.000000 0
0.000145 0.000000 0
0.000141 0.000000 0
0.000136 0.000000 0
0.000128 0.000000 0
0.000116 0.000000 0
0.000097 0.000000 0
0.000071 0.000000 0
0.000041 0.000000 0
0.000013 0.000000 0
0.000000 0.000000 0
0.000000 0.000000 0
0.000000 0.000000 0
0.000000 0.000000 0
0.000000 0.000000 0
0.000004 0.000000 0
0.000042 0.000000 0
0.000109 0.000000 0
0.000189 0.000000 0
0.000266 0.000000 0
0.000330 0.000000 0
0.000374 0.000000 0
0.000398 0.000000 0
0.000404 0.000000 0
0.000395 0.000000 0
0.000377 0.000000 0
0.000354 0.000000 0
0.000328 0.000000 0
0.000302 0.000000 0
0.000279 0.000000 0
0.000260 0.000000 0
0.000245 0.000000 0
0.000233 0.000000 0
0.000226 0.000000 0
0.000222 0.000000 0
0.000221 0.000000 0
0.000221 0.000000 0
0.000223 0.000000 0
0.000226 0.000000 0
0.000229 0.000000 0
0.000232 0.000000 0
0.000235 0.000000 0
0.000237 0.000000 0
0.000239 0.000000 0
0.000240 0.000000 0
0.000241 0.000000 0
0.000242 0.000000 0
0.000242 0.000000 0
0.000243 0.000000 0
0.000243 0.000000 0
0.000244 0.000000 0
0.000245 0.000000 0
0.000246 0.000000 0
0.000247 0.000000 0
0.000248 0.000000 0
0.000250 0.000000 0
0.000252 0.000000 0
0.000255 0.000000 0
0.000258 0.000000 0
0.000263 0.000000 0
0.000268 0.000000 0
0.000275 0.000000 0
0.000284 0.000000 0
0.000296 0.000000 0
0.000313 0.000000 0
0.000336 0.000000 0
0.000370 0.000000 0
0.000420 0.000000 0
0.000491 0.000000 0
0.000579 0.000000 0
0.000637 0.000000 0
0.000497 0.000000 0
0.000000 0.000000 0
0.000000 -0.000042 0
0.000120 -0.000109 0
0.000311 -0.000123 0
0.000479 -0.000090 0
0.000590 -0.000048 0
0.000643 -0.000014 0
0.000654 0.000008 0
0.000639 0.000018 0
0.000613 0.000020 0
0.000586 0.000018 0
0.000562 0.000014 0
0.000544 0.000009 0
0.000532 0.000005 0
0.000525 0.000003 0
0.000521 0.000001 0
0.000518 0.000000 0
0.000517 0.000000 0
0.000515 0.000000 0
0.000512 0.000001 0
0.000509 0.000001 0
0.000505 0.000002 0
0.000500 0.000002 0
0.000495 0.000002 0
0.000489 0.000002 0
0.000482 0.000003 0
0.000475 0.000003 0
0.000465 0.000004 0
0.000454 0.000005 0
0.000439 0.000008 0
0.000418 0.000012 0
0.000387 0.000020 0
0.000343 0.000031 0
0.000283 0.000044 0
0.000206 0.000055 0
0.000119 0.000058 0
0.000040 0.000040 0
0.000000 0.000013 0
0.000000 0.000000 0
0.000000 0.000000 0
0.000000 0.000000 0
0.000000 -0.000003 0
0.000039 -0.000042 0
0.000180 -0.000105 0
0.000398 -0.000147 0
0.000652 -0.000157 0
0.000898 -0.000141 0
0.001106 -0.000108 0
0.001257 -0.000068 0
0.001346 -0.000029 0
0.001379 0.000003 0
0.001365 0.000027 0
0.001318 0.000042 0
0.001249 0.000050 0
0.001171 0.000051 0
0.001091 0.000049 0
0.001016 0.000043 0
0.000952 0.000035 0
0.000899 0.000027 0
0.000859 0.000019 0
0.000832 0.000012 0
0.000815 0.000006 0
0.000807 0.000001 0
0.000807 -0.000002 0
0.000811 -0.000005 0
0.000818 -0.000006 0
0.000827 -0.000006 0
0.000835 -0.000005 0
0.000843 -0.000005 0
0.000850 -0.000004 0
0.000855 -0.000003 0
0.000859 -0.000002 0
0.000862 -0.000001 0
0.000864 -0.000001 0
0.000866 -0.000001 0
0.000867 -0.000001 0
0.000868 -0.000001 0
0.000869 -0.000001 0
0.000871 -0.000001 0
0.000873 -0.000002 0
0.000877 -0.000002 0
0.000881 -0.000003 0
0.000886 -0.000004 0
0.000893 -0.000005 0
0.000901 -0.000006 0
0.000912 -0.000008 0
0.000925 -0.000009 0
0.000942 -0.000012 0
0.000964 -0.000016 0
0.000991 -0.000021 0
0.001027 -0.000028 0
0.001074 -0.000040 0
0.001137 -0.000057 0
0.001221 -0.000083 0
0.001329 -0.000121 0
0.001454 -0.000159 0
0.001556 -0.000146 0
0.001498 0.000082 0
0.000992 0.000637 0
0.000000 0.000497 0
0.000000 -0.000121 0
0.000168 -0.000312 0
0.000438 -0.000360 0
0.000687 -0.000280 0
0.000861 -0.000165 0
0.000957 -0.000065 0
0.000989 0.000003 0
0.000981 0.000040 0
0.000952 0.000053 0
0.000918 0.000050 0
0.000886 0.000041 0
0.000861 0.000029 0
0.000843 0.000018 0
0.000832 0.000011 0
0.000825 0.000006 0
0.000820 0.000003 0
0.000816 0.000003 0
0.000812 0.000004 0
0.000806 0.000005 0
0.000800 0.000006 0
0.000792 0.000008 0
0.000783 0.000009 0
0.000772 0.000010 0
0.000760 0.000012 0
0.000746 0.000014 0
0.000730 0.000016 0
0.000711 0.000020 0
0.000687 0.000026 0
0.000657 0.000035 0
0.000616 0.000051 0
0.000562 0.000073 0
0.000489 0.000103 0
0.000395 0.000137 0
0.000283 0.000163 0
0.000162 0.000165 0
0.000055 0.000118 0
0.000000 0.000039 0
0.000000 0.000000 0
0.000000 0.000000 0
0.000000 0.000000 0
0.000000 -0.000038 0
0.000095 -0.000179 0
0.000348 -0.000359 0
0.000708 -0.000472 0
0.001115 -0.000500 0
0.001509 -0.000454 0
0.001845 -0.000358 0
0.002099 -0.000240 0
0.002260 -0.000121 0
0.002334 -0.000019 0
0.002334 0.000061 0
0.002277 0.000116 0
0.002182 0.000147 0
0.002066 0.000159 0
0.001943 0.000155 0
0.001825 0.000140 0
0.001720 0.000118 0
0.001632 0.000093 0
0.001563 0.000068 0
0.001514 0.000044 0
0.001482 0.000024 0
0.001465 0.000008 0
0.001459 -0.000003 0
0.001462 -0.000011 0
0.001470 -0.000015 0
0.001480 -0.000017 0
0.001491 -0.000016 0
0.001502 -0.000014 0
0.001510 -0.000012 0
0.001517 -0.000009 0
0.001522 -0.000007 0
0.001526 -0.000005 0
0.001528 -0.000003 0
0.001529 -0.000002 0
0.001529 -0.000002 0
0.001530 -0.000002 0
0.001530 -0.000003 0
0.001532 -0.000004 0
0.001534 -0.000005 0
0.001538 -0.000007 0
0.001543 -0.000009 0
0.001550 -0.000012 0
0.001559 -0.000015 0
0.001571 -0.000019 0
0.001586 -0.000024 0
0.001605 -0.000030 0
0.001629 -0.000038 0
0.001659 -0.000049 0
0.001697 -0.000063 0
0.001744 -0.000083 0
0.001804 -0.000110 0
0.001877 -0.000147 0
0.001960 -0.000191 0
0.002042 -0.000233 0
0.002087 -0.000227 0
0.002011 -0.000044 0
0.001657 0.000564 0
0.000872 0.001499 0
0.000000 0.000992 0
0.000000 -0.000211 0
0.000180 -0.000548 0
0.000475 -0.000642 0
0.000751 -0.000513 0
0.000951 -0.000318 0
0.001067 -0.000142 0
0.001114 -0.000017 0
0.001115 0.000054 0
0.001091 0.000083 0
0.001058 0.000084 0
0.001027 0.000070 0
0.001001 0.000051 0
0.000982 0.000034 0
0.000969 0.000021 0
0.000960 0.000013 0
0.000953 0.000009 0
0.000946 0.000008 0
0.000939 0.000010 0
0.000931 0.000012 0
0.000921 0.000015 0
0.000909 0.000018 0
0.000895 0.000021 0
0.000880 0.000024 0
0.000862 0.000028 0
0.000841 0.000032 0
0.000818 0.000038 0
0.000790 0.000046 0
0.000756 0.000059 0
0.000714 0.000079 0
0.000660 0.000107 0
0.000592 0.000147 0
0.000505 0.000197 0
0.000401 0.000249 0
0.000281 0.000288 0
0.000158 0.000285 0
0.000053 0.000202 0
0.000000 0.000068 0
0.000000 0.000000 0
0.000000 0.000000 0
0.000000 0.000000 0
0.000000 -0.000098 0
0.000137 -0.000389 0
0.000470 -0.000718 0
0.000927 -0.000914 0
0.001429 -0.000957 0
0.001911 -0.000871 0
0.002324 -0.000697 0
0.002640 -0.000482 0
0.002849 -0.000264 0
0.002956 -0.000070 0
0.002975 0.000084 0
0.002925 0.000194 0
0.002825 0.000261 0
0.002697 0.000291 0
0.002557 0.000290 0
0.002420 0.000266 0
0.002294 0.000228 0
0.002188 0.000183 0
0.002103 0.000137 0
0.002040 0.000093 0
0.001997 0.000055 0
0.001972 0.000024 0
0.001960 0.000001 0
0.001958 -0.000015 0
0.001963 -0.000024 0
0.001970 -0.000027 0
0.001979 -0.000027 0
0.001987 -0.000024 0
0.001993 -0.000019 0
0.001998 -0.000015 0
0.002001 -0.000010 0
0.002001 -0.000007 0
0.002001 -0.000004 0
0.001999 -0.000002 0
0.001997 -0.000002 0
0.001995 -0.000002 0
0.001993 -0.000003 0
0.001992 -0.000005 0
0.001993 -0.000008 0
0.001994 -0.000011 0
0.001997 -0.000015 0
0.002002 -0.000020 0
0.002010 -0.000026 0
0.002020 -0.000033 0
0.002033 -0.000041 0
0.002050 -0.000052 0
0.002072 -0.000066 0
0.002100 -0.000083 0
0.002133 -0.000106 0
0.002173 -0.000136 0
0.002219 -0.000172 0
0.002268 -0.000213 0
0.002307 -0.000249 0
0.002314 -0.000247 0
0.002239 -0.000128 0
0.001995 0.000284 0
0.001471 0.001222 0
0.000657 0.002295 0
0.000000 0.001369 0
0.000000 -0.000301 0
0.000176 -0.000788 0
0.000467 -0.000932 0
0.000741 -0.000756 0
0.000940 -0.000481 0
0.001058 -0.000228 0
0.001108 -0.000045 0
0.001114 0.000063 0
0.001094 0.000109 0
0.001066 0.000114 0
0.001037 0.000098 0
0.001014 0.000073 0
0.000995 0.000050 0
0.000982 0.000032 0
0.000971 0.000022 0
0.000961 0.000017 0
0.000952 0.000016 0
0.000941 0.000019 0
0.000929 0.000023 0
0.000915 0.000028 0
0.000900 0.000033 0
0.000882 0.000038 0
0.000861 0.000044 0
0.000838 0.000050 0
0.000813 0.000057 0
0.000783 0.000067 0
0.000749 0.000081 0
0.000709 0.000101 0
0.000661 0.000131 0
0.000602 0.000173 0
0.000530 0.000228 0
0.000444 0.000294 0
0.000344 0.000361 0
0.000236 0.000406 0
0.000129 0.000393 0
0.000042 0.000275 0
0.000000 0.000092 0
0.000000 0.000000 0
0.000000 0.000000 0
0.000000 0.000000 0
0.000000 -0.000175 0
0.000163 -0.000649 0
0.000553 -0.001149 0
0.001073 -0.001431 0
0.001634 -0.001484 0
0.002164 -0.001348 0
0.002615 -0.001086 0
0.002960 -0.000765 0
0.003193 -0.000438 0
0.003318 -0.000145 0
0.003351 0.000093 0
0.003309 0.000266 0
0.003215 0.000375 0
0.003088 0.000427 0
0.002948 0.000433 0
0.002807 0.000403 0
0.002678 0.000350 0
0.002567 0.000284 0
0.002477 0.000215 0
0.002409 0.000150 0
0.002361 0.000092 0
0.002331 0.000046 0
0.002313 0.000011 0
0.002305 -0.000013 0
0.002303 -0.000027 0
0.002304 -0.000033 0
0.002306 -0.000033 0
0.002308 -0.000029 0
0.002308 -0.000023 0
0.002307 -0.000016 0
0.002304 -0.000010 0
0.002299 -0.000005 0
0.002293 -0.000001 0
0.002287 0.000002 0
0.002280 0.000002 0
0.002274 0.000002 0
0.002268 0.000000 0
0.002263 -0.000003 0
0.002259 -0.000007 0
0.002256 -0.000011 0
0.002255 -0.000017 0
0.002255 -0.000024 0
0.002258 -0.000032 0
0.002262 -0.000042 0
0.002269 -0.000054 0
0.002279 -0.000069 0
0.002292 -0.000087 0
0.002309 -0.000109 0
0.002328 -0.000137 0
0.002349 -0.000169 0
0.002369 -0.000204 0
0.002380 -0.000234 0
0.002368 -0.000238 0
0.002304 -0.000164 0
0.002139 0.000093 0
0.001802 0.000724 0
0.001232 0.001902 0
0.000490 0.002970 0
0.000000 0.001649 0
0.000000 -0.000387 0
0.000165 -0.001017 0
0.000438 -0.001207 0
0.000691 -0.000987 0
0.000875 -0.000636 0
0.000982 -0.000310 0
0.001027 -0.000073 0
0.001031 0.000068 0
0.001014 0.000131 0
0.000989 0.000141 0
0.000964 0.000122 0
0.000943 0.000093 0
0.000925 0.000066 0
0.000911 0.000045 0
0.000898 0.000033 0
0.000885 0.000027 0
0.000872 0.000028 0
0.000858 0.000032 0
0.000842 0.000038 0
0.000824 0.000044 0
0.000804 0.000052 0
0.000782 0.000059 0
0.000758 0.000067 0
0.000731 0.000076 0
0.000702 0.000087 0
0.000669 0.000101 0
0.000632 0.000120 0
0.000590 0.000147 0
0.000541 0.000186 0
0.000484 0.000238 0
0.000417 0.000305 0
0.000341 0.000382 0
0.000258 0.000457 0
0.000171 0.000503 0
0.000090 0.000478 0
0.000028 0.000331 0
0.000000 0.000109 0
0.000000 0.000000 0
0.000000 0.000000 0
0.000000 0.000000 0
0.000000 -0.000261 0
0.000180 -0.000941 0
0.000606 -0.001627 0
0.001165 -0.001994 0
0.001757 -0.002048 0
0.002306 -0.001852 0
0.002766 -0.001494 0
0.003115 -0.001060 0
0.003349 -0.000622 0
0.003476 -0.000228 0
0.003512 0.000093 0
0.003476 0.000330 0
0.003388 0.000482 0
0.003270 0.000558 0
0.003137 0.000571 0
0.003004 0.000536 0
0.002882 0.000469 0
0.002776 0.000385 0
0.002691 0.000295 0
0.002625 0.000209 0
0.002577 0.000133 0
0.002543 0.000072 0
0.002521 0.000026 0
0.002506 -0.000005 0
0.002495 -0.000023 0
0.002487 -0.000030 0
0.002479 -0.000030 0
0.002471 -0.000025 0
0.002461 -0.000018 0
0.002450 -0.000010 0
0.002438 -0.000002 0
0.002426 0.000004 0
0.002413 0.000008 0
0.002400 0.000011 0
0.002387 0.000012 0
0.002375 0.000011 0
0.002364 0.000008 0
0.002353 0.000004 0
0.002344 -0.000001 0
0.002335 -0.000007 0
0.002328 -0.000014 0
0.002322 -0.000022 0
0.002318 -0.000032 0
0.002314 -0.000044 0
0.002312 -0.000058 0
0.002311 -0.000075 0
0.002312 -0.000095 0
0.002312 -0.000119 0
0.002313 -0.000146 0
0.002311 -0.000176 0
0.002302 -0.000202 0
0.002280 -0.000212 0
0.002228 -0.000172 0
0.002119 -0.000018 0
0.001912 0.000373 0
0.001553 0.001191 0
0.001008 0.002534 0
0.000367 0.003527 0
0.000000 0.001859 0
0.000000 -0.000467 0
0.000151 -0.001226 0
0.000397 -0.001458 0
0.000622 -0.001194 0
0.000781 -0.000772 0
0.000870 -0.000381 0
0.000905 -0.000095 0
0.000905 0.000075 0
0.000888 0.000151 0
0.000864 0.000164 0
0.000842 0.000144 0
0.000822 0.000112 0
0.000805 0.000082 0
0.000789 0.000059 0
0.000773 0.000046 0
0.000757 0.000042 0
0.000740 0.000043 0
0.000722 0.000049 0
0.000702 0.000057 0
0.000680 0.000065 0
0.000656 0.000074 0
0.000631 0.000084 0
0.000604 0.000094 0
0.000575 0.000106 0
0.000544 0.000119 0
0.000510 0.000137 0
0.000473 0.000160 0
0.000433 0.000192 0
0.000388 0.000237 0
0.000339 0.000296 0
0.000284 0.000370 0
0.000224 0.000453 0
0.000162 0.000531 0
0.000103 0.000573 0
0.000051 0.000536 0
0.000014 0.000365 0
0.000000 0.000119 0
0.000000 0.000000 0
0.000000 0.000000 0
0.000000 0.000000 0
0.000000 -0.000355 0
0.000192 -0.001255 0
0.000640 -0.002134 0
0.001219 -0.002581 0
0.001819 -0.002625 0
0.002364 -0.002357 0
0.002810 -0.001895 0
0.003141 -0.001347 0
0.003358 -0.000799 0
0.003473 -0.000307 0
0.003502 0.000093 0
0.003465 0.000389 0
0.003383 0.000581 0
0.003274 0.000679 0
0.003153 0.000698 0
0.003034 0.000658 0
0.002925 0.000578 0
0.002831 0.000476 0
0.002755 0.000367 0
0.002695 0.000264 0
0.002649 0.000174 0
0.002613 0.000102 0
0.002585 0.000048 0
0.002561 0.000012 0
0.002540 -0.000008 0
0.002519 -0.000016 0
0.002498 -0.000016 0
0.002476 -0.000010 0
0.002454 -0.000002 0
0.002431 0.000007 0
0.002409 0.000015 0
0.002387 0.000021 0
0.002366 0.000025 0
0.002346 0.000027 0
0.002327 0.000027 0
0.002308 0.000025 0
0.002291 0.000022 0
0.002275 0.000017 0
0.002260 0.000011 0
0.002246 0.000004 0
0.002232 -0.000004 0
0.002220 -0.000013 0
0.002207 -0.000024 0
0.002195 -0.000037 0
0.002183 -0.000051 0
0.002170 -0.000068 0
0.002156 -0.000088 0
0.002140 -0.000110 0
0.002122 -0.000135 0
0.002099 -0.000158 0
0.002068 -0.000173 0
0.002024 -0.000159 0
0.001952 -0.000077 0
0.001832 0.000151 0
0.001626 0.000660 0
0.001291 0.001629 0
0.000808 0.003088 0
0.000274 0.003978 0
0.000000 0.002017 0
0.000000 -0.000538 0
0.000135 -0.001414 0
0.000350 -0.001679 0
0.000543 -0.001371 0
0.000673 -0.000885 0
0.000742 -0.000435 0
0.000764 -0.000108 0
0.000758 0.000085 0
0.000740 0.000171 0
0.000718 0.000186 0
0.000697 0.000164 0
0.000677 0.000130 0
0.000659 0.000099 0
0.000641 0.000076 0
0.000623 0.000064 0
0.000603 0.000060 0
0.000582 0.000063 0
0.000559 0.000070 0
0.000535 0.000079 0
0.000510 0.000089 0
0.000484 0.000100 0
0.000457 0.000111 0
0.000429 0.000123 0
0.000399 0.000136 0
0.000368 0.000152 0
0.000335 0.000171 0
0.000302 0.000197 0
0.000266 0.000232 0
0.000229 0.000280 0
0.000190 0.000342 0
0.000150 0.000419 0
0.000110 0.000503 0
0.000072 0.000578 0
0.000040 0.000614 0
0.000016 0.000567 0
0.000003 0.000381 0
0.000000 0.000123 0
0.000000 0.000000 0
0.000000 0.000000 0
0.000000 0.000000 0
0.000000 -0.000453 0
0.000199 -0.001581 0
0.000659 -0.002654 0
0.001241 -0.003173 0
0.001830 -0.003193 0
0.002352 -0.002843 0
0.002766 -0.002271 0
0.003064 -0.001609 0
0.003251 -0.000954 0
0.003342 -0.000372 0
0.003357 0.000101 0
0.003314 0.000449 0
0.003234 0.000674 0
0.003133 0.000788 0
0.003025 0.000811 0
0.002921 0.000764 0
0.002827 0.000672 0
0.002747 0.000555 0
0.002681 0.000432 0
0.002626 0.000315 0
0.002581 0.000215 0
0.002541 0.000136 0
0.002504 0.000078 0
0.002468 0.000041 0
0.002433 0.000020 0
0.002396 0.000012 0
0.002359 0.000013 0
0.002323 0.000019 0
0.002287 0.000027 0
0.002253 0.000035 0
0.002220 0.000042 0
0.002189 0.000047 0
0.002161 0.000050 0
0.002134 0.000051 0
0.002109 0.000049 0
0.002086 0.000046 0
0.002064 0.000042 0
0.002044 0.000036 0
0.002024 0.000029 0
0.002005 0.000021 0
0.001986 0.000013 0
0.001967 0.000003 0
0.001948 -0.000008 0
0.001928 -0.000020 0
0.001907 -0.000033 0
0.001883 -0.000048 0
0.001857 -0.000065 0
0.001828 -0.000085 0
0.001794 -0.000105 0
0.001756 -0.000122 0
0.001713 -0.000127 0
0.001662 -0.000096 0
0.001593 0.000020 0
0.001489 0.000309 0
0.001316 0.000914 0
0.001034 0.002009 0
0.000629 0.003551 0
0.000198 0.004335 0
0.000000 0.002133 0
0.000000 -0.000602 0
0.000119 -0.001578 0
0.000303 -0.001866 0
0.000461 -0.001516 0
0.000562 -0.000971 0
0.000609 -0.000472 0
0.000619 -0.000112 0
0.000608 0.000099 0
0.000588 0.000191 0
0.000566 0.000207 0
0.000546 0.000184 0
0.000527 0.000149 0
0.000507 0.000117 0
0.000487 0.000096 0
0.000465 0.000085 0
0.000441 0.000083 0
0.000417 0.000087 0
0.000391 0.000095 0
0.000364 0.000105 0
0.000337 0.000116 0
0.000310 0.000128 0
0.000281 0.000139 0
0.000253 0.000152 0
0.000224 0.000166 0
0.000195 0.000182 0
0.000166 0.000203 0
0.000137 0.000229 0
0.000109 0.000265 0
0.000081 0.000312 0
0.000054 0.000374 0
0.000030 0.000450 0
0.000010 0.000531 0
-0.000005 0.000600 0
-0.000012 0.000629 0
-0.000012 0.000573 0
-0.000006 0.000381 0
0.000000 0.000122 0
0.000000 0.000000 0
0.000000 0.000000 0
0.000000 0.000000 0
0.000000 -0.000554 0
0.000204 -0.001913 0
0.000665 -0.003175 0
0.001236 -0.003752 0
0.001799 -0.003735 0
0.002281 -0.003293 0
0.002651 -0.002607 0
0.002903 -0.001832 0
0.003050 -0.001077 0
0.003111 -0.000413 0
0.003106 0.000121 0
0.003054 0.000512 0
0.002973 0.000763 0
0.002878 0.000888 0
0.002780 0.000910 0
0.002688 0.000856 0
0.002607 0.000752 0
0.002536 0.000623 0
0.002475 0.000489 0
0.002422 0.000364 0
0.002371 0.000260 0
0.002322 0.000178 0
0.002271 0.000121 0
0.002219 0.000084 0
0.002166 0.000065 0
0.002112 0.000057 0
0.002060 0.000058 0
0.002009 0.000062 0
0.001962 0.000068 0
0.001918 0.000074 0
0.001878 0.000078 0
0.001841 0.000080 0
0.001809 0.000081 0
0.001779 0.000079 0
0.001751 0.000075 0
0.001726 0.000071 0
0.001702 0.000065 0
0.001679 0.000058 0
0.001657 0.000051 0
0.001635 0.000042 0
0.001613 0.000034 0
0.001591 0.000025 0
0.001568 0.000015 0
0.001543 0.000005 0
0.001516 -0.000006 0
0.001485 -0.000018 0
0.001451 -0.000032 0
0.001413 -0.000047 0
0.001371 -0.000063 0
0.001326 -0.000077 0
0.001282 -0.000078 0
0.001239 -0.000039 0
0.001193 0.000096 0
0.001126 0.000428 0
0.001006 0.001115 0
0.000791 0.002316 0
0.000470 0.003924 0
0.000134 0.004607 0
0.000000 0.002215 0
0.000000 -0.000658 0
0.000103 -0.001718 0
0.000257 -0.002021 0
0.000381 -0.001630 0
0.000454 -0.001033 0
0.000481 -0.000492 0
0.000479 -0.000107 0
0.000463 0.000116 0
0.000442 0.000212 0
0.000421 0.000227 0
0.000401 0.000204 0
0.000381 0.000169 0
0.000360 0.000138 0
0.000337 0.000118 0
0.000313 0.000109 0
0.000286 0.000108 0
0.000259 0.000114 0
0.000231 0.000122 0
0.000203 0.000133 0
0.000175 0.000144 0
0.000148 0.000156 0
0.000120 0.000168 0
0.000093 0.000180 0
0.000067 0.000194 0
0.000041 0.000210 0
0.000017 0.000229 0
-0.000006 0.000254 0
-0.000027 0.000288 0
-0.000045 0.000334 0
-0.000058 0.000392 0
-0.000067 0.000463 0
-0.000070 0.000538 0
-0.000064 0.000600 0
-0.000051 0.000621 0
-0.000032 0.000560 0
-0.000012 0.000369 0
0.000000 0.000117 0
0.000000 0.000000 0
0.000000 0.000000 0
0.000000 0.000000 0
0.000000 -0.000656 0
0.000205 -0.002246 0
0.000659 -0.003686 0
0.001207 -0.004307 0
0.001731 -0.004238 0
0.002162 -0.003695 0
0.002477 -0.002893 0
0.002677 -0.002008 0
0.002780 -0.001162 0
0.002807 -0.000427 0
0.002779 0.000158 0
0.002714 0.000582 0
0.002628 0.000850 0
0.002534 0.000981 0
0.002440 0.001000 0
0.002353 0.000938 0
0.002275 0.000824 0
0.002204 0.000686 0
0.002139 0.000546 0
0.002076 0.000420 0
0.002011 0.000315 0
0.001944 0.000236 0
0.001874 0.000181 0
0.001802 0.000146 0
0.001731 0.000127 0
0.001662 0.000119 0
0.001598 0.000116 0
0.001539 0.000117 0
0.001486 0.000118 0
0.001439 0.000119 0
0.001397 0.000118 0
0.001361 0.000116 0
0.001330 0.000113 0
0.001301 0.000108 0
0.001276 0.000102 0
0.001253 0.000096 0
0.001231 0.000088 0
0.001210 0.000081 0
0.001190 0.000073 0
0.001169 0.000065 0
0.001148 0.000057 0
0.001126 0.000049 0
0.001103 0.000041 0
0.001078 0.000033 0
0.001049 0.000025 0
0.001017 0.000017 0
0.000980 0.000007 0
0.000939 -0.000004 0
0.000896 -0.000018 0