# vtk DataFile Version 2.0
generated by CFD-lab course output (written by Tobias Neckel) 
ASCII

DATASET STRUCTURED_GRID
DIMENSIONS  99 49 1 
POINTS 4851 float

0.000000 0.000000 0
0.020000 0.000000 0
0.040000 0.000000 0
0.060000 0.000000 0
0.080000 0.000000 0
0.100000 0.000000 0
0.120000 0.000000 0
0.140000 0.000000 0
0.160000 0.000000 0
0.180000 0.000000 0
0.200000 0.000000 0
0.220000 0.000000 0
0.240000 0.000000 0
0.260000 0.000000 0
0.280000 0.000000 0
0.300000 0.000000 0
0.320000 0.000000 0
0.340000 0.000000 0
0.360000 0.000000 0
0.380000 0.000000 0
0.400000 0.000000 0
0.420000 0.000000 0
0.440000 0.000000 0
0.460000 0.000000 0
0.480000 0.000000 0
0.500000 0.000000 0
0.520000 0.000000 0
0.540000 0.000000 0
0.560000 0.000000 0
0.580000 0.000000 0
0.600000 0.000000 0
0.620000 0.000000 0
0.640000 0.000000 0
0.660000 0.000000 0
0.680000 0.000000 0
0.700000 0.000000 0
0.720000 0.000000 0
0.740000 0.000000 0
0.760000 0.000000 0
0.780000 0.000000 0
0.800000 0.000000 0
0.820000 0.000000 0
0.840000 0.000000 0
0.860000 0.000000 0
0.880000 0.000000 0
0.900000 0.000000 0
0.920000 0.000000 0
0.940000 0.000000 0
0.960000 0.000000 0
0.980000 0.000000 0
1.000000 0.000000 0
1.020000 0.000000 0
1.040000 0.000000 0
1.060000 0.000000 0
1.080000 0.000000 0
1.100000 0.000000 0
1.120000 0.000000 0
1.140000 0.000000 0
1.160000 0.000000 0
1.180000 0.000000 0
1.200000 0.000000 0
1.220000 0.000000 0
1.240000 0.000000 0
1.260000 0.000000 0
1.280000 0.000000 0
1.300000 0.000000 0
1.320000 0.000000 0
1.340000 0.000000 0
1.360000 0.000000 0
1.380000 0.000000 0
1.400000 0.000000 0
1.420000 0.000000 0
1.440000 0.000000 0
1.460000 0.000000 0
1.480000 0.000000 0
1.500000 0.000000 0
1.520000 0.000000 0
1.540000 0.000000 0
1.560000 0.000000 0
1.580000 0.000000 0
1.600000 0.000000 0
1.620000 0.000000 0
1.640000 0.000000 0
1.660000 0.000000 0
1.680000 0.000000 0
1.700000 0.000000 0
1.720000 0.000000 0
1.740000 0.000000 0
1.760000 0.000000 0
1.780000 0.000000 0
1.800000 0.000000 0
1.820000 0.000000 0
1.840000 0.000000 0
1.860000 0.000000 0
1.880000 0.000000 0
1.900000 0.000000 0
1.920000 0.000000 0
1.940000 0.000000 0
1.960000 0.000000 0
0.000000 0.020000 0
0.020000 0.020000 0
0.040000 0.020000 0
0.060000 0.020000 0
0.080000 0.020000 0
0.100000 0.020000 0
0.120000 0.020000 0
0.140000 0.020000 0
0.160000 0.020000 0
0.180000 0.020000 0
0.200000 0.020000 0
0.220000 0.020000 0
0.240000 0.020000 0
0.260000 0.020000 0
0.280000 0.020000 0
0.300000 0.020000 0
0.320000 0.020000 0
0.340000 0.020000 0
0.360000 0.020000 0
0.380000 0.020000 0
0.400000 0.020000 0
0.420000 0.020000 0
0.440000 0.020000 0
0.460000 0.020000 0
0.480000 0.020000 0
0.500000 0.020000 0
0.520000 0.020000 0
0.540000 0.020000 0
0.560000 0.020000 0
0.580000 0.020000 0
0.600000 0.020000 0
0.620000 0.020000 0
0.640000 0.020000 0
0.660000 0.020000 0
0.680000 0.020000 0
0.700000 0.020000 0
0.720000 0.020000 0
0.740000 0.020000 0
0.760000 0.020000 0
0.780000 0.020000 0
0.800000 0.020000 0
0.820000 0.020000 0
0.840000 0.020000 0
0.860000 0.020000 0
0.880000 0.020000 0
0.900000 0.020000 0
0.920000 0.020000 0
0.940000 0.020000 0
0.960000 0.020000 0
0.980000 0.020000 0
1.000000 0.020000 0
1.020000 0.020000 0
1.040000 0.020000 0
1.060000 0.020000 0
1.080000 0.020000 0
1.100000 0.020000 0
1.120000 0.020000 0
1.140000 0.020000 0
1.160000 0.020000 0
1.180000 0.020000 0
1.200000 0.020000 0
1.220000 0.020000 0
1.240000 0.020000 0
1.260000 0.020000 0
1.280000 0.020000 0
1.300000 0.020000 0
1.320000 0.020000 0
1.340000 0.020000 0
1.360000 0.020000 0
1.380000 0.020000 0
1.400000 0.020000 0
1.420000 0.020000 0
1.440000 0.020000 0
1.460000 0.020000 0
1.480000 0.020000 0
1.500000 0.020000 0
1.520000 0.020000 0
1.540000 0.020000 0
1.560000 0.020000 0
1.580000 0.020000 0
1.600000 0.020000 0
1.620000 0.020000 0
1.640000 0.020000 0
1.660000 0.020000 0
1.680000 0.020000 0
1.700000 0.020000 0
1.720000 0.020000 0
1.740000 0.020000 0
1.760000 0.020000 0
1.780000 0.020000 0
1.800000 0.020000 0
1.820000 0.020000 0
1.840000 0.020000 0
1.860000 0.020000 0
1.880000 0.020000 0
1.900000 0.020000 0
1.920000 0.020000 0
1.940000 0.020000 0
1.960000 0.020000 0
0.000000 0.040000 0
0.020000 0.040000 0
0.040000 0.040000 0
0.060000 0.040000 0
0.080000 0.040000 0
0.100000 0.040000 0
0.120000 0.040000 0
0.140000 0.040000 0
0.160000 0.040000 0
0.180000 0.040000 0
0.200000 0.040000 0
0.220000 0.040000 0
0.240000 0.040000 0
0.260000 0.040000 0
0.280000 0.040000 0
0.300000 0.040000 0
0.320000 0.040000 0
0.340000 0.040000 0
0.360000 0.040000 0
0.380000 0.040000 0
0.400000 0.040000 0
0.420000 0.040000 0
0.440000 0.040000 0
0.460000 0.040000 0
0.480000 0.040000 0
0.500000 0.040000 0
0.520000 0.040000 0
0.540000 0.040000 0
0.560000 0.040000 0
0.580000 0.040000 0
0.600000 0.040000 0
0.620000 0.040000 0
0.640000 0.040000 0
0.660000 0.040000 0
0.680000 0.040000 0
0.700000 0.040000 0
0.720000 0.040000 0
0.740000 0.040000 0
0.760000 0.040000 0
0.780000 0.040000 0
0.800000 0.040000 0
0.820000 0.040000 0
0.840000 0.040000 0
0.860000 0.040000 0
0.880000 0.040000 0
0.900000 0.040000 0
0.920000 0.040000 0
0.940000 0.040000 0
0.960000 0.040000 0
0.980000 0.040000 0
1.000000 0.040000 0
1.020000 0.040000 0
1.040000 0.040000 0
1.060000 0.040000 0
1.080000 0.040000 0
1.100000 0.040000 0
1.120000 0.040000 0
1.140000 0.040000 0
1.160000 0.040000 0
1.180000 0.040000 0
1.200000 0.040000 0
1.220000 0.040000 0
1.240000 0.040000 0
1.260000 0.040000 0
1.280000 0.040000 0
1.300000 0.040000 0
1.320000 0.040000 0
1.340000 0.040000 0
1.360000 0.040000 0
1.380000 0.040000 0
1.400000 0.040000 0
1.420000 0.040000 0
1.440000 0.040000 0
1.460000 0.040000 0
1.480000 0.040000 0
1.500000 0.040000 0
1.520000 0.040000 0
1.540000 0.040000 0
1.560000 0.040000 0
1.580000 0.040000 0
1.600000 0.040000 0
1.620000 0.040000 0
1.640000 0.040000 0
1.660000 0.040000 0
1.680000 0.040000 0
1.700000 0.040000 0
1.720000 0.040000 0
1.740000 0.040000 0
1.760000 0.040000 0
1.780000 0.040000 0
1.800000 0.040000 0
1.820000 0.040000 0
1.840000 0.040000 0
1.860000 0.040000 0
1.880000 0.040000 0
1.900000 0.040000 0
1.920000 0.040000 0
1.940000 0.040000 0
1.960000 0.040000 0
0.000000 0.060000 0
0.020000 0.060000 0
0.040000 0.060000 0
0.060000 0.060000 0
0.080000 0.060000 0
0.100000 0.060000 0
0.120000 0.060000 0
0.140000 0.060000 0
0.160000 0.060000 0
0.180000 0.060000 0
0.200000 0.060000 0
0.220000 0.060000 0
0.240000 0.060000 0
0.260000 0.060000 0
0.280000 0.060000 0
0.300000 0.060000 0
0.320000 0.060000 0
0.340000 0.060000 0
0.360000 0.060000 0
0.380000 0.060000 0
0.400000 0.060000 0
0.420000 0.060000 0
0.440000 0.060000 0
0.460000 0.060000 0
0.480000 0.060000 0
0.500000 0.060000 0
0.520000 0.060000 0
0.540000 0.060000 0
0.560000 0.060000 0
0.580000 0.060000 0
0.600000 0.060000 0
0.620000 0.060000 0
0.640000 0.060000 0
0.660000 0.060000 0
0.680000 0.060000 0
0.700000 0.060000 0
0.720000 0.060000 0
0.740000 0.060000 0
0.760000 0.060000 0
0.780000 0.060000 0
0.800000 0.060000 0
0.820000 0.060000 0
0.840000 0.060000 0
0.860000 0.060000 0
0.880000 0.060000 0
0.900000 0.060000 0
0.920000 0.060000 0
0.940000 0.060000 0
0.960000 0.060000 0
0.980000 0.060000 0
1.000000 0.060000 0
1.020000 0.060000 0
1.040000 0.060000 0
1.060000 0.060000 0
1.080000 0.060000 0
1.100000 0.060000 0
1.120000 0.060000 0
1.140000 0.060000 0
1.160000 0.060000 0
1.180000 0.060000 0
1.200000 0.060000 0
1.220000 0.060000 0
1.240000 0.060000 0
1.260000 0.060000 0
1.280000 0.060000 0
1.300000 0.060000 0
1.320000 0.060000 0
1.340000 0.060000 0
1.360000 0.060000 0
1.380000 0.060000 0
1.400000 0.060000 0
1.420000 0.060000 0
1.440000 0.060000 0
1.460000 0.060000 0
1.480000 0.060000 0
1.500000 0.060000 0
1.520000 0.060000 0
1.540000 0.060000 0
1.560000 0.060000 0
1.580000 0.060000 0
1.600000 0.060000 0
1.620000 0.060000 0
1.640000 0.060000 0
1.660000 0.060000 0
1.680000 0.060000 0
1.700000 0.060000 0
1.720000 0.060000 0
1.740000 0.060000 0
1.760000 0.060000 0
1.780000 0.060000 0
1.800000 0.060000 0
1.820000 0.060000 0
1.840000 0.060000 0
1.860000 0.060000 0
1.880000 0.060000 0
1.900000 0.060000 0
1.920000 0.060000 0
1.940000 0.060000 0
1.960000 0.060000 0
0.000000 0.080000 0
0.020000 0.080000 0
0.040000 0.080000 0
0.060000 0.080000 0
0.080000 0.080000 0
0.100000 0.080000 0
0.120000 0.080000 0
0.140000 0.080000 0
0.160000 0.080000 0
0.180000 0.080000 0
0.200000 0.080000 0
0.220000 0.080000 0
0.240000 0.080000 0
0.260000 0.080000 0
0.280000 0.080000 0
0.300000 0.080000 0
0.320000 0.080000 0
0.340000 0.080000 0
0.360000 0.080000 0
0.380000 0.080000 0
0.400000 0.080000 0
0.420000 0.080000 0
0.440000 0.080000 0
0.460000 0.080000 0
0.480000 0.080000 0
0.500000 0.080000 0
0.520000 0.080000 0
0.540000 0.080000 0
0.560000 0.080000 0
0.580000 0.080000 0
0.600000 0.080000 0
0.620000 0.080000 0
0.640000 0.080000 0
0.660000 0.080000 0
0.680000 0.080000 0
0.700000 0.080000 0
0.720000 0.080000 0
0.740000 0.080000 0
0.760000 0.080000 0
0.780000 0.080000 0
0.800000 0.080000 0
0.820000 0.080000 0
0.840000 0.080000 0
0.860000 0.080000 0
0.880000 0.080000 0
0.900000 0.080000 0
0.920000 0.080000 0
0.940000 0.080000 0
0.960000 0.080000 0
0.980000 0.080000 0
1.000000 0.080000 0
1.020000 0.080000 0
1.040000 0.080000 0
1.060000 0.080000 0
1.080000 0.080000 0
1.100000 0.080000 0
1.120000 0.080000 0
1.140000 0.080000 0
1.160000 0.080000 0
1.180000 0.080000 0
1.200000 0.080000 0
1.220000 0.080000 0
1.240000 0.080000 0
1.260000 0.080000 0
1.280000 0.080000 0
1.300000 0.080000 0
1.320000 0.080000 0
1.340000 0.080000 0
1.360000 0.080000 0
1.380000 0.080000 0
1.400000 0.080000 0
1.420000 0.080000 0
1.440000 0.080000 0
1.460000 0.080000 0
1.480000 0.080000 0
1.500000 0.080000 0
1.520000 0.080000 0
1.540000 0.080000 0
1.560000 0.080000 0
1.580000 0.080000 0
1.600000 0.080000 0
1.620000 0.080000 0
1.640000 0.080000 0
1.660000 0.080000 0
1.680000 0.080000 0
1.700000 0.080000 0
1.720000 0.080000 0
1.740000 0.080000 0
1.760000 0.080000 0
1.780000 0.080000 0
1.800000 0.080000 0
1.820000 0.080000 0
1.840000 0.080000 0
1.860000 0.080000 0
1.880000 0.080000 0
[...]
POINT_DATA 4851 

VECTORS velocity float
0.000000 0.000000 0
0.000054 0.000000 0
0.000135 0.000000 0
0.000200 0.000000 0
0.000237 0.000000 0
0.000249 0.000000 0
0.000245 0.000000 0
0.000233 0.000000 0
0.000219 0.000000 0
0.000207 0.000000 0
0.000197 0.000000 0
0.000191 0.000000 0
0.000187 0.000000 0
0.000185 0.000000 0
0.000185 0.000000 0
0.000185 0.000000 0
0.000185 0.000000 0
0.000184 0.000000 0
0.000184 0.000000 0
0.000183 0.000000 0
0.000182 0.000000 0
0.000180 0.000000 0
0.000179 0.000000 0
0.000177 0.000000 0
0.000175 0.000000 0
0.000174 0.000000 0
0.000171 0.000000 0
0.000169 0.000000 0
0.000166 0.000000 0
0.000161 0.000000 0
0.000153 0.000000 0
0.000139 0.000000 0
0.000119 0.000000 0
0.000089 0.000000 0
0.000053 0.000000 0
0.000017 0.000000 0
0.000000 0.000000 0
0.000000 0.000000 0
0.000000 0.000000 0
0.000000 0.000000 0
0.000000 0.000000 0
0.000003 0.000000 0
0.000038 0.000000 0
0.000100 0.000000 0
0.000175 0.000000 0
0.000249 0.000000 0
0.000312 0.000000 0
0.000357 0.000000 0
0.000383 0.000000 0
0.000392 0.000000 0
0.000387 0.000000 0
0.000373 0.000000 0
0.000352 0.000000 0
0.000329 0.000000 0
0.000305 0.000000 0
0.000283 0.000000 0
0.000265 0.000000 0
0.000250 0.000000 0
0.000239 0.000000 0
0.000232 0.000000 0
0.000228 0.000000 0
0.000227 0.000000 0
0.000228 0.000000 0
0.000230 0.000000 0
0.000234 0.000000 0
0.000238 0.000000 0
0.000241 0.000000 0
0.000245 0.000000 0
0.000248 0.000000 0
0.000251 0.000000 0
0.000253 0.000000 0
0.000255 0.000000 0
0.000257 0.000000 0
0.000259 0.000000 0
0.000260 0.000000 0
0.000262 0.000000 0
0.000263 0.000000 0
0.000264 0.000000 0
0.000266 0.000000 0
0.000268 0.000000 0
0.000270 0.000000 0
0.000272 0.000000 0
0.000274 0.000000 0
0.000277 0.000000 0
0.000280 0.000000 0
0.000284 0.000000 0
0.000289 0.000000 0
0.000295 0.000000 0
0.000303 0.000000 0
0.000314 0.000000 0
0.000329 0.000000 0
0.000350 0.000000 0
0.000382 0.000000 0
0.000429 0.000000 0
0.000496 0.000000 0
0.000579 0.000000 0
0.000630 0.000000 0
0.000487 0.000000 0
0.000000 0.000000 0
0.000000 -0.000054 0
0.000151 -0.000136 0
0.000384 -0.000147 0
0.000581 -0.000103 0
0.000703 -0.000050 0
0.000755 -0.000009 0
0.000758 0.000015 0
0.000733 0.000025 0
0.000698 0.000026 0
0.000664 0.000021 0
0.000637 0.000015 0
0.000618 0.000009 0
0.000606 0.000005 0
0.000600 0.000002 0
0.000597 0.000000 0
0.000596 -0.000000 0
0.000595 -0.000000 0
0.000593 0.000000 0
0.000591 0.000001 0
0.000587 0.000001 0
0.000583 0.000002 0
0.000578 0.000002 0
0.000572 0.000002 0
0.000565 0.000003 0
0.000558 0.000003 0
0.000549 0.000003 0
0.000540 0.000004 0
0.000528 0.000005 0
0.000512 0.000008 0
0.000490 0.000012 0
0.000458 0.000020 0
0.000411 0.000033 0
0.000344 0.000049 0
0.000254 0.000065 0
0.000149 0.000071 0
0.000051 0.000052 0
0.000000 0.000017 0
0.000000 0.000000 0
0.000000 0.000000 0
0.000000 0.000000 0
0.000000 -0.000003 0
0.000035 -0.000038 0
0.000165 -0.000097 0
0.000368 -0.000137 0
0.000608 -0.000149 0
0.000845 -0.000136 0
0.001049 -0.000107 0
0.001202 -0.000071 0
0.001298 -0.000035 0
0.001341 -0.000004 0
0.001338 0.000020 0
0.001302 0.000036 0
0.001243 0.000045 0
0.001172 0.000047 0
0.001099 0.000045 0
0.001029 0.000041 0
0.000967 0.000034 0
0.000917 0.000026 0
0.000878 0.000018 0
0.000851 0.000011 0
0.000835 0.000005 0
0.000828 0.000000 0
0.000829 -0.000003 0
0.000834 -0.000006 0
0.000843 -0.000007 0
0.000853 -0.000007 0
0.000864 -0.000007 0
0.000874 -0.000007 0
0.000884 -0.000006 0
0.000892 -0.000005 0
0.000899 -0.000004 0
0.000905 -0.000004 0
0.000911 -0.000003 0
0.000915 -0.000003 0
0.000919 -0.000003 0
0.000923 -0.000003 0
0.000927 -0.000003 0
0.000931 -0.000003 0
0.000935 -0.000003 0
0.000940 -0.000003 0
0.000945 -0.000004 0
0.000952 -0.000004 0
0.000959 -0.000005 0
0.000968 -0.000006 0
0.000978 -0.000007 0
0.000990 -0.000009 0
0.001005 -0.000011 0
0.001024 -0.000014 0
0.001049 -0.000018 0
0.001081 -0.000025 0
0.001124 -0.000036 0
0.001182 -0.000053 0
0.001259 -0.000078 0
0.001358 -0.000114 0
0.001473 -0.000150 0
0.001561 -0.000134 0
0.001489 0.000093 0
0.000976 0.000630 0
0.000000 0.000487 0
0.000000 -0.000152 0
0.000208 -0.000385 0
0.000535 -0.000430 0
0.000826 -0.000320 0
0.001021 -0.000176 0
0.001119 -0.000056 0
0.001143 0.000022 0
0.001122 0.000059 0
0.001081 0.000068 0
0.001038 0.000060 0
0.001000 0.000045 0
0.000973 0.000030 0
0.000956 0.000017 0
0.000946 0.000008 0
0.000940 0.000003 0
0.000937 0.000001 0
0.000934 0.000002 0
0.000930 0.000003 0
0.000924 0.000005 0
0.000917 0.000007 0
0.000909 0.000009 0
0.000898 0.000010 0
0.000886 0.000012 0
0.000873 0.000013 0
0.000858 0.000015 0
0.000840 0.000017 0
0.000819 0.000021 0
0.000794 0.000027 0
0.000761 0.000037 0
0.000718 0.000053 0
0.000659 0.000078 0
0.000579 0.000114 0
0.000473 0.000156 0
0.000343 0.000193 0
0.000199 0.000202 0
0.000069 0.000148 0
0.000000 0.000051 0
0.000000 0.000000 0
0.000000 0.000000 0
0.000000 0.000000 0
0.000000 -0.000035 0
0.000088 -0.000164 0
0.000322 -0.000333 0
0.000660 -0.000443 0
0.001046 -0.000476 0
0.001426 -0.000440 0
0.001757 -0.000357 0
0.002013 -0.000249 0
0.002184 -0.000138 0
0.002273 -0.000039 0
0.002289 0.000039 0
0.002249 0.000095 0
0.002170 0.000130 0
0.002067 0.000144 0
0.001954 0.000144 0
0.001844 0.000132 0
0.001744 0.000113 0
0.001660 0.000090 0
0.001593 0.000066 0
0.001545 0.000043 0
0.001514 0.000023 0
0.001497 0.000007 0
0.001493 -0.000005 0
0.001497 -0.000014 0
0.001506 -0.000019 0
0.001519 -0.000021 0
0.001533 -0.000021 0
0.001547 -0.000020 0
0.001560 -0.000018 0
0.001571 -0.000015 0
0.001580 -0.000013 0
0.001588 -0.000011 0
0.001594 -0.000009 0
0.001599 -0.000008 0
0.001604 -0.000007 0
0.001608 -0.000007 0
0.001613 -0.000008 0
0.001617 -0.000008 0
0.001622 -0.000009 0
0.001628 -0.000010 0
0.001635 -0.000012 0
0.001643 -0.000013 0
0.001653 -0.000016 0
0.001665 -0.000018 0
0.001679 -0.000022 0
0.001697 -0.000027 0
0.001718 -0.000034 0
0.001745 -0.000043 0
0.001779 -0.000056 0
0.001822 -0.000075 0
0.001876 -0.000100 0
0.001942 -0.000135 0
0.002017 -0.000177 0
0.002088 -0.000214 0
0.002119 -0.000202 0
0.002027 -0.000015 0
0.001658 0.000585 0
0.000866 0.001489 0
0.000000 0.000976 0
0.000000 -0.000263 0
0.000221 -0.000672 0
0.000576 -0.000765 0
0.000897 -0.000589 0
0.001122 -0.000343 0
0.001242 -0.000131 0
0.001282 0.000012 0
0.001271 0.000086 0
0.001235 0.000110 0
0.001193 0.000102 0
0.001156 0.000079 0
0.001127 0.000054 0
0.001108 0.000032 0
0.001096 0.000017 0
0.001088 0.000009 0
0.001082 0.000006 0
0.001076 0.000006 0
0.001068 0.000009 0
0.001059 0.000013 0
0.001048 0.000017 0
0.001035 0.000020 0
0.001019 0.000024 0
0.001002 0.000027 0
0.000982 0.000031 0
0.000959 0.000036 0
0.000933 0.000041 0
0.000902 0.000050 0
0.000865 0.000063 0
0.000820 0.000083 0
0.000761 0.000114 0
0.000687 0.000159 0
0.000591 0.000218 0
0.000473 0.000285 0
0.000335 0.000339 0
0.000190 0.000345 0
0.000064 0.000251 0
0.000000 0.000086 0
0.000000 0.000000 0
0.000000 0.000000 0
0.000000 0.000000 0
0.000000 -0.000090 0
0.000127 -0.000360 0
0.000438 -0.000669 0
0.000868 -0.000861 0
0.001346 -0.000914 0
0.001812 -0.000847 0
0.002219 -0.000695 0
0.002538 -0.000499 0
0.002760 -0.000295 0
0.002884 -0.000108 0
0.002922 0.000044 0
0.002891 0.000155 0
0.002811 0.000227 0
0.002698 0.000263 0
0.002571 0.000268 0
0.002443 0.000251 0
0.002324 0.000218 0
0.002221 0.000177 0
0.002139 0.000133 0
0.002077 0.000091 0
0.002034 0.000053 0
0.002009 0.000022 0
0.001998 -0.000002 0
0.001997 -0.000019 0
0.002003 -0.000029 0
0.002012 -0.000034 0
0.002024 -0.000035 0
0.002035 -0.000033 0
0.002045 -0.000029 0
0.002054 -0.000025 0
0.002061 -0.000021 0
0.002066 -0.000017 0
0.002069 -0.000014 0
0.002072 -0.000012 0
0.002074 -0.000011 0
0.002075 -0.000011 0
0.002077 -0.000011 0
0.002079 -0.000012 0
0.002082 -0.000014 0
0.002085 -0.000016 0
0.002090 -0.000019 0
0.002097 -0.000022 0
0.002105 -0.000027 0
0.002115 -0.000032 0
0.002128 -0.000039 0
0.002144 -0.000048 0
0.002164 -0.000059 0
0.002188 -0.000075 0
0.002218 -0.000095 0
0.002255 -0.000122 0
0.002296 -0.000155 0
0.002338 -0.000193 0
0.002370 -0.000224 0
0.002367 -0.000216 0
0.002279 -0.000089 0
0.002020 0.000328 0
0.001482 0.001254 0
0.000659 0.002288 0
0.000000 0.001353 0
0.000000 -0.000374 0
0.000215 -0.000961 0
0.000563 -0.001107 0
0.000881 -0.000867 0
0.001105 -0.000521 0
0.001228 -0.000217 0
0.001273 -0.000007 0
0.001267 0.000106 0
0.001236 0.000146 0
0.001199 0.000140 0
0.001165 0.000111 0
0.001138 0.000077 0
0.001119 0.000048 0
0.001105 0.000028 0
0.001094 0.000017 0
0.001085 0.000013 0
0.001075 0.000015 0
0.001063 0.000019 0
0.001049 0.000025 0
0.001033 0.000031 0
0.001015 0.000037 0
0.000995 0.000043 0
0.000972 0.000049 0
0.000946 0.000056 0
0.000917 0.000064 0
0.000884 0.000074 0
0.000846 0.000088 0
0.000802 0.000109 0
0.000749 0.000140 0
0.000685 0.000186 0
0.000606 0.000248 0
0.000510 0.000327 0
0.000398 0.000412 0
0.000274 0.000476 0
0.000151 0.000472 0
0.000049 0.000338 0
0.000000 0.000115 0
0.000000 0.000000 0
0.000000 0.000000 0
0.000000 0.000000 0
0.000000 -0.000161 0
0.000152 -0.000602 0
0.000515 -0.001074 0
0.001006 -0.001351 0
0.001541 -0.001420 0
0.002056 -0.001313 0
0.002503 -0.001083 0
0.002854 -0.000790 0
0.003100 -0.000483 0
0.003244 -0.000202 0
0.003297 0.000032 0
0.003277 0.000207 0
0.003202 0.000323 0
0.003092 0.000384 0
0.002964 0.000400 0
0.002833 0.000379 0
0.002710 0.000334 0
0.002602 0.000275 0
0.002514 0.000211 0
0.002446 0.000147 0
0.002398 0.000091 0
0.002367 0.000044 0
0.002349 0.000007 0
0.002341 -0.000018 0
0.002340 -0.000034 0
0.002343 -0.000042 0
0.002347 -0.000044 0
0.002351 -0.000041 0
0.002354 -0.000036 0
0.002355 -0.000030 0
0.002355 -0.000024 0
0.002354 -0.000019 0
0.002351 -0.000015 0
0.002348 -0.000012 0
0.002344 -0.000011 0
0.002341 -0.000010 0
0.002337 -0.000011 0
0.002335 -0.000013 0
0.002333 -0.000015 0
0.002331 -0.000018 0
0.002331 -0.000022 0
0.002333 -0.000027 0
0.002336 -0.000034 0
0.002341 -0.000041 0
0.002347 -0.000051 0
0.002357 -0.000063 0
0.002369 -0.000078 0
0.002384 -0.000098 0
0.002401 -0.000122 0
0.002420 -0.000152 0
0.002437 -0.000183 0
0.002445 -0.000209 0
0.002428 -0.000205 0
0.002356 -0.000123 0
0.002181 0.000145 0
0.001832 0.000782 0
0.001248 0.001946 0
0.000496 0.002971 0
0.000000 0.001635 0
0.000000 -0.000478 0
0.000200 -0.001236 0
0.000525 -0.001432 0
0.000819 -0.001131 0
0.001025 -0.000691 0
0.001138 -0.000299 0
0.001178 -0.000027 0
0.001172 0.000123 0
0.001145 0.000178 0
0.001111 0.000173 0
0.001081 0.000140 0
0.001056 0.000099 0
0.001037 0.000065 0
0.001021 0.000041 0
0.001007 0.000029 0
0.000993 0.000025 0
0.000978 0.000028 0
0.000961 0.000034 0
0.000942 0.000042 0
0.000921 0.000050 0
0.000898 0.000059 0
0.000873 0.000067 0
0.000845 0.000076 0
0.000815 0.000086 0
0.000781 0.000097 0
0.000744 0.000112 0
0.000703 0.000131 0
0.000656 0.000160 0
0.000602 0.000200 0
0.000539 0.000257 0
0.000466 0.000333 0
0.000382 0.000426 0
0.000289 0.000521 0
0.000192 0.000586 0
0.000101 0.000570 0
0.000031 0.000401 0
0.000000 0.000134 0
0.000000 0.000000 0
0.000000 0.000000 0
0.000000 0.000000 0
0.000000 -0.000242 0
0.000167 -0.000875 0
0.000565 -0.001523 0
0.001093 -0.001887 0
0.001660 -0.001964 0
0.002196 -0.001808 0
0.002654 -0.001492 0
0.003011 -0.001096 0
0.003260 -0.000684 0
0.003407 -0.000306 0
0.003465 0.000011 0
0.003449 0.000251 0
0.003381 0.000412 0
0.003277 0.000501 0
0.003156 0.000527 0
0.003031 0.000505 0
0.002914 0.000449 0
0.002811 0.000373 0
0.002725 0.000289 0
0.002658 0.000207 0
0.002609 0.000132 0
0.002574 0.000071 0
0.002551 0.000023 0
0.002535 -0.000010 0
0.002524 -0.000030 0
0.002516 -0.000040 0
0.002509 -0.000043 0
0.002502 -0.000040 0
0.002494 -0.000034 0
0.002485 -0.000027 0
0.002475 -0.000019 0
0.002464 -0.000013 0
0.002453 -0.000009 0
0.002442 -0.000005 0
0.002431 -0.000004 0
0.002420 -0.000004 0
0.002410 -0.000005 0
0.002401 -0.000007 0
0.002393 -0.000011 0
0.002385 -0.000015 0
0.002379 -0.000020 0
0.002374 -0.000026 0
0.002370 -0.000034 0
0.002367 -0.000043 0
0.002365 -0.000055 0
0.002364 -0.000069 0
0.002365 -0.000086 0
0.002366 -0.000107 0
0.002367 -0.000132 0
0.002365 -0.000158 0
0.002357 -0.000180 0
0.002334 -0.000183 0
0.002280 -0.000135 0
0.002167 0.000031 0
0.001952 0.000436 0
0.001582 0.001261 0
0.001025 0.002589 0
0.000375 0.003536 0
0.000000 0.001849 0
0.000000 -0.000575 0
0.000182 -0.001487 0
0.000474 -0.001726 0
0.000735 -0.001367 0
0.000913 -0.000840 0
0.001007 -0.000370 0
0.001037 -0.000042 0
0.001029 0.000139 0
0.001003 0.000207 0
0.000972 0.000203 0
0.000944 0.000166 0
0.000921 0.000121 0
0.000901 0.000083 0
0.000882 0.000057 0
0.000864 0.000045 0
0.000844 0.000042 0
0.000824 0.000047 0
0.000801 0.000055 0
0.000777 0.000065 0
0.000751 0.000075 0
0.000724 0.000085 0
0.000694 0.000096 0
0.000663 0.000107 0
0.000630 0.000119 0
0.000594 0.000134 0
0.000556 0.000152 0
0.000514 0.000176 0
0.000469 0.000209 0
0.000420 0.000256 0
0.000365 0.000321 0
0.000305 0.000405 0
0.000240 0.000504 0
0.000172 0.000602 0
0.000107 0.000664 0
0.000052 0.000633 0
0.000014 0.000439 0
0.000000 0.000145 0
0.000000 0.000000 0
0.000000 0.000000 0
0.000000 0.000000 0
0.000000 -0.000328 0
0.000177 -0.001166 0
0.000596 -0.002000 0
0.001144 -0.002446 0
0.001722 -0.002523 0
0.002256 -0.002307 0
0.002704 -0.001898 0
0.003046 -0.001396 0
0.003280 -0.000879 0
0.003415 -0.000406 0
0.003465 -0.000010 0
0.003448 0.000291 0
0.003382 0.000495 0
0.003286 0.000609 0
0.003174 0.000645 0
0.003060 0.000622 0
0.002954 0.000555 0
0.002860 0.000464 0
0.002783 0.000363 0
0.002720 0.000264 0
0.002672 0.000175 0
0.002634 0.000102 0
0.002604 0.000046 0
0.002579 0.000008 0
0.002557 -0.000015 0
0.002535 -0.000026 0
0.002514 -0.000029 0
0.002492 -0.000025 0
0.002470 -0.000019 0
0.002448 -0.000011 0
0.002426 -0.000004 0
0.002405 0.000003 0
0.002384 0.000007 0
0.002364 0.000010 0
0.002346 0.000011 0
0.002328 0.000010 0
0.002311 0.000008 0
0.002296 0.000005 0
0.002281 0.000001 0
0.002267 -0.000004 0
0.002254 -0.000011 0
0.002242 -0.000018 0
0.002230 -0.000026 0
0.002219 -0.000036 0
0.002208 -0.000048 0
0.002197 -0.000063 0
0.002185 -0.000080 0
0.002172 -0.000100 0
0.002156 -0.000122 0
0.002136 -0.000142 0
0.002109 -0.000152 0
0.002067 -0.000131 0
0.001997 -0.000038 0
0.001874 0.000205 0
0.001662 0.000731 0
0.001318 0.001710 0
0.000824 0.003153 0
0.000280 0.003996 0
0.000000 0.002010 0
0.000000 -0.000661 0
0.000162 -0.001710 0
0.000418 -0.001985 0
0.000641 -0.001571 0
0.000787 -0.000963 0
0.000860 -0.000424 0
0.000878 -0.000049 0
0.000865 0.000157 0
0.000839 0.000234 0
0.000810 0.000231 0
0.000784 0.000191 0
0.000760 0.000143 0
0.000738 0.000103 0
0.000716 0.000078 0
0.000693 0.000066 0
0.000669 0.000065 0
0.000642 0.000071 0
0.000615 0.000081 0
0.000586 0.000092 0
0.000556 0.000104 0
0.000525 0.000115 0
0.000493 0.000128 0
0.000460 0.000140 0
0.000425 0.000154 0
0.000389 0.000171 0
0.000352 0.000191 0
0.000314 0.000218 0
0.000274 0.000254 0
0.000233 0.000304 0
0.000190 0.000372 0
0.000147 0.000458 0
0.000104 0.000558 0
0.000064 0.000653 0
0.000032 0.000707 0
0.000010 0.000664 0
0.000000 0.000453 0
0.000000 0.000148 0
0.000000 0.000000 0
0.000000 0.000000 0
0.000000 0.000000 0
0.000000 -0.000419 0
0.000184 -0.001471 0
0.000615 -0.002490 0
0.001168 -0.003012 0
0.001738 -0.003076 0
0.002252 -0.002789 0
0.002672 -0.002281 0
0.002982 -0.001672 0
0.003187 -0.001053 0
0.003298 -0.000490 0
0.003332 -0.000022 0
0.003307 0.000334 0
0.003240 0.000575 0
0.003148 0.000709 0
0.003046 0.000753 0
0.002944 0.000726 0
0.002849 0.000650 0
0.002767 0.000545 0
0.002697 0.000429 0
0.002639 0.000317 0
0.002590 0.000219 0
0.002548 0.000138 0
0.002509 0.000078 0
0.002471 0.000038 0
0.002434 0.000014 0
0.002396 0.000003 0
0.002358 0.000001 0
0.002321 0.000004 0
0.002285 0.000010 0
0.002249 0.000018 0
0.002216 0.000024 0
0.002185 0.000029 0
0.002156 0.000032 0
0.002129 0.000033 0
0.002104 0.000033 0
0.002080 0.000031 0
0.002058 0.000028 0
0.002038 0.000023 0
0.002018 0.000018 0
0.001999 0.000012 0
0.001981 0.000005 0
0.001963 -0.000002 0
0.001946 -0.000011 0
0.001927 -0.000021 0
0.001908 -0.000032 0
0.001888 -0.000045 0
0.001865 -0.000061 0
0.001840 -0.000078 0
0.001812 -0.000096 0
0.001780 -0.000111 0
0.001743 -0.000110 0
0.001697 -0.000071 0
0.001632 0.000058 0
0.001527 0.000366 0
0.001350 0.000992 0
0.001059 0.002099 0
0.000645 0.003627 0
0.000204 0.004360 0
0.000000 0.002129 0
0.000000 -0.000738 0
0.000142 -0.001905 0
0.000361 -0.002205 0
0.000545 -0.001737 0
0.000659 -0.001059 0
0.000709 -0.000460 0
0.000715 -0.000048 0
0.000697 0.000178 0
0.000671 0.000261 0
0.000644 0.000257 0
0.000619 0.000215 0
0.000595 0.000166 0
0.000570 0.000127 0
0.000544 0.000102 0
0.000517 0.000092 0
0.000487 0.000093 0
0.000457 0.000100 0
0.000425 0.000111 0
0.000393 0.000123 0
0.000360 0.000135 0
0.000327 0.000148 0
0.000294 0.000161 0
0.000260 0.000175 0
0.000226 0.000189 0
0.000193 0.000206 0
0.000159 0.000227 0
0.000126 0.000254 0
0.000094 0.000290 0
0.000063 0.000340 0
0.000034 0.000407 0
0.000009 0.000491 0
-0.000012 0.000587 0
-0.000025 0.000674 0
-0.000029 0.000718 0
-0.000023 0.000665 0
-0.000010 0.000448 0
0.000000 0.000145 0
0.000000 0.000000 0
0.000000 0.000000 0
0.000000 0.000000 0
0.000000 -0.000512 0
0.000189 -0.001781 0
0.000622 -0.002983 0
0.001167 -0.003569 0
0.001715 -0.003608 0
0.002194 -0.003240 0
0.002571 -0.002628 0
0.002838 -0.001911 0
0.003004 -0.001195 0
0.003083 -0.000551 0
0.003094 -0.000019 0
0.003056 0.000383 0
0.002984 0.000654 0
0.002893 0.000803 0
0.002797 0.000850 0
0.002703 0.000818 0
0.002617 0.000733 0
0.002542 0.000617 0
0.002476 0.000491 0
0.002417 0.000371 0
0.002363 0.000266 0
0.002310 0.000184 0
0.002257 0.000123 0
0.002203 0.000083 0
0.002148 0.000060 0
0.002093 0.000049 0
0.002040 0.000046 0
0.001988 0.000049 0
0.001940 0.000053 0
0.001895 0.000057 0
0.001854 0.000061 0
0.001817 0.000063 0
0.001783 0.000064 0
0.001752 0.000062 0
0.001724 0.000060 0
0.001699 0.000056 0
0.001675 0.000051 0
0.001652 0.000045 0
0.001631 0.000039 0
0.001610 0.000033 0
0.001590 0.000025 0
0.001569 0.000018 0
0.001548 0.000010 0
0.001526 0.000001 0
0.001502 -0.000009 0
0.001476 -0.000019 0
0.001446 -0.000032 0
0.001413 -0.000046 0
0.001378 -0.000061 0
0.001342 -0.000073 0
0.001307 -0.000069 0
0.001272 -0.000020 0
0.001230 0.000131 0
0.001165 0.000488 0
0.001040 0.001199 0
0.000816 0.002415 0
0.000485 0.004008 0
0.000141 0.004641 0
0.000000 0.002214 0
0.000000 -0.000804 0
0.000124 -0.002072 0
0.000306 -0.002387 0
0.000452 -0.001869 0
0.000535 -0.001127 0
0.000564 -0.000480 0
0.000559 -0.000038 0
0.000538 0.000200 0
0.000512 0.000287 0
0.000486 0.000283 0
0.000461 0.000240 0
0.000436 0.000191 0
0.000409 0.000153 0
0.000380 0.000131 0
0.000349 0.000123 0
0.000316 0.000125 0
0.000282 0.000133 0
0.000248 0.000144 0
0.000214 0.000156 0
0.000180 0.000169 0
0.000147 0.000181 0
0.000114 0.000194 0
0.000082 0.000208 0
0.000051 0.000222 0
0.000021 0.000238 0
-0.000008 0.000257 0
-0.000034 0.000283 0
-0.000057 0.000317 0
-0.000077 0.000363 0
-0.000092 0.000426 0
-0.000101 0.000504 0
-0.000102 0.000592 0
-0.000092 0.000669 0
-0.000073 0.000704 0
-0.000045 0.000644 0
-0.000016 0.000430 0
0.000000 0.000138 0
0.000000 0.000000 0
0.000000 0.000000 0
0.000000 0.000000 0
0.000000 -0.000607 0
0.000191 -0.002092 0
0.000618 -0.003468 0
0.001144 -0.004105 0
0.001657 -0.004104 0
0.002090 -0.003646 0
0.002415 -0.002925 0
0.002631 -0.002104 0
0.002751 -0.001298 0
0.002794 -0.000581 0
0.002779 0.000005 0
0.002722 0.000445 0
0.002640 0.000737 0
0.002545 0.000896 0
0.002447 0.000943 0
0.002354 0.000905 0
0.002268 0.000811 0
0.002190 0.000686 0
0.002118 0.000554 0
0.002049 0.000430 0
0.001981 0.000326 0
0.001910 0.000244 0
0.001839 0.000186 0
0.001766 0.000147 0
0.001694 0.000124 0
0.001624 0.000112 0
0.001559 0.000106 0
0.001500 0.000104 0
0.001446 0.000104 0
0.001399 0.000104 0
0.001358 0.000102 0
0.001321 0.000100 0
0.001289 0.000097 0
0.001261 0.000092 0
0.001236 0.000087 0
0.001213 0.000081 0
0.001192 0.000074 0
0.001172 0.000067 0
0.001153 0.000060 0
0.001135 0.000053 0
0.001116 0.000046 0
0.001097 0.000039 0
0.001077 0.000032 0
0.001055 0.000025 0
0.001031 0.000018 0
0.001003 0.000011 0
0.000972 0.000002 0
0.000938 -0.000010 0