# vtk DataFile Version 2.0
generated by CFD-lab course output (written by Tobias Neckel) 
ASCII

DATASET STRUCTURED_GRID
DIMENSIONS  99 49 1 
POINTS 4851 float

0.000000 0.000000 0
0.020000 0.000000 0
0.040000 0.000000 0
0.060000 0.000000 0
0.080000 0.000000 0
0.100000 0.000000 0
0.120000 0.000000 0
0.140000 0.000000 0
0.160000 0.000000 0
0.180000 0.000000 0
0.200000 0.000000 0
0.220000 0.000000 0
0.240000 0.000000 0
0.260000 0.000000 0
0.280000 0.000000 0
0.300000 0.000000 0
0.320000 0.000000 0
0.340000 0.000000 0
0.360000 0.000000 0
0.380000 0.000000 0
0.400000 0.000000 0
0.420000 0.000000 0
0.440000 0.000000 0
0.460000 0.000000 0
0.480000 0.000000 0
0.500000 0.000000 0
0.520000 0.000000 0
0.540000 0.000000 0
0.560000 0.000000 0
0.580000 0.000000 0
0.600000 0.000000 0
0.620000 0.000000 0
0.640000 0.000000 0
0.660000 0.000000 0
0.680000 0.000000 0
0.700000 0.000000 0
0.720000 0.000000 0
0.740000 0.000000 0
0.760000 0.000000 0
0.780000 0.000000 0
0.800000 0.000000 0
0.820000 0.000000 0
0.840000 0.000000 0
0.860000 0.000000 0
0.880000 0.000000 0
0.900000 0.000000 0
0.920000 0.000000 0
0.940000 0.000000 0
0.960000 0.000000 0
0.980000 0.000000 0
1.000000 0.000000 0
1.020000 0.000000 0
1.040000 0.000000 0
1.060000 0.000000 0
1.080000 0.000000 0
1.100000 0.000000 0
1.120000 0.000000 0
1.140000 0.000000 0
1.160000 0.000000 0
1.180000 0.000000 0
1.200000 0.000000 0
1.220000 0.000000 0
1.240000 0.000000 0
1.260000 0.000000 0
1.280000 0.000000 0
1.300000 0.000000 0
1.320000 0.000000 0
1.340000 0.000000 0
1.360000 0.000000 0
1.380000 0.000000 0
1.400000 0.000000 0
1.420000 0.000000 0
1.440000 0.000000 0
1.460000 0.000000 0
1.480000 0.000000 0
1.500000 0.000000 0
1.520000 0.000000 0
1.540000 0.000000 0
1.560000 0.000000 0
1.580000 0.000000 0
1.600000 0.000000 0
1.620000 0.000000 0
1.640000 0.000000 0
1.660000 0.000000 0
1.680000 0.000000 0
1.700000 0.000000 0
1.720000 0.000000 0
1.740000 0.000000 0
1.760000 0.000000 0
1.780000 0.000000 0
1.800000 0.000000 0
1.820000 0.000000 0
1.840000 0.000000 0
1.860000 0.000000 0
1.880000 0.000000 0
1.900000 0.000000 0
1.920000 0.000000 0
1.940000 0.000000 0
1.960000 0.000000 0
0.000000 0.020000 0
0.020000 0.020000 0
0.040000 0.020000 0
0.060000 0.020000 0
0.080000 0.020000 0
0.100000 0.020000 0
0.120000 0.020000 0
0.140000 0.020000 0
0.160000 0.020000 0
0.180000 0.020000 0
0.200000 0.020000 0
0.220000 0.020000 0
0.240000 0.020000 0
0.260000 0.020000 0
0.280000 0.020000 0
0.300000 0.020000 0
0.320000 0.020000 0
0.340000 0.020000 0
0.360000 0.020000 0
0.380000 0.020000 0
0.400000 0.020000 0
0.420000 0.020000 0
0.440000 0.020000 0
0.460000 0.020000 0
0.480000 0.020000 0
0.500000 0.020000 0
0.520000 0.020000 0
0.540000 0.020000 0
0.560000 0.020000 0
0.580000 0.020000 0
0.600000 0.020000 0
0.620000 0.020000 0
0.640000 0.020000 0
0.660000 0.020000 0
0.680000 0.020000 0
0.700000 0.020000 0
0.720000 0.020000 0
0.740000 0.020000 0
0.760000 0.020000 0
0.780000 0.020000 0
0.800000 0.020000 0
0.820000 0.020000 0
0.840000 0.020000 0
0.860000 0.020000 0
0.880000 0.020000 0
0.900000 0.020000 0
0.920000 0.020000 0
0.940000 0.020000 0
0.960000 0.020000 0
0.980000 0.020000 0
1.000000 0.020000 0
1.020000 0.020000 0
1.040000 0.020000 0
1.060000 0.020000 0
1.080000 0.020000 0
1.100000 0.020000 0
1.120000 0.020000 0
1.140000 0.020000 0
1.160000 0.020000 0
1.180000 0.020000 0
1.200000 0.020000 0
1.220000 0.020000 0
1.240000 0.020000 0
1.260000 0.020000 0
1.280000 0.020000 0
1.300000 0.020000 0
1.320000 0.020000 0
1.340000 0.020000 0
1.360000 0.020000 0
1.380000 0.020000 0
1.400000 0.020000 0
1.420000 0.020000 0
1.440000 0.020000 0
1.460000 0.020000 0
1.480000 0.020000 0
1.500000 0.020000 0
1.520000 0.020000 0
1.540000 0.020000 0
1.560000 0.020000 0
1.580000 0.020000 0
1.600000 0.020000 0
1.620000 0.020000 0
1.640000 0.020000 0
1.660000 0.020000 0
1.680000 0.020000 0
1.700000 0.020000 0
1.720000 0.020000 0
1.740000 0.020000 0
1.760000 0.020000 0
1.780000 0.020000 0
1.800000 0.020000 0
1.820000 0.020000 0
1.840000 0.020000 0
1.860000 0.020000 0
1.880000 0.020000 0
1.900000 0.020000 0
1.920000 0.020000 0
1.940000 0.020000 0
1.960000 0.020000 0
0.000000 0.040000 0
0.020000 0.040000 0
0.040000 0.040000 0
0.060000 0.040000 0
0.080000 0.040000 0
0.100000 0.040000 0
0.120000 0.040000 0
0.140000 0.040000 0
0.160000 0.040000 0
0.180000 0.040000 0
0.200000 0.040000 0
0.220000 0.040000 0
0.240000 0.040000 0
0.260000 0.040000 0
0.280000 0.040000 0
0.300000 0.040000 0
0.320000 0.040000 0
0.340000 0.040000 0
0.360000 0.040000 0
0.380000 0.040000 0
0.400000 0.040000 0
0.420000 0.040000 0
0.440000 0.040000 0
0.460000 0.040000 0
0.480000 0.040000 0
0.500000 0.040000 0
0.520000 0.040000 0
0.540000 0.040000 0
0.560000 0.040000 0
0.580000 0.040000 0
0.600000 0.040000 0
0.620000 0.040000 0
0.640000 0.040000 0
0.660000 0.040000 0
0.680000 0.040000 0
0.700000 0.040000 0
0.720000 0.040000 0
0.740000 0.040000 0
0.760000 0.040000 0
0.780000 0.040000 0
0.800000 0.040000 0
0.820000 0.040000 0
0.840000 0.040000 0
0.860000 0.040000 0
0.880000 0.040000 0
0.900000 0.040000 0
0.920000 0.040000 0
0.940000 0.040000 0
0.960000 0.040000 0
0.980000 0.040000 0
1.000000 0.040000 0
1.020000 0.040000 0
1.040000 0.040000 0
1.060000 0.040000 0
1.080000 0.040000 0
1.100000 0.040000 0
1.120000 0.040000 0
1.140000 0.040000 0
1.160000 0.040000 0
1.180000 0.040000 0
1.200000 0.040000 0
1.220000 0.040000 0
1.240000 0.040000 0
1.260000 0.040000 0
1.280000 0.040000 0
1.300000 0.040000 0
1.320000 0.040000 0
1.340000 0.040000 0
1.360000 0.040000 0
1.380000 0.040000 0
1.400000 0.040000 0
1.420000 0.040000 0
1.440000 0.040000 0
1.460000 0.040000 0
1.480000 0.040000 0
1.500000 0.040000 0
1.520000 0.040000 0
1.540000 0.040000 0
1.560000 0.040000 0
1.580000 0.040000 0
1.600000 0.040000 0
1.620000 0.040000 0
1.640000 0.040000 0
1.660000 0.040000 0
1.680000 0.040000 0
1.700000 0.040000 0
1.720000 0.040000 0
1.740000 0.040000 0
1.760000 0.040000 0
1.780000 0.040000 0
1.800000 0.040000 0
1.820000 0.040000 0
1.840000 0.040000 0
1.860000 0.040000 0
1.880000 0.040000 0
1.900000 0.040000 0
1.920000 0.040000 0
1.940000 0.040000 0
1.960000 0.040000 0
0.000000 0.060000 0
0.020000 0.060000 0
0.040000 0.060000 0
0.060000 0.060000 0
0.080000 0.060000 0
0.100000 0.060000 0
0.120000 0.060000 0
0.140000 0.060000 0
0.160000 0.060000 0
0.180000 0.060000 0
0.200000 0.060000 0
0.220000 0.060000 0
0.240000 0.060000 0
0.260000 0.060000 0
0.280000 0.060000 0
0.300000 0.060000 0
0.320000 0.060000 0
0.340000 0.060000 0
0.360000 0.060000 0
0.380000 0.060000 0
0.400000 0.060000 0
0.420000 0.060000 0
0.440000 0.060000 0
0.460000 0.060000 0
0.480000 0.060000 0
0.500000 0.060000 0
0.520000 0.060000 0
0.540000 0.060000 0
0.560000 0.060000 0
0.580000 0.060000 0
0.600000 0.060000 0
0.620000 0.060000 0
0.640000 0.060000 0
0.660000 0.060000 0
0.680000 0.060000 0
0.700000 0.060000 0
0.720000 0.060000 0
0.740000 0.060000 0
0.760000 0.060000 0
0.780000 0.060000 0
0.800000 0.060000 0
0.820000 0.060000 0
0.840000 0.060000 0
0.860000 0.060000 0
0.880000 0.060000 0
0.900000 0.060000 0
0.920000 0.060000 0
0.940000 0.060000 0
0.960000 0.060000 0
0.980000 0.060000 0
1.000000 0.060000 0
1.020000 0.060000 0
1.040000 0.060000 0
1.060000 0.060000 0
1.080000 0.060000 0
1.100000 0.060000 0
1.120000 0.060000 0
1.140000 0.060000 0
1.160000 0.060000 0
1.180000 0.060000 0
1.200000 0.060000 0
1.220000 0.060000 0
1.240000 0.060000 0
1.260000 0.060000 0
1.280000 0.060000 0
1.300000 0.060000 0
1.320000 0.060000 0
1.340000 0.060000 0
1.360000 0.060000 0
1.380000 0.060000 0
1.400000 0.060000 0
1.420000 0.060000 0
1.440000 0.060000 0
1.460000 0.060000 0
1.480000 0.060000 0
1.500000 0.060000 0
1.520000 0.060000 0
1.540000 0.060000 0
1.560000 0.060000 0
1.580000 0.060000 0
1.600000 0.060000 0
1.620000 0.060000 0
1.640000 0.060000 0
1.660000 0.060000 0
1.680000 0.060000 0
1.700000 0.060000 0
1.720000 0.060000 0
1.740000 0.060000 0
1.760000 0.060000 0
1.780000 0.060000 0
1.800000 0.060000 0
1.820000 0.060000 0
1.840000 0.060000 0
1.860000 0.060000 0
1.880000 0.060000 0
1.900000 0.060000 0
1.920000 0.060000 0
1.940000 0.060000 0
1.960000 0.060000 0
0.000000 0.080000 0
0.020000 0.080000 0
0.040000 0.080000 0
0.060000 0.080000 0
0.080000 0.080000 0
0.100000 0.080000 0
0.120000 0.080000 0
0.140000 0.080000 0
0.160000 0.080000 0
0.180000 0.080000 0
0.200000 0.080000 0
0.220000 0.080000 0
0.240000 0.080000 0
0.260000 0.080000 0
0.280000 0.080000 0
0.300000 0.080000 0
0.320000 0.080000 0
0.340000 0.080000 0
0.360000 0.080000 0
0.380000 0.080000 0
0.400000 0.080000 0
0.420000 0.080000 0
0.440000 0.080000 0
0.460000 0.080000 0
0.480000 0.080000 0
0.500000 0.080000 0
0.520000 0.080000 0
0.540000 0.080000 0
0.560000 0.080000 0
0.580000 0.080000 0
0.600000 0.080000 0
0.620000 0.080000 0
0.640000 0.080000 0
0.660000 0.080000 0
0.680000 0.080000 0
0.700000 0.080000 0
0.720000 0.080000 0
0.740000 0.080000 0
0.760000 0.080000 0
0.780000 0.080000 0
0.800000 0.080000 0
0.820000 0.080000 0
0.840000 0.080000 0
0.860000 0.080000 0
0.880000 0.080000 0
0.900000 0.080000 0
0.920000 0.080000 0
0.940000 0.080000 0
0.960000 0.080000 0
0.980000 0.080000 0
1.000000 0.080000 0
1.020000 0.080000 0
1.040000 0.080000 0
1.060000 0.080000 0
1.080000 0.080000 0
1.100000 0.080000 0
1.120000 0.080000 0
1.140000 0.080000 0
1.160000 0.080000 0
1.180000 0.080000 0
1.200000 0.080000 0
1.220000 0.080000 0
1.240000 0.080000 0
1.260000 0.080000 0
1.280000 0.080000 0
1.300000 0.080000 0
1.320000 0.080000 0
1.340000 0.080000 0
1.360000 0.080000 0
1.380000 0.080000 0
1.400000 0.080000 0
1.420000 0.080000 0
1.440000 0.080000 0
1.460000 0.080000 0
1.480000 0.080000 0
1.500000 0.080000 0
1.520000 0.080000 0
1.540000 0.080000 0
1.560000 0.080000 0
1.580000 0.080000 0
1.600000 0.080000 0
1.620000 0.080000 0
1.640000 0.080000 0
1.660000 0.080000 0
1.680000 0.080000 0
1.700000 0.080000 0
1.720000 0.080000 0
1.740000 0.080000 0
1.760000 0.080000 0
1.780000 0.080000 0
1.800000 0.080000 0
1.820000 0.080000 0
1.840000 0.080000 0
1.860000 0.080000 0
1.880000 0.080000 0
[...]
POINT_DATA 4851 

VECTORS velocity float
0.000000 0.000000 0
0.000137 0.000000 0
0.000320 0.000000 0
0.000448 0.000000 0
0.000501 0.000000 0
0.000498 0.000000 0
0.000464 0.000000 0
0.000420 0.000000 0
0.000379 0.000000 0
0.000349 0.000000 0
0.000331 0.000000 0
0.000324 0.000000 0
0.000325 0.000000 0
0.000329 0.000000 0
0.000334 0.000000 0
0.000339 0.000000 0
0.000343 0.000000 0
0.000344 0.000000 0
0.000345 0.000000 0
0.000344 0.000000 0
0.000342 0.000000 0
0.000340 0.000000 0
0.000338 0.000000 0
0.000335 0.000000 0
0.000331 0.000000 0
0.000328 0.000000 0
0.000323 0.000000 0
0.000318 0.000000 0
0.000313 0.000000 0
0.000306 0.000000 0
0.000296 0.000000 0
0.000281 0.000000 0
0.000254 0.000000 0
0.000207 0.000000 0
0.000136 0.000000 0
0.000051 0.000000 0
0.000000 0.000000 0
0.000000 0.000000 0
0.000000 0.000000 0
0.000000 0.000000 0
0.000000 0.000000 0
0.000000 0.000000 0
0.000000 0.000000 0
0.000000 0.000000 0
0.000001 0.000000 0
0.000001 0.000000 0
0.000002 0.000000 0
0.000002 0.000000 0
0.000003 0.000000 0
0.000004 0.000000 0
0.000005 0.000000 0
0.000006 0.000000 0
0.000008 0.000000 0
0.000009 0.000000 0
0.000011 0.000000 0
0.000014 0.000000 0
0.000017 0.000000 0
0.000020 0.000000 0
0.000023 0.000000 0
0.000027 0.000000 0
0.000031 0.000000 0
0.000035 0.000000 0
0.000039 0.000000 0
0.000043 0.000000 0
0.000047 0.000000 0
0.000052 0.000000 0
0.000056 0.000000 0
0.000060 0.000000 0
0.000064 0.000000 0
0.000068 0.000000 0
0.000073 0.000000 0
0.000077 0.000000 0
0.000082 0.000000 0
0.000086 0.000000 0
0.000091 0.000000 0
0.000096 0.000000 0
0.000101 0.000000 0
0.000106 0.000000 0
0.000112 0.000000 0
0.000118 0.000000 0
0.000124 0.000000 0
0.000131 0.000000 0
0.000138 0.000000 0
0.000145 0.000000 0
0.000154 0.000000 0
0.000163 0.000000 0
0.000174 0.000000 0
0.000187 0.000000 0
0.000202 0.000000 0
0.000221 0.000000 0
0.000245 0.000000 0
0.000277 0.000000 0
0.000319 0.000000 0
0.000377 0.000000 0
0.000453 0.000000 0
0.000543 0.000000 0
0.000595 0.000000 0
0.000456 0.000000 0
0.000000 0.000000 0
0.000000 -0.000137 0
0.000369 -0.000321 0
0.000885 -0.000312 0
0.001274 -0.000181 0
0.001470 -0.000051 0
0.001504 0.000036 0
0.001437 0.000077 0
0.001328 0.000084 0
0.001217 0.000070 0
0.001130 0.000047 0
0.001074 0.000024 0
0.001048 0.000006 0
0.001044 -0.000005 0
0.001053 -0.000011 0
0.001067 -0.000011 0
0.001081 -0.000009 0
0.001090 -0.000006 0
0.001095 -0.000003 0
0.001095 -0.000000 0
0.001092 0.000002 0
0.001085 0.000003 0
0.001076 0.000004 0
0.001066 0.000005 0
0.001054 0.000006 0
0.001040 0.000006 0
0.001025 0.000007 0
0.001007 0.000008 0
0.000985 0.000010 0
0.000960 0.000012 0
0.000927 0.000016 0
0.000883 0.000024 0
0.000818 0.000042 0
0.000719 0.000073 0
0.000568 0.000118 0
0.000362 0.000156 0
0.000136 0.000135 0
0.000000 0.000051 0
0.000000 0.000000 0
0.000000 0.000000 0
0.000000 0.000000 0
0.000000 0.000000 0
0.000000 0.000000 0
0.000001 0.000000 0
0.000002 -0.000000 0
0.000003 -0.000000 0
0.000004 -0.000001 0
0.000006 -0.000001 0
0.000008 -0.000001 0
0.000010 -0.000001 0
0.000013 -0.000002 0
0.000017 -0.000002 0
0.000022 -0.000002 0
0.000027 -0.000003 0
0.000034 -0.000004 0
0.000041 -0.000004 0
0.000050 -0.000005 0
0.000060 -0.000006 0
0.000071 -0.000006 0
0.000083 -0.000007 0
0.000097 -0.000007 0
0.000111 -0.000008 0
0.000125 -0.000008 0
0.000140 -0.000008 0
0.000155 -0.000008 0
0.000171 -0.000008 0
0.000186 -0.000008 0
0.000202 -0.000008 0
0.000217 -0.000008 0
0.000233 -0.000008 0
0.000249 -0.000008 0
0.000265 -0.000008 0
0.000281 -0.000009 0
0.000298 -0.000009 0
0.000315 -0.000009 0
0.000333 -0.000009 0
0.000351 -0.000010 0
0.000370 -0.000010 0
0.000389 -0.000011 0
0.000410 -0.000011 0
0.000431 -0.000012 0
0.000454 -0.000012 0
0.000478 -0.000013 0
0.000503 -0.000014 0
0.000531 -0.000016 0
0.000561 -0.000018 0
0.000595 -0.000020 0
0.000633 -0.000023 0
0.000676 -0.000028 0
0.000727 -0.000034 0
0.000788 -0.000043 0
0.000861 -0.000055 0
0.000952 -0.000073 0
0.001063 -0.000100 0
0.001195 -0.000134 0
0.001340 -0.000166 0
0.001452 -0.000141 0
0.001398 0.000087 0
0.000912 0.000595 0
0.000000 0.000456 0
0.000000 -0.000370 0
0.000486 -0.000886 0
0.001198 -0.000906 0
0.001779 -0.000586 0
0.002115 -0.000230 0
0.002223 0.000032 0
0.002176 0.000175 0
0.002049 0.000219 0
0.001904 0.000197 0
0.001781 0.000143 0
0.001696 0.000081 0
0.001652 0.000029 0
0.001639 -0.000006 0
0.001647 -0.000024 0
0.001662 -0.000028 0
0.001678 -0.000024 0
0.001689 -0.000015 0
0.001693 -0.000006 0
0.001690 0.000003 0
0.001681 0.000009 0
0.001667 0.000014 0
0.001650 0.000018 0
0.001628 0.000021 0
0.001604 0.000025 0
0.001576 0.000029 0
0.001544 0.000033 0
0.001507 0.000039 0
0.001463 0.000046 0
0.001409 0.000057 0
0.001342 0.000076 0
0.001253 0.000108 0
0.001132 0.000163 0
0.000962 0.000249 0
0.000733 0.000356 0
0.000450 0.000431 0
0.000166 0.000361 0
0.000000 0.000136 0
0.000000 0.000000 0
0.000000 0.000000 0
0.000000 0.000000 0
0.000000 0.000000 0
0.000001 -0.000000 0
0.000002 -0.000001 0
0.000003 -0.000001 0
0.000005 -0.000002 0
0.000007 -0.000003 0
0.000010 -0.000003 0
0.000014 -0.000004 0
0.000019 -0.000005 0
0.000024 -0.000006 0
0.000031 -0.000008 0
0.000039 -0.000010 0
0.000049 -0.000012 0
0.000060 -0.000014 0
0.000074 -0.000016 0
0.000090 -0.000018 0
0.000107 -0.000021 0
0.000127 -0.000023 0
0.000149 -0.000025 0
0.000173 -0.000027 0
0.000198 -0.000028 0
0.000224 -0.000029 0
0.000251 -0.000030 0
0.000279 -0.000030 0
0.000307 -0.000030 0
0.000335 -0.000031 0
0.000363 -0.000031 0
0.000392 -0.000031 0
0.000421 -0.000031 0
0.000450 -0.000031 0
0.000479 -0.000032 0
0.000509 -0.000033 0
0.000540 -0.000033 0
0.000572 -0.000034 0
0.000604 -0.000035 0
0.000637 -0.000037 0
0.000672 -0.000038 0
0.000707 -0.000040 0
0.000744 -0.000041 0
0.000783 -0.000044 0
0.000824 -0.000046 0
0.000866 -0.000049 0
0.000912 -0.000053 0
0.000961 -0.000058 0
0.001014 -0.000064 0
0.001071 -0.000071 0
0.001135 -0.000081 0
0.001207 -0.000094 0
0.001288 -0.000111 0
0.001380 -0.000134 0
0.001485 -0.000163 0
0.001603 -0.000201 0
0.001730 -0.000243 0
0.001851 -0.000277 0
0.001927 -0.000256 0
0.001876 -0.000057 0
0.001547 0.000540 0
0.000807 0.001398 0
0.000000 0.000913 0
0.000000 -0.000624 0
0.000498 -0.001520 0
0.001260 -0.001605 0
0.001910 -0.001098 0
0.002314 -0.000495 0
0.002475 -0.000025 0
0.002459 0.000251 0
0.002346 0.000355 0
0.002202 0.000337 0
0.002072 0.000255 0
0.001979 0.000153 0
0.001925 0.000063 0
0.001905 -0.000000 0
0.001905 -0.000034 0
0.001914 -0.000043 0
0.001924 -0.000036 0
0.001928 -0.000021 0
0.001925 -0.000004 0
0.001914 0.000011 0
0.001896 0.000024 0
0.001873 0.000034 0
0.001845 0.000043 0
0.001812 0.000050 0
0.001775 0.000057 0
0.001734 0.000066 0
0.001686 0.000076 0
0.001631 0.000089 0
0.001567 0.000107 0
0.001490 0.000132 0
0.001397 0.000171 0
0.001278 0.000234 0
0.001125 0.000333 0
0.000927 0.000472 0
0.000680 0.000629 0
0.000401 0.000722 0
0.000140 0.000585 0
0.000000 0.000217 0
0.000000 0.000000 0
0.000000 0.000000 0
0.000000 0.000000 0
0.000000 -0.000000 0
0.000001 -0.000001 0
0.000002 -0.000002 0
0.000004 -0.000003 0
0.000007 -0.000004 0
0.000010 -0.000006 0
0.000014 -0.000007 0
0.000019 -0.000009 0
0.000025 -0.000011 0
0.000032 -0.000014 0
0.000041 -0.000017 0
0.000052 -0.000020 0
0.000065 -0.000024 0
0.000080 -0.000029 0
0.000098 -0.000033 0
0.000119 -0.000038 0
0.000143 -0.000043 0
0.000169 -0.000048 0
0.000199 -0.000052 0
0.000230 -0.000056 0
0.000264 -0.000059 0
0.000299 -0.000061 0
0.000336 -0.000063 0
0.000374 -0.000064 0
0.000412 -0.000064 0
0.000450 -0.000065 0
0.000489 -0.000065 0
0.000528 -0.000065 0
0.000567 -0.000066 0
0.000607 -0.000067 0
0.000647 -0.000068 0
0.000688 -0.000069 0
0.000730 -0.000071 0
0.000773 -0.000073 0
0.000817 -0.000075 0
0.000862 -0.000077 0
0.000909 -0.000080 0
0.000957 -0.000083 0
0.001007 -0.000087 0
0.001059 -0.000091 0
0.001113 -0.000096 0
0.001169 -0.000102 0
0.001229 -0.000109 0
0.001292 -0.000117 0
0.001360 -0.000128 0
0.001432 -0.000142 0
0.001511 -0.000159 0
0.001596 -0.000180 0
0.001688 -0.000207 0
0.001788 -0.000240 0
0.001892 -0.000278 0
0.001996 -0.000318 0
0.002087 -0.000347 0
0.002137 -0.000331 0
0.002096 -0.000191 0
0.001879 0.000239 0
0.001384 0.001156 0
0.000614 0.002142 0
0.000000 0.001263 0
0.000000 -0.000869 0
0.000472 -0.002147 0
0.001213 -0.002318 0
0.001862 -0.001640 0
0.002281 -0.000796 0
0.002464 -0.000114 0
0.002470 0.000304 0
0.002375 0.000476 0
0.002242 0.000471 0
0.002119 0.000366 0
0.002027 0.000228 0
0.001971 0.000103 0
0.001943 0.000014 0
0.001933 -0.000034 0
0.001931 -0.000048 0
0.001928 -0.000038 0
0.001919 -0.000017 0
0.001904 0.000008 0
0.001881 0.000031 0
0.001851 0.000050 0
0.001816 0.000065 0
0.001777 0.000078 0
0.001732 0.000091 0
0.001683 0.000103 0
0.001629 0.000118 0
0.001567 0.000135 0
0.001499 0.000157 0
0.001420 0.000186 0
0.001329 0.000227 0
0.001222 0.000288 0
0.001094 0.000379 0
0.000936 0.000514 0
0.000745 0.000694 0
0.000525 0.000882 0
0.000293 0.000970 0
0.000095 0.000762 0
0.000000 0.000276 0
0.000000 0.000000 0
0.000000 0.000000 0
0.000000 0.000000 0
0.000000 -0.000001 0
0.000001 -0.000002 0
0.000003 -0.000004 0
0.000005 -0.000006 0
0.000008 -0.000008 0
0.000012 -0.000010 0
0.000016 -0.000012 0
0.000022 -0.000015 0
0.000029 -0.000018 0
0.000037 -0.000023 0
0.000047 -0.000027 0
0.000060 -0.000033 0
0.000075 -0.000040 0
0.000093 -0.000047 0
0.000114 -0.000055 0
0.000139 -0.000063 0
0.000167 -0.000071 0
0.000199 -0.000079 0
0.000234 -0.000086 0
0.000271 -0.000092 0
0.000312 -0.000097 0
0.000354 -0.000101 0
0.000398 -0.000104 0
0.000443 -0.000106 0
0.000488 -0.000107 0
0.000534 -0.000108 0
0.000581 -0.000108 0
0.000628 -0.000109 0
0.000675 -0.000110 0
0.000723 -0.000111 0
0.000772 -0.000113 0
0.000821 -0.000115 0
0.000872 -0.000118 0
0.000923 -0.000121 0
0.000976 -0.000125 0
0.001030 -0.000128 0
0.001086 -0.000133 0
0.001143 -0.000137 0
0.001202 -0.000143 0
0.001263 -0.000149 0
0.001326 -0.000156 0
0.001392 -0.000165 0
0.001460 -0.000175 0
0.001531 -0.000188 0
0.001606 -0.000203 0
0.001685 -0.000222 0
0.001769 -0.000244 0
0.001856 -0.000271 0
0.001946 -0.000303 0
0.002037 -0.000338 0
0.002123 -0.000372 0
0.002195 -0.000395 0
0.002233 -0.000384 0
0.002207 -0.000286 0
0.002066 0.000002 0
0.001743 0.000655 0
0.001187 0.001804 0
0.000470 0.002782 0
0.000000 0.001527 0
0.000000 -0.001096 0
0.000432 -0.002734 0
0.001120 -0.002995 0
0.001729 -0.002166 0
0.002128 -0.001098 0
0.002310 -0.000215 0
0.002325 0.000341 0
0.002244 0.000583 0
0.002126 0.000592 0
0.002013 0.000470 0
0.001927 0.000301 0
0.001870 0.000147 0
0.001835 0.000037 0
0.001814 -0.000022 0
0.001797 -0.000038 0
0.001777 -0.000025 0
0.001752 0.000003 0
0.001721 0.000034 0
0.001683 0.000064 0
0.001640 0.000088 0
0.001593 0.000109 0
0.001542 0.000126 0
0.001487 0.000143 0
0.001427 0.000161 0
0.001362 0.000181 0
0.001291 0.000206 0
0.001213 0.000236 0
0.001128 0.000276 0
0.001033 0.000330 0
0.000926 0.000407 0
0.000804 0.000520 0
0.000664 0.000680 0
0.000506 0.000883 0
0.000335 0.001081 0
0.000173 0.001151 0
0.000050 0.000878 0
0.000000 0.000312 0
0.000000 0.000000 0
0.000000 0.000000 0
0.000000 0.000000 0
0.000000 -0.000001 0
0.000001 -0.000003 0
0.000003 -0.000006 0
0.000005 -0.000008 0
0.000008 -0.000011 0
0.000012 -0.000014 0
0.000017 -0.000017 0
0.000023 -0.000021 0
0.000030 -0.000026 0
0.000039 -0.000032 0
0.000050 -0.000039 0
0.000064 -0.000048 0
0.000080 -0.000057 0
0.000100 -0.000068 0
0.000123 -0.000079 0
0.000150 -0.000091 0
0.000181 -0.000103 0
0.000216 -0.000114 0
0.000255 -0.000125 0
0.000297 -0.000134 0
0.000342 -0.000141 0
0.000389 -0.000147 0
0.000438 -0.000151 0
0.000489 -0.000154 0
0.000540 -0.000156 0
0.000591 -0.000157 0
0.000643 -0.000158 0
0.000695 -0.000159 0
0.000748 -0.000161 0
0.000802 -0.000163 0
0.000857 -0.000166 0
0.000912 -0.000169 0
0.000969 -0.000173 0
0.001026 -0.000177 0
0.001085 -0.000182 0
0.001146 -0.000187 0
0.001207 -0.000193 0
0.001270 -0.000199 0
0.001335 -0.000206 0
0.001401 -0.000215 0
0.001469 -0.000224 0
0.001540 -0.000235 0
0.001612 -0.000248 0
0.001686 -0.000264 0
0.001763 -0.000282 0
0.001842 -0.000304 0
0.001923 -0.000329 0
0.002005 -0.000358 0
0.002085 -0.000388 0
0.002159 -0.000417 0
0.002221 -0.000435 0
0.002256 -0.000427 0
0.002246 -0.000358 0
0.002158 -0.000163 0
0.001951 0.000273 0
0.001578 0.001118 0
0.001018 0.002429 0
0.000373 0.003329 0
0.000000 0.001733 0
0.000000 -0.001302 0
0.000388 -0.003268 0
0.001009 -0.003615 0
0.001558 -0.002648 0
0.001917 -0.001378 0
0.002081 -0.000312 0
0.002096 0.000370 0
0.002025 0.000676 0
0.001920 0.000701 0
0.001820 0.000564 0
0.001740 0.000371 0
0.001683 0.000194 0
0.001641 0.000069 0
0.001608 0.000004 0
0.001574 -0.000011 0
0.001537 0.000006 0
0.001494 0.000040 0
0.001446 0.000077 0
0.001394 0.000111 0
0.001338 0.000139 0
0.001280 0.000163 0
0.001219 0.000185 0
0.001155 0.000205 0
0.001087 0.000228 0
0.001015 0.000254 0
0.000939 0.000284 0
0.000858 0.000320 0
0.000773 0.000366 0
0.000683 0.000428 0
0.000588 0.000516 0
0.000486 0.000641 0
0.000377 0.000813 0
0.000263 0.001022 0
0.000154 0.001214 0
0.000064 0.001256 0
0.000011 0.000934 0
0.000000 0.000326 0
0.000000 0.000000 0
0.000000 0.000000 0
0.000000 0.000000 0
0.000000 -0.000001 0
0.000001 -0.000004 0
0.000003 -0.000008 0
0.000005 -0.000011 0
0.000008 -0.000015 0
0.000012 -0.000018 0
0.000017 -0.000023 0
0.000023 -0.000028 0
0.000030 -0.000034 0
0.000039 -0.000042 0
0.000050 -0.000052 0
0.000063 -0.000063 0
0.000080 -0.000075 0
0.000100 -0.000089 0
0.000123 -0.000105 0
0.000151 -0.000121 0
0.000184 -0.000137 0
0.000221 -0.000152 0
0.000262 -0.000167 0
0.000307 -0.000179 0
0.000355 -0.000189 0
0.000406 -0.000197 0
0.000458 -0.000203 0
0.000512 -0.000207 0
0.000566 -0.000209 0
0.000621 -0.000211 0
0.000677 -0.000212 0
0.000733 -0.000214 0
0.000789 -0.000216 0
0.000846 -0.000219 0
0.000905 -0.000223 0
0.000964 -0.000227 0
0.001024 -0.000232 0
0.001086 -0.000238 0
0.001148 -0.000244 0
0.001212 -0.000250 0
0.001277 -0.000257 0
0.001343 -0.000265 0
0.001411 -0.000274 0
0.001479 -0.000283 0
0.001549 -0.000294 0
0.001620 -0.000307 0
0.001692 -0.000322 0
0.001765 -0.000339 0
0.001840 -0.000359 0
0.001914 -0.000382 0
0.001989 -0.000407 0
0.002061 -0.000433 0
0.002127 -0.000457 0
0.002183 -0.000473 0
0.002220 -0.000469 0
0.002225 -0.000420 0
0.002177 -0.000286 0
0.002050 0.000009 0
0.001807 0.000583 0
0.001418 0.001588 0
0.000881 0.003010 0
0.000305 0.003801 0
0.000000 0.001900 0
0.000000 -0.001485 0
0.000346 -0.003744 0
0.000894 -0.004165 0
0.001374 -0.003074 0
0.001684 -0.001622 0
0.001822 -0.000394 0
0.001830 0.000397 0
0.001765 0.000758 0
0.001673 0.000796 0
0.001584 0.000650 0
0.001511 0.000438 0
0.001452 0.000245 0
0.001403 0.000112 0
0.001357 0.000045 0
0.001308 0.000033 0
0.001254 0.000055 0
0.001195 0.000093 0
0.001133 0.000134 0
0.001069 0.000171 0
0.001003 0.000202 0
0.000936 0.000228 0
0.000868 0.000251 0
0.000798 0.000275 0
0.000725 0.000301 0
0.000650 0.000330 0
0.000574 0.000363 0
0.000496 0.000402 0
0.000418 0.000450 0
0.000340 0.000514 0
0.000264 0.000604 0
0.000189 0.000731 0
0.000117 0.000903 0
0.000052 0.001106 0
0.000002 0.001280 0
-0.000022 0.001293 0
-0.000017 0.000942 0
0.000000 0.000323 0
0.000000 0.000000 0
0.000000 0.000000 0
0.000000 0.000000 0
0.000000 -0.000002 0
0.000001 -0.000005 0
0.000003 -0.000010 0
0.000005 -0.000014 0
0.000008 -0.000018 0
0.000011 -0.000022 0
0.000015 -0.000028 0
0.000021 -0.000034 0
0.000027 -0.000042 0
0.000036 -0.000052 0
0.000046 -0.000064 0
0.000058 -0.000077 0
0.000074 -0.000093 0
0.000093 -0.000111 0
0.000116 -0.000131 0
0.000144 -0.000151 0
0.000177 -0.000172 0
0.000214 -0.000192 0
0.000256 -0.000211 0
0.000302 -0.000227 0
0.000352 -0.000240 0
0.000404 -0.000250 0
0.000458 -0.000257 0
0.000514 -0.000262 0
0.000570 -0.000265 0
0.000626 -0.000267 0
0.000683 -0.000269 0
0.000741 -0.000271 0
0.000799 -0.000274 0
0.000858 -0.000278 0
0.000918 -0.000283 0
0.000979 -0.000288 0
0.001041 -0.000294 0
0.001105 -0.000301 0
0.001169 -0.000308 0
0.001234 -0.000316 0
0.001300 -0.000324 0
0.001367 -0.000332 0
0.001434 -0.000342 0
0.001502 -0.000353 0
0.001570 -0.000365 0
0.001639 -0.000378 0
0.001709 -0.000394 0
0.001778 -0.000411 0
0.001846 -0.000431 0
0.001914 -0.000453 0
0.001979 -0.000475 0
0.002039 -0.000496 0
0.002092 -0.000510 0
0.002131 -0.000509 0
0.002149 -0.000477 0
0.002131 -0.000384 0
0.002060 -0.000183 0
0.001911 0.000207 0
0.001656 0.000905 0
0.001273 0.002044 0
0.000770 0.003542 0
0.000256 0.004211 0
0.000000 0.002039 0
0.000000 -0.001648 0
0.000304 -0.004163 0
0.000781 -0.004643 0
0.001192 -0.003438 0
0.001450 -0.001826 0
0.001559 -0.000458 0
0.001559 0.000426 0
0.001498 0.000832 0
0.001417 0.000881 0
0.001337 0.000727 0
0.001268 0.000503 0
0.001208 0.000301 0
0.001152 0.000164 0
0.001094 0.000100 0
0.001031 0.000092 0
0.000963 0.000119 0
0.000892 0.000160 0
0.000820 0.000203 0
0.000747 0.000240 0
0.000675 0.000271 0
0.000604 0.000298 0
0.000532 0.000323 0
0.000459 0.000348 0
0.000386 0.000375 0
0.000313 0.000405 0
0.000241 0.000438 0
0.000171 0.000476 0
0.000105 0.000522 0
0.000044 0.000582 0
-0.000011 0.000667 0
-0.000057 0.000787 0
-0.000093 0.000950 0
-0.000113 0.001137 0
-0.000111 0.001287 0
-0.000082 0.001275 0
-0.000035 0.000912 0
0.000000 0.000309 0
0.000000 0.000000 0
0.000000 0.000000 0
0.000000 0.000000 0
0.000000 -0.000002 0
0.000001 -0.000006 0
0.000002 -0.000012 0
0.000004 -0.000016 0
0.000006 -0.000021 0
0.000009 -0.000026 0
0.000013 -0.000032 0
0.000017 -0.000040 0
0.000023 -0.000049 0
0.000030 -0.000061 0
0.000039 -0.000074 0
0.000050 -0.000091 0
0.000063 -0.000110 0
0.000081 -0.000132 0
0.000102 -0.000155 0
0.000128 -0.000181 0
0.000158 -0.000206 0
0.000194 -0.000231 0
0.000235 -0.000255 0
0.000281 -0.000275 0
0.000330 -0.000291 0
0.000383 -0.000304 0
0.000437 -0.000312 0
0.000493 -0.000318 0
0.000549 -0.000322 0
0.000606 -0.000324 0
0.000663 -0.000327 0
0.000721 -0.000330 0
0.000780 -0.000334 0
0.000840 -0.000338 0
0.000900 -0.000344 0
0.000961 -0.000350 0
0.001024 -0.000357 0
0.001087 -0.000365 0
0.001151 -0.000373 0
0.001215 -0.000381 0
0.001280 -0.000390 0
0.001345 -0.000399 0
0.001411 -0.000409 0
0.001476 -0.000420 0
0.001541 -0.000432 0
0.001605 -0.000445 0
0.001669 -0.000460 0
0.001732 -0.000477 0
0.001793 -0.000495 0
0.001852 -0.000514 0
0.001907 -0.000532 0
0.001956 -0.000546 0
0.001997 -0.000549 0
0.002023 -0.000530 0
0.002027 -0.000468 0
0.001997 -0.000331 0
0.001915 -0.000066 0
0.001760 0.000413 0
0.001508 0.001221 0
0.001142 0.002475 0
0.000677 0.004027 0
0.000218 0.004571 0
0.000000 0.002156 0
0.000000 -0.001790 0
0.000266 -0.004526 0
0.000676 -0.005053 0
0.001021 -0.003743 0
0.001231 -0.001990 0
0.001313 -0.000503 0
0.001304 0.000458 0
0.001246 0.000900 0
0.001173 0.000957 0
0.001100 0.000798 0
0.001034 0.000567 0
0.000972 0.000362 0
0.000908 0.000226 0
0.000840 0.000166 0
0.000767 0.000163 0
0.000690 0.000193 0
0.000611 0.000236 0
0.000533 0.000279 0
0.000457 0.000315 0
0.000383 0.000345 0
0.000310 0.000371 0
0.000239 0.000395 0
0.000168 0.000420 0
0.000099 0.000446 0
0.000032 0.000475 0
-0.000032 0.000505 0
-0.000091 0.000538 0
-0.000143 0.000577 0
-0.000186 0.000629 0
-0.000219 0.000704 0
-0.000239 0.000813 0
-0.000243 0.000959 0
-0.000226 0.001124 0
-0.000185 0.001249 0
-0.000119 0.001216 0
-0.000045 0.000859 0
0.000000 0.000288 0
0.000000 0.000000 0
0.000000 0.000000 0
0.000000 0.000000 0
0.000000 -0.000002 0
0.000001 -0.000007 0
0.000002 -0.000013 0
0.000003 -0.000018 0
0.000005 -0.000023 0
0.000007 -0.000029 0
0.000010 -0.000036 0
0.000013 -0.000044 0
0.000017 -0.000055 0
0.000022 -0.000067 0
0.000029 -0.000083 0
0.000037 -0.000102 0
0.000048 -0.000124 0
0.000062 -0.000149 0
0.000080 -0.000177 0
0.000102 -0.000207 0
0.000129 -0.000238 0
0.000161 -0.000269 0
0.000199 -0.000297 0
0.000242 -0.000322 0
0.000290 -0.000342 0
0.000341 -0.000357 0
0.000394 -0.000367 0
0.000449 -0.000374 0
0.000505 -0.000378 0
0.000561 -0.000381 0
0.000618 -0.000384 0
0.000675 -0.000388 0
0.000734 -0.000393 0
0.000793 -0.000398 0
0.000853 -0.000405 0
0.000913 -0.000412 0
0.000974 -0.000420 0
0.001036 -0.000428 0
0.001098 -0.000436 0
0.001160 -0.000445 0
0.001222 -0.000454 0
0.001284 -0.000463 0