# vtk DataFile Version 2.0
generated by CFD-lab course output (written by Tobias Neckel) 
ASCII

DATASET STRUCTURED_GRID
DIMENSIONS  99 49 1 
POINTS 4851 float

0.000000 0.000000 0
0.020000 0.000000 0
0.040000 0.000000 0
0.060000 0.000000 0
0.080000 0.000000 0
0.100000 0.000000 0
0.120000 0.000000 0
0.140000 0.000000 0
0.160000 0.000000 0
0.180000 0.000000 0
0.200000 0.000000 0
0.220000 0.000000 0
0.240000 0.000000 0
0.260000 0.000000 0
0.280000 0.000000 0
0.300000 0.000000 0
0.320000 0.000000 0
0.340000 0.000000 0
0.360000 0.000000 0
0.380000 0.000000 0
0.400000 0.000000 0
0.420000 0.000000 0
0.440000 0.000000 0
0.460000 0.000000 0
0.480000 0.000000 0
0.500000 0.000000 0
0.520000 0.000000 0
0.540000 0.000000 0
0.560000 0.000000 0
0.580000 0.000000 0
0.600000 0.000000 0
0.620000 0.000000 0
0.640000 0.000000 0
0.660000 0.000000 0
0.680000 0.000000 0
0.700000 0.000000 0
0.720000 0.000000 0
0.740000 0.000000 0
0.760000 0.000000 0
0.780000 0.000000 0
0.800000 0.000000 0
0.820000 0.000000 0
0.840000 0.000000 0
0.860000 0.000000 0
0.880000 0.000000 0
0.900000 0.000000 0
0.920000 0.000000 0
0.940000 0.000000 0
0.960000 0.000000 0
0.980000 0.000000 0
1.000000 0.000000 0
1.020000 0.000000 0
1.040000 0.000000 0
1.060000 0.000000 0
1.080000 0.000000 0
1.100000 0.000000 0
1.120000 0.000000 0
1.140000 0.000000 0
1.160000 0.000000 0
1.180000 0.000000 0
1.200000 0.000000 0
1.220000 0.000000 0
1.240000 0.000000 0
1.260000 0.000000 0
1.280000 0.000000 0
1.300000 0.000000 0
1.320000 0.000000 0
1.340000 0.000000 0
1.360000 0.000000 0
1.380000 0.000000 0
1.400000 0.000000 0
1.420000 0.000000 0
1.440000 0.000000 0
1.460000 0.000000 0
1.480000 0.000000 0
1.500000 0.000000 0
1.520000 0.000000 0
1.540000 0.000000 0
1.560000 0.000000 0
1.580000 0.000000 0
1.600000 0.000000 0
1.620000 0.000000 0
1.640000 0.000000 0
1.660000 0.000000 0
1.680000 0.000000 0
1.700000 0.000000 0
1.720000 0.000000 0
1.740000 0.000000 0
1.760000 0.000000 0
1.780000 0.000000 0
1.800000 0.000000 0
1.820000 0.000000 0
1.840000 0.000000 0
1.860000 0.000000 0
1.880000 0.000000 0
1.900000 0.000000 0
1.920000 0.000000 0
1.940000 0.000000 0
1.960000 0.000000 0
0.000000 0.020000 0
0.020000 0.020000 0
0.040000 0.020000 0
0.060000 0.020000 0
0.080000 0.020000 0
0.100000 0.020000 0
0.120000 0.020000 0
0.140000 0.020000 0
0.160000 0.020000 0
0.180000 0.020000 0
0.200000 0.020000 0
0.220000 0.020000 0
0.240000 0.020000 0
0.260000 0.020000 0
0.280000 0.020000 0
0.300000 0.020000 0
0.320000 0.020000 0
0.340000 0.020000 0
0.360000 0.020000 0
0.380000 0.020000 0
0.400000 0.020000 0
0.420000 0.020000 0
0.440000 0.020000 0
0.460000 0.020000 0
0.480000 0.020000 0
0.500000 0.020000 0
0.520000 0.020000 0
0.540000 0.020000 0
0.560000 0.020000 0
0.580000 0.020000 0
0.600000 0.020000 0
0.620000 0.020000 0
0.640000 0.020000 0
0.660000 0.020000 0
0.680000 0.020000 0
0.700000 0.020000 0
0.720000 0.020000 0
0.740000 0.020000 0
0.760000 0.020000 0
0.780000 0.020000 0
0.800000 0.020000 0
0.820000 0.020000 0
0.840000 0.020000 0
0.860000 0.020000 0
0.880000 0.020000 0
0.900000 0.020000 0
0.920000 0.020000 0
0.940000 0.020000 0
0.960000 0.020000 0
0.980000 0.020000 0
1.000000 0.020000 0
1.020000 0.020000 0
1.040000 0.020000 0
1.060000 0.020000 0
1.080000 0.020000 0
1.100000 0.020000 0
1.120000 0.020000 0
1.140000 0.020000 0
1.160000 0.020000 0
1.180000 0.020000 0
1.200000 0.020000 0
1.220000 0.020000 0
1.240000 0.020000 0
1.260000 0.020000 0
1.280000 0.020000 0
1.300000 0.020000 0
1.320000 0.020000 0
1.340000 0.020000 0
1.360000 0.020000 0
1.380000 0.020000 0
1.400000 0.020000 0
1.420000 0.020000 0
1.440000 0.020000 0
1.460000 0.020000 0
1.480000 0.020000 0
1.500000 0.020000 0
1.520000 0.020000 0
1.540000 0.020000 0
1.560000 0.020000 0
1.580000 0.020000 0
1.600000 0.020000 0
1.620000 0.020000 0
1.640000 0.020000 0
1.660000 0.020000 0
1.680000 0.020000 0
1.700000 0.020000 0
1.720000 0.020000 0
1.740000 0.020000 0
1.760000 0.020000 0
1.780000 0.020000 0
1.800000 0.020000 0
1.820000 0.020000 0
1.840000 0.020000 0
1.860000 0.020000 0
1.880000 0.020000 0
1.900000 0.020000 0
1.920000 0.020000 0
1.940000 0.020000 0
1.960000 0.020000 0
0.000000 0.040000 0
0.020000 0.040000 0
0.040000 0.040000 0
0.060000 0.040000 0
0.080000 0.040000 0
0.100000 0.040000 0
0.120000 0.040000 0
0.140000 0.040000 0
0.160000 0.040000 0
0.180000 0.040000 0
0.200000 0.040000 0
0.220000 0.040000 0
0.240000 0.040000 0
0.260000 0.040000 0
0.280000 0.040000 0
0.300000 0.040000 0
0.320000 0.040000 0
0.340000 0.040000 0
0.360000 0.040000 0
0.380000 0.040000 0
0.400000 0.040000 0
0.420000 0.040000 0
0.440000 0.040000 0
0.460000 0.040000 0
0.480000 0.040000 0
0.500000 0.040000 0
0.520000 0.040000 0
0.540000 0.040000 0
0.560000 0.040000 0
0.580000 0.040000 0
0.600000 0.040000 0
0.620000 0.040000 0
0.640000 0.040000 0
0.660000 0.040000 0
0.680000 0.040000 0
0.700000 0.040000 0
0.720000 0.040000 0
0.740000 0.040000 0
0.760000 0.040000 0
0.780000 0.040000 0
0.800000 0.040000 0
0.820000 0.040000 0
0.840000 0.040000 0
0.860000 0.040000 0
0.880000 0.040000 0
0.900000 0.040000 0
0.920000 0.040000 0
0.940000 0.040000 0
0.960000 0.040000 0
0.980000 0.040000 0
1.000000 0.040000 0
1.020000 0.040000 0
1.040000 0.040000 0
1.060000 0.040000 0
1.080000 0.040000 0
1.100000 0.040000 0
1.120000 0.040000 0
1.140000 0.040000 0
1.160000 0.040000 0
1.180000 0.040000 0
1.200000 0.040000 0
1.220000 0.040000 0
1.240000 0.040000 0
1.260000 0.040000 0
1.280000 0.040000 0
1.300000 0.040000 0
1.320000 0.040000 0
1.340000 0.040000 0
1.360000 0.040000 0
1.380000 0.040000 0
1.400000 0.040000 0
1.420000 0.040000 0
1.440000 0.040000 0
1.460000 0.040000 0
1.480000 0.040000 0
1.500000 0.040000 0
1.520000 0.040000 0
1.540000 0.040000 0
1.560000 0.040000 0
1.580000 0.040000 0
1.600000 0.040000 0
1.620000 0.040000 0
1.640000 0.040000 0
1.660000 0.040000 0
1.680000 0.040000 0
1.700000 0.040000 0
1.720000 0.040000 0
1.740000 0.040000 0
1.760000 0.040000 0
1.780000 0.040000 0
1.800000 0.040000 0
1.820000 0.040000 0
1.840000 0.040000 0
1.860000 0.040000 0
1.880000 0.040000 0
1.900000 0.040000 0
1.920000 0.040000 0
1.940000 0.040000 0
1.960000 0.040000 0
0.000000 0.060000 0
0.020000 0.060000 0
0.040000 0.060000 0
0.060000 0.060000 0
0.080000 0.060000 0
0.100000 0.060000 0
0.120000 0.060000 0
0.140000 0.060000 0
0.160000 0.060000 0
0.180000 0.060000 0
0.200000 0.060000 0
0.220000 0.060000 0
0.240000 0.060000 0
0.260000 0.060000 0
0.280000 0.060000 0
0.300000 0.060000 0
0.320000 0.060000 0
0.340000 0.060000 0
0.360000 0.060000 0
0.380000 0.060000 0
0.400000 0.060000 0
0.420000 0.060000 0
0.440000 0.060000 0
0.460000 0.060000 0
0.480000 0.060000 0
0.500000 0.060000 0
0.520000 0.060000 0
0.540000 0.060000 0
0.560000 0.060000 0
0.580000 0.060000 0
0.600000 0.060000 0
0.620000 0.060000 0
0.640000 0.060000 0
0.660000 0.060000 0
0.680000 0.060000 0
0.700000 0.060000 0
0.720000 0.060000 0
0.740000 0.060000 0
0.760000 0.060000 0
0.780000 0.060000 0
0.800000 0.060000 0
0.820000 0.060000 0
0.840000 0.060000 0
0.860000 0.060000 0
0.880000 0.060000 0
0.900000 0.060000 0
0.920000 0.060000 0
0.940000 0.060000 0
0.960000 0.060000 0
0.980000 0.060000 0
1.000000 0.060000 0
1.020000 0.060000 0
1.040000 0.060000 0
1.060000 0.060000 0
1.080000 0.060000 0
1.100000 0.060000 0
1.120000 0.060000 0
1.140000 0.060000 0
1.160000 0.060000 0
1.180000 0.060000 0
1.200000 0.060000 0
1.220000 0.060000 0
1.240000 0.060000 0
1.260000 0.060000 0
1.280000 0.060000 0
1.300000 0.060000 0
1.320000 0.060000 0
1.340000 0.060000 0
1.360000 0.060000 0
1.380000 0.060000 0
1.400000 0.060000 0
1.420000 0.060000 0
1.440000 0.060000 0
1.460000 0.060000 0
1.480000 0.060000 0
1.500000 0.060000 0
1.520000 0.060000 0
1.540000 0.060000 0
1.560000 0.060000 0
1.580000 0.060000 0
1.600000 0.060000 0
1.620000 0.060000 0
1.640000 0.060000 0
1.660000 0.060000 0
1.680000 0.060000 0
1.700000 0.060000 0
1.720000 0.060000 0
1.740000 0.060000 0
1.760000 0.060000 0
1.780000 0.060000 0
1.800000 0.060000 0
1.820000 0.060000 0
1.840000 0.060000 0
1.860000 0.060000 0
1.880000 0.060000 0
1.900000 0.060000 0
1.920000 0.060000 0
1.940000 0.060000 0
1.960000 0.060000 0
0.000000 0.080000 0
0.020000 0.080000 0
0.040000 0.080000 0
0.060000 0.080000 0
0.080000 0.080000 0
0.100000 0.080000 0
0.120000 0.080000 0
0.140000 0.080000 0
0.160000 0.080000 0
0.180000 0.080000 0
0.200000 0.080000 0
0.220000 0.080000 0
0.240000 0.080000 0
0.260000 0.080000 0
0.280000 0.080000 0
0.300000 0.080000 0
0.320000 0.080000 0
0.340000 0.080000 0
0.360000 0.080000 0
0.380000 0.080000 0
0.400000 0.080000 0
0.420000 0.080000 0
0.440000 0.080000 0
0.460000 0.080000 0
0.480000 0.080000 0
0.500000 0.080000 0
0.520000 0.080000 0
0.540000 0.080000 0
0.560000 0.080000 0
0.580000 0.080000 0
0.600000 0.080000 0
0.620000 0.080000 0
0.640000 0.080000 0
0.660000 0.080000 0
0.680000 0.080000 0
0.700000 0.080000 0
0.720000 0.080000 0
0.740000 0.080000 0
0.760000 0.080000 0
0.780000 0.080000 0
0.800000 0.080000 0
0.820000 0.080000 0
0.840000 0.080000 0
0.860000 0.080000 0
0.880000 0.080000 0
0.900000 0.080000 0
0.920000 0.080000 0
0.940000 0.080000 0
0.960000 0.080000 0
0.980000 0.080000 0
1.000000 0.080000 0
1.020000 0.080000 0
1.040000 0.080000 0
1.060000 0.080000 0
1.080000 0.080000 0
1.100000 0.080000 0
1.120000 0.080000 0
1.140000 0.080000 0
1.160000 0.080000 0
1.180000 0.080000 0
1.200000 0.080000 0
1.220000 0.080000 0
1.240000 0.080000 0
1.260000 0.080000 0
1.280000 0.080000 0
1.300000 0.080000 0
1.320000 0.080000 0
1.340000 0.080000 0
1.360000 0.080000 0
1.380000 0.080000 0
1.400000 0.080000 0
1.420000 0.080000 0
1.440000 0.080000 0
1.460000 0.080000 0
1.480000 0.080000 0
1.500000 0.080000 0
1.520000 0.080000 0
1.540000 0.080000 0
1.560000 0.080000 0
1.580000 0.080000 0
1.600000 0.080000 0
1.620000 0.080000 0
1.640000 0.080000 0
1.660000 0.080000 0
1.680000 0.080000 0
1.700000 0.080000 0
1.720000 0.080000 0
1.740000 0.080000 0
1.760000 0.080000 0
1.780000 0.080000 0
1.800000 0.080000 0
1.820000 0.080000 0
1.840000 0.080000 0
1.860000 0.080000 0
1.880000 0.080000 0
[...]
POINT_DATA 4851 

VECTORS velocity float
0.000000 0.000000 0
0.000252 0.000000 0
0.000646 0.000000 0
0.000978 0.000000 0
0.001171 0.000000 0
0.001223 0.000000 0
0.001168 0.000000 0
0.001047 0.000000 0
0.000894 0.000000 0
0.000737 0.000000 0
0.000594 0.000000 0
0.000475 0.000000 0
0.000384 0.000000 0
0.000322 0.000000 0
0.000285 0.000000 0
0.000271 0.000000 0
0.000273 0.000000 0
0.000287 0.000000 0
0.000309 0.000000 0
0.000333 0.000000 0
0.000357 0.000000 0
0.000379 0.000000 0
0.000398 0.000000 0
0.000413 0.000000 0
0.000424 0.000000 0
0.000432 0.000000 0
0.000439 0.000000 0
0.000444 0.000000 0
0.000450 0.000000 0
0.000459 0.000000 0
0.000471 0.000000 0
0.000482 0.000000 0
0.000479 0.000000 0
0.000434 0.000000 0
0.000315 0.000000 0
0.000132 0.000000 0
0.000000 0.000000 0
0.000000 0.000000 0
0.000000 0.000000 0
0.000000 0.000000 0
0.000000 0.000000 0
0.000000 0.000000 0
0.000000 0.000000 0
-0.000000 0.000000 0
-0.000000 0.000000 0
-0.000001 0.000000 0
-0.000001 0.000000 0
-0.000002 0.000000 0
-0.000002 0.000000 0
-0.000003 0.000000 0
-0.000003 0.000000 0
-0.000004 0.000000 0
-0.000005 0.000000 0
-0.000005 0.000000 0
-0.000006 0.000000 0
-0.000007 0.000000 0
-0.000008 0.000000 0
-0.000008 0.000000 0
-0.000009 0.000000 0
-0.000009 0.000000 0
-0.000009 0.000000 0
-0.000008 0.000000 0
-0.000007 0.000000 0
-0.000006 0.000000 0
-0.000004 0.000000 0
-0.000002 0.000000 0
0.000001 0.000000 0
0.000005 0.000000 0
0.000009 0.000000 0
0.000014 0.000000 0
0.000019 0.000000 0
0.000025 0.000000 0
0.000031 0.000000 0
0.000037 0.000000 0
0.000044 0.000000 0
0.000050 0.000000 0
0.000057 0.000000 0
0.000065 0.000000 0
0.000072 0.000000 0
0.000079 0.000000 0
0.000087 0.000000 0
0.000095 0.000000 0
0.000103 0.000000 0
0.000112 0.000000 0
0.000122 0.000000 0
0.000133 0.000000 0
0.000146 0.000000 0
0.000160 0.000000 0
0.000178 0.000000 0
0.000199 0.000000 0
0.000227 0.000000 0
0.000262 0.000000 0
0.000308 0.000000 0
0.000370 0.000000 0
0.000450 0.000000 0
0.000542 0.000000 0
0.000596 0.000000 0
0.000456 0.000000 0
0.000000 0.000000 0
0.000000 -0.000252 0
0.000684 -0.000647 0
0.001773 -0.000727 0
0.002749 -0.000526 0
0.003396 -0.000245 0
0.003674 0.000002 0
0.003639 0.000174 0
0.003384 0.000273 0
0.003000 0.000309 0
0.002564 0.000300 0
0.002138 0.000262 0
0.001760 0.000209 0
0.001453 0.000152 0
0.001226 0.000098 0
0.001077 0.000050 0
0.000996 0.000011 0
0.000972 -0.000018 0
0.000988 -0.000036 0
0.001031 -0.000047 0
0.001089 -0.000049 0
0.001150 -0.000047 0
0.001207 -0.000041 0
0.001256 -0.000034 0
0.001294 -0.000027 0
0.001322 -0.000021 0
0.001341 -0.000016 0
0.001353 -0.000013 0
0.001360 -0.000012 0
0.001367 -0.000016 0
0.001376 -0.000022 0
0.001384 -0.000024 0
0.001379 -0.000009 0
0.001324 0.000047 0
0.001156 0.000163 0
0.000814 0.000301 0
0.000338 0.000315 0
0.000000 0.000132 0
0.000000 0.000000 0
0.000000 0.000000 0
0.000000 0.000000 0
0.000000 0.000000 0
0.000000 0.000000 0
-0.000000 0.000001 0
-0.000001 0.000001 0
-0.000002 0.000001 0
-0.000003 0.000001 0
-0.000004 0.000001 0
-0.000006 0.000001 0
-0.000008 0.000001 0
-0.000010 0.000001 0
-0.000012 0.000002 0
-0.000014 0.000002 0
-0.000016 0.000002 0
-0.000019 0.000002 0
-0.000021 0.000002 0
-0.000023 0.000002 0
-0.000025 0.000002 0
-0.000027 0.000001 0
-0.000028 0.000001 0
-0.000028 0.000000 0
-0.000027 -0.000000 0
-0.000025 -0.000001 0
-0.000021 -0.000002 0
-0.000015 -0.000003 0
-0.000007 -0.000004 0
0.000002 -0.000005 0
0.000014 -0.000006 0
0.000028 -0.000008 0
0.000044 -0.000009 0
0.000061 -0.000010 0
0.000081 -0.000011 0
0.000102 -0.000011 0
0.000124 -0.000012 0
0.000147 -0.000013 0
0.000172 -0.000013 0
0.000196 -0.000013 0
0.000222 -0.000014 0
0.000248 -0.000014 0
0.000275 -0.000014 0
0.000302 -0.000015 0
0.000330 -0.000015 0
0.000359 -0.000016 0
0.000389 -0.000017 0
0.000422 -0.000019 0
0.000457 -0.000021 0
0.000496 -0.000023 0
0.000539 -0.000027 0
0.000589 -0.000032 0
0.000648 -0.000039 0
0.000717 -0.000049 0
0.000801 -0.000062 0
0.000903 -0.000081 0
0.001026 -0.000108 0
0.001171 -0.000142 0
0.001327 -0.000172 0
0.001448 -0.000145 0
0.001398 0.000086 0
0.000913 0.000596 0
0.000000 0.000456 0
0.000000 -0.000685 0
0.000887 -0.001774 0
0.002346 -0.002066 0
0.003738 -0.001624 0
0.004772 -0.000925 0
0.005355 -0.000244 0
0.005506 0.000288 0
0.005314 0.000638 0
0.004888 0.000819 0
0.004332 0.000861 0
0.003737 0.000804 0
0.003170 0.000683 0
0.002679 0.000532 0
0.002288 0.000375 0
0.002005 0.000229 0
0.001824 0.000104 0
0.001730 0.000007 0
0.001705 -0.000061 0
0.001727 -0.000102 0
0.001778 -0.000119 0
0.001840 -0.000119 0
0.001903 -0.000107 0
0.001956 -0.000088 0
0.001995 -0.000068 0
0.002020 -0.000048 0
0.002030 -0.000032 0
0.002028 -0.000020 0
0.002017 -0.000015 0
0.002000 -0.000016 0
0.001976 -0.000018 0
0.001939 -0.000004 0
0.001870 0.000059 0
0.001724 0.000222 0
0.001439 0.000509 0
0.000971 0.000817 0
0.000391 0.000813 0
0.000000 0.000338 0
0.000000 0.000000 0
0.000000 0.000000 0
0.000000 0.000000 0
0.000000 0.000000 0
0.000000 0.000001 0
-0.000001 0.000001 0
-0.000002 0.000002 0
-0.000004 0.000003 0
-0.000006 0.000003 0
-0.000008 0.000003 0
-0.000011 0.000004 0
-0.000014 0.000004 0
-0.000017 0.000004 0
-0.000020 0.000005 0
-0.000024 0.000005 0
-0.000028 0.000005 0
-0.000032 0.000005 0
-0.000035 0.000005 0
-0.000039 0.000005 0
-0.000042 0.000004 0
-0.000044 0.000003 0
-0.000044 0.000001 0
-0.000043 -0.000001 0
-0.000040 -0.000003 0
-0.000035 -0.000006 0
-0.000027 -0.000009 0
-0.000015 -0.000013 0
0.000000 -0.000017 0
0.000019 -0.000021 0
0.000042 -0.000025 0
0.000068 -0.000029 0
0.000098 -0.000033 0
0.000131 -0.000037 0
0.000167 -0.000040 0
0.000206 -0.000043 0
0.000247 -0.000045 0
0.000289 -0.000047 0
0.000334 -0.000049 0
0.000379 -0.000050 0
0.000426 -0.000051 0
0.000474 -0.000052 0
0.000522 -0.000053 0
0.000572 -0.000055 0
0.000622 -0.000057 0
0.000674 -0.000059 0
0.000729 -0.000063 0
0.000787 -0.000067 0
0.000848 -0.000074 0
0.000915 -0.000082 0
0.000989 -0.000093 0
0.001071 -0.000108 0
0.001164 -0.000128 0
0.001270 -0.000153 0
0.001391 -0.000185 0
0.001526 -0.000225 0
0.001671 -0.000268 0
0.001810 -0.000301 0
0.001903 -0.000276 0
0.001864 -0.000070 0
0.001543 0.000535 0
0.000807 0.001398 0
0.000000 0.000913 0
0.000000 -0.001140 0
0.000874 -0.002994 0
0.002370 -0.003579 0
0.003856 -0.002952 0
0.005041 -0.001862 0
0.005814 -0.000732 0
0.006162 0.000215 0
0.006135 0.000890 0
0.005826 0.001290 0
0.005333 0.001450 0
0.004746 0.001423 0
0.004146 0.001266 0
0.003590 0.001034 0
0.003119 0.000771 0
0.002750 0.000514 0
0.002487 0.000286 0
0.002320 0.000102 0
0.002232 -0.000034 0
0.002202 -0.000120 0
0.002211 -0.000163 0
0.002240 -0.000172 0
0.002273 -0.000157 0
0.002299 -0.000127 0
0.002312 -0.000092 0
0.002309 -0.000056 0
0.002288 -0.000024 0
0.002253 0.000000 0
0.002204 0.000016 0
0.002144 0.000025 0
0.002070 0.000038 0
0.001975 0.000082 0
0.001839 0.000206 0
0.001629 0.000478 0
0.001299 0.000916 0
0.000834 0.001349 0
0.000315 0.001285 0
0.000000 0.000523 0
0.000000 0.000000 0
0.000000 0.000000 0
0.000000 0.000000 0
0.000000 0.000000 0
-0.000000 0.000001 0
-0.000001 0.000003 0
-0.000003 0.000004 0
-0.000005 0.000005 0
-0.000008 0.000006 0
-0.000011 0.000006 0
-0.000014 0.000007 0
-0.000018 0.000008 0
-0.000022 0.000008 0
-0.000026 0.000009 0
-0.000030 0.000009 0
-0.000035 0.000009 0
-0.000040 0.000009 0
-0.000044 0.000009 0
-0.000048 0.000008 0
-0.000051 0.000006 0
-0.000052 0.000004 0
-0.000052 0.000001 0
-0.000050 -0.000003 0
-0.000044 -0.000009 0
-0.000035 -0.000015 0
-0.000023 -0.000022 0
-0.000005 -0.000030 0
0.000017 -0.000038 0
0.000044 -0.000046 0
0.000076 -0.000055 0
0.000113 -0.000063 0
0.000155 -0.000071 0
0.000201 -0.000079 0
0.000251 -0.000085 0
0.000305 -0.000091 0
0.000362 -0.000096 0
0.000421 -0.000100 0
0.000482 -0.000103 0
0.000545 -0.000106 0
0.000608 -0.000108 0
0.000673 -0.000110 0
0.000739 -0.000112 0
0.000806 -0.000115 0
0.000874 -0.000118 0
0.000944 -0.000123 0
0.001016 -0.000129 0
0.001091 -0.000138 0
0.001171 -0.000149 0
0.001255 -0.000164 0
0.001346 -0.000183 0
0.001444 -0.000207 0
0.001551 -0.000238 0
0.001667 -0.000275 0
0.001789 -0.000318 0
0.001912 -0.000361 0
0.002021 -0.000391 0
0.002090 -0.000373 0
0.002067 -0.000227 0
0.001864 0.000214 0
0.001378 0.001144 0
0.000613 0.002139 0
0.000000 0.001263 0
0.000000 -0.001560 0
0.000792 -0.004145 0
0.002177 -0.005049 0
0.003584 -0.004295 0
0.004753 -0.002883 0
0.005588 -0.001365 0
0.006065 -0.000033 0
0.006201 0.000973 0
0.006055 0.001621 0
0.005704 0.001941 0
0.005226 0.001990 0
0.004693 0.001839 0
0.004166 0.001559 0
0.003690 0.001215 0
0.003292 0.000860 0
0.002982 0.000534 0
0.002760 0.000262 0
0.002613 0.000056 0
0.002525 -0.000082 0
0.002479 -0.000157 0
0.002456 -0.000181 0
0.002442 -0.000167 0
0.002423 -0.000128 0
0.002393 -0.000078 0
0.002347 -0.000025 0
0.002283 0.000024 0
0.002203 0.000064 0
0.002109 0.000093 0
0.002000 0.000118 0
0.001875 0.000151 0
0.001729 0.000226 0
0.001549 0.000404 0
0.001311 0.000762 0
0.000993 0.001304 0
0.000596 0.001801 0
0.000205 0.001646 0
0.000000 0.000653 0
0.000000 0.000000 0
0.000000 0.000000 0
0.000000 0.000000 0
0.000000 0.000001 0
-0.000000 0.000002 0
-0.000001 0.000004 0
-0.000003 0.000006 0
-0.000006 0.000007 0
-0.000009 0.000009 0
-0.000012 0.000010 0
-0.000016 0.000011 0
-0.000020 0.000012 0
-0.000024 0.000013 0
-0.000029 0.000014 0
-0.000034 0.000014 0
-0.000038 0.000014 0
-0.000043 0.000014 0
-0.000048 0.000013 0
-0.000051 0.000011 0
-0.000054 0.000009 0
-0.000055 0.000005 0
-0.000054 -0.000001 0
-0.000049 -0.000008 0
-0.000042 -0.000017 0
-0.000030 -0.000027 0
-0.000013 -0.000039 0
0.000009 -0.000052 0
0.000038 -0.000066 0
0.000072 -0.000080 0
0.000112 -0.000094 0
0.000159 -0.000108 0
0.000211 -0.000121 0
0.000269 -0.000133 0
0.000331 -0.000144 0
0.000397 -0.000153 0
0.000467 -0.000161 0
0.000539 -0.000167 0
0.000614 -0.000172 0
0.000690 -0.000176 0
0.000767 -0.000180 0
0.000846 -0.000183 0
0.000925 -0.000186 0
0.001005 -0.000190 0
0.001086 -0.000195 0
0.001168 -0.000201 0
0.001252 -0.000210 0
0.001339 -0.000222 0
0.001428 -0.000237 0
0.001521 -0.000257 0
0.001618 -0.000282 0
0.001720 -0.000313 0
0.001825 -0.000350 0
0.001931 -0.000390 0
0.002034 -0.000430 0
0.002122 -0.000457 0
0.002177 -0.000447 0
0.002167 -0.000346 0
0.002041 -0.000049 0
0.001730 0.000618 0
0.001182 0.001785 0
0.000469 0.002776 0
0.000000 0.001527 0
0.000000 -0.001932 0
0.000696 -0.005172 0
0.001911 -0.006371 0
0.003151 -0.005529 0
0.004206 -0.003867 0
0.005006 -0.002043 0
0.005534 -0.000398 0
0.005790 0.000899 0
0.005800 0.001787 0
0.005612 0.002280 0
0.005284 0.002434 0
0.004873 0.002325 0
0.004434 0.002036 0
0.004009 0.001645 0
0.003628 0.001222 0
0.003309 0.000818 0
0.003057 0.000470 0
0.002867 0.000200 0
0.002729 0.000014 0
0.002628 -0.000094 0
0.002551 -0.000135 0
0.002483 -0.000124 0
0.002413 -0.000079 0
0.002334 -0.000016 0
0.002241 0.000054 0
0.002131 0.000119 0
0.002006 0.000175 0
0.001867 0.000219 0
0.001716 0.000258 0
0.001551 0.000308 0
0.001373 0.000408 0
0.001172 0.000623 0
0.000938 0.001034 0
0.000661 0.001631 0
0.000360 0.002136 0
0.000104 0.001881 0
0.000000 0.000727 0
0.000000 0.000000 0
0.000000 0.000000 0
0.000000 0.000000 0
0.000000 0.000001 0
-0.000000 0.000003 0
-0.000002 0.000006 0
-0.000004 0.000008 0
-0.000006 0.000010 0
-0.000009 0.000012 0
-0.000012 0.000014 0
-0.000016 0.000015 0
-0.000020 0.000016 0
-0.000025 0.000017 0
-0.000029 0.000018 0
-0.000034 0.000019 0
-0.000039 0.000019 0
-0.000043 0.000019 0
-0.000047 0.000017 0
-0.000051 0.000014 0
-0.000053 0.000010 0
-0.000053 0.000004 0
-0.000051 -0.000004 0
-0.000045 -0.000015 0
-0.000036 -0.000028 0
-0.000021 -0.000043 0
-0.000001 -0.000061 0
0.000026 -0.000080 0
0.000059 -0.000100 0
0.000100 -0.000121 0
0.000148 -0.000142 0
0.000202 -0.000162 0
0.000264 -0.000181 0
0.000331 -0.000198 0
0.000403 -0.000214 0
0.000480 -0.000227 0
0.000560 -0.000238 0
0.000643 -0.000247 0
0.000729 -0.000254 0
0.000815 -0.000259 0
0.000903 -0.000264 0
0.000992 -0.000267 0
0.001081 -0.000271 0
0.001170 -0.000276 0
0.001260 -0.000281 0
0.001350 -0.000289 0
0.001441 -0.000299 0
0.001533 -0.000313 0
0.001626 -0.000331 0
0.001721 -0.000354 0
0.001817 -0.000382 0
0.001912 -0.000414 0
0.002006 -0.000450 0
0.002094 -0.000484 0
0.002168 -0.000509 0
0.002216 -0.000504 0
0.002216 -0.000436 0
0.002139 -0.000237 0
0.001941 0.000210 0
0.001573 0.001073 0
0.001017 0.002405 0
0.000373 0.003322 0
0.000000 0.001732 0
0.000000 -0.002256 0
0.000599 -0.006057 0
0.001625 -0.007504 0
0.002663 -0.006591 0
0.003555 -0.004739 0
0.004262 -0.002694 0
0.004783 -0.000817 0
0.005110 0.000707 0
0.005245 0.001799 0
0.005209 0.002457 0
0.005037 0.002729 0
0.004769 0.002688 0
0.004447 0.002423 0
0.004106 0.002020 0
0.003776 0.001560 0
0.003478 0.001105 0
0.003221 0.000704 0
0.003006 0.000384 0
0.002830 0.000157 0
0.002684 0.000021 0
0.002557 -0.000036 0
0.002439 -0.000030 0
0.002321 0.000020 0
0.002196 0.000095 0
0.002060 0.000178 0
0.001910 0.000258 0
0.001748 0.000327 0
0.001575 0.000384 0
0.001394 0.000433 0
0.001206 0.000494 0
0.001014 0.000605 0
0.000813 0.000839 0
0.000601 0.001272 0
0.000378 0.001882 0
0.000170 0.002358 0
0.000030 0.002006 0
0.000000 0.000757 0
0.000000 0.000000 0
0.000000 0.000000 0
0.000000 0.000000 0
0.000000 0.000001 0
-0.000000 0.000004 0
-0.000002 0.000008 0
-0.000003 0.000011 0
-0.000006 0.000013 0
-0.000009 0.000015 0
-0.000012 0.000017 0
-0.000015 0.000019 0
-0.000019 0.000020 0
-0.000023 0.000022 0
-0.000027 0.000023 0
-0.000032 0.000024 0
-0.000036 0.000024 0
-0.000040 0.000023 0
-0.000044 0.000021 0
-0.000047 0.000017 0
-0.000048 0.000011 0
-0.000048 0.000003 0
-0.000045 -0.000009 0
-0.000039 -0.000023 0
-0.000028 -0.000041 0
-0.000011 -0.000062 0
0.000012 -0.000086 0
0.000042 -0.000112 0
0.000080 -0.000140 0
0.000126 -0.000168 0
0.000180 -0.000197 0
0.000242 -0.000224 0
0.000310 -0.000249 0
0.000386 -0.000272 0
0.000466 -0.000293 0
0.000552 -0.000310 0
0.000641 -0.000324 0
0.000733 -0.000336 0
0.000827 -0.000345 0
0.000923 -0.000351 0
0.001019 -0.000356 0
0.001115 -0.000360 0
0.001211 -0.000364 0
0.001306 -0.000369 0
0.001401 -0.000374 0
0.001495 -0.000382 0
0.001589 -0.000393 0
0.001682 -0.000407 0
0.001774 -0.000425 0
0.001866 -0.000447 0
0.001955 -0.000474 0
0.002040 -0.000503 0
0.002118 -0.000531 0
0.002183 -0.000552 0
0.002227 -0.000551 0
0.002236 -0.000505 0
0.002191 -0.000370 0
0.002063 -0.000070 0
0.001819 0.000517 0
0.001428 0.001541 0
0.000888 0.002985 0
0.000309 0.003794 0
0.000000 0.001900 0
0.000000 -0.002532 0
0.000504 -0.006797 0
0.001341 -0.008436 0
0.002170 -0.007459 0
0.002883 -0.005466 0
0.003472 -0.003272 0
0.003947 -0.001245 0
0.004304 0.000437 0
0.004529 0.001686 0
0.004621 0.002487 0
0.004592 0.002874 0
0.004464 0.002916 0
0.004266 0.002699 0
0.004024 0.002315 0
0.003764 0.001849 0
0.003506 0.001373 0
0.003263 0.000942 0
0.003042 0.000590 0
0.002843 0.000336 0
0.002664 0.000179 0
0.002498 0.000109 0
0.002339 0.000111 0
0.002181 0.000164 0
0.002019 0.000246 0
0.001850 0.000339 0
0.001672 0.000430 0
0.001486 0.000509 0
0.001294 0.000573 0
0.001098 0.000627 0
0.000903 0.000689 0
0.000713 0.000800 0
0.000525 0.001036 0
0.000342 0.001469 0
0.000170 0.002062 0
0.000037 0.002485 0
-0.000017 0.002050 0
0.000000 0.000757 0
0.000000 0.000000 0
0.000000 0.000000 0
0.000000 0.000000 0
0.000000 0.000001 0
-0.000000 0.000005 0
-0.000001 0.000009 0
-0.000003 0.000013 0
-0.000005 0.000016 0
-0.000008 0.000018 0
-0.000010 0.000020 0
-0.000013 0.000022 0
-0.000017 0.000024 0
-0.000020 0.000026 0
-0.000024 0.000027 0
-0.000027 0.000028 0
-0.000031 0.000028 0
-0.000035 0.000027 0
-0.000038 0.000024 0
-0.000040 0.000019 0
-0.000042 0.000012 0
-0.000041 0.000001 0
-0.000038 -0.000014 0
-0.000031 -0.000032 0
-0.000019 -0.000056 0
-0.000001 -0.000083 0
0.000024 -0.000114 0
0.000057 -0.000148 0
0.000099 -0.000184 0
0.000149 -0.000221 0
0.000208 -0.000257 0
0.000276 -0.000292 0
0.000352 -0.000325 0
0.000434 -0.000354 0
0.000522 -0.000380 0
0.000615 -0.000401 0
0.000712 -0.000419 0
0.000812 -0.000433 0
0.000913 -0.000443 0
0.001014 -0.000450 0
0.001116 -0.000455 0
0.001217 -0.000459 0
0.001317 -0.000462 0
0.001416 -0.000466 0
0.001513 -0.000470 0
0.001609 -0.000477 0
0.001702 -0.000486 0
0.001793 -0.000499 0
0.001882 -0.000515 0
0.001966 -0.000534 0
0.002045 -0.000556 0
0.002117 -0.000577 0
0.002177 -0.000593 0
0.002220 -0.000593 0
0.002236 -0.000562 0
0.002212 -0.000468 0
0.002131 -0.000263 0
0.001969 0.000134 0
0.001700 0.000846 0
0.001303 0.002004 0
0.000788 0.003524 0
0.000263 0.004210 0
0.000000 0.002041 0
0.000000 -0.002760 0
0.000412 -0.007398 0
0.001069 -0.009171 0
0.001702 -0.008134 0
0.002244 -0.006041 0
0.002707 -0.003757 0
0.003116 -0.001649 0
0.003472 0.000124 0
0.003753 0.001482 0
0.003943 0.002394 0
0.004034 0.002885 0
0.004031 0.003015 0
0.003949 0.002863 0
0.003807 0.002521 0
0.003624 0.002077 0
0.003418 0.001606 0
0.003203 0.001168 0
0.002989 0.000804 0
0.002781 0.000535 0
0.002582 0.000366 0
0.002390 0.000289 0
0.002203 0.000287 0
0.002017 0.000339 0
0.001831 0.000425 0
0.001642 0.000525 0
0.001450 0.000622 0
0.001254 0.000706 0
0.001056 0.000772 0
0.000861 0.000823 0
0.000673 0.000879 0
0.000494 0.000983 0
0.000325 0.001209 0
0.000168 0.001627 0
0.000037 0.002186 0
-0.000041 0.002544 0
-0.000042 0.002043 0
0.000000 0.000740 0
0.000000 0.000000 0
0.000000 0.000000 0
0.000000 0.000000 0
0.000000 0.000002 0
-0.000000 0.000006 0
-0.000001 0.000011 0
-0.000002 0.000014 0
-0.000004 0.000018 0
-0.000006 0.000021 0
-0.000008 0.000023 0
-0.000011 0.000025 0
-0.000013 0.000027 0
-0.000016 0.000029 0
-0.000019 0.000030 0
-0.000022 0.000031 0
-0.000024 0.000031 0
-0.000027 0.000030 0
-0.000030 0.000027 0
-0.000032 0.000021 0
-0.000033 0.000012 0
-0.000032 -0.000001 0
-0.000029 -0.000019 0
-0.000022 -0.000042 0
-0.000010 -0.000071 0
0.000008 -0.000105 0
0.000035 -0.000144 0
0.000070 -0.000187 0
0.000114 -0.000232 0
0.000168 -0.000278 0
0.000233 -0.000324 0
0.000306 -0.000367 0
0.000388 -0.000407 0
0.000477 -0.000443 0
0.000572 -0.000474 0
0.000671 -0.000500 0
0.000775 -0.000520 0
0.000880 -0.000536 0
0.000986 -0.000547 0
0.001093 -0.000555 0
0.001199 -0.000559 0
0.001303 -0.000562 0
0.001406 -0.000563 0
0.001506 -0.000565 0
0.001603 -0.000567 0
0.001697 -0.000571 0
0.001788 -0.000577 0
0.001875 -0.000586 0
0.001957 -0.000597 0
0.002033 -0.000611 0
0.002101 -0.000625 0
0.002158 -0.000635 0
0.002200 -0.000634 0
0.002222 -0.000610 0
0.002214 -0.000544 0
0.002164 -0.000401 0
0.002057 -0.000127 0
0.001872 0.000361 0
0.001590 0.001183 0
0.001196 0.002454 0
0.000708 0.004025 0
0.000230 0.004582 0
0.000000 0.002163 0
0.000000 -0.002943 0
0.000325 -0.007867 0
0.000821 -0.009727 0
0.001279 -0.008633 0
0.001666 -0.006472 0
0.002013 -0.004144 0
0.002349 -0.002010 0
0.002680 -0.000201 0
0.002989 0.001215 0
0.003244 0.002207 0
0.003426 0.002786 0
0.003526 0.003001 0
0.003546 0.002923 0
0.003495 0.002640 0
0.003388 0.002238 0
0.003238 0.001794 0
0.003060 0.001371 0
0.002864 0.001012 0
0.002660 0.000743 0
0.002454 0.000570 0
0.002249 0.000489 0
0.002047 0.000483 0
0.001847 0.000535 0
0.001650 0.000620 0
0.001455 0.000721 0
0.001260 0.000819 0
0.001067 0.000902 0
0.000877 0.000965 0
0.000694 0.001010 0
0.000520 0.001056 0
0.000358 0.001148 0
0.000207 0.001361 0
0.000071 0.001757 0
-0.000035 0.002272 0
-0.000080 0.002563 0
-0.000051 0.002009 0
0.000000 0.000715 0
0.000000 0.000000 0
0.000000 0.000000 0
0.000000 0.000000 0
0.000000 0.000002 0
-0.000000 0.000006 0
-0.000001 0.000012 0
-0.000002 0.000016 0
-0.000003 0.000019 0
-0.000004 0.000022 0
-0.000006 0.000025 0
-0.000007 0.000027 0
-0.000009 0.000030 0
-0.000011 0.000031 0
-0.000013 0.000033 0
-0.000014 0.000034 0
-0.000016 0.000034 0
-0.000018 0.000032 0
-0.000020 0.000029 0
-0.000021 0.000022 0
-0.000022 0.000012 0
-0.000022 -0.000003 0
-0.000019 -0.000024 0
-0.000013 -0.000051 0
-0.000001 -0.000086 0
0.000017 -0.000127 0
0.000043 -0.000175 0
0.000080 -0.000227 0
0.000127 -0.000283 0
0.000185 -0.000339 0
0.000254 -0.000395 0
0.000332 -0.000447 0
0.000420 -0.000495 0
0.000515 -0.000538 0
0.000616 -0.000574 0
0.000722 -0.000604 0
0.000831 -0.000627 0
0.000941 -0.000644 0