# vtk DataFile Version 2.0
generated by CFD-lab course output (written by Tobias Neckel) 
ASCII

DATASET STRUCTURED_GRID
DIMENSIONS  99 49 1 
POINTS 4851 float

0.000000 0.000000 0
0.020000 0.000000 0
0.040000 0.000000 0
0.060000 0.000000 0
0.080000 0.000000 0
0.100000 0.000000 0
0.120000 0.000000 0
0.140000 0.000000 0
0.160000 0.000000 0
0.180000 0.000000 0
0.200000 0.000000 0
0.220000 0.000000 0
0.240000 0.000000 0
0.260000 0.000000 0
0.280000 0.000000 0
0.300000 0.000000 0
0.320000 0.000000 0
0.340000 0.000000 0
0.360000 0.000000 0
0.380000 0.000000 0
0.400000 0.000000 0
0.420000 0.000000 0
0.440000 0.000000 0
0.460000 0.000000 0
0.480000 0.000000 0
0.500000 0.000000 0
0.520000 0.000000 0
0.540000 0.000000 0
0.560000 0.000000 0
0.580000 0.000000 0
0.600000 0.000000 0
0.620000 0.000000 0
0.640000 0.000000 0
0.660000 0.000000 0
0.680000 0.000000 0
0.700000 0.000000 0
0.720000 0.000000 0
0.740000 0.000000 0
0.760000 0.000000 0
0.780000 0.000000 0
0.800000 0.000000 0
0.820000 0.000000 0
0.840000 0.000000 0
0.860000 0.000000 0
0.880000 0.000000 0
0.900000 0.000000 0
0.920000 0.000000 0
0.940000 0.000000 0
0.960000 0.000000 0
0.980000 0.000000 0
1.000000 0.000000 0
1.020000 0.000000 0
1.040000 0.000000 0
1.060000 0.000000 0
1.080000 0.000000 0
1.100000 0.000000 0
1.120000 0.000000 0
1.140000 0.000000 0
1.160000 0.000000 0
1.180000 0.000000 0
1.200000 0.000000 0
1.220000 0.000000 0
1.240000 0.000000 0
1.260000 0.000000 0
1.280000 0.000000 0
1.300000 0.000000 0
1.320000 0.000000 0
1.340000 0.000000 0
1.360000 0.000000 0
1.380000 0.000000 0
1.400000 0.000000 0
1.420000 0.000000 0
1.440000 0.000000 0
1.460000 0.000000 0
1.480000 0.000000 0
1.500000 0.000000 0
1.520000 0.000000 0
1.540000 0.000000 0
1.560000 0.000000 0
1.580000 0.000000 0
1.600000 0.000000 0
1.620000 0.000000 0
1.640000 0.000000 0
1.660000 0.000000 0
1.680000 0.000000 0
1.700000 0.000000 0
1.720000 0.000000 0
1.740000 0.000000 0
1.760000 0.000000 0
1.780000 0.000000 0
1.800000 0.000000 0
1.820000 0.000000 0
1.840000 0.000000 0
1.860000 0.000000 0
1.880000 0.000000 0
1.900000 0.000000 0
1.920000 0.000000 0
1.940000 0.000000 0
1.960000 0.000000 0
0.000000 0.020000 0
0.020000 0.020000 0
0.040000 0.020000 0
0.060000 0.020000 0
0.080000 0.020000 0
0.100000 0.020000 0
0.120000 0.020000 0
0.140000 0.020000 0
0.160000 0.020000 0
0.180000 0.020000 0
0.200000 0.020000 0
0.220000 0.020000 0
0.240000 0.020000 0
0.260000 0.020000 0
0.280000 0.020000 0
0.300000 0.020000 0
0.320000 0.020000 0
0.340000 0.020000 0
0.360000 0.020000 0
0.380000 0.020000 0
0.400000 0.020000 0
0.420000 0.020000 0
0.440000 0.020000 0
0.460000 0.020000 0
0.480000 0.020000 0
0.500000 0.020000 0
0.520000 0.020000 0
0.540000 0.020000 0
0.560000 0.020000 0
0.580000 0.020000 0
0.600000 0.020000 0
0.620000 0.020000 0
0.640000 0.020000 0
0.660000 0.020000 0
0.680000 0.020000 0
0.700000 0.020000 0
0.720000 0.020000 0
0.740000 0.020000 0
0.760000 0.020000 0
0.780000 0.020000 0
0.800000 0.020000 0
0.820000 0.020000 0
0.840000 0.020000 0
0.860000 0.020000 0
0.880000 0.020000 0
0.900000 0.020000 0
0.920000 0.020000 0
0.940000 0.020000 0
0.960000 0.020000 0
0.980000 0.020000 0
1.000000 0.020000 0
1.020000 0.020000 0
1.040000 0.020000 0
1.060000 0.020000 0
1.080000 0.020000 0
1.100000 0.020000 0
1.120000 0.020000 0
1.140000 0.020000 0
1.160000 0.020000 0
1.180000 0.020000 0
1.200000 0.020000 0
1.220000 0.020000 0
1.240000 0.020000 0
1.260000 0.020000 0
1.280000 0.020000 0
1.300000 0.020000 0
1.320000 0.020000 0
1.340000 0.020000 0
1.360000 0.020000 0
1.380000 0.020000 0
1.400000 0.020000 0
1.420000 0.020000 0
1.440000 0.020000 0
1.460000 0.020000 0
1.480000 0.020000 0
1.500000 0.020000 0
1.520000 0.020000 0
1.540000 0.020000 0
1.560000 0.020000 0
1.580000 0.020000 0
1.600000 0.020000 0
1.620000 0.020000 0
1.640000 0.020000 0
1.660000 0.020000 0
1.680000 0.020000 0
1.700000 0.020000 0
1.720000 0.020000 0
1.740000 0.020000 0
1.760000 0.020000 0
1.780000 0.020000 0
1.800000 0.020000 0
1.820000 0.020000 0
1.840000 0.020000 0
1.860000 0.020000 0
1.880000 0.020000 0
1.900000 0.020000 0
1.920000 0.020000 0
1.940000 0.020000 0
1.960000 0.020000 0
0.000000 0.040000 0
0.020000 0.040000 0
0.040000 0.040000 0
0.060000 0.040000 0
0.080000 0.040000 0
0.100000 0.040000 0
0.120000 0.040000 0
0.140000 0.040000 0
0.160000 0.040000 0
0.180000 0.040000 0
0.200000 0.040000 0
0.220000 0.040000 0
0.240000 0.040000 0
0.260000 0.040000 0
0.280000 0.040000 0
0.300000 0.040000 0
0.320000 0.040000 0
0.340000 0.040000 0
0.360000 0.040000 0
0.380000 0.040000 0
0.400000 0.040000 0
0.420000 0.040000 0
0.440000 0.040000 0
0.460000 0.040000 0
0.480000 0.040000 0
0.500000 0.040000 0
0.520000 0.040000 0
0.540000 0.040000 0
0.560000 0.040000 0
0.580000 0.040000 0
0.600000 0.040000 0
0.620000 0.040000 0
0.640000 0.040000 0
0.660000 0.040000 0
0.680000 0.040000 0
0.700000 0.040000 0
0.720000 0.040000 0
0.740000 0.040000 0
0.760000 0.040000 0
0.780000 0.040000 0
0.800000 0.040000 0
0.820000 0.040000 0
0.840000 0.040000 0
0.860000 0.040000 0
0.880000 0.040000 0
0.900000 0.040000 0
0.920000 0.040000 0
0.940000 0.040000 0
0.960000 0.040000 0
0.980000 0.040000 0
1.000000 0.040000 0
1.020000 0.040000 0
1.040000 0.040000 0
1.060000 0.040000 0
1.080000 0.040000 0
1.100000 0.040000 0
1.120000 0.040000 0
1.140000 0.040000 0
1.160000 0.040000 0
1.180000 0.040000 0
1.200000 0.040000 0
1.220000 0.040000 0
1.240000 0.040000 0
1.260000 0.040000 0
1.280000 0.040000 0
1.300000 0.040000 0
1.320000 0.040000 0
1.340000 0.040000 0
1.360000 0.040000 0
1.380000 0.040000 0
1.400000 0.040000 0
1.420000 0.040000 0
1.440000 0.040000 0
1.460000 0.040000 0
1.480000 0.040000 0
1.500000 0.040000 0
1.520000 0.040000 0
1.540000 0.040000 0
1.560000 0.040000 0
1.580000 0.040000 0
1.600000 0.040000 0
1.620000 0.040000 0
1.640000 0.040000 0
1.660000 0.040000 0
1.680000 0.040000 0
1.700000 0.040000 0
1.720000 0.040000 0
1.740000 0.040000 0
1.760000 0.040000 0
1.780000 0.040000 0
1.800000 0.040000 0
1.820000 0.040000 0
1.840000 0.040000 0
1.860000 0.040000 0
1.880000 0.040000 0
1.900000 0.040000 0
1.920000 0.040000 0
1.940000 0.040000 0
1.960000 0.040000 0
0.000000 0.060000 0
0.020000 0.060000 0
0.040000 0.060000 0
0.060000 0.060000 0
0.080000 0.060000 0
0.100000 0.060000 0
0.120000 0.060000 0
0.140000 0.060000 0
0.160000 0.060000 0
0.180000 0.060000 0
0.200000 0.060000 0
0.220000 0.060000 0
0.240000 0.060000 0
0.260000 0.060000 0
0.280000 0.060000 0
0.300000 0.060000 0
0.320000 0.060000 0
0.340000 0.060000 0
0.360000 0.060000 0
0.380000 0.060000 0
0.400000 0.060000 0
0.420000 0.060000 0
0.440000 0.060000 0
0.460000 0.060000 0
0.480000 0.060000 0
0.500000 0.060000 0
0.520000 0.060000 0
0.540000 0.060000 0
0.560000 0.060000 0
0.580000 0.060000 0
0.600000 0.060000 0
0.620000 0.060000 0
0.640000 0.060000 0
0.660000 0.060000 0
0.680000 0.060000 0
0.700000 0.060000 0
0.720000 0.060000 0
0.740000 0.060000 0
0.760000 0.060000 0
0.780000 0.060000 0
0.800000 0.060000 0
0.820000 0.060000 0
0.840000 0.060000 0
0.860000 0.060000 0
0.880000 0.060000 0
0.900000 0.060000 0
0.920000 0.060000 0
0.940000 0.060000 0
0.960000 0.060000 0
0.980000 0.060000 0
1.000000 0.060000 0
1.020000 0.060000 0
1.040000 0.060000 0
1.060000 0.060000 0
1.080000 0.060000 0
1.100000 0.060000 0
1.120000 0.060000 0
1.140000 0.060000 0
1.160000 0.060000 0
1.180000 0.060000 0
1.200000 0.060000 0
1.220000 0.060000 0
1.240000 0.060000 0
1.260000 0.060000 0
1.280000 0.060000 0
1.300000 0.060000 0
1.320000 0.060000 0
1.340000 0.060000 0
1.360000 0.060000 0
1.380000 0.060000 0
1.400000 0.060000 0
1.420000 0.060000 0
1.440000 0.060000 0
1.460000 0.060000 0
1.480000 0.060000 0
1.500000 0.060000 0
1.520000 0.060000 0
1.540000 0.060000 0
1.560000 0.060000 0
1.580000 0.060000 0
1.600000 0.060000 0
1.620000 0.060000 0
1.640000 0.060000 0
1.660000 0.060000 0
1.680000 0.060000 0
1.700000 0.060000 0
1.720000 0.060000 0
1.740000 0.060000 0
1.760000 0.060000 0
1.780000 0.060000 0
1.800000 0.060000 0
1.820000 0.060000 0
1.840000 0.060000 0
1.860000 0.060000 0
1.880000 0.060000 0
1.900000 0.060000 0
1.920000 0.060000 0
1.940000 0.060000 0
1.960000 0.060000 0
0.000000 0.080000 0
0.020000 0.080000 0
0.040000 0.080000 0
0.060000 0.080000 0
0.080000 0.080000 0
0.100000 0.080000 0
0.120000 0.080000 0
0.140000 0.080000 0
0.160000 0.080000 0
0.180000 0.080000 0
0.200000 0.080000 0
0.220000 0.080000 0
0.240000 0.080000 0
0.260000 0.080000 0
0.280000 0.080000 0
0.300000 0.080000 0
0.320000 0.080000 0
0.340000 0.080000 0
0.360000 0.080000 0
0.380000 0.080000 0
0.400000 0.080000 0
0.420000 0.080000 0
0.440000 0.080000 0
0.460000 0.080000 0
0.480000 0.080000 0
0.500000 0.080000 0
0.520000 0.080000 0
0.540000 0.080000 0
0.560000 0.080000 0
0.580000 0.080000 0
0.600000 0.080000 0
0.620000 0.080000 0
0.640000 0.080000 0
0.660000 0.080000 0
0.680000 0.080000 0
0.700000 0.080000 0
0.720000 0.080000 0
0.740000 0.080000 0
0.760000 0.080000 0
0.780000 0.080000 0
0.800000 0.080000 0
0.820000 0.080000 0
0.840000 0.080000 0
0.860000 0.080000 0
0.880000 0.080000 0
0.900000 0.080000 0
0.920000 0.080000 0
0.940000 0.080000 0
0.960000 0.080000 0
0.980000 0.080000 0
1.000000 0.080000 0
1.020000 0.080000 0
1.040000 0.080000 0
1.060000 0.080000 0
1.080000 0.080000 0
1.100000 0.080000 0
1.120000 0.080000 0
1.140000 0.080000 0
1.160000 0.080000 0
1.180000 0.080000 0
1.200000 0.080000 0
1.220000 0.080000 0
1.240000 0.080000 0
1.260000 0.080000 0
1.280000 0.080000 0
1.300000 0.080000 0
1.320000 0.080000 0
1.340000 0.080000 0
1.360000 0.080000 0
1.380000 0.080000 0
1.400000 0.080000 0
1.420000 0.080000 0
1.440000 0.080000 0
1.460000 0.080000 0
1.480000 0.080000 0
1.500000 0.080000 0
1.520000 0.080000 0
1.540000 0.080000 0
1.560000 0.080000 0
1.580000 0.080000 0
1.600000 0.080000 0
1.620000 0.080000 0
1.640000 0.080000 0
1.660000 0.080000 0
1.680000 0.080000 0
1.700000 0.080000 0
1.720000 0.080000 0
1.740000 0.080000 0
1.760000 0.080000 0
1.780000 0.080000 0
1.800000 0.080000 0
1.820000 0.080000 0
1.840000 0.080000 0
1.860000 0.080000 0
1.880000 0.080000 0
[...]
POINT_DATA 4851 

VECTORS velocity float
0.000000 0.000000 0
0.000269 0.000000 0
0.000710 0.000000 0
0.001104 0.000000 0
0.001363 0.000000 0
0.001472 0.000000 0
0.001460 0.000000 0
0.001367 0.000000 0
0.001229 0.000000 0
0.001074 0.000000 0
0.000923 0.000000 0
0.000790 0.000000 0
0.000681 0.000000 0
0.000599 0.000000 0
0.000544 0.000000 0
0.000511 0.000000 0
0.000498 0.000000 0
0.000499 0.000000 0
0.000511 0.000000 0
0.000529 0.000000 0
0.000550 0.000000 0
0.000572 0.000000 0
0.000592 0.000000 0
0.000611 0.000000 0
0.000628 0.000000 0
0.000645 0.000000 0
0.000665 0.000000 0
0.000690 0.000000 0
0.000720 0.000000 0
0.000753 0.000000 0
0.000773 0.000000 0
0.000756 0.000000 0
0.000670 0.000000 0
0.000506 0.000000 0
0.000287 0.000000 0
0.000085 0.000000 0
0.000000 0.000000 0
0.000000 0.000000 0
0.000000 0.000000 0
0.000000 0.000000 0
0.000000 0.000000 0
0.000000 0.000000 0
-0.000000 0.000000 0
-0.000000 0.000000 0
-0.000000 0.000000 0
-0.000001 0.000000 0
-0.000001 0.000000 0
-0.000001 0.000000 0
-0.000002 0.000000 0
-0.000002 0.000000 0
-0.000003 0.000000 0
-0.000003 0.000000 0
-0.000003 0.000000 0
-0.000004 0.000000 0
-0.000004 0.000000 0
-0.000004 0.000000 0
-0.000004 0.000000 0
-0.000004 0.000000 0
-0.000004 0.000000 0
-0.000003 0.000000 0
-0.000002 0.000000 0
-0.000001 0.000000 0
0.000001 0.000000 0
0.000004 0.000000 0
0.000007 0.000000 0
0.000010 0.000000 0
0.000014 0.000000 0
0.000018 0.000000 0
0.000023 0.000000 0
0.000029 0.000000 0
0.000034 0.000000 0
0.000040 0.000000 0
0.000046 0.000000 0
0.000052 0.000000 0
0.000059 0.000000 0
0.000065 0.000000 0
0.000072 0.000000 0
0.000079 0.000000 0
0.000085 0.000000 0
0.000092 0.000000 0
0.000099 0.000000 0
0.000107 0.000000 0
0.000114 0.000000 0
0.000123 0.000000 0
0.000132 0.000000 0
0.000142 0.000000 0
0.000154 0.000000 0
0.000168 0.000000 0
0.000184 0.000000 0
0.000205 0.000000 0
0.000231 0.000000 0
0.000265 0.000000 0
0.000310 0.000000 0
0.000370 0.000000 0
0.000450 0.000000 0
0.000541 0.000000 0
0.000595 0.000000 0
0.000456 0.000000 0
0.000000 0.000000 0
0.000000 -0.000269 0
0.000733 -0.000710 0
0.001941 -0.000836 0
0.003079 -0.000653 0
0.003905 -0.000368 0
0.004357 -0.000098 0
0.004473 0.000104 0
0.004334 0.000231 0
0.004030 0.000293 0
0.003637 0.000305 0
0.003219 0.000284 0
0.002822 0.000242 0
0.002475 0.000190 0
0.002196 0.000137 0
0.001988 0.000088 0
0.001849 0.000045 0
0.001771 0.000011 0
0.001742 -0.000014 0
0.001750 -0.000031 0
0.001785 -0.000040 0
0.001835 -0.000043 0
0.001891 -0.000043 0
0.001949 -0.000040 0
0.002004 -0.000037 0
0.002057 -0.000036 0
0.002108 -0.000038 0
0.002162 -0.000046 0
0.002222 -0.000057 0
0.002289 -0.000065 0
0.002350 -0.000054 0
0.002370 -0.000004 0
0.002285 0.000102 0
0.002019 0.000249 0
0.001541 0.000382 0
0.000912 0.000419 0
0.000308 0.000286 0
0.000000 0.000084 0
0.000000 0.000000 0
0.000000 0.000000 0
0.000000 0.000000 0
0.000000 0.000000 0
0.000000 0.000000 0
-0.000000 0.000001 0
-0.000001 0.000001 0
-0.000002 0.000001 0
-0.000003 0.000001 0
-0.000004 0.000001 0
-0.000005 0.000001 0
-0.000006 0.000001 0
-0.000007 0.000001 0
-0.000008 0.000001 0
-0.000010 0.000001 0
-0.000011 0.000001 0
-0.000012 0.000001 0
-0.000013 0.000001 0
-0.000013 0.000000 0
-0.000013 0.000000 0
-0.000012 -0.000000 0
-0.000010 -0.000001 0
-0.000007 -0.000001 0
-0.000003 -0.000002 0
0.000003 -0.000003 0
0.000010 -0.000004 0
0.000019 -0.000005 0
0.000031 -0.000006 0
0.000044 -0.000007 0
0.000058 -0.000008 0
0.000075 -0.000009 0
0.000093 -0.000010 0
0.000112 -0.000011 0
0.000133 -0.000011 0
0.000154 -0.000012 0
0.000177 -0.000012 0
0.000200 -0.000012 0
0.000223 -0.000013 0
0.000247 -0.000013 0
0.000271 -0.000013 0
0.000296 -0.000013 0
0.000321 -0.000013 0
0.000346 -0.000014 0
0.000372 -0.000014 0
0.000399 -0.000015 0
0.000428 -0.000016 0
0.000458 -0.000017 0
0.000491 -0.000019 0
0.000527 -0.000022 0
0.000568 -0.000025 0
0.000615 -0.000030 0
0.000670 -0.000037 0
0.000736 -0.000046 0
0.000816 -0.000060 0
0.000914 -0.000079 0
0.001033 -0.000106 0
0.001175 -0.000140 0
0.001328 -0.000171 0
0.001447 -0.000145 0
0.001397 0.000086 0
0.000913 0.000595 0
0.000000 0.000456 0
0.000000 -0.000734 0
0.000949 -0.001942 0
0.002548 -0.002346 0
0.004132 -0.001964 0
0.005394 -0.001279 0
0.006224 -0.000569 0
0.006620 0.000022 0
0.006645 0.000442 0
0.006394 0.000697 0
0.005964 0.000810 0
0.005441 0.000815 0
0.004896 0.000743 0
0.004383 0.000625 0
0.003938 0.000487 0
0.003580 0.000346 0
0.003314 0.000217 0
0.003137 0.000107 0
0.003036 0.000019 0
0.002999 -0.000044 0
0.003009 -0.000085 0
0.003051 -0.000108 0
0.003113 -0.000116 0
0.003183 -0.000114 0
0.003254 -0.000109 0
0.003323 -0.000105 0
0.003388 -0.000107 0
0.003450 -0.000116 0
0.003508 -0.000129 0
0.003556 -0.000130 0
0.003577 -0.000083 0
0.003531 0.000064 0
0.003344 0.000350 0
0.002931 0.000742 0
0.002249 0.001105 0
0.001364 0.001232 0
0.000492 0.000911 0
0.000000 0.000307 0
0.000000 0.000000 0
0.000000 0.000000 0
0.000000 0.000000 0
0.000000 0.000000 0
-0.000000 0.000001 0
-0.000001 0.000001 0
-0.000002 0.000002 0
-0.000003 0.000002 0
-0.000005 0.000002 0
-0.000006 0.000002 0
-0.000008 0.000003 0
-0.000010 0.000003 0
-0.000012 0.000003 0
-0.000014 0.000003 0
-0.000016 0.000003 0
-0.000018 0.000002 0
-0.000019 0.000002 0
-0.000020 0.000001 0
-0.000020 0.000000 0
-0.000019 -0.000001 0
-0.000017 -0.000002 0
-0.000012 -0.000004 0
-0.000006 -0.000007 0
0.000002 -0.000010 0
0.000014 -0.000013 0
0.000028 -0.000016 0
0.000045 -0.000020 0
0.000066 -0.000024 0
0.000091 -0.000027 0
0.000118 -0.000031 0
0.000148 -0.000034 0
0.000182 -0.000037 0
0.000217 -0.000040 0
0.000255 -0.000042 0
0.000295 -0.000044 0
0.000336 -0.000045 0
0.000378 -0.000046 0
0.000421 -0.000047 0
0.000465 -0.000048 0
0.000509 -0.000048 0
0.000554 -0.000049 0
0.000600 -0.000050 0
0.000646 -0.000051 0
0.000693 -0.000053 0
0.000742 -0.000055 0
0.000793 -0.000058 0
0.000847 -0.000063 0
0.000905 -0.000069 0
0.000968 -0.000077 0
0.001037 -0.000088 0
0.001115 -0.000102 0
0.001203 -0.000121 0
0.001304 -0.000146 0
0.001418 -0.000177 0
0.001547 -0.000217 0
0.001686 -0.000261 0
0.001819 -0.000295 0
0.001907 -0.000272 0
0.001865 -0.000068 0
0.001543 0.000534 0
0.000806 0.001397 0
0.000000 0.000913 0
0.000000 -0.001218 0
0.000928 -0.003259 0
0.002542 -0.004020 0
0.004193 -0.003499 0
0.005581 -0.002459 0
0.006595 -0.001324 0
0.007214 -0.000317 0
0.007459 0.000456 0
0.007396 0.000973 0
0.007106 0.001258 0
0.006670 0.001351 0
0.006161 0.001299 0
0.005640 0.001148 0
0.005155 0.000940 0
0.004735 0.000711 0
0.004397 0.000488 0
0.004146 0.000289 0
0.003977 0.000123 0
0.003879 -0.000004 0
0.003838 -0.000093 0
0.003839 -0.000148 0
0.003870 -0.000175 0
0.003917 -0.000182 0
0.003970 -0.000178 0
0.004024 -0.000171 0
0.004071 -0.000166 0
0.004106 -0.000165 0
0.004124 -0.000163 0
0.004114 -0.000135 0
0.004055 -0.000030 0
0.003911 0.000229 0
0.003624 0.000701 0
0.003124 0.001343 0
0.002373 0.001948 0
0.001434 0.002176 0
0.000516 0.001650 0
0.000000 0.000576 0
0.000000 0.000000 0
0.000000 0.000000 0
0.000000 0.000000 0
0.000000 0.000000 0
-0.000000 0.000001 0
-0.000001 0.000002 0
-0.000002 0.000003 0
-0.000004 0.000004 0
-0.000006 0.000004 0
-0.000008 0.000005 0
-0.000010 0.000005 0
-0.000012 0.000005 0
-0.000015 0.000005 0
-0.000017 0.000005 0
-0.000019 0.000005 0
-0.000021 0.000004 0
-0.000022 0.000003 0
-0.000023 0.000002 0
-0.000022 -0.000000 0
-0.000020 -0.000003 0
-0.000016 -0.000007 0
-0.000010 -0.000011 0
-0.000001 -0.000016 0
0.000011 -0.000022 0
0.000028 -0.000029 0
0.000048 -0.000036 0
0.000073 -0.000043 0
0.000102 -0.000051 0
0.000136 -0.000059 0
0.000174 -0.000066 0
0.000216 -0.000073 0
0.000262 -0.000079 0
0.000312 -0.000084 0
0.000364 -0.000089 0
0.000418 -0.000092 0
0.000475 -0.000095 0
0.000533 -0.000098 0
0.000592 -0.000099 0
0.000652 -0.000101 0
0.000712 -0.000102 0
0.000774 -0.000103 0
0.000836 -0.000105 0
0.000898 -0.000107 0
0.000963 -0.000110 0
0.001028 -0.000115 0
0.001096 -0.000121 0
0.001167 -0.000129 0
0.001242 -0.000140 0
0.001322 -0.000154 0
0.001407 -0.000172 0
0.001500 -0.000196 0
0.001601 -0.000225 0
0.001710 -0.000261 0
0.001825 -0.000303 0
0.001941 -0.000346 0
0.002043 -0.000377 0
0.002105 -0.000361 0
0.002075 -0.000218 0
0.001867 0.000219 0
0.001380 0.001145 0
0.000613 0.002138 0
0.000000 0.001263 0
0.000000 -0.001662 0
0.000833 -0.004485 0
0.002303 -0.005611 0
0.003824 -0.005003 0
0.005142 -0.003682 0
0.006168 -0.002201 0
0.006884 -0.000842 0
0.007295 0.000260 0
0.007426 0.001049 0
0.007329 0.001536 0
0.007064 0.001759 0
0.006692 0.001772 0
0.006268 0.001632 0
0.005838 0.001392 0
0.005439 0.001103 0
0.005093 0.000805 0
0.004814 0.000526 0
0.004603 0.000286 0
0.004457 0.000095 0
0.004364 -0.000046 0
0.004316 -0.000140 0
0.004300 -0.000193 0
0.004305 -0.000215 0
0.004321 -0.000216 0
0.004338 -0.000206 0
0.004348 -0.000190 0
0.004341 -0.000170 0
0.004306 -0.000137 0
0.004226 -0.000060 0
0.004080 0.000120 0
0.003837 0.000495 0
0.003458 0.001136 0
0.002898 0.001993 0
0.002142 0.002795 0
0.001257 0.003089 0
0.000435 0.002344 0
0.000000 0.000823 0
0.000000 0.000000 0
0.000000 0.000000 0
0.000000 0.000000 0
0.000000 0.000001 0
-0.000000 0.000002 0
-0.000001 0.000004 0
-0.000003 0.000005 0
-0.000004 0.000006 0
-0.000006 0.000006 0
-0.000009 0.000007 0
-0.000011 0.000007 0
-0.000014 0.000008 0
-0.000016 0.000008 0
-0.000018 0.000007 0
-0.000021 0.000007 0
-0.000022 0.000006 0
-0.000023 0.000004 0
-0.000023 0.000002 0
-0.000022 -0.000002 0
-0.000019 -0.000007 0
-0.000014 -0.000012 0
-0.000006 -0.000020 0
0.000006 -0.000028 0
0.000022 -0.000038 0
0.000042 -0.000050 0
0.000067 -0.000062 0
0.000098 -0.000074 0
0.000135 -0.000087 0
0.000177 -0.000099 0
0.000224 -0.000111 0
0.000276 -0.000122 0
0.000333 -0.000132 0
0.000393 -0.000141 0
0.000457 -0.000149 0
0.000524 -0.000155 0
0.000593 -0.000159 0
0.000664 -0.000163 0
0.000736 -0.000166 0
0.000809 -0.000168 0
0.000882 -0.000170 0
0.000956 -0.000172 0
0.001031 -0.000175 0
0.001106 -0.000178 0
0.001183 -0.000182 0
0.001260 -0.000189 0
0.001340 -0.000197 0
0.001421 -0.000209 0
0.001506 -0.000223 0
0.001594 -0.000242 0
0.001686 -0.000266 0
0.001782 -0.000296 0
0.001881 -0.000331 0
0.001981 -0.000369 0
0.002076 -0.000408 0
0.002156 -0.000434 0
0.002204 -0.000425 0
0.002186 -0.000326 0
0.002052 -0.000034 0
0.001736 0.000627 0
0.001185 0.001788 0
0.000470 0.002777 0
0.000000 0.001526 0
0.000000 -0.002052 0
0.000724 -0.005562 0
0.001989 -0.007011 0
0.003295 -0.006339 0
0.004437 -0.004803 0
0.005364 -0.003066 0
0.006070 -0.001445 0
0.006561 -0.000086 0
0.006837 0.000939 0
0.006919 0.001620 0
0.006840 0.001988 0
0.006640 0.002095 0
0.006361 0.002002 0
0.006044 0.001769 0
0.005721 0.001456 0
0.005419 0.001112 0
0.005154 0.000778 0
0.004935 0.000480 0
0.004764 0.000235 0
0.004636 0.000048 0
0.004546 -0.000084 0
0.004485 -0.000164 0
0.004447 -0.000203 0
0.004420 -0.000212 0
0.004396 -0.000198 0
0.004363 -0.000169 0
0.004309 -0.000123 0
0.004219 -0.000048 0
0.004073 0.000091 0
0.003848 0.000359 0
0.003519 0.000851 0
0.003061 0.001640 0
0.002460 0.002659 0
0.001733 0.003589 0
0.000960 0.003883 0
0.000306 0.002907 0
0.000000 0.001011 0
0.000000 0.000000 0
0.000000 0.000000 0
0.000000 0.000000 0
0.000000 0.000001 0
-0.000000 0.000003 0
-0.000001 0.000005 0
-0.000003 0.000006 0
-0.000005 0.000008 0
-0.000007 0.000009 0
-0.000009 0.000009 0
-0.000011 0.000010 0
-0.000014 0.000010 0
-0.000016 0.000010 0
-0.000018 0.000010 0
-0.000020 0.000009 0
-0.000022 0.000007 0
-0.000023 0.000005 0
-0.000022 0.000001 0
-0.000021 -0.000004 0
-0.000017 -0.000011 0
-0.000011 -0.000020 0
-0.000001 -0.000031 0
0.000012 -0.000043 0
0.000030 -0.000058 0
0.000054 -0.000074 0
0.000083 -0.000092 0
0.000119 -0.000111 0
0.000162 -0.000129 0
0.000210 -0.000148 0
0.000265 -0.000165 0
0.000326 -0.000181 0
0.000391 -0.000196 0
0.000461 -0.000209 0
0.000535 -0.000219 0
0.000612 -0.000228 0
0.000691 -0.000235 0
0.000772 -0.000240 0
0.000855 -0.000244 0
0.000938 -0.000247 0
0.001021 -0.000250 0
0.001105 -0.000252 0
0.001189 -0.000255 0
0.001274 -0.000259 0
0.001358 -0.000264 0
0.001444 -0.000272 0
0.001530 -0.000282 0
0.001617 -0.000295 0
0.001705 -0.000312 0
0.001795 -0.000334 0
0.001886 -0.000360 0
0.001977 -0.000391 0
0.002065 -0.000424 0
0.002146 -0.000456 0
0.002213 -0.000479 0
0.002253 -0.000474 0
0.002246 -0.000406 0
0.002161 -0.000210 0
0.001955 0.000232 0
0.001581 0.001087 0
0.001021 0.002411 0
0.000375 0.003323 0
0.000000 0.001733 0
0.000000 -0.002386 0
0.000614 -0.006475 0
0.001661 -0.008182 0
0.002721 -0.007450 0
0.003647 -0.005751 0
0.004419 -0.003835 0
0.005049 -0.002039 0
0.005548 -0.000508 0
0.005909 0.000691 0
0.006126 0.001533 0
0.006208 0.002039 0
0.006174 0.002251 0
0.006050 0.002227 0
0.005866 0.002032 0
0.005648 0.001728 0
0.005420 0.001372 0
0.005201 0.001009 0
0.005002 0.000676 0
0.004831 0.000393 0
0.004689 0.000171 0
0.004574 0.000010 0
0.004482 -0.000094 0
0.004409 -0.000150 0
0.004345 -0.000166 0
0.004283 -0.000149 0
0.004210 -0.000104 0
0.004111 -0.000026 0
0.003969 0.000099 0
0.003762 0.000310 0
0.003470 0.000673 0
0.003069 0.001281 0
0.002550 0.002195 0
0.001928 0.003321 0
0.001256 0.004295 0
0.000628 0.004515 0
0.000170 0.003304 0
0.000000 0.001128 0
0.000000 0.000000 0
0.000000 0.000000 0
0.000000 0.000000 0
0.000000 0.000001 0
-0.000000 0.000003 0
-0.000001 0.000006 0
-0.000003 0.000008 0
-0.000004 0.000010 0
-0.000006 0.000011 0
-0.000008 0.000012 0
-0.000010 0.000012 0
-0.000013 0.000012 0
-0.000015 0.000012 0
-0.000017 0.000012 0
-0.000019 0.000010 0
-0.000020 0.000008 0
-0.000021 0.000005 0
-0.000021 -0.000000 0
-0.000019 -0.000007 0
-0.000015 -0.000016 0
-0.000008 -0.000028 0
0.000002 -0.000043 0
0.000017 -0.000060 0
0.000036 -0.000080 0
0.000062 -0.000103 0
0.000095 -0.000127 0
0.000135 -0.000152 0
0.000182 -0.000178 0
0.000236 -0.000203 0
0.000297 -0.000226 0
0.000365 -0.000248 0
0.000438 -0.000268 0
0.000516 -0.000285 0
0.000599 -0.000299 0
0.000684 -0.000311 0
0.000772 -0.000320 0
0.000861 -0.000326 0
0.000952 -0.000331 0
0.001043 -0.000335 0
0.001134 -0.000338 0
0.001225 -0.000340 0
0.001315 -0.000343 0
0.001405 -0.000347 0
0.001495 -0.000352 0
0.001585 -0.000360 0
0.001674 -0.000370 0
0.001762 -0.000384 0
0.001850 -0.000402 0
0.001937 -0.000423 0
0.002022 -0.000448 0
0.002102 -0.000474 0
0.002175 -0.000500 0
0.002234 -0.000518 0
0.002272 -0.000515 0
0.002274 -0.000467 0
0.002221 -0.000332 0
0.002086 -0.000035 0
0.001835 0.000545 0
0.001437 0.001560 0
0.000893 0.002995 0
0.000310 0.003798 0
0.000000 0.001901 0
0.000000 -0.002666 0
0.000508 -0.007223 0
0.001341 -0.009118 0
0.002161 -0.008325 0
0.002868 -0.006501 0
0.003469 -0.004468 0
0.003992 -0.002574 0
0.004452 -0.000946 0
0.004843 0.000361 0
0.005144 0.001321 0
0.005346 0.001940 0
0.005450 0.002253 0
0.005466 0.002309 0
0.005411 0.002171 0
0.005303 0.001901 0
0.005163 0.001559 0
0.005007 0.001196 0
0.004849 0.000850 0
0.004698 0.000548 0
0.004561 0.000304 0
0.004440 0.000123 0
0.004333 0.000001 0
0.004238 -0.000067 0
0.004149 -0.000087 0
0.004055 -0.000063 0
0.003945 0.000003 0
0.003803 0.000118 0
0.003611 0.000301 0
0.003349 0.000590 0
0.002996 0.001052 0
0.002537 0.001770 0
0.001978 0.002780 0
0.001362 0.003953 0
0.000773 0.004888 0
0.000309 0.004969 0
0.000050 0.003535 0
0.000000 0.001180 0
0.000000 0.000000 0
0.000000 0.000000 0
0.000000 0.000000 0
0.000000 0.000001 0
-0.000000 0.000004 0
-0.000001 0.000007 0
-0.000002 0.000010 0
-0.000004 0.000011 0
-0.000005 0.000013 0
-0.000007 0.000014 0
-0.000009 0.000014 0
-0.000011 0.000015 0
-0.000013 0.000014 0
-0.000015 0.000014 0
-0.000017 0.000012 0
-0.000018 0.000009 0
-0.000018 0.000005 0
-0.000018 -0.000001 0
-0.000016 -0.000010 0
-0.000013 -0.000022 0
-0.000006 -0.000037 0
0.000004 -0.000055 0
0.000019 -0.000078 0
0.000039 -0.000104 0
0.000066 -0.000133 0
0.000101 -0.000164 0
0.000144 -0.000197 0
0.000195 -0.000231 0
0.000254 -0.000263 0
0.000321 -0.000294 0
0.000395 -0.000322 0
0.000475 -0.000347 0
0.000560 -0.000369 0
0.000649 -0.000387 0
0.000742 -0.000401 0
0.000837 -0.000412 0
0.000933 -0.000420 0
0.001030 -0.000425 0
0.001127 -0.000429 0
0.001223 -0.000432 0
0.001319 -0.000434 0
0.001414 -0.000436 0
0.001508 -0.000439 0
0.001600 -0.000443 0
0.001691 -0.000450 0
0.001780 -0.000459 0
0.001867 -0.000472 0
0.001951 -0.000487 0
0.002032 -0.000505 0
0.002108 -0.000525 0
0.002175 -0.000544 0
0.002231 -0.000556 0
0.002269 -0.000553 0
0.002279 -0.000518 0
0.002249 -0.000423 0
0.002162 -0.000218 0
0.001992 0.000177 0
0.001716 0.000881 0
0.001313 0.002029 0
0.000793 0.003538 0
0.000265 0.004216 0
0.000000 0.002043 0
0.000000 -0.002894 0
0.000407 -0.007816 0
0.001044 -0.009835 0
0.001646 -0.008977 0
0.002153 -0.007059 0
0.002593 -0.004959 0
0.003000 -0.003022 0
0.003394 -0.001359 0
0.003772 -0.000001 0
0.004111 0.001030 0
0.004390 0.001733 0
0.004595 0.002131 0
0.004722 0.002266 0
0.004778 0.002194 0
0.004773 0.001975 0
0.004720 0.001668 0
0.004633 0.001324 0
0.004526 0.000985 0
0.004411 0.000681 0
0.004294 0.000429 0
0.004182 0.000238 0
0.004075 0.000107 0
0.003970 0.000034 0
0.003862 0.000017 0
0.003741 0.000055 0
0.003595 0.000148 0
0.003410 0.000308 0
0.003169 0.000553 0
0.002854 0.000925 0
0.002447 0.001486 0
0.001944 0.002299 0
0.001370 0.003369 0
0.000793 0.004525 0
0.000316 0.005347 0
0.000029 0.005238 0
-0.000047 0.003613 0
0.000000 0.001178 0
0.000000 0.000000 0
0.000000 0.000000 0
0.000000 0.000000 0
0.000000 0.000001 0
-0.000000 0.000005 0
-0.000001 0.000008 0
-0.000002 0.000011 0
-0.000003 0.000013 0
-0.000004 0.000014 0
-0.000006 0.000016 0
-0.000008 0.000016 0
-0.000009 0.000016 0
-0.000011 0.000016 0
-0.000012 0.000015 0
-0.000014 0.000013 0
-0.000015 0.000010 0
-0.000015 0.000005 0
-0.000015 -0.000002 0
-0.000014 -0.000012 0
-0.000011 -0.000026 0
-0.000005 -0.000045 0
0.000004 -0.000067 0
0.000018 -0.000095 0
0.000038 -0.000128 0
0.000066 -0.000164 0
0.000102 -0.000204 0
0.000147 -0.000246 0
0.000201 -0.000288 0
0.000265 -0.000329 0
0.000337 -0.000367 0
0.000416 -0.000402 0
0.000502 -0.000433 0
0.000594 -0.000459 0
0.000689 -0.000481 0
0.000788 -0.000498 0
0.000889 -0.000510 0
0.000991 -0.000519 0
0.001093 -0.000525 0
0.001194 -0.000528 0
0.001295 -0.000530 0
0.001394 -0.000531 0
0.001491 -0.000531 0
0.001586 -0.000533 0
0.001679 -0.000535 0
0.001769 -0.000540 0
0.001856 -0.000546 0
0.001939 -0.000556 0
0.002018 -0.000567 0
0.002091 -0.000579 0
0.002156 -0.000591 0
0.002210 -0.000598 0
0.002249 -0.000593 0
0.002267 -0.000566 0
0.002255 -0.000495 0
0.002199 -0.000349 0
0.002086 -0.000075 0
0.001895 0.000410 0
0.001606 0.001225 0
0.001207 0.002484 0
0.000714 0.004043 0
0.000232 0.004591 0
0.000000 0.002166 0
0.000000 -0.003073 0
0.000314 -0.008268 0
0.000779 -0.010357 0
0.001194 -0.009434 0
0.001532 -0.007448 0
0.001831 -0.005315 0
0.002129 -0.003375 0
0.002446 -0.001718 0
0.002783 -0.000357 0
0.003124 0.000702 0
0.003439 0.001457 0
0.003706 0.001920 0
0.003913 0.002126 0
0.004054 0.002121 0
0.004134 0.001960 0
0.004160 0.001699 0
0.004141 0.001389 0
0.004090 0.001072 0
0.004016 0.000780 0
0.003930 0.000533 0
0.003835 0.000342 0
0.003734 0.000213 0
0.003623 0.000146 0
0.003498 0.000142 0
0.003349 0.000203 0
0.003166 0.000333 0
0.002937 0.000544 0
0.002647 0.000857 0
0.002281 0.001312 0
0.001831 0.001962 0
0.001305 0.002847 0
0.000748 0.003931 0
0.000246 0.005006 0
-0.000090 0.005652 0
-0.000198 0.005331 0
-0.000117 0.003564 0
0.000000 0.001134 0
0.000000 0.000000 0
0.000000 0.000000 0
0.000000 0.000000 0
0.000000 0.000002 0
-0.000000 0.000005 0
-0.000001 0.000009 0
-0.000001 0.000012 0
-0.000002 0.000014 0
-0.000003 0.000016 0
-0.000004 0.000017 0
-0.000006 0.000018 0
-0.000007 0.000018 0
-0.000008 0.000018 0
-0.000009 0.000017 0
-0.000010 0.000015 0
-0.000011 0.000011 0
-0.000012 0.000006 0
-0.000012 -0.000003 0
-0.000012 -0.000014 0
-0.000010 -0.000030 0
-0.000005 -0.000051 0
0.000002 -0.000079 0
0.000015 -0.000112 0
0.000034 -0.000152 0
0.000061 -0.000196 0
0.000098 -0.000245 0
0.000145 -0.000297 0
0.000202 -0.000348 0
0.000269 -0.000398 0
0.000346 -0.000445 0
0.000431 -0.000488 0
0.000523 -0.000525 0
0.000620 -0.000556 0
0.000722 -0.000581 0
0.000826 -0.000600 0
0.000932 -0.000614 0
0.001038 -0.000624 0