# vtk DataFile Version 2.0
generated by CFD-lab course output (written by Tobias Neckel) 
ASCII

DATASET STRUCTURED_GRID
DIMENSIONS  99 49 1 
POINTS 4851 float

0.000000 0.000000 0
0.020000 0.000000 0
0.040000 0.000000 0
0.060000 0.000000 0
0.080000 0.000000 0
0.100000 0.000000 0
0.120000 0.000000 0
0.140000 0.000000 0
0.160000 0.000000 0
0.180000 0.000000 0
0.200000 0.000000 0
0.220000 0.000000 0
0.240000 0.000000 0
0.260000 0.000000 0
0.280000 0.000000 0
0.300000 0.000000 0
0.320000 0.000000 0
0.340000 0.000000 0
0.360000 0.000000 0
0.380000 0.000000 0
0.400000 0.000000 0
0.420000 0.000000 0
0.440000 0.000000 0
0.460000 0.000000 0
0.480000 0.000000 0
0.500000 0.000000 0
0.520000 0.000000 0
0.540000 0.000000 0
0.560000 0.000000 0
0.580000 0.000000 0
0.600000 0.000000 0
0.620000 0.000000 0
0.640000 0.000000 0
0.660000 0.000000 0
0.680000 0.000000 0
0.700000 0.000000 0
0.720000 0.000000 0
0.740000 0.000000 0
0.760000 0.000000 0
0.780000 0.000000 0
0.800000 0.000000 0
0.820000 0.000000 0
0.840000 0.000000 0
0.860000 0.000000 0
0.880000 0.000000 0
0.900000 0.000000 0
0.920000 0.000000 0
0.940000 0.000000 0
0.960000 0.000000 0
0.980000 0.000000 0
1.000000 0.000000 0
1.020000 0.000000 0
1.040000 0.000000 0
1.060000 0.000000 0
1.080000 0.000000 0
1.100000 0.000000 0
1.120000 0.000000 0
1.140000 0.000000 0
1.160000 0.000000 0
1.180000 0.000000 0
1.200000 0.000000 0
1.220000 0.000000 0
1.240000 0.000000 0
1.260000 0.000000 0
1.280000 0.000000 0
1.300000 0.000000 0
1.320000 0.000000 0
1.340000 0.000000 0
1.360000 0.000000 0
1.380000 0.000000 0
1.400000 0.000000 0
1.420000 0.000000 0
1.440000 0.000000 0
1.460000 0.000000 0
1.480000 0.000000 0
1.500000 0.000000 0
1.520000 0.000000 0
1.540000 0.000000 0
1.560000 0.000000 0
1.580000 0.000000 0
1.600000 0.000000 0
1.620000 0.000000 0
1.640000 0.000000 0
1.660000 0.000000 0
1.680000 0.000000 0
1.700000 0.000000 0
1.720000 0.000000 0
1.740000 0.000000 0
1.760000 0.000000 0
1.780000 0.000000 0
1.800000 0.000000 0
1.820000 0.000000 0
1.840000 0.000000 0
1.860000 0.000000 0
1.880000 0.000000 0
1.900000 0.000000 0
1.920000 0.000000 0
1.940000 0.000000 0
1.960000 0.000000 0
0.000000 0.020000 0
0.020000 0.020000 0
0.040000 0.020000 0
0.060000 0.020000 0
0.080000 0.020000 0
0.100000 0.020000 0
0.120000 0.020000 0
0.140000 0.020000 0
0.160000 0.020000 0
0.180000 0.020000 0
0.200000 0.020000 0
0.220000 0.020000 0
0.240000 0.020000 0
0.260000 0.020000 0
0.280000 0.020000 0
0.300000 0.020000 0
0.320000 0.020000 0
0.340000 0.020000 0
0.360000 0.020000 0
0.380000 0.020000 0
0.400000 0.020000 0
0.420000 0.020000 0
0.440000 0.020000 0
0.460000 0.020000 0
0.480000 0.020000 0
0.500000 0.020000 0
0.520000 0.020000 0
0.540000 0.020000 0
0.560000 0.020000 0
0.580000 0.020000 0
0.600000 0.020000 0
0.620000 0.020000 0
0.640000 0.020000 0
0.660000 0.020000 0
0.680000 0.020000 0
0.700000 0.020000 0
0.720000 0.020000 0
0.740000 0.020000 0
0.760000 0.020000 0
0.780000 0.020000 0
0.800000 0.020000 0
0.820000 0.020000 0
0.840000 0.020000 0
0.860000 0.020000 0
0.880000 0.020000 0
0.900000 0.020000 0
0.920000 0.020000 0
0.940000 0.020000 0
0.960000 0.020000 0
0.980000 0.020000 0
1.000000 0.020000 0
1.020000 0.020000 0
1.040000 0.020000 0
1.060000 0.020000 0
1.080000 0.020000 0
1.100000 0.020000 0
1.120000 0.020000 0
1.140000 0.020000 0
1.160000 0.020000 0
1.180000 0.020000 0
1.200000 0.020000 0
1.220000 0.020000 0
1.240000 0.020000 0
1.260000 0.020000 0
1.280000 0.020000 0
1.300000 0.020000 0
1.320000 0.020000 0
1.340000 0.020000 0
1.360000 0.020000 0
1.380000 0.020000 0
1.400000 0.020000 0
1.420000 0.020000 0
1.440000 0.020000 0
1.460000 0.020000 0
1.480000 0.020000 0
1.500000 0.020000 0
1.520000 0.020000 0
1.540000 0.020000 0
1.560000 0.020000 0
1.580000 0.020000 0
1.600000 0.020000 0
1.620000 0.020000 0
1.640000 0.020000 0
1.660000 0.020000 0
1.680000 0.020000 0
1.700000 0.020000 0
1.720000 0.020000 0
1.740000 0.020000 0
1.760000 0.020000 0
1.780000 0.020000 0
1.800000 0.020000 0
1.820000 0.020000 0
1.840000 0.020000 0
1.860000 0.020000 0
1.880000 0.020000 0
1.900000 0.020000 0
1.920000 0.020000 0
1.940000 0.020000 0
1.960000 0.020000 0
0.000000 0.040000 0
0.020000 0.040000 0
0.040000 0.040000 0
0.060000 0.040000 0
0.080000 0.040000 0
0.100000 0.040000 0
0.120000 0.040000 0
0.140000 0.040000 0
0.160000 0.040000 0
0.180000 0.040000 0
0.200000 0.040000 0
0.220000 0.040000 0
0.240000 0.040000 0
0.260000 0.040000 0
0.280000 0.040000 0
0.300000 0.040000 0
0.320000 0.040000 0
0.340000 0.040000 0
0.360000 0.040000 0
0.380000 0.040000 0
0.400000 0.040000 0
0.420000 0.040000 0
0.440000 0.040000 0
0.460000 0.040000 0
0.480000 0.040000 0
0.500000 0.040000 0
0.520000 0.040000 0
0.540000 0.040000 0
0.560000 0.040000 0
0.580000 0.040000 0
0.600000 0.040000 0
0.620000 0.040000 0
0.640000 0.040000 0
0.660000 0.040000 0
0.680000 0.040000 0
0.700000 0.040000 0
0.720000 0.040000 0
0.740000 0.040000 0
0.760000 0.040000 0
0.780000 0.040000 0
0.800000 0.040000 0
0.820000 0.040000 0
0.840000 0.040000 0
0.860000 0.040000 0
0.880000 0.040000 0
0.900000 0.040000 0
0.920000 0.040000 0
0.940000 0.040000 0
0.960000 0.040000 0
0.980000 0.040000 0
1.000000 0.040000 0
1.020000 0.040000 0
1.040000 0.040000 0
1.060000 0.040000 0
1.080000 0.040000 0
1.100000 0.040000 0
1.120000 0.040000 0
1.140000 0.040000 0
1.160000 0.040000 0
1.180000 0.040000 0
1.200000 0.040000 0
1.220000 0.040000 0
1.240000 0.040000 0
1.260000 0.040000 0
1.280000 0.040000 0
1.300000 0.040000 0
1.320000 0.040000 0
1.340000 0.040000 0
1.360000 0.040000 0
1.380000 0.040000 0
1.400000 0.040000 0
1.420000 0.040000 0
1.440000 0.040000 0
1.460000 0.040000 0
1.480000 0.040000 0
1.500000 0.040000 0
1.520000 0.040000 0
1.540000 0.040000 0
1.560000 0.040000 0
1.580000 0.040000 0
1.600000 0.040000 0
1.620000 0.040000 0
1.640000 0.040000 0
1.660000 0.040000 0
1.680000 0.040000 0
1.700000 0.040000 0
1.720000 0.040000 0
1.740000 0.040000 0
1.760000 0.040000 0
1.780000 0.040000 0
1.800000 0.040000 0
1.820000 0.040000 0
1.840000 0.040000 0
1.860000 0.040000 0
1.880000 0.040000 0
1.900000 0.040000 0
1.920000 0.040000 0
1.940000 0.040000 0
1.960000 0.040000 0
0.000000 0.060000 0
0.020000 0.060000 0
0.040000 0.060000 0
0.060000 0.060000 0
0.080000 0.060000 0
0.100000 0.060000 0
0.120000 0.060000 0
0.140000 0.060000 0
0.160000 0.060000 0
0.180000 0.060000 0
0.200000 0.060000 0
0.220000 0.060000 0
0.240000 0.060000 0
0.260000 0.060000 0
0.280000 0.060000 0
0.300000 0.060000 0
0.320000 0.060000 0
0.340000 0.060000 0
0.360000 0.060000 0
0.380000 0.060000 0
0.400000 0.060000 0
0.420000 0.060000 0
0.440000 0.060000 0
0.460000 0.060000 0
0.480000 0.060000 0
0.500000 0.060000 0
0.520000 0.060000 0
0.540000 0.060000 0
0.560000 0.060000 0
0.580000 0.060000 0
0.600000 0.060000 0
0.620000 0.060000 0
0.640000 0.060000 0
0.660000 0.060000 0
0.680000 0.060000 0
0.700000 0.060000 0
0.720000 0.060000 0
0.740000 0.060000 0
0.760000 0.060000 0
0.780000 0.060000 0
0.800000 0.060000 0
0.820000 0.060000 0
0.840000 0.060000 0
0.860000 0.060000 0
0.880000 0.060000 0
0.900000 0.060000 0
0.920000 0.060000 0
0.940000 0.060000 0
0.960000 0.060000 0
0.980000 0.060000 0
1.000000 0.060000 0
1.020000 0.060000 0
1.040000 0.060000 0
1.060000 0.060000 0
1.080000 0.060000 0
1.100000 0.060000 0
1.120000 0.060000 0
1.140000 0.060000 0
1.160000 0.060000 0
1.180000 0.060000 0
1.200000 0.060000 0
1.220000 0.060000 0
1.240000 0.060000 0
1.260000 0.060000 0
1.280000 0.060000 0
1.300000 0.060000 0
1.320000 0.060000 0
1.340000 0.060000 0
1.360000 0.060000 0
1.380000 0.060000 0
1.400000 0.060000 0
1.420000 0.060000 0
1.440000 0.060000 0
1.460000 0.060000 0
1.480000 0.060000 0
1.500000 0.060000 0
1.520000 0.060000 0
1.540000 0.060000 0
1.560000 0.060000 0
1.580000 0.060000 0
1.600000 0.060000 0
1.620000 0.060000 0
1.640000 0.060000 0
1.660000 0.060000 0
1.680000 0.060000 0
1.700000 0.060000 0
1.720000 0.060000 0
1.740000 0.060000 0
1.760000 0.060000 0
1.780000 0.060000 0
1.800000 0.060000 0
1.820000 0.060000 0
1.840000 0.060000 0
1.860000 0.060000 0
1.880000 0.060000 0
1.900000 0.060000 0
1.920000 0.060000 0
1.940000 0.060000 0
1.960000 0.060000 0
0.000000 0.080000 0
0.020000 0.080000 0
0.040000 0.080000 0
0.060000 0.080000 0
0.080000 0.080000 0
0.100000 0.080000 0
0.120000 0.080000 0
0.140000 0.080000 0
0.160000 0.080000 0
0.180000 0.080000 0
0.200000 0.080000 0
0.220000 0.080000 0
0.240000 0.080000 0
0.260000 0.080000 0
0.280000 0.080000 0
0.300000 0.080000 0
0.320000 0.080000 0
0.340000 0.080000 0
0.360000 0.080000 0
0.380000 0.080000 0
0.400000 0.080000 0
0.420000 0.080000 0
0.440000 0.080000 0
0.460000 0.080000 0
0.480000 0.080000 0
0.500000 0.080000 0
0.520000 0.080000 0
0.540000 0.080000 0
0.560000 0.080000 0
0.580000 0.080000 0
0.600000 0.080000 0
0.620000 0.080000 0
0.640000 0.080000 0
0.660000 0.080000 0
0.680000 0.080000 0
0.700000 0.080000 0
0.720000 0.080000 0
0.740000 0.080000 0
0.760000 0.080000 0
0.780000 0.080000 0
0.800000 0.080000 0
0.820000 0.080000 0
0.840000 0.080000 0
0.860000 0.080000 0
0.880000 0.080000 0
0.900000 0.080000 0
0.920000 0.080000 0
0.940000 0.080000 0
0.960000 0.080000 0
0.980000 0.080000 0
1.000000 0.080000 0
1.020000 0.080000 0
1.040000 0.080000 0
1.060000 0.080000 0
1.080000 0.080000 0
1.100000 0.080000 0
1.120000 0.080000 0
1.140000 0.080000 0
1.160000 0.080000 0
1.180000 0.080000 0
1.200000 0.080000 0
1.220000 0.080000 0
1.240000 0.080000 0
1.260000 0.080000 0
1.280000 0.080000 0
1.300000 0.080000 0
1.320000 0.080000 0
1.340000 0.080000 0
1.360000 0.080000 0
1.380000 0.080000 0
1.400000 0.080000 0
1.420000 0.080000 0
1.440000 0.080000 0
1.460000 0.080000 0
1.480000 0.080000 0
1.500000 0.080000 0
1.520000 0.080000 0
1.540000 0.080000 0
1.560000 0.080000 0
1.580000 0.080000 0
1.600000 0.080000 0
1.620000 0.080000 0
1.640000 0.080000 0
1.660000 0.080000 0
1.680000 0.080000 0
1.700000 0.080000 0
1.720000 0.080000 0
1.740000 0.080000 0
1.760000 0.080000 0
1.780000 0.080000 0
1.800000 0.080000 0
1.820000 0.080000 0
1.840000 0.080000 0
1.860000 0.080000 0
1.880000 0.080000 0
[...]
POINT_DATA 4851 

VECTORS velocity float
0.000000 0.000000 0
0.000045 0.000000 0
0.000115 0.000000 0
0.000173 0.000000 0
0.000208 0.000000 0
0.000221 0.000000 0
0.000220 0.000000 0
0.000211 0.000000 0
0.000199 0.000000 0
0.000188 0.000000 0
0.000179 0.000000 0
0.000173 0.000000 0
0.000170 0.000000 0
0.000168 0.000000 0
0.000167 0.000000 0
0.000166 0.000000 0
0.000166 0.000000 0
0.000165 0.000000 0
0.000165 0.000000 0
0.000164 0.000000 0
0.000163 0.000000 0
0.000162 0.000000 0
0.000160 0.000000 0
0.000159 0.000000 0
0.000157 0.000000 0
0.000155 0.000000 0
0.000153 0.000000 0
0.000151 0.000000 0
0.000147 0.000000 0
0.000142 0.000000 0
0.000134 0.000000 0
0.000122 0.000000 0
0.000102 0.000000 0
0.000076 0.000000 0
0.000044 0.000000 0
0.000014 0.000000 0
0.000000 0.000000 0
0.000000 0.000000 0
0.000000 0.000000 0
0.000000 0.000000 0
0.000000 0.000000 0
0.000003 0.000000 0
0.000041 0.000000 0
0.000107 0.000000 0
0.000185 0.000000 0
0.000262 0.000000 0
0.000326 0.000000 0
0.000371 0.000000 0
0.000396 0.000000 0
0.000403 0.000000 0
0.000396 0.000000 0
0.000379 0.000000 0
0.000356 0.000000 0
0.000331 0.000000 0
0.000306 0.000000 0
0.000283 0.000000 0
0.000263 0.000000 0
0.000248 0.000000 0
0.000236 0.000000 0
0.000228 0.000000 0
0.000224 0.000000 0
0.000222 0.000000 0
0.000222 0.000000 0
0.000224 0.000000 0
0.000226 0.000000 0
0.000229 0.000000 0
0.000232 0.000000 0
0.000235 0.000000 0
0.000237 0.000000 0
0.000239 0.000000 0
0.000241 0.000000 0
0.000242 0.000000 0
0.000243 0.000000 0
0.000243 0.000000 0
0.000244 0.000000 0
0.000244 0.000000 0
0.000245 0.000000 0
0.000246 0.000000 0
0.000247 0.000000 0
0.000248 0.000000 0
0.000250 0.000000 0
0.000252 0.000000 0
0.000254 0.000000 0
0.000257 0.000000 0
0.000260 0.000000 0
0.000265 0.000000 0
0.000270 0.000000 0
0.000277 0.000000 0
0.000286 0.000000 0
0.000298 0.000000 0
0.000314 0.000000 0
0.000337 0.000000 0
0.000371 0.000000 0
0.000421 0.000000 0
0.000491 0.000000 0
0.000579 0.000000 0
0.000636 0.000000 0
0.000496 0.000000 0
0.000000 0.000000 0
0.000000 -0.000045 0
0.000127 -0.000116 0
0.000329 -0.000129 0
0.000504 -0.000094 0
0.000618 -0.000049 0
0.000671 -0.000013 0
0.000680 0.000010 0
0.000663 0.000020 0
0.000635 0.000022 0
0.000606 0.000019 0
0.000581 0.000014 0
0.000563 0.000009 0
0.000551 0.000005 0
0.000544 0.000002 0
0.000540 0.000001 0
0.000538 0.000000 0
0.000536 0.000000 0
0.000535 0.000000 0
0.000532 0.000001 0
0.000529 0.000001 0
0.000525 0.000002 0
0.000520 0.000002 0
0.000515 0.000002 0
0.000508 0.000002 0
0.000501 0.000003 0
0.000494 0.000003 0
0.000484 0.000004 0
0.000473 0.000005 0
0.000458 0.000008 0
0.000436 0.000012 0
0.000405 0.000020 0
0.000360 0.000031 0
0.000298 0.000045 0
0.000218 0.000058 0
0.000126 0.000061 0
0.000042 0.000043 0
0.000000 0.000014 0
0.000000 0.000000 0
0.000000 0.000000 0
0.000000 0.000000 0
0.000000 -0.000003 0
0.000037 -0.000040 0
0.000175 -0.000103 0
0.000390 -0.000144 0
0.000641 -0.000156 0
0.000887 -0.000141 0
0.001095 -0.000109 0
0.001248 -0.000070 0
0.001341 -0.000032 0
0.001377 0.000001 0
0.001367 0.000025 0
0.001323 0.000040 0
0.001258 0.000049 0
0.001181 0.000051 0
0.001102 0.000048 0
0.001028 0.000043 0
0.000963 0.000035 0
0.000909 0.000027 0
0.000868 0.000020 0
0.000840 0.000013 0
0.000822 0.000006 0
0.000813 0.000002 0
0.000811 -0.000002 0
0.000814 -0.000004 0
0.000821 -0.000005 0
0.000829 -0.000006 0
0.000837 -0.000005 0
0.000845 -0.000005 0
0.000851 -0.000004 0
0.000857 -0.000003 0
0.000861 -0.000002 0
0.000864 -0.000002 0
0.000866 -0.000001 0
0.000868 -0.000001 0
0.000870 -0.000001 0
0.000871 -0.000001 0
0.000873 -0.000001 0
0.000875 -0.000002 0
0.000878 -0.000002 0
0.000881 -0.000003 0
0.000886 -0.000003 0
0.000891 -0.000004 0
0.000898 -0.000005 0
0.000907 -0.000006 0
0.000918 -0.000008 0
0.000931 -0.000010 0
0.000948 -0.000012 0
0.000969 -0.000016 0
0.000997 -0.000021 0
0.001032 -0.000028 0
0.001079 -0.000039 0
0.001142 -0.000057 0
0.001225 -0.000083 0
0.001332 -0.000120 0
0.001456 -0.000158 0
0.001556 -0.000144 0
0.001496 0.000083 0
0.000989 0.000636 0
0.000000 0.000496 0
0.000000 -0.000128 0
0.000177 -0.000330 0
0.000462 -0.000378 0
0.000721 -0.000290 0
0.000901 -0.000168 0
0.000997 -0.000063 0
0.001028 0.000008 0
0.001017 0.000045 0
0.000985 0.000057 0
0.000948 0.000053 0
0.000915 0.000042 0
0.000890 0.000029 0
0.000872 0.000018 0
0.000861 0.000010 0
0.000854 0.000005 0
0.000850 0.000003 0
0.000846 0.000003 0
0.000842 0.000003 0
0.000836 0.000005 0
0.000830 0.000006 0
0.000822 0.000008 0
0.000812 0.000009 0
0.000802 0.000011 0
0.000789 0.000012 0
0.000775 0.000014 0
0.000758 0.000016 0
0.000739 0.000020 0
0.000715 0.000026 0
0.000684 0.000036 0
0.000642 0.000052 0
0.000586 0.000075 0
0.000512 0.000106 0
0.000415 0.000142 0
0.000298 0.000171 0
0.000171 0.000174 0
0.000059 0.000125 0
0.000000 0.000042 0
0.000000 0.000000 0
0.000000 0.000000 0
0.000000 0.000000 0
0.000000 -0.000037 0
0.000093 -0.000174 0
0.000340 -0.000352 0
0.000696 -0.000466 0
0.001099 -0.000496 0
0.001491 -0.000454 0
0.001829 -0.000361 0
0.002086 -0.000246 0
0.002252 -0.000129 0
0.002331 -0.000026 0
0.002337 0.000054 0
0.002285 0.000110 0
0.002194 0.000143 0
0.002081 0.000156 0
0.001961 0.000153 0
0.001843 0.000140 0
0.001738 0.000119 0
0.001649 0.000095 0
0.001579 0.000070 0
0.001528 0.000047 0
0.001494 0.000027 0
0.001475 0.000011 0
0.001468 -0.000001 0
0.001469 -0.000009 0
0.001475 -0.000014 0
0.001484 -0.000016 0
0.001495 -0.000016 0
0.001505 -0.000014 0
0.001513 -0.000012 0
0.001520 -0.000009 0
0.001525 -0.000007 0
0.001529 -0.000005 0
0.001531 -0.000004 0
0.001532 -0.000003 0
0.001533 -0.000003 0
0.001534 -0.000003 0
0.001535 -0.000003 0
0.001537 -0.000004 0
0.001540 -0.000006 0
0.001544 -0.000008 0
0.001550 -0.000010 0
0.001557 -0.000012 0
0.001566 -0.000015 0
0.001578 -0.000019 0
0.001593 -0.000024 0
0.001612 -0.000030 0
0.001636 -0.000038 0
0.001666 -0.000048 0
0.001704 -0.000062 0
0.001751 -0.000082 0
0.001810 -0.000109 0
0.001882 -0.000145 0
0.001965 -0.000190 0
0.002045 -0.000231 0
0.002089 -0.000224 0
0.002011 -0.000040 0
0.001656 0.000567 0
0.000870 0.001497 0
0.000000 0.000990 0
0.000000 -0.000223 0
0.000190 -0.000579 0
0.000500 -0.000673 0
0.000787 -0.000533 0
0.000993 -0.000325 0
0.001111 -0.000140 0
0.001156 -0.000010 0
0.001154 0.000062 0
0.001128 0.000090 0
0.001093 0.000088 0
0.001060 0.000072 0
0.001033 0.000052 0
0.001014 0.000034 0
0.001001 0.000020 0
0.000992 0.000012 0
0.000986 0.000008 0
0.000979 0.000008 0
0.000972 0.000009 0
0.000964 0.000012 0
0.000953 0.000015 0
0.000941 0.000019 0
0.000927 0.000022 0
0.000911 0.000025 0
0.000893 0.000029 0
0.000872 0.000033 0
0.000847 0.000039 0
0.000819 0.000047 0
0.000784 0.000060 0
0.000741 0.000080 0
0.000686 0.000109 0
0.000616 0.000150 0
0.000527 0.000203 0
0.000419 0.000259 0
0.000295 0.000301 0
0.000166 0.000300 0
0.000056 0.000214 0
0.000000 0.000072 0
0.000000 0.000000 0
0.000000 0.000000 0
0.000000 0.000000 0
0.000000 -0.000096 0
0.000134 -0.000380 0
0.000462 -0.000706 0
0.000913 -0.000903 0
0.001411 -0.000951 0
0.001891 -0.000871 0
0.002305 -0.000703 0
0.002625 -0.000493 0
0.002840 -0.000277 0
0.002953 -0.000084 0
0.002978 0.000071 0
0.002934 0.000183 0
0.002840 0.000253 0
0.002716 0.000285 0
0.002578 0.000286 0
0.002442 0.000266 0
0.002317 0.000230 0
0.002209 0.000186 0
0.002123 0.000141 0
0.002058 0.000098 0
0.002013 0.000060 0
0.001985 0.000028 0
0.001971 0.000005 0
0.001967 -0.000011 0
0.001970 -0.000021 0
0.001976 -0.000025 0
0.001984 -0.000025 0
0.001992 -0.000023 0
0.001998 -0.000019 0
0.002002 -0.000015 0
0.002005 -0.000011 0
0.002006 -0.000007 0
0.002005 -0.000005 0
0.002004 -0.000003 0
0.002002 -0.000003 0
0.002000 -0.000003 0
0.001999 -0.000004 0
0.001998 -0.000006 0
0.001999 -0.000009 0
0.002000 -0.000012 0
0.002004 -0.000016 0
0.002009 -0.000021 0
0.002017 -0.000026 0
0.002027 -0.000033 0
0.002040 -0.000042 0
0.002058 -0.000052 0
0.002080 -0.000066 0
0.002107 -0.000083 0
0.002140 -0.000105 0
0.002180 -0.000134 0
0.002225 -0.000170 0
0.002273 -0.000211 0
0.002312 -0.000246 0
0.002318 -0.000244 0
0.002241 -0.000124 0
0.001995 0.000289 0
0.001471 0.001225 0
0.000656 0.002292 0
0.000000 0.001366 0
0.000000 -0.000319 0
0.000186 -0.000831 0
0.000491 -0.000975 0
0.000775 -0.000784 0
0.000981 -0.000492 0
0.001100 -0.000226 0
0.001150 -0.000036 0
0.001152 0.000073 0
0.001130 0.000118 0
0.001099 0.000121 0
0.001070 0.000101 0
0.001045 0.000074 0
0.001027 0.000050 0
0.001013 0.000031 0
0.001002 0.000020 0
0.000993 0.000016 0
0.000983 0.000016 0
0.000973 0.000019 0
0.000960 0.000023 0
0.000946 0.000028 0
0.000929 0.000034 0
0.000911 0.000039 0
0.000890 0.000045 0
0.000866 0.000051 0
0.000840 0.000059 0
0.000809 0.000069 0
0.000774 0.000083 0
0.000733 0.000103 0
0.000684 0.000133 0
0.000623 0.000176 0
0.000550 0.000233 0
0.000461 0.000303 0
0.000358 0.000374 0
0.000246 0.000424 0
0.000135 0.000413 0
0.000043 0.000291 0
0.000000 0.000098 0
0.000000 0.000000 0
0.000000 0.000000 0
0.000000 0.000000 0
0.000000 -0.000170 0
0.000160 -0.000636 0
0.000544 -0.001131 0
0.001058 -0.001415 0
0.001615 -0.001475 0
0.002144 -0.001347 0
0.002596 -0.001094 0
0.002945 -0.000780 0
0.003183 -0.000457 0
0.003315 -0.000165 0
0.003354 0.000073 0
0.003318 0.000249 0
0.003230 0.000361 0
0.003107 0.000418 0
0.002969 0.000427 0
0.002830 0.000401 0
0.002701 0.000352 0
0.002589 0.000289 0
0.002498 0.000222 0
0.002428 0.000157 0
0.002378 0.000100 0
0.002345 0.000053 0
0.002325 0.000017 0
0.002316 -0.000008 0
0.002312 -0.000023 0
0.002312 -0.000030 0
0.002313 -0.000031 0
0.002314 -0.000027 0
0.002314 -0.000022 0
0.002312 -0.000016 0
0.002308 -0.000010 0
0.002304 -0.000005 0
0.002298 -0.000002 0
0.002292 0.000000 0
0.002285 0.000001 0
0.002279 0.000001 0
0.002273 -0.000001 0
0.002268 -0.000004 0
0.002264 -0.000008 0
0.002261 -0.000013 0
0.002260 -0.000018 0
0.002261 -0.000025 0
0.002263 -0.000033 0
0.002268 -0.000043 0
0.002275 -0.000055 0
0.002285 -0.000069 0
0.002298 -0.000087 0
0.002314 -0.000109 0
0.002333 -0.000135 0
0.002354 -0.000167 0
0.002374 -0.000202 0
0.002384 -0.000231 0
0.002372 -0.000234 0
0.002307 -0.000160 0
0.002141 0.000098 0
0.001803 0.000730 0
0.001232 0.001906 0
0.000490 0.002967 0
0.000000 0.001646 0
0.000000 -0.000410 0
0.000174 -0.001071 0
0.000459 -0.001263 0
0.000723 -0.001023 0
0.000912 -0.000650 0
0.001021 -0.000309 0
0.001065 -0.000062 0
0.001067 0.000081 0
0.001047 0.000142 0
0.001020 0.000149 0
0.000993 0.000126 0
0.000971 0.000095 0
0.000953 0.000066 0
0.000939 0.000044 0
0.000926 0.000032 0
0.000913 0.000027 0
0.000899 0.000028 0
0.000884 0.000032 0
0.000868 0.000039 0
0.000849 0.000046 0
0.000828 0.000053 0
0.000806 0.000061 0
0.000781 0.000069 0
0.000753 0.000079 0
0.000723 0.000090 0
0.000689 0.000104 0
0.000651 0.000123 0
0.000607 0.000151 0
0.000557 0.000189 0
0.000498 0.000243 0
0.000430 0.000312 0
0.000352 0.000394 0
0.000266 0.000474 0
0.000177 0.000524 0
0.000093 0.000502 0
0.000028 0.000348 0
0.000000 0.000115 0
0.000000 0.000000 0
0.000000 0.000000 0
0.000000 0.000000 0
0.000000 -0.000256 0
0.000177 -0.000924 0
0.000598 -0.001604 0
0.001151 -0.001973 0
0.001739 -0.002036 0
0.002287 -0.001851 0
0.002748 -0.001504 0
0.003101 -0.001080 0
0.003340 -0.000647 0
0.003473 -0.000255 0
0.003515 0.000067 0
0.003485 0.000307 0
0.003403 0.000464 0
0.003288 0.000545 0
0.003158 0.000564 0
0.003026 0.000534 0
0.002904 0.000471 0
0.002798 0.000390 0
0.002710 0.000302 0
0.002643 0.000218 0
0.002592 0.000143 0
0.002557 0.000081 0
0.002533 0.000034 0
0.002516 0.000002 0
0.002504 -0.000017 0
0.002495 -0.000026 0
0.002486 -0.000027 0
0.002477 -0.000024 0
0.002467 -0.000017 0
0.002455 -0.000010 0
0.002443 -0.000003 0
0.002431 0.000003 0
0.002418 0.000007 0
0.002404 0.000010 0
0.002392 0.000010 0
0.002380 0.000009 0
0.002368 0.000007 0
0.002358 0.000003 0
0.002348 -0.000002 0
0.002340 -0.000008 0
0.002332 -0.000015 0
0.002326 -0.000023 0
0.002322 -0.000033 0
0.002318 -0.000045 0
0.002316 -0.000059 0
0.002315 -0.000075 0
0.002315 -0.000095 0
0.002316 -0.000118 0
0.002317 -0.000145 0
0.002315 -0.000174 0
0.002306 -0.000200 0
0.002283 -0.000209 0
0.002231 -0.000168 0
0.002122 -0.000013 0
0.001914 0.000380 0
0.001554 0.001198 0
0.001008 0.002538 0
0.000368 0.003524 0
0.000000 0.001856 0
0.000000 -0.000493 0
0.000158 -0.001291 0
0.000416 -0.001525 0
0.000650 -0.001237 0
0.000813 -0.000790 0
0.000904 -0.000379 0
0.000938 -0.000083 0
0.000936 0.000090 0
0.000916 0.000164 0
0.000891 0.000174 0
0.000868 0.000149 0
0.000847 0.000114 0
0.000829 0.000082 0
0.000812 0.000059 0
0.000796 0.000046 0
0.000780 0.000042 0
0.000762 0.000044 0
0.000742 0.000050 0
0.000721 0.000058 0
0.000698 0.000067 0
0.000674 0.000077 0
0.000648 0.000087 0
0.000620 0.000097 0
0.000590 0.000109 0
0.000557 0.000123 0
0.000522 0.000141 0
0.000484 0.000164 0
0.000443 0.000197 0
0.000397 0.000242 0
0.000346 0.000302 0
0.000290 0.000379 0
0.000229 0.000467 0
0.000165 0.000549 0
0.000104 0.000596 0
0.000051 0.000561 0
0.000014 0.000384 0
0.000000 0.000126 0
0.000000 0.000000 0
0.000000 0.000000 0
0.000000 0.000000 0
0.000000 -0.000348 0
0.000189 -0.001234 0
0.000632 -0.002105 0
0.001205 -0.002556 0
0.001802 -0.002610 0
0.002346 -0.002357 0
0.002794 -0.001908 0
0.003128 -0.001371 0
0.003350 -0.000829 0
0.003470 -0.000340 0
0.003505 0.000062 0
0.003474 0.000361 0
0.003396 0.000559 0
0.003290 0.000663 0
0.003171 0.000689 0
0.003053 0.000655 0
0.002944 0.000580 0
0.002849 0.000483 0
0.002771 0.000377 0
0.002709 0.000275 0
0.002661 0.000186 0
0.002624 0.000113 0
0.002594 0.000058 0
0.002569 0.000021 0
0.002547 -0.000001 0
0.002525 -0.000011 0
0.002503 -0.000012 0
0.002481 -0.000008 0
0.002459 -0.000001 0
0.002436 0.000007 0
0.002414 0.000015 0
0.002392 0.000021 0
0.002370 0.000025 0
0.002350 0.000026 0
0.002330 0.000026 0
0.002312 0.000024 0
0.002295 0.000021 0
0.002278 0.000016 0
0.002263 0.000010 0
0.002249 0.000003 0
0.002235 -0.000005 0
0.002222 -0.000014 0
0.002210 -0.000025 0
0.002197 -0.000037 0
0.002185 -0.000051 0
0.002172 -0.000068 0
0.002159 -0.000087 0
0.002143 -0.000110 0
0.002125 -0.000134 0
0.002102 -0.000157 0
0.002072 -0.000171 0
0.002027 -0.000156 0
0.001956 -0.000073 0
0.001835 0.000157 0
0.001628 0.000667 0
0.001292 0.001637 0
0.000808 0.003092 0
0.000274 0.003976 0
0.000000 0.002014 0
0.000000 -0.000569 0
0.000141 -0.001487 0
0.000367 -0.001755 0
0.000567 -0.001421 0
0.000701 -0.000905 0
0.000770 -0.000433 0
0.000792 -0.000094 0
0.000784 0.000102 0
0.000764 0.000186 0
0.000741 0.000197 0
0.000718 0.000171 0
0.000698 0.000133 0
0.000679 0.000100 0
0.000660 0.000076 0
0.000640 0.000064 0
0.000620 0.000061 0
0.000597 0.000065 0
0.000573 0.000072 0
0.000548 0.000082 0
0.000522 0.000093 0
0.000495 0.000104 0
0.000467 0.000115 0
0.000437 0.000127 0
0.000406 0.000141 0
0.000374 0.000157 0
0.000340 0.000176 0
0.000305 0.000202 0
0.000269 0.000238 0
0.000231 0.000286 0
0.000191 0.000350 0
0.000150 0.000429 0
0.000109 0.000518 0
0.000071 0.000598 0
0.000038 0.000638 0
0.000015 0.000591 0
0.000002 0.000399 0
0.000000 0.000129 0
0.000000 0.000000 0
0.000000 0.000000 0
0.000000 0.000000 0
0.000000 -0.000444 0
0.000197 -0.001556 0
0.000651 -0.002620 0
0.001228 -0.003143 0
0.001815 -0.003176 0
0.002336 -0.002843 0
0.002752 -0.002287 0
0.003053 -0.001636 0
0.003245 -0.000989 0
0.003341 -0.000410 0
0.003360 0.000064 0
0.003322 0.000417 0
0.003245 0.000648 0
0.003146 0.000770 0
0.003039 0.000801 0
0.002935 0.000761 0
0.002841 0.000675 0
0.002759 0.000563 0
0.002691 0.000443 0
0.002635 0.000328 0
0.002588 0.000228 0
0.002547 0.000148 0
0.002510 0.000089 0
0.002473 0.000050 0
0.002437 0.000027 0
0.002400 0.000018 0
0.002363 0.000017 0
0.002327 0.000021 0
0.002291 0.000028 0
0.002256 0.000036 0
0.002224 0.000042 0
0.002193 0.000047 0
0.002164 0.000049 0
0.002137 0.000050 0
0.002112 0.000048 0
0.002089 0.000045 0
0.002067 0.000041 0
0.002046 0.000035 0
0.002026 0.000028 0
0.002007 0.000020 0
0.001988 0.000012 0
0.001969 0.000002 0
0.001949 -0.000008 0
0.001930 -0.000020 0
0.001908 -0.000033 0
0.001885 -0.000048 0
0.001859 -0.000065 0
0.001830 -0.000084 0
0.001797 -0.000104 0
0.001760 -0.000121 0
0.001717 -0.000125 0
0.001666 -0.000093 0
0.001598 0.000024 0
0.001493 0.000315 0
0.001319 0.000923 0
0.001036 0.002018 0
0.000630 0.003557 0
0.000198 0.004333 0
0.000000 0.002130 0
0.000000 -0.000635 0
0.000124 -0.001658 0
0.000317 -0.001950 0
0.000481 -0.001572 0
0.000585 -0.000994 0
0.000633 -0.000470 0
0.000642 -0.000097 0
0.000629 0.000118 0
0.000608 0.000208 0
0.000585 0.000219 0
0.000564 0.000192 0
0.000543 0.000153 0
0.000523 0.000120 0
0.000501 0.000097 0
0.000478 0.000086 0
0.000453 0.000085 0
0.000427 0.000090 0
0.000399 0.000099 0
0.000372 0.000109 0
0.000343 0.000121 0
0.000314 0.000132 0
0.000285 0.000145 0
0.000255 0.000158 0
0.000225 0.000172 0
0.000195 0.000188 0
0.000165 0.000209 0
0.000135 0.000235 0
0.000105 0.000271 0
0.000077 0.000320 0
0.000050 0.000383 0
0.000025 0.000461 0
0.000005 0.000546 0
-0.000010 0.000620 0
-0.000016 0.000652 0
-0.000014 0.000597 0
-0.000007 0.000398 0
0.000000 0.000128 0
0.000000 0.000000 0
0.000000 0.000000 0
0.000000 0.000000 0
0.000000 -0.000544 0
0.000201 -0.001885 0
0.000658 -0.003136 0
0.001225 -0.003719 0
0.001786 -0.003718 0
0.002268 -0.003294 0
0.002640 -0.002626 0
0.002895 -0.001863 0
0.003047 -0.001116 0
0.003112 -0.000455 0
0.003110 0.000081 0
0.003060 0.000477 0
0.002981 0.000735 0
0.002887 0.000869 0
0.002789 0.000900 0
0.002697 0.000854 0
0.002614 0.000757 0
0.002541 0.000632 0
0.002479 0.000501 0
0.002424 0.000378 0
0.002373 0.000274 0
0.002323 0.000191 0
0.002272 0.000132 0
0.002220 0.000094 0
0.002167 0.000072 0
0.002113 0.000063 0
0.002061 0.000061 0
0.002011 0.000065 0
0.001964 0.000070 0
0.001920 0.000075 0
0.001880 0.000078 0
0.001844 0.000080 0
0.001811 0.000080 0
0.001781 0.000078 0
0.001753 0.000075 0
0.001728 0.000070 0
0.001704 0.000064 0
0.001681 0.000057 0
0.001659 0.000050 0
0.001637 0.000042 0
0.001615 0.000033 0
0.001593 0.000024 0
0.001570 0.000014 0
0.001545 0.000004 0
0.001518 -0.000007 0
0.001488 -0.000019 0
0.001454 -0.000032 0
0.001416 -0.000047 0
0.001375 -0.000063 0
0.001332 -0.000077 0
0.001288 -0.000077 0
0.001246 -0.000036 0
0.001199 0.000100 0
0.001132 0.000436 0
0.001011 0.001124 0
0.000794 0.002326 0
0.000472 0.003930 0
0.000135 0.004606 0
0.000000 0.002212 0
0.000000 -0.000694 0
0.000108 -0.001805 0
0.000269 -0.002112 0
0.000398 -0.001690 0
0.000473 -0.001057 0
0.000501 -0.000490 0
0.000498 -0.000091 0
0.000480 0.000136 0
0.000458 0.000230 0
0.000437 0.000241 0
0.000415 0.000213 0
0.000394 0.000174 0
0.000372 0.000142 0
0.000347 0.000121 0
0.000321 0.000112 0
0.000293 0.000112 0
0.000265 0.000118 0
0.000235 0.000127 0
0.000206 0.000138 0
0.000176 0.000150 0
0.000147 0.000162 0
0.000118 0.000174 0
0.000090 0.000187 0
0.000063 0.000201 0
0.000036 0.000217 0
0.000010 0.000236 0
-0.000013 0.000261 0
-0.000034 0.000296 0
-0.000053 0.000341 0
-0.000067 0.000401 0
-0.000076 0.000474 0
-0.000078 0.000552 0
-0.000071 0.000618 0
-0.000056 0.000643 0
-0.000035 0.000582 0
-0.000013 0.000385 0
0.000000 0.000123 0
0.000000 0.000000 0
0.000000 0.000000 0
0.000000 0.000000 0
0.000000 -0.000646 0
0.000203 -0.002213 0
0.000652 -0.003643 0
0.001197 -0.004271 0
0.001719 -0.004220 0
0.002152 -0.003697 0
0.002469 -0.002914 0
0.002672 -0.002043 0
0.002779 -0.001205 0
0.002808 -0.000472 0
0.002782 0.000115 0
0.002719 0.000545 0
0.002633 0.000822 0
0.002538 0.000962 0
0.002443 0.000991 0
0.002354 0.000937 0
0.002274 0.000830 0
0.002202 0.000697 0
0.002135 0.000560 0
0.002070 0.000434 0
0.002005 0.000329 0
0.001938 0.000249 0
0.001869 0.000192 0
0.001798 0.000155 0
0.001728 0.000134 0
0.001660 0.000124 0
0.001596 0.000120 0
0.001538 0.000119 0
0.001485 0.000119 0
0.001439 0.000120 0
0.001398 0.000119 0
0.001362 0.000116 0
0.001331 0.000113 0
0.001303 0.000108 0
0.001278 0.000102 0
0.001255 0.000095 0
0.001233 0.000088 0
0.001212 0.000080 0
0.001192 0.000072 0
0.001172 0.000064 0
0.001151 0.000056 0
0.001130 0.000048 0
0.001107 0.000040 0
0.001082 0.000032 0
0.001053 0.000024 0
0.001022 0.000016 0
0.000985 0.000006 0
0.000945 -0.000005 0
0.000903 -0.000019 0