# vtk DataFile Version 2.0
generated by CFD-lab course output (written by Tobias Neckel) 
ASCII

DATASET STRUCTURED_GRID
DIMENSIONS  99 49 1 
POINTS 4851 float

0.000000 0.000000 0
0.020000 0.000000 0
0.040000 0.000000 0
0.060000 0.000000 0
0.080000 0.000000 0
0.100000 0.000000 0
0.120000 0.000000 0
0.140000 0.000000 0
0.160000 0.000000 0
0.180000 0.000000 0
0.200000 0.000000 0
0.220000 0.000000 0
0.240000 0.000000 0
0.260000 0.000000 0
0.280000 0.000000 0
0.300000 0.000000 0
0.320000 0.000000 0
0.340000 0.000000 0
0.360000 0.000000 0
0.380000 0.000000 0
0.400000 0.000000 0
0.420000 0.000000 0
0.440000 0.000000 0
0.460000 0.000000 0
0.480000 0.000000 0
0.500000 0.000000 0
0.520000 0.000000 0
0.540000 0.000000 0
0.560000 0.000000 0
0.580000 0.000000 0
0.600000 0.000000 0
0.620000 0.000000 0
0.640000 0.000000 0
0.660000 0.000000 0
0.680000 0.000000 0
0.700000 0.000000 0
0.720000 0.000000 0
0.740000 0.000000 0
0.760000 0.000000 0
0.780000 0.000000 0
0.800000 0.000000 0
0.820000 0.000000 0
0.840000 0.000000 0
0.860000 0.000000 0
0.880000 0.000000 0
0.900000 0.000000 0
0.920000 0.000000 0
0.940000 0.000000 0
0.960000 0.000000 0
0.980000 0.000000 0
1.000000 0.000000 0
1.020000 0.000000 0
1.040000 0.000000 0
1.060000 0.000000 0
1.080000 0.000000 0
1.100000 0.000000 0
1.120000 0.000000 0
1.140000 0.000000 0
1.160000 0.000000 0
1.180000 0.000000 0
1.200000 0.000000 0
1.220000 0.000000 0
1.240000 0.000000 0
1.260000 0.000000 0
1.280000 0.000000 0
1.300000 0.000000 0
1.320000 0.000000 0
1.340000 0.000000 0
1.360000 0.000000 0
1.380000 0.000000 0
1.400000 0.000000 0
1.420000 0.000000 0
1.440000 0.000000 0
1.460000 0.000000 0
1.480000 0.000000 0
1.500000 0.000000 0
1.520000 0.000000 0
1.540000 0.000000 0
1.560000 0.000000 0
1.580000 0.000000 0
1.600000 0.000000 0
1.620000 0.000000 0
1.640000 0.000000 0
1.660000 0.000000 0
1.680000 0.000000 0
1.700000 0.000000 0
1.720000 0.000000 0
1.740000 0.000000 0
1.760000 0.000000 0
1.780000 0.000000 0
1.800000 0.000000 0
1.820000 0.000000 0
1.840000 0.000000 0
1.860000 0.000000 0
1.880000 0.000000 0
1.900000 0.000000 0
1.920000 0.000000 0
1.940000 0.000000 0
1.960000 0.000000 0
0.000000 0.020000 0
0.020000 0.020000 0
0.040000 0.020000 0
0.060000 0.020000 0
0.080000 0.020000 0
0.100000 0.020000 0
0.120000 0.020000 0
0.140000 0.020000 0
0.160000 0.020000 0
0.180000 0.020000 0
0.200000 0.020000 0
0.220000 0.020000 0
0.240000 0.020000 0
0.260000 0.020000 0
0.280000 0.020000 0
0.300000 0.020000 0
0.320000 0.020000 0
0.340000 0.020000 0
0.360000 0.020000 0
0.380000 0.020000 0
0.400000 0.020000 0
0.420000 0.020000 0
0.440000 0.020000 0
0.460000 0.020000 0
0.480000 0.020000 0
0.500000 0.020000 0
0.520000 0.020000 0
0.540000 0.020000 0
0.560000 0.020000 0
0.580000 0.020000 0
0.600000 0.020000 0
0.620000 0.020000 0
0.640000 0.020000 0
0.660000 0.020000 0
0.680000 0.020000 0
0.700000 0.020000 0
0.720000 0.020000 0
0.740000 0.020000 0
0.760000 0.020000 0
0.780000 0.020000 0
0.800000 0.020000 0
0.820000 0.020000 0
0.840000 0.020000 0
0.860000 0.020000 0
0.880000 0.020000 0
0.900000 0.020000 0
0.920000 0.020000 0
0.940000 0.020000 0
0.960000 0.020000 0
0.980000 0.020000 0
1.000000 0.020000 0
1.020000 0.020000 0
1.040000 0.020000 0
1.060000 0.020000 0
1.080000 0.020000 0
1.100000 0.020000 0
1.120000 0.020000 0
1.140000 0.020000 0
1.160000 0.020000 0
1.180000 0.020000 0
1.200000 0.020000 0
1.220000 0.020000 0
1.240000 0.020000 0
1.260000 0.020000 0
1.280000 0.020000 0
1.300000 0.020000 0
1.320000 0.020000 0
1.340000 0.020000 0
1.360000 0.020000 0
1.380000 0.020000 0
1.400000 0.020000 0
1.420000 0.020000 0
1.440000 0.020000 0
1.460000 0.020000 0
1.480000 0.020000 0
1.500000 0.020000 0
1.520000 0.020000 0
1.540000 0.020000 0
1.560000 0.020000 0
1.580000 0.020000 0
1.600000 0.020000 0
1.620000 0.020000 0
1.640000 0.020000 0
1.660000 0.020000 0
1.680000 0.020000 0
1.700000 0.020000 0
1.720000 0.020000 0
1.740000 0.020000 0
1.760000 0.020000 0
1.780000 0.020000 0
1.800000 0.020000 0
1.820000 0.020000 0
1.840000 0.020000 0
1.860000 0.020000 0
1.880000 0.020000 0
1.900000 0.020000 0
1.920000 0.020000 0
1.940000 0.020000 0
1.960000 0.020000 0
0.000000 0.040000 0
0.020000 0.040000 0
0.040000 0.040000 0
0.060000 0.040000 0
0.080000 0.040000 0
0.100000 0.040000 0
0.120000 0.040000 0
0.140000 0.040000 0
0.160000 0.040000 0
0.180000 0.040000 0
0.200000 0.040000 0
0.220000 0.040000 0
0.240000 0.040000 0
0.260000 0.040000 0
0.280000 0.040000 0
0.300000 0.040000 0
0.320000 0.040000 0
0.340000 0.040000 0
0.360000 0.040000 0
0.380000 0.040000 0
0.400000 0.040000 0
0.420000 0.040000 0
0.440000 0.040000 0
0.460000 0.040000 0
0.480000 0.040000 0
0.500000 0.040000 0
0.520000 0.040000 0
0.540000 0.040000 0
0.560000 0.040000 0
0.580000 0.040000 0
0.600000 0.040000 0
0.620000 0.040000 0
0.640000 0.040000 0
0.660000 0.040000 0
0.680000 0.040000 0
0.700000 0.040000 0
0.720000 0.040000 0
0.740000 0.040000 0
0.760000 0.040000 0
0.780000 0.040000 0
0.800000 0.040000 0
0.820000 0.040000 0
0.840000 0.040000 0
0.860000 0.040000 0
0.880000 0.040000 0
0.900000 0.040000 0
0.920000 0.040000 0
0.940000 0.040000 0
0.960000 0.040000 0
0.980000 0.040000 0
1.000000 0.040000 0
1.020000 0.040000 0
1.040000 0.040000 0
1.060000 0.040000 0
1.080000 0.040000 0
1.100000 0.040000 0
1.120000 0.040000 0
1.140000 0.040000 0
1.160000 0.040000 0
1.180000 0.040000 0
1.200000 0.040000 0
1.220000 0.040000 0
1.240000 0.040000 0
1.260000 0.040000 0
1.280000 0.040000 0
1.300000 0.040000 0
1.320000 0.040000 0
1.340000 0.040000 0
1.360000 0.040000 0
1.380000 0.040000 0
1.400000 0.040000 0
1.420000 0.040000 0
1.440000 0.040000 0
1.460000 0.040000 0
1.480000 0.040000 0
1.500000 0.040000 0
1.520000 0.040000 0
1.540000 0.040000 0
1.560000 0.040000 0
1.580000 0.040000 0
1.600000 0.040000 0
1.620000 0.040000 0
1.640000 0.040000 0
1.660000 0.040000 0
1.680000 0.040000 0
1.700000 0.040000 0
1.720000 0.040000 0
1.740000 0.040000 0
1.760000 0.040000 0
1.780000 0.040000 0
1.800000 0.040000 0
1.820000 0.040000 0
1.840000 0.040000 0
1.860000 0.040000 0
1.880000 0.040000 0
1.900000 0.040000 0
1.920000 0.040000 0
1.940000 0.040000 0
1.960000 0.040000 0
0.000000 0.060000 0
0.020000 0.060000 0
0.040000 0.060000 0
0.060000 0.060000 0
0.080000 0.060000 0
0.100000 0.060000 0
0.120000 0.060000 0
0.140000 0.060000 0
0.160000 0.060000 0
0.180000 0.060000 0
0.200000 0.060000 0
0.220000 0.060000 0
0.240000 0.060000 0
0.260000 0.060000 0
0.280000 0.060000 0
0.300000 0.060000 0
0.320000 0.060000 0
0.340000 0.060000 0
0.360000 0.060000 0
0.380000 0.060000 0
0.400000 0.060000 0
0.420000 0.060000 0
0.440000 0.060000 0
0.460000 0.060000 0
0.480000 0.060000 0
0.500000 0.060000 0
0.520000 0.060000 0
0.540000 0.060000 0
0.560000 0.060000 0
0.580000 0.060000 0
0.600000 0.060000 0
0.620000 0.060000 0
0.640000 0.060000 0
0.660000 0.060000 0
0.680000 0.060000 0
0.700000 0.060000 0
0.720000 0.060000 0
0.740000 0.060000 0
0.760000 0.060000 0
0.780000 0.060000 0
0.800000 0.060000 0
0.820000 0.060000 0
0.840000 0.060000 0
0.860000 0.060000 0
0.880000 0.060000 0
0.900000 0.060000 0
0.920000 0.060000 0
0.940000 0.060000 0
0.960000 0.060000 0
0.980000 0.060000 0
1.000000 0.060000 0
1.020000 0.060000 0
1.040000 0.060000 0
1.060000 0.060000 0
1.080000 0.060000 0
1.100000 0.060000 0
1.120000 0.060000 0
1.140000 0.060000 0
1.160000 0.060000 0
1.180000 0.060000 0
1.200000 0.060000 0
1.220000 0.060000 0
1.240000 0.060000 0
1.260000 0.060000 0
1.280000 0.060000 0
1.300000 0.060000 0
1.320000 0.060000 0
1.340000 0.060000 0
1.360000 0.060000 0
1.380000 0.060000 0
1.400000 0.060000 0
1.420000 0.060000 0
1.440000 0.060000 0
1.460000 0.060000 0
1.480000 0.060000 0
1.500000 0.060000 0
1.520000 0.060000 0
1.540000 0.060000 0
1.560000 0.060000 0
1.580000 0.060000 0
1.600000 0.060000 0
1.620000 0.060000 0
1.640000 0.060000 0
1.660000 0.060000 0
1.680000 0.060000 0
1.700000 0.060000 0
1.720000 0.060000 0
1.740000 0.060000 0
1.760000 0.060000 0
1.780000 0.060000 0
1.800000 0.060000 0
1.820000 0.060000 0
1.840000 0.060000 0
1.860000 0.060000 0
1.880000 0.060000 0
1.900000 0.060000 0
1.920000 0.060000 0
1.940000 0.060000 0
1.960000 0.060000 0
0.000000 0.080000 0
0.020000 0.080000 0
0.040000 0.080000 0
0.060000 0.080000 0
0.080000 0.080000 0
0.100000 0.080000 0
0.120000 0.080000 0
0.140000 0.080000 0
0.160000 0.080000 0
0.180000 0.080000 0
0.200000 0.080000 0
0.220000 0.080000 0
0.240000 0.080000 0
0.260000 0.080000 0
0.280000 0.080000 0
0.300000 0.080000 0
0.320000 0.080000 0
0.340000 0.080000 0
0.360000 0.080000 0
0.380000 0.080000 0
0.400000 0.080000 0
0.420000 0.080000 0
0.440000 0.080000 0
0.460000 0.080000 0
0.480000 0.080000 0
0.500000 0.080000 0
0.520000 0.080000 0
0.540000 0.080000 0
0.560000 0.080000 0
0.580000 0.080000 0
0.600000 0.080000 0
0.620000 0.080000 0
0.640000 0.080000 0
0.660000 0.080000 0
0.680000 0.080000 0
0.700000 0.080000 0
0.720000 0.080000 0
0.740000 0.080000 0
0.760000 0.080000 0
0.780000 0.080000 0
0.800000 0.080000 0
0.820000 0.080000 0
0.840000 0.080000 0
0.860000 0.080000 0
0.880000 0.080000 0
0.900000 0.080000 0
0.920000 0.080000 0
0.940000 0.080000 0
0.960000 0.080000 0
0.980000 0.080000 0
1.000000 0.080000 0
1.020000 0.080000 0
1.040000 0.080000 0
1.060000 0.080000 0
1.080000 0.080000 0
1.100000 0.080000 0
1.120000 0.080000 0
1.140000 0.080000 0
1.160000 0.080000 0
1.180000 0.080000 0
1.200000 0.080000 0
1.220000 0.080000 0
1.240000 0.080000 0
1.260000 0.080000 0
1.280000 0.080000 0
1.300000 0.080000 0
1.320000 0.080000 0
1.340000 0.080000 0
1.360000 0.080000 0
1.380000 0.080000 0
1.400000 0.080000 0
1.420000 0.080000 0
1.440000 0.080000 0
1.460000 0.080000 0
1.480000 0.080000 0
1.500000 0.080000 0
1.520000 0.080000 0
1.540000 0.080000 0
1.560000 0.080000 0
1.580000 0.080000 0
1.600000 0.080000 0
1.620000 0.080000 0
1.640000 0.080000 0
1.660000 0.080000 0
1.680000 0.080000 0
1.700000 0.080000 0
1.720000 0.080000 0
1.740000 0.080000 0
1.760000 0.080000 0
1.780000 0.080000 0
1.800000 0.080000 0
1.820000 0.080000 0
1.840000 0.080000 0
1.860000 0.080000 0
1.880000 0.080000 0
[...]
POINT_DATA 4851 

VECTORS velocity float
0.000000 0.000000 0
0.000191 0.000000 0
0.000453 0.000000 0
0.000639 0.000000 0
0.000716 0.000000 0
0.000707 0.000000 0
0.000646 0.000000 0
0.000565 0.000000 0
0.000487 0.000000 0
0.000425 0.000000 0
0.000385 0.000000 0
0.000367 0.000000 0
0.000368 0.000000 0
0.000380 0.000000 0
0.000399 0.000000 0
0.000418 0.000000 0
0.000435 0.000000 0
0.000446 0.000000 0
0.000452 0.000000 0
0.000453 0.000000 0
0.000451 0.000000 0
0.000446 0.000000 0
0.000441 0.000000 0
0.000435 0.000000 0
0.000429 0.000000 0
0.000424 0.000000 0
0.000420 0.000000 0
0.000415 0.000000 0
0.000411 0.000000 0
0.000407 0.000000 0
0.000401 0.000000 0
0.000390 0.000000 0
0.000367 0.000000 0
0.000317 0.000000 0
0.000224 0.000000 0
0.000093 0.000000 0
0.000000 0.000000 0
0.000000 0.000000 0
0.000000 0.000000 0
0.000000 0.000000 0
0.000000 0.000000 0
0.000000 0.000000 0
0.000000 0.000000 0
0.000000 0.000000 0
0.000000 0.000000 0
-0.000000 0.000000 0
-0.000000 0.000000 0
-0.000000 0.000000 0
-0.000001 0.000000 0
-0.000001 0.000000 0
-0.000001 0.000000 0
-0.000002 0.000000 0
-0.000002 0.000000 0
-0.000002 0.000000 0
-0.000003 0.000000 0
-0.000003 0.000000 0
-0.000004 0.000000 0
-0.000004 0.000000 0
-0.000005 0.000000 0
-0.000005 0.000000 0
-0.000005 0.000000 0
-0.000005 0.000000 0
-0.000005 0.000000 0
-0.000004 0.000000 0
-0.000004 0.000000 0
-0.000003 0.000000 0
-0.000001 0.000000 0
0.000000 0.000000 0
0.000002 0.000000 0
0.000005 0.000000 0
0.000008 0.000000 0
0.000011 0.000000 0
0.000015 0.000000 0
0.000019 0.000000 0
0.000024 0.000000 0
0.000029 0.000000 0
0.000035 0.000000 0
0.000042 0.000000 0
0.000049 0.000000 0
0.000057 0.000000 0
0.000066 0.000000 0
0.000076 0.000000 0
0.000087 0.000000 0
0.000098 0.000000 0
0.000111 0.000000 0
0.000125 0.000000 0
0.000141 0.000000 0
0.000159 0.000000 0
0.000179 0.000000 0
0.000203 0.000000 0
0.000232 0.000000 0
0.000268 0.000000 0
0.000315 0.000000 0
0.000375 0.000000 0
0.000454 0.000000 0
0.000544 0.000000 0
0.000596 0.000000 0
0.000456 0.000000 0
0.000000 0.000000 0
0.000000 -0.000192 0
0.000512 -0.000454 0
0.001243 -0.000448 0
0.001808 -0.000264 0
0.002097 -0.000069 0
0.002138 0.000069 0
0.002013 0.000141 0
0.001806 0.000158 0
0.001586 0.000139 0
0.001399 0.000101 0
0.001270 0.000057 0
0.001204 0.000017 0
0.001192 -0.000013 0
0.001222 -0.000032 0
0.001273 -0.000039 0
0.001330 -0.000037 0
0.001381 -0.000028 0
0.001419 -0.000018 0
0.001440 -0.000008 0
0.001447 0.000000 0
0.001441 0.000006 0
0.001428 0.000009 0
0.001409 0.000011 0
0.001388 0.000011 0
0.001366 0.000010 0
0.001343 0.000009 0
0.001321 0.000008 0
0.001298 0.000008 0
0.001272 0.000008 0
0.001242 0.000010 0
0.001201 0.000016 0
0.001140 0.000033 0
0.001036 0.000072 0
0.000858 0.000143 0
0.000580 0.000224 0
0.000235 0.000223 0
0.000000 0.000092 0
0.000000 0.000000 0
0.000000 0.000000 0
0.000000 0.000000 0
0.000000 0.000000 0
0.000000 0.000000 0
0.000000 0.000000 0
0.000000 0.000000 0
-0.000000 0.000000 0
-0.000001 0.000001 0
-0.000001 0.000001 0
-0.000002 0.000001 0
-0.000003 0.000001 0
-0.000004 0.000001 0
-0.000005 0.000001 0
-0.000006 0.000001 0
-0.000008 0.000001 0
-0.000009 0.000001 0
-0.000011 0.000001 0
-0.000013 0.000001 0
-0.000014 0.000001 0
-0.000016 0.000001 0
-0.000017 0.000001 0
-0.000017 0.000001 0
-0.000018 0.000000 0
-0.000017 0.000000 0
-0.000016 -0.000000 0
-0.000014 -0.000001 0
-0.000011 -0.000001 0
-0.000007 -0.000002 0
-0.000002 -0.000003 0
0.000004 -0.000003 0
0.000012 -0.000004 0
0.000021 -0.000005 0
0.000032 -0.000006 0
0.000045 -0.000007 0
0.000059 -0.000008 0
0.000075 -0.000009 0
0.000093 -0.000010 0
0.000113 -0.000011 0
0.000136 -0.000012 0
0.000160 -0.000014 0
0.000187 -0.000015 0
0.000217 -0.000017 0
0.000250 -0.000018 0
0.000285 -0.000020 0
0.000324 -0.000022 0
0.000365 -0.000024 0
0.000411 -0.000027 0
0.000461 -0.000030 0
0.000516 -0.000033 0
0.000577 -0.000038 0
0.000646 -0.000044 0
0.000724 -0.000053 0
0.000814 -0.000065 0
0.000920 -0.000082 0
0.001044 -0.000107 0
0.001187 -0.000139 0
0.001340 -0.000168 0
0.001455 -0.000142 0
0.001401 0.000088 0
0.000914 0.000597 0
0.000000 0.000456 0
0.000000 -0.000513 0
0.000663 -0.001244 0
0.001664 -0.001297 0
0.002506 -0.000856 0
0.003007 -0.000330 0
0.003165 0.000084 0
0.003065 0.000331 0
0.002817 0.000426 0
0.002520 0.000405 0
0.002248 0.000315 0
0.002046 0.000195 0
0.001930 0.000077 0
0.001895 -0.000019 0
0.001923 -0.000082 0
0.001989 -0.000110 0
0.002070 -0.000109 0
0.002145 -0.000089 0
0.002202 -0.000060 0
0.002238 -0.000029 0
0.002250 -0.000002 0
0.002243 0.000018 0
0.002221 0.000032 0
0.002188 0.000039 0
0.002149 0.000042 0
0.002105 0.000043 0
0.002059 0.000044 0
0.002009 0.000045 0
0.001955 0.000048 0
0.001893 0.000055 0
0.001817 0.000070 0
0.001719 0.000101 0
0.001583 0.000165 0
0.001383 0.000280 0
0.001092 0.000454 0
0.000700 0.000623 0
0.000270 0.000579 0
0.000000 0.000234 0
0.000000 0.000000 0
0.000000 0.000000 0
0.000000 0.000000 0
0.000000 0.000000 0
0.000000 0.000000 0
0.000000 0.000001 0
-0.000000 0.000001 0
-0.000001 0.000001 0
-0.000002 0.000001 0
-0.000003 0.000002 0
-0.000004 0.000002 0
-0.000006 0.000002 0
-0.000008 0.000003 0
-0.000010 0.000003 0
-0.000012 0.000003 0
-0.000015 0.000003 0
-0.000018 0.000003 0
-0.000020 0.000004 0
-0.000023 0.000003 0
-0.000026 0.000003 0
-0.000028 0.000003 0
-0.000030 0.000002 0
-0.000031 0.000001 0
-0.000031 0.000000 0
-0.000030 -0.000001 0
-0.000027 -0.000003 0
-0.000023 -0.000005 0
-0.000017 -0.000007 0
-0.000009 -0.000009 0
0.000002 -0.000011 0
0.000014 -0.000014 0
0.000030 -0.000017 0
0.000048 -0.000020 0
0.000068 -0.000023 0
0.000092 -0.000026 0
0.000119 -0.000030 0
0.000149 -0.000034 0
0.000183 -0.000038 0
0.000220 -0.000042 0
0.000261 -0.000047 0
0.000306 -0.000051 0
0.000356 -0.000056 0
0.000410 -0.000062 0
0.000468 -0.000067 0
0.000532 -0.000074 0
0.000600 -0.000080 0
0.000674 -0.000087 0
0.000754 -0.000095 0
0.000840 -0.000105 0
0.000934 -0.000116 0
0.001036 -0.000129 0
0.001147 -0.000146 0
0.001269 -0.000168 0
0.001402 -0.000195 0
0.001545 -0.000230 0
0.001694 -0.000267 0
0.001832 -0.000295 0
0.001921 -0.000267 0
0.001877 -0.000061 0
0.001550 0.000542 0
0.000809 0.001401 0
0.000000 0.000914 0
0.000000 -0.000856 0
0.000667 -0.002119 0
0.001725 -0.002291 0
0.002666 -0.001608 0
0.003278 -0.000729 0
0.003530 0.000010 0
0.003491 0.000488 0
0.003266 0.000703 0
0.002964 0.000708 0
0.002668 0.000575 0
0.002436 0.000375 0
0.002291 0.000168 0
0.002235 -0.000007 0
0.002250 -0.000127 0
0.002311 -0.000186 0
0.002391 -0.000192 0
0.002468 -0.000162 0
0.002529 -0.000111 0
0.002565 -0.000056 0
0.002576 -0.000005 0
0.002564 0.000035 0
0.002532 0.000064 0
0.002487 0.000082 0
0.002431 0.000093 0
0.002369 0.000099 0
0.002299 0.000105 0
0.002223 0.000112 0
0.002138 0.000124 0
0.002040 0.000145 0
0.001923 0.000182 0
0.001778 0.000250 0
0.001589 0.000369 0
0.001338 0.000563 0
0.001009 0.000826 0
0.000612 0.001046 0
0.000220 0.000923 0
0.000000 0.000362 0
0.000000 0.000000 0
0.000000 0.000000 0
0.000000 0.000000 0
0.000000 0.000000 0
0.000000 0.000000 0
-0.000000 0.000001 0
-0.000001 0.000002 0
-0.000002 0.000002 0
-0.000003 0.000003 0
-0.000004 0.000003 0
-0.000006 0.000004 0
-0.000009 0.000004 0
-0.000011 0.000005 0
-0.000014 0.000006 0
-0.000017 0.000006 0
-0.000020 0.000006 0
-0.000024 0.000007 0
-0.000027 0.000007 0
-0.000031 0.000007 0
-0.000034 0.000006 0
-0.000037 0.000005 0
-0.000038 0.000004 0
-0.000039 0.000002 0
-0.000038 -0.000001 0
-0.000036 -0.000004 0
-0.000032 -0.000007 0
-0.000025 -0.000011 0
-0.000016 -0.000016 0
-0.000003 -0.000020 0
0.000012 -0.000026 0
0.000030 -0.000031 0
0.000052 -0.000037 0
0.000078 -0.000043 0
0.000107 -0.000050 0
0.000140 -0.000057 0
0.000178 -0.000064 0
0.000220 -0.000072 0
0.000266 -0.000081 0
0.000317 -0.000089 0
0.000374 -0.000099 0
0.000435 -0.000108 0
0.000502 -0.000118 0
0.000575 -0.000129 0
0.000653 -0.000140 0
0.000738 -0.000152 0
0.000828 -0.000164 0
0.000925 -0.000178 0
0.001028 -0.000193 0
0.001138 -0.000210 0
0.001256 -0.000229 0
0.001380 -0.000251 0
0.001511 -0.000277 0
0.001648 -0.000307 0
0.001787 -0.000341 0
0.001923 -0.000374 0
0.002041 -0.000394 0
0.002112 -0.000367 0
0.002086 -0.000213 0
0.001878 0.000230 0
0.001387 0.001157 0
0.000616 0.002147 0
0.000000 0.001265 0
0.000000 -0.001181 0
0.000620 -0.002971 0
0.001640 -0.003297 0
0.002577 -0.002409 0
0.003221 -0.001195 0
0.003524 -0.000130 0
0.003536 0.000595 0
0.003352 0.000952 0
0.003073 0.001003 0
0.002787 0.000843 0
0.002551 0.000571 0
0.002396 0.000277 0
0.002324 0.000022 0
0.002322 -0.000158 0
0.002366 -0.000250 0
0.002430 -0.000267 0
0.002494 -0.000228 0
0.002543 -0.000157 0
0.002568 -0.000077 0
0.002568 -0.000001 0
0.002544 0.000062 0
0.002500 0.000108 0
0.002442 0.000140 0
0.002371 0.000160 0
0.002292 0.000175 0
0.002203 0.000189 0
0.002105 0.000206 0
0.001996 0.000231 0
0.001872 0.000269 0
0.001728 0.000332 0
0.001558 0.000435 0
0.001350 0.000604 0
0.001093 0.000861 0
0.000783 0.001180 0
0.000445 0.001411 0
0.000145 0.001191 0
0.000000 0.000454 0
0.000000 0.000000 0
0.000000 0.000000 0
0.000000 0.000000 0
0.000000 0.000000 0
0.000000 0.000001 0
-0.000000 0.000001 0
-0.000001 0.000002 0
-0.000002 0.000003 0
-0.000004 0.000004 0
-0.000006 0.000005 0
-0.000008 0.000006 0
-0.000010 0.000007 0
-0.000013 0.000008 0
-0.000016 0.000009 0
-0.000020 0.000010 0
-0.000024 0.000010 0
-0.000027 0.000011 0
-0.000031 0.000011 0
-0.000035 0.000010 0
-0.000038 0.000009 0
-0.000041 0.000007 0
-0.000042 0.000005 0
-0.000042 0.000002 0
-0.000041 -0.000003 0
-0.000037 -0.000008 0
-0.000030 -0.000014 0
-0.000021 -0.000021 0
-0.000008 -0.000028 0
0.000008 -0.000036 0
0.000028 -0.000045 0
0.000052 -0.000054 0
0.000079 -0.000064 0
0.000111 -0.000075 0
0.000148 -0.000085 0
0.000189 -0.000097 0
0.000235 -0.000109 0
0.000286 -0.000122 0
0.000342 -0.000135 0
0.000404 -0.000149 0
0.000472 -0.000164 0
0.000546 -0.000180 0
0.000625 -0.000196 0
0.000712 -0.000213 0
0.000804 -0.000230 0
0.000903 -0.000248 0
0.001008 -0.000267 0
0.001120 -0.000287 0
0.001237 -0.000309 0
0.001361 -0.000332 0
0.001490 -0.000357 0
0.001622 -0.000384 0
0.001757 -0.000414 0
0.001890 -0.000444 0
0.002015 -0.000471 0
0.002121 -0.000483 0
0.002188 -0.000456 0
0.002183 -0.000341 0
0.002058 -0.000033 0
0.001744 0.000639 0
0.001191 0.001804 0
0.000473 0.002788 0
0.000000 0.001531 0
0.000000 -0.001477 0
0.000560 -0.003759 0
0.001499 -0.004249 0
0.002377 -0.003189 0
0.002999 -0.001676 0
0.003315 -0.000305 0
0.003360 0.000660 0
0.003214 0.001165 0
0.002970 0.001272 0
0.002708 0.001097 0
0.002485 0.000766 0
0.002330 0.000394 0
0.002248 0.000066 0
0.002228 -0.000169 0
0.002249 -0.000294 0
0.002289 -0.000321 0
0.002328 -0.000274 0
0.002353 -0.000185 0
0.002358 -0.000081 0
0.002339 0.000018 0
0.002298 0.000102 0
0.002240 0.000166 0
0.002168 0.000211 0
0.002084 0.000243 0
0.001992 0.000267 0
0.001889 0.000291 0
0.001777 0.000319 0
0.001654 0.000357 0
0.001518 0.000412 0
0.001367 0.000496 0
0.001195 0.000628 0
0.000997 0.000834 0
0.000769 0.001129 0
0.000516 0.001473 0
0.000266 0.001683 0
0.000074 0.001367 0
0.000000 0.000507 0
0.000000 0.000000 0
0.000000 0.000000 0
0.000000 0.000000 0
0.000000 0.000000 0
0.000000 0.000001 0
-0.000000 0.000002 0
-0.000001 0.000004 0
-0.000003 0.000005 0
-0.000004 0.000006 0
-0.000006 0.000008 0
-0.000008 0.000009 0
-0.000011 0.000010 0
-0.000014 0.000011 0
-0.000017 0.000012 0
-0.000021 0.000013 0
-0.000025 0.000014 0
-0.000028 0.000015 0
-0.000032 0.000014 0
-0.000036 0.000014 0
-0.000039 0.000012 0
-0.000041 0.000009 0
-0.000041 0.000005 0
-0.000040 0.000000 0
-0.000037 -0.000006 0
-0.000032 -0.000014 0
-0.000023 -0.000023 0
-0.000011 -0.000033 0
0.000005 -0.000044 0
0.000025 -0.000056 0
0.000049 -0.000069 0
0.000077 -0.000083 0
0.000110 -0.000097 0
0.000147 -0.000112 0
0.000189 -0.000127 0
0.000236 -0.000144 0
0.000288 -0.000161 0
0.000346 -0.000180 0
0.000409 -0.000199 0
0.000479 -0.000219 0
0.000554 -0.000240 0
0.000636 -0.000262 0
0.000725 -0.000284 0
0.000820 -0.000307 0
0.000921 -0.000331 0
0.001029 -0.000356 0
0.001143 -0.000381 0
0.001263 -0.000407 0
0.001388 -0.000434 0
0.001517 -0.000462 0
0.001649 -0.000490 0
0.001780 -0.000518 0
0.001909 -0.000544 0
0.002028 -0.000565 0
0.002129 -0.000572 0
0.002199 -0.000546 0
0.002215 -0.000456 0
0.002148 -0.000237 0
0.001953 0.000226 0
0.001585 0.001097 0
0.001025 0.002428 0
0.000376 0.003338 0
0.000000 0.001738 0
0.000000 -0.001742 0
0.000500 -0.004470 0
0.001340 -0.005114 0
0.002131 -0.003909 0
0.002700 -0.002133 0
0.003001 -0.000490 0
0.003062 0.000695 0
0.002948 0.001342 0
0.002741 0.001509 0
0.002510 0.001327 0
0.002306 0.000950 0
0.002158 0.000513 0
0.002069 0.000123 0
0.002031 -0.000159 0
0.002027 -0.000312 0
0.002037 -0.000346 0
0.002045 -0.000293 0
0.002041 -0.000187 0
0.002018 -0.000062 0
0.001976 0.000058 0
0.001916 0.000160 0
0.001843 0.000238 0
0.001758 0.000295 0
0.001665 0.000336 0
0.001564 0.000370 0
0.001456 0.000403 0
0.001339 0.000441 0
0.001214 0.000489 0
0.001081 0.000557 0
0.000939 0.000655 0
0.000786 0.000804 0
0.000620 0.001030 0
0.000442 0.001341 0
0.000262 0.001683 0
0.000108 0.001853 0
0.000016 0.001457 0
0.000000 0.000528 0
0.000000 0.000000 0
0.000000 0.000000 0
0.000000 0.000000 0
0.000000 0.000000 0
0.000000 0.000001 0
-0.000001 0.000003 0
-0.000001 0.000005 0
-0.000003 0.000006 0
-0.000004 0.000008 0
-0.000006 0.000010 0
-0.000008 0.000011 0
-0.000011 0.000013 0
-0.000014 0.000014 0
-0.000017 0.000016 0
-0.000020 0.000017 0
-0.000023 0.000018 0
-0.000027 0.000018 0
-0.000030 0.000018 0
-0.000033 0.000017 0
-0.000035 0.000014 0
-0.000036 0.000010 0
-0.000036 0.000005 0
-0.000034 -0.000002 0
-0.000029 -0.000011 0
-0.000022 -0.000022 0
-0.000011 -0.000035 0
0.000004 -0.000048 0
0.000023 -0.000064 0
0.000046 -0.000080 0
0.000074 -0.000097 0
0.000106 -0.000115 0
0.000142 -0.000134 0
0.000183 -0.000154 0
0.000229 -0.000174 0
0.000280 -0.000196 0
0.000336 -0.000219 0
0.000398 -0.000243 0
0.000466 -0.000268 0
0.000539 -0.000294 0
0.000620 -0.000322 0
0.000707 -0.000350 0
0.000800 -0.000379 0
0.000900 -0.000409 0
0.001007 -0.000439 0
0.001119 -0.000470 0
0.001238 -0.000501 0
0.001361 -0.000532 0
0.001488 -0.000562 0
0.001617 -0.000592 0
0.001746 -0.000620 0
0.001871 -0.000644 0
0.001988 -0.000661 0
0.002089 -0.000664 0
0.002165 -0.000641 0
0.002201 -0.000569 0
0.002176 -0.000405 0
0.002062 -0.000078 0
0.001826 0.000530 0
0.001436 0.001567 0
0.000894 0.003012 0
0.000311 0.003814 0
0.000000 0.001907 0
0.000000 -0.001977 0
0.000442 -0.005100 0
0.001177 -0.005879 0
0.001869 -0.004549 0
0.002369 -0.002546 0
0.002642 -0.000667 0
0.002707 0.000712 0
0.002620 0.001486 0
0.002448 0.001711 0
0.002249 0.001531 0
0.002067 0.001118 0
0.001927 0.000631 0
0.001833 0.000192 0
0.001776 -0.000126 0
0.001745 -0.000300 0
0.001723 -0.000339 0
0.001697 -0.000279 0
0.001661 -0.000159 0
0.001610 -0.000017 0
0.001543 0.000120 0
0.001466 0.000235 0
0.001379 0.000323 0
0.001286 0.000388 0
0.001188 0.000436 0
0.001085 0.000477 0
0.000977 0.000516 0
0.000865 0.000560 0
0.000750 0.000615 0
0.000633 0.000687 0
0.000514 0.000790 0
0.000395 0.000946 0
0.000273 0.001177 0
0.000153 0.001487 0
0.000048 0.001807 0
-0.000018 0.001929 0
-0.000026 0.001475 0
0.000000 0.000523 0
0.000000 0.000000 0
0.000000 0.000000 0
0.000000 0.000000 0
0.000000 0.000000 0
0.000000 0.000002 0
-0.000000 0.000004 0
-0.000001 0.000006 0
-0.000002 0.000008 0
-0.000004 0.000010 0
-0.000005 0.000012 0
-0.000007 0.000014 0
-0.000009 0.000015 0
-0.000012 0.000017 0
-0.000014 0.000019 0
-0.000017 0.000020 0
-0.000020 0.000021 0
-0.000023 0.000021 0
-0.000025 0.000021 0
-0.000027 0.000019 0
-0.000029 0.000016 0
-0.000029 0.000010 0
-0.000028 0.000003 0
-0.000024 -0.000006 0
-0.000018 -0.000018 0
-0.000008 -0.000032 0
0.000005 -0.000049 0
0.000023 -0.000067 0
0.000045 -0.000086 0
0.000071 -0.000107 0
0.000101 -0.000128 0
0.000136 -0.000151 0
0.000175 -0.000174 0
0.000218 -0.000199 0
0.000266 -0.000224 0
0.000319 -0.000251 0
0.000377 -0.000279 0
0.000441 -0.000309 0
0.000510 -0.000340 0
0.000586 -0.000373 0
0.000668 -0.000407 0
0.000756 -0.000442 0
0.000852 -0.000478 0
0.000954 -0.000514 0
0.001062 -0.000551 0
0.001176 -0.000587 0
0.001295 -0.000623 0
0.001418 -0.000657 0
0.001544 -0.000690 0
0.001670 -0.000719 0
0.001793 -0.000744 0
0.001909 -0.000760 0
0.002013 -0.000763 0
0.002097 -0.000742 0
0.002150 -0.000683 0
0.002158 -0.000557 0
0.002102 -0.000318 0
0.001958 0.000114 0
0.001699 0.000853 0
0.001307 0.002029 0
0.000791 0.003554 0
0.000265 0.004232 0
0.000000 0.002049 0
0.000000 -0.002184 0
0.000386 -0.005649 0
0.001018 -0.006541 0
0.001608 -0.005101 0
0.002036 -0.002907 0
0.002275 -0.000828 0
0.002340 0.000717 0
0.002276 0.001601 0
0.002135 0.001880 0
0.001966 0.001707 0
0.001806 0.001271 0
0.001673 0.000748 0
0.001571 0.000274 0
0.001496 -0.000071 0
0.001436 -0.000258 0
0.001382 -0.000299 0
0.001323 -0.000231 0
0.001255 -0.000100 0
0.001177 0.000055 0
0.001090 0.000202 0
0.000998 0.000324 0
0.000904 0.000417 0
0.000807 0.000486 0
0.000710 0.000537 0
0.000611 0.000581 0
0.000511 0.000623 0
0.000412 0.000668 0
0.000316 0.000722 0
0.000224 0.000792 0
0.000138 0.000893 0
0.000057 0.001045 0
-0.000018 0.001272 0
-0.000081 0.001566 0
-0.000117 0.001853 0
-0.000108 0.001927 0
-0.000053 0.001439 0
0.000000 0.000502 0
0.000000 0.000000 0
0.000000 0.000000 0
0.000000 0.000000 0
0.000000 0.000001 0
0.000000 0.000002 0
-0.000000 0.000005 0
-0.000001 0.000007 0
-0.000002 0.000009 0
-0.000003 0.000011 0
-0.000004 0.000013 0
-0.000006 0.000016 0
-0.000007 0.000018 0
-0.000009 0.000020 0
-0.000011 0.000021 0
-0.000013 0.000023 0
-0.000015 0.000024 0
-0.000017 0.000024 0
-0.000018 0.000023 0
-0.000019 0.000020 0
-0.000020 0.000016 0
-0.000019 0.000009 0
-0.000016 0.000000 0
-0.000011 -0.000012 0
-0.000003 -0.000027 0
0.000008 -0.000045 0
0.000024 -0.000065 0
0.000044 -0.000087 0
0.000068 -0.000111 0
0.000097 -0.000136 0
0.000129 -0.000162 0
0.000166 -0.000189 0
0.000207 -0.000216 0
0.000251 -0.000245 0
0.000300 -0.000275 0
0.000353 -0.000307 0
0.000411 -0.000340 0
0.000474 -0.000376 0
0.000542 -0.000413 0
0.000617 -0.000452 0
0.000698 -0.000492 0
0.000786 -0.000534 0
0.000881 -0.000576 0
0.000982 -0.000619 0
0.001089 -0.000662 0
0.001201 -0.000703 0
0.001319 -0.000743 0
0.001440 -0.000780 0
0.001562 -0.000814 0
0.001683 -0.000841 0
0.001799 -0.000859 0
0.001906 -0.000864 0
0.001999 -0.000849 0
0.002067 -0.000801 0
0.002102 -0.000702 0
0.002089 -0.000520 0
0.002012 -0.000205 0
0.001849 0.000324 0
0.001582 0.001181 0
0.001196 0.002475 0
0.000710 0.004054 0
0.000231 0.004605 0
0.000000 0.002172 0
0.000000 -0.002364 0
0.000332 -0.006119 0
0.000866 -0.007102 0
0.001359 -0.005567 0
0.001718 -0.003214 0
0.001924 -0.000971 0
0.001989 0.000711 0
0.001945 0.001690 0
0.001833 0.002019 0
0.001692 0.001860 0
0.001548 0.001412 0
0.001419 0.000866 0
0.001308 0.000369 0
0.001212 0.000008 0
0.001125 -0.000186 0
0.001040 -0.000226 0
0.000950 -0.000153 0
0.000855 -0.000013 0
0.000755 0.000148 0
0.000654 0.000299 0
0.000554 0.000422 0
0.000456 0.000514 0
0.000361 0.000582 0
0.000269 0.000633 0
0.000180 0.000675 0
0.000095 0.000715 0
0.000015 0.000756 0
-0.000056 0.000803 0
-0.000118 0.000865 0
-0.000169 0.000957 0
-0.000211 0.001101 0
-0.000241 0.001315 0
-0.000253 0.001586 0
-0.000232 0.001834 0
-0.000167 0.001865 0
-0.000069 0.001366 0
0.000000 0.000470 0
0.000000 0.000000 0
0.000000 0.000000 0
0.000000 0.000000 0
0.000000 0.000001 0
0.000000 0.000003 0
-0.000000 0.000005 0
-0.000001 0.000007 0
-0.000001 0.000010 0
-0.000002 0.000012 0
-0.000003 0.000015 0
-0.000003 0.000017 0
-0.000004 0.000019 0
-0.000005 0.000021 0
-0.000006 0.000023 0
-0.000007 0.000024 0
-0.000008 0.000025 0
-0.000009 0.000025 0
-0.000009 0.000024 0
-0.000010 0.000021 0
-0.000009 0.000015 0
-0.000007 0.000007 0
-0.000003 -0.000004 0
0.000003 -0.000019 0
0.000013 -0.000038 0
0.000026 -0.000060 0
0.000044 -0.000084 0
0.000066 -0.000111 0
0.000093 -0.000139 0
0.000123 -0.000168 0
0.000158 -0.000197 0
0.000195 -0.000228 0
0.000236 -0.000259 0
0.000280 -0.000291 0
0.000328 -0.000326 0
0.000379 -0.000362 0
0.000435 -0.000400 0
0.000495 -0.000441 0
0.000561 -0.000484 0