# vtk DataFile Version 2.0
generated by CFD-lab course output (written by Tobias Neckel) 
ASCII

DATASET STRUCTURED_GRID
DIMENSIONS  99 49 1 
POINTS 4851 float

0.000000 0.000000 0
0.020000 0.000000 0
0.040000 0.000000 0
0.060000 0.000000 0
0.080000 0.000000 0
0.100000 0.000000 0
0.120000 0.000000 0
0.140000 0.000000 0
0.160000 0.000000 0
0.180000 0.000000 0
0.200000 0.000000 0
0.220000 0.000000 0
0.240000 0.000000 0
0.260000 0.000000 0
0.280000 0.000000 0
0.300000 0.000000 0
0.320000 0.000000 0
0.340000 0.000000 0
0.360000 0.000000 0
0.380000 0.000000 0
0.400000 0.000000 0
0.420000 0.000000 0
0.440000 0.000000 0
0.460000 0.000000 0
0.480000 0.000000 0
0.500000 0.000000 0
0.520000 0.000000 0
0.540000 0.000000 0
0.560000 0.000000 0
0.580000 0.000000 0
0.600000 0.000000 0
0.620000 0.000000 0
0.640000 0.000000 0
0.660000 0.000000 0
0.680000 0.000000 0
0.700000 0.000000 0
0.720000 0.000000 0
0.740000 0.000000 0
0.760000 0.000000 0
0.780000 0.000000 0
0.800000 0.000000 0
0.820000 0.000000 0
0.840000 0.000000 0
0.860000 0.000000 0
0.880000 0.000000 0
0.900000 0.000000 0
0.920000 0.000000 0
0.940000 0.000000 0
0.960000 0.000000 0
0.980000 0.000000 0
1.000000 0.000000 0
1.020000 0.000000 0
1.040000 0.000000 0
1.060000 0.000000 0
1.080000 0.000000 0
1.100000 0.000000 0
1.120000 0.000000 0
1.140000 0.000000 0
1.160000 0.000000 0
1.180000 0.000000 0
1.200000 0.000000 0
1.220000 0.000000 0
1.240000 0.000000 0
1.260000 0.000000 0
1.280000 0.000000 0
1.300000 0.000000 0
1.320000 0.000000 0
1.340000 0.000000 0
1.360000 0.000000 0
1.380000 0.000000 0
1.400000 0.000000 0
1.420000 0.000000 0
1.440000 0.000000 0
1.460000 0.000000 0
1.480000 0.000000 0
1.500000 0.000000 0
1.520000 0.000000 0
1.540000 0.000000 0
1.560000 0.000000 0
1.580000 0.000000 0
1.600000 0.000000 0
1.620000 0.000000 0
1.640000 0.000000 0
1.660000 0.000000 0
1.680000 0.000000 0
1.700000 0.000000 0
1.720000 0.000000 0
1.740000 0.000000 0
1.760000 0.000000 0
1.780000 0.000000 0
1.800000 0.000000 0
1.820000 0.000000 0
1.840000 0.000000 0
1.860000 0.000000 0
1.880000 0.000000 0
1.900000 0.000000 0
1.920000 0.000000 0
1.940000 0.000000 0
1.960000 0.000000 0
0.000000 0.020000 0
0.020000 0.020000 0
0.040000 0.020000 0
0.060000 0.020000 0
0.080000 0.020000 0
0.100000 0.020000 0
0.120000 0.020000 0
0.140000 0.020000 0
0.160000 0.020000 0
0.180000 0.020000 0
0.200000 0.020000 0
0.220000 0.020000 0
0.240000 0.020000 0
0.260000 0.020000 0
0.280000 0.020000 0
0.300000 0.020000 0
0.320000 0.020000 0
0.340000 0.020000 0
0.360000 0.020000 0
0.380000 0.020000 0
0.400000 0.020000 0
0.420000 0.020000 0
0.440000 0.020000 0
0.460000 0.020000 0
0.480000 0.020000 0
0.500000 0.020000 0
0.520000 0.020000 0
0.540000 0.020000 0
0.560000 0.020000 0
0.580000 0.020000 0
0.600000 0.020000 0
0.620000 0.020000 0
0.640000 0.020000 0
0.660000 0.020000 0
0.680000 0.020000 0
0.700000 0.020000 0
0.720000 0.020000 0
0.740000 0.020000 0
0.760000 0.020000 0
0.780000 0.020000 0
0.800000 0.020000 0
0.820000 0.020000 0
0.840000 0.020000 0
0.860000 0.020000 0
0.880000 0.020000 0
0.900000 0.020000 0
0.920000 0.020000 0
0.940000 0.020000 0
0.960000 0.020000 0
0.980000 0.020000 0
1.000000 0.020000 0
1.020000 0.020000 0
1.040000 0.020000 0
1.060000 0.020000 0
1.080000 0.020000 0
1.100000 0.020000 0
1.120000 0.020000 0
1.140000 0.020000 0
1.160000 0.020000 0
1.180000 0.020000 0
1.200000 0.020000 0
1.220000 0.020000 0
1.240000 0.020000 0
1.260000 0.020000 0
1.280000 0.020000 0
1.300000 0.020000 0
1.320000 0.020000 0
1.340000 0.020000 0
1.360000 0.020000 0
1.380000 0.020000 0
1.400000 0.020000 0
1.420000 0.020000 0
1.440000 0.020000 0
1.460000 0.020000 0
1.480000 0.020000 0
1.500000 0.020000 0
1.520000 0.020000 0
1.540000 0.020000 0
1.560000 0.020000 0
1.580000 0.020000 0
1.600000 0.020000 0
1.620000 0.020000 0
1.640000 0.020000 0
1.660000 0.020000 0
1.680000 0.020000 0
1.700000 0.020000 0
1.720000 0.020000 0
1.740000 0.020000 0
1.760000 0.020000 0
1.780000 0.020000 0
1.800000 0.020000 0
1.820000 0.020000 0
1.840000 0.020000 0
1.860000 0.020000 0
1.880000 0.020000 0
1.900000 0.020000 0
1.920000 0.020000 0
1.940000 0.020000 0
1.960000 0.020000 0
0.000000 0.040000 0
0.020000 0.040000 0
0.040000 0.040000 0
0.060000 0.040000 0
0.080000 0.040000 0
0.100000 0.040000 0
0.120000 0.040000 0
0.140000 0.040000 0
0.160000 0.040000 0
0.180000 0.040000 0
0.200000 0.040000 0
0.220000 0.040000 0
0.240000 0.040000 0
0.260000 0.040000 0
0.280000 0.040000 0
0.300000 0.040000 0
0.320000 0.040000 0
0.340000 0.040000 0
0.360000 0.040000 0
0.380000 0.040000 0
0.400000 0.040000 0
0.420000 0.040000 0
0.440000 0.040000 0
0.460000 0.040000 0
0.480000 0.040000 0
0.500000 0.040000 0
0.520000 0.040000 0
0.540000 0.040000 0
0.560000 0.040000 0
0.580000 0.040000 0
0.600000 0.040000 0
0.620000 0.040000 0
0.640000 0.040000 0
0.660000 0.040000 0
0.680000 0.040000 0
0.700000 0.040000 0
0.720000 0.040000 0
0.740000 0.040000 0
0.760000 0.040000 0
0.780000 0.040000 0
0.800000 0.040000 0
0.820000 0.040000 0
0.840000 0.040000 0
0.860000 0.040000 0
0.880000 0.040000 0
0.900000 0.040000 0
0.920000 0.040000 0
0.940000 0.040000 0
0.960000 0.040000 0
0.980000 0.040000 0
1.000000 0.040000 0
1.020000 0.040000 0
1.040000 0.040000 0
1.060000 0.040000 0
1.080000 0.040000 0
1.100000 0.040000 0
1.120000 0.040000 0
1.140000 0.040000 0
1.160000 0.040000 0
1.180000 0.040000 0
1.200000 0.040000 0
1.220000 0.040000 0
1.240000 0.040000 0
1.260000 0.040000 0
1.280000 0.040000 0
1.300000 0.040000 0
1.320000 0.040000 0
1.340000 0.040000 0
1.360000 0.040000 0
1.380000 0.040000 0
1.400000 0.040000 0
1.420000 0.040000 0
1.440000 0.040000 0
1.460000 0.040000 0
1.480000 0.040000 0
1.500000 0.040000 0
1.520000 0.040000 0
1.540000 0.040000 0
1.560000 0.040000 0
1.580000 0.040000 0
1.600000 0.040000 0
1.620000 0.040000 0
1.640000 0.040000 0
1.660000 0.040000 0
1.680000 0.040000 0
1.700000 0.040000 0
1.720000 0.040000 0
1.740000 0.040000 0
1.760000 0.040000 0
1.780000 0.040000 0
1.800000 0.040000 0
1.820000 0.040000 0
1.840000 0.040000 0
1.860000 0.040000 0
1.880000 0.040000 0
1.900000 0.040000 0
1.920000 0.040000 0
1.940000 0.040000 0
1.960000 0.040000 0
0.000000 0.060000 0
0.020000 0.060000 0
0.040000 0.060000 0
0.060000 0.060000 0
0.080000 0.060000 0
0.100000 0.060000 0
0.120000 0.060000 0
0.140000 0.060000 0
0.160000 0.060000 0
0.180000 0.060000 0
0.200000 0.060000 0
0.220000 0.060000 0
0.240000 0.060000 0
0.260000 0.060000 0
0.280000 0.060000 0
0.300000 0.060000 0
0.320000 0.060000 0
0.340000 0.060000 0
0.360000 0.060000 0
0.380000 0.060000 0
0.400000 0.060000 0
0.420000 0.060000 0
0.440000 0.060000 0
0.460000 0.060000 0
0.480000 0.060000 0
0.500000 0.060000 0
0.520000 0.060000 0
0.540000 0.060000 0
0.560000 0.060000 0
0.580000 0.060000 0
0.600000 0.060000 0
0.620000 0.060000 0
0.640000 0.060000 0
0.660000 0.060000 0
0.680000 0.060000 0
0.700000 0.060000 0
0.720000 0.060000 0
0.740000 0.060000 0
0.760000 0.060000 0
0.780000 0.060000 0
0.800000 0.060000 0
0.820000 0.060000 0
0.840000 0.060000 0
0.860000 0.060000 0
0.880000 0.060000 0
0.900000 0.060000 0
0.920000 0.060000 0
0.940000 0.060000 0
0.960000 0.060000 0
0.980000 0.060000 0
1.000000 0.060000 0
1.020000 0.060000 0
1.040000 0.060000 0
1.060000 0.060000 0
1.080000 0.060000 0
1.100000 0.060000 0
1.120000 0.060000 0
1.140000 0.060000 0
1.160000 0.060000 0
1.180000 0.060000 0
1.200000 0.060000 0
1.220000 0.060000 0
1.240000 0.060000 0
1.260000 0.060000 0
1.280000 0.060000 0
1.300000 0.060000 0
1.320000 0.060000 0
1.340000 0.060000 0
1.360000 0.060000 0
1.380000 0.060000 0
1.400000 0.060000 0
1.420000 0.060000 0
1.440000 0.060000 0
1.460000 0.060000 0
1.480000 0.060000 0
1.500000 0.060000 0
1.520000 0.060000 0
1.540000 0.060000 0
1.560000 0.060000 0
1.580000 0.060000 0
1.600000 0.060000 0
1.620000 0.060000 0
1.640000 0.060000 0
1.660000 0.060000 0
1.680000 0.060000 0
1.700000 0.060000 0
1.720000 0.060000 0
1.740000 0.060000 0
1.760000 0.060000 0
1.780000 0.060000 0
1.800000 0.060000 0
1.820000 0.060000 0
1.840000 0.060000 0
1.860000 0.060000 0
1.880000 0.060000 0
1.900000 0.060000 0
1.920000 0.060000 0
1.940000 0.060000 0
1.960000 0.060000 0
0.000000 0.080000 0
0.020000 0.080000 0
0.040000 0.080000 0
0.060000 0.080000 0
0.080000 0.080000 0
0.100000 0.080000 0
0.120000 0.080000 0
0.140000 0.080000 0
0.160000 0.080000 0
0.180000 0.080000 0
0.200000 0.080000 0
0.220000 0.080000 0
0.240000 0.080000 0
0.260000 0.080000 0
0.280000 0.080000 0
0.300000 0.080000 0
0.320000 0.080000 0
0.340000 0.080000 0
0.360000 0.080000 0
0.380000 0.080000 0
0.400000 0.080000 0
0.420000 0.080000 0
0.440000 0.080000 0
0.460000 0.080000 0
0.480000 0.080000 0
0.500000 0.080000 0
0.520000 0.080000 0
0.540000 0.080000 0
0.560000 0.080000 0
0.580000 0.080000 0
0.600000 0.080000 0
0.620000 0.080000 0
0.640000 0.080000 0
0.660000 0.080000 0
0.680000 0.080000 0
0.700000 0.080000 0
0.720000 0.080000 0
0.740000 0.080000 0
0.760000 0.080000 0
0.780000 0.080000 0
0.800000 0.080000 0
0.820000 0.080000 0
0.840000 0.080000 0
0.860000 0.080000 0
0.880000 0.080000 0
0.900000 0.080000 0
0.920000 0.080000 0
0.940000 0.080000 0
0.960000 0.080000 0
0.980000 0.080000 0
1.000000 0.080000 0
1.020000 0.080000 0
1.040000 0.080000 0
1.060000 0.080000 0
1.080000 0.080000 0
1.100000 0.080000 0
1.120000 0.080000 0
1.140000 0.080000 0
1.160000 0.080000 0
1.180000 0.080000 0
1.200000 0.080000 0
1.220000 0.080000 0
1.240000 0.080000 0
1.260000 0.080000 0
1.280000 0.080000 0
1.300000 0.080000 0
1.320000 0.080000 0
1.340000 0.080000 0
1.360000 0.080000 0
1.380000 0.080000 0
1.400000 0.080000 0
1.420000 0.080000 0
1.440000 0.080000 0
1.460000 0.080000 0
1.480000 0.080000 0
1.500000 0.080000 0
1.520000 0.080000 0
1.540000 0.080000 0
1.560000 0.080000 0
1.580000 0.080000 0
1.600000 0.080000 0
1.620000 0.080000 0
1.640000 0.080000 0
1.660000 0.080000 0
1.680000 0.080000 0
1.700000 0.080000 0
1.720000 0.080000 0
1.740000 0.080000 0
1.760000 0.080000 0
1.780000 0.080000 0
1.800000 0.080000 0
1.820000 0.080000 0
1.840000 0.080000 0
1.860000 0.080000 0
1.880000 0.080000 0
[...]
POINT_DATA 4851 

VECTORS velocity float
0.000000 0.000000 0
0.000232 0.000000 0
0.000575 0.000000 0
0.000844 0.000000 0
0.000977 0.000000 0
0.000986 0.000000 0
0.000908 0.000000 0
0.000782 0.000000 0
0.000641 0.000000 0
0.000508 0.000000 0
0.000398 0.000000 0
0.000315 0.000000 0
0.000261 0.000000 0
0.000234 0.000000 0
0.000229 0.000000 0
0.000240 0.000000 0
0.000261 0.000000 0
0.000287 0.000000 0
0.000315 0.000000 0
0.000339 0.000000 0
0.000360 0.000000 0
0.000377 0.000000 0
0.000390 0.000000 0
0.000400 0.000000 0
0.000407 0.000000 0
0.000414 0.000000 0
0.000421 0.000000 0
0.000428 0.000000 0
0.000435 0.000000 0
0.000443 0.000000 0
0.000451 0.000000 0
0.000453 0.000000 0
0.000441 0.000000 0
0.000394 0.000000 0
0.000287 0.000000 0
0.000123 0.000000 0
0.000000 0.000000 0
0.000000 0.000000 0
0.000000 0.000000 0
0.000000 0.000000 0
0.000000 0.000000 0
0.000000 0.000000 0
0.000000 0.000000 0
-0.000000 0.000000 0
-0.000000 0.000000 0
-0.000001 0.000000 0
-0.000001 0.000000 0
-0.000002 0.000000 0
-0.000002 0.000000 0
-0.000003 0.000000 0
-0.000003 0.000000 0
-0.000004 0.000000 0
-0.000005 0.000000 0
-0.000006 0.000000 0
-0.000007 0.000000 0
-0.000007 0.000000 0
-0.000008 0.000000 0
-0.000009 0.000000 0
-0.000010 0.000000 0
-0.000011 0.000000 0
-0.000011 0.000000 0
-0.000012 0.000000 0
-0.000012 0.000000 0
-0.000011 0.000000 0
-0.000010 0.000000 0
-0.000009 0.000000 0
-0.000007 0.000000 0
-0.000004 0.000000 0
-0.000001 0.000000 0
0.000003 0.000000 0
0.000007 0.000000 0
0.000012 0.000000 0
0.000018 0.000000 0
0.000024 0.000000 0
0.000030 0.000000 0
0.000037 0.000000 0
0.000044 0.000000 0
0.000051 0.000000 0
0.000059 0.000000 0
0.000067 0.000000 0
0.000075 0.000000 0
0.000084 0.000000 0
0.000093 0.000000 0
0.000103 0.000000 0
0.000114 0.000000 0
0.000126 0.000000 0
0.000140 0.000000 0
0.000156 0.000000 0
0.000175 0.000000 0
0.000197 0.000000 0
0.000226 0.000000 0
0.000262 0.000000 0
0.000309 0.000000 0
0.000371 0.000000 0
0.000451 0.000000 0
0.000543 0.000000 0
0.000596 0.000000 0
0.000456 0.000000 0
0.000000 0.000000 0
0.000000 -0.000233 0
0.000626 -0.000576 0
0.001581 -0.000613 0
0.002385 -0.000403 0
0.002858 -0.000143 0
0.002990 0.000068 0
0.002857 0.000203 0
0.002554 0.000266 0
0.002170 0.000273 0
0.001779 0.000243 0
0.001430 0.000193 0
0.001152 0.000135 0
0.000957 0.000080 0
0.000841 0.000032 0
0.000795 -0.000007 0
0.000804 -0.000033 0
0.000849 -0.000049 0
0.000916 -0.000054 0
0.000988 -0.000053 0
0.001057 -0.000047 0
0.001117 -0.000038 0
0.001166 -0.000030 0
0.001202 -0.000023 0
0.001230 -0.000018 0
0.001250 -0.000016 0
0.001266 -0.000014 0
0.001280 -0.000014 0
0.001294 -0.000015 0
0.001306 -0.000016 0
0.001315 -0.000016 0
0.001315 -0.000011 0
0.001293 0.000009 0
0.001218 0.000058 0
0.001046 0.000154 0
0.000731 0.000271 0
0.000305 0.000286 0
0.000000 0.000122 0
0.000000 0.000000 0
0.000000 0.000000 0
0.000000 0.000000 0
0.000000 0.000000 0
0.000000 0.000000 0
-0.000000 0.000000 0
-0.000001 0.000001 0
-0.000002 0.000001 0
-0.000003 0.000001 0
-0.000004 0.000001 0
-0.000006 0.000001 0
-0.000008 0.000001 0
-0.000010 0.000001 0
-0.000012 0.000002 0
-0.000014 0.000002 0
-0.000017 0.000002 0
-0.000020 0.000002 0
-0.000023 0.000002 0
-0.000026 0.000002 0
-0.000029 0.000002 0
-0.000032 0.000002 0
-0.000035 0.000002 0
-0.000037 0.000001 0
-0.000038 0.000001 0
-0.000038 0.000000 0
-0.000037 -0.000000 0
-0.000035 -0.000001 0
-0.000030 -0.000002 0
-0.000024 -0.000003 0
-0.000016 -0.000004 0
-0.000005 -0.000006 0
0.000007 -0.000007 0
0.000022 -0.000008 0
0.000038 -0.000009 0
0.000057 -0.000010 0
0.000077 -0.000011 0
0.000099 -0.000012 0
0.000122 -0.000013 0
0.000147 -0.000013 0
0.000173 -0.000014 0
0.000200 -0.000015 0
0.000228 -0.000015 0
0.000257 -0.000016 0
0.000288 -0.000017 0
0.000319 -0.000018 0
0.000353 -0.000019 0
0.000389 -0.000021 0
0.000428 -0.000023 0
0.000471 -0.000026 0
0.000518 -0.000029 0
0.000573 -0.000034 0
0.000635 -0.000041 0
0.000708 -0.000051 0
0.000796 -0.000064 0
0.000900 -0.000083 0
0.001026 -0.000109 0
0.001173 -0.000142 0
0.001329 -0.000172 0
0.001450 -0.000145 0
0.001399 0.000087 0
0.000914 0.000596 0
0.000000 0.000457 0
0.000000 -0.000627 0
0.000811 -0.001582 0
0.002105 -0.001760 0
0.003280 -0.001279 0
0.004075 -0.000607 0
0.004427 0.000000 0
0.004388 0.000436 0
0.004067 0.000686 0
0.003580 0.000774 0
0.003033 0.000739 0
0.002508 0.000625 0
0.002061 0.000472 0
0.001721 0.000310 0
0.001497 0.000160 0
0.001377 0.000036 0
0.001345 -0.000055 0
0.001375 -0.000113 0
0.001444 -0.000140 0
0.001530 -0.000143 0
0.001617 -0.000130 0
0.001695 -0.000109 0
0.001757 -0.000086 0
0.001802 -0.000065 0
0.001833 -0.000049 0
0.001853 -0.000038 0
0.001864 -0.000031 0
0.001869 -0.000028 0
0.001870 -0.000026 0
0.001866 -0.000022 0
0.001851 -0.000010 0
0.001815 0.000021 0
0.001736 0.000096 0
0.001577 0.000246 0
0.001292 0.000486 0
0.000857 0.000740 0
0.000341 0.000730 0
0.000000 0.000305 0
0.000000 0.000000 0
0.000000 0.000000 0
0.000000 0.000000 0
0.000000 0.000000 0
0.000000 0.000001 0
-0.000001 0.000001 0
-0.000002 0.000002 0
-0.000003 0.000002 0
-0.000005 0.000003 0
-0.000008 0.000003 0
-0.000010 0.000004 0
-0.000014 0.000004 0
-0.000017 0.000005 0
-0.000021 0.000005 0
-0.000025 0.000006 0
-0.000030 0.000006 0
-0.000035 0.000006 0
-0.000040 0.000007 0
-0.000045 0.000007 0
-0.000050 0.000006 0
-0.000054 0.000006 0
-0.000058 0.000005 0
-0.000061 0.000004 0
-0.000062 0.000002 0
-0.000061 -0.000001 0
-0.000058 -0.000003 0
-0.000051 -0.000007 0
-0.000042 -0.000010 0
-0.000029 -0.000014 0
-0.000013 -0.000018 0
0.000007 -0.000023 0
0.000032 -0.000027 0
0.000059 -0.000031 0
0.000091 -0.000035 0
0.000125 -0.000038 0
0.000163 -0.000042 0
0.000203 -0.000045 0
0.000246 -0.000048 0
0.000292 -0.000050 0
0.000339 -0.000052 0
0.000388 -0.000055 0
0.000439 -0.000057 0
0.000492 -0.000059 0
0.000547 -0.000062 0
0.000604 -0.000065 0
0.000664 -0.000069 0
0.000728 -0.000075 0
0.000796 -0.000081 0
0.000869 -0.000090 0
0.000950 -0.000101 0
0.001039 -0.000116 0
0.001139 -0.000135 0
0.001252 -0.000160 0
0.001379 -0.000192 0
0.001519 -0.000230 0
0.001668 -0.000272 0
0.001810 -0.000303 0
0.001905 -0.000277 0
0.001867 -0.000069 0
0.001545 0.000536 0
0.000807 0.001399 0
0.000000 0.000914 0
0.000000 -0.001045 0
0.000805 -0.002682 0
0.002152 -0.003082 0
0.003439 -0.002374 0
0.004389 -0.001290 0
0.004908 -0.000245 0
0.005012 0.000562 0
0.004786 0.001073 0
0.004342 0.001307 0
0.003787 0.001315 0
0.003216 0.001164 0
0.002699 0.000922 0
0.002280 0.000644 0
0.001977 0.000375 0
0.001790 0.000145 0
0.001700 -0.000032 0
0.001687 -0.000149 0
0.001724 -0.000210 0
0.001787 -0.000226 0
0.001856 -0.000211 0
0.001919 -0.000178 0
0.001968 -0.000138 0
0.001999 -0.000101 0
0.002013 -0.000069 0
0.002013 -0.000046 0
0.002002 -0.000031 0
0.001982 -0.000021 0
0.001954 -0.000012 0
0.001918 0.000003 0
0.001867 0.000035 0
0.001790 0.000105 0
0.001665 0.000247 0
0.001460 0.000502 0
0.001144 0.000873 0
0.000718 0.001222 0
0.000265 0.001143 0
0.000000 0.000463 0
0.000000 0.000000 0
0.000000 0.000000 0
0.000000 0.000000 0
0.000000 0.000000 0
-0.000000 0.000001 0
-0.000001 0.000002 0
-0.000003 0.000004 0
-0.000005 0.000005 0
-0.000007 0.000006 0
-0.000010 0.000006 0
-0.000014 0.000007 0
-0.000018 0.000008 0
-0.000023 0.000009 0
-0.000028 0.000010 0
-0.000033 0.000011 0
-0.000039 0.000012 0
-0.000045 0.000012 0
-0.000051 0.000012 0
-0.000057 0.000012 0
-0.000063 0.000012 0
-0.000068 0.000010 0
-0.000072 0.000008 0
-0.000074 0.000005 0
-0.000074 0.000001 0
-0.000071 -0.000004 0
-0.000065 -0.000010 0
-0.000055 -0.000017 0
-0.000041 -0.000024 0
-0.000021 -0.000032 0
0.000003 -0.000041 0
0.000032 -0.000050 0
0.000067 -0.000058 0
0.000106 -0.000067 0
0.000150 -0.000075 0
0.000198 -0.000082 0
0.000251 -0.000089 0
0.000307 -0.000095 0
0.000366 -0.000101 0
0.000428 -0.000106 0
0.000493 -0.000110 0
0.000560 -0.000115 0
0.000629 -0.000119 0
0.000700 -0.000124 0
0.000773 -0.000129 0
0.000850 -0.000135 0
0.000929 -0.000143 0
0.001012 -0.000152 0
0.001100 -0.000164 0
0.001193 -0.000180 0
0.001292 -0.000199 0
0.001400 -0.000224 0
0.001515 -0.000254 0
0.001639 -0.000290 0
0.001769 -0.000331 0
0.001899 -0.000372 0
0.002014 -0.000400 0
0.002088 -0.000379 0
0.002067 -0.000228 0
0.001865 0.000215 0
0.001380 0.001146 0
0.000614 0.002141 0
0.000000 0.001264 0
0.000000 -0.001434 0
0.000737 -0.003735 0
0.002007 -0.004394 0
0.003260 -0.003516 0
0.004235 -0.002076 0
0.004839 -0.000623 0
0.005061 0.000557 0
0.004956 0.001355 0
0.004615 0.001773 0
0.004132 0.001864 0
0.003599 0.001713 0
0.003086 0.001408 0
0.002645 0.001031 0
0.002303 0.000650 0
0.002065 0.000313 0
0.001923 0.000047 0
0.001858 -0.000137 0
0.001847 -0.000240 0
0.001866 -0.000276 0
0.001897 -0.000263 0
0.001926 -0.000221 0
0.001942 -0.000166 0
0.001942 -0.000111 0
0.001926 -0.000063 0
0.001893 -0.000027 0
0.001848 -0.000000 0
0.001793 0.000019 0
0.001731 0.000037 0
0.001660 0.000065 0
0.001576 0.000118 0
0.001470 0.000224 0
0.001325 0.000426 0
0.001118 0.000766 0
0.000833 0.001228 0
0.000487 0.001619 0
0.000161 0.001448 0
0.000000 0.000569 0
0.000000 0.000000 0
0.000000 0.000000 0
0.000000 0.000000 0
0.000000 0.000000 0
-0.000000 0.000002 0
-0.000001 0.000004 0
-0.000003 0.000006 0
-0.000006 0.000007 0
-0.000009 0.000009 0
-0.000012 0.000010 0
-0.000016 0.000012 0
-0.000021 0.000013 0
-0.000026 0.000014 0
-0.000031 0.000016 0
-0.000037 0.000017 0
-0.000043 0.000018 0
-0.000050 0.000019 0
-0.000056 0.000019 0
-0.000063 0.000019 0
-0.000068 0.000017 0
-0.000073 0.000015 0
-0.000077 0.000011 0
-0.000078 0.000006 0
-0.000077 -0.000001 0
-0.000072 -0.000009 0
-0.000063 -0.000019 0
-0.000049 -0.000031 0
-0.000030 -0.000044 0
-0.000005 -0.000057 0
0.000027 -0.000072 0
0.000064 -0.000086 0
0.000107 -0.000100 0
0.000157 -0.000114 0
0.000212 -0.000127 0
0.000272 -0.000139 0
0.000336 -0.000150 0
0.000405 -0.000160 0
0.000477 -0.000169 0
0.000553 -0.000177 0
0.000631 -0.000184 0
0.000712 -0.000191 0
0.000795 -0.000197 0
0.000880 -0.000204 0
0.000967 -0.000212 0
0.001056 -0.000221 0
0.001148 -0.000232 0
0.001244 -0.000245 0
0.001342 -0.000262 0
0.001445 -0.000283 0
0.001553 -0.000308 0
0.001664 -0.000339 0
0.001779 -0.000375 0
0.001896 -0.000414 0
0.002007 -0.000451 0
0.002103 -0.000475 0
0.002165 -0.000461 0
0.002161 -0.000355 0
0.002038 -0.000054 0
0.001730 0.000618 0
0.001183 0.001788 0
0.000470 0.002779 0
0.000000 0.001528 0
0.000000 -0.001783 0
0.000656 -0.004691 0
0.001794 -0.005605 0
0.002933 -0.004602 0
0.003850 -0.002870 0
0.004466 -0.001071 0
0.004763 0.000444 0
0.004769 0.001519 0
0.004546 0.002130 0
0.004172 0.002331 0
0.003722 0.002210 0
0.003262 0.001875 0
0.002842 0.001427 0
0.002493 0.000955 0
0.002229 0.000524 0
0.002047 0.000175 0
0.001933 -0.000072 0
0.001869 -0.000218 0
0.001838 -0.000277 0
0.001821 -0.000271 0
0.001804 -0.000223 0
0.001778 -0.000155 0
0.001738 -0.000084 0
0.001682 -0.000020 0
0.001611 0.000031 0
0.001529 0.000068 0
0.001439 0.000096 0
0.001344 0.000121 0
0.001244 0.000158 0
0.001139 0.000225 0
0.001022 0.000356 0
0.000884 0.000598 0
0.000707 0.000993 0
0.000489 0.001504 0
0.000253 0.001894 0
0.000066 0.001630 0
0.000000 0.000624 0
0.000000 0.000000 0
0.000000 0.000000 0
0.000000 0.000000 0
0.000000 0.000001 0
-0.000000 0.000003 0
-0.000002 0.000005 0
-0.000004 0.000008 0
-0.000006 0.000010 0
-0.000009 0.000012 0
-0.000013 0.000014 0
-0.000017 0.000016 0
-0.000021 0.000018 0
-0.000026 0.000020 0
-0.000032 0.000021 0
-0.000038 0.000023 0
-0.000044 0.000024 0
-0.000050 0.000025 0
-0.000057 0.000025 0
-0.000063 0.000025 0
-0.000068 0.000023 0
-0.000073 0.000019 0
-0.000076 0.000013 0
-0.000076 0.000005 0
-0.000073 -0.000005 0
-0.000066 -0.000017 0
-0.000054 -0.000032 0
-0.000037 -0.000050 0
-0.000013 -0.000068 0
0.000017 -0.000089 0
0.000055 -0.000109 0
0.000099 -0.000131 0
0.000150 -0.000151 0
0.000208 -0.000171 0
0.000272 -0.000190 0
0.000342 -0.000207 0
0.000417 -0.000222 0
0.000496 -0.000236 0
0.000578 -0.000248 0
0.000664 -0.000259 0
0.000753 -0.000269 0
0.000844 -0.000278 0
0.000937 -0.000287 0
0.001031 -0.000296 0
0.001128 -0.000305 0
0.001226 -0.000317 0
0.001325 -0.000330 0
0.001427 -0.000346 0
0.001530 -0.000366 0
0.001636 -0.000390 0
0.001742 -0.000418 0
0.001849 -0.000450 0
0.001954 -0.000485 0
0.002052 -0.000517 0
0.002136 -0.000539 0
0.002192 -0.000530 0
0.002201 -0.000457 0
0.002130 -0.000251 0
0.001936 0.000202 0
0.001572 0.001071 0
0.001017 0.002407 0
0.000373 0.003324 0
0.000000 0.001734 0
0.000000 -0.002090 0
0.000574 -0.005531 0
0.001560 -0.006672 0
0.002546 -0.005573 0
0.003358 -0.003610 0
0.003937 -0.001536 0
0.004269 0.000254 0
0.004363 0.001572 0
0.004255 0.002369 0
0.003998 0.002689 0
0.003653 0.002623 0
0.003272 0.002287 0
0.002902 0.001799 0
0.002574 0.001263 0
0.002303 0.000759 0
0.002094 0.000343 0
0.001939 0.000041 0
0.001828 -0.000145 0
0.001745 -0.000227 0
0.001677 -0.000229 0
0.001612 -0.000178 0
0.001541 -0.000100 0
0.001458 -0.000015 0
0.001362 0.000063 0
0.001255 0.000126 0
0.001139 0.000172 0
0.001020 0.000204 0
0.000900 0.000232 0
0.000783 0.000269 0
0.000670 0.000339 0
0.000561 0.000479 0
0.000447 0.000741 0
0.000320 0.001160 0
0.000180 0.001682 0
0.000057 0.002042 0
-0.000007 0.001701 0
0.000000 0.000635 0
0.000000 0.000000 0
0.000000 0.000000 0
0.000000 0.000000 0
0.000000 0.000001 0
-0.000000 0.000004 0
-0.000002 0.000007 0
-0.000003 0.000010 0
-0.000006 0.000013 0
-0.000009 0.000016 0
-0.000012 0.000018 0
-0.000016 0.000020 0
-0.000020 0.000023 0
-0.000025 0.000025 0
-0.000030 0.000027 0
-0.000035 0.000029 0
-0.000041 0.000031 0
-0.000047 0.000032 0
-0.000053 0.000032 0
-0.000058 0.000030 0
-0.000063 0.000027 0
-0.000067 0.000022 0
-0.000069 0.000014 0
-0.000068 0.000004 0
-0.000064 -0.000011 0
-0.000055 -0.000028 0
-0.000041 -0.000049 0
-0.000021 -0.000072 0
0.000007 -0.000098 0
0.000042 -0.000125 0
0.000085 -0.000153 0
0.000135 -0.000182 0
0.000193 -0.000209 0
0.000259 -0.000236 0
0.000330 -0.000261 0
0.000408 -0.000283 0
0.000490 -0.000304 0
0.000578 -0.000322 0
0.000668 -0.000337 0
0.000762 -0.000351 0
0.000859 -0.000363 0
0.000957 -0.000374 0
0.001056 -0.000384 0
0.001157 -0.000395 0
0.001259 -0.000406 0
0.001361 -0.000418 0
0.001464 -0.000433 0
0.001568 -0.000450 0
0.001671 -0.000470 0
0.001773 -0.000494 0
0.001874 -0.000522 0
0.001970 -0.000550 0
0.002059 -0.000577 0
0.002135 -0.000596 0
0.002190 -0.000591 0
0.002208 -0.000540 0
0.002171 -0.000398 0
0.002051 -0.000090 0
0.001813 0.000505 0
0.001425 0.001537 0
0.000887 0.002986 0
0.000308 0.003796 0
0.000000 0.001901 0
0.000000 -0.002357 0
0.000493 -0.006252 0
0.001322 -0.007578 0
0.002143 -0.006400 0
0.002827 -0.004261 0
0.003341 -0.001983 0
0.003679 0.000018 0
0.003837 0.001533 0
0.003830 0.002494 0
0.003689 0.002932 0
0.003453 0.002936 0
0.003164 0.002625 0
0.002859 0.002126 0
0.002567 0.001554 0
0.002305 0.001003 0
0.002082 0.000538 0
0.001898 0.000193 0
0.001746 -0.000025 0
0.001617 -0.000127 0
0.001502 -0.000138 0
0.001391 -0.000087 0
0.001276 -0.000001 0
0.001154 0.000095 0
0.001024 0.000183 0
0.000887 0.000253 0
0.000746 0.000303 0
0.000606 0.000335 0
0.000472 0.000358 0
0.000350 0.000387 0
0.000244 0.000446 0
0.000154 0.000579 0
0.000075 0.000840 0
0.000001 0.001260 0
-0.000061 0.001766 0
-0.000086 0.002081 0
-0.000054 0.001686 0
0.000000 0.000617 0
0.000000 0.000000 0
0.000000 0.000000 0
0.000000 0.000000 0
0.000000 0.000001 0
-0.000000 0.000005 0
-0.000001 0.000009 0
-0.000003 0.000012 0
-0.000005 0.000016 0
-0.000008 0.000019 0
-0.000011 0.000021 0
-0.000014 0.000024 0
-0.000018 0.000027 0
-0.000022 0.000029 0
-0.000026 0.000032 0
-0.000031 0.000034 0
-0.000035 0.000036 0
-0.000040 0.000037 0
-0.000045 0.000037 0
-0.000050 0.000035 0
-0.000054 0.000032 0
-0.000057 0.000025 0
-0.000058 0.000015 0
-0.000057 0.000001 0
-0.000052 -0.000018 0
-0.000041 -0.000040 0
-0.000025 -0.000067 0
-0.000002 -0.000098 0
0.000029 -0.000131 0
0.000068 -0.000166 0
0.000115 -0.000203 0
0.000171 -0.000239 0
0.000235 -0.000274 0
0.000306 -0.000308 0
0.000384 -0.000339 0
0.000468 -0.000367 0
0.000558 -0.000392 0
0.000651 -0.000414 0
0.000748 -0.000433 0
0.000847 -0.000449 0
0.000949 -0.000463 0
0.001052 -0.000476 0
0.001156 -0.000487 0
0.001260 -0.000498 0
0.001364 -0.000509 0
0.001468 -0.000522 0
0.001571 -0.000536 0
0.001672 -0.000552 0
0.001772 -0.000571 0
0.001868 -0.000592 0
0.001959 -0.000615 0
0.002043 -0.000636 0
0.002115 -0.000650 0
0.002168 -0.000648 0
0.002195 -0.000611 0
0.002181 -0.000512 0
0.002109 -0.000300 0
0.001955 0.000107 0
0.001692 0.000829 0
0.001298 0.001997 0
0.000786 0.003523 0
0.000263 0.004212 0
0.000000 0.002042 0
0.000000 -0.002583 0
0.000414 -0.006854 0
0.001090 -0.008322 0
0.001747 -0.007078 0
0.002299 -0.004809 0
0.002737 -0.002389 0
0.003062 -0.000242 0
0.003265 0.001421 0
0.003343 0.002517 0
0.003305 0.003066 0
0.003174 0.003147 0
0.002978 0.002881 0
0.002744 0.002396 0
0.002497 0.001817 0
0.002255 0.001244 0
0.002029 0.000750 0
0.001824 0.000377 0
0.001641 0.000135 0
0.001474 0.000017 0
0.001318 -0.000003 0
0.001167 0.000047 0
0.001017 0.000136 0
0.000864 0.000237 0
0.000708 0.000330 0
0.000551 0.000403 0
0.000394 0.000452 0
0.000245 0.000478 0
0.000108 0.000488 0
-0.000008 0.000497 0
-0.000099 0.000535 0
-0.000164 0.000648 0
-0.000207 0.000893 0
-0.000231 0.001296 0
-0.000227 0.001769 0
-0.000177 0.002035 0
-0.000081 0.001614 0
0.000000 0.000581 0
0.000000 0.000000 0
0.000000 0.000000 0
0.000000 0.000000 0
0.000000 0.000001 0
-0.000000 0.000006 0
-0.000001 0.000010 0
-0.000002 0.000014 0
-0.000004 0.000018 0
-0.000006 0.000021 0
-0.000009 0.000024 0
-0.000011 0.000027 0
-0.000014 0.000030 0
-0.000017 0.000033 0
-0.000020 0.000036 0
-0.000024 0.000038 0
-0.000027 0.000040 0
-0.000031 0.000042 0
-0.000035 0.000042 0
-0.000038 0.000039 0
-0.000042 0.000035 0
-0.000044 0.000027 0
-0.000044 0.000014 0
-0.000042 -0.000003 0
-0.000036 -0.000026 0
-0.000025 -0.000054 0
-0.000007 -0.000088 0
0.000018 -0.000126 0
0.000051 -0.000168 0
0.000094 -0.000212 0
0.000145 -0.000257 0
0.000206 -0.000301 0
0.000275 -0.000344 0
0.000351 -0.000385 0
0.000435 -0.000423 0
0.000524 -0.000456 0
0.000618 -0.000486 0
0.000716 -0.000512 0
0.000818 -0.000534 0
0.000921 -0.000552 0
0.001026 -0.000568 0
0.001132 -0.000581 0
0.001237 -0.000592 0
0.001343 -0.000603 0
0.001447 -0.000614 0
0.001550 -0.000625 0
0.001650 -0.000637 0
0.001748 -0.000651 0
0.001841 -0.000666 0
0.001930 -0.000682 0
0.002010 -0.000696 0
0.002080 -0.000706 0
0.002134 -0.000703 0
0.002168 -0.000676 0
0.002171 -0.000604 0
0.002131 -0.000454 0
0.002033 -0.000172 0
0.001856 0.000327 0
0.001580 0.001161 0
0.001191 0.002442 0
0.000706 0.004022 0
0.000229 0.004583 0
0.000000 0.002164 0
0.000000 -0.002771 0
0.000338 -0.007342 0
0.000871 -0.008911 0
0.001377 -0.007610 0
0.001804 -0.005252 0
0.002164 -0.002746 0
0.002465 -0.000510 0
0.002696 0.001252 0
0.002841 0.002454 0
0.002892 0.003100 0
0.002855 0.003263 0
0.002746 0.003055 0
0.002582 0.002607 0
0.002383 0.002043 0
0.002167 0.001471 0
0.001947 0.000969 0
0.001731 0.000581 0
0.001525 0.000326 0
0.001330 0.000195 0
0.001143 0.000168 0
0.000963 0.000214 0
0.000787 0.000302 0
0.000613 0.000403 0
0.000441 0.000496 0
0.000273 0.000567 0
0.000111 0.000609 0
-0.000038 0.000622 0
-0.000168 0.000611 0
-0.000271 0.000594 0
-0.000343 0.000601 0
-0.000382 0.000686 0
-0.000393 0.000906 0
-0.000376 0.001279 0
-0.000322 0.001712 0
-0.000223 0.001934 0
-0.000091 0.001509 0
0.000000 0.000536 0
0.000000 0.000000 0
0.000000 0.000000 0
0.000000 0.000000 0
0.000000 0.000002 0
-0.000000 0.000006 0
-0.000001 0.000011 0
-0.000002 0.000016 0
-0.000003 0.000020 0
-0.000004 0.000023 0
-0.000006 0.000026 0
-0.000007 0.000030 0
-0.000009 0.000033 0
-0.000011 0.000036 0
-0.000013 0.000039 0
-0.000015 0.000041 0
-0.000017 0.000044 0
-0.000019 0.000045 0
-0.000022 0.000045 0
-0.000024 0.000042 0
-0.000026 0.000037 0
-0.000028 0.000028 0
-0.000028 0.000013 0
-0.000025 -0.000007 0
-0.000019 -0.000035 0
-0.000007 -0.000069 0
0.000011 -0.000110 0
0.000038 -0.000156 0
0.000074 -0.000207 0
0.000120 -0.000260 0
0.000175 -0.000315 0
0.000240 -0.000368 0
0.000313 -0.000420 0
0.000394 -0.000468 0
0.000482 -0.000511 0
0.000576 -0.000550 0
0.000674 -0.000584 0