# vtk DataFile Version 2.0
generated by CFD-lab course output (written by Tobias Neckel) 
ASCII

DATASET STRUCTURED_GRID
DIMENSIONS  99 49 1 
POINTS 4851 float

0.000000 0.000000 0
0.020000 0.000000 0
0.040000 0.000000 0
0.060000 0.000000 0
0.080000 0.000000 0
0.100000 0.000000 0
0.120000 0.000000 0
0.140000 0.000000 0
0.160000 0.000000 0
0.180000 0.000000 0
0.200000 0.000000 0
0.220000 0.000000 0
0.240000 0.000000 0
0.260000 0.000000 0
0.280000 0.000000 0
0.300000 0.000000 0
0.320000 0.000000 0
0.340000 0.000000 0
0.360000 0.000000 0
0.380000 0.000000 0
0.400000 0.000000 0
0.420000 0.000000 0
0.440000 0.000000 0
0.460000 0.000000 0
0.480000 0.000000 0
0.500000 0.000000 0
0.520000 0.000000 0
0.540000 0.000000 0
0.560000 0.000000 0
0.580000 0.000000 0
0.600000 0.000000 0
0.620000 0.000000 0
0.640000 0.000000 0
0.660000 0.000000 0
0.680000 0.000000 0
0.700000 0.000000 0
0.720000 0.000000 0
0.740000 0.000000 0
0.760000 0.000000 0
0.780000 0.000000 0
0.800000 0.000000 0
0.820000 0.000000 0
0.840000 0.000000 0
0.860000 0.000000 0
0.880000 0.000000 0
0.900000 0.000000 0
0.920000 0.000000 0
0.940000 0.000000 0
0.960000 0.000000 0
0.980000 0.000000 0
1.000000 0.000000 0
1.020000 0.000000 0
1.040000 0.000000 0
1.060000 0.000000 0
1.080000 0.000000 0
1.100000 0.000000 0
1.120000 0.000000 0
1.140000 0.000000 0
1.160000 0.000000 0
1.180000 0.000000 0
1.200000 0.000000 0
1.220000 0.000000 0
1.240000 0.000000 0
1.260000 0.000000 0
1.280000 0.000000 0
1.300000 0.000000 0
1.320000 0.000000 0
1.340000 0.000000 0
1.360000 0.000000 0
1.380000 0.000000 0
1.400000 0.000000 0
1.420000 0.000000 0
1.440000 0.000000 0
1.460000 0.000000 0
1.480000 0.000000 0
1.500000 0.000000 0
1.520000 0.000000 0
1.540000 0.000000 0
1.560000 0.000000 0
1.580000 0.000000 0
1.600000 0.000000 0
1.620000 0.000000 0
1.640000 0.000000 0
1.660000 0.000000 0
1.680000 0.000000 0
1.700000 0.000000 0
1.720000 0.000000 0
1.740000 0.000000 0
1.760000 0.000000 0
1.780000 0.000000 0
1.800000 0.000000 0
1.820000 0.000000 0
1.840000 0.000000 0
1.860000 0.000000 0
1.880000 0.000000 0
1.900000 0.000000 0
1.920000 0.000000 0
1.940000 0.000000 0
1.960000 0.000000 0
0.000000 0.020000 0
0.020000 0.020000 0
0.040000 0.020000 0
0.060000 0.020000 0
0.080000 0.020000 0
0.100000 0.020000 0
0.120000 0.020000 0
0.140000 0.020000 0
0.160000 0.020000 0
0.180000 0.020000 0
0.200000 0.020000 0
0.220000 0.020000 0
0.240000 0.020000 0
0.260000 0.020000 0
0.280000 0.020000 0
0.300000 0.020000 0
0.320000 0.020000 0
0.340000 0.020000 0
0.360000 0.020000 0
0.380000 0.020000 0
0.400000 0.020000 0
0.420000 0.020000 0
0.440000 0.020000 0
0.460000 0.020000 0
0.480000 0.020000 0
0.500000 0.020000 0
0.520000 0.020000 0
0.540000 0.020000 0
0.560000 0.020000 0
0.580000 0.020000 0
0.600000 0.020000 0
0.620000 0.020000 0
0.640000 0.020000 0
0.660000 0.020000 0
0.680000 0.020000 0
0.700000 0.020000 0
0.720000 0.020000 0
0.740000 0.020000 0
0.760000 0.020000 0
0.780000 0.020000 0
0.800000 0.020000 0
0.820000 0.020000 0
0.840000 0.020000 0
0.860000 0.020000 0
0.880000 0.020000 0
0.900000 0.020000 0
0.920000 0.020000 0
0.940000 0.020000 0
0.960000 0.020000 0
0.980000 0.020000 0
1.000000 0.020000 0
1.020000 0.020000 0
1.040000 0.020000 0
1.060000 0.020000 0
1.080000 0.020000 0
1.100000 0.020000 0
1.120000 0.020000 0
1.140000 0.020000 0
1.160000 0.020000 0
1.180000 0.020000 0
1.200000 0.020000 0
1.220000 0.020000 0
1.240000 0.020000 0
1.260000 0.020000 0
1.280000 0.020000 0
1.300000 0.020000 0
1.320000 0.020000 0
1.340000 0.020000 0
1.360000 0.020000 0
1.380000 0.020000 0
1.400000 0.020000 0
1.420000 0.020000 0
1.440000 0.020000 0
1.460000 0.020000 0
1.480000 0.020000 0
1.500000 0.020000 0
1.520000 0.020000 0
1.540000 0.020000 0
1.560000 0.020000 0
1.580000 0.020000 0
1.600000 0.020000 0
1.620000 0.020000 0
1.640000 0.020000 0
1.660000 0.020000 0
1.680000 0.020000 0
1.700000 0.020000 0
1.720000 0.020000 0
1.740000 0.020000 0
1.760000 0.020000 0
1.780000 0.020000 0
1.800000 0.020000 0
1.820000 0.020000 0
1.840000 0.020000 0
1.860000 0.020000 0
1.880000 0.020000 0
1.900000 0.020000 0
1.920000 0.020000 0
1.940000 0.020000 0
1.960000 0.020000 0
0.000000 0.040000 0
0.020000 0.040000 0
0.040000 0.040000 0
0.060000 0.040000 0
0.080000 0.040000 0
0.100000 0.040000 0
0.120000 0.040000 0
0.140000 0.040000 0
0.160000 0.040000 0
0.180000 0.040000 0
0.200000 0.040000 0
0.220000 0.040000 0
0.240000 0.040000 0
0.260000 0.040000 0
0.280000 0.040000 0
0.300000 0.040000 0
0.320000 0.040000 0
0.340000 0.040000 0
0.360000 0.040000 0
0.380000 0.040000 0
0.400000 0.040000 0
0.420000 0.040000 0
0.440000 0.040000 0
0.460000 0.040000 0
0.480000 0.040000 0
0.500000 0.040000 0
0.520000 0.040000 0
0.540000 0.040000 0
0.560000 0.040000 0
0.580000 0.040000 0
0.600000 0.040000 0
0.620000 0.040000 0
0.640000 0.040000 0
0.660000 0.040000 0
0.680000 0.040000 0
0.700000 0.040000 0
0.720000 0.040000 0
0.740000 0.040000 0
0.760000 0.040000 0
0.780000 0.040000 0
0.800000 0.040000 0
0.820000 0.040000 0
0.840000 0.040000 0
0.860000 0.040000 0
0.880000 0.040000 0
0.900000 0.040000 0
0.920000 0.040000 0
0.940000 0.040000 0
0.960000 0.040000 0
0.980000 0.040000 0
1.000000 0.040000 0
1.020000 0.040000 0
1.040000 0.040000 0
1.060000 0.040000 0
1.080000 0.040000 0
1.100000 0.040000 0
1.120000 0.040000 0
1.140000 0.040000 0
1.160000 0.040000 0
1.180000 0.040000 0
1.200000 0.040000 0
1.220000 0.040000 0
1.240000 0.040000 0
1.260000 0.040000 0
1.280000 0.040000 0
1.300000 0.040000 0
1.320000 0.040000 0
1.340000 0.040000 0
1.360000 0.040000 0
1.380000 0.040000 0
1.400000 0.040000 0
1.420000 0.040000 0
1.440000 0.040000 0
1.460000 0.040000 0
1.480000 0.040000 0
1.500000 0.040000 0
1.520000 0.040000 0
1.540000 0.040000 0
1.560000 0.040000 0
1.580000 0.040000 0
1.600000 0.040000 0
1.620000 0.040000 0
1.640000 0.040000 0
1.660000 0.040000 0
1.680000 0.040000 0
1.700000 0.040000 0
1.720000 0.040000 0
1.740000 0.040000 0
1.760000 0.040000 0
1.780000 0.040000 0
1.800000 0.040000 0
1.820000 0.040000 0
1.840000 0.040000 0
1.860000 0.040000 0
1.880000 0.040000 0
1.900000 0.040000 0
1.920000 0.040000 0
1.940000 0.040000 0
1.960000 0.040000 0
0.000000 0.060000 0
0.020000 0.060000 0
0.040000 0.060000 0
0.060000 0.060000 0
0.080000 0.060000 0
0.100000 0.060000 0
0.120000 0.060000 0
0.140000 0.060000 0
0.160000 0.060000 0
0.180000 0.060000 0
0.200000 0.060000 0
0.220000 0.060000 0
0.240000 0.060000 0
0.260000 0.060000 0
0.280000 0.060000 0
0.300000 0.060000 0
0.320000 0.060000 0
0.340000 0.060000 0
0.360000 0.060000 0
0.380000 0.060000 0
0.400000 0.060000 0
0.420000 0.060000 0
0.440000 0.060000 0
0.460000 0.060000 0
0.480000 0.060000 0
0.500000 0.060000 0
0.520000 0.060000 0
0.540000 0.060000 0
0.560000 0.060000 0
0.580000 0.060000 0
0.600000 0.060000 0
0.620000 0.060000 0
0.640000 0.060000 0
0.660000 0.060000 0
0.680000 0.060000 0
0.700000 0.060000 0
0.720000 0.060000 0
0.740000 0.060000 0
0.760000 0.060000 0
0.780000 0.060000 0
0.800000 0.060000 0
0.820000 0.060000 0
0.840000 0.060000 0
0.860000 0.060000 0
0.880000 0.060000 0
0.900000 0.060000 0
0.920000 0.060000 0
0.940000 0.060000 0
0.960000 0.060000 0
0.980000 0.060000 0
1.000000 0.060000 0
1.020000 0.060000 0
1.040000 0.060000 0
1.060000 0.060000 0
1.080000 0.060000 0
1.100000 0.060000 0
1.120000 0.060000 0
1.140000 0.060000 0
1.160000 0.060000 0
1.180000 0.060000 0
1.200000 0.060000 0
1.220000 0.060000 0
1.240000 0.060000 0
1.260000 0.060000 0
1.280000 0.060000 0
1.300000 0.060000 0
1.320000 0.060000 0
1.340000 0.060000 0
1.360000 0.060000 0
1.380000 0.060000 0
1.400000 0.060000 0
1.420000 0.060000 0
1.440000 0.060000 0
1.460000 0.060000 0
1.480000 0.060000 0
1.500000 0.060000 0
1.520000 0.060000 0
1.540000 0.060000 0
1.560000 0.060000 0
1.580000 0.060000 0
1.600000 0.060000 0
1.620000 0.060000 0
1.640000 0.060000 0
1.660000 0.060000 0
1.680000 0.060000 0
1.700000 0.060000 0
1.720000 0.060000 0
1.740000 0.060000 0
1.760000 0.060000 0
1.780000 0.060000 0
1.800000 0.060000 0
1.820000 0.060000 0
1.840000 0.060000 0
1.860000 0.060000 0
1.880000 0.060000 0
1.900000 0.060000 0
1.920000 0.060000 0
1.940000 0.060000 0
1.960000 0.060000 0
0.000000 0.080000 0
0.020000 0.080000 0
0.040000 0.080000 0
0.060000 0.080000 0
0.080000 0.080000 0
0.100000 0.080000 0
0.120000 0.080000 0
0.140000 0.080000 0
0.160000 0.080000 0
0.180000 0.080000 0
0.200000 0.080000 0
0.220000 0.080000 0
0.240000 0.080000 0
0.260000 0.080000 0
0.280000 0.080000 0
0.300000 0.080000 0
0.320000 0.080000 0
0.340000 0.080000 0
0.360000 0.080000 0
0.380000 0.080000 0
0.400000 0.080000 0
0.420000 0.080000 0
0.440000 0.080000 0
0.460000 0.080000 0
0.480000 0.080000 0
0.500000 0.080000 0
0.520000 0.080000 0
0.540000 0.080000 0
0.560000 0.080000 0
0.580000 0.080000 0
0.600000 0.080000 0
0.620000 0.080000 0
0.640000 0.080000 0
0.660000 0.080000 0
0.680000 0.080000 0
0.700000 0.080000 0
0.720000 0.080000 0
0.740000 0.080000 0
0.760000 0.080000 0
0.780000 0.080000 0
0.800000 0.080000 0
0.820000 0.080000 0
0.840000 0.080000 0
0.860000 0.080000 0
0.880000 0.080000 0
0.900000 0.080000 0
0.920000 0.080000 0
0.940000 0.080000 0
0.960000 0.080000 0
0.980000 0.080000 0
1.000000 0.080000 0
1.020000 0.080000 0
1.040000 0.080000 0
1.060000 0.080000 0
1.080000 0.080000 0
1.100000 0.080000 0
1.120000 0.080000 0
1.140000 0.080000 0
1.160000 0.080000 0
1.180000 0.080000 0
1.200000 0.080000 0
1.220000 0.080000 0
1.240000 0.080000 0
1.260000 0.080000 0
1.280000 0.080000 0
1.300000 0.080000 0
1.320000 0.080000 0
1.340000 0.080000 0
1.360000 0.080000 0
1.380000 0.080000 0
1.400000 0.080000 0
1.420000 0.080000 0
1.440000 0.080000 0
1.460000 0.080000 0
1.480000 0.080000 0
1.500000 0.080000 0
1.520000 0.080000 0
1.540000 0.080000 0
1.560000 0.080000 0
1.580000 0.080000 0
1.600000 0.080000 0
1.620000 0.080000 0
1.640000 0.080000 0
1.660000 0.080000 0
1.680000 0.080000 0
1.700000 0.080000 0
1.720000 0.080000 0
1.740000 0.080000 0
1.760000 0.080000 0
1.780000 0.080000 0
1.800000 0.080000 0
1.820000 0.080000 0
1.840000 0.080000 0
1.860000 0.080000 0
1.880000 0.080000 0
[...]
POINT_DATA 4851 

VECTORS velocity float
0.000000 0.000000 0
0.000070 0.000000 0
0.000172 0.000000 0
0.000250 0.000000 0
0.000291 0.000000 0
0.000301 0.000000 0
0.000292 0.000000 0
0.000275 0.000000 0
0.000257 0.000000 0
0.000242 0.000000 0
0.000231 0.000000 0
0.000225 0.000000 0
0.000222 0.000000 0
0.000221 0.000000 0
0.000221 0.000000 0
0.000222 0.000000 0
0.000222 0.000000 0
0.000222 0.000000 0
0.000222 0.000000 0
0.000221 0.000000 0
0.000219 0.000000 0
0.000218 0.000000 0
0.000216 0.000000 0
0.000214 0.000000 0
0.000212 0.000000 0
0.000210 0.000000 0
0.000207 0.000000 0
0.000204 0.000000 0
0.000201 0.000000 0
0.000195 0.000000 0
0.000187 0.000000 0
0.000173 0.000000 0
0.000150 0.000000 0
0.000115 0.000000 0
0.000070 0.000000 0
0.000024 0.000000 0
0.000000 0.000000 0
0.000000 0.000000 0
0.000000 0.000000 0
0.000000 0.000000 0
0.000000 0.000000 0
-0.000028 0.000000 0
-0.000036 0.000000 0
0.000003 0.000000 0
0.000082 0.000000 0
0.000185 0.000000 0
0.000289 0.000000 0
0.000382 0.000000 0
0.000454 0.000000 0
0.000503 0.000000 0
0.000530 0.000000 0
0.000538 0.000000 0
0.000533 0.000000 0
0.000518 0.000000 0
0.000499 0.000000 0
0.000477 0.000000 0
0.000456 0.000000 0
0.000436 0.000000 0
0.000420 0.000000 0
0.000407 0.000000 0
0.000397 0.000000 0
0.000390 0.000000 0
0.000386 0.000000 0
0.000385 0.000000 0
0.000384 0.000000 0
0.000385 0.000000 0
0.000386 0.000000 0
0.000388 0.000000 0
0.000388 0.000000 0
0.000389 0.000000 0
0.000388 0.000000 0
0.000387 0.000000 0
0.000385 0.000000 0
0.000383 0.000000 0
0.000380 0.000000 0
0.000378 0.000000 0
0.000376 0.000000 0
0.000374 0.000000 0
0.000372 0.000000 0
0.000371 0.000000 0
0.000370 0.000000 0
0.000369 0.000000 0
0.000368 0.000000 0
0.000366 0.000000 0
0.000363 0.000000 0
0.000360 0.000000 0
0.000357 0.000000 0
0.000353 0.000000 0
0.000351 0.000000 0
0.000350 0.000000 0
0.000353 0.000000 0
0.000363 0.000000 0
0.000383 0.000000 0
0.000419 0.000000 0
0.000477 0.000000 0
0.000551 0.000000 0
0.000594 0.000000 0
0.000452 0.000000 0
0.000000 0.000000 0
0.000000 -0.000071 0
0.000195 -0.000173 0
0.000485 -0.000181 0
0.000721 -0.000120 0
0.000860 -0.000052 0
0.000911 -0.000002 0
0.000904 0.000025 0
0.000866 0.000035 0
0.000819 0.000033 0
0.000777 0.000025 0
0.000746 0.000016 0
0.000727 0.000009 0
0.000717 0.000003 0
0.000713 -0.000000 0
0.000713 -0.000001 0
0.000714 -0.000002 0
0.000715 -0.000001 0
0.000714 -0.000000 0
0.000711 0.000001 0
0.000708 0.000002 0
0.000703 0.000002 0
0.000697 0.000003 0
0.000690 0.000003 0
0.000682 0.000003 0
0.000673 0.000004 0
0.000663 0.000004 0
0.000651 0.000005 0
0.000637 0.000006 0
0.000619 0.000008 0
0.000595 0.000013 0
0.000560 0.000022 0
0.000508 0.000036 0
0.000431 0.000057 0
0.000324 0.000080 0
0.000195 0.000091 0
0.000068 0.000069 0
0.000000 0.000023 0
0.000000 0.000000 0
0.000000 0.000000 0
0.000000 0.000000 0
0.000000 0.000028 0
-0.000039 0.000036 0
-0.000006 -0.000030 0
0.000150 -0.000118 0
0.000409 -0.000182 0
0.000724 -0.000207 0
0.001043 -0.000197 0
0.001328 -0.000165 0
0.001555 -0.000121 0
0.001715 -0.000075 0
0.001810 -0.000035 0
0.001848 -0.000003 0
0.001843 0.000020 0
0.001806 0.000034 0
0.001750 0.000041 0
0.001685 0.000043 0
0.001618 0.000041 0
0.001555 0.000036 0
0.001499 0.000030 0
0.001454 0.000023 0
0.001418 0.000016 0
0.001393 0.000011 0
0.001376 0.000006 0
0.001367 0.000002 0
0.001363 -0.000001 0
0.001362 -0.000002 0
0.001363 -0.000002 0
0.001365 -0.000002 0
0.001366 -0.000001 0
0.001365 0.000000 0
0.001362 0.000002 0
0.001357 0.000003 0
0.001350 0.000004 0
0.001342 0.000005 0
0.001333 0.000005 0
0.001324 0.000005 0
0.001316 0.000004 0
0.001308 0.000003 0
0.001301 0.000003 0
0.001296 0.000002 0
0.001291 0.000002 0
0.001286 0.000002 0
0.001281 0.000003 0
0.001274 0.000004 0
0.001265 0.000005 0
0.001255 0.000007 0
0.001244 0.000007 0
0.001233 0.000006 0
0.001224 0.000003 0
0.001220 -0.000003 0
0.001225 -0.000013 0
0.001246 -0.000030 0
0.001286 -0.000056 0
0.001351 -0.000094 0
0.001434 -0.000131 0
0.001496 -0.000117 0
0.001410 0.000098 0
0.000911 0.000594 0
0.000000 0.000452 0
0.000000 -0.000196 0
0.000265 -0.000486 0
0.000670 -0.000527 0
0.001019 -0.000377 0
0.001244 -0.000191 0
0.001347 -0.000044 0
0.001361 0.000045 0
0.001325 0.000084 0
0.001270 0.000087 0
0.001215 0.000072 0
0.001173 0.000050 0
0.001145 0.000029 0
0.001129 0.000013 0
0.001122 0.000003 0
0.001120 -0.000002 0
0.001120 -0.000002 0
0.001119 -0.000000 0
0.001115 0.000002 0
0.001110 0.000005 0
0.001102 0.000008 0
0.001092 0.000010 0
0.001080 0.000012 0
0.001066 0.000014 0
0.001050 0.000016 0
0.001031 0.000018 0
0.001010 0.000021 0
0.000985 0.000025 0
0.000955 0.000031 0
0.000918 0.000041 0
0.000868 0.000058 0
0.000802 0.000087 0
0.000710 0.000128 0
0.000587 0.000182 0
0.000431 0.000235 0
0.000254 0.000255 0
0.000090 0.000194 0
0.000000 0.000068 0
0.000000 0.000000 0
0.000000 0.000000 0
0.000000 0.000000 0
0.000000 0.000039 0
0.000015 0.000006 0
0.000166 -0.000189 0
0.000475 -0.000415 0
0.000905 -0.000574 0
0.001392 -0.000634 0
0.001874 -0.000604 0
0.002304 -0.000511 0
0.002651 -0.000386 0
0.002904 -0.000254 0
0.003063 -0.000133 0
0.003139 -0.000033 0
0.003146 0.000042 0
0.003103 0.000093 0
0.003025 0.000122 0
0.002929 0.000133 0
0.002826 0.000130 0
0.002726 0.000119 0
0.002635 0.000101 0
0.002558 0.000081 0
0.002496 0.000061 0
0.002450 0.000042 0
0.002417 0.000026 0
0.002396 0.000014 0
0.002383 0.000005 0
0.002377 -0.000001 0
0.002374 -0.000003 0
0.002372 -0.000002 0
0.002369 0.000000 0
0.002365 0.000004 0
0.002357 0.000008 0
0.002347 0.000012 0
0.002335 0.000015 0
0.002320 0.000017 0
0.002304 0.000018 0
0.002287 0.000018 0
0.002271 0.000016 0
0.002256 0.000014 0
0.002243 0.000012 0
0.002230 0.000010 0
0.002219 0.000010 0
0.002208 0.000010 0
0.002196 0.000012 0
0.002183 0.000015 0
0.002168 0.000019 0
0.002151 0.000021 0
0.002133 0.000023 0
0.002114 0.000020 0
0.002098 0.000013 0
0.002087 -0.000002 0
0.002083 -0.000026 0
0.002091 -0.000060 0
0.002107 -0.000105 0
0.002122 -0.000148 0
0.002102 -0.000146 0
0.001971 0.000024 0
0.001587 0.000585 0
0.000817 0.001410 0
0.000000 0.000911 0
0.000000 -0.000336 0
0.000279 -0.000844 0
0.000716 -0.000936 0
0.001103 -0.000694 0
0.001363 -0.000379 0
0.001494 -0.000119 0
0.001527 0.000047 0
0.001502 0.000126 0
0.001451 0.000142 0
0.001399 0.000122 0
0.001356 0.000087 0
0.001326 0.000052 0
0.001308 0.000025 0
0.001299 0.000008 0
0.001294 0.000001 0
0.001291 -0.000000 0
0.001286 0.000003 0
0.001279 0.000008 0
0.001269 0.000014 0
0.001256 0.000019 0
0.001240 0.000024 0
0.001222 0.000029 0
0.001200 0.000033 0
0.001176 0.000038 0
0.001148 0.000043 0
0.001117 0.000050 0
0.001080 0.000059 0
0.001036 0.000073 0
0.000983 0.000095 0
0.000916 0.000128 0
0.000829 0.000179 0
0.000719 0.000250 0
0.000579 0.000336 0
0.000414 0.000412 0
0.000237 0.000432 0
0.000081 0.000323 0
0.000000 0.000113 0
0.000000 0.000000 0
0.000000 0.000000 0
0.000000 0.000000 0
0.000000 0.000013 0
0.000091 -0.000130 0
0.000375 -0.000490 0
0.000822 -0.000857 0
0.001372 -0.001098 0
0.001955 -0.001176 0
0.002513 -0.001109 0
0.003003 -0.000942 0
0.003398 -0.000721 0
0.003688 -0.000487 0
0.003876 -0.000269 0
0.003970 -0.000085 0
0.003987 0.000056 0
0.003945 0.000155 0
0.003861 0.000216 0
0.003753 0.000243 0
0.003635 0.000244 0
0.003518 0.000227 0
0.003410 0.000197 0
0.003316 0.000162 0
0.003239 0.000125 0
0.003178 0.000090 0
0.003133 0.000060 0
0.003102 0.000036 0
0.003080 0.000018 0
0.003066 0.000008 0
0.003056 0.000003 0
0.003048 0.000003 0
0.003039 0.000006 0
0.003029 0.000012 0
0.003016 0.000019 0
0.003000 0.000026 0
0.002982 0.000032 0
0.002961 0.000036 0
0.002939 0.000038 0
0.002916 0.000037 0
0.002893 0.000035 0
0.002871 0.000032 0
0.002851 0.000029 0
0.002831 0.000026 0
0.002813 0.000024 0
0.002795 0.000025 0
0.002776 0.000028 0
0.002757 0.000032 0
0.002737 0.000038 0
0.002715 0.000042 0
0.002691 0.000044 0
0.002667 0.000041 0
0.002644 0.000031 0
0.002622 0.000012 0
0.002601 -0.000017 0
0.002578 -0.000054 0
0.002543 -0.000088 0
0.002472 -0.000089 0
0.002320 0.000019 0
0.002009 0.000399 0
0.001446 0.001253 0
0.000634 0.002181 0
0.000000 0.001270 0
0.000000 -0.000475 0
0.000269 -0.001203 0
0.000697 -0.001352 0
0.001079 -0.001024 0
0.001340 -0.000582 0
0.001476 -0.000208 0
0.001516 0.000037 0
0.001499 0.000159 0
0.001456 0.000190 0
0.001409 0.000167 0
0.001369 0.000122 0
0.001341 0.000076 0
0.001323 0.000039 0
0.001312 0.000017 0
0.001303 0.000007 0
0.001294 0.000006 0
0.001284 0.000011 0
0.001271 0.000019 0
0.001255 0.000028 0
0.001236 0.000036 0
0.001214 0.000044 0
0.001189 0.000052 0
0.001161 0.000060 0
0.001129 0.000068 0
0.001094 0.000077 0
0.001054 0.000089 0
0.001008 0.000105 0
0.000955 0.000128 0
0.000892 0.000161 0
0.000817 0.000211 0
0.000725 0.000283 0
0.000613 0.000378 0
0.000481 0.000486 0
0.000333 0.000577 0
0.000184 0.000588 0
0.000060 0.000431 0
0.000000 0.000149 0
0.000000 0.000000 0
0.000000 0.000000 0
0.000000 0.000000 0
0.000000 -0.000051 0
0.000159 -0.000368 0
0.000558 -0.000920 0
0.001116 -0.001412 0
0.001747 -0.001707 0
0.002383 -0.001775 0
0.002969 -0.001651 0
0.003469 -0.001396 0
0.003866 -0.001072 0
0.004154 -0.000732 0
0.004337 -0.000414 0
0.004429 -0.000144 0
0.004443 0.000068 0
0.004398 0.000219 0
0.004312 0.000313 0
0.004201 0.000359 0
0.004079 0.000366 0
0.003957 0.000344 0
0.003844 0.000303 0
0.003745 0.000252 0
0.003662 0.000199 0
0.003596 0.000148 0
0.003544 0.000103 0
0.003505 0.000067 0
0.003476 0.000041 0
0.003454 0.000024 0
0.003436 0.000016 0
0.003419 0.000014 0
0.003403 0.000019 0
0.003386 0.000027 0
0.003366 0.000036 0
0.003344 0.000046 0
0.003320 0.000054 0
0.003294 0.000060 0
0.003267 0.000063 0
0.003238 0.000063 0
0.003210 0.000061 0
0.003182 0.000057 0
0.003154 0.000052 0
0.003128 0.000049 0
0.003103 0.000046 0
0.003078 0.000047 0
0.003054 0.000050 0
0.003029 0.000055 0
0.003004 0.000061 0
0.002978 0.000067 0
0.002951 0.000070 0
0.002923 0.000068 0
0.002894 0.000058 0
0.002862 0.000041 0
0.002823 0.000018 0
0.002769 -0.000002 0
0.002685 0.000001 0
0.002541 0.000075 0
0.002292 0.000317 0
0.001879 0.000898 0
0.001254 0.001961 0
0.000492 0.002856 0
0.000000 0.001545 0
0.000000 -0.000606 0
0.000249 -0.001542 0
0.000647 -0.001747 0
0.001001 -0.001338 0
0.001243 -0.000776 0
0.001368 -0.000296 0
0.001405 0.000024 0
0.001390 0.000186 0
0.001352 0.000232 0
0.001311 0.000207 0
0.001276 0.000154 0
0.001250 0.000098 0
0.001231 0.000055 0
0.001216 0.000029 0
0.001202 0.000018 0
0.001187 0.000018 0
0.001169 0.000026 0
0.001150 0.000036 0
0.001127 0.000048 0
0.001101 0.000060 0
0.001073 0.000071 0
0.001042 0.000082 0
0.001007 0.000093 0
0.000969 0.000105 0
0.000928 0.000118 0
0.000882 0.000135 0
0.000832 0.000157 0
0.000775 0.000188 0
0.000710 0.000232 0
0.000636 0.000296 0
0.000550 0.000383 0
0.000452 0.000494 0
0.000342 0.000615 0
0.000226 0.000709 0
0.000118 0.000705 0
0.000035 0.000507 0
0.000000 0.000172 0
0.000000 0.000000 0
0.000000 0.000000 0
0.000000 0.000000 0
0.000000 -0.000145 0
0.000208 -0.000687 0
0.000690 -0.001447 0
0.001322 -0.002046 0
0.002004 -0.002365 0
0.002662 -0.002397 0
0.003247 -0.002195 0
0.003730 -0.001839 0
0.004101 -0.001406 0
0.004361 -0.000959 0
0.004519 -0.000544 0
0.004589 -0.000191 0
0.004588 0.000087 0
0.004532 0.000287 0
0.004440 0.000413 0
0.004327 0.000476 0
0.004206 0.000487 0
0.004086 0.000461 0
0.003976 0.000409 0
0.003880 0.000344 0
0.003798 0.000274 0
0.003730 0.000208 0
0.003676 0.000151 0
0.003632 0.000104 0
0.003597 0.000070 0
0.003566 0.000048 0
0.003540 0.000037 0
0.003514 0.000035 0
0.003489 0.000040 0
0.003464 0.000049 0
0.003437 0.000061 0
0.003408 0.000072 0
0.003378 0.000082 0
0.003347 0.000090 0
0.003315 0.000094 0
0.003283 0.000094 0
0.003250 0.000092 0
0.003218 0.000088 0
0.003185 0.000082 0
0.003154 0.000078 0
0.003123 0.000075 0
0.003093 0.000074 0
0.003064 0.000077 0
0.003036 0.000082 0
0.003008 0.000089 0
0.002980 0.000095 0
0.002952 0.000099 0
0.002922 0.000098 0
0.002890 0.000093 0
0.002852 0.000083 0
0.002801 0.000076 0
0.002727 0.000085 0
0.002612 0.000141 0
0.002427 0.000304 0
0.002133 0.000681 0
0.001686 0.001437 0
0.001071 0.002640 0
0.000389 0.003435 0
0.000000 0.001761 0
0.000000 -0.000725 0
0.000225 -0.001850 0
0.000582 -0.002105 0
0.000897 -0.001620 0
0.001107 -0.000949 0
0.001212 -0.000371 0
0.001241 0.000015 0
0.001225 0.000212 0
0.001190 0.000269 0
0.001154 0.000243 0
0.001122 0.000183 0
0.001097 0.000121 0
0.001076 0.000073 0
0.001056 0.000046 0
0.001036 0.000035 0
0.001013 0.000038 0
0.000988 0.000048 0
0.000961 0.000061 0
0.000931 0.000076 0
0.000900 0.000090 0
0.000865 0.000104 0
0.000829 0.000117 0
0.000790 0.000131 0
0.000748 0.000147 0
0.000703 0.000164 0
0.000655 0.000185 0
0.000604 0.000212 0
0.000549 0.000249 0
0.000489 0.000300 0
0.000423 0.000371 0
0.000352 0.000468 0
0.000275 0.000587 0
0.000195 0.000711 0
0.000120 0.000800 0
0.000056 0.000779 0
0.000014 0.000549 0
0.000000 0.000184 0
0.000000 0.000000 0
0.000000 0.000000 0
0.000000 0.000000 0
0.000000 -0.000259 0
0.000237 -0.001058 0
0.000765 -0.002033 0
0.001438 -0.002725 0
0.002142 -0.003047 0
0.002799 -0.003018 0
0.003363 -0.002720 0
0.003810 -0.002250 0
0.004138 -0.001703 0
0.004354 -0.001149 0
0.004472 -0.000642 0
0.004509 -0.000213 0
0.004482 0.000124 0
0.004409 0.000366 0
0.004307 0.000519 0
0.004190 0.000594 0
0.004070 0.000606 0
0.003955 0.000573 0
0.003850 0.000510 0
0.003759 0.000431 0
0.003680 0.000348 0
0.003614 0.000269 0
0.003559 0.000201 0
0.003511 0.000147 0
0.003468 0.000107 0
0.003430 0.000081 0
0.003393 0.000068 0
0.003358 0.000065 0
0.003324 0.000070 0
0.003290 0.000080 0
0.003255 0.000092 0
0.003221 0.000104 0
0.003187 0.000115 0
0.003152 0.000123 0
0.003118 0.000128 0
0.003083 0.000129 0
0.003048 0.000126 0
0.003013 0.000122 0
0.002979 0.000116 0
0.002945 0.000111 0
0.002912 0.000107 0
0.002881 0.000106 0
0.002850 0.000107 0
0.002821 0.000112 0
0.002793 0.000117 0
0.002766 0.000123 0
0.002739 0.000128 0
0.002711 0.000130 0
0.002680 0.000129 0
0.002641 0.000130 0
0.002589 0.000143 0
0.002510 0.000187 0
0.002387 0.000302 0
0.002195 0.000554 0
0.001900 0.001058 0
0.001469 0.001960 0
0.000902 0.003259 0
0.000308 0.003926 0
0.000000 0.001934 0
0.000000 -0.000831 0
0.000200 -0.002124 0
0.000512 -0.002419 0
0.000781 -0.001863 0
0.000955 -0.001092 0
0.001036 -0.000430 0
0.001053 0.000011 0
0.001035 0.000237 0
0.001003 0.000302 0
0.000970 0.000275 0
0.000940 0.000210 0
0.000915 0.000145 0
0.000890 0.000096 0
0.000865 0.000068 0
0.000838 0.000060 0
0.000808 0.000065 0
0.000776 0.000078 0
0.000742 0.000093 0
0.000707 0.000110 0
0.000670 0.000126 0
0.000631 0.000141 0
0.000591 0.000157 0
0.000549 0.000173 0
0.000505 0.000191 0
0.000460 0.000211 0
0.000413 0.000234 0
0.000365 0.000264 0
0.000315 0.000303 0
0.000264 0.000357 0
0.000213 0.000432 0
0.000160 0.000531 0
0.000109 0.000650 0
0.000063 0.000770 0
0.000026 0.000848 0
0.000004 0.000811 0
-0.000003 0.000562 0
0.000000 0.000186 0
0.000000 0.000000 0
0.000000 0.000000 0
0.000000 0.000000 0
0.000000 -0.000382 0
0.000247 -0.001452 0
0.000794 -0.002647 0
0.001480 -0.003422 0
0.002181 -0.003727 0
0.002816 -0.003618 0
0.003340 -0.003206 0
0.003736 -0.002615 0
0.004009 -0.001949 0
0.004170 -0.001292 0
0.004240 -0.000699 0
0.004236 -0.000201 0
0.004178 0.000186 0
0.004082 0.000462 0
0.003966 0.000633 0
0.003842 0.000714 0
0.003721 0.000723 0
0.003608 0.000681 0
0.003508 0.000605 0
0.003420 0.000514 0
0.003344 0.000419 0
0.003278 0.000330 0
0.003218 0.000255 0
0.003164 0.000195 0
0.003114 0.000151 0
0.003066 0.000123 0
0.003020 0.000109 0
0.002975 0.000105 0
0.002933 0.000109 0
0.002892 0.000118 0
0.002853 0.000129 0
0.002815 0.000141 0
0.002779 0.000151 0
0.002743 0.000159 0
0.002709 0.000163 0
0.002675 0.000164 0
0.002642 0.000162 0
0.002609 0.000157 0
0.002577 0.000151 0
0.002545 0.000145 0
0.002514 0.000140 0
0.002484 0.000137 0
0.002456 0.000137 0
0.002430 0.000140 0
0.002406 0.000144 0
0.002382 0.000149 0
0.002360 0.000154 0
0.002338 0.000158 0
0.002313 0.000162 0
0.002281 0.000174 0
0.002237 0.000207 0
0.002170 0.000286 0
0.002063 0.000456 0
0.001892 0.000792 0
0.001628 0.001408 0
0.001243 0.002435 0
0.000745 0.003801 0
0.000242 0.004337 0
0.000000 0.002070 0
0.000000 -0.000925 0
0.000175 -0.002363 0
0.000442 -0.002686 0
0.000665 -0.002063 0
0.000801 -0.001204 0
0.000858 -0.000470 0
0.000863 0.000016 0
0.000841 0.000262 0
0.000810 0.000333 0
0.000780 0.000305 0
0.000752 0.000237 0
0.000725 0.000171 0
0.000697 0.000123 0
0.000667 0.000098 0
0.000633 0.000092 0
0.000597 0.000099 0
0.000559 0.000114 0
0.000520 0.000131 0
0.000480 0.000148 0
0.000440 0.000165 0
0.000399 0.000182 0
0.000357 0.000199 0
0.000314 0.000217 0
0.000271 0.000235 0
0.000228 0.000256 0
0.000185 0.000280 0
0.000143 0.000310 0
0.000102 0.000349 0
0.000063 0.000402 0
0.000027 0.000475 0
-0.000004 0.000571 0
-0.000029 0.000684 0
-0.000045 0.000794 0
-0.000047 0.000859 0
-0.000035 0.000808 0
-0.000015 0.000553 0
0.000000 0.000181 0
0.000000 0.000000 0
0.000000 0.000000 0
0.000000 0.000000 0
0.000000 -0.000506 0
0.000247 -0.001852 0
0.000792 -0.003265 0
0.001468 -0.004112 0
0.002144 -0.004383 0
0.002736 -0.004177 0
0.003204 -0.003640 0
0.003537 -0.002919 0
0.003745 -0.002136 0
0.003845 -0.001380 0
0.003861 -0.000708 0
0.003812 -0.000151 0
0.003718 0.000278 0
0.003596 0.000578 0
0.003462 0.000759 0
0.003327 0.000839 0
0.003200 0.000840 0
0.003085 0.000786 0
0.002982 0.000698 0
0.002893 0.000595 0
0.002813 0.000491 0
0.002741 0.000395 0
0.002675 0.000314 0
0.002612 0.000251 0
0.002552 0.000205 0
0.002496 0.000175 0
0.002442 0.000158 0
0.002391 0.000152 0
0.002345 0.000154 0
0.002302 0.000160 0
0.002262 0.000169 0
0.002226 0.000178 0
0.002193 0.000187 0
0.002162 0.000193 0
0.002133 0.000196 0
0.002105 0.000196 0
0.002078 0.000193 0
0.002052 0.000187 0
0.002026 0.000181 0
0.002001 0.000174 0
0.001978 0.000168 0
0.001955 0.000163 0
0.001934 0.000162 0
0.001915 0.000163 0
0.001897 0.000165 0
0.001881 0.000169 0
0.001867 0.000173 0
0.001852 0.000178 0
0.001838 0.000186 0
0.001820 0.000206 0
0.001795 0.000255 0
0.001753 0.000362 0
0.001679 0.000580 0
0.001551 0.000989 0
0.001340 0.001706 0
0.001020 0.002843 0
0.000600 0.004260 0
0.000184 0.004672 0
0.000000 0.002175 0
0.000000 -0.001007 0
0.000152 -0.002567 0
0.000376 -0.002908 0
0.000554 -0.002221 0
0.000654 -0.001285 0
0.000688 -0.000492 0
0.000682 0.000028 0
0.000657 0.000289 0
0.000627 0.000363 0
0.000599 0.000333 0
0.000571 0.000265 0
0.000543 0.000199 0
0.000511 0.000154 0
0.000476 0.000132 0
0.000438 0.000129 0
0.000398 0.000139 0
0.000356 0.000154 0
0.000314 0.000172 0
0.000272 0.000190 0
0.000231 0.000207 0
0.000189 0.000224 0
0.000148 0.000241 0
0.000107 0.000259 0
0.000067 0.000277 0
0.000029 0.000297 0
-0.000008 0.000319 0
-0.000043 0.000347 0
-0.000073 0.000383 0
-0.000100 0.000432 0
-0.000120 0.000500 0
-0.000132 0.000588 0
-0.000134 0.000690 0
-0.000123 0.000788 0
-0.000098 0.000839 0
-0.000061 0.000779 0
-0.000022 0.000527 0
0.000000 0.000171 0
0.000000 0.000000 0
0.000000 0.000000 0
0.000000 0.000000 0
0.000000 -0.000629 0
0.000241 -0.002244 0
0.000772 -0.003868 0
0.001419 -0.004773 0
0.002050 -0.004995 0
0.002583 -0.004678 0
0.002982 -0.004007 0
0.003241 -0.003155 0
0.003378 -0.002257 0
0.003413 -0.001408 0
0.003372 -0.000666 0
0.003276 -0.000058 0
0.003143 0.000402 0
0.002990 0.000718 0
0.002832 0.000902 0
0.002678 0.000976 0
0.002536 0.000966 0
0.002407 0.000898 0
0.002293 0.000797 0
0.002192 0.000683 0
0.002100 0.000570 0
0.002017 0.000469 0
0.001939 0.000384 0
0.001868 0.000317 0
0.001801 0.000268 0
0.001741 0.000234 0
0.001686 0.000213 0
0.001638 0.000202 0
0.001595 0.000199 0
0.001559 0.000200 0
0.001528 0.000205 0
0.001501 0.000210 0
0.001479 0.000216 0
0.001459 0.000219 0
0.001441 0.000220 0
0.001425 0.000219 0
0.001410 0.000215 0
0.001396 0.000209 0
0.001383 0.000201 0
0.001370 0.000193 0
0.001358 0.000186 0
0.001347 0.000181 0
0.001336 0.000178 0
0.001327 0.000177 0
0.001319 0.000178 0
0.001312 0.000180 0
0.001307 0.000183 0
0.001304 0.000186 0
0.001303 0.000195 0
0.001305 0.000218 0
0.001306 0.000275 0
0.001300 0.000402 0
0.001273 0.000658 0
0.001200 0.001131 0
0.001053 0.001939 0
0.000805 0.003175 0