# vtk DataFile Version 2.0
generated by CFD-lab course output (written by Tobias Neckel) 
ASCII

DATASET STRUCTURED_GRID
DIMENSIONS  99 49 1 
POINTS 4851 float

0.000000 0.000000 0
0.020000 0.000000 0
0.040000 0.000000 0
0.060000 0.000000 0
0.080000 0.000000 0
0.100000 0.000000 0
0.120000 0.000000 0
0.140000 0.000000 0
0.160000 0.000000 0
0.180000 0.000000 0
0.200000 0.000000 0
0.220000 0.000000 0
0.240000 0.000000 0
0.260000 0.000000 0
0.280000 0.000000 0
0.300000 0.000000 0
0.320000 0.000000 0
0.340000 0.000000 0
0.360000 0.000000 0
0.380000 0.000000 0
0.400000 0.000000 0
0.420000 0.000000 0
0.440000 0.000000 0
0.460000 0.000000 0
0.480000 0.000000 0
0.500000 0.000000 0
0.520000 0.000000 0
0.540000 0.000000 0
0.560000 0.000000 0
0.580000 0.000000 0
0.600000 0.000000 0
0.620000 0.000000 0
0.640000 0.000000 0
0.660000 0.000000 0
0.680000 0.000000 0
0.700000 0.000000 0
0.720000 0.000000 0
0.740000 0.000000 0
0.760000 0.000000 0
0.780000 0.000000 0
0.800000 0.000000 0
0.820000 0.000000 0
0.840000 0.000000 0
0.860000 0.000000 0
0.880000 0.000000 0
0.900000 0.000000 0
0.920000 0.000000 0
0.940000 0.000000 0
0.960000 0.000000 0
0.980000 0.000000 0
1.000000 0.000000 0
1.020000 0.000000 0
1.040000 0.000000 0
1.060000 0.000000 0
1.080000 0.000000 0
1.100000 0.000000 0
1.120000 0.000000 0
1.140000 0.000000 0
1.160000 0.000000 0
1.180000 0.000000 0
1.200000 0.000000 0
1.220000 0.000000 0
1.240000 0.000000 0
1.260000 0.000000 0
1.280000 0.000000 0
1.300000 0.000000 0
1.320000 0.000000 0
1.340000 0.000000 0
1.360000 0.000000 0
1.380000 0.000000 0
1.400000 0.000000 0
1.420000 0.000000 0
1.440000 0.000000 0
1.460000 0.000000 0
1.480000 0.000000 0
1.500000 0.000000 0
1.520000 0.000000 0
1.540000 0.000000 0
1.560000 0.000000 0
1.580000 0.000000 0
1.600000 0.000000 0
1.620000 0.000000 0
1.640000 0.000000 0
1.660000 0.000000 0
1.680000 0.000000 0
1.700000 0.000000 0
1.720000 0.000000 0
1.740000 0.000000 0
1.760000 0.000000 0
1.780000 0.000000 0
1.800000 0.000000 0
1.820000 0.000000 0
1.840000 0.000000 0
1.860000 0.000000 0
1.880000 0.000000 0
1.900000 0.000000 0
1.920000 0.000000 0
1.940000 0.000000 0
1.960000 0.000000 0
0.000000 0.020000 0
0.020000 0.020000 0
0.040000 0.020000 0
0.060000 0.020000 0
0.080000 0.020000 0
0.100000 0.020000 0
0.120000 0.020000 0
0.140000 0.020000 0
0.160000 0.020000 0
0.180000 0.020000 0
0.200000 0.020000 0
0.220000 0.020000 0
0.240000 0.020000 0
0.260000 0.020000 0
0.280000 0.020000 0
0.300000 0.020000 0
0.320000 0.020000 0
0.340000 0.020000 0
0.360000 0.020000 0
0.380000 0.020000 0
0.400000 0.020000 0
0.420000 0.020000 0
0.440000 0.020000 0
0.460000 0.020000 0
0.480000 0.020000 0
0.500000 0.020000 0
0.520000 0.020000 0
0.540000 0.020000 0
0.560000 0.020000 0
0.580000 0.020000 0
0.600000 0.020000 0
0.620000 0.020000 0
0.640000 0.020000 0
0.660000 0.020000 0
0.680000 0.020000 0
0.700000 0.020000 0
0.720000 0.020000 0
0.740000 0.020000 0
0.760000 0.020000 0
0.780000 0.020000 0
0.800000 0.020000 0
0.820000 0.020000 0
0.840000 0.020000 0
0.860000 0.020000 0
0.880000 0.020000 0
0.900000 0.020000 0
0.920000 0.020000 0
0.940000 0.020000 0
0.960000 0.020000 0
0.980000 0.020000 0
1.000000 0.020000 0
1.020000 0.020000 0
1.040000 0.020000 0
1.060000 0.020000 0
1.080000 0.020000 0
1.100000 0.020000 0
1.120000 0.020000 0
1.140000 0.020000 0
1.160000 0.020000 0
1.180000 0.020000 0
1.200000 0.020000 0
1.220000 0.020000 0
1.240000 0.020000 0
1.260000 0.020000 0
1.280000 0.020000 0
1.300000 0.020000 0
1.320000 0.020000 0
1.340000 0.020000 0
1.360000 0.020000 0
1.380000 0.020000 0
1.400000 0.020000 0
1.420000 0.020000 0
1.440000 0.020000 0
1.460000 0.020000 0
1.480000 0.020000 0
1.500000 0.020000 0
1.520000 0.020000 0
1.540000 0.020000 0
1.560000 0.020000 0
1.580000 0.020000 0
1.600000 0.020000 0
1.620000 0.020000 0
1.640000 0.020000 0
1.660000 0.020000 0
1.680000 0.020000 0
1.700000 0.020000 0
1.720000 0.020000 0
1.740000 0.020000 0
1.760000 0.020000 0
1.780000 0.020000 0
1.800000 0.020000 0
1.820000 0.020000 0
1.840000 0.020000 0
1.860000 0.020000 0
1.880000 0.020000 0
1.900000 0.020000 0
1.920000 0.020000 0
1.940000 0.020000 0
1.960000 0.020000 0
0.000000 0.040000 0
0.020000 0.040000 0
0.040000 0.040000 0
0.060000 0.040000 0
0.080000 0.040000 0
0.100000 0.040000 0
0.120000 0.040000 0
0.140000 0.040000 0
0.160000 0.040000 0
0.180000 0.040000 0
0.200000 0.040000 0
0.220000 0.040000 0
0.240000 0.040000 0
0.260000 0.040000 0
0.280000 0.040000 0
0.300000 0.040000 0
0.320000 0.040000 0
0.340000 0.040000 0
0.360000 0.040000 0
0.380000 0.040000 0
0.400000 0.040000 0
0.420000 0.040000 0
0.440000 0.040000 0
0.460000 0.040000 0
0.480000 0.040000 0
0.500000 0.040000 0
0.520000 0.040000 0
0.540000 0.040000 0
0.560000 0.040000 0
0.580000 0.040000 0
0.600000 0.040000 0
0.620000 0.040000 0
0.640000 0.040000 0
0.660000 0.040000 0
0.680000 0.040000 0
0.700000 0.040000 0
0.720000 0.040000 0
0.740000 0.040000 0
0.760000 0.040000 0
0.780000 0.040000 0
0.800000 0.040000 0
0.820000 0.040000 0
0.840000 0.040000 0
0.860000 0.040000 0
0.880000 0.040000 0
0.900000 0.040000 0
0.920000 0.040000 0
0.940000 0.040000 0
0.960000 0.040000 0
0.980000 0.040000 0
1.000000 0.040000 0
1.020000 0.040000 0
1.040000 0.040000 0
1.060000 0.040000 0
1.080000 0.040000 0
1.100000 0.040000 0
1.120000 0.040000 0
1.140000 0.040000 0
1.160000 0.040000 0
1.180000 0.040000 0
1.200000 0.040000 0
1.220000 0.040000 0
1.240000 0.040000 0
1.260000 0.040000 0
1.280000 0.040000 0
1.300000 0.040000 0
1.320000 0.040000 0
1.340000 0.040000 0
1.360000 0.040000 0
1.380000 0.040000 0
1.400000 0.040000 0
1.420000 0.040000 0
1.440000 0.040000 0
1.460000 0.040000 0
1.480000 0.040000 0
1.500000 0.040000 0
1.520000 0.040000 0
1.540000 0.040000 0
1.560000 0.040000 0
1.580000 0.040000 0
1.600000 0.040000 0
1.620000 0.040000 0
1.640000 0.040000 0
1.660000 0.040000 0
1.680000 0.040000 0
1.700000 0.040000 0
1.720000 0.040000 0
1.740000 0.040000 0
1.760000 0.040000 0
1.780000 0.040000 0
1.800000 0.040000 0
1.820000 0.040000 0
1.840000 0.040000 0
1.860000 0.040000 0
1.880000 0.040000 0
1.900000 0.040000 0
1.920000 0.040000 0
1.940000 0.040000 0
1.960000 0.040000 0
0.000000 0.060000 0
0.020000 0.060000 0
0.040000 0.060000 0
0.060000 0.060000 0
0.080000 0.060000 0
0.100000 0.060000 0
0.120000 0.060000 0
0.140000 0.060000 0
0.160000 0.060000 0
0.180000 0.060000 0
0.200000 0.060000 0
0.220000 0.060000 0
0.240000 0.060000 0
0.260000 0.060000 0
0.280000 0.060000 0
0.300000 0.060000 0
0.320000 0.060000 0
0.340000 0.060000 0
0.360000 0.060000 0
0.380000 0.060000 0
0.400000 0.060000 0
0.420000 0.060000 0
0.440000 0.060000 0
0.460000 0.060000 0
0.480000 0.060000 0
0.500000 0.060000 0
0.520000 0.060000 0
0.540000 0.060000 0
0.560000 0.060000 0
0.580000 0.060000 0
0.600000 0.060000 0
0.620000 0.060000 0
0.640000 0.060000 0
0.660000 0.060000 0
0.680000 0.060000 0
0.700000 0.060000 0
0.720000 0.060000 0
0.740000 0.060000 0
0.760000 0.060000 0
0.780000 0.060000 0
0.800000 0.060000 0
0.820000 0.060000 0
0.840000 0.060000 0
0.860000 0.060000 0
0.880000 0.060000 0
0.900000 0.060000 0
0.920000 0.060000 0
0.940000 0.060000 0
0.960000 0.060000 0
0.980000 0.060000 0
1.000000 0.060000 0
1.020000 0.060000 0
1.040000 0.060000 0
1.060000 0.060000 0
1.080000 0.060000 0
1.100000 0.060000 0
1.120000 0.060000 0
1.140000 0.060000 0
1.160000 0.060000 0
1.180000 0.060000 0
1.200000 0.060000 0
1.220000 0.060000 0
1.240000 0.060000 0
1.260000 0.060000 0
1.280000 0.060000 0
1.300000 0.060000 0
1.320000 0.060000 0
1.340000 0.060000 0
1.360000 0.060000 0
1.380000 0.060000 0
1.400000 0.060000 0
1.420000 0.060000 0
1.440000 0.060000 0
1.460000 0.060000 0
1.480000 0.060000 0
1.500000 0.060000 0
1.520000 0.060000 0
1.540000 0.060000 0
1.560000 0.060000 0
1.580000 0.060000 0
1.600000 0.060000 0
1.620000 0.060000 0
1.640000 0.060000 0
1.660000 0.060000 0
1.680000 0.060000 0
1.700000 0.060000 0
1.720000 0.060000 0
1.740000 0.060000 0
1.760000 0.060000 0
1.780000 0.060000 0
1.800000 0.060000 0
1.820000 0.060000 0
1.840000 0.060000 0
1.860000 0.060000 0
1.880000 0.060000 0
1.900000 0.060000 0
1.920000 0.060000 0
1.940000 0.060000 0
1.960000 0.060000 0
0.000000 0.080000 0
0.020000 0.080000 0
0.040000 0.080000 0
0.060000 0.080000 0
0.080000 0.080000 0
0.100000 0.080000 0
0.120000 0.080000 0
0.140000 0.080000 0
0.160000 0.080000 0
0.180000 0.080000 0
0.200000 0.080000 0
0.220000 0.080000 0
0.240000 0.080000 0
0.260000 0.080000 0
0.280000 0.080000 0
0.300000 0.080000 0
0.320000 0.080000 0
0.340000 0.080000 0
0.360000 0.080000 0
0.380000 0.080000 0
0.400000 0.080000 0
0.420000 0.080000 0
0.440000 0.080000 0
0.460000 0.080000 0
0.480000 0.080000 0
0.500000 0.080000 0
0.520000 0.080000 0
0.540000 0.080000 0
0.560000 0.080000 0
0.580000 0.080000 0
0.600000 0.080000 0
0.620000 0.080000 0
0.640000 0.080000 0
0.660000 0.080000 0
0.680000 0.080000 0
0.700000 0.080000 0
0.720000 0.080000 0
0.740000 0.080000 0
0.760000 0.080000 0
0.780000 0.080000 0
0.800000 0.080000 0
0.820000 0.080000 0
0.840000 0.080000 0
0.860000 0.080000 0
0.880000 0.080000 0
0.900000 0.080000 0
0.920000 0.080000 0
0.940000 0.080000 0
0.960000 0.080000 0
0.980000 0.080000 0
1.000000 0.080000 0
1.020000 0.080000 0
1.040000 0.080000 0
1.060000 0.080000 0
1.080000 0.080000 0
1.100000 0.080000 0
1.120000 0.080000 0
1.140000 0.080000 0
1.160000 0.080000 0
1.180000 0.080000 0
1.200000 0.080000 0
1.220000 0.080000 0
1.240000 0.080000 0
1.260000 0.080000 0
1.280000 0.080000 0
1.300000 0.080000 0
1.320000 0.080000 0
1.340000 0.080000 0
1.360000 0.080000 0
1.380000 0.080000 0
1.400000 0.080000 0
1.420000 0.080000 0
1.440000 0.080000 0
1.460000 0.080000 0
1.480000 0.080000 0
1.500000 0.080000 0
1.520000 0.080000 0
1.540000 0.080000 0
1.560000 0.080000 0
1.580000 0.080000 0
1.600000 0.080000 0
1.620000 0.080000 0
1.640000 0.080000 0
1.660000 0.080000 0
1.680000 0.080000 0
1.700000 0.080000 0
1.720000 0.080000 0
1.740000 0.080000 0
1.760000 0.080000 0
1.780000 0.080000 0
1.800000 0.080000 0
1.820000 0.080000 0
1.840000 0.080000 0
1.860000 0.080000 0
1.880000 0.080000 0
[...]
POINT_DATA 4851 

VECTORS velocity float
0.000000 0.000000 0
0.000293 0.000000 0
0.000795 0.000000 0
0.001275 0.000000 0
0.001627 0.000000 0
0.001822 0.000000 0
0.001881 0.000000 0
0.001846 0.000000 0
0.001759 0.000000 0
0.001654 0.000000 0
0.001553 0.000000 0
0.001472 0.000000 0
0.001414 0.000000 0
0.001374 0.000000 0
0.001338 0.000000 0
0.001281 0.000000 0
0.001184 0.000000 0
0.001043 0.000000 0
0.000872 0.000000 0
0.000700 0.000000 0
0.000548 0.000000 0
0.000425 0.000000 0
0.000332 0.000000 0
0.000263 0.000000 0
0.000211 0.000000 0
0.000170 0.000000 0
0.000138 0.000000 0
0.000112 0.000000 0
0.000089 0.000000 0
0.000070 0.000000 0
0.000053 0.000000 0
0.000038 0.000000 0
0.000024 0.000000 0
0.000013 0.000000 0
0.000005 0.000000 0
0.000000 0.000000 0
0.000000 0.000000 0
0.000000 0.000000 0
0.000000 0.000000 0
0.000000 0.000000 0
0.000000 0.000000 0
0.000000 0.000000 0
-0.000000 0.000000 0
-0.000000 0.000000 0
-0.000000 0.000000 0
-0.000000 0.000000 0
-0.000000 0.000000 0
-0.000000 0.000000 0
-0.000000 0.000000 0
-0.000000 0.000000 0
-0.000000 0.000000 0
-0.000000 0.000000 0
-0.000000 0.000000 0
0.000000 0.000000 0
0.000000 0.000000 0
0.000001 0.000000 0
0.000002 0.000000 0
0.000002 0.000000 0
0.000003 0.000000 0
0.000005 0.000000 0
0.000006 0.000000 0
0.000008 0.000000 0
0.000010 0.000000 0
0.000013 0.000000 0
0.000016 0.000000 0
0.000019 0.000000 0
0.000023 0.000000 0
0.000027 0.000000 0
0.000031 0.000000 0
0.000035 0.000000 0
0.000040 0.000000 0
0.000045 0.000000 0
0.000050 0.000000 0
0.000056 0.000000 0
0.000061 0.000000 0
0.000067 0.000000 0
0.000073 0.000000 0
0.000080 0.000000 0
0.000087 0.000000 0
0.000094 0.000000 0
0.000101 0.000000 0
0.000109 0.000000 0
0.000118 0.000000 0
0.000128 0.000000 0
0.000138 0.000000 0
0.000150 0.000000 0
0.000163 0.000000 0
0.000177 0.000000 0
0.000195 0.000000 0
0.000216 0.000000 0
0.000241 0.000000 0
0.000274 0.000000 0
0.000317 0.000000 0
0.000374 0.000000 0
0.000451 0.000000 0
0.000540 0.000000 0
0.000593 0.000000 0
0.000455 0.000000 0
0.000000 0.000000 0
0.000000 -0.000294 0
0.000788 -0.000796 0
0.002144 -0.000983 0
0.003495 -0.000833 0
0.004561 -0.000548 0
0.005247 -0.000255 0
0.005571 -0.000025 0
0.005609 0.000120 0
0.005459 0.000191 0
0.005210 0.000205 0
0.004932 0.000181 0
0.004672 0.000139 0
0.004458 0.000097 0
0.004288 0.000075 0
0.004133 0.000092 0
0.003940 0.000153 0
0.003653 0.000238 0
0.003253 0.000312 0
0.002771 0.000342 0
0.002270 0.000324 0
0.001812 0.000274 0
0.001431 0.000215 0
0.001132 0.000162 0
0.000903 0.000121 0
0.000728 0.000092 0
0.000591 0.000072 0
0.000481 0.000058 0
0.000390 0.000048 0
0.000313 0.000042 0
0.000246 0.000036 0
0.000187 0.000032 0
0.000135 0.000028 0
0.000090 0.000024 0
0.000052 0.000019 0
0.000023 0.000012 0
0.000005 0.000005 0
0.000000 0.000000 0
0.000000 0.000000 0
0.000000 0.000000 0
0.000000 0.000000 0
0.000000 0.000000 0
0.000000 0.000000 0
-0.000000 0.000000 0
-0.000000 0.000000 0
-0.000000 0.000000 0
-0.000001 0.000000 0
-0.000001 0.000000 0
-0.000001 0.000000 0
-0.000001 0.000000 0
-0.000001 0.000000 0
-0.000000 -0.000000 0
-0.000000 -0.000000 0
0.000001 -0.000000 0
0.000002 -0.000000 0
0.000003 -0.000001 0
0.000005 -0.000001 0
0.000007 -0.000001 0
0.000010 -0.000002 0
0.000014 -0.000002 0
0.000019 -0.000003 0
0.000025 -0.000003 0
0.000032 -0.000004 0
0.000040 -0.000005 0
0.000050 -0.000005 0
0.000060 -0.000006 0
0.000072 -0.000007 0
0.000085 -0.000007 0
0.000099 -0.000008 0
0.000114 -0.000009 0
0.000131 -0.000009 0
0.000148 -0.000010 0
0.000166 -0.000010 0
0.000185 -0.000011 0
0.000205 -0.000011 0
0.000226 -0.000012 0
0.000248 -0.000012 0
0.000270 -0.000013 0
0.000294 -0.000013 0
0.000319 -0.000014 0
0.000345 -0.000015 0
0.000373 -0.000016 0
0.000402 -0.000017 0
0.000434 -0.000018 0
0.000468 -0.000020 0
0.000506 -0.000022 0
0.000547 -0.000024 0
0.000592 -0.000028 0
0.000644 -0.000032 0
0.000702 -0.000038 0
0.000770 -0.000046 0
0.000849 -0.000058 0
0.000944 -0.000075 0
0.001057 -0.000100 0
0.001190 -0.000134 0
0.001334 -0.000166 0
0.001446 -0.000142 0
0.001394 0.000085 0
0.000911 0.000593 0
0.000000 0.000455 0
0.000000 -0.000789 0
0.001001 -0.002146 0
0.002768 -0.002709 0
0.004597 -0.002418 0
0.006137 -0.001752 0
0.007250 -0.001011 0
0.007918 -0.000364 0
0.008188 0.000110 0
0.008153 0.000398 0
0.007918 0.000527 0
0.007574 0.000537 0
0.007198 0.000473 0
0.006839 0.000384 0
0.006514 0.000324 0
0.006209 0.000348 0
0.005876 0.000479 0
0.005455 0.000686 0
0.004909 0.000882 0
0.004258 0.000983 0
0.003568 0.000958 0
0.002916 0.000838 0
0.002351 0.000679 0
0.001891 0.000527 0
0.001528 0.000404 0
0.001242 0.000312 0
0.001015 0.000247 0
0.000830 0.000200 0
0.000675 0.000168 0
0.000544 0.000144 0
0.000430 0.000125 0
0.000329 0.000111 0
0.000240 0.000097 0
0.000163 0.000083 0
0.000098 0.000066 0
0.000047 0.000046 0
0.000013 0.000022 0
0.000000 0.000005 0
0.000000 0.000000 0
0.000000 0.000000 0
0.000000 0.000000 0
0.000000 0.000000 0
-0.000000 0.000000 0
-0.000000 0.000000 0
-0.000000 0.000000 0
-0.000001 0.000000 0
-0.000001 0.000000 0
-0.000001 0.000000 0
-0.000001 0.000000 0
-0.000001 -0.000000 0
-0.000000 -0.000000 0
0.000000 -0.000001 0
0.000001 -0.000001 0
0.000003 -0.000001 0
0.000005 -0.000002 0
0.000007 -0.000003 0
0.000011 -0.000004 0
0.000015 -0.000005 0
0.000021 -0.000007 0
0.000028 -0.000009 0
0.000037 -0.000011 0
0.000048 -0.000013 0
0.000061 -0.000015 0
0.000076 -0.000017 0
0.000093 -0.000020 0
0.000113 -0.000022 0
0.000134 -0.000025 0
0.000158 -0.000027 0
0.000184 -0.000029 0
0.000211 -0.000031 0
0.000241 -0.000033 0
0.000272 -0.000035 0
0.000305 -0.000037 0
0.000339 -0.000039 0
0.000375 -0.000041 0
0.000413 -0.000042 0
0.000453 -0.000044 0
0.000494 -0.000046 0
0.000537 -0.000049 0
0.000582 -0.000051 0
0.000630 -0.000054 0
0.000680 -0.000057 0
0.000733 -0.000061 0
0.000790 -0.000066 0
0.000851 -0.000071 0
0.000917 -0.000078 0
0.000989 -0.000087 0
0.001067 -0.000097 0
0.001153 -0.000110 0
0.001248 -0.000126 0
0.001353 -0.000147 0
0.001468 -0.000174 0
0.001594 -0.000207 0
0.001725 -0.000246 0
0.001847 -0.000278 0
0.001923 -0.000256 0
0.001871 -0.000059 0
0.001543 0.000535 0
0.000806 0.001394 0
0.000000 0.000911 0
0.000000 -0.001296 0
0.000969 -0.003565 0
0.002729 -0.004579 0
0.004587 -0.004202 0
0.006206 -0.003201 0
0.007451 -0.002036 0
0.008293 -0.000964 0
0.008754 -0.000115 0
0.008886 0.000462 0
0.008772 0.000784 0
0.008494 0.000900 0
0.008126 0.000875 0
0.007723 0.000781 0
0.007317 0.000704 0
0.006912 0.000730 0
0.006487 0.000907 0
0.006003 0.001206 0
0.005431 0.001508 0
0.004779 0.001683 0
0.004089 0.001667 0
0.003423 0.001491 0
0.002827 0.001239 0
0.002322 0.000985 0
0.001908 0.000770 0
0.001571 0.000605 0
0.001295 0.000484 0
0.001066 0.000397 0
0.000873 0.000334 0
0.000707 0.000287 0
0.000561 0.000251 0
0.000432 0.000221 0
0.000318 0.000194 0
0.000219 0.000166 0
0.000134 0.000135 0
0.000066 0.000097 0
0.000020 0.000052 0
0.000000 0.000013 0
0.000000 0.000000 0
0.000000 0.000000 0
0.000000 0.000000 0
0.000000 0.000000 0
-0.000000 0.000000 0
-0.000000 0.000001 0
-0.000000 0.000001 0
-0.000001 0.000001 0
-0.000001 0.000001 0
-0.000001 0.000000 0
-0.000001 0.000000 0
-0.000000 -0.000000 0
0.000000 -0.000001 0
0.000001 -0.000002 0
0.000003 -0.000002 0
0.000005 -0.000004 0
0.000008 -0.000005 0
0.000011 -0.000007 0
0.000016 -0.000009 0
0.000023 -0.000012 0
0.000031 -0.000015 0
0.000041 -0.000019 0
0.000053 -0.000023 0
0.000068 -0.000027 0
0.000085 -0.000032 0
0.000106 -0.000037 0
0.000129 -0.000042 0
0.000156 -0.000047 0
0.000185 -0.000052 0
0.000217 -0.000057 0
0.000252 -0.000061 0
0.000289 -0.000066 0
0.000329 -0.000070 0
0.000371 -0.000074 0
0.000416 -0.000078 0
0.000463 -0.000081 0
0.000512 -0.000085 0
0.000563 -0.000089 0
0.000616 -0.000093 0
0.000672 -0.000097 0
0.000731 -0.000101 0
0.000792 -0.000107 0
0.000856 -0.000112 0
0.000923 -0.000119 0
0.000994 -0.000127 0
0.001070 -0.000136 0
0.001150 -0.000147 0
0.001236 -0.000159 0
0.001327 -0.000174 0
0.001425 -0.000192 0
0.001530 -0.000213 0
0.001641 -0.000238 0
0.001758 -0.000267 0
0.001877 -0.000299 0
0.001992 -0.000332 0
0.002089 -0.000354 0
0.002141 -0.000332 0
0.002099 -0.000190 0
0.001879 0.000238 0
0.001384 0.001150 0
0.000614 0.002136 0
0.000000 0.001261 0
0.000000 -0.001759 0
0.000871 -0.004876 0
0.002461 -0.006327 0
0.004140 -0.005895 0
0.005617 -0.004617 0
0.006786 -0.003099 0
0.007629 -0.001667 0
0.008159 -0.000483 0
0.008406 0.000380 0
0.008415 0.000919 0
0.008246 0.001183 0
0.007956 0.001244 0
0.007592 0.001193 0
0.007184 0.001135 0
0.006748 0.001178 0
0.006283 0.001388 0
0.005780 0.001741 0
0.005233 0.002106 0
0.004650 0.002325 0
0.004055 0.002314 0
0.003478 0.002101 0
0.002948 0.001780 0
0.002480 0.001447 0
0.002079 0.001155 0
0.001739 0.000925 0
0.001451 0.000751 0
0.001206 0.000622 0
0.000995 0.000528 0
0.000810 0.000456 0
0.000646 0.000400 0
0.000501 0.000353 0
0.000371 0.000310 0
0.000257 0.000267 0
0.000159 0.000219 0
0.000080 0.000161 0
0.000024 0.000089 0
0.000000 0.000024 0
0.000000 0.000000 0
0.000000 0.000000 0
0.000000 0.000000 0
0.000000 0.000000 0
0.000000 0.000001 0
-0.000000 0.000001 0
-0.000000 0.000001 0
-0.000000 0.000001 0
-0.000000 0.000001 0
-0.000000 0.000000 0
-0.000000 -0.000000 0
0.000000 -0.000001 0
0.000001 -0.000002 0
0.000003 -0.000003 0
0.000004 -0.000004 0
0.000007 -0.000006 0
0.000010 -0.000009 0
0.000015 -0.000012 0
0.000020 -0.000015 0
0.000028 -0.000020 0
0.000038 -0.000025 0
0.000050 -0.000031 0
0.000064 -0.000038 0
0.000082 -0.000045 0
0.000103 -0.000053 0
0.000128 -0.000061 0
0.000156 -0.000070 0
0.000188 -0.000078 0
0.000223 -0.000086 0
0.000262 -0.000094 0
0.000304 -0.000102 0
0.000349 -0.000109 0
0.000397 -0.000116 0
0.000448 -0.000122 0
0.000502 -0.000128 0
0.000558 -0.000135 0
0.000617 -0.000141 0
0.000678 -0.000147 0
0.000742 -0.000153 0
0.000809 -0.000160 0
0.000878 -0.000168 0
0.000951 -0.000176 0
0.001027 -0.000185 0
0.001107 -0.000196 0
0.001190 -0.000208 0
0.001278 -0.000222 0
0.001371 -0.000237 0
0.001469 -0.000256 0
0.001571 -0.000276 0
0.001679 -0.000300 0
0.001790 -0.000326 0
0.001904 -0.000354 0
0.002016 -0.000383 0
0.002119 -0.000408 0
0.002204 -0.000419 0
0.002249 -0.000395 0
0.002224 -0.000287 0
0.002080 0.000006 0
0.001752 0.000656 0
0.001192 0.001800 0
0.000472 0.002777 0
0.000000 0.001526 0
0.000000 -0.002168 0
0.000764 -0.006027 0
0.002130 -0.007848 0
0.003547 -0.007359 0
0.004780 -0.005848 0
0.005763 -0.004048 0
0.006495 -0.002337 0
0.006995 -0.000892 0
0.007281 0.000206 0
0.007374 0.000944 0
0.007307 0.001360 0
0.007116 0.001529 0
0.006831 0.001553 0
0.006475 0.001548 0
0.006061 0.001632 0
0.005603 0.001876 0
0.005119 0.002255 0
0.004629 0.002637 0
0.004146 0.002861 0
0.003681 0.002839 0
0.003237 0.002598 0
0.002820 0.002237 0
0.002435 0.001854 0
0.002087 0.001511 0
0.001777 0.001233 0
0.001505 0.001017 0
0.001264 0.000854 0
0.001051 0.000731 0
0.000861 0.000636 0
0.000691 0.000560 0
0.000538 0.000496 0
0.000400 0.000438 0
0.000279 0.000378 0
0.000173 0.000312 0
0.000087 0.000232 0
0.000026 0.000131 0
0.000000 0.000037 0
0.000000 0.000000 0
0.000000 0.000000 0
0.000000 0.000000 0
0.000000 0.000000 0
0.000000 0.000001 0
-0.000000 0.000001 0
-0.000000 0.000001 0
-0.000000 0.000001 0
-0.000000 0.000000 0
-0.000000 -0.000000 0
0.000000 -0.000001 0
0.000001 -0.000002 0
0.000002 -0.000003 0
0.000003 -0.000004 0
0.000005 -0.000007 0
0.000008 -0.000009 0
0.000011 -0.000013 0
0.000016 -0.000017 0
0.000022 -0.000022 0
0.000030 -0.000029 0
0.000041 -0.000036 0
0.000054 -0.000045 0
0.000070 -0.000055 0
0.000090 -0.000066 0
0.000114 -0.000077 0
0.000141 -0.000089 0
0.000173 -0.000102 0
0.000209 -0.000114 0
0.000249 -0.000126 0
0.000293 -0.000137 0
0.000340 -0.000148 0
0.000391 -0.000159 0
0.000446 -0.000169 0
0.000503 -0.000178 0
0.000564 -0.000187 0
0.000627 -0.000196 0
0.000693 -0.000205 0
0.000762 -0.000214 0
0.000834 -0.000223 0
0.000908 -0.000233 0
0.000986 -0.000244 0
0.001066 -0.000255 0
0.001151 -0.000268 0
0.001238 -0.000282 0
0.001330 -0.000299 0
0.001425 -0.000317 0
0.001525 -0.000337 0
0.001629 -0.000360 0
0.001736 -0.000384 0
0.001845 -0.000411 0
0.001955 -0.000438 0
0.002061 -0.000463 0
0.002159 -0.000482 0
0.002240 -0.000487 0
0.002288 -0.000462 0
0.002284 -0.000374 0
0.002196 -0.000163 0
0.001982 0.000282 0
0.001599 0.001126 0
0.001030 0.002430 0
0.000377 0.003328 0
0.000000 0.001733 0
0.000000 -0.002524 0
0.000657 -0.007006 0
0.001785 -0.009109 0
0.002919 -0.008545 0
0.003880 -0.006833 0
0.004637 -0.004814 0
0.005210 -0.002898 0
0.005623 -0.001269 0
0.005893 0.000000 0
0.006027 0.000893 0
0.006037 0.001441 0
0.005936 0.001720 0
0.005737 0.001834 0
0.005450 0.001906 0
0.005088 0.002049 0
0.004673 0.002330 0
0.004241 0.002715 0
0.003833 0.003079 0
0.003467 0.003273 0
0.003141 0.003223 0
0.002837 0.002962 0
0.002543 0.002583 0
0.002256 0.002179 0
0.001979 0.001812 0
0.001718 0.001507 0
0.001477 0.001264 0
0.001255 0.001076 0
0.001053 0.000930 0
0.000869 0.000816 0
0.000701 0.000723 0
0.000548 0.000643 0
0.000410 0.000569 0
0.000286 0.000494 0
0.000178 0.000410 0
0.000090 0.000307 0
0.000027 0.000176 0
0.000000 0.000051 0
0.000000 0.000000 0
0.000000 0.000000 0
0.000000 0.000000 0
0.000000 0.000000 0
0.000000 0.000001 0
-0.000000 0.000001 0
-0.000000 0.000001 0
-0.000000 0.000001 0
-0.000000 0.000000 0
0.000000 -0.000000 0
0.000001 -0.000001 0
0.000001 -0.000002 0
0.000002 -0.000004 0
0.000003 -0.000006 0
0.000005 -0.000009 0
0.000008 -0.000012 0
0.000011 -0.000017 0
0.000015 -0.000023 0
0.000022 -0.000030 0
0.000030 -0.000038 0
0.000040 -0.000048 0
0.000054 -0.000060 0
0.000071 -0.000074 0
0.000091 -0.000088 0
0.000117 -0.000104 0
0.000146 -0.000121 0
0.000181 -0.000137 0
0.000220 -0.000154 0
0.000263 -0.000170 0
0.000311 -0.000185 0
0.000363 -0.000200 0
0.000419 -0.000214 0
0.000478 -0.000227 0
0.000540 -0.000240 0
0.000606 -0.000252 0
0.000674 -0.000264 0
0.000746 -0.000276 0
0.000820 -0.000287 0
0.000897 -0.000300 0
0.000976 -0.000312 0
0.001059 -0.000326 0
0.001145 -0.000341 0
0.001234 -0.000357 0
0.001327 -0.000375 0
0.001423 -0.000395 0
0.001522 -0.000417 0
0.001624 -0.000441 0
0.001729 -0.000466 0
0.001835 -0.000493 0
0.001941 -0.000519 0
0.002045 -0.000542 0
0.002140 -0.000559 0
0.002221 -0.000561 0
0.002277 -0.000537 0
0.002293 -0.000464 0
0.002249 -0.000303 0
0.002115 0.000015 0
0.001859 0.000603 0
0.001454 0.001608 0
0.000902 0.003021 0
0.000313 0.003807 0
0.000000 0.001903 0
0.000000 -0.002826 0
0.000550 -0.007812 0
0.001446 -0.010109 0
0.002306 -0.009453 0
0.003005 -0.007566 0
0.003541 -0.005379 0
0.003949 -0.003323 0
0.004257 -0.001575 0
0.004481 -0.000198 0
0.004624 0.000800 0
0.004681 0.001451 0
0.004646 0.001829 0
0.004519 0.002039 0
0.004299 0.002198 0
0.003998 0.002410 0
0.003648 0.002722 0
0.003297 0.003095 0
0.002991 0.003412 0
0.002748 0.003554 0
0.002553 0.003470 0
0.002377 0.003196 0
0.002196 0.002818 0
0.002003 0.002418 0
0.001799 0.002049 0
0.001593 0.001735 0
0.001390 0.001480 0
0.001196 0.001278 0
0.001013 0.001117 0
0.000842 0.000988 0
0.000684 0.000881 0
0.000537 0.000788 0
0.000402 0.000700 0
0.000281 0.000610 0
0.000175 0.000508 0
0.000088 0.000383 0
0.000026 0.000221 0
0.000000 0.000064 0
0.000000 0.000000 0
0.000000 0.000000 0
0.000000 0.000000 0
0.000000 0.000000 0
0.000000 0.000001 0
-0.000000 0.000001 0
-0.000000 0.000001 0
-0.000000 0.000001 0
0.000000 0.000000 0
0.000000 -0.000001 0
0.000000 -0.000002 0
0.000001 -0.000003 0
0.000002 -0.000005 0
0.000003 -0.000007 0
0.000004 -0.000011 0
0.000006 -0.000015 0
0.000009 -0.000021 0
0.000013 -0.000028 0
0.000019 -0.000037 0
0.000026 -0.000047 0
0.000036 -0.000060 0
0.000049 -0.000076 0
0.000066 -0.000093 0
0.000087 -0.000112 0
0.000112 -0.000132 0
0.000143 -0.000153 0
0.000180 -0.000175 0
0.000221 -0.000196 0
0.000267 -0.000217 0
0.000318 -0.000237 0
0.000374 -0.000256 0
0.000433 -0.000274 0
0.000496 -0.000290 0
0.000562 -0.000306 0
0.000631 -0.000321 0
0.000703 -0.000336 0
0.000778 -0.000350 0
0.000856 -0.000365 0
0.000936 -0.000380 0
0.001019 -0.000396 0
0.001105 -0.000412 0
0.001194 -0.000430 0
0.001286 -0.000450 0
0.001380 -0.000471 0
0.001478 -0.000493 0
0.001578 -0.000518 0
0.001680 -0.000544 0
0.001783 -0.000571 0
0.001886 -0.000597 0
0.001986 -0.000620 0
0.002080 -0.000636 0
0.002164 -0.000639 0
0.002228 -0.000619 0
0.002262 -0.000559 0
0.002251 -0.000433 0
0.002177 -0.000196 0
0.002013 0.000226 0
0.001736 0.000943 0
0.001327 0.002084 0
0.000801 0.003571 0
0.000268 0.004230 0
0.000000 0.002047 0
0.000000 -0.003074 0
0.000444 -0.008452 0
0.001124 -0.010865 0
0.001737 -0.010104 0
0.002205 -0.008069 0
0.002547 -0.005758 0
0.002806 -0.003614 0
0.003013 -0.001802 0
0.003182 -0.000366 0
0.003312 0.000694 0
0.003387 0.001419 0
0.003393 0.001881 0
0.003315 0.002182 0
0.003151 0.002427 0
0.002915 0.002701 0
0.002645 0.003031 0
0.002392 0.003372 0
0.002198 0.003628 0
0.002072 0.003711 0
0.001991 0.003595 0
0.001920 0.003319 0
0.001832 0.002957 0
0.001718 0.002576 0
0.001580 0.002222 0
0.001426 0.001916 0
0.001264 0.001661 0
0.001101 0.001453 0
0.000942 0.001284 0
0.000789 0.001145 0
0.000644 0.001028 0
0.000508 0.000924 0
0.000381 0.000825 0
0.000267 0.000722 0
0.000166 0.000603 0
0.000083 0.000456 0
0.000024 0.000264 0
0.000000 0.000077 0
0.000000 0.000000 0
0.000000 0.000000 0
0.000000 0.000000 0
0.000000 0.000000 0
0.000000 0.000001 0
0.000000 0.000001 0
-0.000000 0.000001 0
-0.000000 0.000001 0
-0.000000 0.000000 0
0.000000 -0.000001 0
0.000000 -0.000002 0
0.000001 -0.000004 0
0.000001 -0.000006 0
0.000002 -0.000009 0
0.000003 -0.000012 0
0.000004 -0.000017 0
0.000006 -0.000024 0
0.000009 -0.000032 0
0.000013 -0.000042 0
0.000019 -0.000056 0
0.000028 -0.000071 0
0.000040 -0.000090 0
0.000055 -0.000111 0
0.000076 -0.000135 0
0.000102 -0.000161 0
0.000133 -0.000188 0
0.000171 -0.000215 0
0.000214 -0.000241 0
0.000262 -0.000267 0
0.000316 -0.000292 0
0.000374 -0.000315 0
0.000436 -0.000336 0
0.000502 -0.000356 0
0.000570 -0.000375 0
0.000642 -0.000393 0
0.000717 -0.000411 0
0.000795 -0.000428 0
0.000874 -0.000445 0
0.000957 -0.000463 0
0.001042 -0.000481 0
0.001130 -0.000501 0
0.001220 -0.000521 0
0.001312 -0.000543 0
0.001407 -0.000567 0
0.001504 -0.000592 0
0.001603 -0.000619 0
0.001703 -0.000646 0
0.001803 -0.000672 0
0.001901 -0.000696 0
0.001994 -0.000714 0
0.002079 -0.000720 0
0.002150 -0.000706 0
0.002199 -0.000659 0
0.002215 -0.000560 0
0.002184 -0.000378 0
0.002089 -0.000065 0
0.001908 0.000455 0
0.001622 0.001289 0
0.001219 0.002544 0
0.000721 0.004081 0
0.000234 0.004608 0
0.000000 0.002171 0
0.000000 -0.003269 0
0.000343 -0.008936 0
0.000831 -0.011403 0
0.001233 -0.010534 0
0.001508 -0.008376 0
0.001691 -0.005980 0
0.001827 -0.003789 0
0.001946 -0.001951 0
0.002060 -0.000496 0
0.002163 0.000596 0
0.002236 0.001371 0
0.002257 0.001901 0
0.002211 0.002280 0
0.002094 0.002598 0
0.001925 0.002916 0
0.001743 0.003245 0
0.001594 0.003541 0
0.001507 0.003732 0
0.001482 0.003761 0
0.001491 0.003622 0
0.001499 0.003355 0
0.001482 0.003019 0
0.001430 0.002670 0
0.001346 0.002341 0
0.001239 0.002051 0
0.001115 0.001805 0
0.000984 0.001599 0
0.000850 0.001429 0
0.000717 0.001286 0
0.000588 0.001162 0
0.000466 0.001050 0
0.000350 0.000941 0
0.000245 0.000826 0
0.000152 0.000692 0
0.000076 0.000524 0
0.000022 0.000304 0
0.000000 0.000088 0
0.000000 0.000000 0
0.000000 0.000000 0
0.000000 0.000000 0
0.000000 0.000000 0
0.000000 0.000001 0
0.000000 0.000001 0
-0.000000 0.000001 0
-0.000000 0.000001 0
-0.000000 0.000000 0
-0.000000 -0.000001 0
-0.000000 -0.000002 0
-0.000000 -0.000004 0
-0.000000 -0.000006 0
0.000000 -0.000009 0
0.000000 -0.000013 0
0.000001 -0.000018 0
0.000002 -0.000026 0
0.000004 -0.000035 0
0.000006 -0.000047 0
0.000010 -0.000062 0
0.000017 -0.000081 0
0.000027 -0.000103 0
0.000041 -0.000129 0
0.000060 -0.000158 0
0.000085 -0.000189 0
0.000116 -0.000222 0
0.000155 -0.000256 0
0.000199 -0.000288 0
0.000249 -0.000319 0
0.000305 -0.000349 0
0.000366 -0.000376 0
0.000430 -0.000401 0
0.000498 -0.000425 0
0.000569 -0.000447 0
0.000643 -0.000468 0
0.000720 -0.000488 0
0.000799 -0.000508 0
0.000880 -0.000527 0
0.000964 -0.000548 0
0.001049 -0.000568 0
0.001137 -0.000590 0
0.001228 -0.000613 0