# vtk DataFile Version 2.0
generated by CFD-lab course output (written by Tobias Neckel) 
ASCII

DATASET STRUCTURED_GRID
DIMENSIONS  99 49 1 
POINTS 4851 float

0.000000 0.000000 0
0.020000 0.000000 0
0.040000 0.000000 0
0.060000 0.000000 0
0.080000 0.000000 0
0.100000 0.000000 0
0.120000 0.000000 0
0.140000 0.000000 0
0.160000 0.000000 0
0.180000 0.000000 0
0.200000 0.000000 0
0.220000 0.000000 0
0.240000 0.000000 0
0.260000 0.000000 0
0.280000 0.000000 0
0.300000 0.000000 0
0.320000 0.000000 0
0.340000 0.000000 0
0.360000 0.000000 0
0.380000 0.000000 0
0.400000 0.000000 0
0.420000 0.000000 0
0.440000 0.000000 0
0.460000 0.000000 0
0.480000 0.000000 0
0.500000 0.000000 0
0.520000 0.000000 0
0.540000 0.000000 0
0.560000 0.000000 0
0.580000 0.000000 0
0.600000 0.000000 0
0.620000 0.000000 0
0.640000 0.000000 0
0.660000 0.000000 0
0.680000 0.000000 0
0.700000 0.000000 0
0.720000 0.000000 0
0.740000 0.000000 0
0.760000 0.000000 0
0.780000 0.000000 0
0.800000 0.000000 0
0.820000 0.000000 0
0.840000 0.000000 0
0.860000 0.000000 0
0.880000 0.000000 0
0.900000 0.000000 0
0.920000 0.000000 0
0.940000 0.000000 0
0.960000 0.000000 0
0.980000 0.000000 0
1.000000 0.000000 0
1.020000 0.000000 0
1.040000 0.000000 0
1.060000 0.000000 0
1.080000 0.000000 0
1.100000 0.000000 0
1.120000 0.000000 0
1.140000 0.000000 0
1.160000 0.000000 0
1.180000 0.000000 0
1.200000 0.000000 0
1.220000 0.000000 0
1.240000 0.000000 0
1.260000 0.000000 0
1.280000 0.000000 0
1.300000 0.000000 0
1.320000 0.000000 0
1.340000 0.000000 0
1.360000 0.000000 0
1.380000 0.000000 0
1.400000 0.000000 0
1.420000 0.000000 0
1.440000 0.000000 0
1.460000 0.000000 0
1.480000 0.000000 0
1.500000 0.000000 0
1.520000 0.000000 0
1.540000 0.000000 0
1.560000 0.000000 0
1.580000 0.000000 0
1.600000 0.000000 0
1.620000 0.000000 0
1.640000 0.000000 0
1.660000 0.000000 0
1.680000 0.000000 0
1.700000 0.000000 0
1.720000 0.000000 0
1.740000 0.000000 0
1.760000 0.000000 0
1.780000 0.000000 0
1.800000 0.000000 0
1.820000 0.000000 0
1.840000 0.000000 0
1.860000 0.000000 0
1.880000 0.000000 0
1.900000 0.000000 0
1.920000 0.000000 0
1.940000 0.000000 0
1.960000 0.000000 0
0.000000 0.020000 0
0.020000 0.020000 0
0.040000 0.020000 0
0.060000 0.020000 0
0.080000 0.020000 0
0.100000 0.020000 0
0.120000 0.020000 0
0.140000 0.020000 0
0.160000 0.020000 0
0.180000 0.020000 0
0.200000 0.020000 0
0.220000 0.020000 0
0.240000 0.020000 0
0.260000 0.020000 0
0.280000 0.020000 0
0.300000 0.020000 0
0.320000 0.020000 0
0.340000 0.020000 0
0.360000 0.020000 0
0.380000 0.020000 0
0.400000 0.020000 0
0.420000 0.020000 0
0.440000 0.020000 0
0.460000 0.020000 0
0.480000 0.020000 0
0.500000 0.020000 0
0.520000 0.020000 0
0.540000 0.020000 0
0.560000 0.020000 0
0.580000 0.020000 0
0.600000 0.020000 0
0.620000 0.020000 0
0.640000 0.020000 0
0.660000 0.020000 0
0.680000 0.020000 0
0.700000 0.020000 0
0.720000 0.020000 0
0.740000 0.020000 0
0.760000 0.020000 0
0.780000 0.020000 0
0.800000 0.020000 0
0.820000 0.020000 0
0.840000 0.020000 0
0.860000 0.020000 0
0.880000 0.020000 0
0.900000 0.020000 0
0.920000 0.020000 0
0.940000 0.020000 0
0.960000 0.020000 0
0.980000 0.020000 0
1.000000 0.020000 0
1.020000 0.020000 0
1.040000 0.020000 0
1.060000 0.020000 0
1.080000 0.020000 0
1.100000 0.020000 0
1.120000 0.020000 0
1.140000 0.020000 0
1.160000 0.020000 0
1.180000 0.020000 0
1.200000 0.020000 0
1.220000 0.020000 0
1.240000 0.020000 0
1.260000 0.020000 0
1.280000 0.020000 0
1.300000 0.020000 0
1.320000 0.020000 0
1.340000 0.020000 0
1.360000 0.020000 0
1.380000 0.020000 0
1.400000 0.020000 0
1.420000 0.020000 0
1.440000 0.020000 0
1.460000 0.020000 0
1.480000 0.020000 0
1.500000 0.020000 0
1.520000 0.020000 0
1.540000 0.020000 0
1.560000 0.020000 0
1.580000 0.020000 0
1.600000 0.020000 0
1.620000 0.020000 0
1.640000 0.020000 0
1.660000 0.020000 0
1.680000 0.020000 0
1.700000 0.020000 0
1.720000 0.020000 0
1.740000 0.020000 0
1.760000 0.020000 0
1.780000 0.020000 0
1.800000 0.020000 0
1.820000 0.020000 0
1.840000 0.020000 0
1.860000 0.020000 0
1.880000 0.020000 0
1.900000 0.020000 0
1.920000 0.020000 0
1.940000 0.020000 0
1.960000 0.020000 0
0.000000 0.040000 0
0.020000 0.040000 0
0.040000 0.040000 0
0.060000 0.040000 0
0.080000 0.040000 0
0.100000 0.040000 0
0.120000 0.040000 0
0.140000 0.040000 0
0.160000 0.040000 0
0.180000 0.040000 0
0.200000 0.040000 0
0.220000 0.040000 0
0.240000 0.040000 0
0.260000 0.040000 0
0.280000 0.040000 0
0.300000 0.040000 0
0.320000 0.040000 0
0.340000 0.040000 0
0.360000 0.040000 0
0.380000 0.040000 0
0.400000 0.040000 0
0.420000 0.040000 0
0.440000 0.040000 0
0.460000 0.040000 0
0.480000 0.040000 0
0.500000 0.040000 0
0.520000 0.040000 0
0.540000 0.040000 0
0.560000 0.040000 0
0.580000 0.040000 0
0.600000 0.040000 0
0.620000 0.040000 0
0.640000 0.040000 0
0.660000 0.040000 0
0.680000 0.040000 0
0.700000 0.040000 0
0.720000 0.040000 0
0.740000 0.040000 0
0.760000 0.040000 0
0.780000 0.040000 0
0.800000 0.040000 0
0.820000 0.040000 0
0.840000 0.040000 0
0.860000 0.040000 0
0.880000 0.040000 0
0.900000 0.040000 0
0.920000 0.040000 0
0.940000 0.040000 0
0.960000 0.040000 0
0.980000 0.040000 0
1.000000 0.040000 0
1.020000 0.040000 0
1.040000 0.040000 0
1.060000 0.040000 0
1.080000 0.040000 0
1.100000 0.040000 0
1.120000 0.040000 0
1.140000 0.040000 0
1.160000 0.040000 0
1.180000 0.040000 0
1.200000 0.040000 0
1.220000 0.040000 0
1.240000 0.040000 0
1.260000 0.040000 0
1.280000 0.040000 0
1.300000 0.040000 0
1.320000 0.040000 0
1.340000 0.040000 0
1.360000 0.040000 0
1.380000 0.040000 0
1.400000 0.040000 0
1.420000 0.040000 0
1.440000 0.040000 0
1.460000 0.040000 0
1.480000 0.040000 0
1.500000 0.040000 0
1.520000 0.040000 0
1.540000 0.040000 0
1.560000 0.040000 0
1.580000 0.040000 0
1.600000 0.040000 0
1.620000 0.040000 0
1.640000 0.040000 0
1.660000 0.040000 0
1.680000 0.040000 0
1.700000 0.040000 0
1.720000 0.040000 0
1.740000 0.040000 0
1.760000 0.040000 0
1.780000 0.040000 0
1.800000 0.040000 0
1.820000 0.040000 0
1.840000 0.040000 0
1.860000 0.040000 0
1.880000 0.040000 0
1.900000 0.040000 0
1.920000 0.040000 0
1.940000 0.040000 0
1.960000 0.040000 0
0.000000 0.060000 0
0.020000 0.060000 0
0.040000 0.060000 0
0.060000 0.060000 0
0.080000 0.060000 0
0.100000 0.060000 0
0.120000 0.060000 0
0.140000 0.060000 0
0.160000 0.060000 0
0.180000 0.060000 0
0.200000 0.060000 0
0.220000 0.060000 0
0.240000 0.060000 0
0.260000 0.060000 0
0.280000 0.060000 0
0.300000 0.060000 0
0.320000 0.060000 0
0.340000 0.060000 0
0.360000 0.060000 0
0.380000 0.060000 0
0.400000 0.060000 0
0.420000 0.060000 0
0.440000 0.060000 0
0.460000 0.060000 0
0.480000 0.060000 0
0.500000 0.060000 0
0.520000 0.060000 0
0.540000 0.060000 0
0.560000 0.060000 0
0.580000 0.060000 0
0.600000 0.060000 0
0.620000 0.060000 0
0.640000 0.060000 0
0.660000 0.060000 0
0.680000 0.060000 0
0.700000 0.060000 0
0.720000 0.060000 0
0.740000 0.060000 0
0.760000 0.060000 0
0.780000 0.060000 0
0.800000 0.060000 0
0.820000 0.060000 0
0.840000 0.060000 0
0.860000 0.060000 0
0.880000 0.060000 0
0.900000 0.060000 0
0.920000 0.060000 0
0.940000 0.060000 0
0.960000 0.060000 0
0.980000 0.060000 0
1.000000 0.060000 0
1.020000 0.060000 0
1.040000 0.060000 0
1.060000 0.060000 0
1.080000 0.060000 0
1.100000 0.060000 0
1.120000 0.060000 0
1.140000 0.060000 0
1.160000 0.060000 0
1.180000 0.060000 0
1.200000 0.060000 0
1.220000 0.060000 0
1.240000 0.060000 0
1.260000 0.060000 0
1.280000 0.060000 0
1.300000 0.060000 0
1.320000 0.060000 0
1.340000 0.060000 0
1.360000 0.060000 0
1.380000 0.060000 0
1.400000 0.060000 0
1.420000 0.060000 0
1.440000 0.060000 0
1.460000 0.060000 0
1.480000 0.060000 0
1.500000 0.060000 0
1.520000 0.060000 0
1.540000 0.060000 0
1.560000 0.060000 0
1.580000 0.060000 0
1.600000 0.060000 0
1.620000 0.060000 0
1.640000 0.060000 0
1.660000 0.060000 0
1.680000 0.060000 0
1.700000 0.060000 0
1.720000 0.060000 0
1.740000 0.060000 0
1.760000 0.060000 0
1.780000 0.060000 0
1.800000 0.060000 0
1.820000 0.060000 0
1.840000 0.060000 0
1.860000 0.060000 0
1.880000 0.060000 0
1.900000 0.060000 0
1.920000 0.060000 0
1.940000 0.060000 0
1.960000 0.060000 0
0.000000 0.080000 0
0.020000 0.080000 0
0.040000 0.080000 0
0.060000 0.080000 0
0.080000 0.080000 0
0.100000 0.080000 0
0.120000 0.080000 0
0.140000 0.080000 0
0.160000 0.080000 0
0.180000 0.080000 0
0.200000 0.080000 0
0.220000 0.080000 0
0.240000 0.080000 0
0.260000 0.080000 0
0.280000 0.080000 0
0.300000 0.080000 0
0.320000 0.080000 0
0.340000 0.080000 0
0.360000 0.080000 0
0.380000 0.080000 0
0.400000 0.080000 0
0.420000 0.080000 0
0.440000 0.080000 0
0.460000 0.080000 0
0.480000 0.080000 0
0.500000 0.080000 0
0.520000 0.080000 0
0.540000 0.080000 0
0.560000 0.080000 0
0.580000 0.080000 0
0.600000 0.080000 0
0.620000 0.080000 0
0.640000 0.080000 0
0.660000 0.080000 0
0.680000 0.080000 0
0.700000 0.080000 0
0.720000 0.080000 0
0.740000 0.080000 0
0.760000 0.080000 0
0.780000 0.080000 0
0.800000 0.080000 0
0.820000 0.080000 0
0.840000 0.080000 0
0.860000 0.080000 0
0.880000 0.080000 0
0.900000 0.080000 0
0.920000 0.080000 0
0.940000 0.080000 0
0.960000 0.080000 0
0.980000 0.080000 0
1.000000 0.080000 0
1.020000 0.080000 0
1.040000 0.080000 0
1.060000 0.080000 0
1.080000 0.080000 0
1.100000 0.080000 0
1.120000 0.080000 0
1.140000 0.080000 0
1.160000 0.080000 0
1.180000 0.080000 0
1.200000 0.080000 0
1.220000 0.080000 0
1.240000 0.080000 0
1.260000 0.080000 0
1.280000 0.080000 0
1.300000 0.080000 0
1.320000 0.080000 0
1.340000 0.080000 0
1.360000 0.080000 0
1.380000 0.080000 0
1.400000 0.080000 0
1.420000 0.080000 0
1.440000 0.080000 0
1.460000 0.080000 0
1.480000 0.080000 0
1.500000 0.080000 0
1.520000 0.080000 0
1.540000 0.080000 0
1.560000 0.080000 0
1.580000 0.080000 0
1.600000 0.080000 0
1.620000 0.080000 0
1.640000 0.080000 0
1.660000 0.080000 0
1.680000 0.080000 0
1.700000 0.080000 0
1.720000 0.080000 0
1.740000 0.080000 0
1.760000 0.080000 0
1.780000 0.080000 0
1.800000 0.080000 0
1.820000 0.080000 0
1.840000 0.080000 0
1.860000 0.080000 0
1.880000 0.080000 0
[...]
POINT_DATA 4851 

VECTORS velocity float
0.000000 0.000000 0
0.000038 0.000000 0
0.000099 0.000000 0
0.000151 0.000000 0
0.000184 0.000000 0
0.000198 0.000000 0
0.000198 0.000000 0
0.000192 0.000000 0
0.000182 0.000000 0
0.000173 0.000000 0
0.000165 0.000000 0
0.000159 0.000000 0
0.000155 0.000000 0
0.000153 0.000000 0
0.000151 0.000000 0
0.000151 0.000000 0
0.000150 0.000000 0
0.000150 0.000000 0
0.000149 0.000000 0
0.000148 0.000000 0
0.000147 0.000000 0
0.000146 0.000000 0
0.000145 0.000000 0
0.000143 0.000000 0
0.000142 0.000000 0
0.000140 0.000000 0
0.000138 0.000000 0
0.000136 0.000000 0
0.000132 0.000000 0
0.000127 0.000000 0
0.000119 0.000000 0
0.000107 0.000000 0
0.000089 0.000000 0
0.000065 0.000000 0
0.000037 0.000000 0
0.000012 0.000000 0
0.000000 0.000000 0
0.000000 0.000000 0
0.000000 0.000000 0
0.000000 0.000000 0
0.000000 0.000000 0
0.000004 0.000000 0
0.000044 0.000000 0
0.000112 0.000000 0
0.000193 0.000000 0
0.000270 0.000000 0
0.000334 0.000000 0
0.000377 0.000000 0
0.000399 0.000000 0
0.000403 0.000000 0
0.000393 0.000000 0
0.000374 0.000000 0
0.000349 0.000000 0
0.000323 0.000000 0
0.000297 0.000000 0
0.000274 0.000000 0
0.000255 0.000000 0
0.000239 0.000000 0
0.000229 0.000000 0
0.000222 0.000000 0
0.000218 0.000000 0
0.000217 0.000000 0
0.000219 0.000000 0
0.000221 0.000000 0
0.000224 0.000000 0
0.000227 0.000000 0
0.000230 0.000000 0
0.000233 0.000000 0
0.000236 0.000000 0
0.000238 0.000000 0
0.000239 0.000000 0
0.000240 0.000000 0
0.000241 0.000000 0
0.000241 0.000000 0
0.000242 0.000000 0
0.000242 0.000000 0
0.000243 0.000000 0
0.000244 0.000000 0
0.000245 0.000000 0
0.000246 0.000000 0
0.000247 0.000000 0
0.000249 0.000000 0
0.000251 0.000000 0
0.000254 0.000000 0
0.000257 0.000000 0
0.000262 0.000000 0
0.000267 0.000000 0
0.000274 0.000000 0
0.000283 0.000000 0
0.000295 0.000000 0
0.000312 0.000000 0
0.000335 0.000000 0
0.000369 0.000000 0
0.000420 0.000000 0
0.000491 0.000000 0
0.000580 0.000000 0
0.000638 0.000000 0
0.000499 0.000000 0
0.000000 0.000000 0
0.000000 -0.000038 0
0.000109 -0.000100 0
0.000285 -0.000114 0
0.000443 -0.000085 0
0.000549 -0.000047 0
0.000602 -0.000015 0
0.000615 0.000006 0
0.000604 0.000016 0
0.000581 0.000018 0
0.000556 0.000017 0
0.000534 0.000013 0
0.000517 0.000009 0
0.000505 0.000006 0
0.000497 0.000003 0
0.000492 0.000001 0
0.000490 0.000001 0
0.000487 0.000000 0
0.000485 0.000001 0
0.000483 0.000001 0
0.000480 0.000001 0
0.000476 0.000002 0
0.000471 0.000002 0
0.000466 0.000002 0
0.000460 0.000002 0
0.000454 0.000003 0
0.000446 0.000003 0
0.000437 0.000004 0
0.000426 0.000005 0
0.000411 0.000008 0
0.000390 0.000012 0
0.000361 0.000020 0
0.000318 0.000029 0
0.000261 0.000041 0
0.000188 0.000051 0
0.000108 0.000053 0
0.000036 0.000036 0
0.000000 0.000011 0
0.000000 0.000000 0
0.000000 0.000000 0
0.000000 0.000000 0
0.000000 -0.000004 0
0.000041 -0.000044 0
0.000185 -0.000108 0
0.000407 -0.000149 0
0.000664 -0.000158 0
0.000911 -0.000140 0
0.001117 -0.000105 0
0.001264 -0.000065 0
0.001349 -0.000026 0
0.001376 0.000006 0
0.001358 0.000029 0
0.001307 0.000044 0
0.001236 0.000051 0
0.001155 0.000053 0
0.001074 0.000049 0
0.000998 0.000043 0
0.000934 0.000035 0
0.000882 0.000026 0
0.000843 0.000018 0
0.000817 0.000011 0
0.000802 0.000005 0
0.000797 0.000000 0
0.000798 -0.000003 0
0.000803 -0.000005 0
0.000811 -0.000006 0
0.000821 -0.000006 0
0.000830 -0.000006 0
0.000838 -0.000005 0
0.000845 -0.000004 0
0.000851 -0.000003 0
0.000855 -0.000002 0
0.000859 -0.000001 0
0.000861 -0.000001 0
0.000862 -0.000001 0
0.000863 -0.000001 0
0.000865 -0.000001 0
0.000866 -0.000001 0
0.000868 -0.000001 0
0.000870 -0.000002 0
0.000873 -0.000002 0
0.000878 -0.000003 0
0.000883 -0.000004 0
0.000890 -0.000005 0
0.000898 -0.000006 0
0.000909 -0.000007 0
0.000922 -0.000009 0
0.000939 -0.000012 0
0.000961 -0.000016 0
0.000988 -0.000021 0
0.001024 -0.000028 0
0.001072 -0.000040 0
0.001136 -0.000057 0
0.001220 -0.000084 0
0.001329 -0.000121 0
0.001455 -0.000160 0
0.001558 -0.000147 0
0.001502 0.000081 0
0.000996 0.000639 0
0.000000 0.000499 0
0.000000 -0.000110 0
0.000153 -0.000287 0
0.000404 -0.000335 0
0.000637 -0.000264 0
0.000803 -0.000160 0
0.000897 -0.000067 0
0.000932 -0.000003 0
0.000929 0.000033 0
0.000904 0.000047 0
0.000873 0.000047 0
0.000843 0.000039 0
0.000819 0.000028 0
0.000801 0.000019 0
0.000789 0.000011 0
0.000782 0.000007 0
0.000776 0.000004 0
0.000772 0.000004 0
0.000767 0.000004 0
0.000762 0.000005 0
0.000756 0.000006 0
0.000748 0.000008 0
0.000740 0.000009 0
0.000729 0.000010 0
0.000718 0.000012 0
0.000704 0.000013 0
0.000689 0.000016 0
0.000670 0.000019 0
0.000647 0.000025 0
0.000617 0.000035 0
0.000578 0.000050 0
0.000525 0.000071 0
0.000455 0.000099 0
0.000366 0.000129 0
0.000260 0.000152 0
0.000148 0.000152 0
0.000050 0.000107 0
0.000000 0.000035 0
0.000000 0.000000 0
0.000000 0.000000 0
0.000000 0.000000 0
0.000000 -0.000040 0
0.000098 -0.000185 0
0.000356 -0.000367 0
0.000722 -0.000478 0
0.001132 -0.000503 0
0.001527 -0.000452 0
0.001862 -0.000353 0
0.002110 -0.000232 0
0.002265 -0.000112 0
0.002332 -0.000009 0
0.002324 0.000070 0
0.002261 0.000123 0
0.002161 0.000153 0
0.002041 0.000163 0
0.001915 0.000157 0
0.001796 0.000140 0
0.001691 0.000117 0
0.001604 0.000091 0
0.001537 0.000065 0
0.001490 0.000041 0
0.001461 0.000021 0
0.001447 0.000005 0
0.001443 -0.000006 0
0.001448 -0.000014 0
0.001458 -0.000017 0
0.001469 -0.000018 0
0.001482 -0.000018 0
0.001493 -0.000015 0
0.001503 -0.000012 0
0.001510 -0.000010 0
0.001515 -0.000007 0
0.001519 -0.000005 0
0.001521 -0.000003 0
0.001523 -0.000002 0
0.001523 -0.000002 0
0.001524 -0.000002 0
0.001525 -0.000003 0
0.001526 -0.000004 0
0.001529 -0.000005 0
0.001533 -0.000007 0
0.001538 -0.000009 0
0.001545 -0.000012 0
0.001554 -0.000015 0
0.001566 -0.000019 0
0.001581 -0.000024 0
0.001600 -0.000030 0
0.001624 -0.000038 0
0.001654 -0.000049 0
0.001693 -0.000063 0
0.001741 -0.000083 0
0.001801 -0.000111 0
0.001874 -0.000148 0
0.001958 -0.000193 0
0.002041 -0.000235 0
0.002088 -0.000229 0
0.002013 -0.000046 0
0.001660 0.000563 0
0.000874 0.001502 0
0.000000 0.000996 0
0.000000 -0.000192 0
0.000165 -0.000505 0
0.000439 -0.000598 0
0.000698 -0.000485 0
0.000889 -0.000308 0
0.001003 -0.000144 0
0.001052 -0.000026 0
0.001056 0.000044 0
0.001037 0.000074 0
0.001008 0.000077 0
0.000978 0.000067 0
0.000954 0.000050 0
0.000935 0.000035 0
0.000921 0.000022 0
0.000912 0.000014 0
0.000904 0.000010 0
0.000898 0.000009 0
0.000891 0.000010 0
0.000882 0.000012 0
0.000873 0.000015 0
0.000861 0.000018 0
0.000848 0.000021 0
0.000833 0.000024 0
0.000816 0.000027 0
0.000796 0.000031 0
0.000774 0.000037 0
0.000747 0.000045 0
0.000714 0.000058 0
0.000673 0.000077 0
0.000621 0.000105 0
0.000555 0.000142 0
0.000473 0.000188 0
0.000373 0.000235 0
0.000261 0.000269 0
0.000146 0.000263 0
0.000049 0.000184 0
0.000000 0.000061 0
0.000000 0.000000 0
0.000000 0.000000 0
0.000000 0.000000 0
0.000000 -0.000102 0
0.000139 -0.000399 0
0.000479 -0.000732 0
0.000942 -0.000925 0
0.001449 -0.000963 0
0.001932 -0.000869 0
0.002343 -0.000689 0
0.002654 -0.000469 0
0.002856 -0.000248 0
0.002955 -0.000053 0
0.002966 0.000100 0
0.002908 0.000208 0
0.002802 0.000272 0
0.002669 0.000298 0
0.002525 0.000294 0
0.002386 0.000267 0
0.002261 0.000227 0
0.002155 0.000180 0
0.002072 0.000132 0
0.002012 0.000087 0
0.001972 0.000049 0
0.001950 0.000018 0
0.001941 -0.000005 0
0.001941 -0.000020 0
0.001948 -0.000028 0
0.001957 -0.000030 0
0.001967 -0.000029 0
0.001976 -0.000026 0
0.001984 -0.000021 0
0.001989 -0.000016 0
0.001992 -0.000011 0
0.001993 -0.000007 0
0.001993 -0.000004 0
0.001992 -0.000003 0
0.001990 -0.000002 0
0.001988 -0.000002 0
0.001987 -0.000003 0
0.001986 -0.000005 0
0.001986 -0.000008 0
0.001988 -0.000011 0
0.001991 -0.000015 0
0.001997 -0.000020 0
0.002004 -0.000026 0
0.002014 -0.000033 0
0.002028 -0.000041 0
0.002046 -0.000052 0
0.002068 -0.000066 0
0.002095 -0.000084 0
0.002129 -0.000107 0
0.002170 -0.000137 0
0.002216 -0.000173 0
0.002265 -0.000215 0
0.002305 -0.000251 0
0.002313 -0.000250 0
0.002239 -0.000132 0
0.001996 0.000280 0
0.001473 0.001220 0
0.000658 0.002299 0
0.000000 0.001374 0
0.000000 -0.000276 0
0.000162 -0.000727 0
0.000433 -0.000868 0
0.000690 -0.000714 0
0.000881 -0.000465 0
0.000996 -0.000230 0
0.001048 -0.000057 0
0.001057 0.000048 0
0.001041 0.000096 0
0.001016 0.000105 0
0.000990 0.000093 0
0.000967 0.000072 0
0.000949 0.000051 0
0.000936 0.000034 0
0.000925 0.000023 0
0.000915 0.000018 0
0.000906 0.000017 0
0.000895 0.000019 0
0.000884 0.000022 0
0.000871 0.000027 0
0.000856 0.000032 0
0.000838 0.000037 0
0.000819 0.000042 0
0.000797 0.000048 0
0.000772 0.000055 0
0.000744 0.000065 0
0.000711 0.000079 0
0.000673 0.000099 0
0.000626 0.000127 0
0.000569 0.000167 0
0.000500 0.000219 0
0.000418 0.000280 0
0.000324 0.000341 0
0.000221 0.000379 0
0.000121 0.000364 0
0.000039 0.000253 0
0.000000 0.000084 0
0.000000 0.000000 0
0.000000 0.000000 0
0.000000 0.000000 0
0.000000 -0.000180 0
0.000166 -0.000664 0
0.000562 -0.001169 0
0.001088 -0.001448 0
0.001654 -0.001492 0
0.002185 -0.001346 0
0.002634 -0.001075 0
0.002975 -0.000745 0
0.003201 -0.000414 0
0.003318 -0.000119 0
0.003342 0.000117 0
0.003293 0.000287 0
0.003192 0.000392 0
0.003060 0.000439 0
0.002916 0.000439 0
0.002774 0.000405 0
0.002644 0.000348 0
0.002534 0.000279 0
0.002446 0.000208 0
0.002381 0.000142 0
0.002336 0.000084 0
0.002308 0.000037 0
0.002293 0.000002 0
0.002288 -0.000020 0
0.002288 -0.000033 0
0.002291 -0.000038 0
0.002294 -0.000036 0
0.002297 -0.000032 0
0.002298 -0.000025 0
0.002297 -0.000018 0
0.002294 -0.000011 0
0.002290 -0.000006 0
0.002285 -0.000002 0
0.002279 0.000001 0
0.002273 0.000002 0
0.002266 0.000001 0
0.002261 -0.000001 0
0.002256 -0.000003 0
0.002252 -0.000007 0
0.002250 -0.000012 0
0.002249 -0.000018 0
0.002249 -0.000025 0
0.002252 -0.000033 0
0.002257 -0.000043 0
0.002264 -0.000055 0
0.002274 -0.000069 0
0.002288 -0.000088 0
0.002304 -0.000110 0
0.002324 -0.000138 0
0.002345 -0.000170 0
0.002365 -0.000206 0
0.002377 -0.000237 0
0.002365 -0.000241 0
0.002302 -0.000168 0
0.002138 0.000088 0
0.001803 0.000720 0
0.001233 0.001901 0
0.000491 0.002975 0
0.000000 0.001654 0
0.000000 -0.000355 0
0.000153 -0.000939 0
0.000407 -0.001126 0
0.000645 -0.000933 0
0.000821 -0.000614 0
0.000925 -0.000312 0
0.000972 -0.000087 0
0.000980 0.000050 0
0.000966 0.000114 0
0.000944 0.000129 0
0.000921 0.000115 0
0.000900 0.000091 0
0.000883 0.000066 0
0.000869 0.000047 0
0.000857 0.000034 0
0.000845 0.000029 0
0.000832 0.000028 0
0.000819 0.000031 0
0.000804 0.000037 0
0.000787 0.000043 0
0.000768 0.000050 0
0.000747 0.000057 0
0.000724 0.000065 0
0.000699 0.000073 0
0.000671 0.000084 0
0.000639 0.000098 0
0.000604 0.000117 0
0.000563 0.000143 0
0.000516 0.000180 0
0.000461 0.000230 0
0.000398 0.000293 0
0.000325 0.000365 0
0.000245 0.000432 0
0.000163 0.000471 0
0.000086 0.000444 0
0.000026 0.000305 0
0.000000 0.000100 0
0.000000 0.000000 0
0.000000 0.000000 0
0.000000 0.000000 0
0.000000 -0.000268 0
0.000183 -0.000961 0
0.000615 -0.001653 0
0.001181 -0.002017 0
0.001777 -0.002060 0
0.002327 -0.001850 0
0.002786 -0.001479 0
0.003130 -0.001035 0
0.003358 -0.000591 0
0.003477 -0.000194 0
0.003505 0.000126 0
0.003462 0.000358 0
0.003368 0.000505 0
0.003244 0.000574 0
0.003108 0.000580 0
0.002974 0.000539 0
0.002852 0.000467 0
0.002748 0.000378 0
0.002664 0.000285 0
0.002600 0.000198 0
0.002555 0.000121 0
0.002524 0.000060 0
0.002504 0.000016 0
0.002491 -0.000014 0
0.002482 -0.000030 0
0.002475 -0.000036 0
0.002469 -0.000035 0
0.002461 -0.000029 0
0.002452 -0.000021 0
0.002441 -0.000012 0
0.002430 -0.000004 0
0.002418 0.000002 0
0.002405 0.000007 0
0.002392 0.000010 0
0.002380 0.000011 0
0.002368 0.000010 0
0.002357 0.000007 0
0.002347 0.000004 0
0.002338 -0.000001 0
0.002330 -0.000007 0
0.002323 -0.000015 0
0.002317 -0.000023 0
0.002312 -0.000033 0
0.002309 -0.000045 0
0.002307 -0.000059 0
0.002307 -0.000076 0
0.002307 -0.000096 0
0.002308 -0.000120 0
0.002308 -0.000148 0
0.002306 -0.000178 0
0.002298 -0.000205 0
0.002276 -0.000215 0
0.002224 -0.000176 0
0.002117 -0.000023 0
0.001911 0.000368 0
0.001553 0.001186 0
0.001008 0.002533 0
0.000368 0.003532 0
0.000000 0.001864 0
0.000000 -0.000429 0
0.000140 -0.001134 0
0.000369 -0.001361 0
0.000581 -0.001129 0
0.000733 -0.000745 0
0.000821 -0.000382 0
0.000857 -0.000111 0
0.000860 0.000054 0
0.000846 0.000131 0
0.000825 0.000150 0
0.000804 0.000136 0
0.000786 0.000108 0
0.000769 0.000081 0
0.000754 0.000060 0
0.000740 0.000048 0
0.000725 0.000042 0
0.000709 0.000043 0
0.000691 0.000048 0
0.000673 0.000054 0
0.000652 0.000062 0
0.000630 0.000071 0
0.000606 0.000080 0
0.000581 0.000090 0
0.000553 0.000101 0
0.000524 0.000115 0
0.000492 0.000132 0
0.000456 0.000155 0
0.000418 0.000186 0
0.000375 0.000229 0
0.000327 0.000286 0
0.000274 0.000355 0
0.000217 0.000433 0
0.000157 0.000503 0
0.000100 0.000538 0
0.000050 0.000500 0
0.000014 0.000338 0
0.000000 0.000110 0
0.000000 0.000000 0
0.000000 0.000000 0
0.000000 0.000000 0
0.000000 -0.000362 0
0.000195 -0.001278 0
0.000649 -0.002166 0
0.001234 -0.002609 0
0.001838 -0.002639 0
0.002384 -0.002355 0
0.002829 -0.001877 0
0.003156 -0.001317 0
0.003367 -0.000760 0
0.003475 -0.000266 0
0.003497 0.000133 0
0.003454 0.000424 0
0.003366 0.000609 0
0.003253 0.000699 0
0.003130 0.000710 0
0.003010 0.000662 0
0.002902 0.000575 0
0.002809 0.000468 0
0.002735 0.000356 0
0.002677 0.000251 0
0.002633 0.000160 0
0.002599 0.000088 0
0.002573 0.000035 0
0.002551 0.000001 0
0.002531 -0.000017 0
0.002511 -0.000023 0
0.002490 -0.000022 0
0.002469 -0.000015 0
0.002447 -0.000005 0
0.002425 0.000004 0
0.002403 0.000013 0
0.002381 0.000019 0
0.002360 0.000024 0
0.002340 0.000026 0
0.002321 0.000026 0
0.002303 0.000024 0
0.002286 0.000021 0
0.002270 0.000016 0
0.002255 0.000010 0
0.002241 0.000003 0
0.002227 -0.000005 0
0.002214 -0.000014 0
0.002202 -0.000025 0
0.002190 -0.000037 0
0.002178 -0.000052 0
0.002165 -0.000069 0
0.002151 -0.000089 0
0.002135 -0.000111 0
0.002117 -0.000136 0
0.002093 -0.000160 0
0.002063 -0.000175 0
0.002018 -0.000163 0
0.001947 -0.000082 0
0.001827 0.000145 0
0.001623 0.000653 0
0.001289 0.001623 0
0.000807 0.003086 0
0.000274 0.003983 0
0.000000 0.002022 0
0.000000 -0.000495 0
0.000125 -0.001309 0
0.000327 -0.001568 0
0.000508 -0.001297 0
0.000633 -0.000853 0
0.000700 -0.000436 0
0.000724 -0.000127 0
0.000720 0.000061 0
0.000705 0.000149 0
0.000685 0.000170 0
0.000665 0.000155 0
0.000647 0.000126 0
0.000630 0.000097 0
0.000614 0.000076 0
0.000597 0.000064 0
0.000578 0.000059 0
0.000559 0.000061 0
0.000538 0.000067 0
0.000516 0.000076 0
0.000493 0.000085 0
0.000468 0.000095 0
0.000443 0.000106 0
0.000416 0.000117 0
0.000388 0.000130 0
0.000358 0.000145 0
0.000328 0.000165 0
0.000295 0.000190 0
0.000262 0.000224 0
0.000226 0.000271 0
0.000188 0.000330 0
0.000150 0.000403 0
0.000111 0.000481 0
0.000074 0.000549 0
0.000042 0.000579 0
0.000018 0.000530 0
0.000004 0.000354 0
0.000000 0.000114 0
0.000000 0.000000 0
0.000000 0.000000 0
0.000000 0.000000 0
0.000000 -0.000462 0
0.000203 -0.001609 0
0.000668 -0.002692 0
0.001256 -0.003205 0
0.001849 -0.003210 0
0.002371 -0.002840 0
0.002784 -0.002250 0
0.003077 -0.001573 0
0.003259 -0.000909 0
0.003344 -0.000324 0
0.003353 0.000147 0
0.003305 0.000489 0
0.003221 0.000706 0
0.003118 0.000811 0
0.003009 0.000824 0
0.002905 0.000768 0
0.002812 0.000668 0
0.002734 0.000545 0
0.002669 0.000418 0
0.002616 0.000299 0
0.002573 0.000199 0
0.002535 0.000120 0
0.002499 0.000064 0
0.002464 0.000029 0
0.002429 0.000010 0
0.002393 0.000004 0
0.002356 0.000007 0
0.002319 0.000014 0
0.002284 0.000023 0
0.002249 0.000032 0
0.002216 0.000040 0
0.002186 0.000045 0
0.002157 0.000048 0
0.002130 0.000049 0
0.002105 0.000048 0
0.002082 0.000045 0
0.002060 0.000040 0
0.002039 0.000035 0
0.002019 0.000028 0
0.002000 0.000020 0
0.001981 0.000012 0
0.001962 0.000002 0
0.001943 -0.000008 0
0.001922 -0.000020 0
0.001901 -0.000034 0
0.001877 -0.000049 0
0.001851 -0.000066 0
0.001821 -0.000085 0
0.001787 -0.000106 0
0.001749 -0.000124 0
0.001705 -0.000129 0
0.001653 -0.000099 0
0.001585 0.000015 0
0.001482 0.000301 0
0.001311 0.000906 0
0.001031 0.002001 0
0.000628 0.003549 0
0.000197 0.004340 0
0.000000 0.002138 0
0.000000 -0.000554 0
0.000110 -0.001461 0
0.000283 -0.001744 0
0.000432 -0.001435 0
0.000528 -0.000937 0
0.000575 -0.000473 0
0.000586 -0.000132 0
0.000576 0.000072 0
0.000559 0.000167 0
0.000539 0.000189 0
0.000520 0.000173 0
0.000502 0.000143 0
0.000484 0.000114 0
0.000466 0.000094 0
0.000446 0.000083 0
0.000424 0.000080 0
0.000402 0.000083 0
0.000378 0.000090 0
0.000353 0.000100 0
0.000328 0.000110 0
0.000302 0.000121 0
0.000276 0.000132 0
0.000249 0.000145 0
0.000222 0.000158 0
0.000195 0.000174 0
0.000168 0.000194 0
0.000140 0.000221 0
0.000113 0.000256 0
0.000086 0.000302 0
0.000061 0.000362 0
0.000037 0.000433 0
0.000017 0.000508 0
0.000002 0.000571 0
-0.000007 0.000594 0
-0.000008 0.000538 0
-0.000004 0.000356 0
0.000000 0.000114 0
0.000000 0.000000 0
0.000000 0.000000 0
0.000000 0.000000 0
0.000000 -0.000565 0
0.000207 -0.001946 0
0.000674 -0.003219 0
0.001250 -0.003790 0
0.001817 -0.003754 0
0.002299 -0.003289 0
0.002666 -0.002583 0
0.002915 -0.001791 0
0.003057 -0.001027 0
0.003113 -0.000360 0
0.003104 0.000172 0
0.003048 0.000556 0
0.002965 0.000797 0
0.002869 0.000911 0
0.002772 0.000923 0
0.002681 0.000859 0
0.002601 0.000747 0
0.002533 0.000611 0
0.002474 0.000473 0
0.002422 0.000347 0
0.002373 0.000242 0
0.002324 0.000162 0
0.002274 0.000106 0
0.002222 0.000072 0
0.002168 0.000055 0
0.002114 0.000050 0
0.002061 0.000052 0
0.002010 0.000058 0
0.001962 0.000065 0
0.001917 0.000071 0
0.001877 0.000076 0
0.001840 0.000079 0
0.001807 0.000079 0
0.001777 0.000078 0
0.001749 0.000074 0
0.001723 0.000070 0
0.001698 0.000064 0
0.001675 0.000057 0
0.001653 0.000050 0
0.001630 0.000042 0
0.001608 0.000033 0
0.001586 0.000024 0
0.001562 0.000015 0
0.001537 0.000005 0
0.001509 -0.000006 0
0.001478 -0.000019 0
0.001443 -0.000032 0
0.001404 -0.000047 0
0.001361 -0.000064 0
0.001316 -0.000078 0
0.001271 -0.000080 0
0.001228 -0.000043 0
0.001181 0.000089 0
0.001116 0.000419 0
0.000998 0.001104 0
0.000786 0.002306 0
0.000467 0.003920 0
0.000133 0.004612 0
0.000000 0.002219 0
0.000000 -0.000606 0
0.000096 -0.001592 0
0.000240 -0.001890 0
0.000357 -0.001543 0
0.000426 -0.000996 0
0.000453 -0.000493 0
0.000452 -0.000128 0
0.000437 0.000088 0
0.000418 0.000186 0
0.000399 0.000208 0
0.000380 0.000191 0
0.000362 0.000161 0
0.000343 0.000133 0
0.000322 0.000114 0
0.000300 0.000105 0
0.000276 0.000103 0
0.000251 0.000108 0
0.000225 0.000115 0
0.000199 0.000125 0
0.000174 0.000136 0
0.000148 0.000147 0
0.000122 0.000159 0
0.000097 0.000171 0
0.000072 0.000184 0
0.000048 0.000200 0
0.000025 0.000219 0
0.000004 0.000245 0
-0.000016 0.000278 0
-0.000033 0.000323 0
-0.000046 0.000379 0
-0.000055 0.000446 0
-0.000058 0.000516 0
-0.000054 0.000572 0
-0.000043 0.000588 0
-0.000027 0.000528 0
-0.000010 0.000346 0
0.000000 0.000110 0
0.000000 0.000000 0
0.000000 0.000000 0
0.000000 0.000000 0
0.000000 -0.000669 0
0.000208 -0.002283 0
0.000668 -0.003736 0
0.001220 -0.004348 0
0.001747 -0.004258 0
0.002178 -0.003689 0
0.002490 -0.002865 0
0.002686 -0.001964 0
0.002786 -0.001108 0
0.002809 -0.000370 0
0.002778 0.000212 0
0.002711 0.000628 0
0.002625 0.000886 0
0.002532 0.001004 0
0.002441 0.001011 0
0.002356 0.000939 0
0.002280 0.000816 0
0.002212 0.000672 0
0.002149 0.000529 0
0.002087 0.000401 0
0.002023 0.000297 0
0.001955 0.000219 0
0.001884 0.000167 0
0.001812 0.000135 0
0.001739 0.000118 0
0.001669 0.000112 0
0.001603 0.000111 0
0.001543 0.000113 0
0.001489 0.000116 0
0.001441 0.000117 0
0.001399 0.000117 0
0.001362 0.000116 0
0.001329 0.000112 0
0.001300 0.000108 0
0.001274 0.000102 0
0.001250 0.000095 0
0.001227 0.000088 0
0.001206 0.000081 0
0.001184 0.000073 0
0.001163 0.000065 0
0.001142 0.000057 0
0.001119 0.000049 0
0.001095 0.000041 0
0.001069 0.000033 0
0.001040 0.000025 0
0.001006 0.000017 0
0.000969 0.000008 0
0.000927 -0.000003 0
0.000883 -0.000018 0