# vtk DataFile Version 2.0
generated by CFD-lab course output (written by Tobias Neckel) 
ASCII

DATASET STRUCTURED_GRID
DIMENSIONS  99 49 1 
POINTS 4851 float

0.000000 0.000000 0
0.020000 0.000000 0
0.040000 0.000000 0
0.060000 0.000000 0
0.080000 0.000000 0
0.100000 0.000000 0
0.120000 0.000000 0
0.140000 0.000000 0
0.160000 0.000000 0
0.180000 0.000000 0
0.200000 0.000000 0
0.220000 0.000000 0
0.240000 0.000000 0
0.260000 0.000000 0
0.280000 0.000000 0
0.300000 0.000000 0
0.320000 0.000000 0
0.340000 0.000000 0
0.360000 0.000000 0
0.380000 0.000000 0
0.400000 0.000000 0
0.420000 0.000000 0
0.440000 0.000000 0
0.460000 0.000000 0
0.480000 0.000000 0
0.500000 0.000000 0
0.520000 0.000000 0
0.540000 0.000000 0
0.560000 0.000000 0
0.580000 0.000000 0
0.600000 0.000000 0
0.620000 0.000000 0
0.640000 0.000000 0
0.660000 0.000000 0
0.680000 0.000000 0
0.700000 0.000000 0
0.720000 0.000000 0
0.740000 0.000000 0
0.760000 0.000000 0
0.780000 0.000000 0
0.800000 0.000000 0
0.820000 0.000000 0
0.840000 0.000000 0
0.860000 0.000000 0
0.880000 0.000000 0
0.900000 0.000000 0
0.920000 0.000000 0
0.940000 0.000000 0
0.960000 0.000000 0
0.980000 0.000000 0
1.000000 0.000000 0
1.020000 0.000000 0
1.040000 0.000000 0
1.060000 0.000000 0
1.080000 0.000000 0
1.100000 0.000000 0
1.120000 0.000000 0
1.140000 0.000000 0
1.160000 0.000000 0
1.180000 0.000000 0
1.200000 0.000000 0
1.220000 0.000000 0
1.240000 0.000000 0
1.260000 0.000000 0
1.280000 0.000000 0
1.300000 0.000000 0
1.320000 0.000000 0
1.340000 0.000000 0
1.360000 0.000000 0
1.380000 0.000000 0
1.400000 0.000000 0
1.420000 0.000000 0
1.440000 0.000000 0
1.460000 0.000000 0
1.480000 0.000000 0
1.500000 0.000000 0
1.520000 0.000000 0
1.540000 0.000000 0
1.560000 0.000000 0
1.580000 0.000000 0
1.600000 0.000000 0
1.620000 0.000000 0
1.640000 0.000000 0
1.660000 0.000000 0
1.680000 0.000000 0
1.700000 0.000000 0
1.720000 0.000000 0
1.740000 0.000000 0
1.760000 0.000000 0
1.780000 0.000000 0
1.800000 0.000000 0
1.820000 0.000000 0
1.840000 0.000000 0
1.860000 0.000000 0
1.880000 0.000000 0
1.900000 0.000000 0
1.920000 0.000000 0
1.940000 0.000000 0
1.960000 0.000000 0
0.000000 0.020000 0
0.020000 0.020000 0
0.040000 0.020000 0
0.060000 0.020000 0
0.080000 0.020000 0
0.100000 0.020000 0
0.120000 0.020000 0
0.140000 0.020000 0
0.160000 0.020000 0
0.180000 0.020000 0
0.200000 0.020000 0
0.220000 0.020000 0
0.240000 0.020000 0
0.260000 0.020000 0
0.280000 0.020000 0
0.300000 0.020000 0
0.320000 0.020000 0
0.340000 0.020000 0
0.360000 0.020000 0
0.380000 0.020000 0
0.400000 0.020000 0
0.420000 0.020000 0
0.440000 0.020000 0
0.460000 0.020000 0
0.480000 0.020000 0
0.500000 0.020000 0
0.520000 0.020000 0
0.540000 0.020000 0
0.560000 0.020000 0
0.580000 0.020000 0
0.600000 0.020000 0
0.620000 0.020000 0
0.640000 0.020000 0
0.660000 0.020000 0
0.680000 0.020000 0
0.700000 0.020000 0
0.720000 0.020000 0
0.740000 0.020000 0
0.760000 0.020000 0
0.780000 0.020000 0
0.800000 0.020000 0
0.820000 0.020000 0
0.840000 0.020000 0
0.860000 0.020000 0
0.880000 0.020000 0
0.900000 0.020000 0
0.920000 0.020000 0
0.940000 0.020000 0
0.960000 0.020000 0
0.980000 0.020000 0
1.000000 0.020000 0
1.020000 0.020000 0
1.040000 0.020000 0
1.060000 0.020000 0
1.080000 0.020000 0
1.100000 0.020000 0
1.120000 0.020000 0
1.140000 0.020000 0
1.160000 0.020000 0
1.180000 0.020000 0
1.200000 0.020000 0
1.220000 0.020000 0
1.240000 0.020000 0
1.260000 0.020000 0
1.280000 0.020000 0
1.300000 0.020000 0
1.320000 0.020000 0
1.340000 0.020000 0
1.360000 0.020000 0
1.380000 0.020000 0
1.400000 0.020000 0
1.420000 0.020000 0
1.440000 0.020000 0
1.460000 0.020000 0
1.480000 0.020000 0
1.500000 0.020000 0
1.520000 0.020000 0
1.540000 0.020000 0
1.560000 0.020000 0
1.580000 0.020000 0
1.600000 0.020000 0
1.620000 0.020000 0
1.640000 0.020000 0
1.660000 0.020000 0
1.680000 0.020000 0
1.700000 0.020000 0
1.720000 0.020000 0
1.740000 0.020000 0
1.760000 0.020000 0
1.780000 0.020000 0
1.800000 0.020000 0
1.820000 0.020000 0
1.840000 0.020000 0
1.860000 0.020000 0
1.880000 0.020000 0
1.900000 0.020000 0
1.920000 0.020000 0
1.940000 0.020000 0
1.960000 0.020000 0
0.000000 0.040000 0
0.020000 0.040000 0
0.040000 0.040000 0
0.060000 0.040000 0
0.080000 0.040000 0
0.100000 0.040000 0
0.120000 0.040000 0
0.140000 0.040000 0
0.160000 0.040000 0
0.180000 0.040000 0
0.200000 0.040000 0
0.220000 0.040000 0
0.240000 0.040000 0
0.260000 0.040000 0
0.280000 0.040000 0
0.300000 0.040000 0
0.320000 0.040000 0
0.340000 0.040000 0
0.360000 0.040000 0
0.380000 0.040000 0
0.400000 0.040000 0
0.420000 0.040000 0
0.440000 0.040000 0
0.460000 0.040000 0
0.480000 0.040000 0
0.500000 0.040000 0
0.520000 0.040000 0
0.540000 0.040000 0
0.560000 0.040000 0
0.580000 0.040000 0
0.600000 0.040000 0
0.620000 0.040000 0
0.640000 0.040000 0
0.660000 0.040000 0
0.680000 0.040000 0
0.700000 0.040000 0
0.720000 0.040000 0
0.740000 0.040000 0
0.760000 0.040000 0
0.780000 0.040000 0
0.800000 0.040000 0
0.820000 0.040000 0
0.840000 0.040000 0
0.860000 0.040000 0
0.880000 0.040000 0
0.900000 0.040000 0
0.920000 0.040000 0
0.940000 0.040000 0
0.960000 0.040000 0
0.980000 0.040000 0
1.000000 0.040000 0
1.020000 0.040000 0
1.040000 0.040000 0
1.060000 0.040000 0
1.080000 0.040000 0
1.100000 0.040000 0
1.120000 0.040000 0
1.140000 0.040000 0
1.160000 0.040000 0
1.180000 0.040000 0
1.200000 0.040000 0
1.220000 0.040000 0
1.240000 0.040000 0
1.260000 0.040000 0
1.280000 0.040000 0
1.300000 0.040000 0
1.320000 0.040000 0
1.340000 0.040000 0
1.360000 0.040000 0
1.380000 0.040000 0
1.400000 0.040000 0
1.420000 0.040000 0
1.440000 0.040000 0
1.460000 0.040000 0
1.480000 0.040000 0
1.500000 0.040000 0
1.520000 0.040000 0
1.540000 0.040000 0
1.560000 0.040000 0
1.580000 0.040000 0
1.600000 0.040000 0
1.620000 0.040000 0
1.640000 0.040000 0
1.660000 0.040000 0
1.680000 0.040000 0
1.700000 0.040000 0
1.720000 0.040000 0
1.740000 0.040000 0
1.760000 0.040000 0
1.780000 0.040000 0
1.800000 0.040000 0
1.820000 0.040000 0
1.840000 0.040000 0
1.860000 0.040000 0
1.880000 0.040000 0
1.900000 0.040000 0
1.920000 0.040000 0
1.940000 0.040000 0
1.960000 0.040000 0
0.000000 0.060000 0
0.020000 0.060000 0
0.040000 0.060000 0
0.060000 0.060000 0
0.080000 0.060000 0
0.100000 0.060000 0
0.120000 0.060000 0
0.140000 0.060000 0
0.160000 0.060000 0
0.180000 0.060000 0
0.200000 0.060000 0
0.220000 0.060000 0
0.240000 0.060000 0
0.260000 0.060000 0
0.280000 0.060000 0
0.300000 0.060000 0
0.320000 0.060000 0
0.340000 0.060000 0
0.360000 0.060000 0
0.380000 0.060000 0
0.400000 0.060000 0
0.420000 0.060000 0
0.440000 0.060000 0
0.460000 0.060000 0
0.480000 0.060000 0
0.500000 0.060000 0
0.520000 0.060000 0
0.540000 0.060000 0
0.560000 0.060000 0
0.580000 0.060000 0
0.600000 0.060000 0
0.620000 0.060000 0
0.640000 0.060000 0
0.660000 0.060000 0
0.680000 0.060000 0
0.700000 0.060000 0
0.720000 0.060000 0
0.740000 0.060000 0
0.760000 0.060000 0
0.780000 0.060000 0
0.800000 0.060000 0
0.820000 0.060000 0
0.840000 0.060000 0
0.860000 0.060000 0
0.880000 0.060000 0
0.900000 0.060000 0
0.920000 0.060000 0
0.940000 0.060000 0
0.960000 0.060000 0
0.980000 0.060000 0
1.000000 0.060000 0
1.020000 0.060000 0
1.040000 0.060000 0
1.060000 0.060000 0
1.080000 0.060000 0
1.100000 0.060000 0
1.120000 0.060000 0
1.140000 0.060000 0
1.160000 0.060000 0
1.180000 0.060000 0
1.200000 0.060000 0
1.220000 0.060000 0
1.240000 0.060000 0
1.260000 0.060000 0
1.280000 0.060000 0
1.300000 0.060000 0
1.320000 0.060000 0
1.340000 0.060000 0
1.360000 0.060000 0
1.380000 0.060000 0
1.400000 0.060000 0
1.420000 0.060000 0
1.440000 0.060000 0
1.460000 0.060000 0
1.480000 0.060000 0
1.500000 0.060000 0
1.520000 0.060000 0
1.540000 0.060000 0
1.560000 0.060000 0
1.580000 0.060000 0
1.600000 0.060000 0
1.620000 0.060000 0
1.640000 0.060000 0
1.660000 0.060000 0
1.680000 0.060000 0
1.700000 0.060000 0
1.720000 0.060000 0
1.740000 0.060000 0
1.760000 0.060000 0
1.780000 0.060000 0
1.800000 0.060000 0
1.820000 0.060000 0
1.840000 0.060000 0
1.860000 0.060000 0
1.880000 0.060000 0
1.900000 0.060000 0
1.920000 0.060000 0
1.940000 0.060000 0
1.960000 0.060000 0
0.000000 0.080000 0
0.020000 0.080000 0
0.040000 0.080000 0
0.060000 0.080000 0
0.080000 0.080000 0
0.100000 0.080000 0
0.120000 0.080000 0
0.140000 0.080000 0
0.160000 0.080000 0
0.180000 0.080000 0
0.200000 0.080000 0
0.220000 0.080000 0
0.240000 0.080000 0
0.260000 0.080000 0
0.280000 0.080000 0
0.300000 0.080000 0
0.320000 0.080000 0
0.340000 0.080000 0
0.360000 0.080000 0
0.380000 0.080000 0
0.400000 0.080000 0
0.420000 0.080000 0
0.440000 0.080000 0
0.460000 0.080000 0
0.480000 0.080000 0
0.500000 0.080000 0
0.520000 0.080000 0
0.540000 0.080000 0
0.560000 0.080000 0
0.580000 0.080000 0
0.600000 0.080000 0
0.620000 0.080000 0
0.640000 0.080000 0
0.660000 0.080000 0
0.680000 0.080000 0
0.700000 0.080000 0
0.720000 0.080000 0
0.740000 0.080000 0
0.760000 0.080000 0
0.780000 0.080000 0
0.800000 0.080000 0
0.820000 0.080000 0
0.840000 0.080000 0
0.860000 0.080000 0
0.880000 0.080000 0
0.900000 0.080000 0
0.920000 0.080000 0
0.940000 0.080000 0
0.960000 0.080000 0
0.980000 0.080000 0
1.000000 0.080000 0
1.020000 0.080000 0
1.040000 0.080000 0
1.060000 0.080000 0
1.080000 0.080000 0
1.100000 0.080000 0
1.120000 0.080000 0
1.140000 0.080000 0
1.160000 0.080000 0
1.180000 0.080000 0
1.200000 0.080000 0
1.220000 0.080000 0
1.240000 0.080000 0
1.260000 0.080000 0
1.280000 0.080000 0
1.300000 0.080000 0
1.320000 0.080000 0
1.340000 0.080000 0
1.360000 0.080000 0
1.380000 0.080000 0
1.400000 0.080000 0
1.420000 0.080000 0
1.440000 0.080000 0
1.460000 0.080000 0
1.480000 0.080000 0
1.500000 0.080000 0
1.520000 0.080000 0
1.540000 0.080000 0
1.560000 0.080000 0
1.580000 0.080000 0
1.600000 0.080000 0
1.620000 0.080000 0
1.640000 0.080000 0
1.660000 0.080000 0
1.680000 0.080000 0
1.700000 0.080000 0
1.720000 0.080000 0
1.740000 0.080000 0
1.760000 0.080000 0
1.780000 0.080000 0
1.800000 0.080000 0
1.820000 0.080000 0
1.840000 0.080000 0
1.860000 0.080000 0
1.880000 0.080000 0
[...]
POINT_DATA 4851 

VECTORS velocity float
0.000000 0.000000 0
0.000068 0.000000 0
0.000167 0.000000 0
0.000243 0.000000 0
0.000284 0.000000 0
0.000294 0.000000 0
0.000285 0.000000 0
0.000268 0.000000 0
0.000250 0.000000 0
0.000235 0.000000 0
0.000224 0.000000 0
0.000217 0.000000 0
0.000214 0.000000 0
0.000212 0.000000 0
0.000212 0.000000 0
0.000212 0.000000 0
0.000213 0.000000 0
0.000213 0.000000 0
0.000212 0.000000 0
0.000211 0.000000 0
0.000210 0.000000 0
0.000209 0.000000 0
0.000208 0.000000 0
0.000206 0.000000 0
0.000205 0.000000 0
0.000203 0.000000 0
0.000201 0.000000 0
0.000198 0.000000 0
0.000195 0.000000 0
0.000190 0.000000 0
0.000182 0.000000 0
0.000169 0.000000 0
0.000146 0.000000 0
0.000112 0.000000 0
0.000068 0.000000 0
0.000023 0.000000 0
0.000000 0.000000 0
0.000000 0.000000 0
0.000000 0.000000 0
0.000000 0.000000 0
0.000000 0.000000 0
-0.000023 0.000000 0
-0.000017 0.000000 0
0.000034 0.000000 0
0.000121 0.000000 0
0.000223 0.000000 0
0.000322 0.000000 0
0.000404 0.000000 0
0.000464 0.000000 0
0.000500 0.000000 0
0.000516 0.000000 0
0.000514 0.000000 0
0.000501 0.000000 0
0.000481 0.000000 0
0.000458 0.000000 0
0.000433 0.000000 0
0.000411 0.000000 0
0.000391 0.000000 0
0.000374 0.000000 0
0.000362 0.000000 0
0.000353 0.000000 0
0.000347 0.000000 0
0.000345 0.000000 0
0.000345 0.000000 0
0.000346 0.000000 0
0.000349 0.000000 0
0.000353 0.000000 0
0.000357 0.000000 0
0.000362 0.000000 0
0.000365 0.000000 0
0.000369 0.000000 0
0.000371 0.000000 0
0.000373 0.000000 0
0.000374 0.000000 0
0.000375 0.000000 0
0.000374 0.000000 0
0.000373 0.000000 0
0.000371 0.000000 0
0.000369 0.000000 0
0.000367 0.000000 0
0.000364 0.000000 0
0.000362 0.000000 0
0.000360 0.000000 0
0.000358 0.000000 0
0.000357 0.000000 0
0.000357 0.000000 0
0.000357 0.000000 0
0.000357 0.000000 0
0.000359 0.000000 0
0.000363 0.000000 0
0.000369 0.000000 0
0.000381 0.000000 0
0.000402 0.000000 0
0.000437 0.000000 0
0.000491 0.000000 0
0.000561 0.000000 0
0.000600 0.000000 0
0.000455 0.000000 0
0.000000 0.000000 0
0.000000 -0.000068 0
0.000189 -0.000168 0
0.000471 -0.000176 0
0.000702 -0.000117 0
0.000839 -0.000051 0
0.000889 -0.000002 0
0.000882 0.000025 0
0.000844 0.000034 0
0.000798 0.000033 0
0.000756 0.000026 0
0.000723 0.000017 0
0.000703 0.000010 0
0.000691 0.000004 0
0.000686 0.000001 0
0.000684 -0.000001 0
0.000684 -0.000001 0
0.000684 -0.000001 0
0.000683 -0.000000 0
0.000681 0.000001 0
0.000678 0.000001 0
0.000674 0.000002 0
0.000669 0.000002 0
0.000663 0.000002 0
0.000656 0.000002 0
0.000649 0.000003 0
0.000640 0.000003 0
0.000630 0.000004 0
0.000618 0.000005 0
0.000602 0.000007 0
0.000579 0.000012 0
0.000545 0.000021 0
0.000495 0.000035 0
0.000419 0.000056 0
0.000315 0.000078 0
0.000189 0.000088 0
0.000066 0.000067 0
0.000000 0.000023 0
0.000000 0.000000 0
0.000000 0.000000 0
0.000000 0.000000 0
0.000000 0.000023 0
-0.000021 0.000018 0
0.000048 -0.000056 0
0.000237 -0.000138 0
0.000514 -0.000189 0
0.000827 -0.000201 0
0.001129 -0.000181 0
0.001385 -0.000142 0
0.001578 -0.000096 0
0.001701 -0.000051 0
0.001762 -0.000014 0
0.001771 0.000014 0
0.001741 0.000033 0
0.001685 0.000044 0
0.001614 0.000048 0
0.001539 0.000047 0
0.001465 0.000043 0
0.001399 0.000036 0
0.001343 0.000029 0
0.001299 0.000022 0
0.001266 0.000014 0
0.001244 0.000008 0
0.001232 0.000003 0
0.001228 -0.000001 0
0.001231 -0.000005 0
0.001238 -0.000007 0
0.001248 -0.000008 0
0.001259 -0.000008 0
0.001271 -0.000008 0
0.001282 -0.000007 0
0.001292 -0.000006 0
0.001299 -0.000004 0
0.001304 -0.000003 0
0.001307 -0.000001 0
0.001307 0.000000 0
0.001305 0.000002 0
0.001301 0.000003 0
0.001295 0.000004 0
0.001287 0.000005 0
0.001279 0.000005 0
0.001271 0.000005 0
0.001262 0.000004 0
0.001255 0.000004 0
0.001249 0.000003 0
0.001244 0.000002 0
0.001241 0.000001 0
0.001240 -0.000001 0
0.001241 -0.000003 0
0.001246 -0.000005 0
0.001255 -0.000010 0
0.001271 -0.000019 0
0.001298 -0.000033 0
0.001341 -0.000055 0
0.001403 -0.000089 0
0.001478 -0.000124 0
0.001529 -0.000109 0
0.001430 0.000105 0
0.000920 0.000600 0
0.000000 0.000455 0
0.000000 -0.000190 0
0.000257 -0.000472 0
0.000652 -0.000514 0
0.000994 -0.000369 0
0.001214 -0.000188 0
0.001316 -0.000044 0
0.001330 0.000044 0
0.001294 0.000083 0
0.001238 0.000088 0
0.001183 0.000074 0
0.001138 0.000052 0
0.001108 0.000032 0
0.001090 0.000016 0
0.001080 0.000006 0
0.001076 0.000001 0
0.001074 -0.000001 0
0.001072 0.000000 0
0.001069 0.000002 0
0.001064 0.000004 0
0.001057 0.000007 0
0.001048 0.000008 0
0.001037 0.000010 0
0.001025 0.000012 0
0.001011 0.000013 0
0.000995 0.000015 0
0.000976 0.000018 0
0.000954 0.000021 0
0.000927 0.000028 0
0.000892 0.000038 0
0.000845 0.000055 0
0.000781 0.000084 0
0.000692 0.000125 0
0.000572 0.000178 0
0.000420 0.000229 0
0.000247 0.000248 0
0.000087 0.000188 0
0.000000 0.000066 0
0.000000 0.000000 0
0.000000 0.000000 0
0.000000 0.000000 0
0.000000 0.000021 0
0.000043 -0.000048 0
0.000238 -0.000257 0
0.000584 -0.000465 0
0.001030 -0.000590 0
0.001512 -0.000615 0
0.001970 -0.000558 0
0.002363 -0.000448 0
0.002665 -0.000316 0
0.002869 -0.000184 0
0.002980 -0.000069 0
0.003012 0.000022 0
0.002981 0.000086 0
0.002906 0.000127 0
0.002804 0.000146 0
0.002689 0.000149 0
0.002574 0.000140 0
0.002467 0.000123 0
0.002374 0.000101 0
0.002298 0.000077 0
0.002240 0.000055 0
0.002199 0.000034 0
0.002174 0.000016 0
0.002162 0.000002 0
0.002160 -0.000009 0
0.002166 -0.000017 0
0.002177 -0.000021 0
0.002191 -0.000023 0
0.002206 -0.000023 0
0.002220 -0.000020 0
0.002232 -0.000017 0
0.002241 -0.000013 0
0.002247 -0.000008 0
0.002249 -0.000003 0
0.002248 0.000002 0
0.002243 0.000007 0
0.002235 0.000011 0
0.002224 0.000014 0
0.002211 0.000016 0
0.002197 0.000017 0
0.002182 0.000017 0
0.002168 0.000015 0
0.002154 0.000013 0
0.002143 0.000011 0
0.002133 0.000008 0
0.002125 0.000004 0
0.002121 0.000000 0
0.002119 -0.000005 0
0.002121 -0.000013 0
0.002128 -0.000025 0
0.002141 -0.000043 0
0.002160 -0.000070 0
0.002182 -0.000104 0
0.002195 -0.000137 0
0.002167 -0.000126 0
0.002021 0.000048 0
0.001618 0.000608 0
0.000831 0.001430 0
0.000000 0.000920 0
0.000000 -0.000326 0
0.000271 -0.000821 0
0.000698 -0.000913 0
0.001077 -0.000680 0
0.001332 -0.000373 0
0.001461 -0.000118 0
0.001493 0.000046 0
0.001468 0.000126 0
0.001417 0.000144 0
0.001363 0.000125 0
0.001317 0.000092 0
0.001285 0.000058 0
0.001264 0.000031 0
0.001253 0.000014 0
0.001245 0.000005 0
0.001240 0.000002 0
0.001234 0.000004 0
0.001227 0.000008 0
0.001217 0.000012 0
0.001205 0.000017 0
0.001191 0.000021 0
0.001174 0.000025 0
0.001155 0.000028 0
0.001133 0.000032 0
0.001108 0.000037 0
0.001079 0.000044 0
0.001046 0.000053 0
0.001005 0.000067 0
0.000955 0.000088 0
0.000891 0.000123 0
0.000808 0.000174 0
0.000700 0.000244 0
0.000565 0.000328 0
0.000404 0.000402 0
0.000231 0.000421 0
0.000079 0.000314 0
0.000000 0.000109 0
0.000000 0.000000 0
0.000000 0.000000 0
0.000000 0.000000 0
0.000000 -0.000020 0
0.000117 -0.000220 0
0.000437 -0.000597 0
0.000909 -0.000930 0
0.001467 -0.001117 0
0.002040 -0.001141 0
0.002573 -0.001031 0
0.003026 -0.000836 0
0.003377 -0.000602 0
0.003619 -0.000367 0
0.003758 -0.000157 0
0.003807 0.000014 0
0.003783 0.000139 0
0.003705 0.000221 0
0.003593 0.000265 0
0.003463 0.000277 0
0.003330 0.000265 0
0.003203 0.000237 0
0.003091 0.000199 0
0.002997 0.000156 0
0.002924 0.000113 0
0.002870 0.000074 0
0.002834 0.000040 0
0.002814 0.000012 0
0.002805 -0.000009 0
0.002806 -0.000024 0
0.002812 -0.000033 0
0.002821 -0.000037 0
0.002832 -0.000037 0
0.002842 -0.000033 0
0.002851 -0.000027 0
0.002856 -0.000019 0
0.002859 -0.000011 0
0.002857 -0.000002 0
0.002852 0.000007 0
0.002844 0.000015 0
0.002832 0.000022 0
0.002817 0.000028 0
0.002800 0.000032 0
0.002782 0.000034 0
0.002763 0.000034 0
0.002744 0.000032 0
0.002725 0.000029 0
0.002708 0.000025 0
0.002693 0.000019 0
0.002680 0.000013 0
0.002669 0.000006 0
0.002662 -0.000003 0
0.002656 -0.000015 0
0.002652 -0.000030 0
0.002648 -0.000050 0
0.002639 -0.000073 0
0.002612 -0.000091 0
0.002543 -0.000074 0
0.002385 0.000050 0
0.002062 0.000440 0
0.001481 0.001296 0
0.000648 0.002218 0
0.000000 0.001286 0
0.000000 -0.000461 0
0.000262 -0.001171 0
0.000680 -0.001320 0
0.001055 -0.001003 0
0.001311 -0.000572 0
0.001445 -0.000206 0
0.001485 0.000037 0
0.001467 0.000159 0
0.001423 0.000193 0
0.001374 0.000173 0
0.001333 0.000130 0
0.001302 0.000084 0
0.001281 0.000048 0
0.001266 0.000024 0
0.001255 0.000013 0
0.001245 0.000010 0
0.001234 0.000013 0
0.001221 0.000019 0
0.001205 0.000026 0
0.001187 0.000033 0
0.001166 0.000040 0
0.001143 0.000046 0
0.001117 0.000052 0
0.001088 0.000060 0
0.001055 0.000068 0
0.001018 0.000080 0
0.000976 0.000095 0
0.000926 0.000118 0
0.000867 0.000152 0
0.000795 0.000202 0
0.000706 0.000274 0
0.000598 0.000368 0
0.000469 0.000475 0
0.000325 0.000563 0
0.000179 0.000573 0
0.000058 0.000419 0
0.000000 0.000144 0
0.000000 0.000000 0
0.000000 0.000000 0
0.000000 0.000000 0
0.000000 -0.000095 0
0.000175 -0.000484 0
0.000593 -0.001050 0
0.001158 -0.001495 0
0.001787 -0.001720 0
0.002407 -0.001721 0
0.002968 -0.001543 0
0.003437 -0.001252 0
0.003796 -0.000909 0
0.004044 -0.000566 0
0.004187 -0.000257 0
0.004238 -0.000003 0
0.004216 0.000188 0
0.004139 0.000317 0
0.004026 0.000389 0
0.003894 0.000413 0
0.003757 0.000400 0
0.003626 0.000361 0
0.003510 0.000307 0
0.003411 0.000245 0
0.003332 0.000182 0
0.003273 0.000123 0
0.003230 0.000072 0
0.003203 0.000031 0
0.003187 -0.000001 0
0.003178 -0.000023 0
0.003176 -0.000037 0
0.003176 -0.000043 0
0.003178 -0.000043 0
0.003179 -0.000039 0
0.003179 -0.000031 0
0.003176 -0.000020 0
0.003171 -0.000009 0
0.003164 0.000004 0
0.003153 0.000016 0
0.003140 0.000027 0
0.003124 0.000037 0
0.003106 0.000045 0
0.003086 0.000051 0
0.003064 0.000054 0
0.003042 0.000055 0
0.003020 0.000053 0
0.002998 0.000049 0
0.002977 0.000043 0
0.002957 0.000036 0
0.002938 0.000028 0
0.002921 0.000019 0
0.002905 0.000008 0
0.002889 -0.000004 0
0.002871 -0.000017 0
0.002846 -0.000030 0
0.002805 -0.000033 0
0.002730 -0.000008 0
0.002592 0.000090 0
0.002343 0.000355 0
0.001923 0.000953 0
0.001284 0.002022 0
0.000505 0.002910 0
0.000000 0.001569 0
0.000000 -0.000589 0
0.000243 -0.001502 0
0.000632 -0.001706 0
0.000979 -0.001311 0
0.001217 -0.000764 0
0.001340 -0.000292 0
0.001378 0.000024 0
0.001362 0.000187 0
0.001324 0.000236 0
0.001281 0.000215 0
0.001244 0.000164 0
0.001215 0.000110 0
0.001193 0.000066 0
0.001176 0.000039 0
0.001160 0.000026 0
0.001143 0.000024 0
0.001125 0.000028 0
0.001105 0.000037 0
0.001083 0.000046 0
0.001058 0.000055 0
0.001031 0.000065 0
0.001001 0.000074 0
0.000969 0.000083 0
0.000933 0.000094 0
0.000895 0.000106 0
0.000852 0.000123 0
0.000805 0.000144 0
0.000751 0.000175 0
0.000690 0.000219 0
0.000619 0.000283 0
0.000537 0.000370 0
0.000441 0.000481 0
0.000334 0.000600 0
0.000222 0.000692 0
0.000116 0.000688 0
0.000035 0.000493 0
0.000000 0.000167 0
0.000000 0.000000 0
0.000000 0.000000 0
0.000000 0.000000 0
0.000000 -0.000195 0
0.000212 -0.000812 0
0.000693 -0.001580 0
0.001317 -0.002124 0
0.001985 -0.002366 0
0.002623 -0.002322 0
0.003184 -0.002060 0
0.003640 -0.001664 0
0.003982 -0.001209 0
0.004211 -0.000757 0
0.004339 -0.000351 0
0.004379 -0.000016 0
0.004351 0.000238 0
0.004271 0.000412 0
0.004158 0.000510 0
0.004029 0.000546 0
0.003897 0.000533 0
0.003771 0.000484 0
0.003659 0.000414 0
0.003564 0.000334 0
0.003487 0.000252 0
0.003427 0.000176 0
0.003382 0.000110 0
0.003348 0.000056 0
0.003324 0.000015 0
0.003306 -0.000013 0
0.003292 -0.000030 0
0.003279 -0.000039 0
0.003268 -0.000039 0
0.003256 -0.000034 0
0.003244 -0.000024 0
0.003231 -0.000012 0
0.003216 0.000002 0
0.003200 0.000016 0
0.003183 0.000031 0
0.003164 0.000044 0
0.003144 0.000056 0
0.003123 0.000066 0
0.003101 0.000073 0
0.003079 0.000077 0
0.003055 0.000078 0
0.003031 0.000077 0
0.003007 0.000072 0
0.002983 0.000066 0
0.002959 0.000058 0
0.002936 0.000049 0
0.002912 0.000039 0
0.002889 0.000029 0
0.002864 0.000019 0
0.002834 0.000013 0
0.002793 0.000016 0
0.002730 0.000042 0
0.002625 0.000122 0
0.002449 0.000313 0
0.002160 0.000720 0
0.001713 0.001499 0
0.001091 0.002714 0
0.000397 0.003503 0
0.000000 0.001791 0
0.000000 -0.000705 0
0.000220 -0.001803 0
0.000569 -0.002057 0
0.000878 -0.001588 0
0.001085 -0.000934 0
0.001189 -0.000367 0
0.001218 0.000014 0
0.001202 0.000213 0
0.001168 0.000274 0
0.001130 0.000252 0
0.001097 0.000196 0
0.001069 0.000135 0
0.001045 0.000087 0
0.001024 0.000058 0
0.001002 0.000045 0
0.000978 0.000044 0
0.000953 0.000051 0
0.000925 0.000061 0
0.000896 0.000073 0
0.000865 0.000085 0
0.000832 0.000096 0
0.000796 0.000108 0
0.000759 0.000120 0
0.000720 0.000133 0
0.000677 0.000149 0
0.000632 0.000169 0
0.000584 0.000196 0
0.000531 0.000232 0
0.000474 0.000284 0
0.000412 0.000355 0
0.000343 0.000452 0
0.000269 0.000571 0
0.000192 0.000694 0
0.000118 0.000780 0
0.000055 0.000760 0
0.000014 0.000535 0
0.000000 0.000179 0
0.000000 0.000000 0
0.000000 0.000000 0
0.000000 0.000000 0
0.000000 -0.000307 0
0.000229 -0.001176 0
0.000742 -0.002154 0
0.001394 -0.002787 0
0.002076 -0.003027 0
0.002710 -0.002920 0
0.003250 -0.002560 0
0.003674 -0.002049 0
0.003979 -0.001480 0
0.004174 -0.000923 0
0.004272 -0.000425 0
0.004290 -0.000014 0
0.004247 0.000297 0
0.004160 0.000509 0
0.004046 0.000630 0
0.003921 0.000674 0
0.003796 0.000658 0
0.003679 0.000599 0
0.003576 0.000514 0
0.003489 0.000417 0
0.003417 0.000319 0
0.003358 0.000229 0
0.003311 0.000151 0
0.003271 0.000089 0
0.003237 0.000042 0
0.003207 0.000009 0
0.003178 -0.000010 0
0.003151 -0.000019 0
0.003125 -0.000020 0
0.003098 -0.000015 0
0.003072 -0.000005 0
0.003047 0.000008 0
0.003022 0.000022 0
0.002998 0.000037 0
0.002975 0.000052 0
0.002952 0.000066 0
0.002930 0.000078 0
0.002907 0.000088 0
0.002885 0.000096 0
0.002862 0.000101 0
0.002839 0.000102 0
0.002816 0.000101 0
0.002792 0.000097 0
0.002767 0.000091 0
0.002741 0.000084 0
0.002715 0.000075 0
0.002689 0.000065 0
0.002661 0.000057 0
0.002630 0.000051 0
0.002595 0.000054 0
0.002547 0.000075 0
0.002476 0.000135 0
0.002365 0.000273 0
0.002185 0.000555 0
0.001900 0.001090 0
0.001476 0.002022 0
0.000910 0.003338 0
0.000312 0.004001 0
0.000000 0.001966 0
0.000000 -0.000809 0
0.000196 -0.002071 0
0.000501 -0.002364 0
0.000765 -0.001827 0
0.000936 -0.001075 0
0.001018 -0.000426 0
0.001036 0.000011 0
0.001018 0.000237 0
0.000986 0.000308 0
0.000952 0.000286 0
0.000921 0.000225 0
0.000894 0.000161 0
0.000868 0.000111 0
0.000842 0.000082 0
0.000813 0.000071 0
0.000783 0.000072 0
0.000750 0.000081 0
0.000716 0.000093 0
0.000681 0.000106 0
0.000644 0.000120 0
0.000606 0.000133 0
0.000567 0.000146 0
0.000527 0.000160 0
0.000485 0.000175 0
0.000442 0.000194 0
0.000397 0.000216 0
0.000351 0.000245 0
0.000304 0.000284 0
0.000256 0.000339 0
0.000207 0.000414 0
0.000157 0.000513 0
0.000107 0.000632 0
0.000063 0.000751 0
0.000027 0.000828 0
0.000005 0.000791 0
-0.000003 0.000548 0
0.000000 0.000181 0
0.000000 0.000000 0
0.000000 0.000000 0
0.000000 0.000000 0
0.000000 -0.000424 0
0.000234 -0.001554 0
0.000756 -0.002745 0
0.001413 -0.003458 0
0.002085 -0.003681 0
0.002693 -0.003495 0
0.003192 -0.003024 0
0.003568 -0.002393 0
0.003823 -0.001709 0
0.003972 -0.001050 0
0.004032 -0.000468 0
0.004020 0.000009 0
0.003957 0.000369 0
0.003858 0.000612 0
0.003741 0.000749 0
0.003618 0.000797 0
0.003499 0.000775 0
0.003391 0.000704 0
0.003297 0.000605 0
0.003216 0.000493 0
0.003147 0.000383 0
0.003088 0.000282 0
0.003036 0.000197 0
0.002987 0.000130 0
0.002941 0.000080 0
0.002896 0.000046 0
0.002852 0.000025 0
0.002809 0.000016 0
0.002767 0.000014 0
0.002727 0.000018 0
0.002689 0.000027 0
0.002654 0.000038 0
0.002622 0.000051 0
0.002593 0.000064 0
0.002566 0.000077 0
0.002542 0.000090 0
0.002520 0.000101 0
0.002499 0.000111 0
0.002479 0.000118 0
0.002459 0.000123 0
0.002439 0.000125 0
0.002418 0.000124 0
0.002397 0.000122 0
0.002374 0.000117 0
0.002349 0.000110 0
0.002324 0.000102 0
0.002297 0.000094 0
0.002269 0.000087 0
0.002239 0.000085 0
0.002206 0.000096 0
0.002163 0.000134 0
0.002103 0.000225 0
0.002007 0.000415 0
0.001852 0.000778 0
0.001603 0.001428 0
0.001232 0.002490 0
0.000742 0.003878 0
0.000241 0.004412 0
0.000000 0.002103 0
0.000000 -0.000901 0
0.000171 -0.002305 0
0.000432 -0.002626 0
0.000651 -0.002024 0
0.000785 -0.001187 0
0.000843 -0.000467 0
0.000849 0.000014 0
0.000829 0.000262 0
0.000799 0.000339 0
0.000769 0.000316 0
0.000740 0.000253 0
0.000712 0.000188 0
0.000683 0.000139 0
0.000652 0.000112 0
0.000618 0.000103 0
0.000582 0.000107 0
0.000544 0.000117 0
0.000504 0.000131 0
0.000464 0.000145 0
0.000424 0.000159 0
0.000383 0.000173 0
0.000342 0.000187 0
0.000301 0.000202 0
0.000259 0.000218 0
0.000218 0.000237 0
0.000176 0.000259 0
0.000136 0.000288 0
0.000097 0.000327 0
0.000060 0.000381 0
0.000026 0.000455 0
-0.000004 0.000551 0
-0.000028 0.000664 0
-0.000043 0.000774 0
-0.000045 0.000838 0
-0.000033 0.000789 0
-0.000014 0.000539 0
0.000000 0.000176 0
0.000000 0.000000 0
0.000000 0.000000 0
0.000000 0.000000 0
0.000000 -0.000540 0
0.000231 -0.001931 0
0.000748 -0.003333 0
0.001390 -0.004116 0
0.002032 -0.004307 0
0.002594 -0.004027 0
0.003037 -0.003435 0
0.003352 -0.002681 0
0.003548 -0.001884 0
0.003643 -0.001131 0
0.003658 -0.000473 0
0.003612 0.000061 0
0.003524 0.000460 0
0.003410 0.000725 0
0.003284 0.000871 0
0.003160 0.000916 0
0.003043 0.000885 0
0.002939 0.000802 0
0.002847 0.000689 0
0.002768 0.000566 0
0.002697 0.000447 0
0.002631 0.000341 0
0.002569 0.000252 0
0.002507 0.000183 0
0.002446 0.000133 0
0.002386 0.000098 0
0.002327 0.000077 0
0.002271 0.000066 0
0.002218 0.000062 0
0.002169 0.000063 0
0.002125 0.000068 0
0.002086 0.000075 0
0.002053 0.000084 0
0.002024 0.000093 0
0.001999 0.000103 0
0.001978 0.000113 0
0.001961 0.000122 0
0.001945 0.000130 0
0.001931 0.000136 0
0.001917 0.000141 0
0.001903 0.000143 0
0.001888 0.000144 0
0.001872 0.000142 0
0.001854 0.000139 0
0.001834 0.000134 0
0.001812 0.000127 0
0.001790 0.000120 0
0.001766 0.000115 0
0.001743 0.000115 0
0.001720 0.000130 0
0.001695 0.000178 0
0.001659 0.000292 0
0.001598 0.000524 0
0.001488 0.000959 0
0.001296 0.001710 0
0.000994 0.002884 0
0.000587 0.004330 0
0.000179 0.004743 0
0.000000 0.002207 0
0.000000 -0.000981 0
0.000148 -0.002504 0
0.000367 -0.002844 0
0.000542 -0.002180 0
0.000641 -0.001268 0
0.000677 -0.000490 0
0.000672 0.000025 0
0.000649 0.000287 0
0.000621 0.000368 0
0.000593 0.000345 0
0.000566 0.000281 0
0.000538 0.000217 0
0.000506 0.000171 0
0.000471 0.000147 0
0.000432 0.000141 0
0.000392 0.000146 0
0.000350 0.000158 0
0.000308 0.000172 0
0.000265 0.000186 0
0.000224 0.000200 0
0.000182 0.000214 0
0.000142 0.000228 0
0.000101 0.000243 0
0.000062 0.000259 0
0.000024 0.000276 0
-0.000012 0.000297 0
-0.000045 0.000324 0
-0.000074 0.000360 0
-0.000099 0.000410 0
-0.000118 0.000478 0
-0.000129 0.000567 0
-0.000131 0.000670 0
-0.000119 0.000767 0
-0.000094 0.000819 0
-0.000059 0.000761 0
-0.000021 0.000514 0
0.000000 0.000167 0
0.000000 0.000000 0
0.000000 0.000000 0
0.000000 0.000000 0
0.000000 -0.000655 0
0.000226 -0.002301 0
0.000726 -0.003903 0
0.001337 -0.004742 0
0.001933 -0.004886 0
0.002434 -0.004500 0
0.002808 -0.003781 0
0.003053 -0.002903 0
0.003184 -0.002000 0
0.003222 -0.001160 0
0.003189 -0.000437 0
0.003105 0.000144 0
0.002988 0.000572 0
0.002853 0.000852 0
0.002713 0.001000 0
0.002578 0.001038 0
0.002454 0.000996 0
0.002343 0.000900 0
0.002244 0.000776 0
0.002155 0.000644 0
0.002071 0.000520 0
0.001992 0.000411 0
0.001914 0.000322 0
0.001838 0.000252 0
0.001763 0.000201 0
0.001692 0.000165 0
0.001625 0.000141 0
0.001564 0.000125 0
0.001509 0.000116 0
0.001462 0.000111 0
0.001421 0.000110 0
0.001388 0.000111 0
0.001361 0.000114 0
0.001340 0.000118 0
0.001324 0.000123 0
0.001313 0.000129 0
0.001304 0.000135 0
0.001298 0.000141 0
0.001293 0.000146 0
0.001289 0.000151 0
0.001285 0.000154 0
0.001279 0.000156 0
0.001271 0.000156 0
0.001261 0.000155 0
0.001248 0.000152 0
0.001234 0.000147 0
0.001218 0.000140 0
0.001204 0.000134 0
0.001193 0.000132 0
0.001188 0.000145 0
0.001188 0.000196 0
0.001188 0.000322 0
0.001174 0.000586 0