# vtk DataFile Version 2.0
generated by CFD-lab course output (written by Tobias Neckel) 
ASCII

DATASET STRUCTURED_GRID
DIMENSIONS  99 49 1 
POINTS 4851 float

0.000000 0.000000 0
0.020000 0.000000 0
0.040000 0.000000 0
0.060000 0.000000 0
0.080000 0.000000 0
0.100000 0.000000 0
0.120000 0.000000 0
0.140000 0.000000 0
0.160000 0.000000 0
0.180000 0.000000 0
0.200000 0.000000 0
0.220000 0.000000 0
0.240000 0.000000 0
0.260000 0.000000 0
0.280000 0.000000 0
0.300000 0.000000 0
0.320000 0.000000 0
0.340000 0.000000 0
0.360000 0.000000 0
0.380000 0.000000 0
0.400000 0.000000 0
0.420000 0.000000 0
0.440000 0.000000 0
0.460000 0.000000 0
0.480000 0.000000 0
0.500000 0.000000 0
0.520000 0.000000 0
0.540000 0.000000 0
0.560000 0.000000 0
0.580000 0.000000 0
0.600000 0.000000 0
0.620000 0.000000 0
0.640000 0.000000 0
0.660000 0.000000 0
0.680000 0.000000 0
0.700000 0.000000 0
0.720000 0.000000 0
0.740000 0.000000 0
0.760000 0.000000 0
0.780000 0.000000 0
0.800000 0.000000 0
0.820000 0.000000 0
0.840000 0.000000 0
0.860000 0.000000 0
0.880000 0.000000 0
0.900000 0.000000 0
0.920000 0.000000 0
0.940000 0.000000 0
0.960000 0.000000 0
0.980000 0.000000 0
1.000000 0.000000 0
1.020000 0.000000 0
1.040000 0.000000 0
1.060000 0.000000 0
1.080000 0.000000 0
1.100000 0.000000 0
1.120000 0.000000 0
1.140000 0.000000 0
1.160000 0.000000 0
1.180000 0.000000 0
1.200000 0.000000 0
1.220000 0.000000 0
1.240000 0.000000 0
1.260000 0.000000 0
1.280000 0.000000 0
1.300000 0.000000 0
1.320000 0.000000 0
1.340000 0.000000 0
1.360000 0.000000 0
1.380000 0.000000 0
1.400000 0.000000 0
1.420000 0.000000 0
1.440000 0.000000 0
1.460000 0.000000 0
1.480000 0.000000 0
1.500000 0.000000 0
1.520000 0.000000 0
1.540000 0.000000 0
1.560000 0.000000 0
1.580000 0.000000 0
1.600000 0.000000 0
1.620000 0.000000 0
1.640000 0.000000 0
1.660000 0.000000 0
1.680000 0.000000 0
1.700000 0.000000 0
1.720000 0.000000 0
1.740000 0.000000 0
1.760000 0.000000 0
1.780000 0.000000 0
1.800000 0.000000 0
1.820000 0.000000 0
1.840000 0.000000 0
1.860000 0.000000 0
1.880000 0.000000 0
1.900000 0.000000 0
1.920000 0.000000 0
1.940000 0.000000 0
1.960000 0.000000 0
0.000000 0.020000 0
0.020000 0.020000 0
0.040000 0.020000 0
0.060000 0.020000 0
0.080000 0.020000 0
0.100000 0.020000 0
0.120000 0.020000 0
0.140000 0.020000 0
0.160000 0.020000 0
0.180000 0.020000 0
0.200000 0.020000 0
0.220000 0.020000 0
0.240000 0.020000 0
0.260000 0.020000 0
0.280000 0.020000 0
0.300000 0.020000 0
0.320000 0.020000 0
0.340000 0.020000 0
0.360000 0.020000 0
0.380000 0.020000 0
0.400000 0.020000 0
0.420000 0.020000 0
0.440000 0.020000 0
0.460000 0.020000 0
0.480000 0.020000 0
0.500000 0.020000 0
0.520000 0.020000 0
0.540000 0.020000 0
0.560000 0.020000 0
0.580000 0.020000 0
0.600000 0.020000 0
0.620000 0.020000 0
0.640000 0.020000 0
0.660000 0.020000 0
0.680000 0.020000 0
0.700000 0.020000 0
0.720000 0.020000 0
0.740000 0.020000 0
0.760000 0.020000 0
0.780000 0.020000 0
0.800000 0.020000 0
0.820000 0.020000 0
0.840000 0.020000 0
0.860000 0.020000 0
0.880000 0.020000 0
0.900000 0.020000 0
0.920000 0.020000 0
0.940000 0.020000 0
0.960000 0.020000 0
0.980000 0.020000 0
1.000000 0.020000 0
1.020000 0.020000 0
1.040000 0.020000 0
1.060000 0.020000 0
1.080000 0.020000 0
1.100000 0.020000 0
1.120000 0.020000 0
1.140000 0.020000 0
1.160000 0.020000 0
1.180000 0.020000 0
1.200000 0.020000 0
1.220000 0.020000 0
1.240000 0.020000 0
1.260000 0.020000 0
1.280000 0.020000 0
1.300000 0.020000 0
1.320000 0.020000 0
1.340000 0.020000 0
1.360000 0.020000 0
1.380000 0.020000 0
1.400000 0.020000 0
1.420000 0.020000 0
1.440000 0.020000 0
1.460000 0.020000 0
1.480000 0.020000 0
1.500000 0.020000 0
1.520000 0.020000 0
1.540000 0.020000 0
1.560000 0.020000 0
1.580000 0.020000 0
1.600000 0.020000 0
1.620000 0.020000 0
1.640000 0.020000 0
1.660000 0.020000 0
1.680000 0.020000 0
1.700000 0.020000 0
1.720000 0.020000 0
1.740000 0.020000 0
1.760000 0.020000 0
1.780000 0.020000 0
1.800000 0.020000 0
1.820000 0.020000 0
1.840000 0.020000 0
1.860000 0.020000 0
1.880000 0.020000 0
1.900000 0.020000 0
1.920000 0.020000 0
1.940000 0.020000 0
1.960000 0.020000 0
0.000000 0.040000 0
0.020000 0.040000 0
0.040000 0.040000 0
0.060000 0.040000 0
0.080000 0.040000 0
0.100000 0.040000 0
0.120000 0.040000 0
0.140000 0.040000 0
0.160000 0.040000 0
0.180000 0.040000 0
0.200000 0.040000 0
0.220000 0.040000 0
0.240000 0.040000 0
0.260000 0.040000 0
0.280000 0.040000 0
0.300000 0.040000 0
0.320000 0.040000 0
0.340000 0.040000 0
0.360000 0.040000 0
0.380000 0.040000 0
0.400000 0.040000 0
0.420000 0.040000 0
0.440000 0.040000 0
0.460000 0.040000 0
0.480000 0.040000 0
0.500000 0.040000 0
0.520000 0.040000 0
0.540000 0.040000 0
0.560000 0.040000 0
0.580000 0.040000 0
0.600000 0.040000 0
0.620000 0.040000 0
0.640000 0.040000 0
0.660000 0.040000 0
0.680000 0.040000 0
0.700000 0.040000 0
0.720000 0.040000 0
0.740000 0.040000 0
0.760000 0.040000 0
0.780000 0.040000 0
0.800000 0.040000 0
0.820000 0.040000 0
0.840000 0.040000 0
0.860000 0.040000 0
0.880000 0.040000 0
0.900000 0.040000 0
0.920000 0.040000 0
0.940000 0.040000 0
0.960000 0.040000 0
0.980000 0.040000 0
1.000000 0.040000 0
1.020000 0.040000 0
1.040000 0.040000 0
1.060000 0.040000 0
1.080000 0.040000 0
1.100000 0.040000 0
1.120000 0.040000 0
1.140000 0.040000 0
1.160000 0.040000 0
1.180000 0.040000 0
1.200000 0.040000 0
1.220000 0.040000 0
1.240000 0.040000 0
1.260000 0.040000 0
1.280000 0.040000 0
1.300000 0.040000 0
1.320000 0.040000 0
1.340000 0.040000 0
1.360000 0.040000 0
1.380000 0.040000 0
1.400000 0.040000 0
1.420000 0.040000 0
1.440000 0.040000 0
1.460000 0.040000 0
1.480000 0.040000 0
1.500000 0.040000 0
1.520000 0.040000 0
1.540000 0.040000 0
1.560000 0.040000 0
1.580000 0.040000 0
1.600000 0.040000 0
1.620000 0.040000 0
1.640000 0.040000 0
1.660000 0.040000 0
1.680000 0.040000 0
1.700000 0.040000 0
1.720000 0.040000 0
1.740000 0.040000 0
1.760000 0.040000 0
1.780000 0.040000 0
1.800000 0.040000 0
1.820000 0.040000 0
1.840000 0.040000 0
1.860000 0.040000 0
1.880000 0.040000 0
1.900000 0.040000 0
1.920000 0.040000 0
1.940000 0.040000 0
1.960000 0.040000 0
0.000000 0.060000 0
0.020000 0.060000 0
0.040000 0.060000 0
0.060000 0.060000 0
0.080000 0.060000 0
0.100000 0.060000 0
0.120000 0.060000 0
0.140000 0.060000 0
0.160000 0.060000 0
0.180000 0.060000 0
0.200000 0.060000 0
0.220000 0.060000 0
0.240000 0.060000 0
0.260000 0.060000 0
0.280000 0.060000 0
0.300000 0.060000 0
0.320000 0.060000 0
0.340000 0.060000 0
0.360000 0.060000 0
0.380000 0.060000 0
0.400000 0.060000 0
0.420000 0.060000 0
0.440000 0.060000 0
0.460000 0.060000 0
0.480000 0.060000 0
0.500000 0.060000 0
0.520000 0.060000 0
0.540000 0.060000 0
0.560000 0.060000 0
0.580000 0.060000 0
0.600000 0.060000 0
0.620000 0.060000 0
0.640000 0.060000 0
0.660000 0.060000 0
0.680000 0.060000 0
0.700000 0.060000 0
0.720000 0.060000 0
0.740000 0.060000 0
0.760000 0.060000 0
0.780000 0.060000 0
0.800000 0.060000 0
0.820000 0.060000 0
0.840000 0.060000 0
0.860000 0.060000 0
0.880000 0.060000 0
0.900000 0.060000 0
0.920000 0.060000 0
0.940000 0.060000 0
0.960000 0.060000 0
0.980000 0.060000 0
1.000000 0.060000 0
1.020000 0.060000 0
1.040000 0.060000 0
1.060000 0.060000 0
1.080000 0.060000 0
1.100000 0.060000 0
1.120000 0.060000 0
1.140000 0.060000 0
1.160000 0.060000 0
1.180000 0.060000 0
1.200000 0.060000 0
1.220000 0.060000 0
1.240000 0.060000 0
1.260000 0.060000 0
1.280000 0.060000 0
1.300000 0.060000 0
1.320000 0.060000 0
1.340000 0.060000 0
1.360000 0.060000 0
1.380000 0.060000 0
1.400000 0.060000 0
1.420000 0.060000 0
1.440000 0.060000 0
1.460000 0.060000 0
1.480000 0.060000 0
1.500000 0.060000 0
1.520000 0.060000 0
1.540000 0.060000 0
1.560000 0.060000 0
1.580000 0.060000 0
1.600000 0.060000 0
1.620000 0.060000 0
1.640000 0.060000 0
1.660000 0.060000 0
1.680000 0.060000 0
1.700000 0.060000 0
1.720000 0.060000 0
1.740000 0.060000 0
1.760000 0.060000 0
1.780000 0.060000 0
1.800000 0.060000 0
1.820000 0.060000 0
1.840000 0.060000 0
1.860000 0.060000 0
1.880000 0.060000 0
1.900000 0.060000 0
1.920000 0.060000 0
1.940000 0.060000 0
1.960000 0.060000 0
0.000000 0.080000 0
0.020000 0.080000 0
0.040000 0.080000 0
0.060000 0.080000 0
0.080000 0.080000 0
0.100000 0.080000 0
0.120000 0.080000 0
0.140000 0.080000 0
0.160000 0.080000 0
0.180000 0.080000 0
0.200000 0.080000 0
0.220000 0.080000 0
0.240000 0.080000 0
0.260000 0.080000 0
0.280000 0.080000 0
0.300000 0.080000 0
0.320000 0.080000 0
0.340000 0.080000 0
0.360000 0.080000 0
0.380000 0.080000 0
0.400000 0.080000 0
0.420000 0.080000 0
0.440000 0.080000 0
0.460000 0.080000 0
0.480000 0.080000 0
0.500000 0.080000 0
0.520000 0.080000 0
0.540000 0.080000 0
0.560000 0.080000 0
0.580000 0.080000 0
0.600000 0.080000 0
0.620000 0.080000 0
0.640000 0.080000 0
0.660000 0.080000 0
0.680000 0.080000 0
0.700000 0.080000 0
0.720000 0.080000 0
0.740000 0.080000 0
0.760000 0.080000 0
0.780000 0.080000 0
0.800000 0.080000 0
0.820000 0.080000 0
0.840000 0.080000 0
0.860000 0.080000 0
0.880000 0.080000 0
0.900000 0.080000 0
0.920000 0.080000 0
0.940000 0.080000 0
0.960000 0.080000 0
0.980000 0.080000 0
1.000000 0.080000 0
1.020000 0.080000 0
1.040000 0.080000 0
1.060000 0.080000 0
1.080000 0.080000 0
1.100000 0.080000 0
1.120000 0.080000 0
1.140000 0.080000 0
1.160000 0.080000 0
1.180000 0.080000 0
1.200000 0.080000 0
1.220000 0.080000 0
1.240000 0.080000 0
1.260000 0.080000 0
1.280000 0.080000 0
1.300000 0.080000 0
1.320000 0.080000 0
1.340000 0.080000 0
1.360000 0.080000 0
1.380000 0.080000 0
1.400000 0.080000 0
1.420000 0.080000 0
1.440000 0.080000 0
1.460000 0.080000 0
1.480000 0.080000 0
1.500000 0.080000 0
1.520000 0.080000 0
1.540000 0.080000 0
1.560000 0.080000 0
1.580000 0.080000 0
1.600000 0.080000 0
1.620000 0.080000 0
1.640000 0.080000 0
1.660000 0.080000 0
1.680000 0.080000 0
1.700000 0.080000 0
1.720000 0.080000 0
1.740000 0.080000 0
1.760000 0.080000 0
1.780000 0.080000 0
1.800000 0.080000 0
1.820000 0.080000 0
1.840000 0.080000 0
1.860000 0.080000 0
1.880000 0.080000 0
[...]
POINT_DATA 4851 

VECTORS velocity float
0.000000 0.000000 0
0.000124 0.000000 0
0.000291 0.000000 0
0.000408 0.000000 0
0.000458 0.000000 0
0.000457 0.000000 0
0.000428 0.000000 0
0.000389 0.000000 0
0.000353 0.000000 0
0.000326 0.000000 0
0.000310 0.000000 0
0.000302 0.000000 0
0.000301 0.000000 0
0.000303 0.000000 0
0.000306 0.000000 0
0.000309 0.000000 0
0.000311 0.000000 0
0.000312 0.000000 0
0.000312 0.000000 0
0.000311 0.000000 0
0.000310 0.000000 0
0.000308 0.000000 0
0.000307 0.000000 0
0.000305 0.000000 0
0.000303 0.000000 0
0.000301 0.000000 0
0.000299 0.000000 0
0.000297 0.000000 0
0.000293 0.000000 0
0.000289 0.000000 0
0.000281 0.000000 0
0.000267 0.000000 0
0.000240 0.000000 0
0.000194 0.000000 0
0.000125 0.000000 0
0.000046 0.000000 0
0.000000 0.000000 0
0.000000 0.000000 0
0.000000 0.000000 0
0.000000 0.000000 0
0.000000 0.000000 0
0.000000 0.000000 0
0.000001 0.000000 0
0.000002 0.000000 0
0.000003 0.000000 0
0.000005 0.000000 0
0.000007 0.000000 0
0.000009 0.000000 0
0.000012 0.000000 0
0.000015 0.000000 0
0.000018 0.000000 0
0.000022 0.000000 0
0.000026 0.000000 0
0.000030 0.000000 0
0.000035 0.000000 0
0.000039 0.000000 0
0.000044 0.000000 0
0.000048 0.000000 0
0.000053 0.000000 0
0.000057 0.000000 0
0.000060 0.000000 0
0.000063 0.000000 0
0.000066 0.000000 0
0.000069 0.000000 0
0.000071 0.000000 0
0.000072 0.000000 0
0.000074 0.000000 0
0.000076 0.000000 0
0.000078 0.000000 0
0.000079 0.000000 0
0.000081 0.000000 0
0.000084 0.000000 0
0.000086 0.000000 0
0.000089 0.000000 0
0.000092 0.000000 0
0.000096 0.000000 0
0.000100 0.000000 0
0.000104 0.000000 0
0.000109 0.000000 0
0.000114 0.000000 0
0.000120 0.000000 0
0.000126 0.000000 0
0.000133 0.000000 0
0.000141 0.000000 0
0.000149 0.000000 0
0.000159 0.000000 0
0.000170 0.000000 0
0.000184 0.000000 0
0.000199 0.000000 0
0.000219 0.000000 0
0.000243 0.000000 0
0.000275 0.000000 0
0.000318 0.000000 0
0.000376 0.000000 0
0.000453 0.000000 0
0.000543 0.000000 0
0.000595 0.000000 0
0.000456 0.000000 0
0.000000 0.000000 0
0.000000 -0.000125 0
0.000336 -0.000292 0
0.000807 -0.000285 0
0.001164 -0.000167 0
0.001346 -0.000049 0
0.001381 0.000030 0
0.001325 0.000067 0
0.001230 0.000074 0
0.001133 0.000062 0
0.001054 0.000043 0
0.001003 0.000024 0
0.000976 0.000009 0
0.000967 -0.000001 0
0.000970 -0.000006 0
0.000978 -0.000007 0
0.000985 -0.000006 0
0.000990 -0.000004 0
0.000992 -0.000001 0
0.000991 0.000000 0
0.000987 0.000001 0
0.000982 0.000002 0
0.000975 0.000002 0
0.000968 0.000003 0
0.000960 0.000003 0
0.000951 0.000003 0
0.000941 0.000003 0
0.000930 0.000004 0
0.000916 0.000005 0
0.000898 0.000007 0
0.000873 0.000012 0
0.000835 0.000021 0
0.000775 0.000040 0
0.000679 0.000072 0
0.000533 0.000114 0
0.000336 0.000147 0
0.000125 0.000124 0
0.000000 0.000046 0
0.000000 0.000000 0
0.000000 0.000000 0
0.000000 0.000000 0
0.000000 0.000000 0
0.000001 -0.000000 0
0.000003 -0.000001 0
0.000007 -0.000002 0
0.000012 -0.000003 0
0.000018 -0.000004 0
0.000025 -0.000004 0
0.000034 -0.000005 0
0.000043 -0.000005 0
0.000054 -0.000006 0
0.000066 -0.000007 0
0.000079 -0.000007 0
0.000093 -0.000008 0
0.000108 -0.000008 0
0.000123 -0.000009 0
0.000139 -0.000009 0
0.000155 -0.000009 0
0.000171 -0.000008 0
0.000187 -0.000008 0
0.000201 -0.000007 0
0.000214 -0.000006 0
0.000226 -0.000006 0
0.000236 -0.000005 0
0.000245 -0.000004 0
0.000254 -0.000004 0
0.000261 -0.000003 0
0.000268 -0.000003 0
0.000275 -0.000003 0
0.000282 -0.000003 0
0.000290 -0.000004 0
0.000298 -0.000004 0
0.000307 -0.000005 0
0.000317 -0.000005 0
0.000328 -0.000006 0
0.000340 -0.000007 0
0.000354 -0.000007 0
0.000369 -0.000008 0
0.000385 -0.000009 0
0.000402 -0.000010 0
0.000421 -0.000011 0
0.000442 -0.000012 0
0.000465 -0.000013 0
0.000489 -0.000014 0
0.000516 -0.000016 0
0.000547 -0.000018 0
0.000581 -0.000021 0
0.000619 -0.000024 0
0.000664 -0.000029 0
0.000716 -0.000035 0
0.000778 -0.000044 0
0.000853 -0.000056 0
0.000945 -0.000074 0
0.001058 -0.000101 0
0.001192 -0.000135 0
0.001339 -0.000166 0
0.001452 -0.000141 0
0.001397 0.000087 0
0.000912 0.000595 0
0.000000 0.000456 0
0.000000 -0.000337 0
0.000445 -0.000809 0
0.001097 -0.000829 0
0.001629 -0.000540 0
0.001938 -0.000217 0
0.002041 0.000020 0
0.002004 0.000150 0
0.001895 0.000191 0
0.001769 0.000175 0
0.001660 0.000129 0
0.001582 0.000078 0
0.001538 0.000034 0
0.001520 0.000005 0
0.001519 -0.000011 0
0.001525 -0.000016 0
0.001532 -0.000013 0
0.001536 -0.000008 0
0.001535 -0.000001 0
0.001530 0.000004 0
0.001521 0.000008 0
0.001509 0.000011 0
0.001495 0.000013 0
0.001478 0.000014 0
0.001460 0.000016 0
0.001440 0.000018 0
0.001417 0.000021 0
0.001390 0.000025 0
0.001357 0.000031 0
0.001315 0.000042 0
0.001259 0.000062 0
0.001181 0.000097 0
0.001069 0.000155 0
0.000908 0.000241 0
0.000689 0.000342 0
0.000421 0.000407 0
0.000154 0.000336 0
0.000000 0.000125 0
0.000000 0.000000 0
0.000000 0.000000 0
0.000000 0.000000 0
0.000000 -0.000000 0
0.000002 -0.000002 0
0.000006 -0.000005 0
0.000013 -0.000008 0
0.000022 -0.000011 0
0.000033 -0.000013 0
0.000045 -0.000015 0
0.000060 -0.000018 0
0.000077 -0.000020 0
0.000095 -0.000022 0
0.000116 -0.000024 0
0.000138 -0.000027 0
0.000163 -0.000029 0
0.000189 -0.000030 0
0.000217 -0.000031 0
0.000245 -0.000032 0
0.000273 -0.000032 0
0.000302 -0.000031 0
0.000329 -0.000029 0
0.000354 -0.000027 0
0.000378 -0.000024 0
0.000400 -0.000022 0
0.000419 -0.000019 0
0.000437 -0.000017 0
0.000453 -0.000015 0
0.000467 -0.000014 0
0.000481 -0.000013 0
0.000495 -0.000014 0
0.000509 -0.000014 0
0.000524 -0.000015 0
0.000540 -0.000017 0
0.000558 -0.000019 0
0.000577 -0.000021 0
0.000598 -0.000023 0
0.000621 -0.000025 0
0.000646 -0.000028 0
0.000673 -0.000030 0
0.000703 -0.000033 0
0.000734 -0.000036 0
0.000769 -0.000039 0
0.000806 -0.000043 0
0.000846 -0.000047 0
0.000889 -0.000051 0
0.000936 -0.000057 0
0.000989 -0.000064 0
0.001046 -0.000072 0
0.001111 -0.000083 0
0.001184 -0.000096 0
0.001266 -0.000114 0
0.001361 -0.000137 0
0.001468 -0.000167 0
0.001589 -0.000204 0
0.001718 -0.000247 0
0.001842 -0.000280 0
0.001921 -0.000259 0
0.001872 -0.000058 0
0.001545 0.000540 0
0.000806 0.001398 0
0.000000 0.000912 0
0.000000 -0.000570 0
0.000458 -0.001390 0
0.001157 -0.001469 0
0.001751 -0.001009 0
0.002121 -0.000462 0
0.002271 -0.000037 0
0.002262 0.000213 0
0.002166 0.000308 0
0.002042 0.000297 0
0.001928 0.000229 0
0.001843 0.000145 0
0.001791 0.000070 0
0.001766 0.000018 0
0.001757 -0.000011 0
0.001757 -0.000020 0
0.001757 -0.000017 0
0.001754 -0.000007 0
0.001746 0.000004 0
0.001733 0.000014 0
0.001715 0.000022 0
0.001694 0.000028 0
0.001671 0.000033 0
0.001644 0.000037 0
0.001614 0.000041 0
0.001581 0.000046 0
0.001544 0.000053 0
0.001500 0.000064 0
0.001449 0.000079 0
0.001386 0.000105 0
0.001306 0.000145 0
0.001200 0.000212 0
0.001059 0.000313 0
0.000874 0.000451 0
0.000640 0.000601 0
0.000376 0.000682 0
0.000132 0.000545 0
0.000000 0.000200 0
0.000000 0.000000 0
0.000000 0.000000 0
0.000000 0.000000 0
0.000000 -0.000001 0
0.000003 -0.000006 0
0.000009 -0.000012 0
0.000018 -0.000018 0
0.000030 -0.000023 0
0.000044 -0.000027 0
0.000061 -0.000031 0
0.000080 -0.000036 0
0.000101 -0.000040 0
0.000125 -0.000045 0
0.000152 -0.000050 0
0.000182 -0.000054 0
0.000214 -0.000058 0
0.000248 -0.000062 0
0.000284 -0.000064 0
0.000322 -0.000065 0
0.000359 -0.000065 0
0.000397 -0.000064 0
0.000433 -0.000061 0
0.000467 -0.000056 0
0.000499 -0.000052 0
0.000529 -0.000046 0
0.000555 -0.000042 0
0.000579 -0.000037 0
0.000602 -0.000034 0
0.000623 -0.000032 0
0.000643 -0.000031 0
0.000663 -0.000031 0
0.000683 -0.000032 0
0.000705 -0.000034 0
0.000728 -0.000037 0
0.000753 -0.000041 0
0.000780 -0.000045 0
0.000810 -0.000050 0
0.000842 -0.000054 0
0.000876 -0.000059 0
0.000913 -0.000064 0
0.000953 -0.000070 0
0.000995 -0.000075 0
0.001041 -0.000082 0
0.001090 -0.000088 0
0.001142 -0.000096 0
0.001198 -0.000105 0
0.001259 -0.000115 0
0.001325 -0.000128 0
0.001397 -0.000143 0
0.001475 -0.000161 0
0.001561 -0.000184 0
0.001655 -0.000212 0
0.001757 -0.000245 0
0.001864 -0.000284 0
0.001971 -0.000325 0
0.002066 -0.000353 0
0.002120 -0.000337 0
0.002083 -0.000196 0
0.001870 0.000235 0
0.001379 0.001154 0
0.000612 0.002140 0
0.000000 0.001262 0
0.000000 -0.000796 0
0.000436 -0.001966 0
0.001116 -0.002122 0
0.001708 -0.001504 0
0.002089 -0.000738 0
0.002258 -0.000122 0
0.002268 0.000255 0
0.002187 0.000412 0
0.002074 0.000413 0
0.001967 0.000327 0
0.001885 0.000214 0
0.001831 0.000111 0
0.001799 0.000038 0
0.001782 -0.000002 0
0.001771 -0.000015 0
0.001759 -0.000011 0
0.001744 0.000003 0
0.001725 0.000019 0
0.001701 0.000034 0
0.001672 0.000046 0
0.001641 0.000055 0
0.001606 0.000063 0
0.001568 0.000070 0
0.001527 0.000078 0
0.001481 0.000088 0
0.001431 0.000101 0
0.001374 0.000119 0
0.001308 0.000145 0
0.001231 0.000185 0
0.001138 0.000248 0
0.001023 0.000343 0
0.000879 0.000481 0
0.000701 0.000659 0
0.000494 0.000839 0
0.000276 0.000916 0
0.000090 0.000712 0
0.000000 0.000256 0
0.000000 0.000000 0
0.000000 0.000000 0
0.000000 0.000000 0
0.000000 -0.000003 0
0.000003 -0.000011 0
0.000011 -0.000020 0
0.000022 -0.000029 0
0.000035 -0.000037 0
0.000052 -0.000044 0
0.000071 -0.000051 0
0.000092 -0.000058 0
0.000117 -0.000065 0
0.000145 -0.000073 0
0.000176 -0.000081 0
0.000210 -0.000088 0
0.000247 -0.000095 0
0.000287 -0.000100 0
0.000329 -0.000105 0
0.000373 -0.000107 0
0.000417 -0.000107 0
0.000461 -0.000104 0
0.000504 -0.000100 0
0.000544 -0.000093 0
0.000582 -0.000086 0
0.000617 -0.000078 0
0.000649 -0.000070 0
0.000678 -0.000063 0
0.000705 -0.000058 0
0.000730 -0.000055 0
0.000755 -0.000053 0
0.000780 -0.000054 0
0.000806 -0.000056 0
0.000833 -0.000060 0
0.000862 -0.000065 0
0.000894 -0.000071 0
0.000927 -0.000077 0
0.000964 -0.000084 0
0.001002 -0.000091 0
0.001044 -0.000099 0
0.001089 -0.000107 0
0.001136 -0.000115 0
0.001186 -0.000124 0
0.001239 -0.000133 0
0.001296 -0.000144 0
0.001356 -0.000155 0
0.001420 -0.000168 0
0.001488 -0.000183 0
0.001560 -0.000201 0
0.001638 -0.000222 0
0.001720 -0.000247 0
0.001807 -0.000276 0
0.001899 -0.000309 0
0.001992 -0.000346 0
0.002081 -0.000382 0
0.002156 -0.000406 0
0.002200 -0.000395 0
0.002179 -0.000297 0
0.002044 -0.000009 0
0.001728 0.000646 0
0.001179 0.001798 0
0.000467 0.002777 0
0.000000 0.001525 0
0.000000 -0.001006 0
0.000399 -0.002507 0
0.001031 -0.002742 0
0.001585 -0.001982 0
0.001946 -0.001012 0
0.002111 -0.000215 0
0.002128 0.000283 0
0.002060 0.000502 0
0.001960 0.000517 0
0.001863 0.000418 0
0.001787 0.000281 0
0.001733 0.000155 0
0.001696 0.000066 0
0.001669 0.000018 0
0.001645 0.000002 0
0.001619 0.000009 0
0.001589 0.000027 0
0.001556 0.000047 0
0.001518 0.000066 0
0.001478 0.000082 0
0.001435 0.000094 0
0.001389 0.000105 0
0.001340 0.000116 0
0.001288 0.000127 0
0.001232 0.000142 0
0.001171 0.000161 0
0.001105 0.000186 0
0.001032 0.000222 0
0.000950 0.000274 0
0.000857 0.000354 0
0.000747 0.000471 0
0.000620 0.000634 0
0.000473 0.000836 0
0.000315 0.001025 0
0.000163 0.001085 0
0.000047 0.000821 0
0.000000 0.000290 0
0.000000 0.000000 0
0.000000 0.000000 0
0.000000 0.000000 0
0.000000 -0.000004 0
0.000004 -0.000016 0
0.000012 -0.000030 0
0.000023 -0.000042 0
0.000038 -0.000052 0
0.000055 -0.000062 0
0.000076 -0.000072 0
0.000099 -0.000082 0
0.000125 -0.000093 0
0.000155 -0.000104 0
0.000188 -0.000115 0
0.000225 -0.000125 0
0.000265 -0.000135 0
0.000308 -0.000144 0
0.000354 -0.000150 0
0.000402 -0.000153 0
0.000450 -0.000153 0
0.000498 -0.000150 0
0.000544 -0.000143 0
0.000588 -0.000134 0
0.000630 -0.000124 0
0.000667 -0.000113 0
0.000702 -0.000102 0
0.000734 -0.000093 0
0.000764 -0.000086 0
0.000792 -0.000082 0
0.000821 -0.000081 0
0.000850 -0.000082 0
0.000880 -0.000085 0
0.000911 -0.000091 0
0.000945 -0.000098 0
0.000981 -0.000106 0
0.001020 -0.000115 0
0.001062 -0.000125 0
0.001106 -0.000135 0
0.001153 -0.000145 0
0.001202 -0.000156 0
0.001254 -0.000167 0
0.001309 -0.000179 0
0.001367 -0.000191 0
0.001428 -0.000205 0
0.001491 -0.000220 0
0.001558 -0.000236 0
0.001628 -0.000255 0
0.001701 -0.000277 0
0.001778 -0.000302 0
0.001857 -0.000331 0
0.001938 -0.000362 0
0.002019 -0.000396 0
0.002096 -0.000427 0
0.002160 -0.000449 0
0.002201 -0.000443 0
0.002197 -0.000376 0
0.002118 -0.000182 0
0.001920 0.000255 0
0.001556 0.001101 0
0.001005 0.002415 0
0.000368 0.003319 0
0.000000 0.001729 0
0.000000 -0.001196 0
0.000359 -0.002998 0
0.000928 -0.003308 0
0.001425 -0.002419 0
0.001748 -0.001264 0
0.001895 -0.000304 0
0.001910 0.000306 0
0.001850 0.000580 0
0.001762 0.000609 0
0.001677 0.000500 0
0.001608 0.000344 0
0.001554 0.000202 0
0.001512 0.000102 0
0.001474 0.000049 0
0.001437 0.000035 0
0.001396 0.000045 0
0.001351 0.000066 0
0.001303 0.000090 0
0.001253 0.000111 0
0.001200 0.000129 0
0.001146 0.000144 0
0.001091 0.000157 0
0.001033 0.000171 0
0.000972 0.000186 0
0.000909 0.000204 0
0.000842 0.000228 0
0.000772 0.000258 0
0.000699 0.000300 0
0.000621 0.000361 0
0.000537 0.000450 0
0.000446 0.000579 0
0.000347 0.000755 0
0.000243 0.000964 0
0.000142 0.001148 0
0.000060 0.001183 0
0.000011 0.000874 0
0.000000 0.000303 0
0.000000 0.000000 0
0.000000 0.000000 0
0.000000 0.000000 0
0.000000 -0.000006 0
0.000004 -0.000022 0
0.000012 -0.000040 0
0.000024 -0.000055 0
0.000038 -0.000069 0
0.000056 -0.000081 0
0.000076 -0.000094 0
0.000099 -0.000107 0
0.000126 -0.000121 0
0.000156 -0.000135 0
0.000189 -0.000150 0
0.000226 -0.000165 0
0.000267 -0.000178 0
0.000312 -0.000189 0
0.000359 -0.000198 0
0.000408 -0.000203 0
0.000458 -0.000203 0
0.000508 -0.000198 0
0.000556 -0.000190 0
0.000601 -0.000178 0
0.000643 -0.000164 0
0.000681 -0.000150 0
0.000717 -0.000136 0
0.000749 -0.000125 0
0.000781 -0.000117 0
0.000811 -0.000112 0
0.000842 -0.000111 0
0.000873 -0.000113 0
0.000906 -0.000118 0
0.000941 -0.000125 0
0.000979 -0.000135 0
0.001019 -0.000145 0
0.001062 -0.000157 0
0.001107 -0.000169 0
0.001155 -0.000182 0
0.001205 -0.000195 0
0.001257 -0.000209 0
0.001312 -0.000222 0
0.001369 -0.000237 0
0.001429 -0.000252 0
0.001490 -0.000268 0
0.001554 -0.000285 0
0.001620 -0.000305 0
0.001688 -0.000327 0
0.001758 -0.000351 0
0.001829 -0.000378 0
0.001901 -0.000407 0
0.001972 -0.000438 0
0.002039 -0.000466 0
0.002097 -0.000487 0
0.002138 -0.000487 0
0.002149 -0.000442 0
0.002110 -0.000312 0
0.001994 -0.000020 0
0.001764 0.000553 0
0.001388 0.001561 0
0.000863 0.002986 0
0.000298 0.003783 0
0.000000 0.001893 0
0.000000 -0.001366 0
0.000319 -0.003436 0
0.000819 -0.003808 0
0.001252 -0.002802 0
0.001527 -0.001482 0
0.001648 -0.000378 0
0.001656 0.000328 0
0.001602 0.000649 0
0.001526 0.000689 0
0.001452 0.000573 0
0.001388 0.000404 0
0.001335 0.000251 0
0.001287 0.000146 0
0.001239 0.000093 0
0.001189 0.000081 0
0.001134 0.000095 0
0.001076 0.000119 0
0.001015 0.000145 0
0.000954 0.000169 0
0.000892 0.000188 0
0.000830 0.000204 0
0.000767 0.000218 0
0.000702 0.000234 0
0.000637 0.000251 0
0.000570 0.000271 0
0.000503 0.000297 0
0.000434 0.000329 0
0.000366 0.000373 0
0.000298 0.000436 0
0.000231 0.000528 0
0.000164 0.000660 0
0.000100 0.000837 0
0.000042 0.001040 0
-0.000002 0.001208 0
-0.000021 0.001216 0
-0.000016 0.000881 0
0.000000 0.000300 0
0.000000 0.000000 0
0.000000 0.000000 0
0.000000 0.000000 0
0.000000 -0.000008 0
0.000004 -0.000028 0
0.000011 -0.000050 0
0.000023 -0.000068 0
0.000037 -0.000084 0
0.000053 -0.000100 0
0.000072 -0.000115 0
0.000094 -0.000132 0
0.000119 -0.000149 0
0.000148 -0.000167 0
0.000180 -0.000185 0
0.000216 -0.000204 0
0.000255 -0.000221 0
0.000299 -0.000235 0
0.000345 -0.000246 0
0.000394 -0.000252 0
0.000443 -0.000253 0
0.000491 -0.000247 0
0.000538 -0.000236 0
0.000582 -0.000221 0
0.000622 -0.000204 0
0.000659 -0.000186 0
0.000693 -0.000170 0
0.000725 -0.000157 0
0.000756 -0.000148 0
0.000787 -0.000143 0
0.000819 -0.000142 0
0.000853 -0.000146 0
0.000888 -0.000153 0
0.000926 -0.000163 0
0.000967 -0.000175 0
0.001010 -0.000188 0
0.001055 -0.000203 0
0.001103 -0.000217 0
0.001153 -0.000232 0
0.001205 -0.000248 0
0.001259 -0.000263 0
0.001315 -0.000279 0
0.001372 -0.000295 0
0.001430 -0.000312 0
0.001490 -0.000330 0
0.001552 -0.000349 0
0.001614 -0.000370 0
0.001677 -0.000393 0
0.001740 -0.000418 0
0.001803 -0.000445 0
0.001866 -0.000473 0
0.001925 -0.000500 0
0.001978 -0.000521 0
0.002020 -0.000526 0
0.002042 -0.000501 0
0.002033 -0.000415 0
0.001973 -0.000220 0
0.001839 0.000164 0
0.001601 0.000861 0
0.001234 0.002002 0
0.000747 0.003505 0
0.000247 0.004183 0
0.000000 0.002027 0
0.000000 -0.001516 0
0.000280 -0.003818 0
0.000713 -0.004241 0
0.001079 -0.003127 0
0.001305 -0.001660 0
0.001398 -0.000433 0
0.001397 0.000351 0
0.001347 0.000710 0
0.001281 0.000759 0
0.001216 0.000637 0
0.001157 0.000461 0
0.001104 0.000303 0
0.001050 0.000197 0
0.000993 0.000147 0
0.000932 0.000140 0
0.000866 0.000157 0
0.000798 0.000184 0
0.000728 0.000211 0
0.000660 0.000235 0
0.000591 0.000253 0
0.000524 0.000269 0
0.000457 0.000285 0
0.000390 0.000300 0
0.000323 0.000318 0
0.000258 0.000339 0
0.000193 0.000363 0
0.000131 0.000394 0
0.000073 0.000436 0
0.000019 0.000496 0
-0.000028 0.000584 0
-0.000068 0.000710 0
-0.000099 0.000878 0
-0.000114 0.001066 0
-0.000109 0.001212 0
-0.000079 0.001197 0
-0.000033 0.000853 0
0.000000 0.000287 0
0.000000 0.000000 0
0.000000 0.000000 0
0.000000 0.000000 0
0.000000 -0.000009 0
0.000003 -0.000033 0
0.000010 -0.000059 0
0.000020 -0.000080 0
0.000033 -0.000099 0
0.000047 -0.000117 0
0.000064 -0.000135 0
0.000084 -0.000154 0
0.000106 -0.000174 0
0.000131 -0.000196 0
0.000160 -0.000218 0
0.000193 -0.000240 0
0.000229 -0.000261 0
0.000269 -0.000279 0
0.000312 -0.000293 0
0.000357 -0.000300 0
0.000402 -0.000300 0
0.000447 -0.000294 0
0.000490 -0.000280 0
0.000529 -0.000262 0
0.000566 -0.000241 0
0.000599 -0.000221 0
0.000631 -0.000202 0
0.000661 -0.000188 0
0.000692 -0.000178 0
0.000723 -0.000174 0
0.000756 -0.000176 0
0.000791 -0.000181 0
0.000829 -0.000191 0
0.000869 -0.000204 0
0.000912 -0.000218 0
0.000958 -0.000234 0
0.001005 -0.000250 0
0.001055 -0.000267 0
0.001106 -0.000284 0
0.001159 -0.000301 0
0.001212 -0.000318 0
0.001267 -0.000335 0
0.001323 -0.000352 0
0.001379 -0.000370 0
0.001435 -0.000389 0
0.001492 -0.000409 0
0.001548 -0.000430 0
0.001604 -0.000453 0
0.001659 -0.000477 0
0.001713 -0.000503 0
0.001765 -0.000528 0
0.001812 -0.000550 0
0.001853 -0.000561 0
0.001883 -0.000551 0
0.001894 -0.000500 0
0.001874 -0.000374 0
0.001807 -0.000118 0
0.001670 0.000353 0
0.001439 0.001158 0
0.001095 0.002414 0
0.000649 0.003973 0
0.000207 0.004530 0
0.000000 0.002140 0
0.000000 -0.001647 0
0.000244 -0.004149 0
0.000613 -0.004608 0
0.000918 -0.003395 0
0.001098 -0.001801 0
0.001164 -0.000470 0
0.001153 0.000379 0
0.001106 0.000765 0
0.001046 0.000820 0
0.000989 0.000696 0
0.000934 0.000515 0
0.000880 0.000358 0
0.000821 0.000256 0
0.000757 0.000211 0
0.000688 0.000208 0
0.000615 0.000228 0
0.000541 0.000256 0
0.000467 0.000283 0
0.000394 0.000305 0
0.000324 0.000323 0
0.000255 0.000338 0
0.000188 0.000352 0
0.000122 0.000367 0
0.000059 0.000383 0
-0.000003 0.000402 0
-0.000060 0.000423 0
-0.000113 0.000449 0
-0.000159 0.000485 0
-0.000196 0.000537 0
-0.000224 0.000616 0
-0.000241 0.000731 0
-0.000241 0.000882 0
-0.000222 0.001049 0
-0.000178 0.001172 0
-0.000113 0.001140 0
-0.000042 0.000802 0
0.000000 0.000268 0
0.000000 0.000000 0
0.000000 0.000000 0
0.000000 0.000000 0
0.000000 -0.000011 0
0.000003 -0.000038 0
0.000009 -0.000067 0
0.000017 -0.000090 0
0.000027 -0.000111 0
0.000039 -0.000131 0
0.000053 -0.000152 0
0.000069 -0.000173 0
0.000087 -0.000196 0
0.000108 -0.000221 0
0.000132 -0.000247 0
0.000159 -0.000272 0
0.000189 -0.000297 0
0.000223 -0.000318 0
0.000259 -0.000334 0
0.000297 -0.000342 0
0.000335 -0.000343 0
0.000373 -0.000334 0
0.000408 -0.000319 0
0.000441 -0.000297 0
0.000472 -0.000274 0
0.000501 -0.000251 0
0.000529 -0.000232 0
0.000558 -0.000217 0
0.000588 -0.000209 0
0.000620 -0.000207 0
0.000655 -0.000211 0
0.000692 -0.000219 0
0.000733 -0.000231 0
0.000776 -0.000246 0
0.000822 -0.000263 0
0.000869 -0.000281 0
0.000918 -0.000300 0
0.000969 -0.000318 0
0.001020 -0.000336 0
0.001072 -0.000354 0
0.001125 -0.000372 0
0.001177 -0.000389 0