# vtk DataFile Version 2.0
generated by CFD-lab course output (written by Tobias Neckel) 
ASCII

DATASET STRUCTURED_GRID
DIMENSIONS  99 49 1 
POINTS 4851 float

0.000000 0.000000 0
0.020000 0.000000 0
0.040000 0.000000 0
0.060000 0.000000 0
0.080000 0.000000 0
0.100000 0.000000 0
0.120000 0.000000 0
0.140000 0.000000 0
0.160000 0.000000 0
0.180000 0.000000 0
0.200000 0.000000 0
0.220000 0.000000 0
0.240000 0.000000 0
0.260000 0.000000 0
0.280000 0.000000 0
0.300000 0.000000 0
0.320000 0.000000 0
0.340000 0.000000 0
0.360000 0.000000 0
0.380000 0.000000 0
0.400000 0.000000 0
0.420000 0.000000 0
0.440000 0.000000 0
0.460000 0.000000 0
0.480000 0.000000 0
0.500000 0.000000 0
0.520000 0.000000 0
0.540000 0.000000 0
0.560000 0.000000 0
0.580000 0.000000 0
0.600000 0.000000 0
0.620000 0.000000 0
0.640000 0.000000 0
0.660000 0.000000 0
0.680000 0.000000 0
0.700000 0.000000 0
0.720000 0.000000 0
0.740000 0.000000 0
0.760000 0.000000 0
0.780000 0.000000 0
0.800000 0.000000 0
0.820000 0.000000 0
0.840000 0.000000 0
0.860000 0.000000 0
0.880000 0.000000 0
0.900000 0.000000 0
0.920000 0.000000 0
0.940000 0.000000 0
0.960000 0.000000 0
0.980000 0.000000 0
1.000000 0.000000 0
1.020000 0.000000 0
1.040000 0.000000 0
1.060000 0.000000 0
1.080000 0.000000 0
1.100000 0.000000 0
1.120000 0.000000 0
1.140000 0.000000 0
1.160000 0.000000 0
1.180000 0.000000 0
1.200000 0.000000 0
1.220000 0.000000 0
1.240000 0.000000 0
1.260000 0.000000 0
1.280000 0.000000 0
1.300000 0.000000 0
1.320000 0.000000 0
1.340000 0.000000 0
1.360000 0.000000 0
1.380000 0.000000 0
1.400000 0.000000 0
1.420000 0.000000 0
1.440000 0.000000 0
1.460000 0.000000 0
1.480000 0.000000 0
1.500000 0.000000 0
1.520000 0.000000 0
1.540000 0.000000 0
1.560000 0.000000 0
1.580000 0.000000 0
1.600000 0.000000 0
1.620000 0.000000 0
1.640000 0.000000 0
1.660000 0.000000 0
1.680000 0.000000 0
1.700000 0.000000 0
1.720000 0.000000 0
1.740000 0.000000 0
1.760000 0.000000 0
1.780000 0.000000 0
1.800000 0.000000 0
1.820000 0.000000 0
1.840000 0.000000 0
1.860000 0.000000 0
1.880000 0.000000 0
1.900000 0.000000 0
1.920000 0.000000 0
1.940000 0.000000 0
1.960000 0.000000 0
0.000000 0.020000 0
0.020000 0.020000 0
0.040000 0.020000 0
0.060000 0.020000 0
0.080000 0.020000 0
0.100000 0.020000 0
0.120000 0.020000 0
0.140000 0.020000 0
0.160000 0.020000 0
0.180000 0.020000 0
0.200000 0.020000 0
0.220000 0.020000 0
0.240000 0.020000 0
0.260000 0.020000 0
0.280000 0.020000 0
0.300000 0.020000 0
0.320000 0.020000 0
0.340000 0.020000 0
0.360000 0.020000 0
0.380000 0.020000 0
0.400000 0.020000 0
0.420000 0.020000 0
0.440000 0.020000 0
0.460000 0.020000 0
0.480000 0.020000 0
0.500000 0.020000 0
0.520000 0.020000 0
0.540000 0.020000 0
0.560000 0.020000 0
0.580000 0.020000 0
0.600000 0.020000 0
0.620000 0.020000 0
0.640000 0.020000 0
0.660000 0.020000 0
0.680000 0.020000 0
0.700000 0.020000 0
0.720000 0.020000 0
0.740000 0.020000 0
0.760000 0.020000 0
0.780000 0.020000 0
0.800000 0.020000 0
0.820000 0.020000 0
0.840000 0.020000 0
0.860000 0.020000 0
0.880000 0.020000 0
0.900000 0.020000 0
0.920000 0.020000 0
0.940000 0.020000 0
0.960000 0.020000 0
0.980000 0.020000 0
1.000000 0.020000 0
1.020000 0.020000 0
1.040000 0.020000 0
1.060000 0.020000 0
1.080000 0.020000 0
1.100000 0.020000 0
1.120000 0.020000 0
1.140000 0.020000 0
1.160000 0.020000 0
1.180000 0.020000 0
1.200000 0.020000 0
1.220000 0.020000 0
1.240000 0.020000 0
1.260000 0.020000 0
1.280000 0.020000 0
1.300000 0.020000 0
1.320000 0.020000 0
1.340000 0.020000 0
1.360000 0.020000 0
1.380000 0.020000 0
1.400000 0.020000 0
1.420000 0.020000 0
1.440000 0.020000 0
1.460000 0.020000 0
1.480000 0.020000 0
1.500000 0.020000 0
1.520000 0.020000 0
1.540000 0.020000 0
1.560000 0.020000 0
1.580000 0.020000 0
1.600000 0.020000 0
1.620000 0.020000 0
1.640000 0.020000 0
1.660000 0.020000 0
1.680000 0.020000 0
1.700000 0.020000 0
1.720000 0.020000 0
1.740000 0.020000 0
1.760000 0.020000 0
1.780000 0.020000 0
1.800000 0.020000 0
1.820000 0.020000 0
1.840000 0.020000 0
1.860000 0.020000 0
1.880000 0.020000 0
1.900000 0.020000 0
1.920000 0.020000 0
1.940000 0.020000 0
1.960000 0.020000 0
0.000000 0.040000 0
0.020000 0.040000 0
0.040000 0.040000 0
0.060000 0.040000 0
0.080000 0.040000 0
0.100000 0.040000 0
0.120000 0.040000 0
0.140000 0.040000 0
0.160000 0.040000 0
0.180000 0.040000 0
0.200000 0.040000 0
0.220000 0.040000 0
0.240000 0.040000 0
0.260000 0.040000 0
0.280000 0.040000 0
0.300000 0.040000 0
0.320000 0.040000 0
0.340000 0.040000 0
0.360000 0.040000 0
0.380000 0.040000 0
0.400000 0.040000 0
0.420000 0.040000 0
0.440000 0.040000 0
0.460000 0.040000 0
0.480000 0.040000 0
0.500000 0.040000 0
0.520000 0.040000 0
0.540000 0.040000 0
0.560000 0.040000 0
0.580000 0.040000 0
0.600000 0.040000 0
0.620000 0.040000 0
0.640000 0.040000 0
0.660000 0.040000 0
0.680000 0.040000 0
0.700000 0.040000 0
0.720000 0.040000 0
0.740000 0.040000 0
0.760000 0.040000 0
0.780000 0.040000 0
0.800000 0.040000 0
0.820000 0.040000 0
0.840000 0.040000 0
0.860000 0.040000 0
0.880000 0.040000 0
0.900000 0.040000 0
0.920000 0.040000 0
0.940000 0.040000 0
0.960000 0.040000 0
0.980000 0.040000 0
1.000000 0.040000 0
1.020000 0.040000 0
1.040000 0.040000 0
1.060000 0.040000 0
1.080000 0.040000 0
1.100000 0.040000 0
1.120000 0.040000 0
1.140000 0.040000 0
1.160000 0.040000 0
1.180000 0.040000 0
1.200000 0.040000 0
1.220000 0.040000 0
1.240000 0.040000 0
1.260000 0.040000 0
1.280000 0.040000 0
1.300000 0.040000 0
1.320000 0.040000 0
1.340000 0.040000 0
1.360000 0.040000 0
1.380000 0.040000 0
1.400000 0.040000 0
1.420000 0.040000 0
1.440000 0.040000 0
1.460000 0.040000 0
1.480000 0.040000 0
1.500000 0.040000 0
1.520000 0.040000 0
1.540000 0.040000 0
1.560000 0.040000 0
1.580000 0.040000 0
1.600000 0.040000 0
1.620000 0.040000 0
1.640000 0.040000 0
1.660000 0.040000 0
1.680000 0.040000 0
1.700000 0.040000 0
1.720000 0.040000 0
1.740000 0.040000 0
1.760000 0.040000 0
1.780000 0.040000 0
1.800000 0.040000 0
1.820000 0.040000 0
1.840000 0.040000 0
1.860000 0.040000 0
1.880000 0.040000 0
1.900000 0.040000 0
1.920000 0.040000 0
1.940000 0.040000 0
1.960000 0.040000 0
0.000000 0.060000 0
0.020000 0.060000 0
0.040000 0.060000 0
0.060000 0.060000 0
0.080000 0.060000 0
0.100000 0.060000 0
0.120000 0.060000 0
0.140000 0.060000 0
0.160000 0.060000 0
0.180000 0.060000 0
0.200000 0.060000 0
0.220000 0.060000 0
0.240000 0.060000 0
0.260000 0.060000 0
0.280000 0.060000 0
0.300000 0.060000 0
0.320000 0.060000 0
0.340000 0.060000 0
0.360000 0.060000 0
0.380000 0.060000 0
0.400000 0.060000 0
0.420000 0.060000 0
0.440000 0.060000 0
0.460000 0.060000 0
0.480000 0.060000 0
0.500000 0.060000 0
0.520000 0.060000 0
0.540000 0.060000 0
0.560000 0.060000 0
0.580000 0.060000 0
0.600000 0.060000 0
0.620000 0.060000 0
0.640000 0.060000 0
0.660000 0.060000 0
0.680000 0.060000 0
0.700000 0.060000 0
0.720000 0.060000 0
0.740000 0.060000 0
0.760000 0.060000 0
0.780000 0.060000 0
0.800000 0.060000 0
0.820000 0.060000 0
0.840000 0.060000 0
0.860000 0.060000 0
0.880000 0.060000 0
0.900000 0.060000 0
0.920000 0.060000 0
0.940000 0.060000 0
0.960000 0.060000 0
0.980000 0.060000 0
1.000000 0.060000 0
1.020000 0.060000 0
1.040000 0.060000 0
1.060000 0.060000 0
1.080000 0.060000 0
1.100000 0.060000 0
1.120000 0.060000 0
1.140000 0.060000 0
1.160000 0.060000 0
1.180000 0.060000 0
1.200000 0.060000 0
1.220000 0.060000 0
1.240000 0.060000 0
1.260000 0.060000 0
1.280000 0.060000 0
1.300000 0.060000 0
1.320000 0.060000 0
1.340000 0.060000 0
1.360000 0.060000 0
1.380000 0.060000 0
1.400000 0.060000 0
1.420000 0.060000 0
1.440000 0.060000 0
1.460000 0.060000 0
1.480000 0.060000 0
1.500000 0.060000 0
1.520000 0.060000 0
1.540000 0.060000 0
1.560000 0.060000 0
1.580000 0.060000 0
1.600000 0.060000 0
1.620000 0.060000 0
1.640000 0.060000 0
1.660000 0.060000 0
1.680000 0.060000 0
1.700000 0.060000 0
1.720000 0.060000 0
1.740000 0.060000 0
1.760000 0.060000 0
1.780000 0.060000 0
1.800000 0.060000 0
1.820000 0.060000 0
1.840000 0.060000 0
1.860000 0.060000 0
1.880000 0.060000 0
1.900000 0.060000 0
1.920000 0.060000 0
1.940000 0.060000 0
1.960000 0.060000 0
0.000000 0.080000 0
0.020000 0.080000 0
0.040000 0.080000 0
0.060000 0.080000 0
0.080000 0.080000 0
0.100000 0.080000 0
0.120000 0.080000 0
0.140000 0.080000 0
0.160000 0.080000 0
0.180000 0.080000 0
0.200000 0.080000 0
0.220000 0.080000 0
0.240000 0.080000 0
0.260000 0.080000 0
0.280000 0.080000 0
0.300000 0.080000 0
0.320000 0.080000 0
0.340000 0.080000 0
0.360000 0.080000 0
0.380000 0.080000 0
0.400000 0.080000 0
0.420000 0.080000 0
0.440000 0.080000 0
0.460000 0.080000 0
0.480000 0.080000 0
0.500000 0.080000 0
0.520000 0.080000 0
0.540000 0.080000 0
0.560000 0.080000 0
0.580000 0.080000 0
0.600000 0.080000 0
0.620000 0.080000 0
0.640000 0.080000 0
0.660000 0.080000 0
0.680000 0.080000 0
0.700000 0.080000 0
0.720000 0.080000 0
0.740000 0.080000 0
0.760000 0.080000 0
0.780000 0.080000 0
0.800000 0.080000 0
0.820000 0.080000 0
0.840000 0.080000 0
0.860000 0.080000 0
0.880000 0.080000 0
0.900000 0.080000 0
0.920000 0.080000 0
0.940000 0.080000 0
0.960000 0.080000 0
0.980000 0.080000 0
1.000000 0.080000 0
1.020000 0.080000 0
1.040000 0.080000 0
1.060000 0.080000 0
1.080000 0.080000 0
1.100000 0.080000 0
1.120000 0.080000 0
1.140000 0.080000 0
1.160000 0.080000 0
1.180000 0.080000 0
1.200000 0.080000 0
1.220000 0.080000 0
1.240000 0.080000 0
1.260000 0.080000 0
1.280000 0.080000 0
1.300000 0.080000 0
1.320000 0.080000 0
1.340000 0.080000 0
1.360000 0.080000 0
1.380000 0.080000 0
1.400000 0.080000 0
1.420000 0.080000 0
1.440000 0.080000 0
1.460000 0.080000 0
1.480000 0.080000 0
1.500000 0.080000 0
1.520000 0.080000 0
1.540000 0.080000 0
1.560000 0.080000 0
1.580000 0.080000 0
1.600000 0.080000 0
1.620000 0.080000 0
1.640000 0.080000 0
1.660000 0.080000 0
1.680000 0.080000 0
1.700000 0.080000 0
1.720000 0.080000 0
1.740000 0.080000 0
1.760000 0.080000 0
1.780000 0.080000 0
1.800000 0.080000 0
1.820000 0.080000 0
1.840000 0.080000 0
1.860000 0.080000 0
1.880000 0.080000 0
[...]
POINT_DATA 4851 

VECTORS velocity float
0.000000 0.000000 0
0.000076 0.000000 0
0.000184 0.000000 0
0.000266 0.000000 0
0.000307 0.000000 0
0.000315 0.000000 0
0.000304 0.000000 0
0.000284 0.000000 0
0.000264 0.000000 0
0.000247 0.000000 0
0.000236 0.000000 0
0.000229 0.000000 0
0.000226 0.000000 0
0.000225 0.000000 0
0.000226 0.000000 0
0.000226 0.000000 0
0.000227 0.000000 0
0.000227 0.000000 0
0.000227 0.000000 0
0.000226 0.000000 0
0.000224 0.000000 0
0.000223 0.000000 0
0.000221 0.000000 0
0.000220 0.000000 0
0.000218 0.000000 0
0.000216 0.000000 0
0.000214 0.000000 0
0.000211 0.000000 0
0.000208 0.000000 0
0.000203 0.000000 0
0.000195 0.000000 0
0.000182 0.000000 0
0.000159 0.000000 0
0.000123 0.000000 0
0.000075 0.000000 0
0.000026 0.000000 0
0.000000 0.000000 0
0.000000 0.000000 0
0.000000 0.000000 0
0.000000 0.000000 0
0.000000 0.000000 0
-0.000026 0.000000 0
-0.000049 0.000000 0
-0.000043 0.000000 0
0.000001 0.000000 0
0.000076 0.000000 0
0.000169 0.000000 0
0.000266 0.000000 0
0.000354 0.000000 0
0.000426 0.000000 0
0.000480 0.000000 0
0.000515 0.000000 0
0.000533 0.000000 0
0.000537 0.000000 0
0.000532 0.000000 0
0.000520 0.000000 0
0.000504 0.000000 0
0.000486 0.000000 0
0.000469 0.000000 0
0.000452 0.000000 0
0.000438 0.000000 0
0.000426 0.000000 0
0.000417 0.000000 0
0.000411 0.000000 0
0.000407 0.000000 0
0.000406 0.000000 0
0.000407 0.000000 0
0.000409 0.000000 0
0.000410 0.000000 0
0.000412 0.000000 0
0.000411 0.000000 0
0.000408 0.000000 0
0.000402 0.000000 0
0.000393 0.000000 0
0.000382 0.000000 0
0.000368 0.000000 0
0.000353 0.000000 0
0.000339 0.000000 0
0.000324 0.000000 0
0.000312 0.000000 0
0.000300 0.000000 0
0.000291 0.000000 0
0.000284 0.000000 0
0.000279 0.000000 0
0.000276 0.000000 0
0.000275 0.000000 0
0.000275 0.000000 0
0.000277 0.000000 0
0.000282 0.000000 0
0.000289 0.000000 0
0.000302 0.000000 0
0.000321 0.000000 0
0.000351 0.000000 0
0.000397 0.000000 0
0.000463 0.000000 0
0.000543 0.000000 0
0.000591 0.000000 0
0.000451 0.000000 0
0.000000 0.000000 0
0.000000 -0.000076 0
0.000209 -0.000185 0
0.000517 -0.000191 0
0.000765 -0.000124 0
0.000906 -0.000050 0
0.000953 0.000003 0
0.000938 0.000031 0
0.000893 0.000039 0
0.000839 0.000036 0
0.000793 0.000027 0
0.000759 0.000017 0
0.000738 0.000009 0
0.000727 0.000003 0
0.000724 -0.000001 0
0.000724 -0.000002 0
0.000725 -0.000002 0
0.000726 -0.000001 0
0.000726 -0.000000 0
0.000723 0.000001 0
0.000720 0.000001 0
0.000715 0.000002 0
0.000709 0.000002 0
0.000703 0.000003 0
0.000695 0.000003 0
0.000687 0.000003 0
0.000678 0.000003 0
0.000667 0.000004 0
0.000655 0.000005 0
0.000639 0.000007 0
0.000616 0.000012 0
0.000582 0.000021 0
0.000531 0.000036 0
0.000454 0.000058 0
0.000344 0.000083 0
0.000208 0.000097 0
0.000074 0.000075 0
0.000000 0.000026 0
0.000000 0.000000 0
0.000000 0.000000 0
0.000000 0.000000 0
0.000000 0.000025 0
-0.000052 0.000049 0
-0.000082 0.000017 0
-0.000023 -0.000050 0
0.000140 -0.000120 0
0.000385 -0.000169 0
0.000676 -0.000189 0
0.000974 -0.000184 0
0.001246 -0.000160 0
0.001474 -0.000126 0
0.001648 -0.000088 0
0.001765 -0.000053 0
0.001832 -0.000023 0
0.001857 0.000001 0
0.001849 0.000017 0
0.001818 0.000028 0
0.001772 0.000034 0
0.001719 0.000035 0
0.001664 0.000034 0
0.001611 0.000031 0
0.001563 0.000026 0
0.001523 0.000021 0
0.001491 0.000015 0
0.001467 0.000010 0
0.001452 0.000005 0
0.001444 0.000001 0
0.001442 -0.000002 0
0.001443 -0.000004 0
0.001445 -0.000003 0
0.001445 -0.000001 0
0.001440 0.000003 0
0.001429 0.000009 0
0.001408 0.000015 0
0.001379 0.000020 0
0.001341 0.000025 0
0.001297 0.000028 0
0.001250 0.000030 0
0.001201 0.000029 0
0.001155 0.000027 0
0.001113 0.000024 0
0.001076 0.000020 0
0.001045 0.000016 0
0.001021 0.000012 0
0.001003 0.000008 0
0.000991 0.000005 0
0.000984 0.000001 0
0.000983 -0.000002 0
0.000988 -0.000007 0
0.001000 -0.000012 0
0.001021 -0.000020 0
0.001055 -0.000032 0
0.001104 -0.000049 0
0.001174 -0.000076 0
0.001268 -0.000111 0
0.001378 -0.000146 0
0.001463 -0.000128 0
0.001392 0.000093 0
0.000904 0.000591 0
0.000000 0.000451 0
0.000000 -0.000210 0
0.000283 -0.000519 0
0.000713 -0.000556 0
0.001079 -0.000390 0
0.001308 -0.000189 0
0.001407 -0.000033 0
0.001412 0.000060 0
0.001365 0.000098 0
0.001300 0.000099 0
0.001238 0.000080 0
0.001190 0.000054 0
0.001158 0.000030 0
0.001141 0.000013 0
0.001134 0.000002 0
0.001132 -0.000002 0
0.001131 -0.000003 0
0.001130 -0.000001 0
0.001127 0.000002 0
0.001122 0.000005 0
0.001114 0.000007 0
0.001104 0.000010 0
0.001092 0.000011 0
0.001079 0.000013 0
0.001064 0.000015 0
0.001046 0.000016 0
0.001027 0.000019 0
0.001004 0.000022 0
0.000976 0.000028 0
0.000940 0.000038 0
0.000894 0.000055 0
0.000829 0.000084 0
0.000738 0.000128 0
0.000614 0.000186 0
0.000454 0.000244 0
0.000269 0.000270 0
0.000095 0.000208 0
0.000000 0.000073 0
0.000000 0.000000 0
0.000000 0.000000 0
0.000000 0.000000 0
0.000000 0.000052 0
-0.000033 0.000081 0
0.000002 -0.000030 0
0.000169 -0.000222 0
0.000474 -0.000408 0
0.000879 -0.000536 0
0.001334 -0.000588 0
0.001788 -0.000570 0
0.002202 -0.000501 0
0.002550 -0.000401 0
0.002821 -0.000291 0
0.003010 -0.000185 0
0.003125 -0.000092 0
0.003176 -0.000017 0
0.003176 0.000039 0
0.003138 0.000077 0
0.003074 0.000099 0
0.002995 0.000109 0
0.002910 0.000108 0
0.002826 0.000101 0
0.002749 0.000088 0
0.002681 0.000073 0
0.002626 0.000056 0
0.002583 0.000039 0
0.002552 0.000023 0
0.002532 0.000010 0
0.002520 0.000001 0
0.002513 -0.000003 0
0.002509 -0.000002 0
0.002501 0.000005 0
0.002488 0.000017 0
0.002465 0.000032 0
0.002429 0.000050 0
0.002381 0.000067 0
0.002322 0.000082 0
0.002253 0.000091 0
0.002179 0.000096 0
0.002104 0.000095 0
0.002030 0.000089 0
0.001963 0.000079 0
0.001903 0.000068 0
0.001852 0.000055 0
0.001811 0.000043 0
0.001779 0.000031 0
0.001756 0.000019 0
0.001741 0.000008 0
0.001735 -0.000004 0
0.001738 -0.000017 0
0.001750 -0.000034 0
0.001773 -0.000055 0
0.001809 -0.000083 0
0.001858 -0.000119 0
0.001917 -0.000164 0
0.001975 -0.000204 0
0.001997 -0.000195 0
0.001903 -0.000014 0
0.001548 0.000559 0
0.000802 0.001392 0
0.000000 0.000904 0
0.000000 -0.000360 0
0.000297 -0.000899 0
0.000760 -0.000987 0
0.001166 -0.000719 0
0.001433 -0.000379 0
0.001560 -0.000102 0
0.001584 0.000072 0
0.001547 0.000152 0
0.001485 0.000164 0
0.001422 0.000137 0
0.001372 0.000096 0
0.001338 0.000057 0
0.001317 0.000027 0
0.001306 0.000009 0
0.001301 0.000000 0
0.001296 -0.000001 0
0.001291 0.000003 0
0.001283 0.000008 0
0.001273 0.000013 0
0.001260 0.000019 0
0.001244 0.000023 0
0.001226 0.000027 0
0.001205 0.000031 0
0.001182 0.000035 0
0.001156 0.000040 0
0.001126 0.000046 0
0.001091 0.000054 0
0.001050 0.000068 0
0.000999 0.000089 0
0.000934 0.000123 0
0.000850 0.000176 0
0.000740 0.000250 0
0.000599 0.000342 0
0.000431 0.000427 0
0.000248 0.000455 0
0.000085 0.000344 0
0.000000 0.000121 0
0.000000 0.000000 0
0.000000 0.000000 0
0.000000 0.000000 0
0.000000 0.000058 0
0.000015 0.000047 0
0.000154 -0.000185 0
0.000450 -0.000522 0
0.000882 -0.000829 0
0.001399 -0.001029 0
0.001945 -0.001098 0
0.002471 -0.001052 0
0.002941 -0.000923 0
0.003333 -0.000744 0
0.003637 -0.000548 0
0.003852 -0.000358 0
0.003985 -0.000188 0
0.004047 -0.000050 0
0.004051 0.000056 0
0.004011 0.000131 0
0.003940 0.000177 0
0.003850 0.000199 0
0.003752 0.000203 0
0.003653 0.000192 0
0.003561 0.000171 0
0.003478 0.000144 0
0.003407 0.000114 0
0.003350 0.000084 0
0.003305 0.000056 0
0.003272 0.000033 0
0.003248 0.000016 0
0.003230 0.000008 0
0.003214 0.000009 0
0.003196 0.000020 0
0.003172 0.000040 0
0.003138 0.000067 0
0.003094 0.000098 0
0.003036 0.000128 0
0.002967 0.000153 0
0.002889 0.000171 0
0.002805 0.000180 0
0.002719 0.000178 0
0.002636 0.000168 0
0.002557 0.000151 0
0.002487 0.000131 0
0.002426 0.000108 0
0.002375 0.000086 0
0.002333 0.000064 0
0.002302 0.000043 0
0.002279 0.000022 0
0.002264 0.000001 0
0.002258 -0.000022 0
0.002260 -0.000048 0
0.002270 -0.000079 0
0.002286 -0.000116 0
0.002303 -0.000157 0
0.002311 -0.000192 0
0.002285 -0.000191 0
0.002179 -0.000074 0
0.001913 0.000321 0
0.001390 0.001194 0
0.000612 0.002139 0
0.000000 0.001253 0
0.000000 -0.000508 0
0.000286 -0.001280 0
0.000739 -0.001425 0
0.001141 -0.001062 0
0.001410 -0.000584 0
0.001543 -0.000185 0
0.001574 0.000073 0
0.001544 0.000197 0
0.001489 0.000223 0
0.001431 0.000192 0
0.001383 0.000138 0
0.001349 0.000085 0
0.001327 0.000044 0
0.001312 0.000019 0
0.001301 0.000008 0
0.001290 0.000007 0
0.001278 0.000012 0
0.001264 0.000020 0
0.001247 0.000028 0
0.001228 0.000036 0
0.001205 0.000043 0
0.001180 0.000050 0
0.001153 0.000057 0
0.001122 0.000064 0
0.001088 0.000072 0
0.001049 0.000083 0
0.001006 0.000098 0
0.000955 0.000120 0
0.000895 0.000153 0
0.000822 0.000204 0
0.000733 0.000278 0
0.000622 0.000378 0
0.000490 0.000494 0
0.000340 0.000595 0
0.000188 0.000615 0
0.000061 0.000455 0
0.000000 0.000158 0
0.000000 0.000000 0
0.000000 0.000000 0
0.000000 0.000000 0
0.000000 0.000037 0
0.000073 -0.000073 0
0.000328 -0.000464 0
0.000751 -0.000949 0
0.001292 -0.001357 0
0.001887 -0.001600 0
0.002480 -0.001660 0
0.003027 -0.001566 0
0.003500 -0.001362 0
0.003884 -0.001097 0
0.004175 -0.000810 0
0.004376 -0.000532 0
0.004497 -0.000286 0
0.004548 -0.000082 0
0.004543 0.000075 0
0.004496 0.000188 0
0.004418 0.000260 0
0.004323 0.000296 0
0.004219 0.000305 0
0.004115 0.000292 0
0.004016 0.000264 0
0.003927 0.000226 0
0.003848 0.000184 0
0.003782 0.000141 0
0.003728 0.000101 0
0.003684 0.000067 0
0.003647 0.000043 0
0.003617 0.000031 0
0.003588 0.000032 0
0.003557 0.000047 0
0.003523 0.000074 0
0.003481 0.000111 0
0.003430 0.000152 0
0.003371 0.000193 0
0.003302 0.000229 0
0.003225 0.000254 0
0.003145 0.000266 0
0.003062 0.000264 0
0.002982 0.000251 0
0.002906 0.000228 0
0.002836 0.000199 0
0.002774 0.000167 0
0.002720 0.000135 0
0.002674 0.000104 0
0.002636 0.000074 0
0.002605 0.000045 0
0.002581 0.000017 0
0.002563 -0.000013 0
0.002549 -0.000045 0
0.002538 -0.000080 0
0.002524 -0.000116 0
0.002500 -0.000144 0
0.002449 -0.000145 0
0.002343 -0.000072 0
0.002137 0.000177 0
0.001768 0.000775 0
0.001188 0.001861 0
0.000466 0.002782 0
0.000000 0.001515 0
0.000000 -0.000647 0
0.000265 -0.001639 0
0.000686 -0.001841 0
0.001060 -0.001390 0
0.001309 -0.000782 0
0.001433 -0.000267 0
0.001462 0.000071 0
0.001435 0.000237 0
0.001384 0.000277 0
0.001331 0.000242 0
0.001287 0.000178 0
0.001253 0.000113 0
0.001228 0.000064 0
0.001209 0.000034 0
0.001191 0.000021 0
0.001173 0.000021 0
0.001153 0.000028 0
0.001131 0.000039 0
0.001106 0.000050 0
0.001079 0.000060 0
0.001050 0.000070 0
0.001018 0.000080 0
0.000984 0.000089 0
0.000947 0.000100 0
0.000907 0.000112 0
0.000863 0.000127 0
0.000815 0.000148 0
0.000760 0.000178 0
0.000699 0.000222 0
0.000627 0.000285 0
0.000544 0.000376 0
0.000448 0.000493 0
0.000339 0.000623 0
0.000225 0.000728 0
0.000117 0.000734 0
0.000035 0.000532 0
0.000000 0.000182 0
0.000000 0.000000 0
0.000000 0.000000 0
0.000000 0.000000 0
0.000000 -0.000015 0
0.000131 -0.000280 0
0.000494 -0.000862 0
0.001027 -0.001486 0
0.001653 -0.001965 0
0.002298 -0.002217 0
0.002907 -0.002238 0
0.003443 -0.002072 0
0.003887 -0.001780 0
0.004232 -0.001419 0
0.004480 -0.001040 0
0.004640 -0.000679 0
0.004724 -0.000360 0
0.004745 -0.000096 0
0.004717 0.000109 0
0.004652 0.000255 0
0.004563 0.000349 0
0.004460 0.000398 0
0.004352 0.000411 0
0.004245 0.000395 0
0.004145 0.000360 0
0.004053 0.000312 0
0.003972 0.000258 0
0.003902 0.000204 0
0.003840 0.000155 0
0.003788 0.000113 0
0.003741 0.000083 0
0.003698 0.000068 0
0.003657 0.000068 0
0.003616 0.000085 0
0.003572 0.000117 0
0.003525 0.000160 0
0.003473 0.000208 0
0.003416 0.000257 0
0.003355 0.000299 0
0.003290 0.000328 0
0.003222 0.000343 0
0.003154 0.000341 0
0.003087 0.000325 0
0.003023 0.000298 0
0.002963 0.000263 0
0.002907 0.000224 0
0.002857 0.000185 0
0.002811 0.000148 0
0.002770 0.000111 0
0.002734 0.000077 0
0.002701 0.000044 0
0.002670 0.000011 0
0.002640 -0.000023 0
0.002607 -0.000054 0
0.002565 -0.000079 0
0.002504 -0.000082 0
0.002407 -0.000036 0
0.002246 0.000122 0
0.001983 0.000501 0
0.001575 0.001270 0
0.001003 0.002496 0
0.000362 0.003327 0
0.000000 0.001718 0
0.000000 -0.000774 0
0.000240 -0.001967 0
0.000619 -0.002220 0
0.000952 -0.001686 0
0.001171 -0.000958 0
0.001276 -0.000338 0
0.001296 0.000071 0
0.001268 0.000275 0
0.001221 0.000326 0
0.001172 0.000289 0
0.001130 0.000216 0
0.001096 0.000143 0
0.001068 0.000088 0
0.001042 0.000056 0
0.001017 0.000043 0
0.000990 0.000045 0
0.000961 0.000054 0
0.000931 0.000066 0
0.000899 0.000079 0
0.000865 0.000092 0
0.000829 0.000104 0
0.000792 0.000115 0
0.000753 0.000127 0
0.000711 0.000141 0
0.000668 0.000156 0
0.000621 0.000175 0
0.000572 0.000200 0
0.000520 0.000236 0
0.000463 0.000286 0
0.000401 0.000358 0
0.000333 0.000457 0
0.000260 0.000582 0
0.000183 0.000717 0
0.000111 0.000817 0
0.000050 0.000805 0
0.000012 0.000572 0
0.000000 0.000193 0
0.000000 0.000000 0
0.000000 0.000000 0
0.000000 0.000000 0
0.000000 -0.000094 0
0.000181 -0.000566 0
0.000631 -0.001360 0
0.001248 -0.002108 0
0.001930 -0.002627 0
0.002599 -0.002853 0
0.003202 -0.002805 0
0.003707 -0.002546 0
0.004103 -0.002151 0
0.004390 -0.001689 0
0.004578 -0.001217 0
0.004680 -0.000776 0
0.004712 -0.000391 0
0.004689 -0.000075 0
0.004625 0.000169 0
0.004532 0.000342 0
0.004424 0.000452 0
0.004309 0.000508 0
0.004194 0.000520 0
0.004085 0.000499 0
0.003983 0.000456 0
0.003892 0.000399 0
0.003809 0.000336 0
0.003736 0.000272 0
0.003670 0.000215 0
0.003610 0.000167 0
0.003555 0.000133 0
0.003503 0.000115 0
0.003453 0.000115 0
0.003405 0.000132 0
0.003356 0.000165 0
0.003308 0.000210 0
0.003260 0.000261 0
0.003213 0.000312 0
0.003165 0.000356 0
0.003118 0.000387 0
0.003071 0.000402 0
0.003024 0.000399 0
0.002978 0.000382 0
0.002933 0.000352 0
0.002889 0.000315 0
0.002845 0.000274 0
0.002803 0.000231 0
0.002761 0.000190 0
0.002721 0.000152 0
0.002681 0.000115 0
0.002642 0.000080 0
0.002602 0.000048 0
0.002559 0.000018 0
0.002509 -0.000005 0
0.002447 -0.000013 0
0.002362 0.000014 0
0.002238 0.000113 0
0.002053 0.000352 0
0.001775 0.000848 0
0.001372 0.001756 0
0.000841 0.003074 0
0.000285 0.003785 0
0.000000 0.001877 0
0.000000 -0.000888 0
0.000213 -0.002259 0
0.000547 -0.002554 0
0.000834 -0.001942 0
0.001016 -0.001106 0
0.001098 -0.000393 0
0.001108 0.000078 0
0.001078 0.000312 0
0.001033 0.000372 0
0.000987 0.000333 0
0.000947 0.000254 0
0.000912 0.000175 0
0.000879 0.000118 0
0.000847 0.000085 0
0.000813 0.000074 0
0.000778 0.000077 0
0.000741 0.000087 0
0.000703 0.000101 0
0.000664 0.000116 0
0.000624 0.000130 0
0.000584 0.000143 0
0.000542 0.000156 0
0.000500 0.000169 0
0.000457 0.000184 0
0.000412 0.000202 0
0.000367 0.000223 0
0.000321 0.000250 0
0.000275 0.000287 0
0.000227 0.000340 0
0.000180 0.000415 0
0.000132 0.000517 0
0.000085 0.000642 0
0.000044 0.000772 0
0.000012 0.000861 0
-0.000005 0.000832 0
-0.000006 0.000582 0
0.000000 0.000194 0
0.000000 0.000000 0
0.000000 0.000000 0
0.000000 0.000000 0
0.000000 -0.000195 0
0.000218 -0.000911 0
0.000729 -0.001929 0
0.001397 -0.002785 0
0.002109 -0.003316 0
0.002779 -0.003488 0
0.003356 -0.003345 0
0.003815 -0.002973 0
0.004150 -0.002463 0
0.004368 -0.001894 0
0.004486 -0.001330 0
0.004522 -0.000813 0
0.004493 -0.000368 0
0.004417 -0.000008 0
0.004308 0.000265 0
0.004181 0.000456 0
0.004047 0.000573 0
0.003915 0.000628 0
0.003789 0.000635 0
0.003673 0.000606 0
0.003569 0.000553 0
0.003475 0.000486 0
0.003391 0.000414 0
0.003315 0.000344 0
0.003246 0.000280 0
0.003181 0.000228 0
0.003121 0.000190 0
0.003064 0.000170 0
0.003010 0.000167 0
0.002960 0.000182 0
0.002914 0.000213 0
0.002872 0.000256 0
0.002836 0.000304 0
0.002804 0.000352 0
0.002776 0.000394 0
0.002752 0.000423 0
0.002731 0.000436 0
0.002710 0.000434 0
0.002689 0.000416 0
0.002665 0.000388 0
0.002640 0.000351 0
0.002611 0.000311 0
0.002580 0.000270 0
0.002546 0.000229 0
0.002509 0.000192 0
0.002470 0.000156 0
0.002428 0.000123 0
0.002383 0.000094 0
0.002333 0.000070 0
0.002275 0.000058 0
0.002204 0.000069 0
0.002112 0.000126 0
0.001985 0.000273 0
0.001803 0.000585 0
0.001541 0.001182 0
0.001171 0.002204 0
0.000698 0.003584 0
0.000223 0.004167 0
0.000000 0.002003 0
0.000000 -0.000988 0
0.000188 -0.002514 0
0.000475 -0.002840 0
0.000715 -0.002155 0
0.000861 -0.001223 0
0.000919 -0.000430 0
0.000917 0.000091 0
0.000885 0.000350 0
0.000841 0.000416 0
0.000798 0.000374 0
0.000758 0.000292 0
0.000721 0.000211 0
0.000684 0.000153 0
0.000645 0.000121 0
0.000605 0.000112 0
0.000562 0.000116 0
0.000519 0.000128 0
0.000475 0.000143 0
0.000431 0.000158 0
0.000387 0.000172 0
0.000344 0.000185 0
0.000301 0.000199 0
0.000258 0.000213 0
0.000215 0.000228 0
0.000173 0.000245 0
0.000131 0.000266 0
0.000092 0.000293 0
0.000054 0.000329 0
0.000019 0.000381 0
-0.000013 0.000453 0
-0.000039 0.000551 0
-0.000059 0.000670 0
-0.000068 0.000790 0
-0.000064 0.000865 0
-0.000045 0.000823 0
-0.000018 0.000568 0
0.000000 0.000187 0
0.000000 0.000000 0
0.000000 0.000000 0
0.000000 0.000000 0
0.000000 -0.000311 0
0.000240 -0.001294 0
0.000785 -0.002540 0
0.001477 -0.003488 0
0.002192 -0.004009 0
0.002843 -0.004100 0
0.003377 -0.003841 0
0.003776 -0.003340 0
0.004040 -0.002705 0
0.004184 -0.002026 0
0.004226 -0.001371 0
0.004190 -0.000782 0
0.004095 -0.000286 0
0.003960 0.000110 0
0.003801 0.000405 0
0.003633 0.000603 0
0.003468 0.000719 0
0.003312 0.000766 0
0.003170 0.000761 0
0.003043 0.000719 0
0.002932 0.000654 0
0.002834 0.000577 0
0.002746 0.000496 0
0.002668 0.000418 0
0.002597 0.000349 0
0.002532 0.000292 0
0.002472 0.000251 0
0.002417 0.000226 0
0.002369 0.000219 0
0.002327 0.000228 0
0.002292 0.000253 0
0.002266 0.000289 0
0.002248 0.000330 0
0.002239 0.000371 0
0.002237 0.000407 0
0.002240 0.000432 0
0.002245 0.000444 0
0.002251 0.000442 0
0.002255 0.000427 0
0.002254 0.000401 0
0.002248 0.000369 0
0.002236 0.000334 0
0.002218 0.000297 0
0.002193 0.000261 0
0.002164 0.000228 0
0.002129 0.000196 0
0.002089 0.000168 0
0.002045 0.000143 0
0.001995 0.000126 0
0.001939 0.000124 0
0.001873 0.000151 0
0.001790 0.000234 0
0.001681 0.000422 0
0.001525 0.000796 0
0.001299 0.001480 0
0.000978 0.002599 0
0.000570 0.004022 0
0.000172 0.004483 0
0.000000 0.002101 0
0.000000 -0.001076 0
0.000164 -0.002735 0
0.000407 -0.003081 0
0.000603 -0.002328 0
0.000714 -0.001310 0
0.000750 -0.000450 0
0.000738 0.000112 0
0.000703 0.000388 0
0.000661 0.000459 0
0.000619 0.000415 0
0.000580 0.000330 0
0.000540 0.000250 0
0.000499 0.000193 0
0.000455 0.000164 0
0.000409 0.000156 0
0.000362 0.000162 0
0.000314 0.000175 0
0.000266 0.000189 0
0.000220 0.000203 0
0.000175 0.000216 0
0.000131 0.000229 0
0.000088 0.000242 0
0.000047 0.000255 0
0.000007 0.000269 0
-0.000031 0.000285 0
-0.000066 0.000303 0
-0.000098 0.000327 0
-0.000125 0.000360 0
-0.000148 0.000406 0
-0.000163 0.000473 0
-0.000170 0.000563 0
-0.000166 0.000670 0
-0.000149 0.000776 0
-0.000116 0.000837 0
-0.000071 0.000787 0
-0.000026 0.000537 0
0.000000 0.000175 0
0.000000 0.000000 0
0.000000 0.000000 0
0.000000 0.000000 0
0.000000 -0.000435 0
0.000250 -0.001695 0
0.000805 -0.003166 0
0.001498 -0.004193 0
0.002195 -0.004682 0
0.002805 -0.004672 0
0.003282 -0.004279 0
0.003610 -0.003636 0
0.003795 -0.002870 0
0.003858 -0.002080 0
0.003821 -0.001336 0
0.003710 -0.000681 0
0.003545 -0.000138 0
0.003346 0.000286 0
0.003131 0.000592 0
0.002916 0.000789 0
0.002712 0.000894 0
0.002526 0.000926 0
0.002361 0.000904 0
0.002218 0.000844 0
0.002096 0.000763 0
0.001991 0.000672 0
0.001902 0.000580 0
0.001826 0.000493 0
0.001759 0.000417 0
0.001702 0.000353 0
0.001653 0.000305 0
0.001612 0.000273 0
0.001580 0.000258 0
0.001558 0.000259 0
0.001546 0.000274 0
0.001544 0.000300 0
0.001552 0.000331 0
0.001570 0.000364 0
0.001596 0.000393 0
0.001626 0.000414 0
0.001658 0.000425 0
0.001689 0.000424 0
0.001716 0.000413 0
0.001737 0.000394 0
0.001750 0.000369 0
0.001754 0.000341 0
0.001750 0.000312 0
0.001738 0.000284 0
0.001718 0.000256 0
0.001692 0.000231 0
0.001659 0.000207 0
0.001622 0.000188 0
0.001581 0.000177 0
0.001537 0.000181 0
0.001487 0.000218 0
0.001430 0.000319 0
0.001353 0.000539 0
0.001238 0.000967 0