# vtk DataFile Version 2.0
generated by CFD-lab course output (written by Tobias Neckel) 
ASCII

DATASET STRUCTURED_GRID
DIMENSIONS  99 49 1 
POINTS 4851 float

0.000000 0.000000 0
0.020000 0.000000 0
0.040000 0.000000 0
0.060000 0.000000 0
0.080000 0.000000 0
0.100000 0.000000 0
0.120000 0.000000 0
0.140000 0.000000 0
0.160000 0.000000 0
0.180000 0.000000 0
0.200000 0.000000 0
0.220000 0.000000 0
0.240000 0.000000 0
0.260000 0.000000 0
0.280000 0.000000 0
0.300000 0.000000 0
0.320000 0.000000 0
0.340000 0.000000 0
0.360000 0.000000 0
0.380000 0.000000 0
0.400000 0.000000 0
0.420000 0.000000 0
0.440000 0.000000 0
0.460000 0.000000 0
0.480000 0.000000 0
0.500000 0.000000 0
0.520000 0.000000 0
0.540000 0.000000 0
0.560000 0.000000 0
0.580000 0.000000 0
0.600000 0.000000 0
0.620000 0.000000 0
0.640000 0.000000 0
0.660000 0.000000 0
0.680000 0.000000 0
0.700000 0.000000 0
0.720000 0.000000 0
0.740000 0.000000 0
0.760000 0.000000 0
0.780000 0.000000 0
0.800000 0.000000 0
0.820000 0.000000 0
0.840000 0.000000 0
0.860000 0.000000 0
0.880000 0.000000 0
0.900000 0.000000 0
0.920000 0.000000 0
0.940000 0.000000 0
0.960000 0.000000 0
0.980000 0.000000 0
1.000000 0.000000 0
1.020000 0.000000 0
1.040000 0.000000 0
1.060000 0.000000 0
1.080000 0.000000 0
1.100000 0.000000 0
1.120000 0.000000 0
1.140000 0.000000 0
1.160000 0.000000 0
1.180000 0.000000 0
1.200000 0.000000 0
1.220000 0.000000 0
1.240000 0.000000 0
1.260000 0.000000 0
1.280000 0.000000 0
1.300000 0.000000 0
1.320000 0.000000 0
1.340000 0.000000 0
1.360000 0.000000 0
1.380000 0.000000 0
1.400000 0.000000 0
1.420000 0.000000 0
1.440000 0.000000 0
1.460000 0.000000 0
1.480000 0.000000 0
1.500000 0.000000 0
1.520000 0.000000 0
1.540000 0.000000 0
1.560000 0.000000 0
1.580000 0.000000 0
1.600000 0.000000 0
1.620000 0.000000 0
1.640000 0.000000 0
1.660000 0.000000 0
1.680000 0.000000 0
1.700000 0.000000 0
1.720000 0.000000 0
1.740000 0.000000 0
1.760000 0.000000 0
1.780000 0.000000 0
1.800000 0.000000 0
1.820000 0.000000 0
1.840000 0.000000 0
1.860000 0.000000 0
1.880000 0.000000 0
1.900000 0.000000 0
1.920000 0.000000 0
1.940000 0.000000 0
1.960000 0.000000 0
0.000000 0.020000 0
0.020000 0.020000 0
0.040000 0.020000 0
0.060000 0.020000 0
0.080000 0.020000 0
0.100000 0.020000 0
0.120000 0.020000 0
0.140000 0.020000 0
0.160000 0.020000 0
0.180000 0.020000 0
0.200000 0.020000 0
0.220000 0.020000 0
0.240000 0.020000 0
0.260000 0.020000 0
0.280000 0.020000 0
0.300000 0.020000 0
0.320000 0.020000 0
0.340000 0.020000 0
0.360000 0.020000 0
0.380000 0.020000 0
0.400000 0.020000 0
0.420000 0.020000 0
0.440000 0.020000 0
0.460000 0.020000 0
0.480000 0.020000 0
0.500000 0.020000 0
0.520000 0.020000 0
0.540000 0.020000 0
0.560000 0.020000 0
0.580000 0.020000 0
0.600000 0.020000 0
0.620000 0.020000 0
0.640000 0.020000 0
0.660000 0.020000 0
0.680000 0.020000 0
0.700000 0.020000 0
0.720000 0.020000 0
0.740000 0.020000 0
0.760000 0.020000 0
0.780000 0.020000 0
0.800000 0.020000 0
0.820000 0.020000 0
0.840000 0.020000 0
0.860000 0.020000 0
0.880000 0.020000 0
0.900000 0.020000 0
0.920000 0.020000 0
0.940000 0.020000 0
0.960000 0.020000 0
0.980000 0.020000 0
1.000000 0.020000 0
1.020000 0.020000 0
1.040000 0.020000 0
1.060000 0.020000 0
1.080000 0.020000 0
1.100000 0.020000 0
1.120000 0.020000 0
1.140000 0.020000 0
1.160000 0.020000 0
1.180000 0.020000 0
1.200000 0.020000 0
1.220000 0.020000 0
1.240000 0.020000 0
1.260000 0.020000 0
1.280000 0.020000 0
1.300000 0.020000 0
1.320000 0.020000 0
1.340000 0.020000 0
1.360000 0.020000 0
1.380000 0.020000 0
1.400000 0.020000 0
1.420000 0.020000 0
1.440000 0.020000 0
1.460000 0.020000 0
1.480000 0.020000 0
1.500000 0.020000 0
1.520000 0.020000 0
1.540000 0.020000 0
1.560000 0.020000 0
1.580000 0.020000 0
1.600000 0.020000 0
1.620000 0.020000 0
1.640000 0.020000 0
1.660000 0.020000 0
1.680000 0.020000 0
1.700000 0.020000 0
1.720000 0.020000 0
1.740000 0.020000 0
1.760000 0.020000 0
1.780000 0.020000 0
1.800000 0.020000 0
1.820000 0.020000 0
1.840000 0.020000 0
1.860000 0.020000 0
1.880000 0.020000 0
1.900000 0.020000 0
1.920000 0.020000 0
1.940000 0.020000 0
1.960000 0.020000 0
0.000000 0.040000 0
0.020000 0.040000 0
0.040000 0.040000 0
0.060000 0.040000 0
0.080000 0.040000 0
0.100000 0.040000 0
0.120000 0.040000 0
0.140000 0.040000 0
0.160000 0.040000 0
0.180000 0.040000 0
0.200000 0.040000 0
0.220000 0.040000 0
0.240000 0.040000 0
0.260000 0.040000 0
0.280000 0.040000 0
0.300000 0.040000 0
0.320000 0.040000 0
0.340000 0.040000 0
0.360000 0.040000 0
0.380000 0.040000 0
0.400000 0.040000 0
0.420000 0.040000 0
0.440000 0.040000 0
0.460000 0.040000 0
0.480000 0.040000 0
0.500000 0.040000 0
0.520000 0.040000 0
0.540000 0.040000 0
0.560000 0.040000 0
0.580000 0.040000 0
0.600000 0.040000 0
0.620000 0.040000 0
0.640000 0.040000 0
0.660000 0.040000 0
0.680000 0.040000 0
0.700000 0.040000 0
0.720000 0.040000 0
0.740000 0.040000 0
0.760000 0.040000 0
0.780000 0.040000 0
0.800000 0.040000 0
0.820000 0.040000 0
0.840000 0.040000 0
0.860000 0.040000 0
0.880000 0.040000 0
0.900000 0.040000 0
0.920000 0.040000 0
0.940000 0.040000 0
0.960000 0.040000 0
0.980000 0.040000 0
1.000000 0.040000 0
1.020000 0.040000 0
1.040000 0.040000 0
1.060000 0.040000 0
1.080000 0.040000 0
1.100000 0.040000 0
1.120000 0.040000 0
1.140000 0.040000 0
1.160000 0.040000 0
1.180000 0.040000 0
1.200000 0.040000 0
1.220000 0.040000 0
1.240000 0.040000 0
1.260000 0.040000 0
1.280000 0.040000 0
1.300000 0.040000 0
1.320000 0.040000 0
1.340000 0.040000 0
1.360000 0.040000 0
1.380000 0.040000 0
1.400000 0.040000 0
1.420000 0.040000 0
1.440000 0.040000 0
1.460000 0.040000 0
1.480000 0.040000 0
1.500000 0.040000 0
1.520000 0.040000 0
1.540000 0.040000 0
1.560000 0.040000 0
1.580000 0.040000 0
1.600000 0.040000 0
1.620000 0.040000 0
1.640000 0.040000 0
1.660000 0.040000 0
1.680000 0.040000 0
1.700000 0.040000 0
1.720000 0.040000 0
1.740000 0.040000 0
1.760000 0.040000 0
1.780000 0.040000 0
1.800000 0.040000 0
1.820000 0.040000 0
1.840000 0.040000 0
1.860000 0.040000 0
1.880000 0.040000 0
1.900000 0.040000 0
1.920000 0.040000 0
1.940000 0.040000 0
1.960000 0.040000 0
0.000000 0.060000 0
0.020000 0.060000 0
0.040000 0.060000 0
0.060000 0.060000 0
0.080000 0.060000 0
0.100000 0.060000 0
0.120000 0.060000 0
0.140000 0.060000 0
0.160000 0.060000 0
0.180000 0.060000 0
0.200000 0.060000 0
0.220000 0.060000 0
0.240000 0.060000 0
0.260000 0.060000 0
0.280000 0.060000 0
0.300000 0.060000 0
0.320000 0.060000 0
0.340000 0.060000 0
0.360000 0.060000 0
0.380000 0.060000 0
0.400000 0.060000 0
0.420000 0.060000 0
0.440000 0.060000 0
0.460000 0.060000 0
0.480000 0.060000 0
0.500000 0.060000 0
0.520000 0.060000 0
0.540000 0.060000 0
0.560000 0.060000 0
0.580000 0.060000 0
0.600000 0.060000 0
0.620000 0.060000 0
0.640000 0.060000 0
0.660000 0.060000 0
0.680000 0.060000 0
0.700000 0.060000 0
0.720000 0.060000 0
0.740000 0.060000 0
0.760000 0.060000 0
0.780000 0.060000 0
0.800000 0.060000 0
0.820000 0.060000 0
0.840000 0.060000 0
0.860000 0.060000 0
0.880000 0.060000 0
0.900000 0.060000 0
0.920000 0.060000 0
0.940000 0.060000 0
0.960000 0.060000 0
0.980000 0.060000 0
1.000000 0.060000 0
1.020000 0.060000 0
1.040000 0.060000 0
1.060000 0.060000 0
1.080000 0.060000 0
1.100000 0.060000 0
1.120000 0.060000 0
1.140000 0.060000 0
1.160000 0.060000 0
1.180000 0.060000 0
1.200000 0.060000 0
1.220000 0.060000 0
1.240000 0.060000 0
1.260000 0.060000 0
1.280000 0.060000 0
1.300000 0.060000 0
1.320000 0.060000 0
1.340000 0.060000 0
1.360000 0.060000 0
1.380000 0.060000 0
1.400000 0.060000 0
1.420000 0.060000 0
1.440000 0.060000 0
1.460000 0.060000 0
1.480000 0.060000 0
1.500000 0.060000 0
1.520000 0.060000 0
1.540000 0.060000 0
1.560000 0.060000 0
1.580000 0.060000 0
1.600000 0.060000 0
1.620000 0.060000 0
1.640000 0.060000 0
1.660000 0.060000 0
1.680000 0.060000 0
1.700000 0.060000 0
1.720000 0.060000 0
1.740000 0.060000 0
1.760000 0.060000 0
1.780000 0.060000 0
1.800000 0.060000 0
1.820000 0.060000 0
1.840000 0.060000 0
1.860000 0.060000 0
1.880000 0.060000 0
1.900000 0.060000 0
1.920000 0.060000 0
1.940000 0.060000 0
1.960000 0.060000 0
0.000000 0.080000 0
0.020000 0.080000 0
0.040000 0.080000 0
0.060000 0.080000 0
0.080000 0.080000 0
0.100000 0.080000 0
0.120000 0.080000 0
0.140000 0.080000 0
0.160000 0.080000 0
0.180000 0.080000 0
0.200000 0.080000 0
0.220000 0.080000 0
0.240000 0.080000 0
0.260000 0.080000 0
0.280000 0.080000 0
0.300000 0.080000 0
0.320000 0.080000 0
0.340000 0.080000 0
0.360000 0.080000 0
0.380000 0.080000 0
0.400000 0.080000 0
0.420000 0.080000 0
0.440000 0.080000 0
0.460000 0.080000 0
0.480000 0.080000 0
0.500000 0.080000 0
0.520000 0.080000 0
0.540000 0.080000 0
0.560000 0.080000 0
0.580000 0.080000 0
0.600000 0.080000 0
0.620000 0.080000 0
0.640000 0.080000 0
0.660000 0.080000 0
0.680000 0.080000 0
0.700000 0.080000 0
0.720000 0.080000 0
0.740000 0.080000 0
0.760000 0.080000 0
0.780000 0.080000 0
0.800000 0.080000 0
0.820000 0.080000 0
0.840000 0.080000 0
0.860000 0.080000 0
0.880000 0.080000 0
0.900000 0.080000 0
0.920000 0.080000 0
0.940000 0.080000 0
0.960000 0.080000 0
0.980000 0.080000 0
1.000000 0.080000 0
1.020000 0.080000 0
1.040000 0.080000 0
1.060000 0.080000 0
1.080000 0.080000 0
1.100000 0.080000 0
1.120000 0.080000 0
1.140000 0.080000 0
1.160000 0.080000 0
1.180000 0.080000 0
1.200000 0.080000 0
1.220000 0.080000 0
1.240000 0.080000 0
1.260000 0.080000 0
1.280000 0.080000 0
1.300000 0.080000 0
1.320000 0.080000 0
1.340000 0.080000 0
1.360000 0.080000 0
1.380000 0.080000 0
1.400000 0.080000 0
1.420000 0.080000 0
1.440000 0.080000 0
1.460000 0.080000 0
1.480000 0.080000 0
1.500000 0.080000 0
1.520000 0.080000 0
1.540000 0.080000 0
1.560000 0.080000 0
1.580000 0.080000 0
1.600000 0.080000 0
1.620000 0.080000 0
1.640000 0.080000 0
1.660000 0.080000 0
1.680000 0.080000 0
1.700000 0.080000 0
1.720000 0.080000 0
1.740000 0.080000 0
1.760000 0.080000 0
1.780000 0.080000 0
1.800000 0.080000 0
1.820000 0.080000 0
1.840000 0.080000 0
1.860000 0.080000 0
1.880000 0.080000 0
[...]
POINT_DATA 4851 

VECTORS velocity float
0.000000 0.000000 0
0.000106 0.000000 0
0.000250 0.000000 0
0.000353 0.000000 0
0.000399 0.000000 0
0.000401 0.000000 0
0.000379 0.000000 0
0.000348 0.000000 0
0.000319 0.000000 0
0.000296 0.000000 0
0.000282 0.000000 0
0.000275 0.000000 0
0.000273 0.000000 0
0.000274 0.000000 0
0.000276 0.000000 0
0.000278 0.000000 0
0.000280 0.000000 0
0.000280 0.000000 0
0.000280 0.000000 0
0.000279 0.000000 0
0.000278 0.000000 0
0.000276 0.000000 0
0.000275 0.000000 0
0.000273 0.000000 0
0.000271 0.000000 0
0.000269 0.000000 0
0.000267 0.000000 0
0.000264 0.000000 0
0.000261 0.000000 0
0.000257 0.000000 0
0.000249 0.000000 0
0.000236 0.000000 0
0.000211 0.000000 0
0.000169 0.000000 0
0.000107 0.000000 0
0.000039 0.000000 0
0.000000 0.000000 0
0.000000 0.000000 0
0.000000 0.000000 0
0.000000 0.000000 0
0.000000 0.000000 0
-0.000000 0.000000 0
0.000002 0.000000 0
0.000008 0.000000 0
0.000016 0.000000 0
0.000026 0.000000 0
0.000037 0.000000 0
0.000049 0.000000 0
0.000060 0.000000 0
0.000071 0.000000 0
0.000081 0.000000 0
0.000090 0.000000 0
0.000098 0.000000 0
0.000104 0.000000 0
0.000109 0.000000 0
0.000112 0.000000 0
0.000115 0.000000 0
0.000116 0.000000 0
0.000116 0.000000 0
0.000116 0.000000 0
0.000116 0.000000 0
0.000115 0.000000 0
0.000114 0.000000 0
0.000113 0.000000 0
0.000112 0.000000 0
0.000111 0.000000 0
0.000111 0.000000 0
0.000111 0.000000 0
0.000111 0.000000 0
0.000111 0.000000 0
0.000112 0.000000 0
0.000113 0.000000 0
0.000115 0.000000 0
0.000117 0.000000 0
0.000119 0.000000 0
0.000121 0.000000 0
0.000124 0.000000 0
0.000127 0.000000 0
0.000130 0.000000 0
0.000134 0.000000 0
0.000139 0.000000 0
0.000144 0.000000 0
0.000149 0.000000 0
0.000156 0.000000 0
0.000163 0.000000 0
0.000171 0.000000 0
0.000181 0.000000 0
0.000193 0.000000 0
0.000208 0.000000 0
0.000226 0.000000 0
0.000249 0.000000 0
0.000279 0.000000 0
0.000321 0.000000 0
0.000378 0.000000 0
0.000454 0.000000 0
0.000542 0.000000 0
0.000594 0.000000 0
0.000454 0.000000 0
0.000000 0.000000 0
0.000000 -0.000106 0
0.000288 -0.000251 0
0.000696 -0.000248 0
0.001009 -0.000149 0
0.001173 -0.000049 0
0.001211 0.000020 0
0.001171 0.000052 0
0.001096 0.000059 0
0.001018 0.000051 0
0.000954 0.000036 0
0.000911 0.000020 0
0.000887 0.000008 0
0.000879 0.000000 0
0.000879 -0.000004 0
0.000884 -0.000005 0
0.000888 -0.000004 0
0.000891 -0.000002 0
0.000892 -0.000001 0
0.000890 0.000000 0
0.000887 0.000001 0
0.000881 0.000002 0
0.000875 0.000002 0
0.000868 0.000003 0
0.000860 0.000003 0
0.000851 0.000003 0
0.000841 0.000004 0
0.000830 0.000004 0
0.000817 0.000005 0
0.000800 0.000007 0
0.000776 0.000011 0
0.000741 0.000020 0
0.000685 0.000038 0
0.000597 0.000066 0
0.000464 0.000103 0
0.000290 0.000129 0
0.000106 0.000107 0
0.000000 0.000039 0
0.000000 0.000000 0
0.000000 0.000000 0
0.000000 0.000000 0
0.000000 0.000000 0
0.000003 -0.000002 0
0.000014 -0.000008 0
0.000035 -0.000014 0
0.000064 -0.000018 0
0.000098 -0.000021 0
0.000136 -0.000022 0
0.000176 -0.000023 0
0.000215 -0.000022 0
0.000252 -0.000021 0
0.000287 -0.000019 0
0.000318 -0.000016 0
0.000345 -0.000013 0
0.000367 -0.000011 0
0.000385 -0.000008 0
0.000398 -0.000005 0
0.000407 -0.000003 0
0.000412 -0.000001 0
0.000415 0.000000 0
0.000415 0.000001 0
0.000413 0.000002 0
0.000411 0.000002 0
0.000408 0.000002 0
0.000405 0.000002 0
0.000402 0.000002 0
0.000401 0.000001 0
0.000399 0.000001 0
0.000399 0.000000 0
0.000400 -0.000000 0
0.000402 -0.000001 0
0.000405 -0.000002 0
0.000409 -0.000002 0
0.000415 -0.000003 0
0.000421 -0.000003 0
0.000429 -0.000004 0
0.000438 -0.000005 0
0.000448 -0.000005 0
0.000459 -0.000006 0
0.000472 -0.000007 0
0.000486 -0.000008 0
0.000502 -0.000009 0
0.000519 -0.000010 0
0.000539 -0.000012 0
0.000562 -0.000013 0
0.000587 -0.000015 0
0.000617 -0.000018 0
0.000651 -0.000021 0
0.000690 -0.000026 0
0.000738 -0.000032 0
0.000795 -0.000041 0
0.000866 -0.000053 0
0.000953 -0.000072 0
0.001062 -0.000098 0
0.001193 -0.000132 0
0.001337 -0.000164 0
0.001448 -0.000140 0
0.001393 0.000088 0
0.000909 0.000594 0
0.000000 0.000455 0
0.000000 -0.000289 0
0.000384 -0.000697 0
0.000949 -0.000722 0
0.001414 -0.000478 0
0.001689 -0.000203 0
0.001788 0.000001 0
0.001767 0.000114 0
0.001683 0.000152 0
0.001583 0.000142 0
0.001495 0.000107 0
0.001432 0.000066 0
0.001394 0.000031 0
0.001378 0.000007 0
0.001374 -0.000006 0
0.001377 -0.000010 0
0.001381 -0.000009 0
0.001383 -0.000005 0
0.001381 0.000000 0
0.001375 0.000005 0
0.001366 0.000008 0
0.001355 0.000011 0
0.001342 0.000013 0
0.001326 0.000014 0
0.001309 0.000016 0
0.001289 0.000018 0
0.001267 0.000020 0
0.001241 0.000024 0
0.001210 0.000030 0
0.001171 0.000040 0
0.001119 0.000058 0
0.001047 0.000090 0
0.000944 0.000143 0
0.000798 0.000219 0
0.000601 0.000306 0
0.000364 0.000357 0
0.000132 0.000289 0
0.000000 0.000106 0
0.000000 0.000000 0
0.000000 0.000000 0
0.000000 0.000000 0
0.000000 -0.000002 0
0.000009 -0.000014 0
0.000033 -0.000032 0
0.000072 -0.000049 0
0.000122 -0.000063 0
0.000182 -0.000072 0
0.000246 -0.000077 0
0.000314 -0.000078 0
0.000381 -0.000076 0
0.000446 -0.000072 0
0.000506 -0.000066 0
0.000560 -0.000058 0
0.000607 -0.000049 0
0.000646 -0.000039 0
0.000677 -0.000030 0
0.000701 -0.000021 0
0.000717 -0.000014 0
0.000727 -0.000007 0
0.000733 -0.000002 0
0.000734 0.000002 0
0.000732 0.000004 0
0.000729 0.000006 0
0.000725 0.000006 0
0.000720 0.000006 0
0.000716 0.000005 0
0.000713 0.000004 0
0.000712 0.000002 0
0.000712 -0.000000 0
0.000714 -0.000002 0
0.000718 -0.000005 0
0.000724 -0.000007 0
0.000732 -0.000009 0
0.000742 -0.000011 0
0.000754 -0.000014 0
0.000768 -0.000016 0
0.000784 -0.000018 0
0.000802 -0.000021 0
0.000823 -0.000023 0
0.000845 -0.000026 0
0.000870 -0.000030 0
0.000898 -0.000033 0
0.000930 -0.000037 0
0.000964 -0.000042 0
0.001003 -0.000048 0
0.001046 -0.000054 0
0.001096 -0.000063 0
0.001152 -0.000073 0
0.001216 -0.000087 0
0.001290 -0.000104 0
0.001377 -0.000128 0
0.001477 -0.000158 0
0.001590 -0.000196 0
0.001714 -0.000239 0
0.001834 -0.000274 0
0.001911 -0.000255 0
0.001862 -0.000056 0
0.001536 0.000539 0
0.000802 0.001394 0
0.000000 0.000910 0
0.000000 -0.000490 0
0.000398 -0.001201 0
0.001005 -0.001279 0
0.001522 -0.000889 0
0.001848 -0.000423 0
0.001986 -0.000059 0
0.001989 0.000157 0
0.001916 0.000243 0
0.001819 0.000239 0
0.001728 0.000187 0
0.001660 0.000121 0
0.001617 0.000062 0
0.001595 0.000020 0
0.001586 -0.000003 0
0.001583 -0.000012 0
0.001581 -0.000010 0
0.001576 -0.000003 0
0.001568 0.000006 0
0.001556 0.000014 0
0.001540 0.000021 0
0.001521 0.000027 0
0.001499 0.000031 0
0.001474 0.000035 0
0.001447 0.000040 0
0.001416 0.000045 0
0.001381 0.000051 0
0.001340 0.000061 0
0.001293 0.000075 0
0.001234 0.000098 0
0.001160 0.000135 0
0.001063 0.000195 0
0.000935 0.000287 0
0.000767 0.000409 0
0.000559 0.000536 0
0.000327 0.000598 0
0.000113 0.000471 0
0.000000 0.000171 0
0.000000 0.000000 0
0.000000 0.000000 0
0.000000 0.000000 0
0.000000 -0.000008 0
0.000014 -0.000034 0
0.000049 -0.000071 0
0.000103 -0.000103 0
0.000170 -0.000128 0
0.000248 -0.000145 0
0.000332 -0.000154 0
0.000420 -0.000157 0
0.000506 -0.000154 0
0.000590 -0.000145 0
0.000668 -0.000133 0
0.000738 -0.000117 0
0.000799 -0.000099 0
0.000849 -0.000081 0
0.000890 -0.000062 0
0.000920 -0.000045 0
0.000942 -0.000030 0
0.000956 -0.000017 0
0.000963 -0.000006 0
0.000965 0.000002 0
0.000963 0.000007 0
0.000959 0.000010 0
0.000954 0.000011 0
0.000949 0.000011 0
0.000945 0.000009 0
0.000942 0.000006 0
0.000940 0.000002 0
0.000941 -0.000002 0
0.000945 -0.000006 0
0.000951 -0.000011 0
0.000960 -0.000015 0
0.000971 -0.000020 0
0.000985 -0.000025 0
0.001001 -0.000029 0
0.001020 -0.000034 0
0.001042 -0.000039 0
0.001066 -0.000044 0
0.001093 -0.000049 0
0.001123 -0.000055 0
0.001156 -0.000061 0
0.001193 -0.000068 0
0.001233 -0.000076 0
0.001277 -0.000085 0
0.001326 -0.000095 0
0.001380 -0.000108 0
0.001440 -0.000123 0
0.001507 -0.000142 0
0.001582 -0.000164 0
0.001665 -0.000193 0
0.001756 -0.000227 0
0.001854 -0.000267 0
0.001954 -0.000309 0
0.002043 -0.000341 0
0.002094 -0.000329 0
0.002058 -0.000192 0
0.001849 0.000235 0
0.001364 0.001148 0
0.000606 0.002131 0
0.000000 0.001256 0
0.000000 -0.000687 0
0.000380 -0.001703 0
0.000972 -0.001847 0
0.001487 -0.001322 0
0.001820 -0.000667 0
0.001971 -0.000140 0
0.001987 0.000184 0
0.001926 0.000323 0
0.001838 0.000330 0
0.001752 0.000265 0
0.001686 0.000177 0
0.001642 0.000096 0
0.001615 0.000038 0
0.001600 0.000006 0
0.001588 -0.000005 0
0.001577 -0.000003 0
0.001563 0.000008 0
0.001545 0.000020 0
0.001523 0.000032 0
0.001498 0.000043 0
0.001470 0.000051 0
0.001439 0.000059 0
0.001404 0.000066 0
0.001367 0.000074 0
0.001325 0.000083 0
0.001278 0.000096 0
0.001226 0.000112 0
0.001166 0.000136 0
0.001095 0.000172 0
0.001010 0.000229 0
0.000905 0.000315 0
0.000774 0.000439 0
0.000615 0.000595 0
0.000431 0.000746 0
0.000240 0.000803 0
0.000078 0.000615 0
0.000000 0.000219 0
0.000000 0.000000 0
0.000000 0.000000 0
0.000000 0.000000 0
0.000000 -0.000016 0
0.000018 -0.000063 0
0.000062 -0.000121 0
0.000127 -0.000170 0
0.000207 -0.000208 0
0.000299 -0.000234 0
0.000397 -0.000248 0
0.000498 -0.000252 0
0.000598 -0.000247 0
0.000694 -0.000233 0
0.000783 -0.000213 0
0.000863 -0.000188 0
0.000932 -0.000160 0
0.000989 -0.000130 0
0.001034 -0.000101 0
0.001068 -0.000073 0
0.001091 -0.000049 0
0.001105 -0.000028 0
0.001112 -0.000011 0
0.001114 0.000002 0
0.001111 0.000010 0
0.001106 0.000015 0
0.001101 0.000017 0
0.001095 0.000016 0
0.001090 0.000013 0
0.001088 0.000008 0
0.001087 0.000002 0
0.001089 -0.000005 0
0.001095 -0.000012 0
0.001103 -0.000019 0
0.001114 -0.000027 0
0.001128 -0.000034 0
0.001145 -0.000041 0
0.001165 -0.000049 0
0.001188 -0.000056 0
0.001214 -0.000064 0
0.001243 -0.000072 0
0.001275 -0.000080 0
0.001310 -0.000089 0
0.001348 -0.000099 0
0.001390 -0.000110 0
0.001435 -0.000121 0
0.001484 -0.000135 0
0.001538 -0.000150 0
0.001596 -0.000168 0
0.001659 -0.000189 0
0.001727 -0.000214 0
0.001801 -0.000244 0
0.001880 -0.000279 0
0.001961 -0.000317 0
0.002040 -0.000355 0
0.002108 -0.000384 0
0.002148 -0.000379 0
0.002128 -0.000289 0
0.001999 -0.000009 0
0.001693 0.000638 0
0.001155 0.001783 0
0.000457 0.002758 0
0.000000 0.001515 0
0.000000 -0.000871 0
0.000349 -0.002174 0
0.000900 -0.002387 0
0.001381 -0.001738 0
0.001695 -0.000908 0
0.001840 -0.000226 0
0.001859 0.000202 0
0.001806 0.000392 0
0.001726 0.000412 0
0.001649 0.000338 0
0.001587 0.000231 0
0.001542 0.000132 0
0.001511 0.000062 0
0.001487 0.000024 0
0.001465 0.000011 0
0.001441 0.000016 0
0.001415 0.000029 0
0.001386 0.000045 0
0.001353 0.000061 0
0.001318 0.000074 0
0.001280 0.000086 0
0.001239 0.000096 0
0.001196 0.000107 0
0.001149 0.000119 0
0.001099 0.000132 0
0.001044 0.000150 0
0.000984 0.000173 0
0.000918 0.000205 0
0.000843 0.000253 0
0.000759 0.000325 0
0.000660 0.000431 0
0.000545 0.000576 0
0.000414 0.000752 0
0.000274 0.000911 0
0.000142 0.000951 0
0.000041 0.000710 0
0.000000 0.000248 0
0.000000 0.000000 0
0.000000 0.000000 0
0.000000 0.000000 0
0.000000 -0.000025 0
0.000021 -0.000096 0
0.000072 -0.000180 0
0.000145 -0.000248 0
0.000234 -0.000299 0
0.000335 -0.000334 0
0.000442 -0.000353 0
0.000552 -0.000358 0
0.000660 -0.000350 0
0.000763 -0.000330 0
0.000858 -0.000301 0
0.000942 -0.000265 0
0.001014 -0.000225 0
0.001072 -0.000183 0
0.001117 -0.000141 0
0.001149 -0.000102 0
0.001171 -0.000067 0
0.001182 -0.000038 0
0.001186 -0.000014 0
0.001185 0.000003 0
0.001180 0.000015 0
0.001174 0.000021 0
0.001167 0.000023 0
0.001161 0.000021 0
0.001156 0.000016 0
0.001154 0.000009 0
0.001155 0.000001 0
0.001159 -0.000009 0
0.001166 -0.000019 0
0.001177 -0.000030 0
0.001191 -0.000040 0
0.001208 -0.000051 0
0.001228 -0.000062 0
0.001251 -0.000072 0
0.001277 -0.000083 0
0.001306 -0.000093 0
0.001338 -0.000104 0
0.001373 -0.000116 0
0.001411 -0.000128 0
0.001452 -0.000141 0
0.001496 -0.000155 0
0.001543 -0.000170 0
0.001593 -0.000187 0
0.001647 -0.000207 0
0.001704 -0.000229 0
0.001764 -0.000254 0
0.001828 -0.000284 0
0.001894 -0.000316 0
0.001961 -0.000352 0
0.002025 -0.000387 0
0.002080 -0.000414 0
0.002115 -0.000417 0
0.002110 -0.000360 0
0.002037 -0.000180 0
0.001851 0.000244 0
0.001504 0.001079 0
0.000972 0.002384 0
0.000354 0.003286 0
0.000000 0.001713 0
0.000000 -0.001037 0
0.000315 -0.002603 0
0.000811 -0.002879 0
0.001243 -0.002117 0
0.001522 -0.001126 0
0.001648 -0.000304 0
0.001663 0.000217 0
0.001615 0.000455 0
0.001544 0.000487 0
0.001474 0.000404 0
0.001416 0.000283 0
0.001371 0.000172 0
0.001334 0.000093 0
0.001300 0.000052 0
0.001267 0.000040 0
0.001231 0.000047 0
0.001192 0.000063 0
0.001151 0.000082 0
0.001108 0.000100 0
0.001062 0.000116 0
0.001015 0.000130 0
0.000967 0.000143 0
0.000915 0.000156 0
0.000862 0.000171 0
0.000806 0.000188 0
0.000746 0.000210 0
0.000684 0.000238 0
0.000618 0.000276 0
0.000548 0.000331 0
0.000473 0.000412 0
0.000391 0.000528 0
0.000303 0.000684 0
0.000211 0.000865 0
0.000123 0.001018 0
0.000052 0.001036 0
0.000010 0.000757 0
0.000000 0.000260 0
0.000000 0.000000 0
0.000000 0.000000 0
0.000000 0.000000 0
0.000000 -0.000036 0
0.000023 -0.000134 0
0.000078 -0.000245 0
0.000156 -0.000332 0
0.000251 -0.000398 0
0.000358 -0.000441 0
0.000470 -0.000465 0
0.000585 -0.000470 0
0.000696 -0.000458 0
0.000802 -0.000431 0
0.000898 -0.000392 0
0.000981 -0.000344 0
0.001050 -0.000290 0
0.001104 -0.000233 0
0.001144 -0.000178 0
0.001170 -0.000127 0
0.001184 -0.000081 0
0.001189 -0.000044 0
0.001188 -0.000014 0
0.001182 0.000008 0
0.001173 0.000022 0
0.001164 0.000029 0
0.001156 0.000030 0
0.001149 0.000027 0
0.001145 0.000019 0
0.001145 0.000009 0
0.001147 -0.000002 0
0.001154 -0.000015 0
0.001163 -0.000029 0
0.001177 -0.000043 0
0.001194 -0.000057 0
0.001214 -0.000071 0
0.001237 -0.000085 0
0.001263 -0.000098 0
0.001292 -0.000112 0
0.001324 -0.000125 0
0.001358 -0.000139 0
0.001395 -0.000153 0
0.001434 -0.000168 0
0.001476 -0.000183 0
0.001519 -0.000200 0
0.001566 -0.000218 0
0.001614 -0.000239 0
0.001665 -0.000261 0
0.001718 -0.000286 0
0.001772 -0.000313 0
0.001827 -0.000344 0
0.001881 -0.000377 0
0.001934 -0.000409 0
0.001979 -0.000436 0
0.002012 -0.000445 0
0.002020 -0.000415 0
0.001985 -0.000302 0
0.001881 -0.000030 0
0.001670 0.000525 0
0.001319 0.001517 0
0.000821 0.002933 0
0.000281 0.003731 0
0.000000 0.001869 0
0.000000 -0.001187 0
0.000280 -0.002986 0
0.000717 -0.003314 0
0.001092 -0.002449 0
0.001328 -0.001313 0
0.001431 -0.000368 0
0.001438 0.000235 0
0.001393 0.000512 0
0.001329 0.000553 0
0.001266 0.000465 0
0.001211 0.000334 0
0.001165 0.000214 0
0.001122 0.000132 0
0.001079 0.000090 0
0.001035 0.000080 0
0.000987 0.000090 0
0.000937 0.000109 0
0.000885 0.000130 0
0.000833 0.000149 0
0.000780 0.000166 0
0.000726 0.000181 0
0.000671 0.000196 0
0.000615 0.000211 0
0.000557 0.000228 0
0.000499 0.000248 0
0.000439 0.000271 0
0.000379 0.000301 0
0.000319 0.000341 0
0.000259 0.000398 0
0.000199 0.000482 0
0.000140 0.000600 0
0.000084 0.000756 0
0.000033 0.000931 0
-0.000003 0.001069 0
-0.000019 0.001064 0
-0.000013 0.000762 0
0.000000 0.000258 0
0.000000 0.000000 0
0.000000 0.000000 0
0.000000 0.000000 0
0.000000 -0.000048 0
0.000024 -0.000173 0
0.000081 -0.000313 0
0.000162 -0.000421 0
0.000260 -0.000500 0
0.000368 -0.000553 0
0.000483 -0.000580 0
0.000598 -0.000584 0
0.000709 -0.000567 0
0.000812 -0.000531 0
0.000904 -0.000480 0
0.000982 -0.000418 0
0.001043 -0.000348 0
0.001087 -0.000276 0
0.001116 -0.000206 0
0.001130 -0.000142 0
0.001134 -0.000087 0
0.001129 -0.000041 0
0.001118 -0.000007 0
0.001105 0.000018 0
0.001091 0.000033 0
0.001079 0.000039 0
0.001069 0.000038 0
0.001063 0.000032 0
0.001060 0.000021 0
0.001062 0.000007 0
0.001068 -0.000008 0
0.001078 -0.000025 0
0.001091 -0.000042 0
0.001109 -0.000060 0
0.001129 -0.000077 0
0.001153 -0.000094 0
0.001180 -0.000111 0
0.001209 -0.000127 0
0.001240 -0.000143 0
0.001274 -0.000159 0
0.001310 -0.000175 0
0.001348 -0.000191 0
0.001387 -0.000208 0
0.001428 -0.000226 0
0.001471 -0.000245 0
0.001515 -0.000265 0
0.001560 -0.000286 0
0.001605 -0.000310 0
0.001651 -0.000336 0
0.001697 -0.000363 0
0.001742 -0.000393 0
0.001785 -0.000423 0
0.001823 -0.000450 0
0.001853 -0.000465 0
0.001869 -0.000455 0
0.001860 -0.000390 0
0.001810 -0.000221 0
0.001695 0.000135 0
0.001483 0.000806 0
0.001149 0.001929 0
0.000696 0.003422 0
0.000227 0.004107 0
0.000000 0.001994 0
0.000000 -0.001318 0
0.000246 -0.003321 0
0.000624 -0.003691 0
0.000942 -0.002729 0
0.001134 -0.001466 0
0.001212 -0.000414 0
0.001209 0.000256 0
0.001165 0.000564 0
0.001108 0.000613 0
0.001051 0.000521 0
0.000999 0.000384 0
0.000951 0.000261 0
0.000902 0.000178 0
0.000851 0.000139 0
0.000797 0.000132 0
0.000740 0.000144 0
0.000682 0.000164 0
0.000622 0.000186 0
0.000564 0.000206 0
0.000505 0.000223 0
0.000447 0.000238 0
0.000389 0.000253 0
0.000331 0.000269 0
0.000273 0.000287 0
0.000216 0.000306 0
0.000160 0.000329 0
0.000106 0.000358 0
0.000055 0.000396 0
0.000009 0.000450 0
-0.000033 0.000530 0
-0.000067 0.000644 0
-0.000093 0.000791 0
-0.000105 0.000952 0
-0.000098 0.001070 0
-0.000069 0.001046 0
-0.000029 0.000737 0
0.000000 0.000246 0
0.000000 0.000000 0
0.000000 0.000000 0
0.000000 0.000000 0
0.000000 -0.000060 0
0.000024 -0.000214 0
0.000081 -0.000383 0
0.000163 -0.000511 0
0.000260 -0.000604 0
0.000368 -0.000664 0
0.000480 -0.000694 0
0.000591 -0.000696 0
0.000698 -0.000673 0
0.000795 -0.000626 0
0.000879 -0.000561 0
0.000945 -0.000482 0
0.000993 -0.000395 0
0.001021 -0.000306 0
0.001033 -0.000221 0
0.001031 -0.000144 0
0.001018 -0.000079 0
0.000999 -0.000028 0
0.000977 0.000010 0
0.000955 0.000035 0
0.000936 0.000048 0
0.000921 0.000051 0
0.000911 0.000046 0
0.000906 0.000035 0
0.000907 0.000020 0
0.000913 0.000002 0
0.000923 -0.000018 0
0.000938 -0.000039 0
0.000957 -0.000060 0
0.000980 -0.000081 0
0.001006 -0.000101 0
0.001034 -0.000121 0
0.001065 -0.000140 0
0.001097 -0.000159 0
0.001132 -0.000177 0
0.001168 -0.000195 0
0.001205 -0.000212 0
0.001243 -0.000230 0
0.001283 -0.000248 0
0.001323 -0.000267 0
0.001363 -0.000286 0
0.001403 -0.000307 0
0.001444 -0.000329 0
0.001483 -0.000352 0
0.001522 -0.000377 0
0.001558 -0.000404 0
0.001593 -0.000431 0
0.001624 -0.000457 0
0.001651 -0.000477 0
0.001670 -0.000482 0
0.001677 -0.000452 0
0.001661 -0.000356 0
0.001610 -0.000136 0
0.001499 0.000297 0
0.001302 0.001070 0
0.000996 0.002305 0
0.000591 0.003855 0
0.000185 0.004426 0
0.000000 0.002096 0
0.000000 -0.001434 0
0.000215 -0.003611 0
0.000538 -0.004010 0
0.000800 -0.002959 0
0.000952 -0.001584 0
0.001005 -0.000443 0
0.000994 0.000281 0
0.000951 0.000613 0
0.000898 0.000667 0
0.000846 0.000573 0
0.000796 0.000434 0
0.000746 0.000311 0
0.000693 0.000231 0
0.000636 0.000195 0
0.000575 0.000191 0
0.000512 0.000205 0
0.000448 0.000226 0
0.000385 0.000248 0
0.000323 0.000266 0
0.000263 0.000282 0
0.000204 0.000297 0
0.000146 0.000312 0
0.000089 0.000327 0
0.000034 0.000343 0
-0.000018 0.000361 0
-0.000068 0.000381 0
-0.000113 0.000405 0
-0.000152 0.000438 0
-0.000184 0.000486 0
-0.000208 0.000558 0
-0.000220 0.000661 0
-0.000219 0.000793 0
-0.000200 0.000935 0
-0.000159 0.001033 0
-0.000100 0.000994 0
-0.000037 0.000693 0
0.000000 0.000229 0
0.000000 0.000000 0
0.000000 0.000000 0
0.000000 0.000000 0
0.000000 -0.000071 0
0.000024 -0.000254 0
0.000080 -0.000452 0
0.000159 -0.000600 0
0.000252 -0.000705 0
0.000355 -0.000772 0
0.000462 -0.000804 0
0.000566 -0.000802 0
0.000664 -0.000771 0
0.000751 -0.000712 0
0.000820 -0.000630 0
0.000870 -0.000531 0
0.000898 -0.000424 0
0.000905 -0.000317 0
0.000894 -0.000216 0
0.000869 -0.000127 0
0.000836 -0.000055 0
0.000799 0.000000 0
0.000763 0.000038 0
0.000732 0.000059 0
0.000708 0.000067 0
0.000692 0.000064 0
0.000685 0.000053 0
0.000685 0.000036 0
0.000692 0.000015 0
0.000705 -0.000009 0
0.000723 -0.000034 0
0.000746 -0.000059 0
0.000772 -0.000084 0
0.000802 -0.000108 0
0.000834 -0.000131 0
0.000868 -0.000153 0
0.000904 -0.000174 0
0.000941 -0.000194 0
0.000979 -0.000213 0
0.001017 -0.000232 0
0.001056 -0.000251 0
0.001094 -0.000269 0
0.001133 -0.000287 0
0.001171 -0.000306 0
0.001209 -0.000325 0
0.001245 -0.000345 0