# vtk DataFile Version 2.0
generated by CFD-lab course output (written by Tobias Neckel) 
ASCII

DATASET STRUCTURED_GRID
DIMENSIONS  99 49 1 
POINTS 4851 float

0.000000 0.000000 0
0.020000 0.000000 0
0.040000 0.000000 0
0.060000 0.000000 0
0.080000 0.000000 0
0.100000 0.000000 0
0.120000 0.000000 0
0.140000 0.000000 0
0.160000 0.000000 0
0.180000 0.000000 0
0.200000 0.000000 0
0.220000 0.000000 0
0.240000 0.000000 0
0.260000 0.000000 0
0.280000 0.000000 0
0.300000 0.000000 0
0.320000 0.000000 0
0.340000 0.000000 0
0.360000 0.000000 0
0.380000 0.000000 0
0.400000 0.000000 0
0.420000 0.000000 0
0.440000 0.000000 0
0.460000 0.000000 0
0.480000 0.000000 0
0.500000 0.000000 0
0.520000 0.000000 0
0.540000 0.000000 0
0.560000 0.000000 0
0.580000 0.000000 0
0.600000 0.000000 0
0.620000 0.000000 0
0.640000 0.000000 0
0.660000 0.000000 0
0.680000 0.000000 0
0.700000 0.000000 0
0.720000 0.000000 0
0.740000 0.000000 0
0.760000 0.000000 0
0.780000 0.000000 0
0.800000 0.000000 0
0.820000 0.000000 0
0.840000 0.000000 0
0.860000 0.000000 0
0.880000 0.000000 0
0.900000 0.000000 0
0.920000 0.000000 0
0.940000 0.000000 0
0.960000 0.000000 0
0.980000 0.000000 0
1.000000 0.000000 0
1.020000 0.000000 0
1.040000 0.000000 0
1.060000 0.000000 0
1.080000 0.000000 0
1.100000 0.000000 0
1.120000 0.000000 0
1.140000 0.000000 0
1.160000 0.000000 0
1.180000 0.000000 0
1.200000 0.000000 0
1.220000 0.000000 0
1.240000 0.000000 0
1.260000 0.000000 0
1.280000 0.000000 0
1.300000 0.000000 0
1.320000 0.000000 0
1.340000 0.000000 0
1.360000 0.000000 0
1.380000 0.000000 0
1.400000 0.000000 0
1.420000 0.000000 0
1.440000 0.000000 0
1.460000 0.000000 0
1.480000 0.000000 0
1.500000 0.000000 0
1.520000 0.000000 0
1.540000 0.000000 0
1.560000 0.000000 0
1.580000 0.000000 0
1.600000 0.000000 0
1.620000 0.000000 0
1.640000 0.000000 0
1.660000 0.000000 0
1.680000 0.000000 0
1.700000 0.000000 0
1.720000 0.000000 0
1.740000 0.000000 0
1.760000 0.000000 0
1.780000 0.000000 0
1.800000 0.000000 0
1.820000 0.000000 0
1.840000 0.000000 0
1.860000 0.000000 0
1.880000 0.000000 0
1.900000 0.000000 0
1.920000 0.000000 0
1.940000 0.000000 0
1.960000 0.000000 0
0.000000 0.020000 0
0.020000 0.020000 0
0.040000 0.020000 0
0.060000 0.020000 0
0.080000 0.020000 0
0.100000 0.020000 0
0.120000 0.020000 0
0.140000 0.020000 0
0.160000 0.020000 0
0.180000 0.020000 0
0.200000 0.020000 0
0.220000 0.020000 0
0.240000 0.020000 0
0.260000 0.020000 0
0.280000 0.020000 0
0.300000 0.020000 0
0.320000 0.020000 0
0.340000 0.020000 0
0.360000 0.020000 0
0.380000 0.020000 0
0.400000 0.020000 0
0.420000 0.020000 0
0.440000 0.020000 0
0.460000 0.020000 0
0.480000 0.020000 0
0.500000 0.020000 0
0.520000 0.020000 0
0.540000 0.020000 0
0.560000 0.020000 0
0.580000 0.020000 0
0.600000 0.020000 0
0.620000 0.020000 0
0.640000 0.020000 0
0.660000 0.020000 0
0.680000 0.020000 0
0.700000 0.020000 0
0.720000 0.020000 0
0.740000 0.020000 0
0.760000 0.020000 0
0.780000 0.020000 0
0.800000 0.020000 0
0.820000 0.020000 0
0.840000 0.020000 0
0.860000 0.020000 0
0.880000 0.020000 0
0.900000 0.020000 0
0.920000 0.020000 0
0.940000 0.020000 0
0.960000 0.020000 0
0.980000 0.020000 0
1.000000 0.020000 0
1.020000 0.020000 0
1.040000 0.020000 0
1.060000 0.020000 0
1.080000 0.020000 0
1.100000 0.020000 0
1.120000 0.020000 0
1.140000 0.020000 0
1.160000 0.020000 0
1.180000 0.020000 0
1.200000 0.020000 0
1.220000 0.020000 0
1.240000 0.020000 0
1.260000 0.020000 0
1.280000 0.020000 0
1.300000 0.020000 0
1.320000 0.020000 0
1.340000 0.020000 0
1.360000 0.020000 0
1.380000 0.020000 0
1.400000 0.020000 0
1.420000 0.020000 0
1.440000 0.020000 0
1.460000 0.020000 0
1.480000 0.020000 0
1.500000 0.020000 0
1.520000 0.020000 0
1.540000 0.020000 0
1.560000 0.020000 0
1.580000 0.020000 0
1.600000 0.020000 0
1.620000 0.020000 0
1.640000 0.020000 0
1.660000 0.020000 0
1.680000 0.020000 0
1.700000 0.020000 0
1.720000 0.020000 0
1.740000 0.020000 0
1.760000 0.020000 0
1.780000 0.020000 0
1.800000 0.020000 0
1.820000 0.020000 0
1.840000 0.020000 0
1.860000 0.020000 0
1.880000 0.020000 0
1.900000 0.020000 0
1.920000 0.020000 0
1.940000 0.020000 0
1.960000 0.020000 0
0.000000 0.040000 0
0.020000 0.040000 0
0.040000 0.040000 0
0.060000 0.040000 0
0.080000 0.040000 0
0.100000 0.040000 0
0.120000 0.040000 0
0.140000 0.040000 0
0.160000 0.040000 0
0.180000 0.040000 0
0.200000 0.040000 0
0.220000 0.040000 0
0.240000 0.040000 0
0.260000 0.040000 0
0.280000 0.040000 0
0.300000 0.040000 0
0.320000 0.040000 0
0.340000 0.040000 0
0.360000 0.040000 0
0.380000 0.040000 0
0.400000 0.040000 0
0.420000 0.040000 0
0.440000 0.040000 0
0.460000 0.040000 0
0.480000 0.040000 0
0.500000 0.040000 0
0.520000 0.040000 0
0.540000 0.040000 0
0.560000 0.040000 0
0.580000 0.040000 0
0.600000 0.040000 0
0.620000 0.040000 0
0.640000 0.040000 0
0.660000 0.040000 0
0.680000 0.040000 0
0.700000 0.040000 0
0.720000 0.040000 0
0.740000 0.040000 0
0.760000 0.040000 0
0.780000 0.040000 0
0.800000 0.040000 0
0.820000 0.040000 0
0.840000 0.040000 0
0.860000 0.040000 0
0.880000 0.040000 0
0.900000 0.040000 0
0.920000 0.040000 0
0.940000 0.040000 0
0.960000 0.040000 0
0.980000 0.040000 0
1.000000 0.040000 0
1.020000 0.040000 0
1.040000 0.040000 0
1.060000 0.040000 0
1.080000 0.040000 0
1.100000 0.040000 0
1.120000 0.040000 0
1.140000 0.040000 0
1.160000 0.040000 0
1.180000 0.040000 0
1.200000 0.040000 0
1.220000 0.040000 0
1.240000 0.040000 0
1.260000 0.040000 0
1.280000 0.040000 0
1.300000 0.040000 0
1.320000 0.040000 0
1.340000 0.040000 0
1.360000 0.040000 0
1.380000 0.040000 0
1.400000 0.040000 0
1.420000 0.040000 0
1.440000 0.040000 0
1.460000 0.040000 0
1.480000 0.040000 0
1.500000 0.040000 0
1.520000 0.040000 0
1.540000 0.040000 0
1.560000 0.040000 0
1.580000 0.040000 0
1.600000 0.040000 0
1.620000 0.040000 0
1.640000 0.040000 0
1.660000 0.040000 0
1.680000 0.040000 0
1.700000 0.040000 0
1.720000 0.040000 0
1.740000 0.040000 0
1.760000 0.040000 0
1.780000 0.040000 0
1.800000 0.040000 0
1.820000 0.040000 0
1.840000 0.040000 0
1.860000 0.040000 0
1.880000 0.040000 0
1.900000 0.040000 0
1.920000 0.040000 0
1.940000 0.040000 0
1.960000 0.040000 0
0.000000 0.060000 0
0.020000 0.060000 0
0.040000 0.060000 0
0.060000 0.060000 0
0.080000 0.060000 0
0.100000 0.060000 0
0.120000 0.060000 0
0.140000 0.060000 0
0.160000 0.060000 0
0.180000 0.060000 0
0.200000 0.060000 0
0.220000 0.060000 0
0.240000 0.060000 0
0.260000 0.060000 0
0.280000 0.060000 0
0.300000 0.060000 0
0.320000 0.060000 0
0.340000 0.060000 0
0.360000 0.060000 0
0.380000 0.060000 0
0.400000 0.060000 0
0.420000 0.060000 0
0.440000 0.060000 0
0.460000 0.060000 0
0.480000 0.060000 0
0.500000 0.060000 0
0.520000 0.060000 0
0.540000 0.060000 0
0.560000 0.060000 0
0.580000 0.060000 0
0.600000 0.060000 0
0.620000 0.060000 0
0.640000 0.060000 0
0.660000 0.060000 0
0.680000 0.060000 0
0.700000 0.060000 0
0.720000 0.060000 0
0.740000 0.060000 0
0.760000 0.060000 0
0.780000 0.060000 0
0.800000 0.060000 0
0.820000 0.060000 0
0.840000 0.060000 0
0.860000 0.060000 0
0.880000 0.060000 0
0.900000 0.060000 0
0.920000 0.060000 0
0.940000 0.060000 0
0.960000 0.060000 0
0.980000 0.060000 0
1.000000 0.060000 0
1.020000 0.060000 0
1.040000 0.060000 0
1.060000 0.060000 0
1.080000 0.060000 0
1.100000 0.060000 0
1.120000 0.060000 0
1.140000 0.060000 0
1.160000 0.060000 0
1.180000 0.060000 0
1.200000 0.060000 0
1.220000 0.060000 0
1.240000 0.060000 0
1.260000 0.060000 0
1.280000 0.060000 0
1.300000 0.060000 0
1.320000 0.060000 0
1.340000 0.060000 0
1.360000 0.060000 0
1.380000 0.060000 0
1.400000 0.060000 0
1.420000 0.060000 0
1.440000 0.060000 0
1.460000 0.060000 0
1.480000 0.060000 0
1.500000 0.060000 0
1.520000 0.060000 0
1.540000 0.060000 0
1.560000 0.060000 0
1.580000 0.060000 0
1.600000 0.060000 0
1.620000 0.060000 0
1.640000 0.060000 0
1.660000 0.060000 0
1.680000 0.060000 0
1.700000 0.060000 0
1.720000 0.060000 0
1.740000 0.060000 0
1.760000 0.060000 0
1.780000 0.060000 0
1.800000 0.060000 0
1.820000 0.060000 0
1.840000 0.060000 0
1.860000 0.060000 0
1.880000 0.060000 0
1.900000 0.060000 0
1.920000 0.060000 0
1.940000 0.060000 0
1.960000 0.060000 0
0.000000 0.080000 0
0.020000 0.080000 0
0.040000 0.080000 0
0.060000 0.080000 0
0.080000 0.080000 0
0.100000 0.080000 0
0.120000 0.080000 0
0.140000 0.080000 0
0.160000 0.080000 0
0.180000 0.080000 0
0.200000 0.080000 0
0.220000 0.080000 0
0.240000 0.080000 0
0.260000 0.080000 0
0.280000 0.080000 0
0.300000 0.080000 0
0.320000 0.080000 0
0.340000 0.080000 0
0.360000 0.080000 0
0.380000 0.080000 0
0.400000 0.080000 0
0.420000 0.080000 0
0.440000 0.080000 0
0.460000 0.080000 0
0.480000 0.080000 0
0.500000 0.080000 0
0.520000 0.080000 0
0.540000 0.080000 0
0.560000 0.080000 0
0.580000 0.080000 0
0.600000 0.080000 0
0.620000 0.080000 0
0.640000 0.080000 0
0.660000 0.080000 0
0.680000 0.080000 0
0.700000 0.080000 0
0.720000 0.080000 0
0.740000 0.080000 0
0.760000 0.080000 0
0.780000 0.080000 0
0.800000 0.080000 0
0.820000 0.080000 0
0.840000 0.080000 0
0.860000 0.080000 0
0.880000 0.080000 0
0.900000 0.080000 0
0.920000 0.080000 0
0.940000 0.080000 0
0.960000 0.080000 0
0.980000 0.080000 0
1.000000 0.080000 0
1.020000 0.080000 0
1.040000 0.080000 0
1.060000 0.080000 0
1.080000 0.080000 0
1.100000 0.080000 0
1.120000 0.080000 0
1.140000 0.080000 0
1.160000 0.080000 0
1.180000 0.080000 0
1.200000 0.080000 0
1.220000 0.080000 0
1.240000 0.080000 0
1.260000 0.080000 0
1.280000 0.080000 0
1.300000 0.080000 0
1.320000 0.080000 0
1.340000 0.080000 0
1.360000 0.080000 0
1.380000 0.080000 0
1.400000 0.080000 0
1.420000 0.080000 0
1.440000 0.080000 0
1.460000 0.080000 0
1.480000 0.080000 0
1.500000 0.080000 0
1.520000 0.080000 0
1.540000 0.080000 0
1.560000 0.080000 0
1.580000 0.080000 0
1.600000 0.080000 0
1.620000 0.080000 0
1.640000 0.080000 0
1.660000 0.080000 0
1.680000 0.080000 0
1.700000 0.080000 0
1.720000 0.080000 0
1.740000 0.080000 0
1.760000 0.080000 0
1.780000 0.080000 0
1.800000 0.080000 0
1.820000 0.080000 0
1.840000 0.080000 0
1.860000 0.080000 0
1.880000 0.080000 0
[...]
POINT_DATA 4851 

VECTORS velocity float
0.000000 0.000000 0
0.000041 0.000000 0
0.000107 0.000000 0
0.000162 0.000000 0
0.000196 0.000000 0
0.000210 0.000000 0
0.000209 0.000000 0
0.000201 0.000000 0
0.000191 0.000000 0
0.000181 0.000000 0
0.000172 0.000000 0
0.000166 0.000000 0
0.000162 0.000000 0
0.000160 0.000000 0
0.000159 0.000000 0
0.000159 0.000000 0
0.000158 0.000000 0
0.000158 0.000000 0
0.000157 0.000000 0
0.000156 0.000000 0
0.000155 0.000000 0
0.000154 0.000000 0
0.000153 0.000000 0
0.000151 0.000000 0
0.000150 0.000000 0
0.000148 0.000000 0
0.000146 0.000000 0
0.000143 0.000000 0
0.000140 0.000000 0
0.000135 0.000000 0
0.000127 0.000000 0
0.000114 0.000000 0
0.000096 0.000000 0
0.000071 0.000000 0
0.000041 0.000000 0
0.000013 0.000000 0
0.000000 0.000000 0
0.000000 0.000000 0
0.000000 0.000000 0
0.000000 0.000000 0
0.000000 0.000000 0
0.000004 0.000000 0
0.000043 0.000000 0
0.000110 0.000000 0
0.000190 0.000000 0
0.000267 0.000000 0
0.000330 0.000000 0
0.000374 0.000000 0
0.000398 0.000000 0
0.000404 0.000000 0
0.000395 0.000000 0
0.000377 0.000000 0
0.000353 0.000000 0
0.000327 0.000000 0
0.000302 0.000000 0
0.000279 0.000000 0
0.000259 0.000000 0
0.000244 0.000000 0
0.000233 0.000000 0
0.000225 0.000000 0
0.000221 0.000000 0
0.000220 0.000000 0
0.000221 0.000000 0
0.000223 0.000000 0
0.000226 0.000000 0
0.000229 0.000000 0
0.000232 0.000000 0
0.000235 0.000000 0
0.000237 0.000000 0
0.000239 0.000000 0
0.000240 0.000000 0
0.000241 0.000000 0
0.000242 0.000000 0
0.000242 0.000000 0
0.000243 0.000000 0
0.000243 0.000000 0
0.000244 0.000000 0
0.000244 0.000000 0
0.000245 0.000000 0
0.000246 0.000000 0
0.000248 0.000000 0
0.000250 0.000000 0
0.000252 0.000000 0
0.000255 0.000000 0
0.000258 0.000000 0
0.000263 0.000000 0
0.000268 0.000000 0
0.000275 0.000000 0
0.000284 0.000000 0
0.000296 0.000000 0
0.000312 0.000000 0
0.000336 0.000000 0
0.000370 0.000000 0
0.000420 0.000000 0
0.000491 0.000000 0
0.000579 0.000000 0
0.000637 0.000000 0
0.000498 0.000000 0
0.000000 0.000000 0
0.000000 -0.000042 0
0.000118 -0.000108 0
0.000308 -0.000122 0
0.000474 -0.000090 0
0.000584 -0.000048 0
0.000638 -0.000014 0
0.000649 0.000008 0
0.000635 0.000018 0
0.000609 0.000020 0
0.000582 0.000018 0
0.000558 0.000014 0
0.000540 0.000009 0
0.000529 0.000005 0
0.000521 0.000003 0
0.000517 0.000001 0
0.000515 0.000000 0
0.000513 0.000000 0
0.000511 0.000000 0
0.000508 0.000001 0
0.000505 0.000001 0
0.000501 0.000001 0
0.000496 0.000002 0
0.000491 0.000002 0
0.000485 0.000002 0
0.000478 0.000003 0
0.000471 0.000003 0
0.000462 0.000004 0
0.000450 0.000005 0
0.000435 0.000008 0
0.000414 0.000012 0
0.000384 0.000020 0
0.000340 0.000030 0
0.000280 0.000043 0
0.000204 0.000055 0
0.000117 0.000057 0
0.000039 0.000040 0
0.000000 0.000012 0
0.000000 0.000000 0
0.000000 0.000000 0
0.000000 0.000000 0
0.000000 -0.000003 0
0.000039 -0.000042 0
0.000180 -0.000106 0
0.000400 -0.000147 0
0.000654 -0.000157 0
0.000900 -0.000141 0
0.001107 -0.000107 0
0.001258 -0.000067 0
0.001346 -0.000029 0
0.001378 0.000003 0
0.001364 0.000027 0
0.001316 0.000042 0
0.001247 0.000050 0
0.001169 0.000052 0
0.001088 0.000049 0
0.001014 0.000043 0
0.000949 0.000035 0
0.000897 0.000027 0
0.000857 0.000019 0
0.000830 0.000012 0
0.000813 0.000006 0
0.000806 0.000001 0
0.000806 -0.000003 0
0.000810 -0.000005 0
0.000817 -0.000006 0
0.000826 -0.000006 0
0.000835 -0.000005 0
0.000843 -0.000005 0
0.000849 -0.000004 0
0.000855 -0.000003 0
0.000859 -0.000002 0
0.000862 -0.000001 0
0.000864 -0.000001 0
0.000865 -0.000001 0
0.000866 -0.000001 0
0.000868 -0.000001 0
0.000869 -0.000001 0
0.000871 -0.000001 0
0.000873 -0.000002 0
0.000876 -0.000002 0
0.000880 -0.000003 0
0.000885 -0.000004 0
0.000892 -0.000005 0
0.000901 -0.000006 0
0.000911 -0.000008 0
0.000925 -0.000009 0
0.000942 -0.000012 0
0.000963 -0.000016 0
0.000990 -0.000021 0
0.001026 -0.000028 0
0.001074 -0.000040 0
0.001137 -0.000057 0
0.001221 -0.000084 0
0.001329 -0.000121 0
0.001454 -0.000159 0
0.001556 -0.000146 0
0.001499 0.000082 0
0.000993 0.000637 0
0.000000 0.000498 0
0.000000 -0.000119 0
0.000166 -0.000309 0
0.000434 -0.000357 0
0.000680 -0.000278 0
0.000854 -0.000164 0
0.000949 -0.000065 0
0.000982 0.000002 0
0.000974 0.000039 0
0.000946 0.000052 0
0.000912 0.000050 0
0.000880 0.000040 0
0.000855 0.000029 0
0.000838 0.000018 0
0.000826 0.000011 0
0.000819 0.000006 0
0.000814 0.000003 0
0.000810 0.000003 0
0.000806 0.000004 0
0.000801 0.000005 0
0.000794 0.000006 0
0.000786 0.000008 0
0.000777 0.000009 0
0.000767 0.000010 0
0.000755 0.000012 0
0.000741 0.000014 0
0.000725 0.000016 0
0.000706 0.000020 0
0.000682 0.000026 0
0.000652 0.000035 0
0.000611 0.000051 0
0.000557 0.000073 0
0.000484 0.000103 0
0.000391 0.000136 0
0.000280 0.000162 0
0.000160 0.000163 0
0.000055 0.000116 0
0.000000 0.000039 0
0.000000 0.000000 0
0.000000 0.000000 0
0.000000 0.000000 0
0.000000 -0.000039 0
0.000096 -0.000180 0
0.000349 -0.000360 0
0.000710 -0.000473 0
0.001117 -0.000500 0
0.001511 -0.000453 0
0.001848 -0.000357 0
0.002100 -0.000239 0
0.002261 -0.000120 0
0.002334 -0.000017 0
0.002332 0.000062 0
0.002275 0.000117 0
0.002179 0.000148 0
0.002062 0.000159 0
0.001939 0.000155 0
0.001821 0.000140 0
0.001716 0.000118 0
0.001628 0.000093 0
0.001560 0.000067 0
0.001511 0.000044 0
0.001479 0.000024 0
0.001463 0.000008 0
0.001457 -0.000004 0
0.001460 -0.000011 0
0.001468 -0.000016 0
0.001479 -0.000017 0
0.001490 -0.000016 0
0.001501 -0.000014 0
0.001510 -0.000012 0
0.001516 -0.000009 0
0.001522 -0.000007 0
0.001525 -0.000005 0
0.001527 -0.000003 0
0.001528 -0.000002 0
0.001528 -0.000002 0
0.001529 -0.000002 0
0.001530 -0.000003 0
0.001531 -0.000004 0
0.001533 -0.000005 0
0.001537 -0.000007 0
0.001542 -0.000009 0
0.001549 -0.000012 0
0.001558 -0.000015 0
0.001570 -0.000019 0
0.001585 -0.000024 0
0.001604 -0.000030 0
0.001628 -0.000038 0
0.001658 -0.000049 0
0.001696 -0.000063 0
0.001743 -0.000083 0
0.001803 -0.000110 0
0.001876 -0.000147 0
0.001960 -0.000192 0
0.002042 -0.000233 0
0.002087 -0.000227 0
0.002011 -0.000044 0
0.001658 0.000564 0
0.000872 0.001499 0
0.000000 0.000993 0
0.000000 -0.000208 0
0.000178 -0.000543 0
0.000470 -0.000636 0
0.000744 -0.000510 0
0.000943 -0.000317 0
0.001058 -0.000142 0
0.001106 -0.000018 0
0.001107 0.000053 0
0.001084 0.000082 0
0.001052 0.000083 0
0.001020 0.000070 0
0.000995 0.000051 0
0.000976 0.000034 0
0.000963 0.000021 0
0.000953 0.000013 0
0.000946 0.000009 0
0.000940 0.000008 0
0.000933 0.000010 0
0.000924 0.000012 0
0.000914 0.000015 0
0.000903 0.000018 0
0.000889 0.000021 0
0.000873 0.000024 0
0.000856 0.000028 0
0.000835 0.000032 0
0.000812 0.000038 0
0.000784 0.000046 0
0.000750 0.000059 0
0.000708 0.000078 0
0.000655 0.000107 0
0.000587 0.000146 0
0.000501 0.000196 0
0.000397 0.000247 0
0.000278 0.000285 0
0.000156 0.000282 0
0.000052 0.000200 0
0.000000 0.000067 0
0.000000 0.000000 0
0.000000 0.000000 0
0.000000 0.000000 0
0.000000 -0.000099 0
0.000137 -0.000391 0
0.000472 -0.000720 0
0.000929 -0.000915 0
0.001432 -0.000958 0
0.001914 -0.000871 0
0.002327 -0.000696 0
0.002642 -0.000480 0
0.002850 -0.000262 0
0.002956 -0.000068 0
0.002974 0.000086 0
0.002922 0.000196 0
0.002822 0.000263 0
0.002693 0.000292 0
0.002553 0.000290 0
0.002415 0.000266 0
0.002289 0.000228 0
0.002183 0.000183 0
0.002099 0.000136 0
0.002036 0.000092 0
0.001994 0.000054 0
0.001969 0.000023 0
0.001958 0.000000 0
0.001956 -0.000015 0
0.001961 -0.000024 0
0.001969 -0.000028 0
0.001977 -0.000027 0
0.001986 -0.000024 0
0.001992 -0.000020 0
0.001997 -0.000015 0
0.002000 -0.000010 0
0.002000 -0.000007 0
0.002000 -0.000004 0
0.001998 -0.000002 0
0.001996 -0.000002 0
0.001994 -0.000002 0
0.001992 -0.000003 0
0.001991 -0.000005 0
0.001992 -0.000008 0
0.001993 -0.000011 0
0.001996 -0.000015 0
0.002001 -0.000020 0
0.002009 -0.000026 0
0.002019 -0.000033 0
0.002032 -0.000041 0
0.002049 -0.000052 0
0.002071 -0.000066 0
0.002099 -0.000084 0
0.002132 -0.000106 0
0.002173 -0.000136 0
0.002219 -0.000172 0
0.002267 -0.000213 0
0.002307 -0.000249 0
0.002314 -0.000248 0
0.002239 -0.000129 0
0.001995 0.000283 0
0.001471 0.001221 0
0.000657 0.002295 0
0.000000 0.001370 0
0.000000 -0.000298 0
0.000174 -0.000780 0
0.000463 -0.000923 0
0.000734 -0.000751 0
0.000932 -0.000479 0
0.001050 -0.000228 0
0.001100 -0.000047 0
0.001106 0.000061 0
0.001087 0.000107 0
0.001059 0.000113 0
0.001031 0.000097 0
0.001008 0.000073 0
0.000989 0.000050 0
0.000976 0.000033 0
0.000965 0.000022 0
0.000955 0.000017 0
0.000946 0.000016 0
0.000935 0.000019 0
0.000923 0.000023 0
0.000910 0.000028 0
0.000894 0.000033 0
0.000876 0.000038 0
0.000856 0.000043 0
0.000833 0.000050 0
0.000807 0.000057 0
0.000778 0.000067 0
0.000744 0.000081 0
0.000704 0.000101 0
0.000656 0.000130 0
0.000597 0.000172 0
0.000526 0.000227 0
0.000441 0.000292 0
0.000342 0.000358 0
0.000234 0.000402 0
0.000128 0.000389 0
0.000041 0.000272 0
0.000000 0.000091 0
0.000000 0.000000 0
0.000000 0.000000 0
0.000000 0.000000 0
0.000000 -0.000175 0
0.000164 -0.000651 0
0.000554 -0.001152 0
0.001075 -0.001433 0
0.001636 -0.001485 0
0.002167 -0.001348 0
0.002618 -0.001085 0
0.002962 -0.000762 0
0.003194 -0.000434 0
0.003318 -0.000141 0
0.003349 0.000096 0
0.003307 0.000269 0
0.003211 0.000377 0
0.003084 0.000429 0
0.002943 0.000433 0
0.002802 0.000403 0
0.002673 0.000349 0
0.002562 0.000284 0
0.002472 0.000214 0
0.002405 0.000149 0
0.002358 0.000091 0
0.002327 0.000044 0
0.002310 0.000009 0
0.002303 -0.000014 0
0.002301 -0.000028 0
0.002303 -0.000033 0
0.002305 -0.000033 0
0.002307 -0.000029 0
0.002307 -0.000023 0
0.002306 -0.000016 0
0.002302 -0.000010 0
0.002298 -0.000005 0
0.002292 -0.000001 0
0.002286 0.000001 0
0.002279 0.000002 0
0.002273 0.000002 0
0.002267 0.000000 0
0.002262 -0.000003 0
0.002258 -0.000007 0
0.002255 -0.000011 0
0.002254 -0.000017 0
0.002254 -0.000024 0
0.002257 -0.000032 0
0.002261 -0.000042 0
0.002269 -0.000054 0
0.002278 -0.000069 0
0.002292 -0.000087 0
0.002308 -0.000109 0
0.002327 -0.000137 0
0.002348 -0.000169 0
0.002368 -0.000204 0
0.002379 -0.000235 0
0.002367 -0.000238 0
0.002303 -0.000165 0
0.002139 0.000092 0
0.001802 0.000724 0
0.001232 0.001902 0
0.000490 0.002970 0
0.000000 0.001650 0
0.000000 -0.000383 0
0.000163 -0.001006 0
0.000433 -0.001197 0
0.000685 -0.000979 0
0.000868 -0.000633 0
0.000974 -0.000311 0
0.001020 -0.000075 0
0.001025 0.000066 0
0.001008 0.000129 0
0.000983 0.000139 0
0.000958 0.000121 0
0.000937 0.000093 0
0.000920 0.000066 0
0.000905 0.000045 0
0.000893 0.000033 0
0.000880 0.000028 0
0.000867 0.000028 0
0.000853 0.000032 0
0.000837 0.000037 0
0.000819 0.000044 0
0.000799 0.000051 0
0.000777 0.000059 0
0.000753 0.000067 0
0.000727 0.000076 0
0.000698 0.000087 0
0.000665 0.000101 0
0.000628 0.000120 0
0.000586 0.000147 0
0.000538 0.000185 0
0.000481 0.000237 0
0.000415 0.000303 0
0.000339 0.000380 0
0.000256 0.000454 0
0.000170 0.000499 0
0.000090 0.000474 0
0.000027 0.000327 0
0.000000 0.000108 0
0.000000 0.000000 0
0.000000 0.000000 0
0.000000 0.000000 0
0.000000 -0.000262 0
0.000181 -0.000944 0
0.000607 -0.001631 0
0.001167 -0.001998 0
0.001760 -0.002050 0
0.002309 -0.001851 0
0.002769 -0.001492 0
0.003117 -0.001057 0
0.003350 -0.000617 0
0.003476 -0.000223 0
0.003511 0.000098 0
0.003474 0.000334 0
0.003385 0.000485 0
0.003266 0.000560 0
0.003133 0.000572 0
0.003000 0.000536 0
0.002878 0.000469 0
0.002772 0.000383 0
0.002687 0.000293 0
0.002621 0.000207 0
0.002573 0.000131 0
0.002540 0.000070 0
0.002518 0.000025 0
0.002504 -0.000006 0
0.002494 -0.000024 0
0.002485 -0.000031 0
0.002478 -0.000031 0
0.002469 -0.000026 0
0.002460 -0.000018 0
0.002449 -0.000010 0
0.002437 -0.000003 0
0.002425 0.000004 0
0.002412 0.000008 0
0.002399 0.000011 0
0.002386 0.000012 0
0.002374 0.000011 0
0.002363 0.000008 0
0.002352 0.000004 0
0.002343 -0.000001 0
0.002335 -0.000007 0
0.002327 -0.000014 0
0.002321 -0.000022 0
0.002317 -0.000032 0
0.002313 -0.000044 0
0.002311 -0.000058 0
0.002311 -0.000075 0
0.002311 -0.000095 0
0.002312 -0.000119 0
0.002312 -0.000147 0
0.002310 -0.000176 0
0.002302 -0.000203 0
0.002279 -0.000212 0
0.002227 -0.000173 0
0.002119 -0.000019 0
0.001912 0.000372 0
0.001553 0.001190 0
0.001008 0.002534 0
0.000367 0.003527 0
0.000000 0.001860 0
0.000000 -0.000462 0
0.000149 -0.001214 0
0.000393 -0.001445 0
0.000616 -0.001185 0
0.000774 -0.000769 0
0.000864 -0.000381 0
0.000899 -0.000097 0
0.000899 0.000072 0
0.000882 0.000148 0
0.000859 0.000162 0
0.000837 0.000143 0
0.000817 0.000111 0
0.000800 0.000082 0
0.000784 0.000059 0
0.000769 0.000047 0
0.000753 0.000042 0
0.000736 0.000043 0
0.000718 0.000049 0
0.000698 0.000056 0
0.000676 0.000065 0
0.000653 0.000074 0
0.000628 0.000083 0
0.000601 0.000094 0
0.000572 0.000105 0
0.000541 0.000119 0
0.000508 0.000136 0
0.000471 0.000159 0
0.000431 0.000191 0
0.000387 0.000236 0
0.000337 0.000294 0
0.000282 0.000368 0
0.000223 0.000451 0
0.000162 0.000527 0
0.000102 0.000568 0
0.000051 0.000532 0
0.000014 0.000362 0
0.000000 0.000118 0
0.000000 0.000000 0
0.000000 0.000000 0
0.000000 0.000000 0
0.000000 -0.000356 0
0.000192 -0.001258 0
0.000641 -0.002139 0
0.001221 -0.002585 0
0.001821 -0.002627 0
0.002366 -0.002357 0
0.002812 -0.001893 0
0.003143 -0.001343 0
0.003359 -0.000793 0
0.003473 -0.000301 0
0.003501 0.000099 0
0.003464 0.000394 0
0.003380 0.000585 0
0.003271 0.000682 0
0.003150 0.000699 0
0.003030 0.000658 0
0.002922 0.000577 0
0.002828 0.000475 0
0.002752 0.000366 0
0.002692 0.000262 0
0.002646 0.000172 0
0.002611 0.000100 0
0.002583 0.000046 0
0.002560 0.000011 0
0.002538 -0.000009 0
0.002518 -0.000017 0
0.002496 -0.000017 0
0.002475 -0.000011 0
0.002453 -0.000003 0
0.002430 0.000006 0
0.002408 0.000014 0
0.002386 0.000021 0
0.002365 0.000025 0
0.002345 0.000027 0
0.002326 0.000027 0
0.002308 0.000025 0
0.002290 0.000022 0
0.002274 0.000017 0
0.002259 0.000011 0
0.002245 0.000004 0
0.002232 -0.000004 0
0.002219 -0.000013 0
0.002206 -0.000024 0
0.002194 -0.000037 0
0.002182 -0.000051 0
0.002169 -0.000068 0
0.002155 -0.000088 0
0.002140 -0.000110 0
0.002121 -0.000135 0
0.002098 -0.000159 0
0.002068 -0.000173 0
0.002023 -0.000160 0
0.001952 -0.000078 0
0.001831 0.000150 0
0.001625 0.000658 0
0.001291 0.001628 0
0.000808 0.003087 0
0.000274 0.003978 0
0.000000 0.002018 0
0.000000 -0.000533 0
0.000133 -0.001400 0
0.000347 -0.001664 0
0.000538 -0.001361 0
0.000668 -0.000881 0
0.000736 -0.000435 0
0.000759 -0.000111 0
0.000753 0.000082 0
0.000735 0.000168 0
0.000714 0.000184 0
0.000693 0.000163 0
0.000673 0.000130 0
0.000655 0.000098 0
0.000638 0.000076 0
0.000619 0.000064 0
0.000600 0.000060 0
0.000579 0.000063 0
0.000556 0.000070 0
0.000533 0.000079 0
0.000508 0.000089 0
0.000482 0.000099 0
0.000455 0.000110 0
0.000427 0.000122 0
0.000397 0.000135 0
0.000367 0.000151 0
0.000334 0.000170 0
0.000301 0.000196 0
0.000266 0.000231 0
0.000229 0.000278 0
0.000190 0.000341 0
0.000150 0.000417 0
0.000110 0.000500 0
0.000072 0.000574 0
0.000040 0.000610 0
0.000016 0.000562 0
0.000003 0.000378 0
0.000000 0.000122 0
0.000000 0.000000 0
0.000000 0.000000 0
0.000000 0.000000 0
0.000000 -0.000454 0
0.000200 -0.001585 0
0.000660 -0.002660 0
0.001243 -0.003177 0
0.001833 -0.003195 0
0.002354 -0.002843 0
0.002769 -0.002268 0
0.003065 -0.001603 0
0.003251 -0.000947 0
0.003342 -0.000365 0
0.003356 0.000107 0
0.003313 0.000455 0
0.003232 0.000678 0
0.003131 0.000791 0
0.003023 0.000812 0
0.002919 0.000765 0
0.002825 0.000671 0
0.002745 0.000553 0
0.002679 0.000429 0
0.002624 0.000313 0
0.002579 0.000213 0
0.002540 0.000133 0
0.002503 0.000076 0
0.002468 0.000039 0
0.002432 0.000019 0
0.002395 0.000011 0
0.002359 0.000012 0
0.002322 0.000018 0
0.002286 0.000026 0
0.002252 0.000035 0
0.002219 0.000042 0
0.002189 0.000047 0
0.002160 0.000050 0
0.002133 0.000050 0
0.002109 0.000049 0
0.002085 0.000046 0
0.002064 0.000041 0
0.002043 0.000036 0
0.002023 0.000029 0
0.002004 0.000021 0
0.001985 0.000013 0
0.001966 0.000003 0
0.001947 -0.000008 0
0.001927 -0.000020 0
0.001906 -0.000033 0
0.001882 -0.000048 0
0.001856 -0.000066 0
0.001827 -0.000085 0
0.001793 -0.000105 0
0.001755 -0.000122 0
0.001712 -0.000127 0
0.001660 -0.000096 0
0.001592 0.000019 0
0.001488 0.000307 0
0.001315 0.000913 0
0.001034 0.002008 0
0.000629 0.003551 0
0.000198 0.004335 0
0.000000 0.002134 0
0.000000 -0.000596 0
0.000117 -0.001562 0
0.000300 -0.001850 0
0.000457 -0.001506 0
0.000558 -0.000967 0
0.000605 -0.000472 0
0.000614 -0.000115 0
0.000603 0.000095 0
0.000584 0.000188 0
0.000563 0.000205 0
0.000543 0.000183 0
0.000523 0.000148 0
0.000504 0.000117 0
0.000484 0.000095 0
0.000462 0.000084 0
0.000439 0.000082 0
0.000415 0.000086 0
0.000389 0.000094 0
0.000363 0.000104 0
0.000336 0.000115 0
0.000309 0.000127 0
0.000281 0.000138 0
0.000252 0.000151 0
0.000224 0.000165 0
0.000195 0.000181 0
0.000166 0.000202 0
0.000137 0.000228 0
0.000109 0.000263 0
0.000082 0.000311 0
0.000055 0.000373 0
0.000031 0.000447 0
0.000011 0.000528 0
-0.000004 0.000597 0
-0.000011 0.000624 0
-0.000011 0.000568 0
-0.000006 0.000378 0
0.000000 0.000121 0
0.000000 0.000000 0
0.000000 0.000000 0
0.000000 0.000000 0
0.000000 -0.000555 0
0.000204 -0.001918 0
0.000666 -0.003181 0
0.001238 -0.003758 0
0.001801 -0.003738 0
0.002284 -0.003292 0
0.002653 -0.002604 0
0.002904 -0.001826 0
0.003051 -0.001069 0
0.003111 -0.000405 0
0.003105 0.000129 0
0.003053 0.000518 0
0.002971 0.000767 0
0.002876 0.000891 0
0.002779 0.000912 0
0.002687 0.000856 0
0.002606 0.000751 0
0.002536 0.000621 0
0.002475 0.000486 0
0.002421 0.000362 0
0.002371 0.000257 0
0.002322 0.000176 0
0.002271 0.000119 0
0.002219 0.000082 0
0.002166 0.000063 0
0.002112 0.000056 0
0.002059 0.000057 0
0.002009 0.000061 0
0.001961 0.000068 0
0.001917 0.000073 0
0.001877 0.000078 0
0.001841 0.000080 0
0.001808 0.000080 0
0.001778 0.000079 0
0.001750 0.000075 0
0.001725 0.000071 0
0.001701 0.000065 0
0.001678 0.000058 0
0.001656 0.000051 0
0.001634 0.000042 0
0.001613 0.000034 0
0.001590 0.000025 0
0.001567 0.000015 0
0.001542 0.000005 0
0.001515 -0.000006 0
0.001484 -0.000018 0
0.001450 -0.000032 0
0.001412 -0.000047 0
0.001369 -0.000063 0
0.001325 -0.000077 0
0.001281 -0.000078 0
0.001238 -0.000040 0
0.001191 0.000095 0
0.001125 0.000427 0
0.001005 0.001113 0
0.000790 0.002314 0
0.000470 0.003923 0
0.000134 0.004608 0
0.000000 0.002215 0
0.000000 -0.000651 0
0.000102 -0.001701 0
0.000255 -0.002004 0
0.000378 -0.001619 0
0.000450 -0.001028 0
0.000477 -0.000492 0
0.000475 -0.000110 0
0.000459 0.000112 0
0.000439 0.000208 0
0.000418 0.000225 0
0.000398 0.000202 0
0.000379 0.000168 0
0.000358 0.000138 0
0.000335 0.000118 0
0.000311 0.000108 0
0.000285 0.000108 0
0.000258 0.000113 0
0.000230 0.000121 0
0.000203 0.000132 0
0.000175 0.000143 0
0.000147 0.000154 0
0.000120 0.000166 0
0.000093 0.000179 0
0.000067 0.000193 0
0.000042 0.000208 0
0.000018 0.000228 0
-0.000005 0.000253 0
-0.000025 0.000287 0
-0.000043 0.000332 0
-0.000057 0.000391 0
-0.000066 0.000461 0
-0.000068 0.000535 0
-0.000063 0.000596 0
-0.000050 0.000617 0
-0.000031 0.000556 0
-0.000011 0.000366 0
0.000000 0.000116 0
0.000000 0.000000 0
0.000000 0.000000 0
0.000000 0.000000 0
0.000000 -0.000658 0
0.000206 -0.002251 0
0.000660 -0.003693 0
0.001208 -0.004312 0
0.001733 -0.004241 0
0.002164 -0.003694 0
0.002478 -0.002889 0
0.002678 -0.002002 0
0.002781 -0.001154 0
0.002807 -0.000419 0
0.002778 0.000166 0
0.002713 0.000589 0
0.002627 0.000855 0
0.002533 0.000984 0
0.002440 0.001002 0
0.002353 0.000938 0
0.002275 0.000823 0
0.002205 0.000684 0
0.002140 0.000544 0
0.002077 0.000417 0
0.002012 0.000312 0
0.001945 0.000233 0
0.001875 0.000179 0
0.001803 0.000145 0
0.001732 0.000126 0
0.001663 0.000118 0
0.001598 0.000116 0
0.001539 0.000116 0
0.001486 0.000118 0
0.001439 0.000119 0
0.001397 0.000118 0
0.001361 0.000116 0
0.001329 0.000113 0
0.001301 0.000108 0
0.001275 0.000102 0
0.001252 0.000096 0
0.001230 0.000088 0
0.001209 0.000081 0
0.001189 0.000073 0
0.001168 0.000065 0
0.001147 0.000057 0
0.001125 0.000049 0
0.001102 0.000041 0
0.001077 0.000033 0
0.001048 0.000025 0
0.001015 0.000017 0
0.000978 0.000008 0
0.000937 -0.000004 0
0.000894 -0.000018 0