# vtk DataFile Version 2.0
generated by CFD-lab course output (written by Tobias Neckel) 
ASCII

DATASET STRUCTURED_GRID
DIMENSIONS  99 49 1 
POINTS 4851 float

0.000000 0.000000 0
0.020000 0.000000 0
0.040000 0.000000 0
0.060000 0.000000 0
0.080000 0.000000 0
0.100000 0.000000 0
0.120000 0.000000 0
0.140000 0.000000 0
0.160000 0.000000 0
0.180000 0.000000 0
0.200000 0.000000 0
0.220000 0.000000 0
0.240000 0.000000 0
0.260000 0.000000 0
0.280000 0.000000 0
0.300000 0.000000 0
0.320000 0.000000 0
0.340000 0.000000 0
0.360000 0.000000 0
0.380000 0.000000 0
0.400000 0.000000 0
0.420000 0.000000 0
0.440000 0.000000 0
0.460000 0.000000 0
0.480000 0.000000 0
0.500000 0.000000 0
0.520000 0.000000 0
0.540000 0.000000 0
0.560000 0.000000 0
0.580000 0.000000 0
0.600000 0.000000 0
0.620000 0.000000 0
0.640000 0.000000 0
0.660000 0.000000 0
0.680000 0.000000 0
0.700000 0.000000 0
0.720000 0.000000 0
0.740000 0.000000 0
0.760000 0.000000 0
0.780000 0.000000 0
0.800000 0.000000 0
0.820000 0.000000 0
0.840000 0.000000 0
0.860000 0.000000 0
0.880000 0.000000 0
0.900000 0.000000 0
0.920000 0.000000 0
0.940000 0.000000 0
0.960000 0.000000 0
0.980000 0.000000 0
1.000000 0.000000 0
1.020000 0.000000 0
1.040000 0.000000 0
1.060000 0.000000 0
1.080000 0.000000 0
1.100000 0.000000 0
1.120000 0.000000 0
1.140000 0.000000 0
1.160000 0.000000 0
1.180000 0.000000 0
1.200000 0.000000 0
1.220000 0.000000 0
1.240000 0.000000 0
1.260000 0.000000 0
1.280000 0.000000 0
1.300000 0.000000 0
1.320000 0.000000 0
1.340000 0.000000 0
1.360000 0.000000 0
1.380000 0.000000 0
1.400000 0.000000 0
1.420000 0.000000 0
1.440000 0.000000 0
1.460000 0.000000 0
1.480000 0.000000 0
1.500000 0.000000 0
1.520000 0.000000 0
1.540000 0.000000 0
1.560000 0.000000 0
1.580000 0.000000 0
1.600000 0.000000 0
1.620000 0.000000 0
1.640000 0.000000 0
1.660000 0.000000 0
1.680000 0.000000 0
1.700000 0.000000 0
1.720000 0.000000 0
1.740000 0.000000 0
1.760000 0.000000 0
1.780000 0.000000 0
1.800000 0.000000 0
1.820000 0.000000 0
1.840000 0.000000 0
1.860000 0.000000 0
1.880000 0.000000 0
1.900000 0.000000 0
1.920000 0.000000 0
1.940000 0.000000 0
1.960000 0.000000 0
0.000000 0.020000 0
0.020000 0.020000 0
0.040000 0.020000 0
0.060000 0.020000 0
0.080000 0.020000 0
0.100000 0.020000 0
0.120000 0.020000 0
0.140000 0.020000 0
0.160000 0.020000 0
0.180000 0.020000 0
0.200000 0.020000 0
0.220000 0.020000 0
0.240000 0.020000 0
0.260000 0.020000 0
0.280000 0.020000 0
0.300000 0.020000 0
0.320000 0.020000 0
0.340000 0.020000 0
0.360000 0.020000 0
0.380000 0.020000 0
0.400000 0.020000 0
0.420000 0.020000 0
0.440000 0.020000 0
0.460000 0.020000 0
0.480000 0.020000 0
0.500000 0.020000 0
0.520000 0.020000 0
0.540000 0.020000 0
0.560000 0.020000 0
0.580000 0.020000 0
0.600000 0.020000 0
0.620000 0.020000 0
0.640000 0.020000 0
0.660000 0.020000 0
0.680000 0.020000 0
0.700000 0.020000 0
0.720000 0.020000 0
0.740000 0.020000 0
0.760000 0.020000 0
0.780000 0.020000 0
0.800000 0.020000 0
0.820000 0.020000 0
0.840000 0.020000 0
0.860000 0.020000 0
0.880000 0.020000 0
0.900000 0.020000 0
0.920000 0.020000 0
0.940000 0.020000 0
0.960000 0.020000 0
0.980000 0.020000 0
1.000000 0.020000 0
1.020000 0.020000 0
1.040000 0.020000 0
1.060000 0.020000 0
1.080000 0.020000 0
1.100000 0.020000 0
1.120000 0.020000 0
1.140000 0.020000 0
1.160000 0.020000 0
1.180000 0.020000 0
1.200000 0.020000 0
1.220000 0.020000 0
1.240000 0.020000 0
1.260000 0.020000 0
1.280000 0.020000 0
1.300000 0.020000 0
1.320000 0.020000 0
1.340000 0.020000 0
1.360000 0.020000 0
1.380000 0.020000 0
1.400000 0.020000 0
1.420000 0.020000 0
1.440000 0.020000 0
1.460000 0.020000 0
1.480000 0.020000 0
1.500000 0.020000 0
1.520000 0.020000 0
1.540000 0.020000 0
1.560000 0.020000 0
1.580000 0.020000 0
1.600000 0.020000 0
1.620000 0.020000 0
1.640000 0.020000 0
1.660000 0.020000 0
1.680000 0.020000 0
1.700000 0.020000 0
1.720000 0.020000 0
1.740000 0.020000 0
1.760000 0.020000 0
1.780000 0.020000 0
1.800000 0.020000 0
1.820000 0.020000 0
1.840000 0.020000 0
1.860000 0.020000 0
1.880000 0.020000 0
1.900000 0.020000 0
1.920000 0.020000 0
1.940000 0.020000 0
1.960000 0.020000 0
0.000000 0.040000 0
0.020000 0.040000 0
0.040000 0.040000 0
0.060000 0.040000 0
0.080000 0.040000 0
0.100000 0.040000 0
0.120000 0.040000 0
0.140000 0.040000 0
0.160000 0.040000 0
0.180000 0.040000 0
0.200000 0.040000 0
0.220000 0.040000 0
0.240000 0.040000 0
0.260000 0.040000 0
0.280000 0.040000 0
0.300000 0.040000 0
0.320000 0.040000 0
0.340000 0.040000 0
0.360000 0.040000 0
0.380000 0.040000 0
0.400000 0.040000 0
0.420000 0.040000 0
0.440000 0.040000 0
0.460000 0.040000 0
0.480000 0.040000 0
0.500000 0.040000 0
0.520000 0.040000 0
0.540000 0.040000 0
0.560000 0.040000 0
0.580000 0.040000 0
0.600000 0.040000 0
0.620000 0.040000 0
0.640000 0.040000 0
0.660000 0.040000 0
0.680000 0.040000 0
0.700000 0.040000 0
0.720000 0.040000 0
0.740000 0.040000 0
0.760000 0.040000 0
0.780000 0.040000 0
0.800000 0.040000 0
0.820000 0.040000 0
0.840000 0.040000 0
0.860000 0.040000 0
0.880000 0.040000 0
0.900000 0.040000 0
0.920000 0.040000 0
0.940000 0.040000 0
0.960000 0.040000 0
0.980000 0.040000 0
1.000000 0.040000 0
1.020000 0.040000 0
1.040000 0.040000 0
1.060000 0.040000 0
1.080000 0.040000 0
1.100000 0.040000 0
1.120000 0.040000 0
1.140000 0.040000 0
1.160000 0.040000 0
1.180000 0.040000 0
1.200000 0.040000 0
1.220000 0.040000 0
1.240000 0.040000 0
1.260000 0.040000 0
1.280000 0.040000 0
1.300000 0.040000 0
1.320000 0.040000 0
1.340000 0.040000 0
1.360000 0.040000 0
1.380000 0.040000 0
1.400000 0.040000 0
1.420000 0.040000 0
1.440000 0.040000 0
1.460000 0.040000 0
1.480000 0.040000 0
1.500000 0.040000 0
1.520000 0.040000 0
1.540000 0.040000 0
1.560000 0.040000 0
1.580000 0.040000 0
1.600000 0.040000 0
1.620000 0.040000 0
1.640000 0.040000 0
1.660000 0.040000 0
1.680000 0.040000 0
1.700000 0.040000 0
1.720000 0.040000 0
1.740000 0.040000 0
1.760000 0.040000 0
1.780000 0.040000 0
1.800000 0.040000 0
1.820000 0.040000 0
1.840000 0.040000 0
1.860000 0.040000 0
1.880000 0.040000 0
1.900000 0.040000 0
1.920000 0.040000 0
1.940000 0.040000 0
1.960000 0.040000 0
0.000000 0.060000 0
0.020000 0.060000 0
0.040000 0.060000 0
0.060000 0.060000 0
0.080000 0.060000 0
0.100000 0.060000 0
0.120000 0.060000 0
0.140000 0.060000 0
0.160000 0.060000 0
0.180000 0.060000 0
0.200000 0.060000 0
0.220000 0.060000 0
0.240000 0.060000 0
0.260000 0.060000 0
0.280000 0.060000 0
0.300000 0.060000 0
0.320000 0.060000 0
0.340000 0.060000 0
0.360000 0.060000 0
0.380000 0.060000 0
0.400000 0.060000 0
0.420000 0.060000 0
0.440000 0.060000 0
0.460000 0.060000 0
0.480000 0.060000 0
0.500000 0.060000 0
0.520000 0.060000 0
0.540000 0.060000 0
0.560000 0.060000 0
0.580000 0.060000 0
0.600000 0.060000 0
0.620000 0.060000 0
0.640000 0.060000 0
0.660000 0.060000 0
0.680000 0.060000 0
0.700000 0.060000 0
0.720000 0.060000 0
0.740000 0.060000 0
0.760000 0.060000 0
0.780000 0.060000 0
0.800000 0.060000 0
0.820000 0.060000 0
0.840000 0.060000 0
0.860000 0.060000 0
0.880000 0.060000 0
0.900000 0.060000 0
0.920000 0.060000 0
0.940000 0.060000 0
0.960000 0.060000 0
0.980000 0.060000 0
1.000000 0.060000 0
1.020000 0.060000 0
1.040000 0.060000 0
1.060000 0.060000 0
1.080000 0.060000 0
1.100000 0.060000 0
1.120000 0.060000 0
1.140000 0.060000 0
1.160000 0.060000 0
1.180000 0.060000 0
1.200000 0.060000 0
1.220000 0.060000 0
1.240000 0.060000 0
1.260000 0.060000 0
1.280000 0.060000 0
1.300000 0.060000 0
1.320000 0.060000 0
1.340000 0.060000 0
1.360000 0.060000 0
1.380000 0.060000 0
1.400000 0.060000 0
1.420000 0.060000 0
1.440000 0.060000 0
1.460000 0.060000 0
1.480000 0.060000 0
1.500000 0.060000 0
1.520000 0.060000 0
1.540000 0.060000 0
1.560000 0.060000 0
1.580000 0.060000 0
1.600000 0.060000 0
1.620000 0.060000 0
1.640000 0.060000 0
1.660000 0.060000 0
1.680000 0.060000 0
1.700000 0.060000 0
1.720000 0.060000 0
1.740000 0.060000 0
1.760000 0.060000 0
1.780000 0.060000 0
1.800000 0.060000 0
1.820000 0.060000 0
1.840000 0.060000 0
1.860000 0.060000 0
1.880000 0.060000 0
1.900000 0.060000 0
1.920000 0.060000 0
1.940000 0.060000 0
1.960000 0.060000 0
0.000000 0.080000 0
0.020000 0.080000 0
0.040000 0.080000 0
0.060000 0.080000 0
0.080000 0.080000 0
0.100000 0.080000 0
0.120000 0.080000 0
0.140000 0.080000 0
0.160000 0.080000 0
0.180000 0.080000 0
0.200000 0.080000 0
0.220000 0.080000 0
0.240000 0.080000 0
0.260000 0.080000 0
0.280000 0.080000 0
0.300000 0.080000 0
0.320000 0.080000 0
0.340000 0.080000 0
0.360000 0.080000 0
0.380000 0.080000 0
0.400000 0.080000 0
0.420000 0.080000 0
0.440000 0.080000 0
0.460000 0.080000 0
0.480000 0.080000 0
0.500000 0.080000 0
0.520000 0.080000 0
0.540000 0.080000 0
0.560000 0.080000 0
0.580000 0.080000 0
0.600000 0.080000 0
0.620000 0.080000 0
0.640000 0.080000 0
0.660000 0.080000 0
0.680000 0.080000 0
0.700000 0.080000 0
0.720000 0.080000 0
0.740000 0.080000 0
0.760000 0.080000 0
0.780000 0.080000 0
0.800000 0.080000 0
0.820000 0.080000 0
0.840000 0.080000 0
0.860000 0.080000 0
0.880000 0.080000 0
0.900000 0.080000 0
0.920000 0.080000 0
0.940000 0.080000 0
0.960000 0.080000 0
0.980000 0.080000 0
1.000000 0.080000 0
1.020000 0.080000 0
1.040000 0.080000 0
1.060000 0.080000 0
1.080000 0.080000 0
1.100000 0.080000 0
1.120000 0.080000 0
1.140000 0.080000 0
1.160000 0.080000 0
1.180000 0.080000 0
1.200000 0.080000 0
1.220000 0.080000 0
1.240000 0.080000 0
1.260000 0.080000 0
1.280000 0.080000 0
1.300000 0.080000 0
1.320000 0.080000 0
1.340000 0.080000 0
1.360000 0.080000 0
1.380000 0.080000 0
1.400000 0.080000 0
1.420000 0.080000 0
1.440000 0.080000 0
1.460000 0.080000 0
1.480000 0.080000 0
1.500000 0.080000 0
1.520000 0.080000 0
1.540000 0.080000 0
1.560000 0.080000 0
1.580000 0.080000 0
1.600000 0.080000 0
1.620000 0.080000 0
1.640000 0.080000 0
1.660000 0.080000 0
1.680000 0.080000 0
1.700000 0.080000 0
1.720000 0.080000 0
1.740000 0.080000 0
1.760000 0.080000 0
1.780000 0.080000 0
1.800000 0.080000 0
1.820000 0.080000 0
1.840000 0.080000 0
1.860000 0.080000 0
1.880000 0.080000 0
[...]
POINT_DATA 4851 

VECTORS velocity float
0.000000 0.000000 0
0.000060 0.000000 0
0.000148 0.000000 0
0.000218 0.000000 0
0.000256 0.000000 0
0.000267 0.000000 0
0.000261 0.000000 0
0.000247 0.000000 0
0.000231 0.000000 0
0.000218 0.000000 0
0.000207 0.000000 0
0.000201 0.000000 0
0.000197 0.000000 0
0.000196 0.000000 0
0.000195 0.000000 0
0.000195 0.000000 0
0.000195 0.000000 0
0.000195 0.000000 0
0.000195 0.000000 0
0.000194 0.000000 0
0.000193 0.000000 0
0.000191 0.000000 0
0.000190 0.000000 0
0.000188 0.000000 0
0.000187 0.000000 0
0.000185 0.000000 0
0.000183 0.000000 0
0.000180 0.000000 0
0.000177 0.000000 0
0.000172 0.000000 0
0.000164 0.000000 0
0.000151 0.000000 0
0.000130 0.000000 0
0.000099 0.000000 0
0.000059 0.000000 0
0.000020 0.000000 0
0.000000 0.000000 0
0.000000 0.000000 0
0.000000 0.000000 0
0.000000 0.000000 0
0.000000 0.000000 0
-0.000001 0.000000 0
0.000032 0.000000 0
0.000095 0.000000 0
0.000175 0.000000 0
0.000254 0.000000 0
0.000322 0.000000 0
0.000372 0.000000 0
0.000402 0.000000 0
0.000414 0.000000 0
0.000411 0.000000 0
0.000397 0.000000 0
0.000377 0.000000 0
0.000354 0.000000 0
0.000330 0.000000 0
0.000309 0.000000 0
0.000290 0.000000 0
0.000275 0.000000 0
0.000264 0.000000 0
0.000257 0.000000 0
0.000254 0.000000 0
0.000253 0.000000 0
0.000254 0.000000 0
0.000257 0.000000 0
0.000261 0.000000 0
0.000266 0.000000 0
0.000270 0.000000 0
0.000275 0.000000 0
0.000279 0.000000 0
0.000282 0.000000 0
0.000285 0.000000 0
0.000288 0.000000 0
0.000290 0.000000 0
0.000292 0.000000 0
0.000293 0.000000 0
0.000295 0.000000 0
0.000296 0.000000 0
0.000297 0.000000 0
0.000298 0.000000 0
0.000300 0.000000 0
0.000301 0.000000 0
0.000303 0.000000 0
0.000305 0.000000 0
0.000307 0.000000 0
0.000310 0.000000 0
0.000313 0.000000 0
0.000317 0.000000 0
0.000322 0.000000 0
0.000328 0.000000 0
0.000337 0.000000 0
0.000350 0.000000 0
0.000369 0.000000 0
0.000397 0.000000 0
0.000440 0.000000 0
0.000502 0.000000 0
0.000578 0.000000 0
0.000622 0.000000 0
0.000475 0.000000 0
0.000000 0.000000 0
0.000000 -0.000060 0
0.000167 -0.000149 0
0.000420 -0.000159 0
0.000631 -0.000109 0
0.000759 -0.000050 0
0.000810 -0.000006 0
0.000807 0.000020 0
0.000777 0.000029 0
0.000737 0.000029 0
0.000699 0.000023 0
0.000670 0.000016 0
0.000650 0.000009 0
0.000638 0.000004 0
0.000632 0.000001 0
0.000630 -0.000000 0
0.000629 -0.000001 0
0.000629 -0.000000 0
0.000627 0.000000 0
0.000625 0.000001 0
0.000621 0.000001 0
0.000617 0.000002 0
0.000612 0.000002 0
0.000606 0.000002 0
0.000599 0.000003 0
0.000592 0.000003 0
0.000583 0.000003 0
0.000574 0.000004 0
0.000562 0.000005 0
0.000546 0.000007 0
0.000524 0.000012 0
0.000492 0.000020 0
0.000444 0.000034 0
0.000374 0.000052 0
0.000279 0.000070 0
0.000166 0.000078 0
0.000057 0.000058 0
0.000000 0.000019 0
0.000000 0.000000 0
0.000000 0.000000 0
0.000000 0.000000 0
0.000000 0.000001 0
0.000029 -0.000031 0
0.000157 -0.000096 0
0.000366 -0.000143 0
0.000618 -0.000159 0
0.000870 -0.000147 0
0.001088 -0.000118 0
0.001255 -0.000080 0
0.001362 -0.000041 0
0.001412 -0.000008 0
0.001415 0.000017 0
0.001382 0.000034 0
0.001326 0.000044 0
0.001256 0.000047 0
0.001183 0.000045 0
0.001113 0.000040 0
0.001051 0.000034 0
0.001000 0.000026 0
0.000961 0.000018 0
0.000935 0.000011 0
0.000919 0.000005 0
0.000913 -0.000000 0
0.000915 -0.000004 0
0.000922 -0.000007 0
0.000933 -0.000008 0
0.000945 -0.000009 0
0.000959 -0.000009 0
0.000972 -0.000008 0
0.000983 -0.000007 0
0.000994 -0.000006 0
0.001003 -0.000005 0
0.001011 -0.000004 0
0.001017 -0.000004 0
0.001022 -0.000003 0
0.001027 -0.000003 0
0.001031 -0.000002 0
0.001034 -0.000002 0
0.001038 -0.000002 0
0.001041 -0.000002 0
0.001045 -0.000003 0
0.001049 -0.000003 0
0.001054 -0.000003 0
0.001059 -0.000004 0
0.001066 -0.000005 0
0.001073 -0.000005 0
0.001083 -0.000007 0
0.001095 -0.000009 0
0.001110 -0.000011 0
0.001130 -0.000015 0
0.001156 -0.000022 0
0.001193 -0.000031 0
0.001242 -0.000047 0
0.001310 -0.000071 0
0.001397 -0.000104 0
0.001496 -0.000138 0
0.001567 -0.000120 0
0.001477 0.000103 0
0.000958 0.000622 0
0.000000 0.000475 0
0.000000 -0.000168 0
0.000229 -0.000421 0
0.000584 -0.000465 0
0.000895 -0.000340 0
0.001099 -0.000180 0
0.001197 -0.000050 0
0.001216 0.000032 0
0.001189 0.000070 0
0.001141 0.000077 0
0.001092 0.000066 0
0.001052 0.000048 0
0.001023 0.000031 0
0.001005 0.000016 0
0.000995 0.000007 0
0.000990 0.000002 0
0.000987 0.000001 0
0.000984 0.000001 0
0.000980 0.000003 0
0.000975 0.000005 0
0.000968 0.000007 0
0.000959 0.000009 0
0.000949 0.000010 0
0.000936 0.000012 0
0.000923 0.000013 0
0.000907 0.000015 0
0.000889 0.000017 0
0.000868 0.000021 0
0.000843 0.000027 0
0.000810 0.000036 0
0.000766 0.000053 0
0.000706 0.000079 0
0.000623 0.000117 0
0.000512 0.000164 0
0.000374 0.000208 0
0.000218 0.000221 0
0.000076 0.000165 0
0.000000 0.000057 0
0.000000 0.000000 0
0.000000 0.000000 0
0.000000 0.000000 0
0.000000 -0.000028 0
0.000088 -0.000156 0
0.000328 -0.000337 0
0.000677 -0.000461 0
0.001080 -0.000503 0
0.001478 -0.000470 0
0.001828 -0.000384 0
0.002101 -0.000273 0
0.002287 -0.000157 0
0.002387 -0.000053 0
0.002413 0.000030 0
0.002379 0.000090 0
0.002303 0.000126 0
0.002202 0.000143 0
0.002090 0.000144 0
0.001980 0.000132 0
0.001879 0.000113 0
0.001794 0.000090 0
0.001727 0.000066 0
0.001679 0.000042 0
0.001648 0.000022 0
0.001633 0.000005 0
0.001630 -0.000008 0
0.001637 -0.000017 0
0.001650 -0.000023 0
0.001666 -0.000026 0
0.001684 -0.000026 0
0.001702 -0.000025 0
0.001718 -0.000022 0
0.001732 -0.000019 0
0.001745 -0.000016 0
0.001755 -0.000014 0
0.001763 -0.000011 0
0.001770 -0.000009 0
0.001775 -0.000008 0
0.001779 -0.000007 0
0.001783 -0.000007 0
0.001787 -0.000007 0
0.001791 -0.000007 0
0.001795 -0.000008 0
0.001799 -0.000009 0
0.001805 -0.000010 0
0.001812 -0.000012 0
0.001820 -0.000014 0
0.001831 -0.000017 0
0.001844 -0.000021 0
0.001860 -0.000027 0
0.001881 -0.000035 0
0.001908 -0.000046 0
0.001943 -0.000063 0
0.001987 -0.000086 0
0.002041 -0.000117 0
0.002102 -0.000154 0
0.002155 -0.000186 0
0.002165 -0.000169 0
0.002050 0.000020 0
0.001660 0.000609 0
0.000860 0.001477 0
0.000000 0.000958 0
0.000000 -0.000289 0
0.000242 -0.000734 0
0.000626 -0.000826 0
0.000970 -0.000624 0
0.001206 -0.000353 0
0.001329 -0.000123 0
0.001365 0.000028 0
0.001346 0.000104 0
0.001303 0.000125 0
0.001255 0.000112 0
0.001214 0.000085 0
0.001184 0.000056 0
0.001163 0.000032 0
0.001151 0.000016 0
0.001143 0.000007 0
0.001137 0.000005 0
0.001131 0.000006 0
0.001124 0.000009 0
0.001114 0.000013 0
0.001103 0.000017 0
0.001089 0.000021 0
0.001073 0.000024 0
0.001055 0.000028 0
0.001034 0.000032 0
0.001011 0.000036 0
0.000984 0.000042 0
0.000952 0.000050 0
0.000915 0.000063 0
0.000868 0.000084 0
0.000808 0.000116 0
0.000731 0.000163 0
0.000632 0.000227 0
0.000508 0.000301 0
0.000361 0.000364 0
0.000206 0.000375 0
0.000070 0.000276 0
0.000000 0.000095 0
0.000000 0.000000 0
0.000000 0.000000 0
0.000000 0.000000 0
0.000000 -0.000086 0
0.000134 -0.000358 0
0.000458 -0.000685 0
0.000903 -0.000895 0
0.001399 -0.000959 0
0.001883 -0.000895 0
0.002308 -0.000741 0
0.002645 -0.000539 0
0.002881 -0.000327 0
0.003017 -0.000133 0
0.003065 0.000026 0
0.003042 0.000144 0
0.002965 0.000221 0
0.002856 0.000260 0
0.002729 0.000267 0
0.002601 0.000252 0
0.002482 0.000219 0
0.002378 0.000178 0
0.002295 0.000133 0
0.002233 0.000090 0
0.002191 0.000051 0
0.002167 0.000018 0
0.002158 -0.000008 0
0.002160 -0.000026 0
0.002169 -0.000037 0
0.002182 -0.000043 0
0.002198 -0.000044 0
0.002213 -0.000042 0
0.002228 -0.000038 0
0.002240 -0.000033 0
0.002250 -0.000028 0
0.002258 -0.000023 0
0.002263 -0.000018 0
0.002267 -0.000015 0
0.002270 -0.000012 0
0.002272 -0.000011 0
0.002273 -0.000010 0
0.002274 -0.000010 0
0.002275 -0.000010 0
0.002276 -0.000011 0
0.002279 -0.000013 0
0.002282 -0.000016 0
0.002286 -0.000019 0
0.002293 -0.000023 0
0.002301 -0.000029 0
0.002312 -0.000036 0
0.002327 -0.000046 0
0.002345 -0.000059 0
0.002368 -0.000077 0
0.002396 -0.000100 0
0.002428 -0.000129 0
0.002458 -0.000161 0
0.002475 -0.000185 0
0.002454 -0.000168 0
0.002344 -0.000032 0
0.002060 0.000385 0
0.001500 0.001293 0
0.000664 0.002282 0
0.000000 0.001335 0
0.000000 -0.000410 0
0.000235 -0.001048 0
0.000611 -0.001194 0
0.000952 -0.000920 0
0.001187 -0.000539 0
0.001314 -0.000208 0
0.001354 0.000014 0
0.001342 0.000131 0
0.001305 0.000168 0
0.001262 0.000155 0
0.001224 0.000120 0
0.001195 0.000081 0
0.001174 0.000049 0
0.001160 0.000027 0
0.001149 0.000016 0
0.001139 0.000012 0
0.001128 0.000015 0
0.001115 0.000020 0
0.001101 0.000026 0
0.001084 0.000032 0
0.001065 0.000038 0
0.001043 0.000044 0
0.001019 0.000050 0
0.000992 0.000057 0
0.000962 0.000065 0
0.000928 0.000075 0
0.000889 0.000089 0
0.000843 0.000111 0
0.000789 0.000142 0
0.000723 0.000189 0
0.000641 0.000256 0
0.000541 0.000341 0
0.000424 0.000435 0
0.000293 0.000509 0
0.000161 0.000512 0
0.000052 0.000370 0
0.000000 0.000127 0
0.000000 0.000000 0
0.000000 0.000000 0
0.000000 0.000000 0
0.000000 -0.000162 0
0.000162 -0.000614 0
0.000543 -0.001107 0
0.001051 -0.001402 0
0.001603 -0.001483 0
0.002134 -0.001378 0
0.002596 -0.001146 0
0.002962 -0.000845 0
0.003221 -0.000529 0
0.003377 -0.000238 0
0.003439 0.000006 0
0.003426 0.000190 0
0.003356 0.000313 0
0.003248 0.000379 0
0.003121 0.000398 0
0.002990 0.000380 0
0.002867 0.000336 0
0.002758 0.000277 0
0.002669 0.000211 0
0.002602 0.000146 0
0.002554 0.000087 0
0.002524 0.000038 0
0.002509 -0.000001 0
0.002504 -0.000028 0
0.002506 -0.000046 0
0.002512 -0.000055 0
0.002519 -0.000057 0
0.002527 -0.000054 0
0.002534 -0.000049 0
0.002538 -0.000041 0
0.002541 -0.000034 0
0.002542 -0.000027 0
0.002541 -0.000021 0
0.002539 -0.000016 0
0.002536 -0.000012 0
0.002532 -0.000010 0
0.002528 -0.000009 0
0.002524 -0.000008 0
0.002520 -0.000009 0
0.002517 -0.000011 0
0.002514 -0.000014 0
0.002513 -0.000018 0
0.002513 -0.000022 0
0.002514 -0.000028 0
0.002517 -0.000036 0
0.002522 -0.000046 0
0.002529 -0.000059 0
0.002539 -0.000076 0
0.002551 -0.000097 0
0.002564 -0.000122 0
0.002573 -0.000147 0
0.002572 -0.000164 0
0.002542 -0.000150 0
0.002454 -0.000054 0
0.002257 0.000225 0
0.001883 0.000864 0
0.001276 0.002005 0
0.000506 0.002977 0
0.000000 0.001622 0
0.000000 -0.000524 0
0.000218 -0.001346 0
0.000569 -0.001543 0
0.000884 -0.001201 0
0.001102 -0.000715 0
0.001217 -0.000291 0
0.001254 -0.000001 0
0.001243 0.000154 0
0.001210 0.000205 0
0.001171 0.000193 0
0.001137 0.000152 0
0.001110 0.000105 0
0.001089 0.000066 0
0.001072 0.000041 0
0.001056 0.000028 0
0.001041 0.000025 0
0.001024 0.000029 0
0.001006 0.000036 0
0.000986 0.000044 0
0.000963 0.000053 0
0.000938 0.000061 0
0.000912 0.000070 0
0.000882 0.000079 0
0.000850 0.000088 0
0.000815 0.000100 0
0.000776 0.000115 0
0.000733 0.000135 0
0.000685 0.000163 0
0.000629 0.000204 0
0.000564 0.000263 0
0.000488 0.000344 0
0.000401 0.000444 0
0.000304 0.000549 0
0.000202 0.000626 0
0.000106 0.000616 0
0.000032 0.000437 0
0.000000 0.000147 0
0.000000 0.000000 0
0.000000 0.000000 0
0.000000 0.000000 0
0.000000 -0.000248 0
0.000178 -0.000901 0
0.000592 -0.001574 0
0.001136 -0.001955 0
0.001718 -0.002042 0
0.002268 -0.001888 0
0.002739 -0.001569 0
0.003108 -0.001164 0
0.003369 -0.000742 0
0.003526 -0.000351 0
0.003591 -0.000023 0
0.003582 0.000228 0
0.003517 0.000398 0
0.003416 0.000494 0
0.003296 0.000525 0
0.003171 0.000506 0
0.003053 0.000452 0
0.002949 0.000376 0
0.002863 0.000290 0
0.002797 0.000205 0
0.002748 0.000128 0
0.002714 0.000063 0
0.002693 0.000013 0
0.002680 -0.000023 0
0.002672 -0.000045 0
0.002666 -0.000056 0
0.002662 -0.000059 0
0.002657 -0.000056 0
0.002651 -0.000049 0
0.002644 -0.000040 0
0.002636 -0.000031 0
0.002626 -0.000023 0
0.002616 -0.000015 0
0.002605 -0.000009 0
0.002594 -0.000005 0
0.002583 -0.000002 0
0.002572 -0.000001 0
0.002561 -0.000002 0
0.002551 -0.000003 0
0.002542 -0.000005 0
0.002534 -0.000009 0
0.002526 -0.000014 0
0.002520 -0.000020 0
0.002515 -0.000027 0
0.002510 -0.000037 0
0.002507 -0.000048 0
0.002505 -0.000063 0
0.002504 -0.000081 0
0.002502 -0.000101 0
0.002497 -0.000122 0
0.002485 -0.000137 0
0.002457 -0.000130 0
0.002394 -0.000067 0
0.002267 0.000117 0
0.002033 0.000538 0
0.001639 0.001367 0
0.001058 0.002670 0
0.000387 0.003559 0
0.000000 0.001842 0
0.000000 -0.000629 0
0.000198 -0.001618 0
0.000513 -0.001860 0
0.000793 -0.001453 0
0.000982 -0.000872 0
0.001079 -0.000361 0
0.001107 -0.000012 0
0.001093 0.000175 0
0.001062 0.000239 0
0.001027 0.000227 0
0.000996 0.000181 0
0.000969 0.000129 0
0.000947 0.000086 0
0.000926 0.000059 0
0.000906 0.000046 0
0.000885 0.000044 0
0.000862 0.000049 0
0.000837 0.000058 0
0.000811 0.000068 0
0.000783 0.000079 0
0.000753 0.000090 0
0.000722 0.000100 0
0.000689 0.000111 0
0.000653 0.000124 0
0.000615 0.000138 0
0.000575 0.000157 0
0.000531 0.000181 0
0.000484 0.000215 0
0.000433 0.000263 0
0.000376 0.000330 0
0.000314 0.000418 0
0.000246 0.000525 0
0.000176 0.000634 0
0.000109 0.000707 0
0.000052 0.000681 0
0.000013 0.000476 0
0.000000 0.000158 0
0.000000 0.000000 0
0.000000 0.000000 0
0.000000 0.000000 0
0.000000 -0.000339 0
0.000186 -0.001205 0
0.000617 -0.002065 0
0.001178 -0.002528 0
0.001767 -0.002614 0
0.002313 -0.002399 0
0.002771 -0.001986 0
0.003123 -0.001475 0
0.003367 -0.000947 0
0.003510 -0.000460 0
0.003567 -0.000050 0
0.003555 0.000264 0
0.003493 0.000478 0
0.003398 0.000601 0
0.003286 0.000643 0
0.003172 0.000623 0
0.003065 0.000559 0
0.002970 0.000467 0
0.002892 0.000364 0
0.002830 0.000262 0
0.002782 0.000170 0
0.002746 0.000093 0
0.002717 0.000034 0
0.002693 -0.000007 0
0.002672 -0.000032 0
0.002652 -0.000045 0
0.002632 -0.000047 0
0.002612 -0.000043 0
0.002590 -0.000036 0
0.002569 -0.000026 0
0.002547 -0.000016 0
0.002525 -0.000007 0
0.002504 0.000001 0
0.002484 0.000006 0
0.002464 0.000010 0
0.002445 0.000012 0
0.002427 0.000013 0
0.002411 0.000012 0
0.002395 0.000010 0
0.002380 0.000006 0
0.002366 0.000002 0
0.002353 -0.000004 0
0.002340 -0.000010 0
0.002328 -0.000019 0
0.002317 -0.000029 0
0.002305 -0.000041 0
0.002293 -0.000056 0
0.002280 -0.000072 0
0.002266 -0.000090 0
0.002247 -0.000105 0
0.002220 -0.000107 0
0.002178 -0.000073 0
0.002103 0.000039 0
0.001970 0.000307 0
0.001741 0.000853 0
0.001375 0.001839 0
0.000858 0.003257 0
0.000294 0.004035 0
0.000000 0.002010 0
0.000000 -0.000723 0
0.000176 -0.001860 0
0.000452 -0.002139 0
0.000692 -0.001670 0
0.000848 -0.001001 0
0.000922 -0.000415 0
0.000939 -0.000016 0
0.000922 0.000198 0
0.000892 0.000271 0
0.000859 0.000259 0
0.000830 0.000209 0
0.000803 0.000154 0
0.000779 0.000109 0
0.000754 0.000082 0
0.000728 0.000070 0
0.000701 0.000069 0
0.000672 0.000076 0
0.000641 0.000086 0
0.000610 0.000098 0
0.000577 0.000110 0
0.000544 0.000122 0
0.000509 0.000134 0
0.000474 0.000147 0
0.000437 0.000161 0
0.000398 0.000178 0
0.000359 0.000198 0
0.000319 0.000225 0
0.000277 0.000261 0
0.000234 0.000312 0
0.000189 0.000382 0
0.000144 0.000474 0
0.000100 0.000581 0
0.000060 0.000686 0
0.000027 0.000750 0
0.000006 0.000711 0
-0.000002 0.000489 0
0.000000 0.000161 0
0.000000 0.000000 0
0.000000 0.000000 0
0.000000 0.000000 0
0.000000 -0.000433 0
0.000189 -0.001518 0
0.000627 -0.002566 0
0.001188 -0.003104 0
0.001767 -0.003177 0
0.002289 -0.002891 0
0.002717 -0.002379 0
0.003035 -0.001760 0
0.003247 -0.001128 0
0.003365 -0.000551 0
0.003405 -0.000068 0
0.003383 0.000302 0
0.003319 0.000556 0
0.003228 0.000700 0
0.003125 0.000751 0
0.003022 0.000728 0
0.002926 0.000654 0
0.002842 0.000548 0
0.002771 0.000431 0
0.002713 0.000315 0
0.002665 0.000213 0
0.002622 0.000129 0
0.002584 0.000065 0
0.002546 0.000022 0
0.002509 -0.000004 0
0.002471 -0.000016 0
0.002433 -0.000018 0
0.002395 -0.000014 0
0.002357 -0.000006 0
0.002321 0.000003 0
0.002286 0.000012 0
0.002253 0.000020 0
0.002223 0.000027 0
0.002194 0.000031 0
0.002168 0.000034 0
0.002143 0.000034 0
0.002121 0.000033 0
0.002099 0.000031 0
0.002079 0.000028 0
0.002061 0.000024 0
0.002043 0.000018 0
0.002025 0.000012 0
0.002009 0.000005 0
0.001992 -0.000004 0
0.001974 -0.000013 0
0.001956 -0.000025 0
0.001936 -0.000038 0
0.001914 -0.000053 0
0.001891 -0.000068 0
0.001864 -0.000077 0
0.001833 -0.000068 0
0.001791 -0.000012 0
0.001726 0.000141 0
0.001615 0.000479 0
0.001424 0.001133 0
0.001113 0.002250 0
0.000677 0.003751 0
0.000217 0.004416 0
0.000000 0.002136 0
0.000000 -0.000806 0
0.000155 -0.002071 0
0.000391 -0.002376 0
0.000589 -0.001849 0
0.000711 -0.001102 0
0.000763 -0.000452 0
0.000767 -0.000012 0
0.000747 0.000222 0
0.000718 0.000301 0
0.000688 0.000289 0
0.000659 0.000237 0
0.000632 0.000180 0
0.000605 0.000136 0
0.000576 0.000109 0
0.000545 0.000099 0
0.000512 0.000100 0
0.000478 0.000108 0
0.000443 0.000120 0
0.000408 0.000132 0
0.000373 0.000145 0
0.000337 0.000157 0
0.000301 0.000170 0
0.000265 0.000184 0
0.000228 0.000199 0
0.000192 0.000216 0
0.000156 0.000236 0
0.000121 0.000263 0
0.000087 0.000299 0
0.000054 0.000350 0
0.000024 0.000419 0
-0.000002 0.000507 0
-0.000023 0.000610 0
-0.000036 0.000707 0
-0.000037 0.000760 0
-0.000028 0.000710 0
-0.000012 0.000482 0
0.000000 0.000157 0
0.000000 0.000000 0
0.000000 0.000000 0
0.000000 0.000000 0
0.000000 -0.000528 0
0.000190 -0.001832 0
0.000626 -0.003064 0
0.001174 -0.003667 0
0.001726 -0.003715 0
0.002210 -0.003349 0
0.002593 -0.002732 0
0.002865 -0.002005 0
0.003036 -0.001277 0
0.003121 -0.000617 0
0.003136 -0.000069 0
0.003100 0.000349 0
0.003029 0.000634 0
0.002938 0.000795 0
0.002840 0.000850 0
0.002744 0.000823 0
0.002656 0.000738 0
0.002579 0.000621 0
0.002512 0.000493 0
0.002452 0.000369 0
0.002397 0.000261 0
0.002343 0.000174 0
0.002289 0.000111 0
0.002234 0.000068 0
0.002177 0.000043 0
0.002120 0.000032 0
0.002064 0.000029 0
0.002010 0.000033 0
0.001959 0.000039 0
0.001911 0.000045 0
0.001868 0.000052 0
0.001829 0.000057 0
0.001793 0.000060 0
0.001761 0.000061 0
0.001732 0.000061 0
0.001706 0.000060 0
0.001682 0.000057 0
0.001660 0.000053 0
0.001639 0.000049 0
0.001620 0.000043 0
0.001601 0.000037 0
0.001583 0.000031 0
0.001565 0.000024 0
0.001546 0.000016 0
0.001526 0.000007 0
0.001504 -0.000002 0
0.001479 -0.000014 0
0.001453 -0.000027 0
0.001426 -0.000040 0
0.001400 -0.000047 0
0.001375 -0.000033 0
0.001349 0.000034 0
0.001312 0.000215 0
0.001244 0.000609 0
0.001107 0.001356 0
0.000866 0.002586 0
0.000515 0.004153 0
0.000153 0.004712 0
0.000000 0.002227 0
0.000000 -0.000878 0
0.000134 -0.002251 0
0.000332 -0.002573 0
0.000490 -0.001990 0
0.000579 -0.001175 0
0.000610 -0.000472 0
0.000604 -0.000000 0
0.000581 0.000247 0
0.000553 0.000330 0
0.000524 0.000317 0
0.000497 0.000264 0
0.000469 0.000208 0
0.000439 0.000165 0
0.000407 0.000141 0
0.000372 0.000133 0
0.000335 0.000136 0
0.000298 0.000145 0
0.000261 0.000156 0
0.000223 0.000169 0
0.000187 0.000181 0
0.000150 0.000194 0
0.000115 0.000206 0
0.000080 0.000220 0
0.000046 0.000234 0
0.000013 0.000250 0
-0.000017 0.000269 0
-0.000046 0.000294 0
-0.000071 0.000327 0
-0.000092 0.000374 0
-0.000108 0.000438 0
-0.000117 0.000521 0
-0.000117 0.000614 0
-0.000106 0.000700 0
-0.000083 0.000742 0
-0.000051 0.000685 0
-0.000019 0.000460 0
0.000000 0.000148 0
0.000000 0.000000 0
0.000000 0.000000 0
0.000000 0.000000 0
0.000000 -0.000623 0
0.000190 -0.002144 0
0.000616 -0.003549 0
0.001140 -0.004204 0
0.001653 -0.004213 0
0.002087 -0.003758 0
0.002414 -0.003033 0
0.002633 -0.002203 0
0.002757 -0.001384 0
0.002803 -0.000651 0
0.002790 -0.000047 0
0.002735 0.000409 0
0.002653 0.000718 0
0.002556 0.000889 0
0.002456 0.000945 0
0.002359 0.000912 0
0.002270 0.000819 0
0.002189 0.000693 0
0.002114 0.000558 0
0.002042 0.000430 0
0.001971 0.000321 0
0.001899 0.000236 0
0.001824 0.000175 0
0.001748 0.000135 0
0.001672 0.000110 0
0.001600 0.000097 0
0.001531 0.000092 0
0.001469 0.000091 0
0.001412 0.000093 0
0.001362 0.000094 0
0.001318 0.000095 0
0.001280 0.000095 0
0.001247 0.000094 0
0.001218 0.000092 0
0.001193 0.000089 0
0.001171 0.000085 0
0.001151 0.000080 0
0.001132 0.000074 0
0.001116 0.000068 0
0.001100 0.000062 0
0.001085 0.000055 0
0.001069 0.000049 0
0.001054 0.000042 0
0.001037 0.000036 0
0.001018 0.000029 0
0.000996 0.000022 0
0.000972 0.000012 0
0.000946 0.000000 0