# vtk DataFile Version 2.0
generated by CFD-lab course output (written by Tobias Neckel) 
ASCII

DATASET STRUCTURED_GRID
DIMENSIONS  99 49 1 
POINTS 4851 float

0.000000 0.000000 0
0.020000 0.000000 0
0.040000 0.000000 0
0.060000 0.000000 0
0.080000 0.000000 0
0.100000 0.000000 0
0.120000 0.000000 0
0.140000 0.000000 0
0.160000 0.000000 0
0.180000 0.000000 0
0.200000 0.000000 0
0.220000 0.000000 0
0.240000 0.000000 0
0.260000 0.000000 0
0.280000 0.000000 0
0.300000 0.000000 0
0.320000 0.000000 0
0.340000 0.000000 0
0.360000 0.000000 0
0.380000 0.000000 0
0.400000 0.000000 0
0.420000 0.000000 0
0.440000 0.000000 0
0.460000 0.000000 0
0.480000 0.000000 0
0.500000 0.000000 0
0.520000 0.000000 0
0.540000 0.000000 0
0.560000 0.000000 0
0.580000 0.000000 0
0.600000 0.000000 0
0.620000 0.000000 0
0.640000 0.000000 0
0.660000 0.000000 0
0.680000 0.000000 0
0.700000 0.000000 0
0.720000 0.000000 0
0.740000 0.000000 0
0.760000 0.000000 0
0.780000 0.000000 0
0.800000 0.000000 0
0.820000 0.000000 0
0.840000 0.000000 0
0.860000 0.000000 0
0.880000 0.000000 0
0.900000 0.000000 0
0.920000 0.000000 0
0.940000 0.000000 0
0.960000 0.000000 0
0.980000 0.000000 0
1.000000 0.000000 0
1.020000 0.000000 0
1.040000 0.000000 0
1.060000 0.000000 0
1.080000 0.000000 0
1.100000 0.000000 0
1.120000 0.000000 0
1.140000 0.000000 0
1.160000 0.000000 0
1.180000 0.000000 0
1.200000 0.000000 0
1.220000 0.000000 0
1.240000 0.000000 0
1.260000 0.000000 0
1.280000 0.000000 0
1.300000 0.000000 0
1.320000 0.000000 0
1.340000 0.000000 0
1.360000 0.000000 0
1.380000 0.000000 0
1.400000 0.000000 0
1.420000 0.000000 0
1.440000 0.000000 0
1.460000 0.000000 0
1.480000 0.000000 0
1.500000 0.000000 0
1.520000 0.000000 0
1.540000 0.000000 0
1.560000 0.000000 0
1.580000 0.000000 0
1.600000 0.000000 0
1.620000 0.000000 0
1.640000 0.000000 0
1.660000 0.000000 0
1.680000 0.000000 0
1.700000 0.000000 0
1.720000 0.000000 0
1.740000 0.000000 0
1.760000 0.000000 0
1.780000 0.000000 0
1.800000 0.000000 0
1.820000 0.000000 0
1.840000 0.000000 0
1.860000 0.000000 0
1.880000 0.000000 0
1.900000 0.000000 0
1.920000 0.000000 0
1.940000 0.000000 0
1.960000 0.000000 0
0.000000 0.020000 0
0.020000 0.020000 0
0.040000 0.020000 0
0.060000 0.020000 0
0.080000 0.020000 0
0.100000 0.020000 0
0.120000 0.020000 0
0.140000 0.020000 0
0.160000 0.020000 0
0.180000 0.020000 0
0.200000 0.020000 0
0.220000 0.020000 0
0.240000 0.020000 0
0.260000 0.020000 0
0.280000 0.020000 0
0.300000 0.020000 0
0.320000 0.020000 0
0.340000 0.020000 0
0.360000 0.020000 0
0.380000 0.020000 0
0.400000 0.020000 0
0.420000 0.020000 0
0.440000 0.020000 0
0.460000 0.020000 0
0.480000 0.020000 0
0.500000 0.020000 0
0.520000 0.020000 0
0.540000 0.020000 0
0.560000 0.020000 0
0.580000 0.020000 0
0.600000 0.020000 0
0.620000 0.020000 0
0.640000 0.020000 0
0.660000 0.020000 0
0.680000 0.020000 0
0.700000 0.020000 0
0.720000 0.020000 0
0.740000 0.020000 0
0.760000 0.020000 0
0.780000 0.020000 0
0.800000 0.020000 0
0.820000 0.020000 0
0.840000 0.020000 0
0.860000 0.020000 0
0.880000 0.020000 0
0.900000 0.020000 0
0.920000 0.020000 0
0.940000 0.020000 0
0.960000 0.020000 0
0.980000 0.020000 0
1.000000 0.020000 0
1.020000 0.020000 0
1.040000 0.020000 0
1.060000 0.020000 0
1.080000 0.020000 0
1.100000 0.020000 0
1.120000 0.020000 0
1.140000 0.020000 0
1.160000 0.020000 0
1.180000 0.020000 0
1.200000 0.020000 0
1.220000 0.020000 0
1.240000 0.020000 0
1.260000 0.020000 0
1.280000 0.020000 0
1.300000 0.020000 0
1.320000 0.020000 0
1.340000 0.020000 0
1.360000 0.020000 0
1.380000 0.020000 0
1.400000 0.020000 0
1.420000 0.020000 0
1.440000 0.020000 0
1.460000 0.020000 0
1.480000 0.020000 0
1.500000 0.020000 0
1.520000 0.020000 0
1.540000 0.020000 0
1.560000 0.020000 0
1.580000 0.020000 0
1.600000 0.020000 0
1.620000 0.020000 0
1.640000 0.020000 0
1.660000 0.020000 0
1.680000 0.020000 0
1.700000 0.020000 0
1.720000 0.020000 0
1.740000 0.020000 0
1.760000 0.020000 0
1.780000 0.020000 0
1.800000 0.020000 0
1.820000 0.020000 0
1.840000 0.020000 0
1.860000 0.020000 0
1.880000 0.020000 0
1.900000 0.020000 0
1.920000 0.020000 0
1.940000 0.020000 0
1.960000 0.020000 0
0.000000 0.040000 0
0.020000 0.040000 0
0.040000 0.040000 0
0.060000 0.040000 0
0.080000 0.040000 0
0.100000 0.040000 0
0.120000 0.040000 0
0.140000 0.040000 0
0.160000 0.040000 0
0.180000 0.040000 0
0.200000 0.040000 0
0.220000 0.040000 0
0.240000 0.040000 0
0.260000 0.040000 0
0.280000 0.040000 0
0.300000 0.040000 0
0.320000 0.040000 0
0.340000 0.040000 0
0.360000 0.040000 0
0.380000 0.040000 0
0.400000 0.040000 0
0.420000 0.040000 0
0.440000 0.040000 0
0.460000 0.040000 0
0.480000 0.040000 0
0.500000 0.040000 0
0.520000 0.040000 0
0.540000 0.040000 0
0.560000 0.040000 0
0.580000 0.040000 0
0.600000 0.040000 0
0.620000 0.040000 0
0.640000 0.040000 0
0.660000 0.040000 0
0.680000 0.040000 0
0.700000 0.040000 0
0.720000 0.040000 0
0.740000 0.040000 0
0.760000 0.040000 0
0.780000 0.040000 0
0.800000 0.040000 0
0.820000 0.040000 0
0.840000 0.040000 0
0.860000 0.040000 0
0.880000 0.040000 0
0.900000 0.040000 0
0.920000 0.040000 0
0.940000 0.040000 0
0.960000 0.040000 0
0.980000 0.040000 0
1.000000 0.040000 0
1.020000 0.040000 0
1.040000 0.040000 0
1.060000 0.040000 0
1.080000 0.040000 0
1.100000 0.040000 0
1.120000 0.040000 0
1.140000 0.040000 0
1.160000 0.040000 0
1.180000 0.040000 0
1.200000 0.040000 0
1.220000 0.040000 0
1.240000 0.040000 0
1.260000 0.040000 0
1.280000 0.040000 0
1.300000 0.040000 0
1.320000 0.040000 0
1.340000 0.040000 0
1.360000 0.040000 0
1.380000 0.040000 0
1.400000 0.040000 0
1.420000 0.040000 0
1.440000 0.040000 0
1.460000 0.040000 0
1.480000 0.040000 0
1.500000 0.040000 0
1.520000 0.040000 0
1.540000 0.040000 0
1.560000 0.040000 0
1.580000 0.040000 0
1.600000 0.040000 0
1.620000 0.040000 0
1.640000 0.040000 0
1.660000 0.040000 0
1.680000 0.040000 0
1.700000 0.040000 0
1.720000 0.040000 0
1.740000 0.040000 0
1.760000 0.040000 0
1.780000 0.040000 0
1.800000 0.040000 0
1.820000 0.040000 0
1.840000 0.040000 0
1.860000 0.040000 0
1.880000 0.040000 0
1.900000 0.040000 0
1.920000 0.040000 0
1.940000 0.040000 0
1.960000 0.040000 0
0.000000 0.060000 0
0.020000 0.060000 0
0.040000 0.060000 0
0.060000 0.060000 0
0.080000 0.060000 0
0.100000 0.060000 0
0.120000 0.060000 0
0.140000 0.060000 0
0.160000 0.060000 0
0.180000 0.060000 0
0.200000 0.060000 0
0.220000 0.060000 0
0.240000 0.060000 0
0.260000 0.060000 0
0.280000 0.060000 0
0.300000 0.060000 0
0.320000 0.060000 0
0.340000 0.060000 0
0.360000 0.060000 0
0.380000 0.060000 0
0.400000 0.060000 0
0.420000 0.060000 0
0.440000 0.060000 0
0.460000 0.060000 0
0.480000 0.060000 0
0.500000 0.060000 0
0.520000 0.060000 0
0.540000 0.060000 0
0.560000 0.060000 0
0.580000 0.060000 0
0.600000 0.060000 0
0.620000 0.060000 0
0.640000 0.060000 0
0.660000 0.060000 0
0.680000 0.060000 0
0.700000 0.060000 0
0.720000 0.060000 0
0.740000 0.060000 0
0.760000 0.060000 0
0.780000 0.060000 0
0.800000 0.060000 0
0.820000 0.060000 0
0.840000 0.060000 0
0.860000 0.060000 0
0.880000 0.060000 0
0.900000 0.060000 0
0.920000 0.060000 0
0.940000 0.060000 0
0.960000 0.060000 0
0.980000 0.060000 0
1.000000 0.060000 0
1.020000 0.060000 0
1.040000 0.060000 0
1.060000 0.060000 0
1.080000 0.060000 0
1.100000 0.060000 0
1.120000 0.060000 0
1.140000 0.060000 0
1.160000 0.060000 0
1.180000 0.060000 0
1.200000 0.060000 0
1.220000 0.060000 0
1.240000 0.060000 0
1.260000 0.060000 0
1.280000 0.060000 0
1.300000 0.060000 0
1.320000 0.060000 0
1.340000 0.060000 0
1.360000 0.060000 0
1.380000 0.060000 0
1.400000 0.060000 0
1.420000 0.060000 0
1.440000 0.060000 0
1.460000 0.060000 0
1.480000 0.060000 0
1.500000 0.060000 0
1.520000 0.060000 0
1.540000 0.060000 0
1.560000 0.060000 0
1.580000 0.060000 0
1.600000 0.060000 0
1.620000 0.060000 0
1.640000 0.060000 0
1.660000 0.060000 0
1.680000 0.060000 0
1.700000 0.060000 0
1.720000 0.060000 0
1.740000 0.060000 0
1.760000 0.060000 0
1.780000 0.060000 0
1.800000 0.060000 0
1.820000 0.060000 0
1.840000 0.060000 0
1.860000 0.060000 0
1.880000 0.060000 0
1.900000 0.060000 0
1.920000 0.060000 0
1.940000 0.060000 0
1.960000 0.060000 0
0.000000 0.080000 0
0.020000 0.080000 0
0.040000 0.080000 0
0.060000 0.080000 0
0.080000 0.080000 0
0.100000 0.080000 0
0.120000 0.080000 0
0.140000 0.080000 0
0.160000 0.080000 0
0.180000 0.080000 0
0.200000 0.080000 0
0.220000 0.080000 0
0.240000 0.080000 0
0.260000 0.080000 0
0.280000 0.080000 0
0.300000 0.080000 0
0.320000 0.080000 0
0.340000 0.080000 0
0.360000 0.080000 0
0.380000 0.080000 0
0.400000 0.080000 0
0.420000 0.080000 0
0.440000 0.080000 0
0.460000 0.080000 0
0.480000 0.080000 0
0.500000 0.080000 0
0.520000 0.080000 0
0.540000 0.080000 0
0.560000 0.080000 0
0.580000 0.080000 0
0.600000 0.080000 0
0.620000 0.080000 0
0.640000 0.080000 0
0.660000 0.080000 0
0.680000 0.080000 0
0.700000 0.080000 0
0.720000 0.080000 0
0.740000 0.080000 0
0.760000 0.080000 0
0.780000 0.080000 0
0.800000 0.080000 0
0.820000 0.080000 0
0.840000 0.080000 0
0.860000 0.080000 0
0.880000 0.080000 0
0.900000 0.080000 0
0.920000 0.080000 0
0.940000 0.080000 0
0.960000 0.080000 0
0.980000 0.080000 0
1.000000 0.080000 0
1.020000 0.080000 0
1.040000 0.080000 0
1.060000 0.080000 0
1.080000 0.080000 0
1.100000 0.080000 0
1.120000 0.080000 0
1.140000 0.080000 0
1.160000 0.080000 0
1.180000 0.080000 0
1.200000 0.080000 0
1.220000 0.080000 0
1.240000 0.080000 0
1.260000 0.080000 0
1.280000 0.080000 0
1.300000 0.080000 0
1.320000 0.080000 0
1.340000 0.080000 0
1.360000 0.080000 0
1.380000 0.080000 0
1.400000 0.080000 0
1.420000 0.080000 0
1.440000 0.080000 0
1.460000 0.080000 0
1.480000 0.080000 0
1.500000 0.080000 0
1.520000 0.080000 0
1.540000 0.080000 0
1.560000 0.080000 0
1.580000 0.080000 0
1.600000 0.080000 0
1.620000 0.080000 0
1.640000 0.080000 0
1.660000 0.080000 0
1.680000 0.080000 0
1.700000 0.080000 0
1.720000 0.080000 0
1.740000 0.080000 0
1.760000 0.080000 0
1.780000 0.080000 0
1.800000 0.080000 0
1.820000 0.080000 0
1.840000 0.080000 0
1.860000 0.080000 0
1.880000 0.080000 0
[...]
POINT_DATA 4851 

VECTORS velocity float
0.000000 0.000000 0
0.000378 0.000000 0
0.000443 0.000000 0
0.000353 0.000000 0
0.000254 0.000000 0
0.000184 0.000000 0
0.000139 0.000000 0
0.000110 0.000000 0
0.000091 0.000000 0
0.000077 0.000000 0
0.000067 0.000000 0
0.000059 0.000000 0
0.000052 0.000000 0
0.000046 0.000000 0
0.000041 0.000000 0
0.000037 0.000000 0
0.000034 0.000000 0
0.000030 0.000000 0
0.000027 0.000000 0
0.000025 0.000000 0
0.000023 0.000000 0
0.000020 0.000000 0
0.000018 0.000000 0
0.000016 0.000000 0
0.000015 0.000000 0
0.000013 0.000000 0
0.000012 0.000000 0
0.000010 0.000000 0
0.000009 0.000000 0
0.000007 0.000000 0
0.000006 0.000000 0
0.000005 0.000000 0
0.000004 0.000000 0
0.000002 0.000000 0
0.000001 0.000000 0
0.000000 0.000000 0
0.000000 0.000000 0
0.000000 0.000000 0
0.000000 0.000000 0
0.000000 0.000000 0
0.000000 0.000000 0
0.000000 0.000000 0
0.000000 0.000000 0
0.000000 0.000000 0
0.000000 0.000000 0
0.000000 0.000000 0
0.000000 0.000000 0
0.000000 0.000000 0
0.000001 0.000000 0
0.000001 0.000000 0
0.000001 0.000000 0
0.000001 0.000000 0
0.000001 0.000000 0
0.000001 0.000000 0
0.000002 0.000000 0
0.000002 0.000000 0
0.000002 0.000000 0
0.000002 0.000000 0
0.000003 0.000000 0
0.000003 0.000000 0
0.000004 0.000000 0
0.000004 0.000000 0
0.000005 0.000000 0
0.000005 0.000000 0
0.000006 0.000000 0
0.000007 0.000000 0
0.000007 0.000000 0
0.000008 0.000000 0
0.000009 0.000000 0
0.000010 0.000000 0
0.000011 0.000000 0
0.000012 0.000000 0
0.000014 0.000000 0
0.000015 0.000000 0
0.000016 0.000000 0
0.000018 0.000000 0
0.000020 0.000000 0
0.000021 0.000000 0
0.000023 0.000000 0
0.000026 0.000000 0
0.000028 0.000000 0
0.000031 0.000000 0
0.000034 0.000000 0
0.000037 0.000000 0
0.000041 0.000000 0
0.000045 0.000000 0
0.000051 0.000000 0
0.000057 0.000000 0
0.000064 0.000000 0
0.000074 0.000000 0
0.000086 0.000000 0
0.000103 0.000000 0
0.000126 0.000000 0
0.000162 0.000000 0
0.000217 0.000000 0
0.000295 0.000000 0
0.000378 0.000000 0
0.000352 0.000000 0
0.000000 0.000000 0
0.000000 -0.000379 0
0.000685 -0.000445 0
0.000910 0.000024 0
0.000813 0.000188 0
0.000642 0.000169 0
0.000496 0.000114 0
0.000390 0.000073 0
0.000317 0.000047 0
0.000264 0.000033 0
0.000225 0.000024 0
0.000196 0.000018 0
0.000172 0.000015 0
0.000152 0.000012 0
0.000136 0.000010 0
0.000122 0.000009 0
0.000110 0.000007 0
0.000099 0.000007 0
0.000090 0.000006 0
0.000081 0.000005 0
0.000073 0.000005 0
0.000066 0.000004 0
0.000060 0.000004 0
0.000054 0.000004 0
0.000049 0.000003 0
0.000044 0.000003 0
0.000039 0.000003 0
0.000034 0.000003 0
0.000030 0.000003 0
0.000026 0.000003 0
0.000022 0.000002 0
0.000018 0.000002 0
0.000014 0.000002 0
0.000011 0.000002 0
0.000007 0.000002 0
0.000004 0.000002 0
0.000001 0.000001 0
0.000000 0.000000 0
0.000000 0.000000 0
0.000000 0.000000 0
0.000000 0.000000 0
0.000000 0.000000 0
0.000000 0.000000 0
0.000000 -0.000000 0
0.000000 -0.000000 0
0.000001 -0.000000 0
0.000001 -0.000000 0
0.000001 -0.000000 0
0.000001 -0.000000 0
0.000002 -0.000000 0
0.000002 -0.000000 0
0.000002 -0.000000 0
0.000003 -0.000000 0
0.000003 -0.000000 0
0.000004 -0.000000 0
0.000005 -0.000000 0
0.000005 -0.000000 0
0.000006 -0.000001 0
0.000007 -0.000001 0
0.000008 -0.000001 0
0.000009 -0.000001 0
0.000011 -0.000001 0
0.000012 -0.000001 0
0.000014 -0.000001 0
0.000015 -0.000001 0
0.000017 -0.000001 0
0.000020 -0.000001 0
0.000022 -0.000002 0
0.000024 -0.000002 0
0.000027 -0.000002 0
0.000030 -0.000002 0
0.000033 -0.000002 0
0.000036 -0.000002 0
0.000040 -0.000002 0
0.000044 -0.000003 0
0.000048 -0.000003 0
0.000053 -0.000003 0
0.000058 -0.000003 0
0.000063 -0.000004 0
0.000069 -0.000004 0
0.000075 -0.000004 0
0.000082 -0.000005 0
0.000090 -0.000005 0
0.000099 -0.000006 0
0.000109 -0.000007 0
0.000121 -0.000008 0
0.000134 -0.000009 0
0.000149 -0.000011 0
0.000167 -0.000013 0
0.000189 -0.000016 0
0.000216 -0.000021 0
0.000251 -0.000028 0
0.000296 -0.000039 0
0.000359 -0.000059 0
0.000447 -0.000090 0
0.000567 -0.000132 0
0.000711 -0.000161 0
0.000809 -0.000056 0
0.000644 0.000379 0
0.000000 0.000353 0
0.000000 -0.000687 0
0.000483 -0.000912 0
0.000788 -0.000129 0
0.000829 0.000267 0
0.000741 0.000316 0
0.000624 0.000251 0
0.000519 0.000178 0
0.000435 0.000125 0
0.000370 0.000091 0
0.000319 0.000068 0
0.000279 0.000053 0
0.000246 0.000043 0
0.000219 0.000035 0
0.000196 0.000030 0
0.000176 0.000026 0
0.000159 0.000022 0
0.000143 0.000020 0
0.000130 0.000018 0
0.000118 0.000016 0
0.000107 0.000014 0
0.000097 0.000013 0
0.000087 0.000012 0
0.000079 0.000011 0
0.000071 0.000010 0
0.000064 0.000010 0
0.000057 0.000009 0
0.000050 0.000009 0
0.000044 0.000008 0
0.000038 0.000008 0
0.000032 0.000008 0
0.000026 0.000007 0
0.000021 0.000007 0
0.000016 0.000007 0
0.000011 0.000007 0
0.000006 0.000006 0
0.000002 0.000004 0
0.000000 0.000001 0
0.000000 0.000000 0
0.000000 0.000000 0
0.000000 0.000000 0
0.000000 -0.000000 0
0.000000 -0.000000 0
0.000000 -0.000000 0
0.000001 -0.000000 0
0.000001 -0.000000 0
0.000001 -0.000000 0
0.000002 -0.000000 0
0.000002 -0.000000 0
0.000003 -0.000001 0
0.000003 -0.000001 0
0.000004 -0.000001 0
0.000004 -0.000001 0
0.000005 -0.000001 0
0.000006 -0.000001 0
0.000007 -0.000001 0
0.000008 -0.000001 0
0.000009 -0.000002 0
0.000010 -0.000002 0
0.000012 -0.000002 0
0.000014 -0.000002 0
0.000015 -0.000003 0
0.000018 -0.000003 0
0.000020 -0.000003 0
0.000023 -0.000004 0
0.000025 -0.000004 0
0.000029 -0.000004 0
0.000032 -0.000005 0
0.000036 -0.000005 0
0.000039 -0.000005 0
0.000044 -0.000006 0
0.000048 -0.000006 0
0.000053 -0.000007 0
0.000058 -0.000007 0
0.000064 -0.000008 0
0.000070 -0.000009 0
0.000077 -0.000009 0
0.000084 -0.000010 0
0.000092 -0.000011 0
0.000100 -0.000012 0
0.000110 -0.000013 0
0.000120 -0.000015 0
0.000131 -0.000016 0
0.000144 -0.000018 0
0.000158 -0.000021 0
0.000174 -0.000024 0
0.000193 -0.000028 0
0.000215 -0.000033 0
0.000240 -0.000039 0
0.000270 -0.000048 0
0.000307 -0.000061 0
0.000353 -0.000079 0
0.000412 -0.000108 0
0.000486 -0.000150 0
0.000580 -0.000207 0
0.000687 -0.000263 0
0.000775 -0.000240 0
0.000752 0.000069 0
0.000469 0.000810 0
0.000000 0.000644 0
0.000000 -0.000864 0
0.000271 -0.001234 0
0.000520 -0.000322 0
0.000628 0.000235 0
0.000628 0.000373 0
0.000575 0.000336 0
0.000508 0.000261 0
0.000443 0.000196 0
0.000387 0.000148 0
0.000340 0.000114 0
0.000301 0.000091 0
0.000268 0.000074 0
0.000240 0.000062 0
0.000215 0.000053 0
0.000194 0.000045 0
0.000176 0.000040 0
0.000159 0.000035 0
0.000144 0.000031 0
0.000131 0.000028 0
0.000119 0.000026 0
0.000108 0.000023 0
0.000098 0.000022 0
0.000088 0.000020 0
0.000079 0.000019 0
0.000071 0.000017 0
0.000063 0.000016 0
0.000056 0.000016 0
0.000049 0.000015 0
0.000042 0.000014 0
0.000036 0.000014 0
0.000030 0.000013 0
0.000023 0.000013 0
0.000018 0.000013 0
0.000012 0.000012 0
0.000007 0.000010 0
0.000002 0.000007 0
0.000000 0.000002 0
0.000000 0.000000 0
0.000000 0.000000 0
0.000000 0.000000 0
0.000000 -0.000000 0
0.000000 -0.000000 0
0.000000 -0.000001 0
0.000001 -0.000001 0
0.000001 -0.000001 0
0.000002 -0.000001 0
0.000002 -0.000001 0
0.000002 -0.000001 0
0.000003 -0.000001 0
0.000003 -0.000001 0
0.000004 -0.000001 0
0.000005 -0.000002 0
0.000006 -0.000002 0
0.000006 -0.000002 0
0.000007 -0.000002 0
0.000009 -0.000003 0
0.000010 -0.000003 0
0.000011 -0.000003 0
0.000013 -0.000004 0
0.000015 -0.000004 0
0.000017 -0.000005 0
0.000020 -0.000005 0
0.000022 -0.000006 0
0.000025 -0.000007 0
0.000028 -0.000007 0
0.000032 -0.000008 0
0.000036 -0.000008 0
0.000040 -0.000009 0
0.000044 -0.000010 0
0.000049 -0.000011 0
0.000054 -0.000011 0
0.000059 -0.000012 0
0.000065 -0.000013 0
0.000072 -0.000014 0
0.000079 -0.000015 0
0.000086 -0.000017 0
0.000094 -0.000018 0
0.000103 -0.000020 0
0.000112 -0.000022 0
0.000122 -0.000024 0
0.000134 -0.000026 0
0.000146 -0.000029 0
0.000160 -0.000033 0
0.000176 -0.000037 0
0.000193 -0.000043 0
0.000213 -0.000049 0
0.000236 -0.000058 0
0.000262 -0.000069 0
0.000293 -0.000083 0
0.000330 -0.000104 0
0.000374 -0.000132 0
0.000426 -0.000172 0
0.000487 -0.000227 0
0.000554 -0.000290 0
0.000612 -0.000327 0
0.000627 -0.000224 0
0.000535 0.000250 0
0.000279 0.001131 0
0.000000 0.000822 0
0.000000 -0.000959 0
0.000146 -0.001433 0
0.000320 -0.000486 0
0.000433 0.000158 0
0.000477 0.000368 0
0.000472 0.000371 0
0.000442 0.000310 0
0.000403 0.000245 0
0.000363 0.000193 0
0.000326 0.000154 0
0.000293 0.000125 0
0.000264 0.000104 0
0.000238 0.000088 0
0.000215 0.000075 0
0.000195 0.000065 0
0.000177 0.000057 0
0.000161 0.000051 0
0.000147 0.000045 0
0.000133 0.000041 0
0.000121 0.000037 0
0.000110 0.000034 0
0.000100 0.000032 0
0.000090 0.000029 0
0.000081 0.000027 0
0.000073 0.000026 0
0.000065 0.000024 0
0.000057 0.000023 0
0.000050 0.000022 0
0.000043 0.000021 0
0.000037 0.000020 0
0.000030 0.000020 0
0.000024 0.000019 0
0.000018 0.000018 0
0.000012 0.000017 0
0.000007 0.000015 0
0.000002 0.000010 0
0.000000 0.000003 0
0.000000 0.000000 0
0.000000 0.000000 0
0.000000 0.000000 0
0.000000 -0.000000 0
0.000000 -0.000001 0
0.000000 -0.000001 0
0.000001 -0.000001 0
0.000001 -0.000001 0
0.000002 -0.000001 0
0.000002 -0.000001 0
0.000002 -0.000001 0
0.000003 -0.000002 0
0.000003 -0.000002 0
0.000004 -0.000002 0
0.000005 -0.000002 0
0.000006 -0.000003 0
0.000007 -0.000003 0
0.000008 -0.000003 0
0.000009 -0.000004 0
0.000010 -0.000004 0
0.000012 -0.000005 0
0.000013 -0.000006 0
0.000015 -0.000006 0
0.000018 -0.000007 0
0.000020 -0.000008 0
0.000023 -0.000009 0
0.000026 -0.000010 0
0.000029 -0.000011 0
0.000033 -0.000011 0
0.000037 -0.000012 0
0.000041 -0.000013 0
0.000045 -0.000014 0
0.000050 -0.000016 0
0.000055 -0.000017 0
0.000061 -0.000018 0
0.000067 -0.000019 0
0.000074 -0.000021 0
0.000081 -0.000023 0
0.000088 -0.000024 0
0.000096 -0.000027 0
0.000105 -0.000029 0
0.000114 -0.000032 0
0.000125 -0.000035 0
0.000136 -0.000038 0
0.000149 -0.000043 0
0.000162 -0.000048 0
0.000178 -0.000054 0
0.000195 -0.000061 0
0.000214 -0.000070 0
0.000235 -0.000082 0
0.000260 -0.000096 0
0.000287 -0.000116 0
0.000319 -0.000141 0
0.000355 -0.000175 0
0.000394 -0.000220 0
0.000434 -0.000277 0
0.000470 -0.000331 0
0.000487 -0.000336 0
0.000460 -0.000163 0
0.000354 0.000417 0
0.000162 0.001346 0
0.000000 0.000924 0
0.000000 -0.001010 0
0.000081 -0.001555 0
0.000198 -0.000610 0
0.000294 0.000077 0
0.000350 0.000335 0
0.000370 0.000372 0
0.000365 0.000331 0
0.000347 0.000275 0
0.000323 0.000224 0
0.000297 0.000184 0
0.000272 0.000153 0
0.000248 0.000129 0
0.000226 0.000110 0
0.000206 0.000095 0
0.000188 0.000083 0
0.000172 0.000074 0
0.000157 0.000066 0
0.000143 0.000059 0
0.000131 0.000053 0
0.000119 0.000049 0
0.000108 0.000045 0
0.000098 0.000041 0
0.000089 0.000038 0
0.000080 0.000036 0
0.000072 0.000034 0
0.000064 0.000032 0
0.000057 0.000030 0
0.000050 0.000029 0
0.000043 0.000028 0
0.000037 0.000027 0
0.000030 0.000026 0
0.000024 0.000025 0
0.000018 0.000024 0
0.000012 0.000023 0
0.000007 0.000020 0
0.000002 0.000014 0
0.000000 0.000005 0
0.000000 0.000000 0
0.000000 0.000000 0
0.000000 0.000000 0
0.000000 -0.000000 0
0.000000 -0.000001 0
0.000000 -0.000001 0
0.000001 -0.000001 0
0.000001 -0.000001 0
0.000002 -0.000002 0
0.000002 -0.000002 0
0.000002 -0.000002 0
0.000003 -0.000002 0
0.000003 -0.000002 0
0.000004 -0.000003 0
0.000005 -0.000003 0
0.000005 -0.000003 0
0.000006 -0.000004 0
0.000007 -0.000004 0
0.000008 -0.000005 0
0.000010 -0.000006 0
0.000011 -0.000007 0
0.000013 -0.000008 0
0.000015 -0.000008 0
0.000017 -0.000009 0
0.000019 -0.000011 0
0.000022 -0.000012 0
0.000025 -0.000013 0
0.000028 -0.000014 0
0.000032 -0.000015 0
0.000036 -0.000016 0
0.000040 -0.000018 0
0.000045 -0.000019 0
0.000050 -0.000021 0
0.000055 -0.000022 0
0.000060 -0.000024 0
0.000066 -0.000026 0
0.000073 -0.000028 0
0.000080 -0.000030 0
0.000087 -0.000032 0
0.000095 -0.000035 0
0.000104 -0.000038 0
0.000113 -0.000041 0
0.000123 -0.000045 0
0.000134 -0.000050 0
0.000146 -0.000055 0
0.000159 -0.000062 0
0.000173 -0.000069 0
0.000188 -0.000078 0
0.000206 -0.000090 0
0.000225 -0.000103 0
0.000246 -0.000120 0
0.000269 -0.000142 0
0.000294 -0.000170 0
0.000320 -0.000206 0
0.000345 -0.000251 0
0.000368 -0.000303 0
0.000380 -0.000342 0
0.000372 -0.000316 0
0.000328 -0.000091 0
0.000232 0.000549 0
0.000096 0.001485 0
0.000000 0.000984 0
0.000000 -0.001041 0
0.000049 -0.001632 0
0.000129 -0.000700 0
0.000204 0.000006 0
0.000258 0.000292 0
0.000287 0.000356 0
0.000296 0.000333 0
0.000292 0.000288 0
0.000280 0.000243 0
0.000263 0.000205 0
0.000246 0.000174 0
0.000227 0.000149 0
0.000210 0.000129 0
0.000193 0.000113 0
0.000178 0.000099 0
0.000163 0.000088 0
0.000150 0.000079 0
0.000137 0.000072 0
0.000126 0.000065 0
0.000115 0.000060 0
0.000105 0.000055 0
0.000095 0.000051 0
0.000087 0.000047 0
0.000078 0.000044 0
0.000070 0.000042 0
0.000063 0.000039 0
0.000056 0.000037 0
0.000049 0.000036 0
0.000042 0.000034 0
0.000036 0.000033 0
0.000030 0.000032 0
0.000024 0.000031 0
0.000018 0.000030 0
0.000012 0.000029 0
0.000007 0.000025 0
0.000002 0.000017 0
0.000000 0.000006 0
0.000000 0.000000 0
0.000000 0.000000 0
0.000000 0.000000 0
0.000000 -0.000000 0
0.000000 -0.000001 0
0.000000 -0.000001 0
0.000001 -0.000002 0
0.000001 -0.000002 0
0.000001 -0.000002 0
0.000002 -0.000002 0
0.000002 -0.000002 0
0.000003 -0.000003 0
0.000003 -0.000003 0
0.000004 -0.000003 0
0.000004 -0.000004 0
0.000005 -0.000004 0
0.000006 -0.000005 0
0.000007 -0.000005 0
0.000008 -0.000006 0
0.000009 -0.000007 0
0.000010 -0.000008 0
0.000012 -0.000009 0
0.000014 -0.000010 0
0.000016 -0.000012 0
0.000018 -0.000013 0
0.000021 -0.000014 0
0.000024 -0.000016 0
0.000027 -0.000017 0
0.000031 -0.000019 0
0.000035 -0.000021 0
0.000039 -0.000022 0
0.000043 -0.000024 0
0.000048 -0.000026 0
0.000053 -0.000028 0
0.000059 -0.000030 0
0.000065 -0.000032 0
0.000071 -0.000034 0
0.000077 -0.000037 0
0.000085 -0.000040 0
0.000092 -0.000043 0
0.000100 -0.000047 0
0.000109 -0.000051 0
0.000119 -0.000056 0
0.000129 -0.000061 0
0.000140 -0.000067 0
0.000152 -0.000075 0
0.000165 -0.000083 0
0.000179 -0.000094 0
0.000194 -0.000106 0
0.000210 -0.000121 0
0.000227 -0.000140 0
0.000245 -0.000163 0
0.000263 -0.000192 0
0.000281 -0.000227 0
0.000295 -0.000268 0
0.000304 -0.000311 0
0.000302 -0.000336 0
0.000282 -0.000284 0
0.000235 -0.000023 0
0.000157 0.000649 0
0.000061 0.001578 0
0.000000 0.001020 0
0.000000 -0.001060 0
0.000032 -0.001684 0
0.000088 -0.000765 0
0.000146 -0.000052 0
0.000193 0.000251 0
0.000223 0.000333 0
0.000239 0.000326 0
0.000243 0.000291 0
0.000239 0.000253 0
0.000230 0.000218 0
0.000219 0.000189 0
0.000206 0.000164 0
0.000192 0.000144 0
0.000179 0.000127 0
0.000166 0.000113 0
0.000153 0.000101 0
0.000141 0.000091 0
0.000130 0.000083 0
0.000120 0.000076 0
0.000110 0.000070 0
0.000100 0.000064 0
0.000091 0.000060 0
0.000083 0.000056 0
0.000075 0.000052 0
0.000068 0.000049 0
0.000061 0.000046 0
0.000054 0.000044 0
0.000047 0.000042 0
0.000041 0.000041 0
0.000035 0.000039 0
0.000029 0.000038 0
0.000023 0.000037 0
0.000017 0.000036 0
0.000012 0.000034 0
0.000006 0.000030 0
0.000002 0.000020 0
0.000000 0.000007 0
0.000000 0.000000 0
0.000000 0.000000 0
0.000000 0.000000 0
0.000000 -0.000000 0
0.000000 -0.000001 0
0.000000 -0.000002 0
0.000001 -0.000002 0
0.000001 -0.000002 0
0.000001 -0.000002 0
0.000002 -0.000002 0
0.000002 -0.000003 0
0.000002 -0.000003 0
0.000003 -0.000003 0
0.000003 -0.000004 0
0.000004 -0.000004 0
0.000004 -0.000005 0
0.000005 -0.000006 0
0.000006 -0.000006 0
0.000007 -0.000007 0
0.000008 -0.000008 0
0.000009 -0.000010 0
0.000011 -0.000011 0
0.000012 -0.000012 0
0.000014 -0.000014 0
0.000017 -0.000016 0
0.000019 -0.000017 0
0.000022 -0.000019 0
0.000026 -0.000021 0
0.000029 -0.000023 0
0.000033 -0.000025 0
0.000037 -0.000026 0
0.000042 -0.000028 0
0.000046 -0.000031 0
0.000051 -0.000033 0
0.000057 -0.000035 0
0.000062 -0.000038 0
0.000068 -0.000040 0
0.000075 -0.000043 0
0.000081 -0.000047 0
0.000089 -0.000051 0
0.000096 -0.000055 0
0.000105 -0.000060 0
0.000113 -0.000065 0
0.000123 -0.000071 0
0.000133 -0.000078 0
0.000143 -0.000086 0
0.000155 -0.000096 0
0.000167 -0.000107 0
0.000180 -0.000121 0
0.000193 -0.000136 0
0.000207 -0.000155 0
0.000220 -0.000178 0
0.000233 -0.000206 0
0.000243 -0.000238 0
0.000250 -0.000275 0
0.000250 -0.000309 0
0.000240 -0.000320 0
0.000215 -0.000248 0
0.000172 0.000035 0
0.000110 0.000723 0
0.000041 0.001642 0
0.000000 0.001044 0
0.000000 -0.001073 0
0.000022 -0.001721 0
0.000064 -0.000814 0
0.000108 -0.000099 0
0.000147 0.000215 0
0.000176 0.000309 0
0.000194 0.000313 0
0.000202 0.000288 0
0.000204 0.000256 0
0.000200 0.000225 0
0.000193 0.000199 0
0.000184 0.000175 0
0.000174 0.000156 0
0.000163 0.000139 0
0.000153 0.000125 0
0.000142 0.000113 0
0.000132 0.000102 0
0.000122 0.000093 0
0.000113 0.000085 0
0.000104 0.000079 0
0.000095 0.000073 0
0.000087 0.000068 0
0.000079 0.000063 0
0.000072 0.000060 0
0.000065 0.000056 0
0.000058 0.000053 0
0.000051 0.000051 0
0.000045 0.000049 0
0.000039 0.000047 0
0.000033 0.000045 0
0.000027 0.000044 0
0.000022 0.000043 0
0.000016 0.000041 0
0.000011 0.000039 0
0.000006 0.000034 0
0.000002 0.000023 0
0.000000 0.000008 0
0.000000 0.000000 0
0.000000 0.000000 0
0.000000 0.000000 0
0.000000 -0.000000 0
0.000000 -0.000001 0
0.000000 -0.000002 0
0.000001 -0.000002 0
0.000001 -0.000002 0
0.000001 -0.000002 0
0.000001 -0.000003 0
0.000002 -0.000003 0
0.000002 -0.000003 0
0.000002 -0.000004 0
0.000003 -0.000004 0
0.000003 -0.000005 0
0.000004 -0.000005 0
0.000004 -0.000006 0
0.000005 -0.000007 0
0.000006 -0.000008 0
0.000006 -0.000010 0
0.000008 -0.000011 0
0.000009 -0.000013 0
0.000011 -0.000014 0
0.000013 -0.000016 0
0.000015 -0.000018 0
0.000018 -0.000020 0
0.000020 -0.000022 0
0.000024 -0.000024 0
0.000027 -0.000026 0
0.000031 -0.000028 0
0.000035 -0.000031 0
0.000039 -0.000033 0
0.000044 -0.000035 0
0.000049 -0.000038 0
0.000054 -0.000040 0
0.000059 -0.000043 0
0.000065 -0.000046 0
0.000071 -0.000050 0
0.000078 -0.000054 0
0.000084 -0.000058 0
0.000092 -0.000062 0
0.000099 -0.000068 0
0.000107 -0.000074 0
0.000116 -0.000080 0
0.000125 -0.000088 0
0.000134 -0.000097 0
0.000144 -0.000107 0
0.000155 -0.000118 0
0.000165 -0.000132 0
0.000176 -0.000148 0
0.000186 -0.000167 0
0.000196 -0.000189 0
0.000204 -0.000214 0
0.000209 -0.000243 0
0.000210 -0.000275 0
0.000205 -0.000301 0
0.000192 -0.000300 0
0.000167 -0.000215 0
0.000129 0.000082 0
0.000080 0.000780 0
0.000029 0.001688 0
0.000000 0.001061 0
0.000000 -0.001083 0
0.000016 -0.001749 0
0.000048 -0.000851 0
0.000083 -0.000136 0
0.000115 0.000183 0
0.000140 0.000286 0
0.000158 0.000299 0
0.000168 0.000281 0
0.000173 0.000255 0
0.000173 0.000228 0
0.000169 0.000204 0
0.000163 0.000183 0
0.000156 0.000165 0
0.000148 0.000148 0
0.000140 0.000134 0
0.000131 0.000122 0
0.000122 0.000111 0
0.000114 0.000102 0
0.000105 0.000094 0
0.000097 0.000087 0
0.000090 0.000081 0
0.000082 0.000075 0
0.000075 0.000071 0
0.000068 0.000067 0
0.000061 0.000063 0
0.000055 0.000060 0
0.000049 0.000057 0
0.000043 0.000055 0
0.000037 0.000052 0
0.000032 0.000051 0
0.000026 0.000049 0
0.000021 0.000048 0
0.000016 0.000046 0
0.000011 0.000044 0
0.000006 0.000039 0
0.000002 0.000026 0
0.000000 0.000009 0
0.000000 0.000000 0
0.000000 0.000000 0
0.000000 0.000000 0
0.000000 -0.000000 0
0.000000 -0.000001 0
0.000000 -0.000002 0
0.000000 -0.000002 0
0.000001 -0.000003 0
0.000001 -0.000003 0
0.000001 -0.000003 0
0.000001 -0.000003 0
0.000002 -0.000004 0
0.000002 -0.000004 0
0.000002 -0.000004 0
0.000002 -0.000005 0
0.000003 -0.000006 0
0.000003 -0.000007 0
0.000004 -0.000008 0
0.000004 -0.000009 0
0.000005 -0.000010 0
0.000006 -0.000012 0
0.000007 -0.000014 0
0.000009 -0.000016 0
0.000011 -0.000018 0
0.000013 -0.000020 0
0.000015 -0.000023 0
0.000018 -0.000025 0
0.000021 -0.000028 0
0.000025 -0.000030 0
0.000029 -0.000032 0
0.000033 -0.000035 0
0.000037 -0.000037 0
0.000041 -0.000040 0
0.000046 -0.000043 0
0.000051 -0.000046 0
0.000056 -0.000049 0
0.000062 -0.000052 0
0.000067 -0.000056 0
0.000073 -0.000060 0
0.000080 -0.000065 0
0.000087 -0.000070 0
0.000094 -0.000075 0
0.000101 -0.000081 0
0.000109 -0.000089 0