# vtk DataFile Version 2.0
generated by CFD-lab course output (written by Tobias Neckel) 
ASCII

DATASET STRUCTURED_GRID
DIMENSIONS  99 49 1 
POINTS 4851 float

0.000000 0.000000 0
0.020000 0.000000 0
0.040000 0.000000 0
0.060000 0.000000 0
0.080000 0.000000 0
0.100000 0.000000 0
0.120000 0.000000 0
0.140000 0.000000 0
0.160000 0.000000 0
0.180000 0.000000 0
0.200000 0.000000 0
0.220000 0.000000 0
0.240000 0.000000 0
0.260000 0.000000 0
0.280000 0.000000 0
0.300000 0.000000 0
0.320000 0.000000 0
0.340000 0.000000 0
0.360000 0.000000 0
0.380000 0.000000 0
0.400000 0.000000 0
0.420000 0.000000 0
0.440000 0.000000 0
0.460000 0.000000 0
0.480000 0.000000 0
0.500000 0.000000 0
0.520000 0.000000 0
0.540000 0.000000 0
0.560000 0.000000 0
0.580000 0.000000 0
0.600000 0.000000 0
0.620000 0.000000 0
0.640000 0.000000 0
0.660000 0.000000 0
0.680000 0.000000 0
0.700000 0.000000 0
0.720000 0.000000 0
0.740000 0.000000 0
0.760000 0.000000 0
0.780000 0.000000 0
0.800000 0.000000 0
0.820000 0.000000 0
0.840000 0.000000 0
0.860000 0.000000 0
0.880000 0.000000 0
0.900000 0.000000 0
0.920000 0.000000 0
0.940000 0.000000 0
0.960000 0.000000 0
0.980000 0.000000 0
1.000000 0.000000 0
1.020000 0.000000 0
1.040000 0.000000 0
1.060000 0.000000 0
1.080000 0.000000 0
1.100000 0.000000 0
1.120000 0.000000 0
1.140000 0.000000 0
1.160000 0.000000 0
1.180000 0.000000 0
1.200000 0.000000 0
1.220000 0.000000 0
1.240000 0.000000 0
1.260000 0.000000 0
1.280000 0.000000 0
1.300000 0.000000 0
1.320000 0.000000 0
1.340000 0.000000 0
1.360000 0.000000 0
1.380000 0.000000 0
1.400000 0.000000 0
1.420000 0.000000 0
1.440000 0.000000 0
1.460000 0.000000 0
1.480000 0.000000 0
1.500000 0.000000 0
1.520000 0.000000 0
1.540000 0.000000 0
1.560000 0.000000 0
1.580000 0.000000 0
1.600000 0.000000 0
1.620000 0.000000 0
1.640000 0.000000 0
1.660000 0.000000 0
1.680000 0.000000 0
1.700000 0.000000 0
1.720000 0.000000 0
1.740000 0.000000 0
1.760000 0.000000 0
1.780000 0.000000 0
1.800000 0.000000 0
1.820000 0.000000 0
1.840000 0.000000 0
1.860000 0.000000 0
1.880000 0.000000 0
1.900000 0.000000 0
1.920000 0.000000 0
1.940000 0.000000 0
1.960000 0.000000 0
0.000000 0.020000 0
0.020000 0.020000 0
0.040000 0.020000 0
0.060000 0.020000 0
0.080000 0.020000 0
0.100000 0.020000 0
0.120000 0.020000 0
0.140000 0.020000 0
0.160000 0.020000 0
0.180000 0.020000 0
0.200000 0.020000 0
0.220000 0.020000 0
0.240000 0.020000 0
0.260000 0.020000 0
0.280000 0.020000 0
0.300000 0.020000 0
0.320000 0.020000 0
0.340000 0.020000 0
0.360000 0.020000 0
0.380000 0.020000 0
0.400000 0.020000 0
0.420000 0.020000 0
0.440000 0.020000 0
0.460000 0.020000 0
0.480000 0.020000 0
0.500000 0.020000 0
0.520000 0.020000 0
0.540000 0.020000 0
0.560000 0.020000 0
0.580000 0.020000 0
0.600000 0.020000 0
0.620000 0.020000 0
0.640000 0.020000 0
0.660000 0.020000 0
0.680000 0.020000 0
0.700000 0.020000 0
0.720000 0.020000 0
0.740000 0.020000 0
0.760000 0.020000 0
0.780000 0.020000 0
0.800000 0.020000 0
0.820000 0.020000 0
0.840000 0.020000 0
0.860000 0.020000 0
0.880000 0.020000 0
0.900000 0.020000 0
0.920000 0.020000 0
0.940000 0.020000 0
0.960000 0.020000 0
0.980000 0.020000 0
1.000000 0.020000 0
1.020000 0.020000 0
1.040000 0.020000 0
1.060000 0.020000 0
1.080000 0.020000 0
1.100000 0.020000 0
1.120000 0.020000 0
1.140000 0.020000 0
1.160000 0.020000 0
1.180000 0.020000 0
1.200000 0.020000 0
1.220000 0.020000 0
1.240000 0.020000 0
1.260000 0.020000 0
1.280000 0.020000 0
1.300000 0.020000 0
1.320000 0.020000 0
1.340000 0.020000 0
1.360000 0.020000 0
1.380000 0.020000 0
1.400000 0.020000 0
1.420000 0.020000 0
1.440000 0.020000 0
1.460000 0.020000 0
1.480000 0.020000 0
1.500000 0.020000 0
1.520000 0.020000 0
1.540000 0.020000 0
1.560000 0.020000 0
1.580000 0.020000 0
1.600000 0.020000 0
1.620000 0.020000 0
1.640000 0.020000 0
1.660000 0.020000 0
1.680000 0.020000 0
1.700000 0.020000 0
1.720000 0.020000 0
1.740000 0.020000 0
1.760000 0.020000 0
1.780000 0.020000 0
1.800000 0.020000 0
1.820000 0.020000 0
1.840000 0.020000 0
1.860000 0.020000 0
1.880000 0.020000 0
1.900000 0.020000 0
1.920000 0.020000 0
1.940000 0.020000 0
1.960000 0.020000 0
0.000000 0.040000 0
0.020000 0.040000 0
0.040000 0.040000 0
0.060000 0.040000 0
0.080000 0.040000 0
0.100000 0.040000 0
0.120000 0.040000 0
0.140000 0.040000 0
0.160000 0.040000 0
0.180000 0.040000 0
0.200000 0.040000 0
0.220000 0.040000 0
0.240000 0.040000 0
0.260000 0.040000 0
0.280000 0.040000 0
0.300000 0.040000 0
0.320000 0.040000 0
0.340000 0.040000 0
0.360000 0.040000 0
0.380000 0.040000 0
0.400000 0.040000 0
0.420000 0.040000 0
0.440000 0.040000 0
0.460000 0.040000 0
0.480000 0.040000 0
0.500000 0.040000 0
0.520000 0.040000 0
0.540000 0.040000 0
0.560000 0.040000 0
0.580000 0.040000 0
0.600000 0.040000 0
0.620000 0.040000 0
0.640000 0.040000 0
0.660000 0.040000 0
0.680000 0.040000 0
0.700000 0.040000 0
0.720000 0.040000 0
0.740000 0.040000 0
0.760000 0.040000 0
0.780000 0.040000 0
0.800000 0.040000 0
0.820000 0.040000 0
0.840000 0.040000 0
0.860000 0.040000 0
0.880000 0.040000 0
0.900000 0.040000 0
0.920000 0.040000 0
0.940000 0.040000 0
0.960000 0.040000 0
0.980000 0.040000 0
1.000000 0.040000 0
1.020000 0.040000 0
1.040000 0.040000 0
1.060000 0.040000 0
1.080000 0.040000 0
1.100000 0.040000 0
1.120000 0.040000 0
1.140000 0.040000 0
1.160000 0.040000 0
1.180000 0.040000 0
1.200000 0.040000 0
1.220000 0.040000 0
1.240000 0.040000 0
1.260000 0.040000 0
1.280000 0.040000 0
1.300000 0.040000 0
1.320000 0.040000 0
1.340000 0.040000 0
1.360000 0.040000 0
1.380000 0.040000 0
1.400000 0.040000 0
1.420000 0.040000 0
1.440000 0.040000 0
1.460000 0.040000 0
1.480000 0.040000 0
1.500000 0.040000 0
1.520000 0.040000 0
1.540000 0.040000 0
1.560000 0.040000 0
1.580000 0.040000 0
1.600000 0.040000 0
1.620000 0.040000 0
1.640000 0.040000 0
1.660000 0.040000 0
1.680000 0.040000 0
1.700000 0.040000 0
1.720000 0.040000 0
1.740000 0.040000 0
1.760000 0.040000 0
1.780000 0.040000 0
1.800000 0.040000 0
1.820000 0.040000 0
1.840000 0.040000 0
1.860000 0.040000 0
1.880000 0.040000 0
1.900000 0.040000 0
1.920000 0.040000 0
1.940000 0.040000 0
1.960000 0.040000 0
0.000000 0.060000 0
0.020000 0.060000 0
0.040000 0.060000 0
0.060000 0.060000 0
0.080000 0.060000 0
0.100000 0.060000 0
0.120000 0.060000 0
0.140000 0.060000 0
0.160000 0.060000 0
0.180000 0.060000 0
0.200000 0.060000 0
0.220000 0.060000 0
0.240000 0.060000 0
0.260000 0.060000 0
0.280000 0.060000 0
0.300000 0.060000 0
0.320000 0.060000 0
0.340000 0.060000 0
0.360000 0.060000 0
0.380000 0.060000 0
0.400000 0.060000 0
0.420000 0.060000 0
0.440000 0.060000 0
0.460000 0.060000 0
0.480000 0.060000 0
0.500000 0.060000 0
0.520000 0.060000 0
0.540000 0.060000 0
0.560000 0.060000 0
0.580000 0.060000 0
0.600000 0.060000 0
0.620000 0.060000 0
0.640000 0.060000 0
0.660000 0.060000 0
0.680000 0.060000 0
0.700000 0.060000 0
0.720000 0.060000 0
0.740000 0.060000 0
0.760000 0.060000 0
0.780000 0.060000 0
0.800000 0.060000 0
0.820000 0.060000 0
0.840000 0.060000 0
0.860000 0.060000 0
0.880000 0.060000 0
0.900000 0.060000 0
0.920000 0.060000 0
0.940000 0.060000 0
0.960000 0.060000 0
0.980000 0.060000 0
1.000000 0.060000 0
1.020000 0.060000 0
1.040000 0.060000 0
1.060000 0.060000 0
1.080000 0.060000 0
1.100000 0.060000 0
1.120000 0.060000 0
1.140000 0.060000 0
1.160000 0.060000 0
1.180000 0.060000 0
1.200000 0.060000 0
1.220000 0.060000 0
1.240000 0.060000 0
1.260000 0.060000 0
1.280000 0.060000 0
1.300000 0.060000 0
1.320000 0.060000 0
1.340000 0.060000 0
1.360000 0.060000 0
1.380000 0.060000 0
1.400000 0.060000 0
1.420000 0.060000 0
1.440000 0.060000 0
1.460000 0.060000 0
1.480000 0.060000 0
1.500000 0.060000 0
1.520000 0.060000 0
1.540000 0.060000 0
1.560000 0.060000 0
1.580000 0.060000 0
1.600000 0.060000 0
1.620000 0.060000 0
1.640000 0.060000 0
1.660000 0.060000 0
1.680000 0.060000 0
1.700000 0.060000 0
1.720000 0.060000 0
1.740000 0.060000 0
1.760000 0.060000 0
1.780000 0.060000 0
1.800000 0.060000 0
1.820000 0.060000 0
1.840000 0.060000 0
1.860000 0.060000 0
1.880000 0.060000 0
1.900000 0.060000 0
1.920000 0.060000 0
1.940000 0.060000 0
1.960000 0.060000 0
0.000000 0.080000 0
0.020000 0.080000 0
0.040000 0.080000 0
0.060000 0.080000 0
0.080000 0.080000 0
0.100000 0.080000 0
0.120000 0.080000 0
0.140000 0.080000 0
0.160000 0.080000 0
0.180000 0.080000 0
0.200000 0.080000 0
0.220000 0.080000 0
0.240000 0.080000 0
0.260000 0.080000 0
0.280000 0.080000 0
0.300000 0.080000 0
0.320000 0.080000 0
0.340000 0.080000 0
0.360000 0.080000 0
0.380000 0.080000 0
0.400000 0.080000 0
0.420000 0.080000 0
0.440000 0.080000 0
0.460000 0.080000 0
0.480000 0.080000 0
0.500000 0.080000 0
0.520000 0.080000 0
0.540000 0.080000 0
0.560000 0.080000 0
0.580000 0.080000 0
0.600000 0.080000 0
0.620000 0.080000 0
0.640000 0.080000 0
0.660000 0.080000 0
0.680000 0.080000 0
0.700000 0.080000 0
0.720000 0.080000 0
0.740000 0.080000 0
0.760000 0.080000 0
0.780000 0.080000 0
0.800000 0.080000 0
0.820000 0.080000 0
0.840000 0.080000 0
0.860000 0.080000 0
0.880000 0.080000 0
0.900000 0.080000 0
0.920000 0.080000 0
0.940000 0.080000 0
0.960000 0.080000 0
0.980000 0.080000 0
1.000000 0.080000 0
1.020000 0.080000 0
1.040000 0.080000 0
1.060000 0.080000 0
1.080000 0.080000 0
1.100000 0.080000 0
1.120000 0.080000 0
1.140000 0.080000 0
1.160000 0.080000 0
1.180000 0.080000 0
1.200000 0.080000 0
1.220000 0.080000 0
1.240000 0.080000 0
1.260000 0.080000 0
1.280000 0.080000 0
1.300000 0.080000 0
1.320000 0.080000 0
1.340000 0.080000 0
1.360000 0.080000 0
1.380000 0.080000 0
1.400000 0.080000 0
1.420000 0.080000 0
1.440000 0.080000 0
1.460000 0.080000 0
1.480000 0.080000 0
1.500000 0.080000 0
1.520000 0.080000 0
1.540000 0.080000 0
1.560000 0.080000 0
1.580000 0.080000 0
1.600000 0.080000 0
1.620000 0.080000 0
1.640000 0.080000 0
1.660000 0.080000 0
1.680000 0.080000 0
1.700000 0.080000 0
1.720000 0.080000 0
1.740000 0.080000 0
1.760000 0.080000 0
1.780000 0.080000 0
1.800000 0.080000 0
1.820000 0.080000 0
1.840000 0.080000 0
1.860000 0.080000 0
1.880000 0.080000 0
[...]
POINT_DATA 4851 

VECTORS velocity float
0.000000 0.000000 0
0.000059 0.000000 0
0.000147 0.000000 0
0.000217 0.000000 0
0.000255 0.000000 0
0.000266 0.000000 0
0.000260 0.000000 0
0.000246 0.000000 0
0.000230 0.000000 0
0.000217 0.000000 0
0.000207 0.000000 0
0.000200 0.000000 0
0.000197 0.000000 0
0.000195 0.000000 0
0.000195 0.000000 0
0.000195 0.000000 0
0.000195 0.000000 0
0.000194 0.000000 0
0.000194 0.000000 0
0.000193 0.000000 0
0.000192 0.000000 0
0.000191 0.000000 0
0.000189 0.000000 0
0.000187 0.000000 0
0.000186 0.000000 0
0.000184 0.000000 0
0.000182 0.000000 0
0.000179 0.000000 0
0.000176 0.000000 0
0.000171 0.000000 0
0.000163 0.000000 0
0.000150 0.000000 0
0.000129 0.000000 0
0.000098 0.000000 0
0.000058 0.000000 0
0.000019 0.000000 0
0.000000 0.000000 0
0.000000 0.000000 0
0.000000 0.000000 0
0.000000 0.000000 0
0.000000 0.000000 0
-0.000001 0.000000 0
0.000033 0.000000 0
0.000096 0.000000 0
0.000175 0.000000 0
0.000254 0.000000 0
0.000321 0.000000 0
0.000370 0.000000 0
0.000399 0.000000 0
0.000411 0.000000 0
0.000407 0.000000 0
0.000393 0.000000 0
0.000373 0.000000 0
0.000350 0.000000 0
0.000326 0.000000 0
0.000305 0.000000 0
0.000286 0.000000 0
0.000272 0.000000 0
0.000261 0.000000 0
0.000254 0.000000 0
0.000250 0.000000 0
0.000250 0.000000 0
0.000251 0.000000 0
0.000254 0.000000 0
0.000258 0.000000 0
0.000262 0.000000 0
0.000267 0.000000 0
0.000271 0.000000 0
0.000275 0.000000 0
0.000279 0.000000 0
0.000282 0.000000 0
0.000284 0.000000 0
0.000287 0.000000 0
0.000288 0.000000 0
0.000290 0.000000 0
0.000292 0.000000 0
0.000293 0.000000 0
0.000294 0.000000 0
0.000296 0.000000 0
0.000297 0.000000 0
0.000298 0.000000 0
0.000300 0.000000 0
0.000302 0.000000 0
0.000304 0.000000 0
0.000307 0.000000 0
0.000310 0.000000 0
0.000314 0.000000 0
0.000319 0.000000 0
0.000326 0.000000 0
0.000335 0.000000 0
0.000348 0.000000 0
0.000367 0.000000 0
0.000396 0.000000 0
0.000439 0.000000 0
0.000501 0.000000 0
0.000578 0.000000 0
0.000622 0.000000 0
0.000476 0.000000 0
0.000000 0.000000 0
0.000000 -0.000060 0
0.000166 -0.000148 0
0.000417 -0.000158 0
0.000627 -0.000108 0
0.000754 -0.000050 0
0.000805 -0.000006 0
0.000803 0.000019 0
0.000773 0.000029 0
0.000734 0.000029 0
0.000696 0.000023 0
0.000667 0.000016 0
0.000647 0.000009 0
0.000636 0.000004 0
0.000630 0.000001 0
0.000628 -0.000000 0
0.000627 -0.000001 0
0.000626 -0.000000 0
0.000625 0.000000 0
0.000622 0.000001 0
0.000619 0.000001 0
0.000615 0.000002 0
0.000609 0.000002 0
0.000603 0.000002 0
0.000597 0.000003 0
0.000589 0.000003 0
0.000581 0.000003 0
0.000571 0.000004 0
0.000559 0.000005 0
0.000544 0.000007 0
0.000522 0.000012 0
0.000490 0.000020 0
0.000442 0.000034 0
0.000372 0.000052 0
0.000277 0.000070 0
0.000164 0.000078 0
0.000057 0.000058 0
0.000000 0.000019 0
0.000000 0.000000 0
0.000000 0.000000 0
0.000000 0.000000 0
0.000000 0.000001 0
0.000030 -0.000032 0
0.000158 -0.000096 0
0.000367 -0.000142 0
0.000617 -0.000157 0
0.000866 -0.000146 0
0.001083 -0.000116 0
0.001247 -0.000078 0
0.001352 -0.000040 0
0.001401 -0.000008 0
0.001403 0.000018 0
0.001370 0.000034 0
0.001313 0.000044 0
0.001243 0.000047 0
0.001170 0.000045 0
0.001100 0.000040 0
0.001039 0.000034 0
0.000988 0.000026 0
0.000949 0.000018 0
0.000923 0.000011 0
0.000908 0.000005 0
0.000902 -0.000000 0
0.000904 -0.000004 0
0.000911 -0.000007 0
0.000921 -0.000008 0
0.000934 -0.000009 0
0.000947 -0.000009 0
0.000960 -0.000008 0
0.000972 -0.000007 0
0.000983 -0.000006 0
0.000992 -0.000005 0
0.001000 -0.000005 0
0.001006 -0.000004 0
0.001012 -0.000003 0
0.001016 -0.000003 0
0.001020 -0.000003 0
0.001024 -0.000002 0
0.001028 -0.000002 0
0.001031 -0.000003 0
0.001035 -0.000003 0
0.001039 -0.000003 0
0.001044 -0.000003 0
0.001050 -0.000004 0
0.001056 -0.000005 0
0.001064 -0.000006 0
0.001074 -0.000007 0
0.001086 -0.000009 0
0.001101 -0.000011 0
0.001121 -0.000016 0
0.001149 -0.000022 0
0.001186 -0.000032 0
0.001236 -0.000048 0
0.001305 -0.000072 0
0.001394 -0.000105 0
0.001495 -0.000139 0
0.001567 -0.000121 0
0.001479 0.000102 0
0.000960 0.000623 0
0.000000 0.000476 0
0.000000 -0.000167 0
0.000227 -0.000418 0
0.000580 -0.000462 0
0.000889 -0.000338 0
0.001093 -0.000179 0
0.001191 -0.000050 0
0.001210 0.000031 0
0.001183 0.000069 0
0.001136 0.000076 0
0.001088 0.000066 0
0.001047 0.000048 0
0.001019 0.000030 0
0.001001 0.000016 0
0.000991 0.000007 0
0.000986 0.000002 0
0.000983 0.000001 0
0.000981 0.000001 0
0.000977 0.000003 0
0.000971 0.000005 0
0.000964 0.000007 0
0.000955 0.000009 0
0.000945 0.000010 0
0.000933 0.000012 0
0.000919 0.000013 0
0.000903 0.000015 0
0.000886 0.000017 0
0.000865 0.000021 0
0.000839 0.000027 0
0.000806 0.000036 0
0.000762 0.000053 0
0.000702 0.000079 0
0.000619 0.000117 0
0.000509 0.000164 0
0.000371 0.000207 0
0.000217 0.000219 0
0.000076 0.000163 0
0.000000 0.000056 0
0.000000 0.000000 0
0.000000 0.000000 0
0.000000 0.000000 0
0.000000 -0.000029 0
0.000088 -0.000157 0
0.000327 -0.000337 0
0.000675 -0.000459 0
0.001075 -0.000499 0
0.001470 -0.000465 0
0.001817 -0.000380 0
0.002088 -0.000269 0
0.002272 -0.000154 0
0.002370 -0.000051 0
0.002394 0.000032 0
0.002359 0.000091 0
0.002282 0.000127 0
0.002181 0.000143 0
0.002069 0.000144 0
0.001959 0.000132 0
0.001859 0.000113 0
0.001774 0.000090 0
0.001707 0.000065 0
0.001659 0.000042 0
0.001629 0.000021 0
0.001614 0.000005 0
0.001611 -0.000008 0
0.001618 -0.000018 0
0.001631 -0.000023 0
0.001647 -0.000026 0
0.001665 -0.000026 0
0.001683 -0.000025 0
0.001699 -0.000022 0
0.001714 -0.000019 0
0.001726 -0.000017 0
0.001736 -0.000014 0
0.001745 -0.000012 0
0.001752 -0.000010 0
0.001757 -0.000008 0
0.001762 -0.000007 0
0.001766 -0.000007 0
0.001770 -0.000007 0
0.001774 -0.000007 0
0.001778 -0.000008 0
0.001783 -0.000009 0
0.001789 -0.000010 0
0.001796 -0.000012 0
0.001804 -0.000014 0
0.001815 -0.000017 0
0.001828 -0.000021 0
0.001845 -0.000027 0
0.001867 -0.000035 0
0.001894 -0.000047 0
0.001930 -0.000064 0
0.001975 -0.000087 0
0.002031 -0.000119 0
0.002093 -0.000157 0
0.002148 -0.000189 0
0.002161 -0.000173 0
0.002048 0.000016 0
0.001661 0.000607 0
0.000861 0.001479 0
0.000000 0.000960 0
0.000000 -0.000287 0
0.000240 -0.000729 0
0.000622 -0.000821 0
0.000965 -0.000622 0
0.001199 -0.000352 0
0.001322 -0.000124 0
0.001358 0.000027 0
0.001340 0.000103 0
0.001297 0.000124 0
0.001250 0.000111 0
0.001209 0.000084 0
0.001179 0.000055 0
0.001159 0.000032 0
0.001147 0.000016 0
0.001139 0.000007 0
0.001133 0.000005 0
0.001127 0.000006 0
0.001119 0.000009 0
0.001110 0.000013 0
0.001098 0.000017 0
0.001085 0.000021 0
0.001069 0.000024 0
0.001051 0.000028 0
0.001030 0.000032 0
0.001007 0.000036 0
0.000980 0.000042 0
0.000949 0.000050 0
0.000911 0.000063 0
0.000864 0.000084 0
0.000805 0.000116 0
0.000728 0.000163 0
0.000629 0.000226 0
0.000505 0.000300 0
0.000359 0.000362 0
0.000205 0.000373 0
0.000069 0.000274 0
0.000000 0.000095 0
0.000000 0.000000 0
0.000000 0.000000 0
0.000000 0.000000 0
0.000000 -0.000087 0
0.000133 -0.000359 0
0.000455 -0.000683 0
0.000898 -0.000890 0
0.001391 -0.000952 0
0.001872 -0.000888 0
0.002294 -0.000734 0
0.002628 -0.000533 0
0.002862 -0.000322 0
0.002997 -0.000129 0
0.003043 0.000029 0
0.003019 0.000146 0
0.002942 0.000222 0
0.002831 0.000260 0
0.002705 0.000267 0
0.002577 0.000251 0
0.002457 0.000219 0
0.002354 0.000177 0
0.002271 0.000133 0
0.002209 0.000089 0
0.002168 0.000050 0
0.002144 0.000017 0
0.002135 -0.000008 0
0.002137 -0.000026 0
0.002146 -0.000037 0
0.002160 -0.000043 0
0.002175 -0.000044 0
0.002191 -0.000042 0
0.002205 -0.000038 0
0.002217 -0.000033 0
0.002227 -0.000028 0
0.002235 -0.000023 0
0.002241 -0.000019 0
0.002245 -0.000015 0
0.002248 -0.000013 0
0.002250 -0.000011 0
0.002252 -0.000010 0
0.002253 -0.000010 0
0.002254 -0.000011 0
0.002256 -0.000012 0
0.002258 -0.000013 0
0.002262 -0.000016 0
0.002267 -0.000019 0
0.002273 -0.000024 0
0.002282 -0.000029 0
0.002293 -0.000037 0
0.002308 -0.000047 0
0.002327 -0.000061 0
0.002351 -0.000079 0
0.002380 -0.000103 0
0.002413 -0.000133 0
0.002445 -0.000165 0
0.002464 -0.000189 0
0.002445 -0.000173 0
0.002337 -0.000038 0
0.002056 0.000380 0
0.001498 0.001290 0
0.000664 0.002283 0
0.000000 0.001337 0
0.000000 -0.000407 0
0.000233 -0.001041 0
0.000607 -0.001187 0
0.000946 -0.000916 0
0.001181 -0.000537 0
0.001307 -0.000209 0
0.001348 0.000013 0
0.001336 0.000129 0
0.001299 0.000166 0
0.001256 0.000154 0
0.001219 0.000119 0
0.001190 0.000080 0
0.001170 0.000048 0
0.001155 0.000027 0
0.001144 0.000016 0
0.001134 0.000012 0
0.001124 0.000015 0
0.001111 0.000020 0
0.001097 0.000026 0
0.001080 0.000032 0
0.001061 0.000038 0
0.001039 0.000044 0
0.001015 0.000050 0
0.000988 0.000057 0
0.000959 0.000065 0
0.000925 0.000075 0
0.000886 0.000089 0
0.000840 0.000111 0
0.000786 0.000142 0
0.000720 0.000189 0
0.000638 0.000255 0
0.000539 0.000340 0
0.000422 0.000433 0
0.000291 0.000507 0
0.000160 0.000509 0
0.000052 0.000368 0
0.000000 0.000126 0
0.000000 0.000000 0
0.000000 0.000000 0
0.000000 0.000000 0
0.000000 -0.000162 0
0.000161 -0.000612 0
0.000539 -0.001102 0
0.001043 -0.001395 0
0.001593 -0.001473 0
0.002121 -0.001368 0
0.002581 -0.001136 0
0.002944 -0.000836 0
0.003202 -0.000522 0
0.003356 -0.000232 0
0.003417 0.000010 0
0.003403 0.000192 0
0.003332 0.000314 0
0.003224 0.000380 0
0.003097 0.000399 0
0.002966 0.000380 0
0.002842 0.000336 0
0.002734 0.000276 0
0.002645 0.000210 0
0.002577 0.000145 0
0.002530 0.000087 0
0.002500 0.000037 0
0.002485 -0.000001 0
0.002480 -0.000028 0
0.002482 -0.000046 0
0.002488 -0.000055 0
0.002496 -0.000057 0
0.002504 -0.000054 0
0.002510 -0.000049 0
0.002515 -0.000042 0
0.002518 -0.000034 0
0.002519 -0.000028 0
0.002518 -0.000021 0
0.002516 -0.000017 0
0.002513 -0.000013 0
0.002510 -0.000011 0
0.002506 -0.000009 0
0.002502 -0.000009 0
0.002499 -0.000010 0
0.002496 -0.000012 0
0.002493 -0.000015 0
0.002492 -0.000018 0
0.002492 -0.000023 0
0.002494 -0.000029 0
0.002497 -0.000037 0
0.002502 -0.000048 0
0.002510 -0.000061 0
0.002520 -0.000078 0
0.002533 -0.000100 0
0.002546 -0.000125 0
0.002557 -0.000152 0
0.002557 -0.000170 0
0.002529 -0.000157 0
0.002443 -0.000063 0
0.002249 0.000216 0
0.001878 0.000855 0
0.001273 0.001999 0
0.000505 0.002977 0
0.000000 0.001624 0
0.000000 -0.000521 0
0.000217 -0.001337 0
0.000565 -0.001534 0
0.000879 -0.001195 0
0.001095 -0.000713 0
0.001211 -0.000291 0
0.001248 -0.000003 0
0.001237 0.000151 0
0.001204 0.000203 0
0.001166 0.000191 0
0.001132 0.000150 0
0.001105 0.000104 0
0.001084 0.000066 0
0.001067 0.000041 0
0.001052 0.000028 0
0.001037 0.000025 0
0.001020 0.000029 0
0.001002 0.000036 0
0.000982 0.000044 0
0.000959 0.000053 0
0.000935 0.000061 0
0.000908 0.000070 0
0.000879 0.000078 0
0.000847 0.000088 0
0.000812 0.000100 0
0.000774 0.000114 0
0.000731 0.000134 0
0.000682 0.000163 0
0.000627 0.000204 0
0.000562 0.000263 0
0.000487 0.000343 0
0.000400 0.000442 0
0.000302 0.000547 0
0.000201 0.000623 0
0.000105 0.000612 0
0.000032 0.000434 0
0.000000 0.000146 0
0.000000 0.000000 0
0.000000 0.000000 0
0.000000 0.000000 0
0.000000 -0.000247 0
0.000176 -0.000897 0
0.000587 -0.001566 0
0.001129 -0.001944 0
0.001708 -0.002030 0
0.002255 -0.001875 0
0.002724 -0.001557 0
0.003092 -0.001154 0
0.003351 -0.000733 0
0.003506 -0.000344 0
0.003571 -0.000018 0
0.003561 0.000231 0
0.003496 0.000401 0
0.003394 0.000495 0
0.003274 0.000526 0
0.003149 0.000506 0
0.003031 0.000451 0
0.002927 0.000375 0
0.002841 0.000289 0
0.002774 0.000204 0
0.002726 0.000127 0
0.002692 0.000063 0
0.002671 0.000013 0
0.002657 -0.000023 0
0.002649 -0.000045 0
0.002644 -0.000056 0
0.002640 -0.000059 0
0.002635 -0.000056 0
0.002629 -0.000049 0
0.002622 -0.000041 0
0.002614 -0.000032 0
0.002605 -0.000023 0
0.002595 -0.000016 0
0.002584 -0.000010 0
0.002573 -0.000006 0
0.002562 -0.000004 0
0.002552 -0.000002 0
0.002541 -0.000003 0
0.002532 -0.000004 0
0.002523 -0.000006 0
0.002515 -0.000010 0
0.002507 -0.000015 0
0.002501 -0.000021 0
0.002496 -0.000028 0
0.002492 -0.000038 0
0.002489 -0.000050 0
0.002487 -0.000065 0
0.002486 -0.000083 0
0.002484 -0.000105 0
0.002480 -0.000127 0
0.002469 -0.000143 0
0.002441 -0.000137 0
0.002380 -0.000076 0
0.002255 0.000107 0
0.002024 0.000527 0
0.001633 0.001355 0
0.001055 0.002663 0
0.000386 0.003557 0
0.000000 0.001843 0
0.000000 -0.000625 0
0.000197 -0.001607 0
0.000510 -0.001849 0
0.000789 -0.001446 0
0.000976 -0.000869 0
0.001073 -0.000361 0
0.001101 -0.000014 0
0.001088 0.000173 0
0.001057 0.000237 0
0.001022 0.000225 0
0.000991 0.000180 0
0.000965 0.000128 0
0.000942 0.000086 0
0.000922 0.000059 0
0.000902 0.000046 0
0.000881 0.000044 0
0.000858 0.000049 0
0.000834 0.000058 0
0.000808 0.000068 0
0.000780 0.000079 0
0.000750 0.000089 0
0.000719 0.000100 0
0.000686 0.000111 0
0.000651 0.000123 0
0.000613 0.000138 0
0.000573 0.000156 0
0.000530 0.000180 0
0.000483 0.000214 0
0.000432 0.000262 0
0.000375 0.000329 0
0.000313 0.000417 0
0.000246 0.000524 0
0.000176 0.000632 0
0.000109 0.000703 0
0.000052 0.000678 0
0.000013 0.000473 0
0.000000 0.000157 0
0.000000 0.000000 0
0.000000 0.000000 0
0.000000 0.000000 0
0.000000 -0.000338 0
0.000184 -0.001199 0
0.000613 -0.002054 0
0.001171 -0.002515 0
0.001758 -0.002599 0
0.002302 -0.002384 0
0.002758 -0.001972 0
0.003109 -0.001463 0
0.003352 -0.000937 0
0.003494 -0.000452 0
0.003550 -0.000044 0
0.003538 0.000268 0
0.003475 0.000481 0
0.003380 0.000602 0
0.003268 0.000644 0
0.003154 0.000623 0
0.003046 0.000558 0
0.002952 0.000466 0
0.002874 0.000363 0
0.002811 0.000261 0
0.002764 0.000169 0
0.002727 0.000092 0
0.002698 0.000034 0
0.002675 -0.000007 0
0.002654 -0.000032 0
0.002634 -0.000045 0
0.002614 -0.000047 0
0.002593 -0.000044 0
0.002572 -0.000036 0
0.002551 -0.000026 0
0.002529 -0.000017 0
0.002508 -0.000008 0
0.002487 -0.000001 0
0.002467 0.000005 0
0.002447 0.000009 0
0.002429 0.000011 0
0.002411 0.000012 0
0.002395 0.000011 0
0.002379 0.000009 0
0.002364 0.000005 0
0.002350 0.000001 0
0.002337 -0.000004 0
0.002325 -0.000011 0
0.002313 -0.000020 0
0.002301 -0.000030 0
0.002289 -0.000042 0
0.002277 -0.000058 0
0.002265 -0.000075 0
0.002250 -0.000094 0
0.002231 -0.000110 0
0.002205 -0.000113 0
0.002163 -0.000081 0
0.002089 0.000029 0
0.001958 0.000294 0
0.001732 0.000839 0
0.001368 0.001825 0
0.000854 0.003247 0
0.000292 0.004032 0
0.000000 0.002010 0
0.000000 -0.000718 0
0.000175 -0.001848 0
0.000450 -0.002126 0
0.000688 -0.001662 0
0.000843 -0.000998 0
0.000917 -0.000416 0
0.000933 -0.000018 0
0.000917 0.000195 0
0.000887 0.000268 0
0.000855 0.000257 0
0.000825 0.000207 0
0.000799 0.000153 0
0.000775 0.000108 0
0.000750 0.000081 0
0.000724 0.000069 0
0.000697 0.000069 0
0.000669 0.000075 0
0.000639 0.000086 0
0.000607 0.000097 0
0.000575 0.000109 0
0.000542 0.000121 0
0.000507 0.000134 0
0.000472 0.000146 0
0.000435 0.000161 0
0.000397 0.000177 0
0.000358 0.000197 0
0.000318 0.000224 0
0.000276 0.000261 0
0.000233 0.000311 0
0.000189 0.000381 0
0.000145 0.000472 0
0.000101 0.000579 0
0.000060 0.000684 0
0.000028 0.000747 0
0.000007 0.000707 0
-0.000001 0.000486 0
0.000000 0.000160 0
0.000000 0.000000 0
0.000000 0.000000 0
0.000000 0.000000 0
0.000000 -0.000431 0
0.000188 -0.001510 0
0.000624 -0.002553 0
0.001183 -0.003089 0
0.001759 -0.003160 0
0.002280 -0.002875 0
0.002707 -0.002364 0
0.003024 -0.001747 0
0.003235 -0.001118 0
0.003353 -0.000543 0
0.003392 -0.000062 0
0.003371 0.000307 0
0.003306 0.000559 0
0.003215 0.000702 0
0.003112 0.000752 0
0.003008 0.000728 0
0.002912 0.000653 0
0.002828 0.000547 0
0.002758 0.000430 0
0.002700 0.000314 0
0.002651 0.000212 0
0.002609 0.000128 0
0.002570 0.000065 0
0.002533 0.000022 0
0.002495 -0.000004 0
0.002458 -0.000016 0
0.002419 -0.000018 0
0.002381 -0.000014 0
0.002344 -0.000007 0
0.002308 0.000003 0
0.002273 0.000011 0
0.002241 0.000019 0
0.002211 0.000025 0
0.002183 0.000029 0
0.002156 0.000032 0
0.002132 0.000033 0
0.002110 0.000032 0
0.002088 0.000030 0
0.002069 0.000027 0
0.002050 0.000022 0
0.002032 0.000017 0
0.002014 0.000011 0
0.001997 0.000004 0
0.001980 -0.000004 0
0.001963 -0.000014 0
0.001944 -0.000026 0
0.001924 -0.000040 0
0.001902 -0.000056 0
0.001878 -0.000071 0
0.001851 -0.000082 0
0.001819 -0.000074 0
0.001777 -0.000021 0
0.001713 0.000129 0
0.001604 0.000464 0
0.001415 0.001116 0
0.001106 0.002234 0
0.000673 0.003739 0
0.000216 0.004411 0
0.000000 0.002135 0
0.000000 -0.000801 0
0.000154 -0.002058 0
0.000389 -0.002362 0
0.000585 -0.001839 0
0.000706 -0.001098 0
0.000758 -0.000452 0
0.000763 -0.000014 0
0.000742 0.000219 0
0.000713 0.000298 0
0.000683 0.000286 0
0.000655 0.000235 0
0.000628 0.000179 0
0.000601 0.000135 0
0.000572 0.000108 0
0.000542 0.000098 0
0.000509 0.000099 0
0.000476 0.000107 0
0.000441 0.000119 0
0.000406 0.000131 0
0.000371 0.000144 0
0.000335 0.000156 0
0.000300 0.000169 0
0.000264 0.000183 0
0.000227 0.000198 0
0.000191 0.000215 0
0.000156 0.000235 0
0.000121 0.000262 0
0.000087 0.000298 0
0.000055 0.000349 0
0.000025 0.000418 0
-0.000001 0.000506 0
-0.000022 0.000608 0
-0.000035 0.000704 0
-0.000037 0.000757 0
-0.000028 0.000706 0
-0.000012 0.000479 0
0.000000 0.000156 0
0.000000 0.000000 0
0.000000 0.000000 0
0.000000 0.000000 0
0.000000 -0.000525 0
0.000190 -0.001823 0
0.000624 -0.003049 0
0.001171 -0.003650 0
0.001721 -0.003696 0
0.002204 -0.003331 0
0.002586 -0.002716 0
0.002858 -0.001992 0
0.003028 -0.001265 0
0.003113 -0.000608 0
0.003128 -0.000062 0
0.003092 0.000354 0
0.003021 0.000637 0
0.002930 0.000797 0
0.002832 0.000851 0
0.002736 0.000823 0
0.002648 0.000738 0
0.002571 0.000621 0
0.002504 0.000492 0
0.002444 0.000368 0
0.002389 0.000260 0
0.002335 0.000174 0
0.002281 0.000110 0
0.002226 0.000068 0
0.002169 0.000043 0
0.002113 0.000031 0
0.002057 0.000029 0
0.002003 0.000032 0
0.001952 0.000038 0
0.001905 0.000044 0
0.001862 0.000050 0
0.001823 0.000055 0
0.001788 0.000058 0
0.001756 0.000060 0
0.001727 0.000060 0
0.001701 0.000058 0
0.001677 0.000056 0
0.001655 0.000052 0
0.001634 0.000048 0
0.001614 0.000042 0
0.001595 0.000037 0
0.001577 0.000030 0
0.001558 0.000023 0
0.001539 0.000015 0
0.001518 0.000007 0
0.001496 -0.000003 0
0.001471 -0.000015 0
0.001444 -0.000029 0
0.001417 -0.000043 0
0.001389 -0.000051 0
0.001363 -0.000039 0
0.001337 0.000025 0
0.001301 0.000203 0
0.001233 0.000593 0
0.001099 0.001337 0
0.000860 0.002567 0
0.000512 0.004138 0
0.000151 0.004705 0
0.000000 0.002226 0
0.000000 -0.000872 0
0.000133 -0.002237 0
0.000330 -0.002558 0
0.000487 -0.001980 0
0.000576 -0.001170 0
0.000606 -0.000472 0
0.000600 -0.000003 0
0.000577 0.000244 0
0.000549 0.000327 0
0.000521 0.000314 0
0.000493 0.000262 0
0.000465 0.000206 0
0.000436 0.000164 0
0.000403 0.000140 0
0.000369 0.000132 0
0.000333 0.000135 0
0.000296 0.000143 0
0.000259 0.000155 0
0.000222 0.000167 0
0.000185 0.000180 0
0.000149 0.000192 0
0.000114 0.000205 0
0.000080 0.000218 0
0.000046 0.000232 0
0.000014 0.000249 0
-0.000017 0.000268 0
-0.000045 0.000293 0
-0.000070 0.000326 0
-0.000091 0.000373 0
-0.000107 0.000437 0
-0.000116 0.000519 0
-0.000116 0.000612 0
-0.000105 0.000698 0
-0.000082 0.000739 0
-0.000051 0.000682 0
-0.000018 0.000458 0
0.000000 0.000148 0
0.000000 0.000000 0
0.000000 0.000000 0
0.000000 0.000000 0
0.000000 -0.000620 0
0.000189 -0.002133 0
0.000615 -0.003534 0
0.001138 -0.004186 0
0.001650 -0.004194 0
0.002084 -0.003740 0
0.002411 -0.003017 0
0.002629 -0.002189 0
0.002753 -0.001372 0
0.002799 -0.000642 0
0.002786 -0.000041 0
0.002731 0.000414 0
0.002649 0.000721 0
0.002553 0.000891 0
0.002453 0.000946 0
0.002356 0.000912 0
0.002267 0.000819 0
0.002186 0.000692 0
0.002112 0.000557 0
0.002040 0.000429 0
0.001969 0.000321 0
0.001897 0.000236 0
0.001822 0.000175 0
0.001746 0.000134 0
0.001671 0.000110 0
0.001599 0.000097 0
0.001531 0.000092 0
0.001468 0.000090 0
0.001412 0.000091 0
0.001362 0.000093 0
0.001319 0.000094 0
0.001281 0.000094 0
0.001248 0.000092 0
0.001219 0.000090 0
0.001194 0.000087 0
0.001171 0.000083 0
0.001151 0.000078 0
0.001133 0.000073 0
0.001115 0.000067 0
0.001099 0.000061 0
0.001084 0.000055 0
0.001068 0.000049 0
0.001052 0.000042 0
0.001034 0.000036 0
0.001014 0.000029 0
0.000992 0.000021 0
0.000967 0.000012 0