/*--------------------------------*- C++ -*----------------------------------*\
| =========                 |                                                 |
| \\      /  F ield         | OpenFOAM: The Open Source CFD Toolbox           |
|  \\    /   O peration     | Version:  5.x                                   |
|   \\  /    A nd           | Web:      www.OpenFOAM.org                      |
|    \\/     M anipulation  |                                                 |
\*---------------------------------------------------------------------------*/
FoamFile
{
    version     2.0;
    format      ascii;
    class       volScalarField;
    location    "1.5999";
    object      T;
}
// * * * * * * * * * * * * * * * * * * * * * * * * * * * * * * * * * * * * * //

dimensions      [0 0 0 1 0 0 0];

internalField   nonuniform List<scalar> 
2048
(
9.80234
9.80259
9.80306
9.80375
9.80465
9.80572
9.80694
9.80829
9.80973
9.81126
9.81284
9.81446
9.81611
9.81775
9.8194
9.82103
9.82264
9.82422
9.82576
9.82727
9.82874
9.83016
9.83155
9.83289
9.8342
9.83547
9.83669
9.83788
9.83903
9.84015
9.84122
9.84226
9.84325
9.84421
9.84512
9.84599
9.84682
9.8476
9.84833
9.84901
9.84964
9.85021
9.85073
9.8512
9.8516
9.85194
9.85221
9.85242
9.85257
9.85264
9.85265
9.85259
9.85248
9.85231
9.8521
9.85186
9.85159
9.85132
9.85105
9.8508
9.85058
9.85041
9.85028
9.85022
9.41548
9.4162
9.41761
9.41968
9.42234
9.42552
9.42916
9.43316
9.43746
9.44199
9.44668
9.45149
9.45635
9.46124
9.46611
9.47094
9.47569
9.48037
9.48493
9.48939
9.49373
9.49795
9.50205
9.50602
9.50988
9.51362
9.51725
9.52077
9.52417
9.52746
9.53064
9.5337
9.53665
9.53948
9.54218
9.54476
9.5472
9.5495
9.55166
9.55368
9.55554
9.55724
9.55878
9.56015
9.56134
9.56235
9.56316
9.56378
9.5642
9.56442
9.56444
9.56428
9.56394
9.56344
9.56281
9.56207
9.56127
9.56045
9.55964
9.55889
9.55824
9.55772
9.55735
9.55716
9.04499
9.04618
9.04852
9.05195
9.05635
9.06162
9.06762
9.07422
9.0813
9.08874
9.09645
9.10434
9.11232
9.12032
9.1283
9.13621
9.14399
9.15163
9.1591
9.16638
9.17347
9.18035
9.18704
9.19354
9.19984
9.20595
9.21187
9.21761
9.22316
9.22854
9.23373
9.23873
9.24355
9.24817
9.25259
9.25679
9.26079
9.26455
9.26808
9.27138
9.27442
9.27721
9.27972
9.28196
9.28391
9.28556
9.2869
9.28792
9.2886
9.28896
9.28899
9.28871
9.28813
9.2873
9.28624
9.28501
9.28368
9.2823
9.28094
9.27968
9.27859
9.27771
9.2771
9.27678
8.68988
8.69155
8.69483
8.69963
8.70578
8.71312
8.72147
8.73064
8.74046
8.75076
8.76142
8.7723
8.78331
8.79434
8.80533
8.8162
8.8269
8.83739
8.84764
8.85763
8.86735
8.87679
8.88596
8.89485
8.90348
8.91185
8.91997
8.92783
8.93545
8.94281
8.94993
8.95679
8.9634
8.96974
8.9758
8.98158
8.98706
8.99223
8.99708
9.0016
9.00578
9.0096
9.01307
9.01615
9.01883
9.02111
9.02295
9.02434
9.02529
9.02577
9.0258
9.0254
9.02458
9.02339
9.02189
9.02015
9.01825
9.01629
9.01437
9.01258
9.01102
9.00977
9.0089
9.00845
8.34924
8.35141
8.35566
8.36185
8.36979
8.37923
8.38994
8.40168
8.41421
8.42734
8.4409
8.45471
8.46867
8.48265
8.49655
8.51029
8.52381
8.53705
8.54997
8.56256
8.57479
8.58667
8.59821
8.6094
8.62026
8.63079
8.641
8.65089
8.66047
8.66974
8.6787
8.68735
8.69567
8.70366
8.71131
8.71859
8.7255
8.73202
8.73813
8.74383
8.74911
8.75394
8.75832
8.76221
8.76561
8.76849
8.77082
8.77259
8.77378
8.77439
8.77441
8.77387
8.77279
8.77123
8.76927
8.76698
8.76449
8.76191
8.75937
8.75701
8.75496
8.75332
8.75217
8.75158
8.02225
8.02493
8.03019
8.03784
8.04761
8.05921
8.07232
8.08664
8.10189
8.11783
8.13423
8.15094
8.16778
8.18463
8.20136
8.21789
8.23413
8.25002
8.26552
8.28059
8.29524
8.30945
8.32324
8.33663
8.34961
8.3622
8.37441
8.38624
8.3977
8.4088
8.41953
8.42988
8.43985
8.44943
8.45859
8.46732
8.4756
8.48342
8.49076
8.4976
8.50393
8.50973
8.51499
8.51968
8.52377
8.52724
8.53006
8.53219
8.53362
8.53434
8.53434
8.53365
8.5323
8.53034
8.52788
8.52501
8.52187
8.51862
8.51543
8.51246
8.50987
8.5078
8.50636
8.50562
7.70814
7.71137
7.7177
7.72688
7.73857
7.75239
7.76795
7.78489
7.80287
7.82159
7.84083
7.86037
7.88005
7.8997
7.9192
7.93843
7.95731
7.97576
7.99372
8.01119
8.02813
8.04458
8.06052
8.07599
8.091
8.10556
8.11968
8.13336
8.14662
8.15946
8.17188
8.18387
8.19543
8.20653
8.21716
8.22728
8.23689
8.24596
8.25446
8.2624
8.26975
8.27649
8.28261
8.28807
8.29284
8.2969
8.30019
8.30268
8.30435
8.30517
8.30515
8.30429
8.30264
8.30027
8.29727
8.29377
8.28994
8.28596
8.28205
8.27841
8.27524
8.2727
8.27093
8.27002
7.40621
7.41003
7.4175
7.4283
7.442
7.45814
7.47623
7.49583
7.51656
7.53807
7.56011
7.58245
7.60491
7.62731
7.6495
7.67137
7.69281
7.71372
7.73406
7.75381
7.77296
7.79152
7.80953
7.82699
7.84393
7.86036
7.8763
7.89175
7.90673
7.92124
7.93528
7.94884
7.96192
7.97449
7.98653
7.998
8.00888
8.01915
8.02879
8.03778
8.04611
8.05376
8.06071
8.06693
8.07237
8.077
8.08076
8.08361
8.08552
8.08645
8.08639
8.08536
8.0834
8.08057
8.07699
8.07281
8.06822
8.06345
8.05875
8.05438
8.05056
8.04751
8.04539
8.0443
7.11579
7.12025
7.12895
7.14149
7.15733
7.1759
7.1966
7.21892
7.24242
7.26672
7.29154
7.31664
7.34183
7.36692
7.39175
7.41619
7.4401
7.4634
7.48603
7.50796
7.52921
7.54979
7.56974
7.5891
7.60788
7.6261
7.64378
7.66092
7.67754
7.69364
7.70923
7.72431
7.73885
7.75284
7.76624
7.77901
7.79112
7.80255
7.81327
7.82327
7.83255
7.84108
7.84885
7.8558
7.86191
7.86711
7.87134
7.87455
7.87669
7.87773
7.87764
7.87642
7.87412
7.87082
7.86662
7.8617
7.85629
7.85065
7.84509
7.83991
7.83539
7.83178
7.82927
7.82798
6.83627
6.84143
6.85147
6.86589
6.88402
6.90513
6.92855
6.95365
6.97994
7.00702
7.0346
7.06242
7.09029
7.11802
7.14543
7.17237
7.19869
7.22429
7.24912
7.27314
7.29638
7.31888
7.34069
7.36185
7.38239
7.40232
7.42165
7.4404
7.45858
7.47621
7.49328
7.50981
7.52576
7.54112
7.55584
7.56986
7.58316
7.5957
7.60747
7.61845
7.62864
7.63803
7.64658
7.65426
7.66102
7.66679
7.67149
7.67507
7.67746
7.6786
7.67847
7.67707
7.67442
7.6706
7.66574
7.66003
7.65373
7.64714
7.64063
7.63455
7.62926
7.62504
7.62211
7.62061
6.56706
6.573
6.58452
6.60097
6.62154
6.64536
6.67159
6.69954
6.72865
6.7585
6.7888
6.8193
6.8498
6.88012
6.91007
6.93945
6.96811
6.99594
7.02286
7.04888
7.07401
7.09833
7.1219
7.14477
7.16698
7.18854
7.20945
7.22974
7.24941
7.26849
7.28698
7.3049
7.32222
7.33891
7.3549
7.37014
7.38458
7.3982
7.41097
7.42288
7.43395
7.44416
7.45349
7.46188
7.46929
7.47563
7.48082
7.48476
7.4874
7.48866
7.4885
7.4869
7.48389
7.47954
7.47398
7.46742
7.46014
7.45251
7.44495
7.4379
7.43176
7.42688
7.42349
7.42176
6.30762
6.31442
6.32756
6.34625
6.36946
6.39613
6.4253
6.45616
6.4881
6.52071
6.55368
6.58681
6.6199
6.65276
6.68518
6.71696
6.7479
6.77787
6.80681
6.83472
6.86165
6.88769
6.91292
6.93741
6.96121
6.98432
7.00675
7.0285
7.04959
7.07005
7.08991
7.10916
7.1278
7.14577
7.163
7.17942
7.19497
7.20962
7.22335
7.23616
7.24807
7.25908
7.26916
7.27826
7.28631
7.29323
7.2989
7.30323
7.30612
7.30751
7.30732
7.30554
7.30216
7.29726
7.29095
7.28347
7.27514
7.26638
7.25768
7.24955
7.24249
7.23688
7.23301
7.23104
6.05743
6.06519
6.08013
6.10126
6.12732
6.15703
6.18925
6.22308
6.25787
6.29319
6.3288
6.3645
6.40013
6.43548
6.47034
6.50445
6.53761
6.56967
6.60054
6.63024
6.65885
6.6865
6.7133
6.73934
6.76466
6.78926
6.81313
6.83627
6.85871
6.88048
6.90163
6.92218
6.94209
6.96131
6.97975
6.99731
7.01394
7.02958
7.04422
7.05789
7.07061
7.08238
7.09319
7.10299
7.1117
7.11919
7.12536
7.13008
7.13325
7.13477
7.13457
7.1326
7.12886
7.12338
7.1163
7.10784
7.09838
7.08838
7.07842
7.06912
7.06105
7.05467
7.05029
7.04806
5.81599
5.82482
5.84178
5.8656
5.89474
5.92767
5.96307
5.99992
6.03755
6.07555
6.11372
6.15194
6.19004
6.22784
6.26509
6.30151
6.33684
6.3709
6.40361
6.435
6.46519
6.49435
6.52263
6.55014
6.5769
6.60293
6.62818
6.65265
6.67636
6.69938
6.72177
6.74355
6.7647
6.78514
6.80476
6.82344
6.8411
6.85769
6.87321
6.88769
6.90117
6.91369
6.92522
6.93571
6.94506
6.95315
6.95983
6.96496
6.96841
6.97009
6.96989
6.96774
6.96363
6.95757
6.94968
6.94019
6.9295
6.91816
6.90683
6.89623
6.88708
6.87987
6.87495
6.87245
5.58282
5.59287
5.61207
5.63887
5.67136
5.70771
5.7464
5.78633
5.82677
5.86739
5.90805
5.9487
5.98922
6.02943
6.06904
6.10773
6.14518
6.18117
6.21564
6.24862
6.28027
6.31084
6.34051
6.3694
6.39755
6.42495
6.45153
6.47725
6.50216
6.52636
6.54993
6.57291
6.59526
6.6169
6.63767
6.65745
6.67611
6.69361
6.70995
6.72519
6.7394
6.75263
6.76486
6.77604
6.78605
6.79474
6.80194
6.80749
6.81125
6.81309
6.81291
6.81061
6.80614
6.7995
6.79077
6.78019
6.7682
6.75539
6.74255
6.73055
6.72022
6.71214
6.70666
6.7039
5.35747
5.3689
5.39061
5.4207
5.45684
5.49681
5.53892
5.58195
5.62517
5.66831
5.71137
5.75437
5.79726
5.83983
5.88179
5.92272
5.96224
6.00011
6.03624
6.07069
6.1037
6.13556
6.16653
6.19674
6.22622
6.25495
6.2828
6.30972
6.33576
6.36106
6.38575
6.40987
6.4334
6.45621
6.47813
6.49897
6.5186
6.53697
6.55409
6.57005
6.58495
6.59885
6.61178
6.62364
6.63431
6.64362
6.65135
6.65734
6.66142
6.66345
6.66331
6.66087
6.65606
6.64883
6.63925
6.62753
6.61414
6.59976
6.58528
6.57173
6.56013
6.55114
6.54509
6.54207
5.1395
5.15249
5.17703
5.21077
5.25086
5.29468
5.34032
5.38647
5.43241
5.47797
5.5233
5.56858
5.61376
5.65865
5.70294
5.74611
5.78767
5.82734
5.86505
5.90087
5.9351
5.96815
6.00033
6.03179
6.06256
6.09257
6.12166
6.14971
6.1768
6.20312
6.22887
6.2541
6.27877
6.30275
6.32581
6.34769
6.36827
6.38747
6.40531
6.42193
6.43746
6.45202
6.46562
6.47816
6.48951
6.49945
6.50774
6.51418
6.5186
6.52083
6.52075
6.5182
6.51308
6.50528
6.49483
6.48192
6.46705
6.45097
6.43468
6.41945
6.40648
6.39656
6.38995
6.38667
4.9285
4.94327
4.97098
5.00877
5.05316
5.10103
5.1503
5.19958
5.24815
5.29599
5.34347
5.39093
5.43834
5.48552
5.53214
5.57754
5.6211
5.66252
5.70172
5.73878
5.77411
5.80822
5.84154
5.87419
5.9062
5.93748
5.96777
5.99689
6.02494
6.05221
6.07896
6.10525
6.13104
6.15619
6.18038
6.20329
6.22478
6.24477
6.26328
6.2805
6.29662
6.31181
6.32606
6.33928
6.35132
6.36192
6.37077
6.37768
6.38245
6.38492
6.38492
6.38229
6.37688
6.36853
6.35721
6.34307
6.32663
6.30873
6.29048
6.27338
6.25897
6.24809
6.24094
6.23743
4.72405
4.74086
4.77211
4.8144
4.86348
4.91559
4.96858
5.021
5.07207
5.12204
5.17151
5.22105
5.27064
5.32006
5.36903
5.41668
5.4622
5.50531
5.54592
5.5841
5.62039
5.65544
5.68981
5.72361
5.75681
5.78935
5.82083
5.85094
5.87987
5.908
5.93569
5.96301
5.98989
6.01621
6.04155
6.06547
6.08784
6.10858
6.1277
6.14545
6.16211
6.1779
6.1928
6.2067
6.21945
6.23072
6.24015
6.24754
6.25269
6.2554
6.2555
6.25283
6.24717
6.23831
6.22613
6.21072
6.19263
6.17278
6.15238
6.13322
6.11727
6.10544
6.0978
6.09408
4.52577
4.54492
4.58011
4.62742
4.68159
4.73812
4.79491
4.85045
4.90389
4.95578
5.00706
5.0586
5.11031
5.16192
5.21327
5.26322
5.31064
5.35539
5.39734
5.43649
5.47359
5.50946
5.54481
5.57971
5.61407
5.64787
5.68054
5.71157
5.74127
5.77016
5.79875
5.82707
5.85501
5.88252
5.90902
5.93393
5.95716
5.97861
5.99828
6.0165
6.03364
6.05
6.06554
6.08011
6.09359
6.10556
6.11559
6.12347
6.129
6.13197
6.13222
6.12954
6.12367
6.11435
6.10133
6.0846
6.06478
6.04288
6.02012
5.99868
5.9811
5.96835
5.96028
5.9564
4.33326
4.35511
4.39467
4.44758
4.5073
4.56837
4.62902
4.68768
4.74329
4.79688
4.84976
4.90323
4.957
5.01073
5.06453
5.11684
5.16612
5.21245
5.25568
5.29566
5.33339
5.36993
5.40623
5.44218
5.47765
5.51276
5.54663
5.57851
5.60886
5.6384
5.66785
5.69712
5.72609
5.75483
5.78254
5.8084
5.83246
5.85461
5.87475
5.89335
5.9109
5.92782
5.94399
5.95922
5.97347
5.98618
5.9968
6.00518
6.01113
6.01437
6.01477
6.01212
6.00611
5.99637
5.98255
5.96448
5.94285
5.9188
5.89345
5.86944
5.85015
5.83656
5.82815
5.82416
4.14616
4.17117
4.2155
4.27466
4.34044
4.4061
4.47067
4.53246
4.58999
4.64502
4.69927
4.75461
4.8104
4.86614
4.9225
4.97729
5.02832
5.0762
5.12066
5.16129
5.1995
5.23655
5.27375
5.31074
5.34725
5.38373
5.41886
5.45147
5.48235
5.51241
5.54269
5.57291
5.60284
5.63287
5.66184
5.68862
5.71349
5.73631
5.75683
5.77574
5.79362
5.8111
5.82789
5.84376
5.85881
5.87232
5.88352
5.89242
5.89878
5.9023
5.90289
5.90031
5.8942
5.88412
5.86955
5.8501
5.82658
5.80034
5.77214
5.7452
5.72416
5.70982
5.70119
5.69717
3.96407
3.99282
4.04228
4.10847
4.1809
4.25106
4.31958
4.38456
4.44371
4.49991
4.55521
4.61244
4.67022
4.7278
4.78688
4.84431
4.89696
4.94634
4.99203
5.0331
5.0716
5.10898
5.14709
5.18511
5.22256
5.26051
5.297
5.33021
5.36148
5.39191
5.42302
5.45416
5.48498
5.51638
5.5467
5.57431
5.59998
5.62347
5.64427
5.6634
5.68153
5.69957
5.71699
5.73345
5.74937
5.76373
5.77549
5.7849
5.79171
5.79551
5.79631
5.79384
5.7877
5.77735
5.76213
5.74125
5.71576
5.68731
5.65598
5.62566
5.60283
5.58791
5.57921
5.57522
3.78662
3.81988
3.87471
3.94882
4.0286
4.103
4.17552
4.2438
4.30417
4.36125
4.41723
4.47643
4.53619
4.59534
4.65739
4.71771
4.77171
4.82258
4.86956
4.91082
4.94943
4.9869
5.02599
5.06504
5.10327
5.14285
5.18084
5.21448
5.246
5.2766
5.30859
5.34065
5.3722
5.4051
5.43692
5.46523
5.49169
5.51589
5.53684
5.55609
5.57435
5.59298
5.61105
5.62804
5.64491
5.66019
5.67247
5.6824
5.68967
5.69375
5.69477
5.69245
5.68634
5.67582
5.66006
5.6377
5.61013
5.57957
5.54479
5.5105
5.4859
5.47062
5.46202
5.45815
3.61342
3.65222
3.71244
3.79555
3.88353
3.96161
4.03821
4.11003
4.17108
4.22878
4.28494
4.3463
4.40808
4.46836
4.53375
4.5973
4.65228
4.70464
4.75306
4.79417
4.83273
4.86999
4.91019
4.95031
4.98905
5.03051
5.07023
5.10403
5.13567
5.16618
5.19915
5.23215
5.26422
5.29882
5.3323
5.36112
5.38837
5.41335
5.43428
5.45358
5.47183
5.49113
5.50986
5.52725
5.54518
5.5615
5.5742
5.58466
5.59244
5.59676
5.59803
5.59591
5.58989
5.57928
5.56315
5.53924
5.50944
5.47699
5.43841
5.39935
5.37311
5.35776
5.34946
5.3458
3.44404
3.48982
3.55504
3.64852
3.74576
3.82655
3.90736
3.98316
4.04414
4.10224
4.15794
4.22182
4.28573
4.34644
4.41568
4.483
4.53832
4.59225
4.64235
4.68287
4.72126
4.75791
4.79946
4.84072
4.87957
4.92324
4.96503
4.99863
5.03027
5.06036
5.09449
5.12849
5.16071
5.19729
5.23272
5.26171
5.2898
5.31569
5.33637
5.35566
5.37369
5.39378
5.41322
5.43082
5.44997
5.46747
5.48045
5.49145
5.49981
5.50431
5.50586
5.50396
5.49811
5.48751
5.47124
5.44566
5.41341
5.37949
5.33674
5.29182
5.26419
5.24917
5.24138
5.23802
3.27802
3.3328
3.40203
3.50758
3.61547
3.69739
3.78268
3.86314
3.923
3.98145
4.03577
4.10278
4.16901
4.22911
4.30296
4.37475
4.42947
4.48511
4.53734
4.57663
4.61481
4.65029
4.6936
4.73615
4.77445
4.82084
4.86515
4.89801
4.92961
4.95881
4.99443
5.02953
5.06134
5.1003
5.13806
5.16674
5.19574
5.22277
5.24287
5.26213
5.27966
5.30076
5.32098
5.33848
5.35908
5.37797
5.39097
5.40257
5.41156
5.41617
5.41802
5.41639
5.41077
5.40026
5.38418
5.35676
5.32173
5.28705
5.23972
5.18748
5.15894
5.14469
5.13763
5.13466
3.11483
3.18148
3.25278
3.37262
3.49297
3.5736
3.66385
3.75004
3.80727
3.86628
3.91792
3.98901
4.05789
4.11579
4.19533
4.27262
4.32531
4.38293
4.43796
4.47512
4.51324
4.54675
4.59243
4.63649
4.67327
4.72308
4.77057
4.80189
4.83356
4.86118
4.89879
4.93515
4.96575
5.00765
5.04828
5.07589
5.10594
5.13448
5.15352
5.17283
5.18946
5.21187
5.233
5.24992
5.2723
5.29285
5.30553
5.31778
5.32754
5.33211
5.33431
5.33298
5.32764
5.31727
5.30185
5.27237
5.23405
5.19967
5.14733
5.08579
5.05714
5.0442
5.0381
5.03558
2.95386
3.03644
3.10646
3.24353
3.37877
3.45453
3.55051
3.64403
3.69648
3.75668
3.80379
3.88039
3.95244
4.00582
4.09257
4.17677
4.22533
4.28542
4.34425
4.37797
4.41646
4.44685
4.4958
4.54173
4.57556
4.62976
4.68133
4.70995
4.74201
4.76709
4.80742
4.84534
4.8735
4.91915
4.96339
4.98883
5.02019
5.05074
5.06806
5.08764
5.10278
5.12697
5.14917
5.16484
5.18946
5.21204
5.22386
5.23689
5.24757
5.25191
5.25453
5.25352
5.24853
5.2383
5.22417
5.19232
5.14991
5.11745
5.05968
4.98612
4.95863
4.9476
4.94266
4.94066
2.79434
2.89859
2.96201
3.1202
3.27359
3.33929
3.4423
3.54543
3.59001
3.65277
3.69265
3.77682
3.85286
3.89842
3.99448
4.08753
4.12895
4.19225
4.25634
4.28476
4.32445
4.35005
4.40361
4.45193
4.48074
4.54071
4.59753
4.6218
4.65493
4.67607
4.72021
4.76011
4.78411
4.83462
4.88348
4.90519
4.93825
4.97157
4.98619
5.00648
5.01927
5.04592
5.06945
5.08287
5.11038
5.1355
5.14568
5.15969
5.17153
5.17533
5.17848
5.1778
5.17323
5.16304
5.15108
5.1165
5.06877
5.04054
4.97692
4.8877
4.86331
4.85483
4.8512
4.84975
2.63535
2.7693
2.81802
3.00257
3.17843
3.22678
3.33881
3.45476
3.48707
3.55481
3.58364
3.67828
3.75953
3.79258
3.90086
4.00538
4.03543
4.10311
4.17448
4.19492
4.23735
4.25576
4.31577
4.36727
4.38814
4.45575
4.51942
4.53696
4.5724
4.58762
4.63707
4.67959
4.69698
4.75388
4.80875
4.8245
4.85987
4.89702
4.90755
4.92933
4.93857
4.96861
4.99385
5.00362
5.0349
5.06323
5.07068
5.08601
5.09932
5.10214
5.106
5.10563
5.10157
5.09118
5.08259
5.04481
4.98999
4.96918
4.89938
4.78957
4.77119
4.76581
4.76361
4.76274
2.47574
2.65047
2.67265
2.89057
3.09464
3.11559
3.23962
3.37278
3.38662
3.46334
3.47567
3.58481
3.673
3.68712
3.81156
3.93104
3.94388
4.01766
4.09908
4.10777
4.1554
4.16324
4.23226
4.28804
4.29695
4.37473
4.44733
4.45482
4.49462
4.50111
4.55797
4.60401
4.61144
4.67679
4.7395
4.74623
4.78482
4.82723
4.83172
4.85627
4.86021
4.89495
4.92243
4.92662
4.9629
4.9953
4.99851
5.01566
5.03086
5.0321
5.03692
5.03683
5.03341
5.02237
5.01874
4.97721
4.91272
4.90371
4.82748
4.69057
4.68236
4.6805
4.67977
4.67948
)
;

boundaryField
{
    left
    {
        type            zeroGradient;
    }
    right
    {
        type            zeroGradient;
    }
    interface
    {
        type            fixedValue;
        value           nonuniform List<scalar> 
64
(
2.3931
2.59642
2.59642
2.83619
3.05852
3.05852
3.1909
3.33586
3.33586
3.42034
3.42034
3.53967
3.63266
3.63266
3.76803
3.89752
3.89752
3.97569
4.06415
4.06415
4.11641
4.11641
4.19179
4.25056
4.25056
4.33527
4.41382
4.41382
4.4575
4.4575
4.5196
4.56811
4.56811
4.6392
4.70715
4.70715
4.74806
4.79414
4.79414
4.82113
4.82113
4.85917
4.88817
4.88817
4.92784
4.96292
4.96292
4.98138
4.99782
4.99782
5.00335
5.00335
5.00035
4.9886
4.9886
4.94484
4.87356
4.87356
4.79402
4.63886
4.63886
4.63886
4.63886
4.63886
)
;
    }
    bottom
    {
        type            fixedValue;
        value           uniform 10;
    }
    defaultFaces
    {
        type            empty;
    }
}


// ************************************************************************* //
