/*--------------------------------*- C++ -*----------------------------------*\
| =========                 |                                                 |
| \\      /  F ield         | OpenFOAM: The Open Source CFD Toolbox           |
|  \\    /   O peration     | Version:  5.x                                   |
|   \\  /    A nd           | Web:      www.OpenFOAM.org                      |
|    \\/     M anipulation  |                                                 |
\*---------------------------------------------------------------------------*/
FoamFile
{
    version     2.0;
    format      ascii;
    class       volScalarField;
    location    "1.2";
    object      gradTx;
}
// * * * * * * * * * * * * * * * * * * * * * * * * * * * * * * * * * * * * * //

dimensions      [0 -1 0 1 0 0 0];

internalField   nonuniform List<scalar> 
3200
(
22.3338
0.0488714
-1.39742
-1.47604
-1.59168
-1.59022
-1.40654
-1.39262
-1.22849
-2.04003
-1.0318
-0.845678
-0.825258
-0.704744
-0.69286
-0.590972
-0.581058
-0.49329
-0.484757
-0.409016
-0.401666
-0.33654
-0.33024
-0.274622
-0.269264
-0.222181
-0.217665
-0.178201
-0.174433
-0.141696
-0.138584
-0.111707
-0.109164
-0.0873189
-0.0852601
-0.0676729
-0.0660217
-0.0519882
-0.0506753
-0.0395704
-0.0385349
-0.0298166
-0.0290063
-0.0222147
-0.0215858
-0.016338
-0.0158555
-0.0118433
-0.0115066
-0.00867637
-0.0132299
-0.00603752
-0.00404519
-0.0038461
-0.00263198
-0.00252252
-0.00168123
-0.00160738
-0.00103985
-0.000990802
-0.000622253
-0.000590862
-0.000360891
-0.000341558
-0.000203389
-0.000191901
-0.000111605
-0.000104987
-5.95821e-05
-5.58618e-05
-3.07111e-05
-2.86109e-05
-1.39281e-05
-1.27352e-05
-4.75099e-06
-4.12758e-06
-2.56571e-07
-4.61402e-08
-1.04307e-08
-4.08654e-06
22.3009
-0.079061
-1.27592
-1.45558
-1.57226
-1.57048
-1.4205
-1.39153
-1.30012
-1.8765
-1.09245
-0.872101
-0.821471
-0.714285
-0.686579
-0.598403
-0.575454
-0.499651
-0.47991
-0.414509
-0.397506
-0.341273
-0.326699
-0.278675
-0.266278
-0.225623
-0.215175
-0.181095
-0.172378
-0.144105
-0.136906
-0.113691
-0.107807
-0.0889363
-0.0841725
-0.0689788
-0.065158
-0.0530329
-0.0499948
-0.0403991
-0.0380029
-0.0304687
-0.0285936
-0.022724
-0.0212685
-0.0167336
-0.0156177
-0.0121642
-0.0114007
-0.00923716
-0.0121926
-0.00643436
-0.00428799
-0.00380303
-0.00273105
-0.00247612
-0.00174696
-0.00157585
-0.00108444
-0.000970819
-0.000651499
-0.000578755
-0.000379321
-0.000334501
-0.00021456
-0.000187916
-0.000118145
-0.000102789
-6.3301e-05
-5.46647e-05
-3.27602e-05
-2.7885e-05
-1.51316e-05
-1.23639e-05
-5.42107e-06
-3.97519e-06
-6.23278e-07
-1.31426e-07
-3.02009e-08
-4.09348e-06
22.2739
-0.165068
-1.1951
-1.43765
-1.55757
-1.55667
-1.42961
-1.39293
-1.34503
-1.76739
-1.13056
-0.891731
-0.819943
-0.720644
-0.682714
-0.603223
-0.571963
-0.503768
-0.476887
-0.418064
-0.394912
-0.344338
-0.324494
-0.281302
-0.264422
-0.227855
-0.213629
-0.182974
-0.171104
-0.14567
-0.135867
-0.114982
-0.106968
-0.089989
-0.0835017
-0.0698293
-0.0646259
-0.0537138
-0.0495762
-0.0409395
-0.0376761
-0.0308943
-0.0283404
-0.0230566
-0.0210742
-0.0169922
-0.0154733
-0.0123773
-0.0113508
-0.00959313
-0.0115039
-0.00668668
-0.0044643
-0.00378342
-0.00279741
-0.00244868
-0.00179035
-0.00155712
-0.00111391
-0.000959058
-0.000670877
-0.000571712
-0.000391563
-0.000330447
-0.000221997
-0.000185654
-0.000122508
-0.000101555
-6.57852e-05
-5.39979e-05
-3.41277e-05
-2.74739e-05
-1.59354e-05
-1.21594e-05
-5.87119e-06
-3.89899e-06
-8.75553e-07
-2.01071e-07
-4.68972e-08
-4.09937e-06
22.2549
-0.217986
-1.14579
-1.42461
-1.5477
-1.54789
-1.43509
-1.39477
-1.37113
-1.70063
-1.15274
-0.904673
-0.819509
-0.724543
-0.680507
-0.60611
-0.569944
-0.506228
-0.475138
-0.420189
-0.393413
-0.34617
-0.32322
-0.282873
-0.263351
-0.229192
-0.212738
-0.1841
-0.170371
-0.146608
-0.13527
-0.115756
-0.106487
-0.0906211
-0.0831175
-0.0703403
-0.0643216
-0.0541232
-0.0493371
-0.0412646
-0.0374896
-0.0311504
-0.0281962
-0.0232568
-0.0209637
-0.0171481
-0.0153918
-0.0125076
-0.01133
-0.00980224
-0.0110841
-0.00683512
-0.00457888
-0.00377597
-0.00283825
-0.00243359
-0.00181672
-0.00154677
-0.00113183
-0.000952619
-0.000682686
-0.000567902
-0.000399038
-0.000328282
-0.000226547
-0.000184462
-0.000125181
-0.000100913
-6.73091e-05
-5.36536e-05
-3.49661e-05
-2.72579e-05
-1.64285e-05
-1.20553e-05
-6.14855e-06
-3.86475e-06
-1.03382e-06
-2.49877e-07
-5.89368e-08
-4.10365e-06
22.2451
-0.24318
-1.12244
-1.4178
-1.54275
-1.54363
-1.43767
-1.39594
-1.38309
-1.66897
-1.16292
-0.91109
-0.81946
-0.726397
-0.679508
-0.607461
-0.569022
-0.507378
-0.474339
-0.421182
-0.392727
-0.347027
-0.322638
-0.283608
-0.262862
-0.229817
-0.212332
-0.184627
-0.170037
-0.147048
-0.134999
-0.116119
-0.106268
-0.0909175
-0.0829431
-0.07058
-0.0641837
-0.0543153
-0.0492288
-0.0414172
-0.0374053
-0.0312707
-0.028131
-0.0233509
-0.0209138
-0.0172215
-0.0153553
-0.0125694
-0.0113231
-0.00989884
-0.0108855
-0.00690376
-0.00463525
-0.00377384
-0.00285771
-0.00242695
-0.00182918
-0.0015422
-0.00114031
-0.000949794
-0.000688277
-0.000566246
-0.000402583
-0.000327351
-0.000228707
-0.000183955
-0.000126451
-0.000100643
-6.80338e-05
-5.35098e-05
-3.53647e-05
-2.71662e-05
-1.66629e-05
-1.20123e-05
-6.28083e-06
-3.85231e-06
-1.11016e-06
-2.74932e-07
-6.52335e-08
-4.10589e-06
22.2452
-0.243186
-1.12244
-1.4178
-1.54275
-1.54363
-1.43767
-1.39594
-1.38309
-1.66897
-1.16292
-0.91109
-0.81946
-0.726397
-0.679508
-0.607461
-0.569022
-0.507378
-0.474339
-0.421182
-0.392728
-0.347027
-0.322638
-0.283608
-0.262862
-0.229817
-0.212332
-0.184627
-0.170037
-0.147048
-0.134999
-0.116119
-0.106268
-0.0909175
-0.0829431
-0.07058
-0.0641837
-0.0543153
-0.0492288
-0.0414172
-0.0374053
-0.0312707
-0.028131
-0.0233509
-0.0209138
-0.0172215
-0.0153553
-0.0125694
-0.0113231
-0.00989884
-0.0108855
-0.00690376
-0.00463525
-0.00377384
-0.00285771
-0.00242694
-0.00182918
-0.0015422
-0.00114031
-0.000949794
-0.000688277
-0.000566246
-0.000402583
-0.000327351
-0.000228707
-0.000183955
-0.000126451
-0.000100643
-6.80338e-05
-5.35097e-05
-3.53647e-05
-2.71662e-05
-1.66629e-05
-1.20123e-05
-6.28082e-06
-3.8523e-06
-1.11016e-06
-2.7493e-07
-6.52372e-08
-4.10589e-06
22.255
-0.218002
-1.1458
-1.42461
-1.5477
-1.54789
-1.43509
-1.39477
-1.37113
-1.70063
-1.15274
-0.904673
-0.81951
-0.724543
-0.680507
-0.60611
-0.569944
-0.506229
-0.475138
-0.420189
-0.393413
-0.34617
-0.32322
-0.282873
-0.263351
-0.229192
-0.212738
-0.1841
-0.170371
-0.146609
-0.13527
-0.115756
-0.106487
-0.0906211
-0.0831175
-0.0703403
-0.0643216
-0.0541232
-0.0493371
-0.0412646
-0.0374896
-0.0311504
-0.0281962
-0.0232569
-0.0209637
-0.0171481
-0.0153918
-0.0125076
-0.01133
-0.00980225
-0.0110841
-0.00683512
-0.00457887
-0.00377596
-0.00283825
-0.00243358
-0.00181672
-0.00154677
-0.00113183
-0.000952618
-0.000682685
-0.000567902
-0.000399038
-0.000328282
-0.000226547
-0.000184462
-0.000125181
-0.000100913
-6.7309e-05
-5.36536e-05
-3.49661e-05
-2.72578e-05
-1.64284e-05
-1.20553e-05
-6.14853e-06
-3.86474e-06
-1.03381e-06
-2.49873e-07
-5.89468e-08
-4.10364e-06
22.274
-0.165089
-1.19511
-1.43765
-1.55757
-1.55667
-1.42961
-1.39293
-1.34503
-1.76739
-1.13056
-0.891732
-0.819943
-0.720644
-0.682715
-0.603224
-0.571963
-0.503768
-0.476887
-0.418064
-0.394913
-0.344338
-0.324494
-0.281302
-0.264422
-0.227855
-0.213629
-0.182974
-0.171104
-0.14567
-0.135867
-0.114982
-0.106968
-0.0899891
-0.0835018
-0.0698293
-0.064626
-0.0537139
-0.0495762
-0.0409395
-0.0376761
-0.0308943
-0.0283405
-0.0230566
-0.0210742
-0.0169922
-0.0154733
-0.0123773
-0.0113508
-0.00959313
-0.0115039
-0.00668667
-0.00446429
-0.00378342
-0.00279741
-0.00244867
-0.00179035
-0.00155712
-0.00111391
-0.000959057
-0.000670877
-0.000571712
-0.000391563
-0.000330447
-0.000221997
-0.000185654
-0.000122507
-0.000101555
-6.57851e-05
-5.39978e-05
-3.41277e-05
-2.74739e-05
-1.59354e-05
-1.21594e-05
-5.87117e-06
-3.89897e-06
-8.75539e-07
-2.01066e-07
-4.69108e-08
-4.09936e-06
22.301
-0.0790795
-1.27592
-1.45558
-1.57226
-1.57049
-1.4205
-1.39153
-1.30012
-1.8765
-1.09246
-0.872102
-0.821471
-0.714286
-0.68658
-0.598404
-0.575455
-0.499652
-0.47991
-0.414509
-0.397506
-0.341273
-0.326699
-0.278676
-0.266279
-0.225623
-0.215175
-0.181096
-0.172378
-0.144105
-0.136906
-0.113692
-0.107807
-0.0889364
-0.0841726
-0.0689788
-0.065158
-0.053033
-0.0499948
-0.0403991
-0.0380029
-0.0304687
-0.0285936
-0.022724
-0.0212685
-0.0167336
-0.0156177
-0.0121642
-0.0114007
-0.00923717
-0.0121926
-0.00643436
-0.00428799
-0.00380303
-0.00273105
-0.00247612
-0.00174696
-0.00157585
-0.00108444
-0.000970819
-0.000651499
-0.000578755
-0.000379321
-0.000334501
-0.00021456
-0.000187915
-0.000118145
-0.000102789
-6.33009e-05
-5.46647e-05
-3.27601e-05
-2.78849e-05
-1.51315e-05
-1.23638e-05
-5.42105e-06
-3.97517e-06
-6.23266e-07
-1.31422e-07
-3.02134e-08
-4.09347e-06
22.3338
0.0488638
-1.39742
-1.47604
-1.59169
-1.59023
-1.40654
-1.39262
-1.22849
-2.04003
-1.0318
-0.845679
-0.825258
-0.704744
-0.69286
-0.590972
-0.581058
-0.49329
-0.484757
-0.409016
-0.401666
-0.336541
-0.330241
-0.274622
-0.269264
-0.222181
-0.217665
-0.178201
-0.174433
-0.141696
-0.138584
-0.111707
-0.109164
-0.0873189
-0.0852601
-0.067673
-0.0660218
-0.0519883
-0.0506754
-0.0395704
-0.0385349
-0.0298166
-0.0290063
-0.0222147
-0.0215858
-0.016338
-0.0158555
-0.0118433
-0.0115066
-0.00867637
-0.0132299
-0.00603752
-0.00404519
-0.0038461
-0.00263198
-0.00252252
-0.00168123
-0.00160738
-0.00103985
-0.000990802
-0.000622253
-0.000590861
-0.000360891
-0.000341558
-0.000203389
-0.000191901
-0.000111605
-0.000104987
-5.95821e-05
-5.58618e-05
-3.07111e-05
-2.86109e-05
-1.39281e-05
-1.27351e-05
-4.75098e-06
-4.12758e-06
-2.56566e-07
-4.61387e-08
-1.04364e-08
-4.08654e-06
19.983
-1.00509
-0.708626
-0.698404
-0.740252
-0.743213
-0.762609
-0.767337
-0.787387
-1.39759
-0.757102
-0.688888
-0.680024
-0.631731
-0.626387
-0.575306
-0.569946
-0.518255
-0.512944
-0.462692
-0.457599
-0.410115
-0.405348
-0.361382
-0.356999
-0.316885
-0.312905
-0.276693
-0.273112
-0.240672
-0.237472
-0.208573
-0.205728
-0.18009
-0.17757
-0.154902
-0.152677
-0.132697
-0.130739
-0.113186
-0.111469
-0.0961085
-0.0946092
-0.0812316
-0.07993
-0.0683497
-0.0672375
-0.0573286
-0.0565911
-0.0495891
-0.0820221
-0.041298
-0.0334852
-0.0326371
-0.0276127
-0.0271275
-0.0230667
-0.0226832
-0.0194089
-0.0191019
-0.0164976
-0.016255
-0.0142139
-0.0140238
-0.0124336
-0.0122747
-0.0108383
-0.0106745
-0.00898133
-0.00879369
-0.00687487
-0.00668835
-0.00505253
-0.0048282
-0.00214181
-0.00191231
-0.0001165
-2.07604e-05
-4.67833e-06
-0.00035024
19.9436
-0.941803
-0.727741
-0.706443
-0.737991
-0.74466
-0.763015
-0.776
-0.829754
-1.28394
-0.798347
-0.70163
-0.678988
-0.635436
-0.622953
-0.578817
-0.566418
-0.52184
-0.509561
-0.466215
-0.454438
-0.41347
-0.402445
-0.364506
-0.354367
-0.319746
-0.31054
-0.279283
-0.271001
-0.242997
-0.235596
-0.210648
-0.204067
-0.181933
-0.176103
-0.156533
-0.151386
-0.134136
-0.129606
-0.114452
-0.11048
-0.0972181
-0.0937499
-0.0822002
-0.0791896
-0.0691968
-0.0666309
-0.0581764
-0.0565813
-0.052499
-0.0754529
-0.0437288
-0.0345764
-0.0324777
-0.0280145
-0.0268835
-0.0233692
-0.0224813
-0.0196525
-0.0189422
-0.0166922
-0.0161308
-0.0143666
-0.0139265
-0.0125481
-0.0121796
-0.0109321
-0.0105528
-0.00909198
-0.00865854
-0.00701068
-0.00657837
-0.00514414
-0.00462607
-0.00234263
-0.00181505
-0.000281495
-5.90933e-05
-1.35438e-05
-0.000353211
19.9113
-0.894264
-0.739146
-0.712365
-0.736724
-0.745637
-0.763633
-0.783028
-0.856101
-1.20787
-0.824034
-0.711406
-0.678787
-0.637897
-0.620783
-0.581057
-0.564176
-0.524132
-0.507418
-0.468474
-0.452442
-0.415625
-0.400618
-0.366516
-0.352713
-0.32159
-0.309056
-0.280953
-0.269677
-0.244497
-0.234421
-0.211987
-0.203027
-0.183122
-0.175186
-0.157586
-0.150579
-0.135066
-0.128898
-0.11527
-0.109862
-0.0979354
-0.0932134
-0.0828268
-0.0787281
-0.0697466
-0.0662594
-0.0587494
-0.0566707
-0.054327
-0.0710705
-0.0452564
-0.0353852
-0.0324128
-0.0282829
-0.0267346
-0.0235664
-0.0223569
-0.0198113
-0.018844
-0.0168192
-0.0160545
-0.0144663
-0.0138666
-0.0126221
-0.0121196
-0.010991
-0.0104742
-0.00916147
-0.00857191
-0.00709781
-0.00650843
-0.00519907
-0.00449453
-0.00247321
-0.00175802
-0.000394035
-9.0347e-05
-2.10273e-05
-0.000355736
19.8887
-0.86264
-0.745417
-0.71624
-0.736071
-0.746247
-0.764192
-0.787906
-0.871296
-1.16122
-0.838867
-0.717977
-0.678912
-0.639402
-0.619514
-0.582379
-0.562856
-0.525487
-0.506162
-0.469813
-0.451276
-0.416905
-0.399552
-0.367711
-0.35175
-0.322687
-0.308193
-0.281948
-0.268908
-0.245392
-0.233738
-0.212785
-0.202423
-0.183832
-0.174653
-0.158214
-0.15011
-0.13562
-0.128488
-0.115758
-0.109504
-0.0983638
-0.0929026
-0.0832011
-0.0784612
-0.0700759
-0.0660484
-0.0591047
-0.0567701
-0.0553912
-0.06839
-0.0461459
-0.0359177
-0.0323938
-0.0284477
-0.0266503
-0.0236851
-0.0222857
-0.0199068
-0.0187879
-0.0168956
-0.0160111
-0.0145263
-0.0138324
-0.0126663
-0.0120845
-0.0110255
-0.0104274
-0.00920195
-0.00852058
-0.00714948
-0.00646722
-0.00522975
-0.00441562
-0.0025515
-0.00172693
-0.000464149
-0.000112218
-2.64207e-05
-0.000357567
19.877
-0.846869
-0.748167
-0.718151
-0.7358
-0.746542
-0.764514
-0.790391
-0.878223
-1.13906
-0.845636
-0.721269
-0.67905
-0.640118
-0.618929
-0.582992
-0.562246
-0.526116
-0.505582
-0.470435
-0.450738
-0.417501
-0.399062
-0.368269
-0.351308
-0.323199
-0.307797
-0.282412
-0.268555
-0.245809
-0.233426
-0.213158
-0.202146
-0.184163
-0.174409
-0.158508
-0.149896
-0.13588
-0.1283
-0.115986
-0.10934
-0.0985639
-0.0927605
-0.0833761
-0.0783393
-0.0702301
-0.0659532
-0.0592749
-0.0568306
-0.0558795
-0.0671185
-0.0465542
-0.0361816
-0.0323913
-0.0285262
-0.0266124
-0.0237408
-0.0222535
-0.0199516
-0.0187625
-0.0169315
-0.0159914
-0.0145545
-0.0138169
-0.0126869
-0.0120683
-0.0110413
-0.0104056
-0.00922054
-0.00849672
-0.00717351
-0.00644814
-0.00524342
-0.00437865
-0.00258817
-0.00171333
-0.000497812
-0.000123435
-2.92397e-05
-0.000358529
19.877
-0.846874
-0.748169
-0.718151
-0.7358
-0.746542
-0.764514
-0.790391
-0.878223
-1.13906
-0.845636
-0.721269
-0.67905
-0.640118
-0.61893
-0.582992
-0.562246
-0.526116
-0.505582
-0.470435
-0.450738
-0.417502
-0.399062
-0.368269
-0.351308
-0.323199
-0.307797
-0.282412
-0.268555
-0.245809
-0.233426
-0.213158
-0.202146
-0.184163
-0.174409
-0.158508
-0.149896
-0.13588
-0.1283
-0.115986
-0.10934
-0.0985639
-0.0927605
-0.0833761
-0.0783393
-0.0702301
-0.0659532
-0.0592749
-0.0568306
-0.0558795
-0.0671185
-0.0465542
-0.0361816
-0.0323913
-0.0285262
-0.0266124
-0.0237408
-0.0222535
-0.0199516
-0.0187625
-0.0169315
-0.0159914
-0.0145545
-0.0138169
-0.0126869
-0.0120683
-0.0110413
-0.0104056
-0.00922054
-0.00849673
-0.00717351
-0.00644814
-0.00524342
-0.00437865
-0.00258817
-0.00171333
-0.000497811
-0.000123434
-2.92394e-05
-0.000358528
19.8887
-0.862654
-0.745421
-0.716241
-0.736071
-0.746248
-0.764193
-0.787907
-0.871296
-1.16122
-0.838868
-0.717977
-0.678913
-0.639403
-0.619514
-0.582379
-0.562856
-0.525487
-0.506162
-0.469813
-0.451276
-0.416906
-0.399552
-0.367712
-0.35175
-0.322687
-0.308193
-0.281948
-0.268908
-0.245392
-0.233739
-0.212785
-0.202423
-0.183832
-0.174653
-0.158215
-0.15011
-0.13562
-0.128488
-0.115758
-0.109504
-0.0983638
-0.0929027
-0.0832012
-0.0784612
-0.0700759
-0.0660484
-0.0591047
-0.0567701
-0.0553912
-0.06839
-0.0461459
-0.0359177
-0.0323938
-0.0284477
-0.0266503
-0.0236851
-0.0222857
-0.0199068
-0.0187879
-0.0168957
-0.0160111
-0.0145263
-0.0138324
-0.0126663
-0.0120845
-0.0110255
-0.0104275
-0.00920195
-0.00852058
-0.00714949
-0.00646722
-0.00522974
-0.00441561
-0.00255149
-0.00172692
-0.000464146
-0.000112216
-2.64201e-05
-0.000357566
19.9114
-0.894283
-0.739151
-0.712367
-0.736725
-0.745638
-0.763634
-0.783029
-0.856102
-1.20787
-0.824034
-0.711406
-0.678787
-0.637897
-0.620784
-0.581057
-0.564176
-0.524132
-0.507419
-0.468474
-0.452443
-0.415625
-0.400618
-0.366516
-0.352714
-0.32159
-0.309056
-0.280953
-0.269678
-0.244498
-0.234421
-0.211987
-0.203027
-0.183122
-0.175186
-0.157586
-0.150579
-0.135066
-0.128899
-0.11527
-0.109862
-0.0979355
-0.0932134
-0.0828268
-0.0787281
-0.0697466
-0.0662595
-0.0587495
-0.0566707
-0.0543271
-0.0710706
-0.0452565
-0.0353852
-0.0324128
-0.0282829
-0.0267346
-0.0235664
-0.0223569
-0.0198113
-0.018844
-0.0168192
-0.0160545
-0.0144663
-0.0138666
-0.0126221
-0.0121196
-0.0109911
-0.0104743
-0.00916148
-0.00857191
-0.00709782
-0.00650843
-0.00519907
-0.00449453
-0.0024732
-0.00175802
-0.000394031
-9.03444e-05
-2.10265e-05
-0.000355734
19.9436
-0.941819
-0.727745
-0.706444
-0.737992
-0.744661
-0.763016
-0.776
-0.829755
-1.28394
-0.798347
-0.70163
-0.678989
-0.635437
-0.622954
-0.578818
-0.566419
-0.521841
-0.509561
-0.466215
-0.454438
-0.41347
-0.402446
-0.364506
-0.354367
-0.319747
-0.31054
-0.279283
-0.271001
-0.242998
-0.235597
-0.210648
-0.204067
-0.181933
-0.176103
-0.156533
-0.151386
-0.134136
-0.129606
-0.114452
-0.11048
-0.0972182
-0.09375
-0.0822002
-0.0791896
-0.0691969
-0.0666309
-0.0581765
-0.0565814
-0.052499
-0.0754529
-0.0437288
-0.0345764
-0.0324778
-0.0280145
-0.0268835
-0.0233692
-0.0224813
-0.0196525
-0.0189422
-0.0166923
-0.0161308
-0.0143666
-0.0139265
-0.0125481
-0.0121796
-0.0109321
-0.0105528
-0.00909198
-0.00865854
-0.00701068
-0.00657837
-0.00514414
-0.00462607
-0.00234263
-0.00181505
-0.000281492
-5.9091e-05
-1.35431e-05
-0.00035321
19.983
-1.0051
-0.708628
-0.698405
-0.740253
-0.743213
-0.762609
-0.767338
-0.787387
-1.39759
-0.757103
-0.688888
-0.680024
-0.631731
-0.626387
-0.575306
-0.569946
-0.518255
-0.512944
-0.462692
-0.457599
-0.410115
-0.405348
-0.361383
-0.356999
-0.316885
-0.312905
-0.276693
-0.273112
-0.240672
-0.237473
-0.208573
-0.205728
-0.18009
-0.17757
-0.154902
-0.152677
-0.132697
-0.130739
-0.113186
-0.111469
-0.0961085
-0.0946093
-0.0812316
-0.07993
-0.0683497
-0.0672375
-0.0573287
-0.0565912
-0.0495891
-0.0820221
-0.0412981
-0.0334852
-0.0326371
-0.0276127
-0.0271275
-0.0230668
-0.0226832
-0.0194089
-0.0191019
-0.0164976
-0.016255
-0.0142139
-0.0140238
-0.0124336
-0.0122747
-0.0108383
-0.0106745
-0.00898133
-0.00879369
-0.00687487
-0.00668835
-0.00505253
-0.0048282
-0.00214181
-0.0019123
-0.000116499
-2.07595e-05
-4.67811e-06
-0.00035024
19.9564
-1.00597
-0.708737
-0.698472
-0.740182
-0.74313
-0.762434
-0.76715
-0.787104
-1.397
-0.756726
-0.688443
-0.679572
-0.631206
-0.625855
-0.574707
-0.56934
-0.517592
-0.512276
-0.461978
-0.456881
-0.409365
-0.404596
-0.360612
-0.356227
-0.316109
-0.312129
-0.275925
-0.272346
-0.239925
-0.236728
-0.207857
-0.205016
-0.179415
-0.176899
-0.154273
-0.152053
-0.132119
-0.130166
-0.112662
-0.11095
-0.0956391
-0.094145
-0.0808157
-0.079519
-0.0679851
-0.0668775
-0.0570117
-0.0562772
-0.0493061
-0.0815481
-0.0410561
-0.033285
-0.0324415
-0.0274446
-0.0269621
-0.0229246
-0.0225434
-0.0192887
-0.0189836
-0.016396
-0.016155
-0.0141283
-0.0139396
-0.0123624
-0.0122049
-0.0107826
-0.0106202
-0.00894132
-0.00875502
-0.00684766
-0.0066623
-0.00503722
-0.00481386
-0.00213573
-0.00190692
-0.00011617
-2.07015e-05
-4.66504e-06
-0.000349128
19.917
-0.942582
-0.727909
-0.706512
-0.737934
-0.744572
-0.762845
-0.775803
-0.829455
-1.28339
-0.797949
-0.701187
-0.678531
-0.634917
-0.622417
-0.578223
-0.565809
-0.521182
-0.50889
-0.465505
-0.453718
-0.412723
-0.401693
-0.363738
-0.353596
-0.318971
-0.309765
-0.278515
-0.270236
-0.242249
-0.234854
-0.20993
-0.203357
-0.181255
-0.175435
-0.155901
-0.150765
-0.133555
-0.129037
-0.113925
-0.109965
-0.0967454
-0.0932889
-0.0817809
-0.0787817
-0.0688289
-0.0662736
-0.0578556
-0.0562669
-0.0521997
-0.075017
-0.0434729
-0.0343702
-0.032283
-0.0278443
-0.0267196
-0.0232254
-0.0223427
-0.0195309
-0.018825
-0.0165894
-0.0160317
-0.01428
-0.0138432
-0.012476
-0.0121107
-0.0108754
-0.0104995
-0.00905093
-0.00862059
-0.00698265
-0.00655303
-0.00512803
-0.00461223
-0.00233591
-0.00180992
-0.000280697
-5.89254e-05
-1.35053e-05
-0.00035209
19.8847
-0.894972
-0.73935
-0.712438
-0.736675
-0.745546
-0.763467
-0.782824
-0.855792
-1.20735
-0.823623
-0.710963
-0.678326
-0.63738
-0.620244
-0.580466
-0.563564
-0.523476
-0.506746
-0.467766
-0.451722
-0.41488
-0.399865
-0.365749
-0.351942
-0.320815
-0.308282
-0.280185
-0.268914
-0.243749
-0.23368
-0.211268
-0.202319
-0.182443
-0.174519
-0.156953
-0.14996
-0.134483
-0.128332
-0.114741
-0.109349
-0.0974605
-0.0927545
-0.0824054
-0.0783222
-0.0693765
-0.0659038
-0.0584261
-0.0563553
-0.0540176
-0.07066
-0.0449918
-0.0351746
-0.0322184
-0.0281112
-0.0265716
-0.0234215
-0.0222191
-0.0196888
-0.0187274
-0.0167156
-0.015956
-0.014379
-0.0137838
-0.0125494
-0.0120514
-0.0109338
-0.0104216
-0.00911976
-0.00853441
-0.00706926
-0.00648353
-0.00518243
-0.00448099
-0.00246605
-0.00175303
-0.000392916
-9.00904e-05
-2.09676e-05
-0.000354608
19.862
-0.863301
-0.745643
-0.716315
-0.736027
-0.746155
-0.764028
-0.787697
-0.870981
-1.16072
-0.838449
-0.717535
-0.678449
-0.638888
-0.618973
-0.58179
-0.562243
-0.524833
-0.505488
-0.469106
-0.450555
-0.416162
-0.398798
-0.366945
-0.350979
-0.321913
-0.307419
-0.28118
-0.268145
-0.244642
-0.232999
-0.212066
-0.201716
-0.183152
-0.173988
-0.15758
-0.149493
-0.135037
-0.127922
-0.115228
-0.108992
-0.0978876
-0.092445
-0.0827784
-0.0780565
-0.0697046
-0.0656937
-0.0587797
-0.056454
-0.0550757
-0.0679951
-0.0458761
-0.0357042
-0.0321996
-0.0282751
-0.0264878
-0.0235395
-0.0221483
-0.0197837
-0.0186717
-0.0167916
-0.0159129
-0.0144386
-0.01375
-0.0125933
-0.0120166
-0.0109678
-0.0103751
-0.00915983
-0.00848333
-0.00712062
-0.00644258
-0.0052128
-0.00440225
-0.00254408
-0.00172201
-0.00046283
-0.0001119
-2.63457e-05
-0.000356434
19.8503
-0.847507
-0.748402
-0.718228
-0.735759
-0.746449
-0.764351
-0.790179
-0.877906
-1.13857
-0.845215
-0.720827
-0.678586
-0.639604
-0.618388
-0.582404
-0.561632
-0.525462
-0.504908
-0.46973
-0.450017
-0.416758
-0.398308
-0.367502
-0.350537
-0.322424
-0.307023
-0.281644
-0.267793
-0.24506
-0.232686
-0.212438
-0.20144
-0.183483
-0.173745
-0.157873
-0.149279
-0.135295
-0.127735
-0.115455
-0.108829
-0.0980871
-0.0923034
-0.0829528
-0.0779351
-0.0698582
-0.0655989
-0.0589491
-0.0565141
-0.0555614
-0.066731
-0.0462821
-0.0359665
-0.0321971
-0.0283531
-0.0264501
-0.0235949
-0.0221163
-0.0198282
-0.0186465
-0.0168272
-0.0158934
-0.0144666
-0.0137346
-0.0126138
-0.0120007
-0.0109834
-0.0103535
-0.00917823
-0.0084596
-0.0071445
-0.00642361
-0.00522633
-0.00436536
-0.00258063
-0.00170845
-0.000496397
-0.000123085
-2.91566e-05
-0.000357393
19.8503
-0.847513
-0.748404
-0.718228
-0.735759
-0.746449
-0.764351
-0.79018
-0.877906
-1.13857
-0.845215
-0.720827
-0.678586
-0.639604
-0.618388
-0.582404
-0.561633
-0.525462
-0.504908
-0.46973
-0.450017
-0.416758
-0.398308
-0.367502
-0.350537
-0.322424
-0.307023
-0.281644
-0.267793
-0.24506
-0.232686
-0.212438
-0.20144
-0.183483
-0.173745
-0.157873
-0.149279
-0.135295
-0.127735
-0.115455
-0.108829
-0.0980871
-0.0923034
-0.0829528
-0.0779351
-0.0698582
-0.0655989
-0.0589491
-0.0565141
-0.0555614
-0.066731
-0.0462821
-0.0359665
-0.0321971
-0.0283532
-0.0264501
-0.0235949
-0.0221163
-0.0198282
-0.0186465
-0.0168272
-0.0158934
-0.0144666
-0.0137346
-0.0126138
-0.0120007
-0.0109834
-0.0103535
-0.00917824
-0.0084596
-0.0071445
-0.00642361
-0.00522633
-0.00436536
-0.00258062
-0.00170845
-0.000496396
-0.000123084
-2.91564e-05
-0.000357392
19.862
-0.863315
-0.745647
-0.716317
-0.736028
-0.746156
-0.764028
-0.787698
-0.870982
-1.16073
-0.83845
-0.717535
-0.678449
-0.638888
-0.618973
-0.58179
-0.562244
-0.524833
-0.505488
-0.469107
-0.450555
-0.416162
-0.398799
-0.366945
-0.350979
-0.321913
-0.307419
-0.28118
-0.268145
-0.244643
-0.232999
-0.212066
-0.201716
-0.183152
-0.173988
-0.15758
-0.149493
-0.135037
-0.127922
-0.115228
-0.108992
-0.0978876
-0.092445
-0.0827785
-0.0780565
-0.0697046
-0.0656937
-0.0587798
-0.056454
-0.0550758
-0.0679951
-0.0458762
-0.0357042
-0.0321996
-0.0282751
-0.0264878
-0.0235395
-0.0221484
-0.0197837
-0.0186717
-0.0167916
-0.0159129
-0.0144386
-0.01375
-0.0125933
-0.0120167
-0.0109678
-0.0103751
-0.00915984
-0.00848334
-0.00712063
-0.00644258
-0.0052128
-0.00440225
-0.00254408
-0.00172201
-0.000462827
-0.000111898
-2.63451e-05
-0.000356433
19.8847
-0.89499
-0.739355
-0.71244
-0.736676
-0.745547
-0.763468
-0.782825
-0.855793
-1.20735
-0.823624
-0.710964
-0.678327
-0.637381
-0.620244
-0.580466
-0.563565
-0.523476
-0.506746
-0.467766
-0.451722
-0.41488
-0.399865
-0.365749
-0.351943
-0.320815
-0.308282
-0.280185
-0.268914
-0.243749
-0.23368
-0.211268
-0.202319
-0.182443
-0.17452
-0.156953
-0.14996
-0.134483
-0.128332
-0.114741
-0.109349
-0.0974606
-0.0927545
-0.0824054
-0.0783222
-0.0693766
-0.0659039
-0.0584262
-0.0563554
-0.0540176
-0.0706601
-0.0449918
-0.0351746
-0.0322185
-0.0281112
-0.0265716
-0.0234215
-0.0222191
-0.0196888
-0.0187275
-0.0167157
-0.0159561
-0.014379
-0.0137839
-0.0125495
-0.0120514
-0.0109338
-0.0104216
-0.00911977
-0.00853441
-0.00706927
-0.00648353
-0.00518243
-0.00448099
-0.00246604
-0.00175303
-0.000392912
-9.00878e-05
-2.09668e-05
-0.000354606
19.917
-0.942598
-0.727913
-0.706513
-0.737935
-0.744573
-0.762846
-0.775803
-0.829456
-1.28339
-0.79795
-0.701187
-0.678532
-0.634917
-0.622417
-0.578224
-0.565809
-0.521182
-0.50889
-0.465506
-0.453719
-0.412723
-0.401693
-0.363738
-0.353596
-0.318971
-0.309766
-0.278515
-0.270236
-0.242249
-0.234854
-0.209931
-0.203358
-0.181255
-0.175435
-0.155901
-0.150765
-0.133555
-0.129037
-0.113925
-0.109965
-0.0967454
-0.093289
-0.081781
-0.0787818
-0.068829
-0.0662736
-0.0578557
-0.0562669
-0.0521997
-0.075017
-0.0434729
-0.0343702
-0.032283
-0.0278443
-0.0267196
-0.0232254
-0.0223427
-0.0195309
-0.018825
-0.0165895
-0.0160317
-0.01428
-0.0138432
-0.012476
-0.0121108
-0.0108754
-0.0104995
-0.00905094
-0.0086206
-0.00698266
-0.00655303
-0.00512803
-0.00461223
-0.0023359
-0.00180991
-0.000280693
-5.89232e-05
-1.35047e-05
-0.000352089
19.9564
-1.00598
-0.708739
-0.698472
-0.740183
-0.74313
-0.762434
-0.767151
-0.787104
-1.397
-0.756726
-0.688443
-0.679573
-0.631206
-0.625855
-0.574707
-0.56934
-0.517592
-0.512276
-0.461979
-0.456881
-0.409365
-0.404596
-0.360613
-0.356228
-0.316109
-0.312129
-0.275925
-0.272346
-0.239925
-0.236728
-0.207858
-0.205016
-0.179415
-0.176899
-0.154273
-0.152053
-0.132119
-0.130166
-0.112662
-0.11095
-0.0956392
-0.094145
-0.0808157
-0.0795191
-0.0679851
-0.0668775
-0.0570117
-0.0562772
-0.0493061
-0.0815481
-0.0410561
-0.033285
-0.0324415
-0.0274447
-0.0269622
-0.0229247
-0.0225434
-0.0192887
-0.0189836
-0.016396
-0.016155
-0.0141283
-0.0139396
-0.0123624
-0.0122049
-0.0107826
-0.0106202
-0.00894132
-0.00875503
-0.00684767
-0.0066623
-0.00503722
-0.00481386
-0.00213573
-0.00190692
-0.000116169
-2.07006e-05
-4.66483e-06
-0.000349127
22.3351
0.0486638
-1.39765
-1.47626
-1.59183
-1.59036
-1.40663
-1.39271
-1.22856
-2.04015
-1.03187
-0.845752
-0.825332
-0.704822
-0.692939
-0.591051
-0.581137
-0.493364
-0.484831
-0.40908
-0.401729
-0.336589
-0.330287
-0.274652
-0.269291
-0.222191
-0.217673
-0.178192
-0.174422
-0.14167
-0.138557
-0.111669
-0.109125
-0.0872719
-0.0852125
-0.0676216
-0.0659702
-0.0519363
-0.0506235
-0.0395207
-0.0384856
-0.0297715
-0.0289617
-0.0221754
-0.0215471
-0.0163051
-0.0158232
-0.0118167
-0.0114805
-0.00865501
-0.0131961
-0.00602149
-0.00403378
-0.00383516
-0.00262409
-0.00251491
-0.00167589
-0.00160224
-0.00103635
-0.000987444
-0.000620033
-0.000588741
-0.000359533
-0.000340266
-0.000202589
-0.000191143
-0.000111151
-0.000104558
-5.9336e-05
-5.56309e-05
-3.05874e-05
-2.84962e-05
-1.3876e-05
-1.2688e-05
-4.73634e-06
-4.11527e-06
-2.55787e-07
-4.5998e-08
-1.03985e-08
-4.08417e-06
22.3023
-0.0792624
-1.27614
-1.4558
-1.57241
-1.57062
-1.42059
-1.39161
-1.3002
-1.87662
-1.09253
-0.872175
-0.821545
-0.714363
-0.686658
-0.598483
-0.575533
-0.499726
-0.479983
-0.414574
-0.397567
-0.341322
-0.326744
-0.278706
-0.266305
-0.225634
-0.215181
-0.181087
-0.172366
-0.14408
-0.136878
-0.113654
-0.107767
-0.08889
-0.0841249
-0.0689279
-0.0651065
-0.0529811
-0.0499432
-0.0403494
-0.0379539
-0.0304233
-0.0285494
-0.0226844
-0.0212302
-0.0167002
-0.0155857
-0.0121371
-0.0113748
-0.00921453
-0.0121616
-0.00641736
-0.00427601
-0.00379222
-0.00272291
-0.00246864
-0.00174144
-0.0015708
-0.00108081
-0.000967526
-0.000649191
-0.000576677
-0.000377903
-0.000333236
-0.000213721
-0.000187173
-0.000117667
-0.00010237
-6.30402e-05
-5.44392e-05
-3.26278e-05
-2.77733e-05
-1.50742e-05
-1.23181e-05
-5.40359e-06
-3.96313e-06
-6.21364e-07
-1.31021e-07
-3.01078e-08
-4.09109e-06
22.2753
-0.165264
-1.19532
-1.43786
-1.55772
-1.5568
-1.4297
-1.39301
-1.34511
-1.7675
-1.13064
-0.891806
-0.820018
-0.720722
-0.682793
-0.603303
-0.572041
-0.503843
-0.47696
-0.418129
-0.394973
-0.344387
-0.324538
-0.281333
-0.264448
-0.227867
-0.213635
-0.182967
-0.171091
-0.145646
-0.135839
-0.114945
-0.106928
-0.0899431
-0.083454
-0.0697786
-0.0645745
-0.0536621
-0.0495247
-0.0408898
-0.0376273
-0.0308488
-0.0282965
-0.0230167
-0.0210362
-0.0169586
-0.0154416
-0.01235
-0.0113249
-0.0095697
-0.0114746
-0.00666906
-0.00445191
-0.00377266
-0.00278912
-0.00244128
-0.00178472
-0.00155213
-0.0011102
-0.000955804
-0.00066851
-0.000569659
-0.000390105
-0.000329197
-0.000221132
-0.000184921
-0.000122013
-0.000101142
-6.55146e-05
-5.37754e-05
-3.39896e-05
-2.7364e-05
-1.58746e-05
-1.21145e-05
-5.8518e-06
-3.88699e-06
-8.72854e-07
-2.0045e-07
-4.67526e-08
-4.09696e-06
22.2562
-0.218178
-1.14601
-1.42482
-1.54786
-1.54802
-1.43519
-1.39486
-1.37121
-1.70074
-1.15282
-0.904748
-0.819584
-0.72462
-0.680586
-0.606189
-0.570023
-0.506303
-0.47521
-0.420254
-0.393473
-0.34622
-0.323264
-0.282905
-0.263376
-0.229204
-0.212743
-0.184093
-0.170358
-0.146585
-0.135242
-0.115719
-0.106447
-0.0905755
-0.0830697
-0.0702898
-0.0642703
-0.0540715
-0.0492857
-0.0412148
-0.0374411
-0.0311048
-0.0281524
-0.0232168
-0.0209258
-0.0171144
-0.0153603
-0.01248
-0.0113041
-0.00977836
-0.011056
-0.00681715
-0.00456622
-0.00376523
-0.00282985
-0.00242623
-0.00181102
-0.00154182
-0.00112807
-0.000949386
-0.000680283
-0.000565863
-0.000397557
-0.000327041
-0.000225666
-0.000183734
-0.000124676
-0.000100502
-6.70325e-05
-5.34328e-05
-3.48245e-05
-2.71489e-05
-1.63655e-05
-1.20107e-05
-6.12797e-06
-3.85274e-06
-1.03063e-06