/*--------------------------------*- C++ -*----------------------------------*\
| =========                 |                                                 |
| \\      /  F ield         | OpenFOAM: The Open Source CFD Toolbox           |
|  \\    /   O peration     | Version:  5.x                                   |
|   \\  /    A nd           | Web:      www.OpenFOAM.org                      |
|    \\/     M anipulation  |                                                 |
\*---------------------------------------------------------------------------*/
FoamFile
{
    version     2.0;
    format      ascii;
    class       volScalarField;
    location    "5";
    object      gradTy;
}
// * * * * * * * * * * * * * * * * * * * * * * * * * * * * * * * * * * * * * //

dimensions      [0 -1 0 1 0 0 0];

internalField   nonuniform List<scalar> 
6300
(
1078.37
1235.51
1393.85
1554.17
1717.19
1883.58
2053.91
2228.63
2408.03
2592.23
2781.1
2974.28
3171.16
3370.84
3572.22
-0.605169
-1.80313
-2.96296
-4.05602
-5.04926
-5.90406
-6.57606
-7.01619
-7.17359
-7.00048
-6.45923
-5.53079
-4.2231
-2.57676
-0.665462
-1.02239
-3.04764
-5.01251
-6.87107
-8.5694
-10.0433
-11.2177
-12.0077
-12.3228
-12.0759
-11.1947
-9.63834
-7.41375
-4.58818
-1.292
-1.45917
-4.35251
-7.16828
-9.84625
-12.3138
-14.482
-16.2437
-17.4736
-18.0339
-17.7852
-16.6049
-14.4138
-11.2051
-7.06991
-2.20706
-1.92091
-5.7349
-9.46181
-13.0318
-16.3573
-19.3271
-21.8011
-23.609
-24.5539
-24.4257
-23.0258
-20.2067
-15.9226
-10.2792
-3.5607
-2.41045
-7.20426
-11.9121
-16.4615
-20.7563
-24.6676
-28.0243
-30.6068
-32.1467
-32.3375
-30.8653
-27.464
-21.999
-14.563
-5.54655
-2.9271
-8.75947
-14.5209
-20.1455
-25.5386
-30.5624
-35.0213
-38.6469
-41.088
-41.912
-40.6333
-36.7845
-30.0459
-20.4269
-8.43832
-3.46555
-10.3855
-17.2662
-24.0609
-30.6898
-37.0216
-42.851
-47.8711
-51.6456
-53.5883
-52.9708
-48.9942
-40.9726
-28.6598
-12.6551
-4.01507
-12.0507
-20.0971
-28.1416
-36.1375
-43.9828
-51.4892
-58.34
-64.0342
-67.824
-68.6664
-65.248
-56.19
-40.5842
-18.9053
-4.55903
-13.7049
-22.9298
-32.2706
-41.7354
-51.2822
-60.7823
-69.9647
-78.3264
-85.0059
-88.6218
-87.1404
-77.9544
-58.5814
-28.5354
-5.07512
-15.2799
-25.6463
-36.2749
-47.2509
-58.6273
-70.3925
-82.4088
-94.2999
-105.25
-113.673
-116.737
-109.905
-87.2512
-44.5124
-5.53663
-16.6929
-28.1002
-39.9314
-52.3654
-65.5829
-79.7504
-94.977
-111.213
-128.02
-144.083
-156.226
-157.677
-136.005
-74.6993
-5.91503
-17.8548
-30.1299
-42.9845
-56.6956
-71.5876
-88.0481
-106.535
-127.553
-151.532
-178.413
-206.405
-228.57
-224.39
-144.67
-6.18361
-18.6812
-31.5796
-45.1807
-59.844
-76.0228
-94.3182
-115.56
-140.93
-172.141
-211.628
-262.407
-325.806
-388.31
-355.15
-6.32177
-19.1064
-32.3262
-46.3141
-61.4759
-78.3405
-97.641
-120.455
-148.463
-184.472
-233.548
-305.785
-423.933
-647.89
-1167.24
3757.2
3924.76
4090.89
4254.76
4415.59
4572.67
4725.34
4873.04
5015.28
5151.64
5281.8
5405.47
5522.43
5632.52
5735.59
5831.56
5920.35
6001.94
6076.32
6143.5
6203.54
6256.48
6302.43
6341.49
6373.79
6399.45
6418.63
6431.5
6438.21
6438.94
6433.85
6423.14
6406.96
6385.49
6358.9
6327.35
6291
6250.01
6204.53
6154.72
6100.72
6042.69
5980.77
5915.11
5845.86
5773.16
5697.14
5617.93
5535.66
5450.44
5362.39
5271.6
5178.19
5082.24
4983.87
4883.16
4780.22
4675.16
4568.08
4459.11
4348.36
4235.94
4121.97
4006.57
3889.85
3771.94
3652.96
3533.02
3412.28
3290.88
3168.98
3046.77
2924.45
2802.25
2680.4
2559.17
2438.83
2319.66
2201.96
2086.01
1972.11
1860.53
1751.55
1645.43
1542.39
1442.64
1346.34
1253.64
1164.62
1079.33
1.23769
3.01029
4.76092
6.43257
7.98031
9.37366
10.5967
11.6465
12.5299
13.2604
13.8549
14.3307
14.7042
14.9889
15.1957
15.3328
15.4059
15.4195
15.3771
15.282
15.1376
14.9479
14.7172
14.4503
14.1524
13.8287
13.4847
13.1256
12.7563
12.3817
12.0059
11.6324
11.264
10.9024
10.5487
10.2027
9.86388
9.53089
9.20239
8.87722
8.55475
8.2351
7.91927
7.60903
7.3067
7.01475
6.73539
6.47013
6.21942
5.98245
5.75714
5.54034
5.3282
5.11668
4.90212
4.68172
4.45394
4.21855
3.97657
3.72984
3.48053
3.23043
2.98036
2.72965
2.47584
2.21469
1.94038
1.64611
1.32479
0.969926
0.576346
0.140915
-0.337083
-0.855818
-1.41106
-1.99656
-2.60452
-3.22613
-3.85198
-4.47234
-5.07723
-5.65639
-6.19906
-6.69393
-7.12916
-7.49281
-7.77357
-7.96188
-8.05102
-8.03822
1.99445
5.05117
8.05964
10.9174
13.5456
15.8934
17.9368
19.6756
21.1265
22.3172
23.2801
24.0473
24.6478
25.1049
25.4366
25.6556
25.7704
25.7874
25.7114
25.5473
25.3004
24.9772
24.585
24.132
23.6269
23.079
22.4972
21.8905
21.2677
20.6366
20.0046
19.3778
18.7607
18.1567
17.5671
16.9917
16.4289
15.8761
15.3305
14.7895
14.2519
13.7175
13.1884
12.6676
12.1598
11.6698
11.2018
10.759
10.3425
9.95086
9.58039
9.22521
8.87809
8.53141
8.17826
7.81345
7.43418
7.0403
6.6341
6.21953
5.80121
5.38313
4.96746
4.55355
4.13737
3.71138
3.26507
2.78592
2.2608
1.67759
1.02665
0.302099
-0.497448
-1.36871
-2.30406
-3.29229
-4.31959
-5.3706
-6.42921
-7.47905
-8.50363
-9.48605
-10.4086
-11.2522
-11.9966
-12.6207
-13.1038
-13.4283
-13.5813
-13.5573
2.65256
7.16246
11.5764
15.7338
19.5161
22.8525
25.7171
28.1205
30.0992
31.7036
32.9886
34.0058
34.7994
35.4033
35.8416
36.1299
36.2778
36.291
36.1746
35.9336
35.5751
35.1078
34.5423
33.8906
33.1654
32.3799
31.5475
30.6809
29.7929
28.8951
27.9981
27.111
26.2409
25.3924
24.5673
23.7648
22.9816
22.2131
21.4539
20.6992
19.9463
19.1947
18.4473
17.7097
16.9895
16.295
15.634
15.0121
14.4316
13.8907
13.3835
12.9004
12.4292
11.9573
11.473
10.9678
10.4372
9.88152
9.30534
8.71626
8.12313
7.53391
6.95353
6.38223
5.81446
5.23875
4.63842
3.99324
3.28176
2.48402
1.58415
0.572462
-0.553401
-1.78821
-3.11984
-4.5307
-5.99952
-7.50318
-9.01814
-10.5213
-11.9899
-13.4011
-14.7309
-15.9526
-17.0367
-17.9507
-18.662
-19.141
-19.3659
-19.3266
3.17804
9.41182
15.4626
21.0903
26.1287
30.4911
34.1614
37.1775
39.6113
41.5504
43.0828
44.2868
45.2245
45.9405
46.463
46.807
46.9792
46.9819
46.8173
46.4897
46.0069
45.3804
44.6244
43.7555
42.7912
41.7492
40.6474
39.503
38.3328
37.1529
35.9779
34.8205
33.6908
32.5951
31.5357
30.5106
29.5141
28.5376
27.5715
26.6073
25.6393
24.6665
23.693
22.7276
21.7829
20.8728
20.0106
19.2063
18.4644
17.7829
17.1528
16.559
15.9822
15.4017
14.7987
14.1593
13.477
12.753
11.9959
11.2195
10.4401
9.67265
8.92723
8.20649
7.50366
6.80222
6.077
5.29667
4.42755
3.43812
2.3033
1.00784
-0.451881
-2.06768
-3.82093
-5.68505
-7.6287
-9.6189
-11.6235
-13.6126
-15.5581
-17.433
-19.2083
-20.8509
-22.321
-23.5722
-24.5542
-25.2193
-25.5305
-25.47
3.5492
11.9254
19.9589
27.2962
33.7155
39.127
43.5487
47.0739
49.8368
51.9839
53.6515
54.9526
55.9703
56.7578
57.3427
57.7331
57.9262
57.9153
57.6964
57.2709
56.6475
55.841
54.8709
53.7597
52.5305
51.2066
49.8105
48.3641
46.8889
45.4057
43.9343
42.4923
41.0937
39.7475
38.4566
37.2173
36.0197
34.849
33.6885
32.5228
31.3414
30.1415
28.929
27.7178
26.5283
25.3836
24.306
23.3127
22.4123
21.603
20.8717
20.195
19.5424
18.8803
18.1784
17.4146
16.5786
15.6739
14.7158
13.7289
12.7417
11.7812
10.867
10.0065
9.19238
8.40144
7.59637
6.72935
5.74798
4.6029
3.25505
1.68101
-0.124363
-2.14801
-4.36117
-6.72372
-9.18968
-11.7127
-14.2502
-16.7655
-19.2272
-21.6071
-23.8758
-25.9965
-27.9196
-29.5803
-30.9019
-31.8062
-32.2296
-32.1397
3.76604
14.9324
25.4577
34.8236
42.7534
49.1876
54.2265
58.0673
60.9488
63.1076
64.7479
66.0264
67.0473
67.867
68.5023
68.9433
69.1666
69.1483
68.8727
68.3371
67.5516
66.537
65.3208
63.9337
62.4064
60.7681
59.0462
57.2669
55.4565
53.6416
51.8486
50.1019
48.4215
46.8207
45.3036
43.8643
42.4868
41.1463
39.8135
38.4613
37.0705
35.6352
34.1635
32.6774
31.2096
29.7982
28.4805
27.2857
26.2296
25.3115
24.5124
23.797
23.1166
22.4169
21.648
20.7741
19.7799
18.6722
17.4779
16.2392
15.0053
13.8237
12.73
11.7405
10.8483
10.0216
9.20555
8.32723
7.3047
6.06022
4.53306
2.68782
0.518014
-1.95492
-4.68573
-7.61289
-10.6679
-13.785
-16.9084
-19.9948
-23.0132
-25.9408
-28.7557
-31.4259
-33.8954
-36.076
-37.8496
-39.0849
-39.6673
-39.5363
3.88002
18.8624
32.6254
44.4184
53.944
61.2558
66.6275
70.4399
73.0992
74.9755
76.3632
77.4687
78.4119
79.2392
79.9393
80.4646
80.7526
80.7491
80.4209
79.7604
78.783
77.5206
76.0141
74.3069
72.4395
70.4475
68.3619
66.212
64.0282
61.8437
59.6938
57.6135
55.6324
53.7708
52.036
50.4202
48.8983
47.43
45.9644
44.4529
42.8618
41.179
39.4166
37.6086
35.8076
34.0759
32.476
31.0569
29.8466
28.8466
28.0311
27.3467
26.7169
26.0516
25.267
24.3053
23.143
21.7936
20.3026
18.741
17.1923
15.7385
14.4415
13.3332
12.4086
11.6253
10.9034
10.1318
9.18007
7.92367
6.26822
4.16115
1.59609
-1.39122
-4.72821
-8.31862
-12.057
-15.8488
-19.62
-23.3223
-26.9301
-30.4368
-33.844
-37.1439
-40.287
-43.1573
-45.5723
-47.303
-48.1317
-47.941
4.06502
24.5475
42.6287
57.2768
68.3209
76.1156
81.2713
84.4696
86.3733
87.5428
88.3806
89.1405
89.9389
90.7902
91.6235
92.3227
92.7534
92.8127
92.4423
91.6349
90.4194
88.8502
86.991
84.9052
82.6467
80.2562
77.7646
75.2005
72.5955
69.9905
67.4333
64.9769
62.6659
60.5332
58.5921
56.8355
55.2277
53.7047
52.1764
50.5541
48.7802
46.8326
44.7304
42.5249
40.301
38.1593
36.2066
34.523
33.1564
32.1115
31.3566
30.8136
30.3642
29.8539
29.1373
28.1215
26.7717
25.1151
23.2252
21.2207
19.2394
17.424
15.878
14.6583
13.7624
13.1376
12.6701
12.1929
11.4915
10.3592
8.65126
6.29161
3.27995
-0.326112
-4.40779
-8.81315
-13.3711
-17.9439
-22.4321
-26.7873
-30.9936
-35.0769
-39.0877
-43.0881
-47.072
-50.8944
-54.2803
-56.82
-58.064
-57.7755
4.82484
33.6894
57.574
75.3229
87.3759
94.7748
98.7325
100.362
100.703
100.585
100.508
100.754
101.387
102.364
103.498
104.565
105.286
105.492
105.09
104.094
102.562
100.595
98.2913
95.7491
93.0411
90.2075
87.269
84.245
81.1601
78.0655
75.0251
72.1282
69.4399
67.0172
64.8797
63.0339
61.4323
59.9847
58.5211
56.871
54.9462
52.7063
50.1907
47.4656
44.6736
41.9682
39.5475
37.5307
36.0007
34.957
34.3747
34.1439
34.097
33.9516
33.4362
32.4172
30.8402
28.771
26.3114
23.6654
21.046
18.7202
16.8433
15.5158
14.7247
14.4219
14.4495
14.5754
14.4225
13.6223
11.9717
9.36001
5.81885
1.4231
-3.62195
-9.08858
-14.6643
-20.1611
-25.4362
-30.4668
-35.2344
-39.8216
-44.3461
-49.0559
-54.0892
-59.2595
-64.2061
-68.2019
-70.2023
-69.7162
7.69082
50.0019
81.3541
101.569
113.132
118.39
119.548
118.111
115.696
113.572
112.172
111.813
112.342
113.716
115.472
117.306
118.564
119.051
118.597
117.327
115.337
112.826
109.94
106.836
103.62
100.314
96.9007
93.3816
89.7431
86.067
82.4148
78.984
75.8364
73.095
70.752
68.8855
67.42
66.2925
65.1391
63.5885
61.5709
58.9819
55.9575
52.5077
48.9264
45.3723
42.3115
39.8422
38.1494
37.1427
36.8916
37.2141
37.9761
38.5867
38.465
37.5205
35.6218
32.9934
29.6702
26.0763
22.4342
19.3741
17.0215
15.605
14.9875
15.2344
16.0907
17.3631
18.289
18.1134
16.6795
13.77
9.59157
4.11047
-2.22588
-9.20382
-16.0679
-22.6944
-28.7895
-34.5221
-39.7322
-44.6537
-49.335
-54.5553
-60.9066
-67.9439
-75.4988
-82.4545
-85.9189
-84.9224
17.9675
82.096
121.172
140.275
147.965
147.904
144.098
137.266
130.268
125.513
122.334
121.592
122.077
124.513
127.33
130.874
132.95
133.96
133.273
131.595
128.86
125.593
121.897
118.08
114.327
110.572
106.681
102.687
98.3767
94.0305
89.4821
85.4284
81.6443
78.5959
75.9347
74.1562
72.9178
72.6344
72.3258
70.9751
69.0154
65.8814
62.3339
57.7359
53.1371
48.0633
44.221
41.0326
39.3077
38.2376
38.5799
39.6488
42.0706
44.274
44.676
43.9959
41.4517
38.2143
33.4167
28.5543
22.9823
19.0075
15.8498
14.542
14.0041
15.1675
17.1314
20.6482
23.7404
24.4147
23.5109
20.0057
15.2389
8.02818
0.0929737
-9.48392
-17.8146
-25.9938
-32.6653
-39.3301
-44.6456
-49.8319
-53.5476
-58.4258
-66.7355
-75.8824
-87.6537
-101.733
-108.058
-105.493
57.2083
150.264
189.751
195.416
193.961
182.807
173.004
156.657
141.607
135.182
128.982
129.604
128.998
134.761
138.14
146.55
148.871
151.307
149.374
147.381
143.144
138.975
134.025
129.229
125.032
121.023
116.606
112.443
107.06
102.282
95.8344
91.4819
86.3902
83.5366
79.8438
78.6465
77.0379
79.0101
81.0104
79.2363
78.1484
73.3737
70.2207
62.9631
58.0296
48.9785
45.187
40.1136
39.521
37.2969
39.2199
40.1333
46.4777
52.5536
52.4433
53.1535
48.2782
45.6803
37.2546
32.0529
21.229
17.4628
12.013
12.3692
10.5695
13.9467
15.935
24.5433
32.6723
32.9873
34.0873
28.0569
24.4045
12.9883
4.77506
-11.5591
-19.7801
-31.4645
-36.5509
-46.0813
-49.745
-57.1275
-56.0859
-57.3546
-71.3582
-80.0412
-96.4832
-132.178
-142.998
-135.313
226.726
295.568
307.03
260.804
253.92
215.764
211.334
174.178
140.528
144.528
125.805
139.383
126.747
148.441
141.703
170.994
164.624
174.945
165.561
166.396
157.333
153.479
145.934
139.513
135.469
132.061
126.166
123.958
114.871
112.94
99.1701
98.6005
87.9139
89.6867
80.1599
83.7303
76.0022
85.3464
95.1309
86.5101
92.5914
78.5318
84.0189
64.8448
68.8525
42.3214
48
32.7438
42.085
30.3856
41.3153
32.7984
51.2727
69.7424
59.0302
70.3552
51.8263
61.5396
36.4513
43.649
9.314
18.344
-0.182864
13.3026
-0.318499
14.7275
5.20683
29.13
52.8572
40.4302
54.9323
32.6849
44.7508
13.3374
21.1523
-25.3158
-16.7568
-46.4346
-34.0358
-61.2789
-49.4877
-76.5519
-55.2959
-37.9435
-83.6407
-73.025
-77.5866
-198.439
-204.584
-181.51
1058.84
523.495
507.373
269.538
358.905
200.149
296.786
186.646
85.2269
186.593
76.1107
186.908
75.0556
203.057
93.3811
246.784
156.337
226.953
167.029
199.657
164.015
173.293
156.219
146.371
144.983
146.675
130.413
145.374
112.371
140.64
83.4934
120.283
71.4916
112.104
61.6117
105.079
50.3781
91.0444
135.751
72.6085
136.033
55.5385
133.325
33.3407
123.647
-10.7213
80.9555
-10.0494
74.9442
-9.11498
71.4107
-13.407
56.0709
128.949
33.8802
130.543
14.7025
127.51
-10.8466
115.05
-65.0487
58.9048
-58.4783
53.2672
-52.4887
50.8822
-53.6821
33.9969
125.102
9.09314
128.694
-12.1003
127.705
-42.8039
115.696
-118.313
41.3265
-121.996
25.563
-132.686
6.7212
-165.557
-48.8845
72.2586
-177.013
-44.153
108.769
-429.874
-308.241
-258.589
989.593
896.971
809.442
726.745
648.559
574.518
504.223
437.262
373.214
311.665
252.203
194.431
137.96
82.4097
27.409
-7.91384
-7.64336
-7.2563
-6.77571
-6.2263
-5.63159
-5.01196
-4.38363
-3.75832
-3.14356
-2.54324
-1.95831
-1.38747
-0.827741
-0.275104
-13.3392
-12.8682
-12.1976
-11.3693
-10.4275
-9.41373
-8.36304
-7.30278
-6.25221
-5.22326
-4.22167
-3.24825
-2.3001
-1.3717
-0.45581
-18.9974
-18.2924
-17.2963
-16.0761
-14.7006
-13.2326
-11.7235
-10.2121
-8.72435
-7.27552
-5.87186
-4.51284
-3.19293
-1.90314
-0.632235
-25.0007
-24.0075
-22.6188
-20.9377
-19.0659
-17.0922
-15.0862
-13.0975
-11.1575
-9.28247
-7.47731
-5.73825
-4.05559
-2.41564
-0.802219
-31.4849
-30.1173
-28.2333
-25.9895
-23.5328
-20.9838
-18.4313
-15.934
-13.5253
-11.2194
-9.01653
-6.90716
-4.87547
-2.90158
-0.963205
-38.6216
-36.7428
-34.2069
-31.2536
-28.0915
-24.8785
-21.7209
-18.6816
-15.7901
-13.0532
-10.4621
-7.99827
-5.63746
-3.35196
-1.11221
-46.6387
-44.0247
-40.5974
-36.726
-32.7004
-28.7172
-24.8919
-21.2808
-17.9001
-14.7409
-11.7801
-8.98623
-6.32406
-3.75652
-1.24585
-55.8487
-52.1193
-47.4314
-42.3519
-37.2665
-32.3973
-27.8482
-23.6493
-19.7881
-16.2301
-12.9309
-9.84233
-6.91593
-4.10413
-1.3605
-66.6853
-61.1715
-54.6566
-47.983
-41.6159
-35.7566
-30.454
-25.6797
-21.3726
-17.4603
-13.8708
-10.5361
-7.39308
-4.3835
-1.45251
-79.7274
-71.2233
-62.0391
-53.3067
-45.4567
-38.5587
-32.5307
-27.2427
-22.5616
-18.3673
-14.5558
-11.0379
-7.73668
-4.58418
-1.51854
-95.605
-81.9541
-68.9685
-57.747
-48.3446
-40.4902
-33.8668
-28.1981
-23.2636
-18.8913
-14.9468
-11.3228
-7.93144
-4.69793
-1.55597
-114.345
-92.0182
-74.1329
-60.3671
-49.6836
-41.1898
-34.2475
-28.4189
-23.4029
-18.9872
-15.0169
-11.3749
-7.9682
-4.72003
-1.56337
-132.536
-97.6387
-75.1762
-59.904
-48.8319
-40.3374
-33.5138
-27.8266
-22.9416
-18.6372
-14.7587
-11.1914
-7.84632
-4.65054
-1.54081
-132.197
-90.8224
-69.028
-55.2395
-45.4016
-37.8133
-31.6431
-26.4316
-21.899
-17.8612
-14.1888
-10.7854
-7.57503
-4.49492
-1.49009
-6.33002
-19.1308
-32.366
-46.3682
-61.5437
-78.4234
-97.7454
-120.599
-148.697
-184.928
-234.589
-308.454
-431.226
-667.296
-1204.93
-6.22974
-18.8204
-31.8148
-45.5188
-60.2999
-76.627
-95.1318
-116.705
-142.658
-174.983
-216.742
-272.375
-346.134
-428.018
-407.832
-6.03836
-18.2293
-30.7705
-43.921
-57.9817
-73.3177
-90.3863
-109.769
-132.193
-158.484
-189.26
-223.705
-255.398
-259.616
-163.141
-5.76757
-17.3949
-29.3027
-41.6907
-54.7775
-68.8044
-84.0329
-100.72
-119.04
-138.868
-159.226
-176.945
-183.741
-161.137
-78.0369
-5.43273
-16.3656
-27.5011
-38.9749
-50.9198
-63.4561
-76.6657
-90.5362
-104.84
-118.884
-131.023
-137.768
-132.498
-104.668
-43.6083
-5.05102
-15.1954
-25.4644
-35.9314
-46.6511
-57.6396
-68.8388
-80.0506
-90.8183
-100.224
-106.565
-106.933
-96.9198
-71.2753
-27.3436
-4.63987
-13.9386
-23.2898
-32.7122
-42.1953
-51.6761
-61.0024
-69.8725
-77.7419
-83.6895
-86.2532
-83.3069
-72.1954
-50.5813
-18.5476
-4.21548
-12.6452
-21.0656
-29.4506
-37.7407
-45.8196
-53.4824
-60.3885
-65.999
-69.5044
-69.7674
-65.3504
-54.7637
-37.1226
-13.2665
-3.79193
-11.3582
-18.8656
-26.2547
-33.4323
-40.2517
-46.4876
-51.8038
-55.7174
-57.57
-56.5307
-51.6779
-42.2303
-27.9795
-9.84417
-3.38058
-10.1118
-16.7477
-23.2056
-29.3723
-35.0887
-40.1311
-44.1926
-46.8664
-47.6435
-45.9418
-41.1957
-33.0322
-21.5336
-7.50025
-2.98998
-8.93156
-14.7532
-20.3583
-25.6248
-30.3933
-34.4556
-37.5449
-39.3323
-39.4378
-37.4666
-33.0863
-26.1498
-16.8478
-5.82788
-2.62598
-7.83455
-12.9089
-17.746
-22.2229
-26.188
-29.4554
-31.8009
-32.966
-32.6739
-30.664
-26.7517
-20.91
-13.3549
-4.59697
-2.29211
-6.83066
-11.2291
-15.3838
-19.176
-22.467
-25.0951
-26.8763
-27.6115
-27.1025
-25.1822
-21.7569
-16.8597
-10.6972
-3.66882
-1.98991
-5.92399
-9.71855
-13.2732
-16.477
-19.2061
-21.3226
-22.678
-23.1206
-22.5111
-20.7452
-17.7841
-13.6879
-8.64072
-2.95538
-1.71947
-5.11414
-8.37448
-11.406
-14.1076
-16.3703
-18.0785
-19.1132
-19.3602
-18.7226
-17.1379
-14.5994
-11.1764
-7.02731
-2.39846
-1.47974
-4.39752
-7.18922
-9.76786
-12.0428
-13.9196
-15.3018
-16.0952
-16.214
-15.5915
-14.1929
-12.0289
-9.16892
-5.747
-1.95823
-1.26897
-3.7684
-6.15184
-8.34054
-10.2543
-11.812
-12.934
-13.5454
-13.5823
-12.9994
-11.7792
-9.94163
-7.55158
-4.7214
-1.60665
-1.08492
-3.2198
-5.24963
-7.10408
-8.71291
-10.007
-10.9206
-11.3945
-11.381
-10.8496
-9.794
-8.23794
-6.23982
-3.89338
-1.32348
-0.925156
-2.74412
-4.46915
-6.03811
-7.38999
-8.46617
-9.21245
-9.58201
-9.53915
-9.06382
-8.15627
-6.84115
-5.16988
-3.22049
-1.09381
-0.787145
-2.33364
-3.79702
-5.12284
-6.25846
-7.15431
-7.76581
-8.05579
-7.99753
-7.57807
-6.80151
-5.6916
-4.29303
-2.67069
-0.906445
-0.668429
-1.98086
-3.22037
-4.3396
-5.29336
-6.03985
-6.54236
-6.77133
-6.70666
-6.34024
-5.67817
-4.74245
-3.57155
-2.21941
-0.75285
-0.56667
-1.6787
-2.7272
-3.67124
-4.47215
-5.09476
-5.50881
-5.69071
-5.62528
-5.30765
-4.7448
-3.95658
-2.97587
-1.84758
-0.626426
-0.479704
-1.42063
-2.30655
-3.10224
-3.77472
-4.29444
-4.63644
-4.78178
-4.71897
-4.4453
-3.96789
-3.30435
-2.48266
-1.54021
-0.522011
-0.405565
-1.20076
-1.94855
-2.61875
-3.18335
-3.61749
-3.90057
-4.01736
-3.95906
-3.72438
-3.3202
-2.76192
-2.07327
-1.28543
-0.435523
-0.342491
-1.01379
-1.64441
-2.20858
-2.68253
-3.04541
-3.28016
-3.37447
-3.32161
-3.12114
-2.77948
-2.30999
-1.73275
-1.07375
-0.363706
-0.288919
-0.855046
-1.38641
-1.86104
-2.25883
-2.56227
-2.75725
-2.83377
-2.78661
-2.61593
-2.3275
-1.93287
-1.44897
-0.897518
-0.303944
-0.243477
-0.720443
-1.16778
-1.56684
-1.90061
-2.15443
-2.31658
-2.37891
-2.33738
-2.19244
-1.94926
-1.61772
-1.2121
-0.750525
-0.254118
-0.204967
-0.606409
-0.982673
-1.31795
-1.59791
-1.81023
-1.9452
-1.99615
-1.95994
-1.83716
-1.63237
-1.354
-1.01406
-0.627716
-0.212504
-0.172351
-0.509854
-0.826018
-1.10748
-1.34215
-1.51973
-1.63214
-1.67392
-1.64258
-1.53881
-1.36657
-1.13301
-0.848252
-0.524946
-0.17769
-0.144734
-0.428113
-0.693453
-0.92948
-1.12603
-1.27448
-1.36811
-1.40245
-1.37551
-1.288
-1.14333
-0.947565
-0.709202
-0.438802
-0.148515
-0.121343
-0.358895
-0.581238
-0.778886
-0.943308
-1.06729
-1.14525
-1.17351
-1.15049
-1.07686
-0.955557
-0.791695
-0.592393
-0.366466
-0.124021
-0.101517
-0.300234
-0.486168
-0.651357
-0.788657
-0.892047
-0.956891
-0.980161
-0.960601
-0.898826
-0.797332
-0.660429
-0.494068
-0.305595
-0.103413
-0.0846873
-0.250446
-0.4055
-0.543188
-0.657547
-0.743563
-0.797394
-0.816549
-0.800021
-0.748363
-0.66369
-0.549612
-0.411094
-0.254243
-0.0860304
-0.0703682
-0.20809
-0.336888
-0.451215
-0.546113
-0.617423
-0.66197
-0.677708
-0.663829
-0.620821
-0.550461
-0.455762
-0.340847
-0.210777
-0.0713188
-0.058142
-0.171928
-0.278321
-0.372729
-0.451054
-0.509863
-0.546545
-0.559427
-0.54786
-0.512267
-0.45413
-0.375946
-0.281122
-0.173829
-0.0588145
-0.0476502
-0.140898
-0.228074
-0.305409
-0.369542
-0.417664
-0.447643
-0.458118
-0.448572
-0.419362
-0.371715
-0.307681
-0.230053
-0.142241
-0.0481252
-0.038583
-0.114084
-0.18466
-0.247254
-0.299146
-0.338061
-0.36228
-0.370707
-0.362934
-0.339257
-0.300676
-0.248855
-0.186054
-0.11503
-0.0389176
-0.0306716
-0.0906892
-0.146786
-0.19653
-0.237757
-0.268661
-0.287879
-0.294544
-0.288337
-0.269499
-0.238829
-0.197651
-0.147762
-0.0913518
-0.0309059
-0.0236803
-0.0700164
-0.113322
-0.151718
-0.183533
-0.207375
-0.222191
-0.227318
-0.222509
-0.207955
-0.184276
-0.152494
-0.113998
-0.0704752
-0.0238426
-0.0174003
-0.0514474
-0.083266
-0.111475
-0.134845
-0.152355
-0.163231
-0.166988
-0.163446
-0.152747
-0.135347
-0.111999
-0.0837228
-0.0517575
-0.01751
-0.0116433
-0.0344256
-0.055716
-0.0745902
-0.0902261
-0.101939
-0.109214
-0.111724
-0.109351
-0.102191
-0.0905475
-0.0749262
-0.0560086
-0.0346241
-0.0117135
-0.00623645
-0.0184393
-0.0298434
-0.0399537
-0.04833
-0.0546056
-0.0585037
-0.05985
-0.0585805
-0.0547459
-0.0485096
-0.0401415
-0.0300069
-0.0185503
-0.0062757
-0.00101706
-0.00300756
-0.00486897
-0.00652106
-0.00789215
-0.00892214
-0.0095652
-0.00979187
-0.0095906
-0.00896855
-0.00795153
-0.00658315
-0.00492303
-0.00304425
-0.00103004
0.00417206
0.0123346
0.0199602
0.0267166
0.0323089
0.0364927
0.0390843
0.0399692
0.0391072
0.0365347
0.0323626
0.0267727
0.0200091
0.0123678
0.0041838
0.00948724
0.0280495
0.0453928
0.0607623
0.0734879
0.083013
0.0889186
0.090943
0.0889927
0.0831483
0.0736611
0.0609434
0.0455505
0.0281566
0.0095251
0.0150886
0.0446107
0.0721956
0.0966436
0.116889
0.132046
0.141448
0.144676
0.141582
0.132291
0.117202
0.0969714
0.0724811
0.0448045
0.0151571
0.0211447
0.0625168
0.101176
0.135442
0.163822
0.185074
0.198262
0.202799
0.198472
0.185458
0.164314
0.135956
0.101624
0.0628205
0.0212521
0.0278375
0.0823062
0.133207
0.178328
0.215704
0.243701
0.261083
0.267074
0.261394
0.24427
0.216433
0.179089
0.13387
0.0827563
0.0279967
0.0353679
0.104573
0.169249
0.22659
0.274098
0.309695
0.331811
0.339453
0.332261
0.310518
0.275151
0.22769
0.170207
0.105223
0.035598
0.0439611
0.129983
0.210384
0.281678
0.340762
0.38505
0.412586
0.422131
0.413228
0.386224
0.342265
0.283249
0.211753
0.130912
0.0442898
0.0538735
0.159296
0.257841
0.345241
0.417697
0.472034
0.50585
0.517617
0.506762
0.473702
0.419831
0.347473
0.259784
0.160615
0.0543402
0.0653998
0.193383
0.313034
0.419181
0.50721
0.573266
0.61442
0.628807
0.615713
0.575627
0.510231
0.422341
0.315786
0.195251
0.0660604
0.0788811
0.233255
0.377604
0.505697
0.611976
0.691784
0.741574
0.759074
0.743401
0.695122
0.616248
0.510165
0.381494
0.235896
0.079815
0.0947143
0.280087
0.453457
0.607359
0.73512
0.831142
0.891145
0.91237
0.893725
0.835857
0.741155
0.61367
0.458952
0.283817
0.0960338
0.113363
0.335253
0.542825
0.727167
0.880298
0.995505
1.06764
1.09335
1.07128
1.00216
0.888821
0.736079
0.550586
0.34052
0.115226
0.135369
0.400358
0.64832
0.868643
1.0518
1.18977
1.27635
1.30749
1.2815
1.19917
1.06384
0.881226
0.659278
0.407796
0.138
0.161367
0.477283
0.773002
1.03592
1.25469
1.41971
1.52355
1.5613
1.53082
1.43299
1.27168
1.05368
0.788473
0.487784
0.165082
0.192099
0.56823
0.920457
1.23383
1.49488
1.69213
1.81665
1.86246
1.8269
1.71087
1.51886
1.25892
0.9423
0.583055
0.197343
0.228431
0.675771
1.09488
1.46808
1.77936
2.01504
2.16438
2.22011
2.17886
2.0415
1.81322
1.50349
1.12572
0.696701
0.235835
0.271373
0.802907
1.30119
1.74532
2.11632
2.39789
2.5771
2.64508
2.59754
2.43524
2.16412
1.7953
1.34472
0.832457
0.281826
0.3221
0.95313
1.54508
2.07331
2.51537
2.8518
3.06705
3.15023
3.0959
2.90452
2.58284
2.14388
1.60654
0.99485
0.336858
0.38197
1.13049
1.8332
2.46114
2.98775
3.38984
3.64867
3.75087
3.68939
3.46425
3.08299
2.56076
1.91997
1.18939
0.402807
0.452548
1.33964
2.17322
2.91931
3.54656
4.02735
4.33903
4.46512
4.3965
4.13237
3.68101
3.05995
2.29572
1.42281
0.48197
0.535626
1.58594
2.57397
3.45999
4.20704
4.78225
5.15822
5.31456
5.23933
4.93049
4.39682
3.65854
2.74694
1.70338
0.577173
0.633238
1.87548
3.04555
4.09714
4.98682
5.67547
6.1299
6.32474
6.24436
5.88467
5.2547
4.37744
3.28978
2.04132
0.691914
0.747674
2.21512
3.59937
4.84669
5.90616
6.73127
7.28178
7.526
7.44328
7.02649
6.28426
5.24241
3.94425
2.44934
0.830553
0.881476
2.61252
4.24825
5.72663
6.9882
7.97771
8.64629
8.95423
8.87412
8.39425
7.52183
6.28531
4.7353
2.94338
0.998567
1.03743
3.07608
5.00636
6.75709
8.2591
9.44692
10.2612
10.6519
10.5825
10.0345
9.01217
7.54586
5.6943
3.54357
1.2029
1.21852
3.61486
5.88911
7.96019
9.74812
11.1755
12.1701
12.6689
12.6231
12.0042
10.8107
9.07387
6.86099
4.27562
1.45247
1.42788
4.23839
6.91288
9.35987
11.4874
13.2044
14.4232
15.064
15.0615
14.3727
12.9866
10.9324
8.2863
5.17275
1.75881
1.66864
4.95635
8.09457
10.9813
13.5117
15.5793
17.0775
17.9057
17.9763
17.2254
15.6262
13.2018
10.0362
6.27845
2.13714
1.94381
5.77808
9.45084
12.8499
15.8574
18.3492
20.197
21.2735
21.4613
20.667
18.8387
15.9858
12.1971
7.65047
2.60777
2.25602
6.7119
10.9971
14.9905
18.5611
21.5662
23.852
25.2581
25.6282
24.8266
22.7625
19.4195
14.8843
9.36689
3.19843
2.6072
7.76421
12.7458
17.4244
21.6573
25.2826
28.1175
29.962
30.6085
29.8626
27.5742
23.6808
18.2536
11.5353
3.94766
2.99821
8.93826
14.7048
20.1676
25.1753
29.5475
33.0707
35.4975
36.5556
35.9694
33.5004
29.0071
22.5194
14.3074
4.9105
3.42835
10.2327
16.8746
23.2268
29.1343
34.4018
38.7849
41.9831
43.6441
43.3835
40.832
35.7181
27.9823
17.9022
6.16783
3.8948
11.64
19.2452
26.5947
33.5373
39.8701
45.3215
49.536
52.0667
52.3879
49.9429
44.2494
35.073
22.6457
7.84268
4.39206
13.1443
21.7934
30.245
38.3634
45.95
52.7167
58.2576
62.0234
63.3129
61.3092
55.1992
44.4208
29.0387
10.1302
4.91142
14.7201
24.4784
34.1263
43.5586
52.5989
60.9627
68.2115
73.699
76.5243
75.5265
69.3905
56.9653
37.8805
13.3565
5.4406
16.3306
27.2401
38.1569
49.0257
59.717
69.9825
79.388
87.2229
92.3899
93.3114
87.9487
74.1339
50.4991
18.1028
5.96361
17.9275
29.9963
42.2206
54.6155
67.1305
79.5989
91.6545
102.599
111.203
115.46
112.376
98.1212
69.2016
25.4941
6.4611
19.4515
32.6442
46.1654
60.1215
74.5757
89.5012
104.692
119.598
133.034
142.704
144.559
132.292
98.173
37.941
6.91118
20.8347
35.0637
49.8078
65.2812
81.693
99.2184
117.927
137.618
157.479
175.375
186.547
181.636
145.277
61.2558
7.29096
22.0056
37.1253
52.9434
69.7885
88.0362
108.113
130.477
155.52
183.288
212.713
239.702
252.816
225.48
111.299
7.57853
22.895
38.7014
55.3654
73.3213
93.1083
115.42
141.165
171.527
207.943
251.741
302.492
352.082
365.991
236.631
7.75534
23.4439
39.6818
56.8898
75.5819
96.4263
120.341
148.647
183.329
227.471
285.938
366.084
476.125
605.99
600.783
7.80856
23.6112
39.988
57.3832
76.3473
97.6116
122.211
151.699
188.559
237.048
305.077
408.911
586.398
939.782
1795.73
7.73284
23.3796
39.5866
56.7866
75.5148
96.4804
120.685
149.629
185.713
233.053
299.349
400.588
574.514
924.56
1783.5
7.53129
22.7589
38.4953
55.1284
73.1279
93.0993
115.866
142.6
175.047
215.893
269.351
341.785
440.32
555.929
549.178
7.2151
21.7846
36.781
52.5208
69.371
87.7763
108.29
131.603
158.548
189.972
226.175
264.852
294.264
272.265
72.9076
-83.849
-68.2636
-56.6043
-47.5918
-40.3351
-34.2892
-29.1113
-24.575
-20.5227
-16.8395
-13.4382
-10.2494
-7.2159
-4.28843
-1.42271
-31.4409
-43.5379
-42.9695
-39.1918
-34.7599
-30.4002
-26.3072
-22.51
-18.9846
-15.6922
-12.5912
-9.642
-6.80747
-4.053
-1.34579
-14.2995
-27.6071
-31.5626
-31.2457
-29.1341
-26.3254
-23.2974
-20.2558
-17.2846
-14.4116
-11.6387
-8.95485
-6.34337
-3.78468
-1.25799
-7.77716
-18.1704
-23.1223
-24.5453
-23.9921
-22.4027
-20.2968
-17.9526
-15.516
-13.0615
-10.6241
-8.21735
-5.84254
-3.4941
-1.16274
-4.83878
-12.5121
-17.1323
-19.2171
-19.5695
-18.8383
-17.4614
-15.7132
-13.7597
-11.6992
-9.58809
-7.45757
-5.3233
-3.19163
-1.06339
-3.2922
-8.97381
-12.9029
-15.0915
-15.899
-15.7221
-14.8836
-13.6162
-12.0777
-10.3719
-8.56546
-6.70029
-4.80221
-2.88672
-0.963032
-2.37251
-6.65245
-9.88198
-11.925
-12.9119
-13.0651
-12.6035
-11.7072
-10.5116
-9.11438
-7.5835
-5.96578
-4.29314
-2.58747
-0.864307
-1.77577
-5.06045
-7.68489
-9.4917
-10.5037
-10.8349
-10.6252
-10.0058
-9.08553
-7.94954
-6.66175
-5.26934
-3.80695
-2.30032
-0.76936
-1.36431
-3.9269
-6.0555
-7.61024
-8.56806
-8.98016
-8.93139
-8.51314
-7.80914
-6.89001
-5.81256
-4.62143
-3.35143
-2.03005
-0.67979
-1.06812
-3.09468
-4.82456
-6.14322
-7.0113
-7.44535
-7.49401
-7.21883
-6.68206
-5.94033
-5.04225
-4.02822
-2.93154
-1.77982
-0.596679
-0.848083
-2.46844
-3.87912
-4.98902
-5.75585
-6.17808
-6.28143
-6.10608
-5.69722
-5.09917
-4.35238
-3.49237
-2.54983
-1.5514
-0.520654
-0.680682
-1.98779
-3.1425
-4.073
-4.73964
-5.13218
-5.2623
-5.15541
-4.84369
-4.36123
-3.74108
-3.01377
-2.20691
-1.34539
-0.451957
-0.550953
-1.61294
-2.56155
-3.34015
-3.91372
-4.26845
-4.4077
-4.34691
-4.10866
-3.71886
-3.20415
-2.59038
-1.90192
-1.16152
-0.390534
-0.448941
-1.31679
-2.09865
-2.74963
-3.23973
-3.55429
-3.69197
-3.6616
-3.47882
-3.16317
-2.73596
-2.21883
-1.63299
-0.998858
-0.336111
-0.367782
-1.08033
-1.7266
-2.2708
-2.68761
-2.96291
-3.09288
-3.08209
-2.94121
-2.68492
-2.33018
-1.89497
-1.39756
-0.85606
-0.288264
-0.302599
-0.8899
-1.4254
-1.88042
-2.23373
-2.47241
-2.5915
-2.59286
-2.48371
-2.27501
-1.98024
-1.61428
-1.19275
-0.731509
-0.246478
-0.24984
-0.735427
-1.18007
-1.56064
-1.85942
-2.06492
-2.17183
-2.18036
-2.09529
-1.92485
-1.67971
-1.37216
-1.01548
-0.623472
-0.21019
-0.206863
-0.609378
-0.97922
-1.29763
-1.54987
-1.72588
-1.82045
-1.83284
-1.76614
-1.62653
-1.42249
-1.16415