/*--------------------------------*- C++ -*----------------------------------*\
| =========                 |                                                 |
| \\      /  F ield         | OpenFOAM: The Open Source CFD Toolbox           |
|  \\    /   O peration     | Version:  5.x                                   |
|   \\  /    A nd           | Web:      www.OpenFOAM.org                      |
|    \\/     M anipulation  |                                                 |
\*---------------------------------------------------------------------------*/
FoamFile
{
    version     2.0;
    format      ascii;
    class       volScalarField;
    location    "5";
    object      T;
}
// * * * * * * * * * * * * * * * * * * * * * * * * * * * * * * * * * * * * * //

dimensions      [0 0 0 1 0 0 0];

internalField   nonuniform List<scalar> 
6300
(
10.7857
12.3611
13.9483
15.5551
17.1886
18.8553
20.5608
22.3094
24.1039
25.9452
27.8321
29.7608
31.7253
33.7167
35.7243
10.7817
12.3491
13.9287
15.5283
17.1553
18.8164
20.5175
22.2632
24.0568
25.8993
27.7899
29.7248
31.6979
33.7001
35.7202
10.7736
12.325
13.8891
15.474
17.0876
18.7372
20.4293
22.1691
23.9604
25.8052
27.7029
29.6502
31.6408
33.6652
35.711
10.7612
12.2882
13.8285
15.3909
16.9839
18.6155
20.2931
22.0231
23.8103
25.6578
27.566
29.532
31.5496
33.6083
35.6944
10.7444
12.238
13.7457
15.2771
16.8413
18.4476
20.1044
21.8196
23.5997
25.4495
27.3708
29.362
31.4167
33.5238
35.6668
10.7228
12.1735
13.6392
15.1302
16.6567
18.2289
19.8571
21.5509
23.3193
25.1693
27.1055
29.1279
31.2311
33.4028
35.6232
10.6962
12.0939
13.5075
14.9478
16.4262
17.9542
19.5439
21.2074
22.9568
24.8027
26.7535
28.8127
30.9767
33.2325
35.5559
10.6643
11.9983
13.3488
14.7273
16.146
17.6177
19.1567
20.778
22.4975
24.3311
26.2928
28.3922
30.6302
32.9942
35.4544
10.6269
11.8862
13.1621
14.4666
15.8124
17.2138
18.6869
20.25
21.9239
23.731
25.6941
27.8328
30.1573
32.6593
35.3028
10.584
11.7573
12.9469
14.1645
15.4232
16.738
18.1269
19.6112
21.2168
22.9746
24.9195
27.0872
29.5064
32.1825
35.0763
10.5357
11.6121
12.7035
13.8212
14.9777
16.1882
17.4712
18.8507
20.3574
22.0309
23.9217
26.09
28.5982
31.4877
34.7321
10.4825
11.4517
12.434
13.439
14.4782
15.5655
16.719
17.963
19.3308
20.8696
22.646
24.7525
27.3083
30.4375
34.186
10.425
11.2782
12.1415
13.0226
13.9304
14.8765
15.8762
16.9512
18.1331
19.4705
21.04
22.9655
25.4446
28.7676
33.2381
10.3642
11.0946
11.8314
12.5793
13.3443
14.1337
14.9581
15.8323
16.7798
17.839
19.0778
20.6244
22.7369
25.9497
31.2926
10.3013
10.9046
11.5099
12.119
12.7335
13.356
13.9899
14.64
15.3145
16.0276
16.8074
17.7173
18.9285
21.0014
26.1351
37.5678
39.2376
40.8931
42.5263
44.1295
45.6957
47.2184
48.6918
50.1112
51.4724
52.772
54.0071
55.1754
56.2753
57.3054
58.2646
59.1523
59.9681
60.712
61.3842
61.985
62.5151
62.9753
63.3668
63.6907
63.9484
64.1414
64.2712
64.3396
64.3481
64.2985
64.1926
64.032
63.8186
63.5538
63.2395
62.8771
62.4683
62.0146
61.5176
60.9787
60.3994
59.7813
59.1258
58.4342
57.7082
56.9489
56.1577
55.3358
54.4844
53.6046
52.6975
51.7641
50.8054
49.8223
48.816
47.7873
46.7375
45.6676
44.5787
43.472
42.3486
41.2097
40.0566
38.8903
37.712
36.5231
35.3248
34.1184
32.9056
31.6879
30.4673
29.2457
28.0254
26.8088
25.5984
24.397
23.2074
22.0324
20.875
19.7379
18.6241
17.5361
16.4765
15.4475
14.4512
13.4892
12.5628
11.6729
10.8199
37.5762
39.2576
40.9246
42.5688
44.1823
45.7577
47.2885
48.769
50.1943
51.5604
52.864
54.1023
55.2732
56.375
57.4065
58.3666
59.2548
60.0708
60.8144
61.4859
62.0858
62.6146
63.0734
63.4631
63.785
64.0406
64.2313
64.3587
64.4246
64.4306
64.3786
64.2702
64.1072
63.8913
63.6242
63.3076
62.9429
62.5319
62.076
61.5768
61.0358
60.4544
59.8341
59.1765
58.483
57.755
56.9939
56.2009
55.3773
54.5244
53.6431
52.7345
51.7996
50.8395
49.855
48.8472
47.817
46.7656
45.6941
44.6036
43.4952
42.3702
41.2296
40.0748
38.9068
37.7268
36.536
35.3357
34.1272
32.912
31.6917
30.4681
29.2434
28.0196
26.7993
25.5851
24.3796
23.1859
22.0068
20.8452
19.7042
18.5865
17.4949
16.4321
15.4002
14.4015
13.4377
12.5101
11.6196
10.7666
37.5926
39.2978
40.9883
42.655
44.2891
45.8832
47.4303
48.9248
50.3618
51.7376
53.0491
54.2937
55.4695
56.5751
57.6093
58.5712
59.4604
60.2765
61.0196
61.6898
62.2877
62.814
63.2697
63.6558
63.9738
64.225
64.4111
64.5337
64.5947
64.5957
64.5386
64.4252
64.2573
64.0366
63.7648
63.4435
63.0744
62.659
62.1987
61.6951
61.1498
60.5641
59.9397
59.2779
58.5804
57.8485
57.0836
56.2871
55.4602
54.6041
53.7198
52.8083
51.8707
50.9077
49.9204
48.9096
47.8764
46.8219
45.7471
44.6533
43.5416
42.4132
41.2694
40.1112
38.9398
37.7563
36.5619
35.3577
34.1449
32.925
31.6995
30.4701
29.239
28.0083
26.7806
25.5585
24.3449
23.1429
21.9554
20.7855
19.6364
18.511
17.4121
16.3426
15.3049
14.3014
13.3337
12.4036
11.5119
10.6592
37.6161
39.3587
41.0858
42.7872
44.4532
46.0756
47.6472
49.1625
50.6168
52.0068
53.3296
54.5832
55.7661
56.8771
57.9152
58.8797
59.7702
60.5865
61.3286
61.9969
62.5918
63.1142
63.5651
63.9457
64.2576
64.5022
64.6812
64.7965
64.85
64.8434
64.7787
64.6577
64.4824
64.2544
63.9756
63.6474
63.2715
62.8494
62.3826
61.8726
61.3208
60.7287
60.0979
59.4299
58.7262
57.9884
57.2179
56.4161
55.5842
54.7234
53.8347
52.919
51.9772
51.0101
50.0186
49.0034
47.9657
46.9064
45.8268
44.728
43.6112
42.4778
41.329
40.1658
38.9895
37.801
36.6013
35.3914
34.1724
32.9455
31.7122
30.4742
29.2334
27.9922
26.7532
25.5192
24.2932
23.0785
21.8782
20.6956
19.5341
18.3968
17.2868
16.207
15.1603
14.1491
13.1756
12.2415
11.3479
10.4955
37.6457
39.4411
41.2199
42.9696
44.6795
46.3402
47.9446
49.4872
50.9638
52.3717
53.7088
54.9738
56.1655
57.2832
58.3261
59.2938
60.1859
61.0023
61.7431
62.4085
62.9992
63.5162
63.9605
64.3336
64.6371
64.8726
65.042
65.1474
65.1905
65.1736
65.0986
64.9675
64.7821
64.5445
64.2562
63.9188
63.534
63.1032
62.6278
62.1091
61.5487
60.948
60.3086
59.6321
58.9202
58.1744
57.3963
56.5873
55.7488
54.8819
53.9875
53.0663
52.1193
51.1468
50.1498
49.1289
48.0852
47.0195
45.9332
44.8276
43.704
42.5639
41.4084
40.2388
39.0561
37.8611
36.6547
35.4376
34.2106
32.9747
31.7312
30.4816
29.2279
27.9725
26.7182
25.4679
24.2249
22.9928
21.775
20.5751
19.3966
18.2429
17.1175
16.0236
14.9642
13.9423
12.9605
12.0208
11.1246
10.2726
37.6797
39.5469
41.3951
43.209
44.9758
46.6854
48.3305
49.906
51.4091
52.8378
54.1912
55.469
56.6706
57.7959
58.8444
59.8158
60.7098
61.5262
62.265
62.9267
63.5119
64.0218
64.4575
64.8208
65.1134
65.3371
65.4942
65.5866
65.6166
65.5864
65.4982
65.3541
65.1562
64.9063
64.6063
64.2576
63.8618
63.4202
62.9341
62.4047
61.8336
61.222
60.5718
59.8844
59.1619
58.4058
57.6181
56.8002
55.9535
55.079
54.1777
53.2502
52.2969
51.3181
50.3145
49.2866
48.2352
47.1615
46.0667
44.9523
43.82
42.6713
41.5075
40.33
39.1396
37.937
36.7228
35.4973
34.2609
33.0143
31.7583
30.4943
29.2244
27.9509
26.6768
25.4055
24.1407
22.8861
21.6457
20.4234
19.2229
18.0481
16.9026
15.79
14.7139
13.6777
12.6845
11.7371
10.8373
9.9861
37.7166
39.6796
41.619
43.5156
45.3538
47.1228
48.8156
50.4287
51.9606
53.4114
54.7819
56.0728
57.2849
58.4183
59.473
60.4485
61.3445
62.1606
62.897
63.5539
64.1322
64.633
65.0579
65.4088
65.6877
65.8967
66.0383
66.1146
66.1283
66.0817
65.9773
65.8173
65.604
65.3394
65.0253
64.6632
64.2544
63.8002
63.3015
62.7596
62.1755
61.5509
60.8872
60.1865
59.4507
58.682
57.8824
57.0536
56.1971
55.3139
54.4049
53.4702
52.5101
51.5245
50.5134
49.4772
48.4167
47.333
46.2275
45.1022
43.9589
42.7995
41.6258
40.4389
39.2399
38.0291
36.8066
35.5721
34.3255
33.0667
31.7963
30.5152
29.2254
27.9296
26.631
25.3334
24.0412
22.7586
21.49
20.2398
19.0121
17.8108
16.64
15.5036
14.4058
13.3507
12.3425
11.3846
10.48
9.62983
37.755
39.8455
41.9042
43.9054
45.8308
47.6691
49.415
51.0674
52.628
54.0999
55.4862
56.7895
58.0116
59.1533
60.2145
61.1947
62.0931
62.9091
63.6424
64.2934
64.8629
65.3525
65.764
66.0995
66.3615
66.5525
66.6751
66.7319
66.7257
66.6593
66.5352
66.3562
66.1246
65.8428
65.5123
65.1349
64.7115
64.2431
63.7303
63.174
62.575
61.9347
61.255
60.538
59.7861
59.0018
58.1877
57.3459
56.4781
55.5853
54.668
53.7261
52.7592
51.7665
50.7475
49.7021
48.6308
47.5349
46.4163
45.2771
44.1201
42.9477
41.7621
40.5648
39.3566
38.1375
36.9069
35.6639
34.407
33.1355
31.8489
30.5481
29.2347
27.9118
26.5831
25.2532
23.9273
22.6104
21.3075
20.0235
18.7627
17.5293
16.3275
15.1615
14.036
12.9562
11.9275
10.9554
10.044
9.19538
37.7942
40.0568
42.2715
44.4039
46.4327
48.3479
50.1482
51.8375
53.4225
54.9109
56.3091
57.6222
58.8531
60.0031
61.0717
62.0578
62.9595
63.7756
64.5054
65.1491
65.7078
66.1834
66.5782
66.895
67.1365
67.3057
67.4055
67.4389
67.4089
67.3186
67.1712
66.9696
66.7167
66.4148
66.066
65.6716
65.2324
64.7488
64.2208
63.6486
63.0328
62.3744
61.6755
60.9387
60.1669
59.3636
58.5319
57.6747
56.794
55.8909
54.9655
54.0172
53.0444
52.0455
51.0187
49.9633
48.8796
47.7689
46.6336
45.477
44.3027
43.1143
41.9146
40.7056
39.4881
38.2616
37.0247
35.7748
34.5091
33.2252
31.9216
30.5984
29.2573
27.9018
26.5364
25.167
23.8
22.4416
21.0976
19.7733
18.4734
17.2021
15.9631
14.7608
13.6001
12.4876
11.431
10.4386
9.51736
8.67101
37.8363
40.3365
42.7568
45.051
47.1973
49.1914
51.0404
52.7568
54.3555
55.8508
57.2538
58.5723
59.8104
60.9691
62.047
63.0412
63.9482
64.7654
65.4913
66.1261
66.6713
67.1295
67.5038
67.7976
68.0144
68.1576
68.2304
68.2359
68.1777
68.0591
67.8839
67.6557
67.378
67.0534
66.6842
66.2716
65.8161
65.3172
64.7739
64.185
63.5506
62.8714
62.1496
61.3885
60.5921
59.765
58.9118
58.0364
57.1412
56.2275
55.2951
54.3424
53.3665
52.3636
51.3302
50.2645
49.1663
48.0372
46.8808
45.7015
44.5049
43.2962
42.0797
40.858
39.6318
38.4002
37.1603
35.9077
34.6369
33.3427
32.022
30.6739
29.3003
27.9053
26.4949
25.077
23.6599
22.2515
20.8589
19.4877
18.1428
16.8278
15.5457
14.2997
13.0945
11.9383
10.8419
9.81902
8.88271
8.03987
37.8907
40.7306
43.423
45.9104
48.1802
50.2434
52.1228
53.8447
55.4366
56.9226
58.3193
59.6373
60.8809
62.0504
63.1417
64.1491
65.0652
65.8855
66.6072
67.231
67.7591
68.1953
68.5441
68.8099
68.9973
69.1098
69.1509
69.1238
69.0321
68.8799
68.6717
68.4121
68.1055
67.7552
67.3636
66.9323
66.4611
65.9485
65.3913
64.7861
64.1317
63.4286
62.6794
61.888
61.0604
60.2029
59.3229
58.4253
57.514
56.59
55.653
54.7001
53.7264
52.7245
51.6874
50.6117
49.4964
48.3443
47.1598
45.9503
44.7236
43.4887
42.2515
41.0159
39.7826
38.5501
37.3137
36.0663
34.7976
33.4977
32.1611
30.7856
29.3737
27.9302
26.4639
24.9853
23.5067
22.0384
20.5889
19.164
17.7688
16.4056
15.0762
13.7796
12.5183
11.3024
10.1469
9.07455
8.11331
7.27668
37.9901
41.3365
44.3839
47.0824
49.4599
51.5592
53.4314
55.119
56.6694
58.1222
59.4972
60.8086
62.0572
63.2434
64.3564
65.3873
66.3195
67.1464
67.8632
68.4726
68.9781
69.386
69.7026
69.9343
70.0868
70.1639
70.1684
70.1036
69.9725
69.7804
69.5322
69.2354
68.8947
68.5153
68.0992
67.6493
67.1645
66.6431
66.0766
65.4568
64.782
64.051
63.2688
62.4386
61.5706
60.6724
59.7581
58.8332
57.9042
56.9704
56.0329
55.0867
54.126
53.1353
52.0995
51.0149
49.8787
48.6971
47.4742
46.2231
44.9536
43.6837
42.4201
41.1701
39.9316
38.7049
37.4822
36.255
35.0026
33.7049
32.3555
30.9493
29.4922
27.9875
26.4504
24.8929
23.3385
21.7976
20.2831
18.7973
17.3482
15.9347
14.559
13.2086
11.8764
10.5794
9.33195
8.16993
7.16433
6.34142
38.2501
42.3725
45.8465
48.7159
51.1395
53.2015
55.0048
56.59
58.042
59.4329
60.766
62.0691
63.3224
64.5407
65.6883
66.7665
67.7243
68.5647
69.2727
69.8629
70.3363
70.7072
70.982
71.1715
71.2838
71.3213
71.2845
71.1775
70.9996
70.7605
70.4613
70.1207
69.7384
69.3271
68.8823
68.4154
67.9194
67.4012
66.8378
66.2056
65.512
64.7462
63.926
63.0427
62.1231
61.1642
60.2073
59.246
58.3002
57.3548
56.4246
55.493
54.5678
53.61
52.581
51.4916
50.3254
49.1086
47.8282
46.5214
45.1833
43.8688
42.5685
41.3068
40.0627
38.8534
37.6563
36.4793
35.2724
33.986
32.6313
31.1857
29.6785
28.0908
26.4658
24.7956
23.1504
21.5185
19.9356
18.3774
16.8758
15.409
14.0052
12.6111
11.1836
9.78475
8.39382
7.03988
5.95214
5.16682
39.1343
44.3418
48.1789
50.9907
53.3391
55.2154
56.8915
58.2521
59.5016
60.8259
62.0769
63.4006
64.6371
65.9386
67.1192
68.3183
69.2969
70.1725
70.8507
71.4203
71.841
72.1655
72.3831
72.5189
72.5875
72.5844
72.5005
72.3524
72.1137
71.8261
71.4489
71.065
70.6225
70.186
69.6961
69.2222
68.7052
68.2233
67.6969
67.0415
66.345
65.5185
64.6732
63.6979
62.7312
61.652
60.6618
59.6355
58.6946
57.7163
56.8173
55.8893
55.0555
54.1864
53.1484
52.078
50.8443
49.6107
48.2193
46.8641
45.3782
44.033
42.6604
41.4174
40.1429
38.9839
37.8009
36.7459
35.6561
34.3647
33.0373
31.5105
29.9803
28.2472
26.5459
24.6617
22.9429
21.1683
19.5521
17.8757
16.3533
14.7921
13.4373
12.0615
10.4492
8.97856
7.40229
5.52637
4.30436
3.63517
42.7846
48.2839
51.9871
53.932
56.2179
57.5167
59.2315
60.0736
60.8525
62.3234
63.2821
64.8568
65.8573
67.5095
68.5224
70.1864
71.0167
72.0636
72.5839
73.1908
73.4829
73.7767
73.9007
73.9618
73.9932
73.9625
73.8078
73.6567
73.297
73.0193
72.4447
72.0927
71.4966
71.1208
70.4855
70.09
69.4395
69.1081
68.7404
67.9358
67.3638
66.3168
65.6064
64.3396
63.5002
62.0106
61.1673
59.9009
59.1419
57.9625
57.2509
56.149
55.5932
55.0048
53.7616
52.8987
51.362
50.3394
48.5572
47.3944
45.3696
44.2357
42.5648
41.5728
40.0563
39.148
37.7604
37.0619
36.3295
34.7946
33.7299
31.8394
30.5735
28.3575
26.8889
24.2893
22.8153
20.5898
19.2549
17.1518
15.8861
13.878
12.8993
11.8523
9.51077
8.32425
6.84209
3.07111
1.86046
1.53662
9.92216
8.99506
8.1185
7.28996
6.5063
5.76392
5.05893
4.38723
3.74468
3.12714
2.53053
1.95086
1.38424
0.826864
0.27501
9.86969
8.94436
8.07033
7.24494
6.46489
5.72644
5.02554
4.358
3.71961
3.10615
2.51354
1.93777
1.37496
0.82133
0.273171
9.76388
8.84219
7.97337
7.15444
6.38177
5.65129
4.95869
4.29956
3.66952
3.06427
2.47966
1.91169
1.35649
0.810309
0.269508
9.60291
8.687
7.82638
7.01755
6.25634
5.53816
4.85828
4.21195
3.59456
3.00169
2.42911
1.87281
1.32896
0.793896
0.264054
9.38393
8.47635
7.62745
6.83292
6.08776
5.38664
4.72422
4.09532
3.49503
2.91876
2.36223
1.82143
1.29263
0.772246
0.256863
9.10289
8.20685
7.374
6.5988
5.87502
5.19632
4.55655
3.95
3.37141
2.81604
2.27956
1.75804
1.24785
0.745583
0.24801
8.75424
7.874
7.06278
6.31313
5.6171
4.96696
4.35559
3.77664
3.22452
2.69437
2.1819
1.68329
1.19512
0.714215
0.237599
8.33046
7.47199
6.68986
5.97373
5.31319
4.69875
4.12213
3.57637
3.05561
2.55497
2.07032
1.59808
1.1351
0.678544
0.225766
7.82146
6.99351
6.25083
5.57861
4.96309
4.39262
3.85775
3.35102
2.86652
2.39955
1.94629
1.50357
1.06864
0.639084
0.212682
7.21349
6.42961
5.74124
5.12669
4.56786
4.0508
3.56517
3.10338
2.65985
2.23037
1.8117
1.40123
0.996781
0.596462
0.198556
6.48776
5.77008
5.1577
4.61895
4.13078
3.67749
3.24868
2.83743
2.43907
2.05035
1.66888
1.29284
0.920776
0.551414
0.183632
5.61894
5.00514
4.50045
4.06056
3.65873
3.27963
2.91456
2.55853
2.20862
1.86302
1.52059
1.18047
0.842047
0.504778
0.168185
4.57565
4.131
3.77833
3.46401
3.16389
2.86769
2.57134
2.27346
1.9738
1.67252
1.36994
1.06639
0.762147
0.457456
0.152512
3.33204
3.16478
3.0178
2.85321
2.66506
2.45583
2.22961
1.99015
1.74056
1.48328
1.22025
0.952974
0.682683
0.410377
0.136918
1.92493
2.17822
2.27481
2.26593
2.18725
2.06094
1.90106
1.71693
1.51497
1.29977
1.07477
0.842561
0.605221
0.364445
0.121696
10.243
10.7285
11.2119
11.6919
12.1663
12.6327
13.0873
13.5246
13.9358
14.306
14.6068
14.7761
14.6474
13.6594
9.46349
10.1905
10.5697
10.9434
11.3073
11.6562
11.9832
12.2787
12.5286
12.7109
12.789
12.6976
12.309
11.3522
9.21234
4.53729
10.1392
10.4148
10.6817
10.9332
11.1613
11.3556
11.5018
11.5795
11.5582
11.3897
10.9945
10.2365
8.87854
6.52575
2.66629
10.0899
10.2659
10.4306
10.5753
10.6899
10.7613
10.7723
10.6991
10.5077
10.1476
9.54323
8.58062
7.0956
4.88541
1.81828
10.0431
10.1249
10.1933
10.2384
10.2484
10.2088
10.1012
9.90084
9.57419
9.07518
8.34071
7.28744
5.81619
3.84013
1.36568
9.99932
9.99314
9.97223
9.92574
9.84121
9.70366
9.49452
9.19019
8.76034
8.1662
7.35952
6.28449
4.8873
3.14094
1.09147
9.9589
9.87162
9.7689
9.63951
9.47084
9.24818
8.9539
8.56666
8.06055
7.40479
6.56463
5.50522
4.20086
2.65221
0.909951
9.92199
9.76083
9.58406
9.38054
9.13795
8.8424
8.47782
8.02565
7.46465
6.77138
5.92196
4.89604
3.68405
2.29792
0.782345
9.88864
9.66087
9.4178
9.14867
8.84183
8.48452
8.06253
7.56018
6.96057
6.24638
5.40184
4.41605
3.28813
2.0335
0.688843
9.85879
9.57153
9.26964
8.94296
8.58075
8.17153
7.70302
7.16225
6.53602
5.81188
4.97978
4.03474
2.98021
1.83159
0.618275
9.83229
9.49234
9.13868
8.76191
8.35229
7.89971
7.39368
6.82364
6.17946
5.45232
4.63614
3.72946
2.7376
1.67461
0.563839
9.80896
9.42267
9.02375
8.60365
8.15367
7.66498
7.12876
6.5365
5.88048
5.15458
4.35534
3.4833
2.54438
1.55079
0.521144
9.78853
9.36176
8.92353
8.46614
7.98191
7.46324
6.90275
6.29363
5.63002
4.90776
4.12508
3.28359
2.3891
1.45203
0.487223
9.77075
9.30882
8.8366
8.34725
7.83407
7.29053
6.71051
6.08856
5.42029
4.70287
3.93564
3.12069
2.26338
1.37251
0.459997
9.75536
9.26303
8.76155
8.24492
7.7073
7.14314
6.54738
5.91566
5.24468
4.53257
3.77932
2.98719
2.16097
1.30801
0.437966
9.7421
9.22359
8.69702
8.15715
7.59894
7.01769
6.4092
5.77001
5.09762
4.39083
3.65001
2.87736
2.07711
1.25539
0.420023
9.7307
9.18974
8.64173
8.08212
7.50658
6.91115
6.29235
5.64741
4.97445
4.27271
3.54278
2.78671
2.00815
1.21223
0.405329
9.72095
9.16078
8.59449
8.01815
7.42804
6.82082
6.19364
5.54425
4.87125
4.17417
3.45369
2.71167
1.95125
1.1767
0.393245
9.71262
9.13608
8.55424
7.96372
7.36137
6.74436
6.11034
5.4575
4.78476
4.09188
3.37954
2.64941
1.90415
1.14734
0.383271
9.70553
9.11505
8.52001
7.91751
7.30487
6.67972
6.0401
5.38455
4.71226
4.02311
3.31775
2.59765
1.86508
1.12302
0.375015
9.6995
9.09718
8.49095
7.87834
7.25706
6.62513
5.98091
5.32323
4.65147
3.96558
3.26618
2.55455
1.8326
1.10283
0.368164
9.69439
9.08203
8.46633
7.84518
7.21665
6.57906
5.93106
5.2717
4.60049
3.91744
3.22311
2.51861
1.80556
1.08603
0.362468
9.69006
9.0692
8.4455
7.81715
7.18253
6.54021
5.88909
5.22839
4.55772
3.87712
3.1871
2.48861
1.78301
1.07204
0.357724
9.68639
9.05836
8.42789
7.79348
7.15374
6.50748
5.85378
5.192
4.52184
3.84335
3.15698
2.46354
1.76418
1.06036
0.353767
9.6833
9.04919
8.41302
7.77351
7.12947
6.47992
5.82408
5.16143
4.49173
3.81505
3.13177
2.44258
1.74845
1.05061
0.350465
9.68068
9.04146
8.40049
7.75667
7.10903
6.45673
5.79911
5.13576
4.46648
3.79133
3.11066
2.42504
1.7353
1.04246
0.347706
9.67848
9.03494
8.38992
7.74249
7.09182
6.43722
5.77813
5.1142
4.44529
3.77145
3.09298
2.41036
1.7243
1.03565
0.345399
9.67663
9.02945
8.38102
7.73056
7.07735
6.42082
5.7605
5.09611
4.42752
3.75479
3.07817
2.39808
1.7151
1.02996
0.34347
9.67506
9.02483
8.37354
7.72052
7.06519
6.40705
5.74571
5.08094
4.41262
3.74083
3.06577
2.38779
1.7074
1.02519
0.341857
9.67375
9.02095
8.36726
7.7121
7.05498
6.39549
5.7333
5.06821
4.40014
3.72914
3.05539
2.37919
1.70096
1.02121
0.340509
9.67265
9.0177
8.36198
7.70503
7.04642
6.3858
5.72291
5.05756
4.3897
3.71937
3.04671
2.372
1.69558
1.01788
0.339382
9.67173
9.01497
8.35757
7.69912
7.03926
6.3777
5.71421
5.04865
4.38097
3.7112
3.03947
2.366
1.69109
1.0151
0.338442
9.67096
9.01269
8.35388
7.69418
7.03328
6.37094
5.70696
5.04122
4.37369
3.70438
3.03342
2.36099
1.68735
1.01278
0.337659
9.67032
9.0108
8.35081
7.69006
7.0283
6.36531
5.70092
5.03505
4.36764
3.69872
3.0284
2.35684
1.68424
1.01086
0.337008
9.66979
9.00923
8.34827
7.68666
7.02418
6.36065
5.69593
5.02993
4.36262
3.69404
3.02425
2.3534
1.68167
1.00927
0.33647
9.66935
9.00793
8.34617
7.68385
7.02078
6.35681
5.69182
5.02572
4.3585
3.69019
3.02084
2.35057
1.67955
1.00796
0.336028
9.66899
9.00688
8.34446
7.68157
7.01802
6.35369
5.68847
5.02229
4.35515
3.68705
3.01806
2.34827
1.67783
1.0069
0.335668
9.66871
9.00603
8.34309
7.67973
7.0158
6.35118
5.68578
5.01954
4.35246
3.68453
3.01582
2.34642
1.67645
1.00605
0.335379
9.66848
9.00537
8.34202
7.67829
7.01406
6.34921
5.68367
5.01739
4.35034
3.68256
3.01407
2.34498
1.67537
1.00538
0.335153
9.66831
9.00486
8.3412
7.6772
7.01274
6.34772
5.68207
5.01575
4.34875
3.68107
3.01275
2.34388
1.67455
1.00487
0.334982
9.66819
9.00451
8.34063
7.67643
7.01181
6.34667
5.68095
5.0146
4.34762
3.68001
3.01182
2.34311
1.67397
1.00452
0.334861
9.66812
9.00429
8.34028
7.67596
7.01124
6.34602
5.68025
5.01389
4.34692
3.67936
3.01124
2.34263
1.67362
1.0043
0.334786
9.66809
9.0042
8.34013
7.67577
7.011
6.34576
5.67997
5.0136
4.34664
3.6791
3.01101
2.34244
1.67347
1.00421
0.334756
9.6681
9.00424
8.34019
7.67585
7.0111
6.34587
5.68009
5.01373
4.34676
3.67921
3.01111
2.34252
1.67354
1.00425
0.334769
9.66816
9.00441
8.34046
7.67621
7.01154
6.34637
5.68062
5.01427
4.34729
3.67971
3.01155
2.34289
1.67381
1.00441
0.334826
9.66826
9.00471
8.34095
7.67686
7.01233
6.34726
5.68158
5.01525
4.34825
3.6806
3.01234
2.34354
1.67429
1.00471
0.334928
9.66841
9.00515
8.34167
7.67782
7.01349
6.34857
5.68298
5.01668
4.34965
3.68191
3.0135
2.3445
1.67501
1.00516
0.335079
9.66861
9.00575
8.34264
7.67912
7.01506
6.35034
5.68488
5.01863
4.35156
3.68369
3.01508
2.34581
1.67599
1.00576
0.335282
9.66887
9.00652
8.34389
7.68079
7.01708
6.35263
5.68733
5.02113
4.35401
3.68598
3.01711
2.34749
1.67725
1.00654
0.335545
9.6692
9.00749
8.34546
7.6829
7.01963
6.3555
5.69041
5.02428
4.35709
3.68886
3.01966
2.3496
1.67882
1.00752
0.335876
9.66961
9.00869
8.34739
7.68549
7.02276
6.35905
5.69421
5.02817
4.3609
3.69242
3.02281
2.35221
1.68077
1.00872
0.336283
9.6701
9.01015
8.34976
7.68865
7.02659
6.36337
5.69884
5.03291
4.36554
3.69676
3.02666
2.35539
1.68315
1.01019
0.336781
9.6707
9.01191
8.35261
7.69248
7.03122
6.3686
5.70445
5.03865
4.37116
3.70201
3.03132
2.35925
1.68604
1.01197
0.337384
9.67141
9.01404
8.35605
7.69708
7.03679
6.3749
5.7112
5.04556
4.37793
3.70834
3.03693
2.36389
1.68951
1.01412
0.338112
9.67227
9.01658
8.36017
7.7026
7.04347
6.38245
5.7193
5.05386
4.38606
3.71595
3.04367
2.36948
1.69369
1.01671
0.338985
9.6733
9.01962
8.3651
7.7092
7.05146
6.39149
5.729
5.06378
4.39578
3.72505
3.05175
2.37616
1.69869
1.0198
0.340032
9.67453
9.02325
8.37097
7.71708
7.061
6.40228
5.74057
5.07565
4.40741
3.73593
3.0614
2.38416
1.70467
1.0235
0.341285
9.67599
9.02758
8.37798
7.72646
7.07237
6.41515
5.75439
5.08981
4.4213
3.74893
3.07294
2.39372
1.71183
1.02793
0.342783
9.67773
9.03272
8.38632
7.73764
7.08591
6.43049
5.77085
5.10669
4.43786
3.76445
3.08672
2.40514
1.72038
1.03322
0.344574
9.6798
9.03884
8.39623
7.75093
7.10203
6.44874
5.79046
5.12681
4.45761
3.78296
3.10316
2.41878
1.73059
1.03954
0.346714
9.68225
9.04611
8.408
7.76673
7.12119
6.47045
5.8138
5.15077
4.48115
3.80503
3.12278
2.43507
1.74279
1.04709
0.349271
9.68517
9.05473
8.42198
7.78549
7.14395
6.49627
5.84158
5.17931
4.50921
3.83136
3.14621
2.45451
1.75737
1.05612
0.352328
9.68862
9.06495
8.43856
7.80775
7.17098
6.52695
5.87461
5.21329
4.54264
3.86277
3.17417
2.47775
1.77479
1.06692
0.355985
9.69271
9.07705
8.4582
7.83414
7.20306
6.56339
5.9139
5.25373
4.58249
3.90024
3.20756
2.50551
1.79563
1.07983
0.360361
9.69755
9.09138
8.48146
7.86541
7.2411
6.60665
5.96059
5.30186
4.62997
3.94495
3.24745
2.53872
1.82057
1.09531
0.365604
9.70326
9.10831
8.50896
7.90243
7.28617
6.65798
6.01606
5.35914
4.68656
3.99832
3.29514
2.57847
1.85046
1.11386
0.371893
9.71001
9.1283
8.54144
7.94619
7.33954
6.71884
6.08195
5.4273
4.75402
4.06205
3.35219
2.62609
1.88631
1.13613
0.379447
9.71796
9.15185
8.57976
7.99787
7.40264
6.79094
6.16017
5.50838
4.83446
4.13822
3.4205
2.68323
1.92938
1.16291
0.388536
9.7273
9.17957
8.62488
8.05881
7.47719
6.87629
6.25297
5.60483
4.9304
4.2293
3.50239
2.75186
1.98122
1.19519
0.399495
9.73826
9.2121
8.67791
8.13054
7.56511
6.9772
6.363
5.71953
5.04484
4.33829
3.60068
2.83446
2.04373
1.23417
0.412744
9.7511
9.25021
8.7401
8.21481
7.66864
7.09636
6.49335
5.85589
5.18142
4.46884
3.71883
2.93407
2.11932
1.2814
0.428809
9.76608
9.29471
8.81282
8.31356
7.79031
7.23685
6.64763
6.01796
5.34445
4.62538
3.86111
3.05449
2.211
1.33881
0.448362
9.78349
9.34651
8.89761
8.42897
7.93293
7.40218
6.82997
6.21045
5.53911
4.81329
4.03281
3.20049
2.32261
1.40891
0.472272
9.80368
9.40657
8.99611
8.5634
8.09966
7.59629
7.04516
6.43893
5.77159
5.03915
4.24049
3.37814
2.45907
1.49493
0.50167
9.82695
9.47591
9.11004
8.71938
8.29389
7.82356
7.2986
6.70982
6.04925
5.311
4.49238
3.59518
2.62683
1.60116
0.538066
9.85365
9.55554
9.24119
8.89953
8.51925
8.08875
7.59634
7.03055
6.38084
5.63864
4.79883
3.86159
2.8344
1.73339
0.583511
9.88409
9.64646
9.39128
9.10649
8.77946
8.39692
7.94501
7.40954
6.77665
6.03406
5.17291
4.19048
3.0932
1.89953
0.640863
9.91856
9.74954
9.56194
9.34278
9.0782
8.75325
8.3517
7.85615
7.24862
6.51178
5.63121
4.59909
3.41894
2.11081
0.714223
9.95729
9.86553
9.75451
9.61058
9.41885
9.16276
8.82362
8.3805
7.81038
7.08927
6.19473
5.11046
3.83355
2.38351
0.8097
10.0004
9.99488
9.96992
9.91155
9.80418
9.6299
9.36774
8.99301
8.47694
7.78718
6.88999
5.75559
4.36837
2.74215
0.936831
10.048
10.1377
10.2085
10.2465
10.2359
10.158
9.99
9.70363
9.26409
8.6291
7.74992
6.57628
5.06912
3.22516
1.11141
10.0998
10.2937
10.4699
10.6152
10.7144
10.7487
10.6944
10.5206
10.1869
9.64056
8.81431
7.62852
6.00372
3.89552
1.36173
10.1556
10.4619
10.7526
11.0159
11.238
11.401
11.4817
11.4485
11.2574
10.8463
10.1283
8.98559
7.27398
4.86138
1.74376
10.215
10.6409
11.0542
11.4454
11.8025
12.1103
12.348
12.486
12.4806
12.2652
11.7372
10.7376
9.03098
6.31681
2.38266
10.2772
10.8287
11.3713
11.8983
12.4011
12.8682
13.2836
13.6231
13.8494
13.9011
13.6735
12.9806
11.4876
8.61939
3.59875
10.3413
11.0225
11.6993
12.3681
13.0245
13.6621
14.2717
14.8388
15.3393
15.7309
15.9329
15.7792
14.899
12.4167
6.32652
10.4064
11.2194
12.0327
12.8465
13.6608
14.4753
15.2893
16.1006
16.9049
17.6923
18.4392
19.082
19.423
18.7192
13.6118
10.4714
11.416
12.3657
13.3245
14.2969
15.289
16.3085
17.3671
18.482
19.6817
21.0175
22.5944
24.6723
28.0797
36.2554
10.5353
11.609
12.6925
13.7929
14.9194
16.0834
17.3007
18.5944
20.0001
21.5765
23.4283
25.7585
28.9982
34.1285
43.3368
10.597
11.7953
13.0073
14.2433
15.5157
16.8406
18.2396
19.7438
21.3995
23.28
25.5067
28.2908
32.011
37.3452
45.4084
0.79117
1.41749
1.69037
1.79155
1.79288
1.72968
1.6221
1.4828
1.32028
1.14053
0.947995
0.746041
0.537352
0.324143
0.108331
0.424376
0.971336
1.27827
1.42961
1.47914
1.45934
1.39051
1.28606
1.15522
1.00464
0.839274
0.662964
0.478786
0.289307
0.0967692
0.267156
0.691856
0.97421
1.13835
1.21355
1.22301
1.18365
1.10763
1.00387
0.878997
0.738142
0.585341
0.423894
0.256593
0.085901
0.186051
0.511218
0.752228
0.90885
0.993575
1.02058
1.00222
0.948466
0.867146
0.764445
0.645296
0.513716
0.373063
0.226229
0.0758027
0.137536
0.389016
0.588838
0.729264
0.813677
0.849634
0.84537
0.808425
0.745265
0.661306
0.561074
0.448386
0.326519
0.198358
0.066522
0.105404
0.302683
0.466689
0.588565
0.667418
0.706608
0.711201
0.68658
0.637817
0.569458
0.485494
0.389424
0.284341
0.173035
0.0580794
0.0826664
0.239453
0.37379
0.477738
0.548693
0.587599
0.59731
0.581489
0.54397
0.488441
0.418316
0.336714
0.246482
0.150246
0.0504714
0.0658624
0.191809
0.301989
0.389815
0.452219
0.488856
0.501142
0.49146
0.462624
0.417552
0.359103
0.289994
0.212789
0.129911
0.0436743
0.0530703
0.155112
0.245708
0.319543
0.373632
0.407017
0.420223
0.414727
0.392545
0.355948
0.307287
0.248892
0.183033
0.111907
0.0376488
0.043124
0.126361
0.201064
0.262978
0.309418
0.339187
0.352285
0.349575
0.332471
0.302719
0.262227
0.21297
0.156932
0.0960767
0.0323445
0.0352683
0.103534
0.165299
0.217156
0.256777
0.282928
0.295323
0.294413
0.281177
0.256943
0.22325
0.181755
0.134174
0.0822432
0.0277041
0.0289893
0.08522
0.136412
0.179828
0.213487
0.236219
0.247595
0.247807
0.237517
0.217733
0.189687
0.154764
0.114435
0.0702201
0.0236669
0.0239236
0.0704041
0.112924
0.149272
0.177783
0.197392
0.207618
0.208489
0.200449
0.184256
0.160898
0.131525
0.097392
0.0598201
0.0201715
0.0198067
0.0583377
0.0937195
0.124159
0.148258
0.165078
0.174133
0.175358
0.16904
0.155752
0.136285
0.111591
0.0827359
0.0508615
0.017158
0.0164412
0.0484576
0.0779463
0.103445
0.123787
0.138153
0.146085
0.147463
0.142469
0.131536
0.115299
0.0945449
0.0701755
0.0431725
0.0145696
0.013677
0.0403322
0.0649429
0.0863118
0.103465
0.115696
0.122585
0.12399
0.12002
0.111003
0.0974484
0.0800081
0.0594432
0.0365939
0.0123536
0.0113979
0.033626
0.0541897
0.072105
0.0865585
0.0969467
0.102893
0.104248
0.101074
0.0936193
0.082295
0.0676402
0.0502964
0.0309807
0.0104617
0.00951302
0.0280751
0.045275
0.0603012
0.0724744
0.0812806
0.0863882
0.0876505
0.0850981
0.0789221
0.0694533
0.0571388
0.0425185
0.0262027
0.00885044
0.00795022
0.0234697
0.0378694
0.0504778
0.0607274
0.068182
0.0725523
0.0737008
0.0716379
0.0665106
0.0585869
0.0482377
0.0359174
0.0221441
0.00748118
0.00665188
0.0196415
0.0317072
0.0422917
0.0509206
0.0572244
0.0609528
0.0619803
0.0603048
0.05604
0.0494041
0.040705
0.0303248
0.0187029
0.00631979
0.00557157
0.0164549
0.0265731
0.0354631
0.0427277
0.0480546
0.0512282
0.0521361
0.050769
0.0472154
0.0416534
0.0343392
0.025594
0.0157902
0.00533641
0.00467163
0.0137993
0.0222916
0.0297628
0.03588
0.0403794
0.0430762
0.0438712
0.0427509
0.0397848
0.0351189
0.0289667
0.0215982
0.0133285
0.00450509
0.00392135
0.0115847
0.0187191
0.0250023
0.0301554
0.0339553
0.0362445
0.0369357
0.036014
0.0335341
0.0296162
0.0244384
0.0182279
0.0112512
0.0038034
0.00329562
0.00973717
0.0157373
0.0210263
0.02537
0.02858
0.0305219
0.0311199
0.0303586
0.0282816
0.0249881
0.0206269
0.0153894
0.00950101
0.00321207
0.00277377
0.00819612
0.0132491
0.0177066
0.0213716
0.024085
0.0257322
0.0262477
0.0256165
0.0238736
0.021101
0.0174236
0.0130026
0.00802884
0.0027146
0.00233883
0.00691149
0.0111742
0.014937
0.0180338
0.02033
0.021728
0.0221714
0.0216461
0.0201802
0.0178421
0.0147365
0.0109996
0.006793
0.00229692
0.00197679
0.00584201
0.00944634
0.0126297
0.0152517
0.0171984
0.0183866
0.0187676
0.0183285
0.0170923
0.0151159
0.0124877
0.00932268
0.00575807
0.0019471
0.00167608
0.00495361
0.00801072
0.010712
0.0129385
0.0145932
0.0156054
0.015933
0.0155643
0.0145181
0.0128423
0.0106114
0.00792311
0.00489415
0.00165505
0.00142719
0.00421822
0.00682212
0.00912379
0.0110221
0.0124342
0.0132995
0.0135817
0.0132703
0.0123809
0.0109539
0.00905252
0.00676006
0.0041761
0.00141229
0.00122228
0.00361272
0.00584331
0.00781565
0.00944311
0.0106547