/*--------------------------------*- C++ -*----------------------------------*\
| =========                 |                                                 |
| \\      /  F ield         | OpenFOAM: The Open Source CFD Toolbox           |
|  \\    /   O peration     | Version:  5.x                                   |
|   \\  /    A nd           | Web:      www.OpenFOAM.org                      |
|    \\/     M anipulation  |                                                 |
\*---------------------------------------------------------------------------*/
FoamFile
{
    version     2.0;
    format      ascii;
    class       volScalarField;
    location    "3.4";
    object      gradTy;
}
// * * * * * * * * * * * * * * * * * * * * * * * * * * * * * * * * * * * * * //

dimensions      [0 -1 0 1 0 0 0];

internalField   nonuniform List<scalar> 
3200
(
-3.35588e-09
1.94748e-09
-2.46772e-09
2.49336e-09
-1.83257e-09
2.17431e-09
-1.11221e-09
1.43037e-09
-8.74282e-10
3.75896e-10
8.58524e-10
-3.49321e-10
4.9766e-10
-2.8679e-10
3.57596e-10
-2.1643e-10
2.65174e-10
-1.63121e-10
1.98692e-10
-1.23239e-10
1.49675e-10
-9.32119e-11
1.13055e-10
-7.04933e-11
8.54766e-11
-5.32548e-11
6.46065e-11
-4.01571e-11
4.87711e-11
-3.02034e-11
3.67423e-11
-2.2644e-11
2.76048e-11
-1.69103e-11
2.06691e-11
-1.25693e-11
1.54121e-11
-9.2905e-12
1.14354e-11
-6.82097e-12
8.4345e-12
-4.9674e-12
6.17689e-12
-3.58208e-12
4.48459e-12
-2.55272e-12
3.21978e-12
-1.80177e-12
2.24328e-12
-1.42013e-12
6.32364e-13
1.37674e-12
-4.83019e-13
7.47706e-13
-3.45989e-13
4.78415e-13
-2.15658e-13
3.02228e-13
-1.28771e-13
1.85157e-13
-7.42917e-14
1.0981e-13
-4.15307e-14
6.31092e-14
-2.25397e-14
3.52089e-14
-1.18657e-14
1.90842e-14
-6.0082e-15
1.00236e-14
-2.83835e-15
5.0822e-15
-9.37549e-16
2.19789e-15
3.1899e-17
5.37772e-16
1.10694e-16
2.56716e-17
6.11169e-18
1.73453e-18
-2.42568e-09
1.19297e-09
-1.61705e-09
1.63817e-09
-1.1557e-09
1.45513e-09
-6.77459e-10
9.55815e-10
-5.61956e-10
2.68383e-10
6.09326e-10
-2.03857e-10
3.35046e-10
-1.76742e-10
2.38976e-10
-1.34182e-10
1.76983e-10
-1.01313e-10
1.32543e-10
-7.661e-11
9.98197e-11
-5.79688e-11
7.53901e-11
-4.38455e-11
5.69998e-11
-3.31205e-11
4.30862e-11
-2.49682e-11
3.25304e-11
-1.87719e-11
2.45122e-11
-1.40661e-11
1.8421e-11
-1.04975e-11
1.37971e-11
-7.79641e-12
1.02918e-11
-5.75699e-12
7.63969e-12
-4.22166e-12
5.63794e-12
-3.06996e-12
4.13156e-12
-2.20983e-12
3.00195e-12
-1.57144e-12
2.15681e-12
-1.1088e-12
1.49528e-12
-9.1484e-13
4.50718e-13
9.8033e-13
-2.73632e-13
5.07463e-13
-2.07004e-13
3.23319e-13
-1.28603e-13
2.04574e-13
-7.61157e-14
1.25596e-13
-4.3473e-14
7.46421e-14
-2.40454e-14
4.29822e-14
-1.29067e-14
2.40255e-14
-6.71324e-15
1.30486e-14
-3.34739e-15
6.87174e-15
-1.53752e-15
3.50687e-15
-4.34725e-16
1.54062e-15
1.09705e-16
3.90327e-16
9.70033e-17
2.30535e-17
5.50857e-18
1.56479e-18
-1.64062e-09
6.95092e-10
-1.00948e-09
1.02453e-09
-6.95399e-10
9.2538e-10
-3.93617e-10
6.07075e-10
-3.43745e-10
1.80287e-10
4.06162e-10
-1.12587e-10
2.14368e-10
-1.03872e-10
1.51844e-10
-7.93654e-11
1.12319e-10
-6.00348e-11
8.40776e-11
-4.54375e-11
6.3305e-11
-3.43962e-11
4.78075e-11
-2.60194e-11
3.61456e-11
-1.9653e-11
2.73245e-11
-1.48118e-11
2.06329e-11
-1.11315e-11
1.555e-11
-8.33655e-12
1.16886e-11
-6.21734e-12
8.75704e-12
-4.61378e-12
6.53443e-12
-3.40348e-12
4.85249e-12
-2.49278e-12
3.58276e-12
-1.81002e-12
2.627e-12
-1.3005e-12
1.91006e-12
-9.22767e-13
1.37314e-12
-6.50998e-13
9.4755e-13
-5.60816e-13
3.0232e-13
6.55119e-13
-1.45759e-13
3.26956e-13
-1.17877e-13
2.07461e-13
-7.29918e-14
1.31445e-13
-4.27802e-14
8.0848e-14
-2.4155e-14
4.81358e-14
-1.31961e-14
2.77664e-14
-6.99062e-15
1.5546e-14
-3.58292e-15
8.45795e-15
-1.75221e-15
4.46432e-15
-7.75283e-16
2.29069e-15
-1.68752e-16
1.0195e-15
1.19e-16
2.65817e-16
7.45314e-17
1.81801e-17
4.36571e-18
1.24195e-18
-9.49372e-10
3.58385e-10
-5.51846e-10
5.60684e-10
-3.69037e-10
5.12948e-10
-2.02788e-10
3.36204e-10
-1.84688e-10
1.03986e-10
2.32673e-10
-5.52353e-11
1.19421e-10
-5.40271e-11
8.41321e-11
-4.15134e-11
6.21752e-11
-3.1452e-11
4.65252e-11
-2.38228e-11
3.50243e-11
-1.80405e-11
2.64482e-11
-1.36484e-11
1.99966e-11
-1.03082e-11
1.51174e-11
-7.76719e-12
1.14163e-11
-5.83528e-12
8.60511e-12
-4.36815e-12
6.46937e-12
-3.25588e-12
4.84783e-12
-2.41444e-12
3.61832e-12
-1.77957e-12
2.68779e-12
-1.30204e-12
1.9852e-12
-9.4421e-13
1.45624e-12
-6.77339e-13
1.05936e-12
-4.79696e-13
7.6191e-13
-3.38405e-13
5.23845e-13
-3.01851e-13
1.74181e-13
3.75935e-13
-6.89225e-14
1.83081e-13
-5.96111e-14
1.15791e-13
-3.68087e-14
7.34367e-14
-2.13779e-14
4.52307e-14
-1.19398e-14
2.69662e-14
-6.44477e-15
1.55748e-14
-3.36953e-15
8.73074e-15
-1.70107e-15
4.75612e-15
-8.14904e-16
2.51459e-15
-3.45632e-16
1.29531e-15
-4.88216e-17
5.81848e-16
8.63652e-17
1.54816e-16
4.66577e-17
1.16067e-17
2.79914e-18
7.97676e-19
-3.10703e-10
1.10109e-10
-1.75384e-10
1.78297e-10
-1.15343e-10
1.64255e-10
-6.22936e-11
1.07606e-10
-5.81143e-11
3.39991e-11
7.5778e-11
-1.64452e-11
3.83484e-11
-1.66883e-11
2.69363e-11
-1.28662e-11
1.98964e-11
-9.75696e-12
1.48855e-11
-7.39357e-12
1.12048e-11
-5.60021e-12
8.46078e-12
-4.23708e-12
6.3969e-12
-3.19998e-12
4.83617e-12
-2.41088e-12
3.65236e-12
-1.81087e-12
2.75318e-12
-1.35522e-12
2.07004e-12
-1.00981e-12
1.55136e-12
-7.48533e-13
1.15806e-12
-5.51434e-13
8.60372e-13
-4.03217e-13
6.3559e-13
-2.92187e-13
4.66344e-13
-2.09409e-13
3.39338e-13
-1.4814e-13
2.44114e-13
-1.04509e-13
1.675e-13
-9.50811e-14
5.69137e-14
1.22539e-13
-2.0018e-14
5.89488e-14
-1.81037e-14
3.72159e-14
-1.11599e-14
2.36151e-14
-6.44472e-15
1.45555e-14
-3.57457e-15
8.68407e-15
-1.91444e-15
5.01904e-15
-9.92256e-16
2.81532e-15
-4.95818e-16
1.5347e-15
-2.34123e-16
8.12113e-16
-9.62471e-17
4.19183e-16
-7.96415e-18
1.89202e-16
3.11509e-17
5.08704e-17
1.58579e-17
3.98491e-18
9.63035e-19
2.75423e-19
3.11007e-10
-1.10019e-10
1.75421e-10
-1.78276e-10
1.15353e-10
-1.64251e-10
6.22945e-11
-1.07607e-10
5.81121e-11
-3.40017e-11
-7.57798e-11
1.64448e-11
-3.83476e-11
1.66898e-11
-2.69347e-11
1.28678e-11
-1.98949e-11
9.75829e-12
-1.48843e-11
7.39457e-12
-1.12039e-11
5.60095e-12
-8.46015e-12
4.23762e-12
-6.39644e-12
3.20036e-12
-4.83586e-12
2.41114e-12
-3.65214e-12
1.81105e-12
-2.75304e-12
1.35534e-12
-2.06995e-12
1.00988e-12
-1.55131e-12
7.48574e-13
-1.15803e-12
5.51453e-13
-8.6036e-13
4.03224e-13
-6.35589e-13
2.92185e-13
-4.66349e-13
2.09402e-13
-3.39347e-13
1.48131e-13
-2.44124e-13
1.04498e-13
-1.67513e-13
9.5066e-14
-5.69292e-14
-1.22553e-13
2.00074e-14
-5.89566e-14
1.80979e-14
-3.72203e-14
1.11563e-14
-2.3618e-14
6.44234e-15
-1.45574e-14
3.57301e-15
-8.68532e-15
1.91345e-15
-5.01981e-15
9.9165e-16
-2.81579e-15
4.95456e-16
-1.53497e-15
2.33912e-16
-8.12273e-16
9.61266e-17
-4.19272e-16
7.9009e-18
-1.89245e-16
-3.11785e-17
-5.0887e-17
-1.58672e-17
-3.9899e-18
-9.65268e-19
-2.73851e-19
9.49587e-10
-3.58318e-10
5.51876e-10
-5.60664e-10
3.69048e-10
-5.12942e-10
2.02792e-10
-3.36202e-10
1.84688e-10
-1.03986e-10
-2.32673e-10
5.52364e-11
-1.19419e-10
5.40291e-11
-8.41302e-11
4.15152e-11
-6.21735e-11
3.14535e-11
-4.6524e-11
2.38239e-11
-3.50234e-11
1.80413e-11
-2.64475e-11
1.3649e-11
-1.99961e-11
1.03086e-11
-1.5117e-11
7.76749e-12
-1.14161e-11
5.83549e-12
-8.60493e-12
4.3683e-12
-6.46925e-12
3.25598e-12
-4.84775e-12
2.41451e-12
-3.61827e-12
1.77961e-12
-2.68776e-12
1.30206e-12
-1.98518e-12
9.44221e-13
-1.45623e-12
6.77343e-13
-1.05936e-12
4.79696e-13
-7.61912e-13
3.38401e-13
-5.2385e-13
3.01844e-13
-1.74189e-13
-3.75942e-13
6.89165e-14
-1.83085e-13
5.96079e-14
-1.15794e-13
3.68067e-14
-7.34384e-14
2.13766e-14
-4.52319e-14
1.19389e-14
-2.69669e-14
6.44417e-15
-1.55753e-14
3.36916e-15
-8.73103e-15
1.70084e-15
-4.7563e-15
8.1477e-16
-2.51469e-15
3.45554e-16
-1.29536e-15
4.87801e-17
-5.81877e-16
-8.63837e-17
-1.54827e-16
-4.6664e-17
-1.16101e-17
-2.80073e-18
-7.96594e-19
1.64067e-09
-6.95073e-10
1.00949e-09
-1.02452e-09
6.95408e-10
-9.25373e-10
3.93622e-10
-6.0707e-10
3.43749e-10
-1.80284e-10
-4.06159e-10
1.12589e-10
-2.14366e-10
1.03874e-10
-1.51842e-10
7.93668e-11
-1.12318e-10
6.00359e-11
-8.40767e-11
4.54383e-11
-6.33044e-11
3.43968e-11
-4.78069e-11
2.60198e-11
-3.61452e-11
1.96533e-11
-2.73242e-11
1.4812e-11
-2.06327e-11
1.11317e-11
-1.55499e-11
8.33668e-12
-1.16885e-11
6.21743e-12
-8.75696e-12
4.61385e-12
-6.53437e-12
3.40353e-12
-4.85245e-12
2.49281e-12
-3.58273e-12
1.81005e-12
-2.62698e-12
1.30051e-12
-1.91005e-12
9.22778e-13
-1.37314e-12
6.51004e-13
-9.47545e-13
5.6082e-13
-3.02318e-13
-6.55117e-13
1.4576e-13
-3.26955e-13
1.17877e-13
-2.0746e-13
7.29922e-14
-1.31445e-13
4.27804e-14
-8.08479e-14
2.41551e-14
-4.81357e-14
1.31962e-14
-2.77664e-14
6.99063e-15
-1.5546e-14
3.58292e-15
-8.45795e-15
1.7522e-15
-4.46432e-15
7.75278e-16
-2.2907e-15
1.68748e-16
-1.0195e-15
-1.19003e-16
-2.65819e-16
-7.45323e-17
-1.81807e-17
-4.36606e-18
-1.24176e-18
2.4255e-09
-1.19302e-09
1.61704e-09
-1.63818e-09
1.1557e-09
-1.45513e-09
6.77462e-10
-9.55813e-10
5.61959e-10
-2.6838e-10
-6.09324e-10
2.03858e-10
-3.35046e-10
1.76742e-10
-2.38976e-10
1.34181e-10
-1.76983e-10
1.01312e-10
-1.32544e-10
7.66098e-11
-9.98199e-11
5.79686e-11
-7.53903e-11
4.38454e-11
-5.69999e-11
3.31204e-11
-4.30863e-11
2.49681e-11
-3.25304e-11
1.87719e-11
-2.45122e-11
1.40661e-11
-1.8421e-11
1.04975e-11
-1.37971e-11
7.79642e-12
-1.02918e-11
5.757e-12
-7.63968e-12
4.22168e-12
-5.63793e-12
3.06997e-12
-4.13155e-12
2.20984e-12
-3.00194e-12
1.57145e-12
-2.1568e-12
1.10881e-12
-1.49527e-12
9.14851e-13
-4.50707e-13
-9.80321e-13
2.7364e-13
-5.07457e-13
2.07008e-13
-3.23316e-13
1.28606e-13
-2.04572e-13
7.61174e-14
-1.25595e-13
4.34741e-14
-7.46413e-14
2.4046e-14
-4.29817e-14
1.29071e-14
-2.40252e-14
6.71347e-15
-1.30485e-14
3.34753e-15
-6.87164e-15
1.53759e-15
-3.50681e-15
4.34765e-16
-1.54059e-15
-1.09688e-16
-3.90316e-16
-9.69977e-17
-2.30505e-17
-5.50725e-18
-1.56575e-18
3.3555e-09
-1.94761e-09
2.46765e-09
-2.4934e-09
1.83254e-09
-2.17433e-09
1.1122e-09
-1.43038e-09
8.74277e-10
-3.75899e-10
-8.58527e-10
3.49317e-10
-4.97665e-10
2.86785e-10
-3.576e-10
2.16425e-10
-2.65178e-10
1.63117e-10
-1.98695e-10
1.23236e-10
-1.49677e-10
9.32099e-11
-1.13057e-10
7.04919e-11
-8.54779e-11
5.32538e-11
-6.46074e-11
4.01563e-11
-4.87717e-11
3.02029e-11
-3.67427e-11
2.26436e-11
-2.76051e-11
1.691e-11
-2.06693e-11
1.25692e-11
-1.54123e-11
9.29039e-12
-1.14354e-11
6.82089e-12
-8.43455e-12
4.96735e-12
-6.17693e-12
3.58206e-12
-4.48461e-12
2.55271e-12
-3.21978e-12
1.80177e-12
-2.24328e-12
1.42014e-12
-6.32354e-13
-1.37673e-12
4.83027e-13
-7.477e-13
3.45993e-13
-4.78412e-13
2.15661e-13
-3.02226e-13
1.28773e-13
-1.85156e-13
7.4293e-14
-1.09809e-13
4.15316e-14
-6.31085e-14
2.25403e-14
-3.52085e-14
1.1866e-14
-1.90839e-14
6.00841e-15
-1.00234e-14
2.83847e-15
-5.08211e-15
9.37618e-16
-2.19785e-15
-3.18679e-17
-5.37753e-16
-1.10683e-16
-2.56656e-17
-6.10881e-18
-1.73641e-18
-3.5384e-05
2.80138e-05
4.81425e-06
1.97233e-06
3.87159e-07
1.57048e-07
3.00402e-08
1.33133e-08
1.32544e-09
1.20711e-09
1.28636e-09
-5.3795e-10
7.43411e-10
-5.2982e-10
6.07535e-10
-4.43097e-10
5.05572e-10
-3.62829e-10
4.16532e-10
-2.94522e-10
3.39947e-10
-2.37701e-10
2.75477e-10
-1.91059e-10
2.2208e-10
-1.53117e-10
1.78362e-10
-1.22446e-10
1.4286e-10
-9.77618e-11
1.14196e-10
-7.79579e-11
9.1145e-11
-6.21041e-11
7.26619e-11
-4.94329e-11
5.78715e-11
-3.93181e-11
4.60541e-11
-3.12527e-11
3.66235e-11
-2.48287e-11
2.9106e-11
-1.9719e-11
2.31197e-11
-1.56655e-11
1.83412e-11
-1.25327e-11
1.42101e-11
-1.154e-11
3.05342e-12
1.13435e-11
-5.83866e-12
7.48637e-12
-5.06418e-12
5.91903e-12
-4.13128e-12
4.77281e-12
-3.391e-12
3.88636e-12
-2.82132e-12
3.20222e-12
-2.38658e-12
2.67883e-12
-2.05197e-12
2.28896e-12
-1.74412e-12
1.97145e-12
-1.38427e-12
1.62466e-12
-1.00479e-12
1.23327e-12
-7.03598e-13
9.6355e-13
-1.77059e-13
4.34228e-13
8.7958e-14
2.03903e-14
4.90604e-15
1.4376e-15
-2.52655e-05
1.88229e-05
4.30503e-06
1.6167e-06
3.56158e-07
1.29657e-07
2.78973e-08
1.08447e-08
1.49745e-09
9.72253e-10
9.40571e-10
-3.14133e-10
4.97079e-10
-3.33734e-10
4.02185e-10
-2.79857e-10
3.34754e-10
-2.28836e-10
2.76011e-10
-1.85501e-10
2.25402e-10
-1.49558e-10
1.82738e-10
-1.20119e-10
1.47366e-10
-9.62104e-11
1.18384e-10
-7.69066e-11
9.4837e-11
-6.13842e-11
7.58181e-11
-4.8938e-11
6.05203e-11
-3.89786e-11
4.82515e-11
-3.1021e-11
3.84326e-11
-2.46703e-11
3.05865e-11
-1.96074e-11
2.43245e-11
-1.55756e-11
1.93323e-11
-1.23694e-11
1.53562e-11
-9.82785e-12
1.21773e-11
-7.88619e-12
9.35084e-12
-7.62541e-12
2.1791e-12
7.95198e-12
-3.53701e-12
4.99538e-12
-3.17569e-12
3.92735e-12
-2.59954e-12
3.16309e-12
-2.1376e-12
2.57273e-12
-1.78229e-12
2.11689e-12
-1.51144e-12
1.76818e-12
-1.30238e-12
1.51057e-12
-1.10571e-12
1.30532e-12
-8.70763e-13
1.08169e-12
-6.24262e-13
8.24781e-13
-4.30324e-13
6.58296e-13
-8.16373e-14
3.0698e-13
7.67991e-14
1.83012e-14
4.42199e-15
1.29654e-15
-1.69109e-05
1.1976e-05
3.32248e-06
1.20388e-06
2.83756e-07
9.7259e-08
2.23594e-08
8.06533e-09
1.31553e-09
7.17148e-10
6.43385e-10
-1.73196e-10
3.16222e-10
-2.00496e-10
2.53392e-10
-1.68629e-10
2.10934e-10
-1.37697e-10
1.7404e-10
-1.11472e-10
1.42208e-10
-8.97799e-11
1.15338e-10
-7.20529e-11
9.30398e-11
-5.76793e-11
7.47582e-11
-4.60876e-11
5.9898e-11
-3.67743e-11
4.78915e-11
-2.93112e-11
3.82319e-11
-2.33418e-11
3.04838e-11
-1.85737e-11
2.4282e-11
-1.47693e-11
1.93259e-11
-1.17369e-11
1.537e-11
-9.3226e-12
1.2216e-11
-7.40312e-12
9.7035e-12
-5.88275e-12
7.69174e-12
-4.73558e-12
5.8566e-12
-4.78513e-12
1.46335e-12
5.24859e-12
-2.03827e-12
3.17073e-12
-1.89976e-12
2.47945e-12
-1.56063e-12
1.99478e-12
-1.28564e-12
1.62083e-12
-1.07421e-12
1.33197e-12
-9.13216e-13
1.111e-12
-7.88576e-13
9.48963e-13
-6.68731e-13
8.22409e-13
-5.22621e-13
6.84872e-13
-3.70066e-13
5.24358e-13
-2.50871e-13
4.26136e-13
-3.13876e-14
2.04467e-13
5.87633e-14
1.4422e-14
3.50466e-15
1.02846e-15
-9.71189e-06
6.63061e-06
2.07842e-06
7.43051e-07
1.81979e-07
6.03849e-08
1.43924e-08
4.98226e-09
8.86762e-10
4.40656e-10
3.75651e-10
-8.47001e-11
1.75439e-10
-1.06235e-10
1.39499e-10
-8.95862e-11
1.16132e-10
-7.30716e-11
9.58704e-11
-5.90891e-11
7.83689e-11
-4.75501e-11
6.35813e-11
-3.81372e-11
5.13007e-11
-3.05152e-11
4.12273e-11
-2.43743e-11
3.30362e-11
-1.94439e-11
2.64166e-11
-1.54949e-11
2.10899e-11
-1.23374e-11
1.68167e-11
-9.81592e-12
1.33961e-11
-7.80449e-12
1.06623e-11
-6.20151e-12
8.48011e-12
-4.92545e-12
6.74014e-12
-3.91113e-12
5.35387e-12
-3.10825e-12
4.24254e-12
-2.50907e-12
3.20879e-12
-2.62304e-12
8.43871e-13
2.98611e-12
-1.04108e-12
1.75574e-12
-1.00316e-12
1.36712e-12
-8.26614e-13
1.09895e-12
-6.81991e-13
8.92246e-13
-5.70838e-13
7.32519e-13
-4.86276e-13
6.10347e-13
-4.20638e-13
5.21243e-13
-3.56372e-13
4.52718e-13
-2.76761e-13
3.78412e-13
-1.93954e-13
2.90641e-13
-1.29565e-13
2.39319e-13
-8.89665e-15
1.17202e-13
3.66655e-14
9.20179e-15
2.24716e-15
6.59857e-16
-3.16673e-06
2.12084e-06
7.05603e-07
2.51216e-07
6.26058e-08
2.04795e-08
4.95925e-09
1.68553e-09
3.11555e-10
1.48677e-10
1.23568e-10
-2.51531e-11
5.62182e-11
-3.31693e-11
4.45107e-11
-2.8015e-11
3.70558e-11
-2.28362e-11
3.05992e-11
-1.84547e-11
2.5019e-11
-1.48436e-11
2.03015e-11
-1.19009e-11
1.63823e-11
-9.51985e-12
1.31666e-11
-7.60259e-12
1.05514e-11
-6.06386e-12
8.43753e-12
-4.83176e-12
6.73643e-12
-3.84682e-12
5.37168e-12
-3.0604e-12
4.27916e-12
-2.43312e-12
3.40597e-12
-1.93327e-12
2.70894e-12
-1.5354e-12
2.15315e-12
-1.21917e-12
1.7103e-12
-9.68964e-13
1.35504e-12
-7.83463e-13
1.02107e-12
-8.34564e-13
2.75926e-13
9.69141e-13
-3.17976e-13
5.61996e-13
-3.12608e-13
4.36571e-13
-2.58055e-13
3.50773e-13
-2.13095e-13
2.84672e-13
-1.78547e-13
2.33586e-13
-1.52279e-13
1.94511e-13
-1.31858e-13
1.66095e-13
-1.11655e-13
1.44427e-13
-8.64024e-14
1.20962e-13
-6.01905e-14
9.30645e-14
-3.98572e-14
7.71632e-14
-1.39248e-15
3.81944e-14
1.24404e-14
3.15874e-15
7.73428e-16
2.26916e-16
3.16686e-06
-2.12086e-06
-7.05659e-07
-2.51257e-07
-6.263e-08
-2.04912e-08
-4.96416e-09
-1.68738e-09
-3.1219e-10
-1.48875e-10
-1.2362e-10
2.51474e-11
-5.62105e-11
3.31801e-11
-4.44998e-11
2.8025e-11
-3.70468e-11
2.28441e-11
-3.05922e-11
1.84609e-11
-2.50135e-11
1.48484e-11
-2.02972e-11
1.19047e-11
-1.63789e-11
9.52287e-12
-1.3164e-11
7.60497e-12
-1.05492e-11
6.06574e-12
-8.43584e-12
4.83326e-12
-6.7351e-12
3.848e-12
-5.37062e-12
3.06134e-12
-4.27832e-12
2.43387e-12
-3.4053e-12
1.93386e-12
-2.70841e-12
1.53587e-12
-2.15272e-12
1.21955e-12
-1.70996e-12
9.69263e-13
-1.35478e-12
7.83685e-13
-1.02089e-12
8.34699e-13
-2.75823e-13
-9.6905e-13
3.18068e-13
-5.61904e-13
3.12697e-13
-4.36489e-13
2.58128e-13
-3.50709e-13
2.13149e-13
-2.84626e-13
1.78585e-13
-2.33556e-13
1.52301e-13
-1.94495e-13
1.31867e-13
-1.66093e-13
1.11652e-13
-1.44434e-13
8.63914e-14
-1.20976e-13
6.01756e-14
-9.30799e-14
3.98425e-14
-7.71761e-14
1.38241e-15
-3.82014e-14
-1.24446e-14
-3.16076e-15
-7.74297e-16
-2.28042e-16
9.71197e-06
-6.63062e-06
-2.07845e-06
-7.43078e-07
-1.81995e-07
-6.03927e-08
-1.43957e-08
-4.9835e-09
-8.87185e-10
-4.40785e-10
-3.75682e-10
8.46991e-11
-1.75432e-10
1.06245e-10
-1.39489e-10
8.95948e-11
-1.16124e-10
7.30785e-11
-9.58643e-11
5.90945e-11
-7.83641e-11
4.75544e-11
-6.35775e-11
3.81406e-11
-5.12977e-11
3.05179e-11
-4.1225e-11
2.43764e-11
-3.30344e-11
1.94456e-11
-2.64151e-11
1.54962e-11
-2.10887e-11
1.23384e-11
-1.68158e-11
9.81675e-12
-1.33954e-11
7.80515e-12
-1.06617e-11
6.20204e-12
-8.47964e-12
4.92587e-12
-6.73976e-12
3.91146e-12
-5.35357e-12
3.10852e-12
-4.24231e-12
2.50927e-12
-3.20862e-12
2.62317e-12
-8.43768e-13
-2.98602e-12
1.04117e-12
-1.75566e-12
1.00324e-12
-1.36704e-12
8.26679e-13
-1.09889e-12
6.8204e-13
-8.92203e-13
5.70874e-13
-7.32491e-13
4.86298e-13
-6.1033e-13
4.20649e-13
-5.21236e-13
3.56374e-13
-4.5272e-13
2.76756e-13
-3.78419e-13
1.93946e-13
-2.9065e-13
1.29555e-13
-2.39328e-13
8.89006e-15
-1.17207e-13
-3.66682e-14
-9.20311e-15
-2.24772e-15
-6.60624e-16
1.69109e-05
-1.1976e-05
-3.32249e-06
-1.20388e-06
-2.83758e-07
-9.726e-08
-2.23598e-08
-8.06549e-09
-1.31558e-09
-7.17159e-10
-6.43384e-10
1.732e-10
-3.16217e-10
2.00501e-10
-2.53387e-10
1.68633e-10
-2.10931e-10
1.377e-10
-1.74037e-10
1.11474e-10
-1.42205e-10
8.97821e-11
-1.15336e-10
7.20546e-11
-9.30382e-11
5.76807e-11
-7.4757e-11
4.60887e-11
-5.9897e-11
3.67752e-11
-4.78907e-11
2.93119e-11
-3.82313e-11
2.33424e-11
-3.04833e-11
1.85741e-11
-2.42816e-11
1.47696e-11
-1.93256e-11
1.17372e-11
-1.53698e-11
9.32282e-12
-1.22158e-11
7.4033e-12
-9.70335e-12
5.88289e-12
-7.69161e-12
4.73569e-12
-5.85651e-12
4.78521e-12
-1.46328e-12
-5.24853e-12
2.03832e-12
-3.17068e-12
1.8998e-12
-2.47941e-12
1.56067e-12
-1.99475e-12
1.28566e-12
-1.62081e-12
1.07423e-12
-1.33195e-12
9.13231e-13
-1.11099e-12
7.88586e-13
-9.48955e-13
6.68737e-13
-8.22404e-13
5.22624e-13
-6.8487e-13
3.70067e-13
-5.24358e-13
2.50871e-13
-4.26137e-13
3.1387e-14
-2.04467e-13
-5.87636e-14
-1.44221e-14
-3.50469e-15
-1.02858e-15
2.52655e-05
-1.88229e-05
-4.305e-06
-1.61667e-06
-3.56143e-07
-1.29649e-07
-2.78942e-08
-1.08436e-08
-1.49705e-09
-9.72129e-10
-9.40537e-10
3.14139e-10
-4.97081e-10
3.33729e-10
-4.0219e-10
2.79853e-10
-3.34758e-10
2.28832e-10
-2.76015e-10
1.85499e-10
-2.25405e-10
1.49556e-10
-1.8274e-10
1.20117e-10
-1.47367e-10
9.62091e-11
-1.18385e-10
7.69056e-11
-9.48379e-11
6.13834e-11
-7.58188e-11
4.89374e-11
-6.05208e-11
3.89781e-11
-4.8252e-11
3.10206e-11
-3.8433e-11
2.467e-11
-3.05868e-11
1.96071e-11
-2.43247e-11
1.55754e-11
-1.93325e-11
1.23692e-11
-1.53563e-11
9.82771e-12
-1.21774e-11
7.88609e-12
-9.35091e-12
7.62535e-12
-2.17913e-12
-7.95202e-12
3.53697e-12
-4.99542e-12
3.17565e-12
-3.92739e-12
2.5995e-12
-3.16312e-12
2.13758e-12
-2.57275e-12
1.78228e-12
-2.1169e-12
1.51143e-12
-1.76818e-12
1.30238e-12
-1.51057e-12
1.10572e-12
-1.30532e-12
8.70772e-13
-1.08168e-12
6.24272e-13
-8.24771e-13
4.30334e-13
-6.58288e-13
8.16436e-14
-3.06976e-13
-7.67965e-14
-1.82999e-14
-4.42143e-15
-1.29585e-15
3.53838e-05
-2.80138e-05
-4.81419e-06
-1.97228e-06
-3.87132e-07
-1.57034e-07
-3.00346e-08
-1.33112e-08
-1.32473e-09
-1.2069e-09
-1.28631e-09
5.37946e-10
-7.43429e-10
5.298e-10
-6.07555e-10
4.43078e-10
-5.05588e-10
3.62814e-10
-4.16545e-10
2.9451e-10
-3.39957e-10
2.37692e-10
-2.75485e-10
1.91052e-10
-2.22086e-10
1.53111e-10
-1.78367e-10
1.22441e-10
-1.42864e-10
9.77582e-11
-1.14199e-10
7.79551e-11
-9.11475e-11
6.21019e-11
-7.26639e-11
4.94311e-11
-5.78731e-11
3.93167e-11
-4.60554e-11
3.12516e-11
-3.66245e-11
2.48278e-11
-2.91069e-11
1.97182e-11
-2.31203e-11
1.56649e-11
-1.83417e-11
1.25323e-11
-1.42105e-11
1.15397e-11
-3.05366e-12
-1.13437e-11
5.83846e-12
-7.48655e-12
5.06401e-12
-5.91919e-12
4.13114e-12
-4.77294e-12
3.39089e-12
-3.88645e-12
2.82124e-12
-3.20229e-12
2.38653e-12
-2.67887e-12
2.05194e-12
-2.28898e-12
1.74411e-12
-1.97145e-12
1.38427e-12
-1.62465e-12
1.0048e-12
-1.23325e-12
7.03613e-13
-9.63537e-13
1.7707e-13
-4.34221e-13
-8.79534e-14
-2.03881e-14
-4.90515e-15
-1.43628e-15
-3.5398e-05
2.80248e-05
4.81563e-06
1.97363e-06
3.87392e-07
1.57164e-07
3.00816e-08
1.33084e-08
1.34665e-09
1.2061e-09
1.2678e-09
-5.26069e-10
7.29413e-10
-5.19195e-10
5.956e-10
-4.34176e-10
4.95487e-10
-3.55446e-10
4.08122e-10
-2.88465e-10
3.33007e-10
-2.32764e-10
2.69794e-10
-1.87054e-10
2.17454e-10
-1.4988e-10
1.74613e-10
-1.19838e-10
1.39833e-10
-9.56659e-11
1.11759e-10
-7.62771e-11
8.91879e-11
-6.07588e-11
7.10934e-11
-4.8358e-11
5.66168e-11
-3.84606e-11
4.50521e-11
-3.05697e-11
3.58246e-11
-2.42855e-11
2.847e-11
-1.92873e-11
2.2614e-11
-1.53226e-11
1.79399e-11
-1.22587e-11
1.38993e-11
-1.12881e-11
2.98632e-12
1.1096e-11
-5.71179e-12
7.3234e-12
-4.95447e-12
5.79055e-12
-4.04217e-12
4.66958e-12
-3.31831e-12
3.80271e-12
-2.76139e-12
3.13378e-12
-2.33661e-12
2.62218e-12
-2.00998e-12
2.24135e-12
-1.70981e-12
1.93178e-12
-1.35816e-12
1.59328e-12
-9.86354e-13
1.21006e-12
-6.91501e-13
9.4649e-13
-1.74019e-13
4.26637e-13
8.64199e-14
2.00338e-14
4.82027e-15
1.41247e-15
-2.52756e-05
1.88303e-05
4.30638e-06
1.6177e-06
3.56373e-07
1.29751e-07
2.79309e-08
1.08435e-08
1.51236e-09
9.71632e-10
9.27765e-10
-3.0674e-10
4.8781e-10
-3.27e-10
3.94299e-10
-2.7421e-10
3.28084e-10
-2.24171e-10
2.70444e-10
-1.8168e-10
2.20805e-10
-1.46446e-10
1.78972e-10
-1.17597e-10
1.44298e-10
-9.41736e-11
1.15898e-10
-7.52665e-11
9.2829e-11
-6.00667e-11
7.42011e-11
-4.78818e-11
5.92214e-11
-3.81335e-11
4.72103e-11
-3.0346e-11
3.75996e-11
-2.4132e-11
2.99211e-11
-1.91787e-11
2.3794e-11
-1.52347e-11
1.89099e-11
-1.20986e-11
1.50203e-11
-9.61275e-12
1.19109e-11
-7.71375e-12
9.1463e-12
-7.45896e-12
2.13122e-12
7.77845e-12
-3.46019e-12
4.88662e-12
-3.10692e-12
3.84208e-12
-2.54349e-12
3.09465e-12
-2.09181e-12
2.51732e-12
-1.74448e-12
2.0716e-12
-1.47986e-12
1.73072e-12
-1.27581e-12
1.47906e-12
-1.08408e-12
1.27897e-12
-8.54442e-13
1.06074e-12
-6.12876e-13
8.09205e-13
-4.23005e-13
6.46623e-13
-8.0257e-14
3.01611e-13
7.54561e-14
1.79811e-14
4.34468e-15
1.27388e-15
-1.69176e-05
1.19807e-05
3.32357e-06
1.20458e-06
2.83927e-07
9.73287e-08
2.23843e-08
8.06578e-09
1.32541e-09
7.16789e-10
6.35043e-10
-1.68812e-10
3.1038e-10
-1.96426e-10
2.48432e-10
-1.65219e-10
2.06736e-10
-1.34885e-10
1.70533e-10
-1.09171e-10
1.3931e-10
-8.79089e-11
1.12963e-10
-7.05377e-11
9.11046e-11
-5.64565e-11
7.31892e-11
-4.51034e-11
5.86305e-11
-3.59841e-11
4.68707e-11
-2.8678e-11
3.74118e-11
-2.28353e-11
2.98262e-11
-1.81692e-11
2.37559e-11
-1.44468e-11
1.89056e-11
-1.14802e-11
1.50348e-11
-9.1185e-12
1.19491e-11
-7.24101e-12
9.49127e-12
-5.75399e-12
7.52345e-12
-4.63204e-12
5.72849e-12
-4.6807e-12
1.4312e-12
5.13404e-12
-1.99403e-12
3.10169e-12
-1.85864e-12
2.4256e-12
-1.52701e-12
1.9516e-12
-1.25812e-12
1.58591e-12
-1.05145e-12
1.30344e-12
-8.9417e-13
1.08744e-12
-7.72541e-13
9.29123e-13
-6.55712e-13
8.05761e-13
-5.12886e-13
6.71581e-13
-3.63358e-13
5.14428e-13
-2.46652e-13
4.1857e-13
-3.08743e-14
2.00889e-13
5.77356e-14
1.41698e-14
3.44338e-15
1.01048e-15
-9.71575e-06
6.63319e-06
2.07911e-06
7.43474e-07
1.82088e-07
6.04277e-08
1.44076e-08
4.98304e-09
8.92404e-10
4.40474e-10
3.7095e-10
-8.24033e-11
1.72222e-10
-1.04067e-10
1.36772e-10
-8.77712e-11
1.13822e-10
-7.15771e-11
9.39398e-11
-5.78679e-11
7.67727e-11
-4.65578e-11
6.22725e-11
-3.73342e-11
5.02342e-11
-2.98675e-11
4.03624e-11
-2.38533e-11
3.23375e-11
-1.90257e-11
2.58537e-11
-1.51598e-11
2.06376e-11
-1.20695e-11
1.64541e-11
-9.60203e-12
1.31059e-11
-7.634e-12
1.04305e-11
-6.06582e-12
8.29522e-12
-4.81759e-12
6.5929e-12
-3.82547e-12
5.23678e-12
-3.04021e-12
4.14972e-12
-2.45421e-12
3.13859e-12
-2.5658e-12
8.25335e-13
2.92093e-12
-1.0185e-12
1.7175e-12
-9.81457e-13
1.33742e-12
-8.08811e-13
1.07516e-12
-6.67404e-13
8.73013e-13
-5.58755e-13
7.16823e-13
-4.7615e-13
5.97386e-13
-4.12107e-13
5.10325e-13
-3.49463e-13
4.43534e-13
-2.71632e-13
3.71055e-13
-1.90457e-13
2.85125e-13
-1.27407e-13
2.35066e-13
-8.76312e-15
1.15151e-13
3.60243e-14
9.04088e-15
2.20787e-15
6.48323e-16
-3.16799e-06
2.12166e-06
7.05841e-07
2.51357e-07
6.26432e-08
2.0494e-08
4.9644e-09
1.68587e-09
3.13389e-10
1.48622e-10
1.2205e-10
-2.44408e-11
5.51914e-11
-3.24903e-11
4.36413e-11
-2.74468e-11
3.6319e-11
-2.23687e-11
2.99833e-11
-1.8073e-11
2.45096e-11
-1.45335e-11
1.98837e-11
-1.16501e-11
1.60418e-11
-9.31764e-12
1.28905e-11
-7.43996e-12
1.03282e-11
-5.93335e-12
8.25778e-12
-4.72723e-12
6.59199e-12
-3.76324e-12
5.25586e-12
-2.99369e-12
4.18647e-12
-2.37995e-12
3.33192e-12
-1.89096e-12
2.64988e-12
-1.50177e-12
2.10611e-12
-1.19246e-12
1.6729e-12
-9.47752e-13
1.3254e-12
-7.66333e-13
9.98732e-13
-8.16353e-13
2.69866e-13
9.47986e-13
-3.1108e-13
5.49756e-13
-3.05845e-13
4.27087e-13
-2.52499e-13
3.43178e-13
-2.08538e-13
2.78535e-13
-1.7477e-13
2.28579e-13
-1.49111e-13
1.90378e-13
-1.29188e-13
1.62613e-13
-1.09495e-13
1.41494e-13
-8.4806e-14
1.18608e-13
-5.91087e-14
9.12961e-14
-3.91974e-14
7.57911e-14
-1.37559e-15
3.75259e-14
1.22228e-14
3.10351e-15
7.59905e-16
2.22949e-16
3.16812e-06
-2.12169e-06
-7.05896e-07
-2.51398e-07
-6.26674e-08
-2.05057e-08
-4.96931e-09
-1.68772e-09
-3.14025e-10
-1.4882e-10
-1.22102e-10
2.44348e-11
-5.51839e-11
3.25008e-11
-4.36307e-11
2.74566e-11
-3.63103e-11
2.23764e-11
-2.99764e-11
1.8079e-11
-2.45042e-11
1.45383e-11
-1.98795e-11
1.16538e-11
-1.60385e-11
9.3206e-12
-1.28879e-11
7.4423e-12
-1.03262e-11
5.9352e-12
-8.25614e-12
4.7287e-12
-6.59069e-12
3.7644e-12
-5.25483e-12
2.99461e-12
-4.18565e-12
2.38069e-12
-3.33127e-12
1.89154e-12
-2.64936e-12
1.50223e-12
-2.1057e-12
1.19284e-12
-1.67257e-12
9.48045e-13
-1.32514e-12
7.6655e-13
-9.98557e-13
8.16485e-13
-2.69765e-13
-9.47897e-13
3.1117e-13
-5.49665e-13
3.05932e-13
-4.27007e-13
2.52571e-13
-3.43115e-13
2.08592e-13
-2.7849e-13
1.74807e-13
-2.28549e-13
1.49133e-13
-1.90363e-13
1.29196e-13
-1.62611e-13
1.09492e-13
-1.41501e-13
8.47952e-14
-1.18622e-13
5.90941e-14
-9.13112e-14
3.9183e-14
-7.58037e-14
1.36569e-15
-3.75327e-14
-1.22269e-14
-3.10549e-15
-7.60759e-16
-2.24057e-16
9.71584e-06
-6.63321e-06
-2.07914e-06
-7.43501e-07
-1.82104e-07
-6.04356e-08
-1.44109e-08
-4.98428e-09
-8.92828e-10
-4.40603e-10
-3.70982e-10
8.24021e-11
-1.72215e-10
1.04077e-10
-1.36763e-10
8.77796e-11
-1.13815e-10
7.15838e-11
-9.39338e-11
5.78732e-11
-7.67681e-11
4.65619e-11
-6.22688e-11
3.73375e-11
-5.02313e-11
2.98701e-11
-4.03601e-11
2.38553e-11
-3.23356e-11
1.90273e-11
-2.58522e-11
1.51611e-11
-2.06365e-11
1.20705e-11
-1.64532e-11
9.60284e-12
-1.31052e-11
7.63465e-12
-1.04299e-11
6.06633e-12
-8.29476e-12
4.818e-12
-6.59253e-12
3.82579e-12
-5.23649e-12
3.04047e-12
-4.14949e-12
2.4544e-12
-3.13843e-12
2.56593e-12
-8.25234e-13
-2.92085e-12
1.01858e-12
-1.71742e-12
9.81536e-13
-1.33735e-12
8.08876e-13
-1.0751e-12
6.67452e-13
-8.72971e-13
5.58789e-13
-7.16795e-13
4.76173e-13
-5.97369e-13
4.12118e-13
-5.10319e-13
3.49464e-13
-4.43536e-13
2.71627e-13
-3.71063e-13
1.90449e-13
-2.85134e-13
1.27398e-13
-2.35074e-13
8.75664e-15
-1.15155e-13
-3.60269e-14
-9.04218e-15
-2.20842e-15
-6.49076e-16
1.69176e-05
-1.19807e-05
-3.32357e-06
-1.20459e-06
-2.83929e-07
-9.73297e-08
-2.23847e-08
-8.06593e-09
-1.32546e-09
-7.16801e-10
-6.35042e-10
1.68816e-10
-3.10375e-10
1.96431e-10
-2.48428e-10
1.65223e-10
-2.06732e-10
1.34888e-10
-1.7053e-10
1.09174e-10
-1.39307e-10
8.7911e-11
-1.12961e-10
7.05393e-11
-9.11031e-11
5.64578e-11
-7.3188e-11
4.51045e-11
-5.86295e-11
3.59849e-11
-4.68699e-11
2.86786e-11
-3.74112e-11
2.28358e-11
-2.98258e-11
1.81696e-11
-2.37555e-11
1.44471e-11
-1.89053e-11
1.14805e-11
-1.50346e-11
9.11871e-12
-1.19489e-11
7.24118e-12
-9.49112e-12
5.75412e-12
-7.52333e-12
4.63215e-12
-5.7284e-12
4.68077e-12
-1.43114e-12
-5.13398e-12
1.99408e-12
-3.10164e-12
1.85868e-12
-2.42556e-12
1.52704e-12
-1.95157e-12
1.25815e-12
-1.58588e-12
1.05147e-12
-1.30343e-12
8.94185e-13
-1.08743e-12
7.72551e-13
-9.29115e-13
6.55718e-13
-8.05756e-13
5.12889e-13
-6.71579e-13
3.63359e-13
-5.14427e-13
2.46651e-13
-4.18571e-13
3.08738e-14
-2.0089e-13
-5.77359e-14
-1.41699e-14
-3.44341e-15
-1.0106e-15
2.52755e-05
-1.88303e-05
-4.30634e-06
-1.61767e-06
-3.56358e-07
-1.29744e-07
-2.79279e-08
-1.08423e-08
-1.51196e-09
-9.71508e-10
-9.2773e-10
3.06746e-10
-4.87813e-10
3.26995e-10
-3.94304e-10
2.74206e-10
-3.28088e-10
2.24167e-10
-2.70448e-10
1.81677e-10
-2.20807e-10
1.46444e-10
-1.78974e-10
1.17595e-10
-1.443e-10
9.41723e-11
-1.15899e-10
7.52655e-11
-9.28299e-11
6.00658e-11
-7.42019e-11
4.78812e-11
-5.9222e-11
3.8133e-11
-4.72108e-11
3.03456e-11
-3.75999e-11
2.41317e-11
-2.99214e-11
1.91785e-11
-2.37942e-11
1.52345e-11
-1.89101e-11
1.20984e-11
-1.50204e-11
9.61262e-12
-1.1911e-11
7.71366e-12
-9.14637e-12
7.45891e-12
-2.13125e-12
-7.77848e-12
3.46016e-12
-4.88666e-12
3.10688e-12
-3.84212e-12
2.54346e-12
-3.09468e-12
2.09179e-12
-2.51734e-12
1.74447e-12
-2.07161e-12
1.47985e-12
-1.73073e-12
1.27581e-12
-1.47906e-12
1.08408e-12
-1.27897e-12
8.54451e-13
-1.06073e-12
6.12886e-13
-8.09195e-13
4.23014e-13
-6.46615e-13
8.02633e-14
-3.01607e-13
-7.54535e-14
-1.79799e-14
-4.34413e-15
-1.2732e-15
3.53979e-05
-2.80248e-05
-4.81557e-06
-1.97359e-06
-3.87365e-07
-1.57151e-07
-3.0076e-08
-1.33063e-08
-1.34593e-09
-1.20588e-09
-1.26775e-09
5.26066e-10
-7.29431e-10
5.19175e-10
-5.95619e-10
4.34158e-10
-4.95503e-10
3.55432e-10
-4.08135e-10
2.88454e-10
-3.33017e-10
2.32755e-10
-2.69802e-10
1.87047e-10
-2.1746e-10
1.49874e-10
-1.74618e-10
1.19833e-10
-1.39837e-10
9.56624e-11
-1.11762e-10
7.62743e-11