/*--------------------------------*- C++ -*----------------------------------*\
| =========                 |                                                 |
| \\      /  F ield         | OpenFOAM: The Open Source CFD Toolbox           |
|  \\    /   O peration     | Version:  5.x                                   |
|   \\  /    A nd           | Web:      www.OpenFOAM.org                      |
|    \\/     M anipulation  |                                                 |
\*---------------------------------------------------------------------------*/
FoamFile
{
    version     2.0;
    format      ascii;
    class       volScalarField;
    location    "3.4";
    object      gradTx;
}
// * * * * * * * * * * * * * * * * * * * * * * * * * * * * * * * * * * * * * //

dimensions      [0 -1 0 1 0 0 0];

internalField   nonuniform List<scalar> 
3200
(
2.56478e-08
-2.81195e-09
-3.03593e-09
-3.02902e-09
-2.54657e-09
-2.48335e-09
-1.71478e-09
-1.65466e-09
-1.20033e-09
-1.8257e-09
-8.354e-10
-5.89688e-10
-5.65164e-10
-4.26476e-10
-4.1385e-10
-3.16839e-10
-3.08054e-10
-2.3761e-10
-2.31194e-10
-1.79067e-10
-1.74299e-10
-1.35274e-10
-1.31694e-10
-1.02266e-10
-9.95624e-11
-7.72775e-11
-7.52281e-11
-5.83139e-11
-5.67579e-11
-4.39092e-11
-4.27273e-11
-3.29686e-11
-3.20713e-11
-2.46665e-11
-2.39861e-11
-1.83761e-11
-1.78611e-11
-1.36198e-11
-1.32309e-11
-1.00327e-11
-9.73982e-12
-7.3359e-12
-7.11611e-12
-5.31624e-12
-5.15204e-12
-3.81107e-12
-3.68939e-12
-2.69796e-12
-2.61498e-12
-1.93271e-12
-2.92076e-12
-1.31834e-12
-8.68324e-13
-8.23729e-13
-5.5536e-13
-5.31356e-13
-3.49411e-13
-3.33551e-13
-2.13148e-13
-2.02804e-13
-1.25909e-13
-1.19392e-13
-7.21e-14
-6.81411e-14
-4.00854e-14
-3.77614e-14
-2.16433e-14
-2.03193e-14
-1.1303e-14
-1.05666e-14
-5.62395e-15
-5.21197e-15
-2.34364e-15
-2.11139e-15
-5.59326e-16
-4.54701e-16
-2.96144e-17
-5.42912e-18
-1.22888e-18
2.81168e-16
2.55123e-08
-2.72403e-09
-2.98596e-09
-2.97502e-09
-2.57009e-09
-2.42542e-09
-1.77501e-09
-1.63875e-09
-1.28418e-09
-1.68473e-09
-8.93028e-10
-6.21349e-10
-5.61194e-10
-4.37961e-10
-4.08501e-10
-3.24317e-10
-3.03956e-10
-2.42977e-10
-2.2812e-10
-1.83021e-10
-1.71981e-10
-1.38226e-10
-1.29939e-10
-1.0449e-10
-9.82301e-11
-7.89597e-11
-7.42155e-11
-5.95902e-11
-5.59883e-11
-4.48787e-11
-4.21429e-11
-3.37051e-11
-3.16281e-11
-2.52256e-11
-2.36506e-11
-1.87999e-11
-1.76077e-11
-1.39404e-11
-1.30401e-11
-1.02747e-11
-9.59667e-12
-7.51797e-12
-7.00917e-12
-5.45275e-12
-5.07263e-12
-3.91316e-12
-3.63168e-12
-2.77744e-12
-2.5888e-12
-2.0604e-12
-2.69288e-12
-1.40682e-12
-9.23118e-13
-8.145e-13
-5.77401e-13
-5.21481e-13
-3.63708e-13
-3.26953e-13
-2.22653e-13
-1.98687e-13
-1.32036e-13
-1.16932e-13
-7.59033e-14
-6.67238e-14
-4.23607e-14
-3.69699e-14
-2.29599e-14
-1.98874e-14
-1.20435e-14
-1.03338e-14
-6.02746e-15
-5.07101e-15
-2.57934e-15
-2.04084e-15
-6.96388e-16
-4.53229e-16
-7.28057e-17
-1.54873e-17
-3.55854e-18
2.80403e-16
2.54013e-08
-2.65023e-09
-2.94689e-09
-2.93675e-09
-2.58318e-09
-2.3877e-09
-1.81465e-09
-1.63156e-09
-1.33782e-09
-1.59145e-09
-9.29848e-10
-6.44544e-10
-5.59741e-10
-4.4569e-10
-4.05338e-10
-3.29238e-10
-3.0148e-10
-2.46498e-10
-2.26254e-10
-1.85612e-10
-1.7057e-10
-1.40159e-10
-1.28869e-10
-1.05944e-10
-9.74174e-11
-8.00602e-11
-7.35976e-11
-6.0425e-11
-5.55186e-11
-4.55128e-11
-4.17862e-11
-3.41868e-11
-3.13576e-11
-2.55913e-11
-2.34459e-11
-1.90772e-11
-1.74532e-11
-1.41502e-11
-1.29238e-11
-1.04331e-11
-9.50948e-12
-7.63718e-12
-6.94408e-12
-5.54217e-12
-5.02436e-12
-3.9801e-12
-3.59686e-12
-2.83027e-12
-2.57618e-12
-2.14163e-12
-2.54172e-12
-1.46321e-12
-9.62898e-13
-8.10403e-13
-5.92189e-13
-5.15676e-13
-3.7316e-13
-3.23053e-13
-2.28943e-13
-1.96275e-13
-1.361e-13
-1.15507e-13
-7.8432e-14
-6.59133e-14
-4.38768e-14
-3.65227e-14
-2.38387e-14
-1.96462e-14
-1.25384e-14
-1.02047e-14
-6.29692e-15
-4.99141e-15
-2.73689e-15
-2.0025e-15
-7.89385e-16
-4.57241e-16
-1.03069e-16
-2.37281e-17
-5.52662e-18
2.79753e-16
2.53232e-08
-2.5978e-09
-2.92008e-09
-2.9122e-09
-2.58992e-09
-2.36507e-09
-1.83867e-09
-1.62878e-09
-1.36954e-09
-1.53475e-09
-9.51603e-10
-6.59708e-10
-5.59451e-10
-4.50465e-10
-4.036e-10
-3.32221e-10
-3.0009e-10
-2.48626e-10
-2.252e-10
-1.87176e-10
-1.69773e-10
-1.41326e-10
-1.28263e-10
-1.06822e-10
-9.69568e-11
-8.07239e-11
-7.32473e-11
-6.09285e-11
-5.52523e-11
-4.58952e-11
-4.15839e-11
-3.44774e-11
-3.12042e-11
-2.58119e-11
-2.33299e-11
-1.92444e-11
-1.73657e-11
-1.42768e-11
-1.2858e-11
-1.05286e-11
-9.46012e-12
-7.70912e-12
-6.90727e-12
-5.59614e-12
-4.99708e-12
-4.02054e-12
-3.57733e-12
-2.86256e-12
-2.57076e-12
-2.18944e-12
-2.44969e-12
-1.49644e-12
-9.8875e-13
-8.08924e-13
-6.013e-13
-5.12504e-13
-3.78911e-13
-3.2091e-13
-2.32772e-13
-1.94962e-13
-1.38579e-13
-1.1474e-13
-7.99772e-14
-6.54827e-14
-4.48048e-14
-3.62883e-14
-2.43775e-14
-1.95213e-14
-1.28422e-14
-1.01384e-14
-6.46219e-15
-4.9497e-15
-2.83358e-15
-1.98329e-15
-8.47123e-16
-4.62123e-16
-1.22333e-16
-2.95204e-17
-6.94616e-18
2.79282e-16
2.52831e-08
-2.57072e-09
-2.90643e-09
-2.90019e-09
-2.59272e-09
-2.35446e-09
-1.85e-09
-1.62794e-09
-1.38426e-09
-1.50797e-09
-9.61692e-10
-6.67194e-10
-5.595e-10
-4.52748e-10
-4.02836e-10
-3.33629e-10
-2.99468e-10
-2.49628e-10
-2.24728e-10
-1.87912e-10
-1.69414e-10
-1.41875e-10
-1.27991e-10
-1.07235e-10
-9.67494e-11
-8.1036e-11
-7.30894e-11
-6.11653e-11
-5.51323e-11
-4.60751e-11
-4.14927e-11
-3.4614e-11
-3.11352e-11
-2.59156e-11
-2.32776e-11
-1.93231e-11
-1.73263e-11
-1.43364e-11
-1.28283e-11
-1.05736e-11
-9.43792e-12
-7.74297e-12
-6.89071e-12
-5.62154e-12
-4.98483e-12
-4.03958e-12
-3.5686e-12
-2.87788e-12
-2.56887e-12
-2.21156e-12
-2.40617e-12
-1.51183e-12
-1.00147e-12
-8.08541e-13
-6.05647e-13
-5.11115e-13
-3.81631e-13
-3.19967e-13
-2.34584e-13
-1.94388e-13
-1.39753e-13
-1.14408e-13
-8.07102e-14
-6.52983e-14
-4.52456e-14
-3.6189e-14
-2.46336e-14
-1.94689e-14
-1.29867e-14
-1.01108e-14
-6.54078e-15
-4.93205e-15
-2.87958e-15
-1.97547e-15
-8.74791e-16
-4.65183e-16
-1.31711e-16
-3.24998e-17
-7.68841e-18
2.79034e-16
2.52831e-08
-2.57073e-09
-2.90644e-09
-2.90019e-09
-2.59273e-09
-2.35446e-09
-1.85e-09
-1.62794e-09
-1.38426e-09
-1.50797e-09
-9.61692e-10
-6.67194e-10
-5.595e-10
-4.52748e-10
-4.02836e-10
-3.33629e-10
-2.99468e-10
-2.49628e-10
-2.24728e-10
-1.87912e-10
-1.69414e-10
-1.41875e-10
-1.27991e-10
-1.07235e-10
-9.67494e-11
-8.10361e-11
-7.30894e-11
-6.11653e-11
-5.51323e-11
-4.60751e-11
-4.14928e-11
-3.4614e-11
-3.11352e-11
-2.59156e-11
-2.32776e-11
-1.93231e-11
-1.73263e-11
-1.43364e-11
-1.28283e-11
-1.05736e-11
-9.43792e-12
-7.74297e-12
-6.89071e-12
-5.62154e-12
-4.98483e-12
-4.03958e-12
-3.5686e-12
-2.87788e-12
-2.56887e-12
-2.21156e-12
-2.40617e-12
-1.51183e-12
-1.00147e-12
-8.08541e-13
-6.05647e-13
-5.11115e-13
-3.81631e-13
-3.19967e-13
-2.34584e-13
-1.94388e-13
-1.39753e-13
-1.14408e-13
-8.07102e-14
-6.52983e-14
-4.52456e-14
-3.6189e-14
-2.46336e-14
-1.94689e-14
-1.29867e-14
-1.01108e-14
-6.54078e-15
-4.93204e-15
-2.87958e-15
-1.97546e-15
-8.7479e-16
-4.65182e-16
-1.3171e-16
-3.24994e-17
-7.68806e-18
2.79034e-16
2.53233e-08
-2.59784e-09
-2.92009e-09
-2.91221e-09
-2.58992e-09
-2.36507e-09
-1.83867e-09
-1.62878e-09
-1.36954e-09
-1.53475e-09
-9.51603e-10
-6.59708e-10
-5.59451e-10
-4.50465e-10
-4.036e-10
-3.32221e-10
-3.0009e-10
-2.48626e-10
-2.25201e-10
-1.87176e-10
-1.69773e-10
-1.41326e-10
-1.28263e-10
-1.06822e-10
-9.69568e-11
-8.07239e-11
-7.32473e-11
-6.09285e-11
-5.52523e-11
-4.58952e-11
-4.15839e-11
-3.44774e-11
-3.12043e-11
-2.58119e-11
-2.33299e-11
-1.92444e-11
-1.73657e-11
-1.42768e-11
-1.2858e-11
-1.05286e-11
-9.46012e-12
-7.70912e-12
-6.90727e-12
-5.59614e-12
-4.99708e-12
-4.02054e-12
-3.57733e-12
-2.86256e-12
-2.57076e-12
-2.18944e-12
-2.44969e-12
-1.49644e-12
-9.88749e-13
-8.08923e-13
-6.013e-13
-5.12504e-13
-3.7891e-13
-3.2091e-13
-2.32772e-13
-1.94962e-13
-1.38579e-13
-1.1474e-13
-7.99771e-14
-6.54827e-14
-4.48048e-14
-3.62883e-14
-2.43774e-14
-1.95212e-14
-1.28422e-14
-1.01384e-14
-6.46218e-15
-4.94969e-15
-2.83357e-15
-1.98328e-15
-8.4712e-16
-4.62121e-16
-1.22331e-16
-2.95194e-17
-6.9452e-18
2.79282e-16
2.54014e-08
-2.65028e-09
-2.94691e-09
-2.93676e-09
-2.58318e-09
-2.38771e-09
-1.81465e-09
-1.63156e-09
-1.33782e-09
-1.59145e-09
-9.29847e-10
-6.44543e-10
-5.59741e-10
-4.4569e-10
-4.05338e-10
-3.29238e-10
-3.0148e-10
-2.46498e-10
-2.26254e-10
-1.85612e-10
-1.7057e-10
-1.4016e-10
-1.28869e-10
-1.05944e-10
-9.74175e-11
-8.00602e-11
-7.35977e-11
-6.04251e-11
-5.55187e-11
-4.55128e-11
-4.17862e-11
-3.41869e-11
-3.13576e-11
-2.55913e-11
-2.34459e-11
-1.90772e-11
-1.74532e-11
-1.41502e-11
-1.29238e-11
-1.04331e-11
-9.50948e-12
-7.63718e-12
-6.94409e-12
-5.54217e-12
-5.02436e-12
-3.9801e-12
-3.59686e-12
-2.83027e-12
-2.57619e-12
-2.14163e-12
-2.54172e-12
-1.4632e-12
-9.62897e-13
-8.10403e-13
-5.92188e-13
-5.15675e-13
-3.7316e-13
-3.23053e-13
-2.28943e-13
-1.96275e-13
-1.361e-13
-1.15507e-13
-7.84319e-14
-6.59133e-14
-4.38767e-14
-3.65227e-14
-2.38386e-14
-1.96461e-14
-1.25384e-14
-1.02046e-14
-6.29691e-15
-4.9914e-15
-2.73688e-15
-2.0025e-15
-7.8938e-16
-4.57238e-16
-1.03067e-16
-2.37268e-17
-5.52535e-18
2.79753e-16
2.55124e-08
-2.72407e-09
-2.98597e-09
-2.97502e-09
-2.57009e-09
-2.42542e-09
-1.77501e-09
-1.63875e-09
-1.28418e-09
-1.68473e-09
-8.93028e-10
-6.21349e-10
-5.61194e-10
-4.37961e-10
-4.08501e-10
-3.24317e-10
-3.03956e-10
-2.42977e-10
-2.2812e-10
-1.83021e-10
-1.71981e-10
-1.38226e-10
-1.29939e-10
-1.0449e-10
-9.82301e-11
-7.89597e-11
-7.42156e-11
-5.95902e-11
-5.59884e-11
-4.48787e-11
-4.21429e-11
-3.37051e-11
-3.16281e-11
-2.52256e-11
-2.36506e-11
-1.87999e-11
-1.76078e-11
-1.39404e-11
-1.30401e-11
-1.02747e-11
-9.59668e-12
-7.51797e-12
-7.00917e-12
-5.45275e-12
-5.07263e-12
-3.91316e-12
-3.63168e-12
-2.77744e-12
-2.5888e-12
-2.0604e-12
-2.69288e-12
-1.40682e-12
-9.23117e-13
-8.145e-13
-5.774e-13
-5.21481e-13
-3.63707e-13
-3.26952e-13
-2.22653e-13
-1.98687e-13
-1.32036e-13
-1.16932e-13
-7.59033e-14
-6.67238e-14
-4.23607e-14
-3.69698e-14
-2.29598e-14
-1.98874e-14
-1.20434e-14
-1.03337e-14
-6.02745e-15
-5.071e-15
-2.57933e-15
-2.04083e-15
-6.96383e-16
-4.53227e-16
-7.28038e-17
-1.54862e-17
-3.55742e-18
2.80403e-16
2.56479e-08
-2.81197e-09
-3.03594e-09
-3.02903e-09
-2.54657e-09
-2.48335e-09
-1.71478e-09
-1.65466e-09
-1.20033e-09
-1.8257e-09
-8.354e-10
-5.89688e-10
-5.65164e-10
-4.26476e-10
-4.1385e-10
-3.16839e-10
-3.08054e-10
-2.3761e-10
-2.31194e-10
-1.79067e-10
-1.74299e-10
-1.35274e-10
-1.31694e-10
-1.02266e-10
-9.95625e-11
-7.72775e-11
-7.52281e-11
-5.83139e-11
-5.67579e-11
-4.39092e-11
-4.27273e-11
-3.29686e-11
-3.20714e-11
-2.46665e-11
-2.39861e-11
-1.83761e-11
-1.78611e-11
-1.36198e-11
-1.32309e-11
-1.00327e-11
-9.73982e-12
-7.3359e-12
-7.11611e-12
-5.31624e-12
-5.15204e-12
-3.81107e-12
-3.68939e-12
-2.69796e-12
-2.61498e-12
-1.93271e-12
-2.92076e-12
-1.31834e-12
-8.68324e-13
-8.23729e-13
-5.5536e-13
-5.31356e-13
-3.49411e-13
-3.33551e-13
-2.13148e-13
-2.02804e-13
-1.25909e-13
-1.19392e-13
-7.21e-14
-6.81411e-14
-4.00854e-14
-3.77614e-14
-2.16433e-14
-2.03193e-14
-1.1303e-14
-1.05666e-14
-5.62395e-15
-5.21196e-15
-2.34364e-15
-2.11139e-15
-5.59325e-16
-4.547e-16
-2.96136e-17
-5.42867e-18
-1.22841e-18
2.81168e-16
3.29224e-05
-2.9342e-05
-2.32211e-06
-9.89507e-07
-1.56411e-07
-7.61498e-08
-1.34412e-08
-7.14041e-09
-2.27771e-09
-2.65706e-09
-1.15373e-09
-9.00128e-10
-8.69357e-10
-7.39708e-10
-7.26428e-10
-6.14517e-10
-6.03525e-10
-5.05405e-10
-4.95907e-10
-4.1194e-10
-4.03887e-10
-3.33501e-10
-3.26794e-10
-2.68673e-10
-2.6316e-10
-2.15676e-10
-2.11187e-10
-1.72684e-10
-1.69052e-10
-1.37997e-10
-1.35072e-10
-1.10118e-10
-1.07771e-10
-8.77719e-11
-8.58918e-11
-6.9895e-11
-6.8392e-11
-5.56147e-11
-5.44149e-11
-4.42213e-11
-4.32645e-11
-3.51415e-11
-3.43795e-11
-2.79145e-11
-2.73086e-11
-2.21717e-11
-2.16937e-11
-1.76324e-11
-1.73138e-11
-1.45047e-11
-2.34953e-11
-1.15585e-11
-9.02577e-12
-8.75834e-12
-7.17156e-12
-7.02143e-12
-5.79656e-12
-5.68277e-12
-4.73319e-12
-4.64533e-12
-3.91361e-12
-3.8461e-12
-3.28612e-12
-3.23437e-12
-2.80571e-12
-2.76366e-12
-2.39093e-12
-2.35007e-12
-1.94179e-12
-1.89792e-12
-1.46195e-12
-1.4202e-12
-1.06038e-12
-1.01227e-12
-4.4548e-13
-3.97327e-13
-2.4224e-14
-4.3183e-15
-9.7318e-16
-7.0288e-14
3.22138e-05
-2.5891e-05
-4.4125e-06
-1.42222e-06
-3.2288e-07
-1.1151e-07
-2.6686e-08
-9.98295e-09
-3.38343e-09
-2.6986e-09
-1.30323e-09
-9.49964e-10
-8.70519e-10
-7.50967e-10
-7.19727e-10
-6.22694e-10
-5.9724e-10
-5.12536e-10
-4.90565e-10
-4.1808e-10
-3.99451e-10
-3.38674e-10
-3.23158e-10
-2.7296e-10
-2.60205e-10
-2.19188e-10
-2.088e-10
-1.75537e-10
-1.67132e-10
-1.40301e-10
-1.33532e-10
-1.11971e-10
-1.06538e-10
-8.92577e-11
-8.49069e-11
-7.1084e-11
-6.76059e-11
-5.65648e-11
-5.37881e-11
-4.49796e-11
-4.27654e-11
-3.5746e-11
-3.39825e-11
-2.8396e-11
-2.69939e-11
-2.25564e-11
-2.14521e-11
-1.79706e-11
-1.72643e-11
-1.53844e-11
-2.16255e-11
-1.22596e-11
-9.36617e-12
-8.70727e-12
-7.29955e-12
-6.94963e-12
-5.88896e-12
-5.62545e-12
-4.8046e-12
-4.60123e-12
-3.96873e-12
-3.81247e-12
-3.32829e-12
-3.20844e-12
-2.83697e-12
-2.73948e-12
-2.41604e-12
-2.32143e-12
-1.96918e-12
-1.86781e-12
-1.49321e-12
-1.39644e-12
-1.08112e-12
-9.69985e-13
-4.88038e-13
-3.77324e-13
-5.85435e-14
-1.22921e-14
-2.81737e-15
-7.09063e-14
3.16339e-05
-2.34279e-05
-5.76335e-06
-1.77928e-06
-4.5382e-07
-1.41802e-07
-3.72036e-08
-1.24204e-08
-4.2522e-09
-2.76844e-09
-1.41101e-09
-9.88827e-10
-8.73277e-10
-7.58687e-10
-7.15653e-10
-6.28003e-10
-5.9332e-10
-5.17154e-10
-4.8724e-10
-4.22062e-10
-3.96698e-10
-3.42034e-10
-3.20907e-10
-2.75748e-10
-2.58379e-10
-2.21473e-10
-2.07326e-10
-1.77394e-10
-1.65947e-10
-1.41801e-10
-1.32583e-10
-1.13178e-10
-1.05779e-10
-9.02256e-11
-8.43003e-11
-7.18588e-11
-6.71219e-11
-5.71839e-11
-5.34023e-11
-4.54737e-11
-4.24582e-11
-3.61399e-11
-3.37383e-11
-2.87098e-11
-2.68003e-11
-2.28075e-11
-2.13054e-11
-1.81976e-11
-1.72617e-11
-1.59391e-11
-2.03798e-11
-1.27017e-11
-9.61709e-12
-8.68608e-12
-7.38516e-12
-6.9062e-12
-5.94941e-12
-5.59038e-12
-4.85126e-12
-4.57427e-12
-4.00478e-12
-3.79193e-12
-3.35586e-12
-3.19256e-12
-2.85724e-12
-2.72432e-12
-2.43198e-12
-2.30308e-12
-1.98652e-12
-1.84862e-12
-1.51333e-12
-1.38141e-12
-1.09368e-12
-9.42529e-13
-5.15743e-13
-3.6564e-13
-8.19599e-14
-1.87937e-14
-4.37411e-15
-7.14317e-14
3.12268e-05
-2.18443e-05
-6.56694e-06
-2.02997e-06
-5.44204e-07
-1.63789e-07
-4.45248e-08
-1.41917e-08
-4.85306e-09
-2.83303e-09
-1.4813e-09
-1.0154e-09
-8.7598e-10
-7.63533e-10
-7.13354e-10
-6.31185e-10
-5.91053e-10
-5.19915e-10
-4.8532e-10
-4.24446e-10
-3.95113e-10
-3.44048e-10
-3.19613e-10
-2.7742e-10
-2.57331e-10
-2.22844e-10
-2.06481e-10
-1.78509e-10
-1.65269e-10
-1.42702e-10
-1.3204e-10
-1.13903e-10
-1.05344e-10
-9.08073e-11
-8.39533e-11
-7.23244e-11
-6.68451e-11
-5.75561e-11
-5.31816e-11
-4.57707e-11
-4.22825e-11
-3.63768e-11
-3.35986e-11
-2.88985e-11
-2.66898e-11
-2.29587e-11
-2.12227e-11
-1.83376e-11
-1.72743e-11
-1.6263e-11
-1.96187e-11
-1.29599e-11
-9.78174e-12
-8.67957e-12
-7.4378e-12
-6.8818e-12
-5.98589e-12
-5.57045e-12
-4.87939e-12
-4.55895e-12
-4.02651e-12
-3.78027e-12
-3.37248e-12
-3.18351e-12
-2.86937e-12
-2.71551e-12
-2.44135e-12
-2.29221e-12
-1.99669e-12
-1.8373e-12
-1.52531e-12
-1.3726e-12
-1.10076e-12
-9.26089e-13
-5.32372e-13
-3.59293e-13
-9.65525e-14
-2.33438e-14
-5.49608e-15
-7.1813e-14
3.10177e-05
-2.10699e-05
-6.94086e-06
-2.15857e-06
-5.90353e-07
-1.75319e-07
-4.82841e-08
-1.51215e-08
-5.16052e-09
-2.87066e-09
-1.51608e-09
-1.02887e-09
-8.77584e-10
-7.65875e-10
-7.12323e-10
-6.32676e-10
-5.90018e-10
-5.21206e-10
-4.84444e-10
-4.25562e-10
-3.94391e-10
-3.44991e-10
-3.19024e-10
-2.78204e-10
-2.56854e-10
-2.23487e-10
-2.06098e-10
-1.79032e-10
-1.64961e-10
-1.43125e-10
-1.31793e-10
-1.14243e-10
-1.05147e-10
-9.10803e-11
-8.3796e-11
-7.25429e-11
-6.67196e-11
-5.77307e-11
-5.30817e-11
-4.59101e-11
-4.2203e-11
-3.64879e-11
-3.35354e-11
-2.8987e-11
-2.66398e-11
-2.30298e-11
-2.11856e-11
-1.84044e-11
-1.72845e-11
-1.64121e-11
-1.9258e-11
-1.30787e-11
-9.86317e-12
-8.6785e-12
-7.46289e-12
-6.87089e-12
-6.00305e-12
-5.56146e-12
-4.89261e-12
-4.55204e-12
-4.03672e-12
-3.77501e-12
-3.3803e-12
-3.17943e-12
-2.87506e-12
-2.71147e-12
-2.44568e-12
-2.28715e-12
-2.00138e-12
-1.83205e-12
-1.53089e-12
-1.36854e-12
-1.10394e-12
-9.18396e-13
-5.40166e-13
-3.56527e-13
-1.0356e-13
-2.56774e-14
-6.08249e-15
-7.20131e-14
3.10177e-05
-2.10699e-05
-6.94086e-06
-2.15857e-06
-5.90351e-07
-1.75318e-07
-4.82836e-08
-1.51213e-08
-5.16043e-09
-2.87063e-09
-1.51607e-09
-1.02887e-09
-8.77583e-10
-7.65875e-10
-7.12323e-10
-6.32676e-10
-5.90018e-10
-5.21206e-10
-4.84444e-10
-4.25562e-10
-3.94391e-10
-3.44991e-10
-3.19024e-10
-2.78204e-10
-2.56854e-10
-2.23487e-10
-2.06098e-10
-1.79032e-10
-1.64961e-10
-1.43125e-10
-1.31793e-10
-1.14243e-10
-1.05147e-10
-9.10803e-11
-8.3796e-11
-7.25429e-11
-6.67196e-11
-5.77307e-11
-5.30817e-11
-4.59101e-11
-4.2203e-11
-3.64879e-11
-3.35354e-11
-2.8987e-11
-2.66398e-11
-2.30298e-11
-2.11856e-11
-1.84044e-11
-1.72845e-11
-1.64121e-11
-1.9258e-11
-1.30787e-11
-9.86317e-12
-8.6785e-12
-7.46289e-12
-6.87089e-12
-6.00305e-12
-5.56146e-12
-4.89261e-12
-4.55204e-12
-4.03672e-12
-3.77502e-12
-3.3803e-12
-3.17943e-12
-2.87506e-12
-2.71147e-12
-2.44568e-12
-2.28716e-12
-2.00138e-12
-1.83205e-12
-1.53089e-12
-1.36854e-12
-1.10394e-12
-9.18396e-13
-5.40166e-13
-3.56527e-13
-1.0356e-13
-2.56772e-14
-6.08244e-15
-7.2013e-14
3.12269e-05
-2.18444e-05
-6.56694e-06
-2.02996e-06
-5.44199e-07
-1.63786e-07
-4.45234e-08
-1.41911e-08
-4.85282e-09
-2.83294e-09
-1.48127e-09
-1.01539e-09
-8.75977e-10
-7.63533e-10
-7.13354e-10
-6.31186e-10
-5.91054e-10
-5.19915e-10
-4.8532e-10
-4.24446e-10
-3.95113e-10
-3.44048e-10
-3.19613e-10
-2.7742e-10
-2.57331e-10
-2.22844e-10
-2.06481e-10
-1.78509e-10
-1.65269e-10
-1.42702e-10
-1.3204e-10
-1.13903e-10
-1.05344e-10
-9.08074e-11
-8.39533e-11
-7.23244e-11
-6.68451e-11
-5.75561e-11
-5.31817e-11
-4.57707e-11
-4.22826e-11
-3.63768e-11
-3.35987e-11
-2.88985e-11
-2.66898e-11
-2.29587e-11
-2.12227e-11
-1.83376e-11
-1.72743e-11
-1.6263e-11
-1.96187e-11
-1.29599e-11
-9.78174e-12
-8.67957e-12
-7.43781e-12
-6.8818e-12
-5.98589e-12
-5.57045e-12
-4.87939e-12
-4.55895e-12
-4.02651e-12
-3.78027e-12
-3.37249e-12
-3.18352e-12
-2.86938e-12
-2.71551e-12
-2.44135e-12
-2.29221e-12
-1.99669e-12
-1.8373e-12
-1.52531e-12
-1.3726e-12
-1.10076e-12
-9.26088e-13
-5.32371e-13
-3.59293e-13
-9.65518e-14
-2.33433e-14
-5.49595e-15
-7.18127e-14
3.16339e-05
-2.34279e-05
-5.76335e-06
-1.77928e-06
-4.53814e-07
-1.41798e-07
-3.72017e-08
-1.24196e-08
-4.25189e-09
-2.76833e-09
-1.41097e-09
-9.88816e-10
-8.73274e-10
-7.58686e-10
-7.15653e-10
-6.28003e-10
-5.93321e-10
-5.17154e-10
-4.87241e-10
-4.22062e-10
-3.96699e-10
-3.42034e-10
-3.20907e-10
-2.75748e-10
-2.58379e-10
-2.21473e-10
-2.07326e-10
-1.77394e-10
-1.65948e-10
-1.41801e-10
-1.32583e-10
-1.13178e-10
-1.05779e-10
-9.02257e-11
-8.43003e-11
-7.18588e-11
-6.71219e-11
-5.7184e-11
-5.34023e-11
-4.54737e-11
-4.24582e-11
-3.614e-11
-3.37383e-11
-2.87098e-11
-2.68004e-11
-2.28075e-11
-2.13054e-11
-1.81977e-11
-1.72617e-11
-1.59391e-11
-2.03798e-11
-1.27017e-11
-9.61709e-12
-8.68608e-12
-7.38517e-12
-6.9062e-12
-5.94942e-12
-5.59039e-12
-4.85127e-12
-4.57427e-12
-4.00478e-12
-3.79193e-12
-3.35587e-12
-3.19256e-12
-2.85724e-12
-2.72433e-12
-2.43198e-12
-2.30308e-12
-1.98652e-12
-1.84862e-12
-1.51334e-12
-1.38141e-12
-1.09368e-12
-9.42529e-13
-5.15742e-13
-3.65638e-13
-8.19589e-14
-1.87931e-14
-4.37394e-15
-7.14314e-14
3.22138e-05
-2.5891e-05
-4.41251e-06
-1.42222e-06
-3.22876e-07
-1.11507e-07
-2.66844e-08
-9.98225e-09
-3.38316e-09
-2.6985e-09
-1.3032e-09
-9.49954e-10
-8.70517e-10
-7.50967e-10
-7.19728e-10
-6.22694e-10
-5.9724e-10
-5.12537e-10
-4.90566e-10
-4.1808e-10
-3.99452e-10
-3.38674e-10
-3.23158e-10
-2.72961e-10
-2.60205e-10
-2.19188e-10
-2.088e-10
-1.75537e-10
-1.67132e-10
-1.40301e-10
-1.33532e-10
-1.11971e-10
-1.06538e-10
-8.92578e-11
-8.4907e-11
-7.10841e-11
-6.7606e-11
-5.65649e-11
-5.37882e-11
-4.49796e-11
-4.27654e-11
-3.5746e-11
-3.39826e-11
-2.8396e-11
-2.69939e-11
-2.25564e-11
-2.14521e-11
-1.79706e-11
-1.72644e-11
-1.53844e-11
-2.16255e-11
-1.22596e-11
-9.36617e-12
-8.70727e-12
-7.29955e-12
-6.94963e-12
-5.88896e-12
-5.62545e-12
-4.8046e-12
-4.60124e-12
-3.96874e-12
-3.81247e-12
-3.3283e-12
-3.20845e-12
-2.83697e-12
-2.73948e-12
-2.41604e-12
-2.32143e-12
-1.96918e-12
-1.86781e-12
-1.49321e-12
-1.39644e-12
-1.08112e-12
-9.69985e-13
-4.88038e-13
-3.77323e-13
-5.85428e-14
-1.22916e-14
-2.81724e-15
-7.0906e-14
3.29225e-05
-2.9342e-05
-2.32211e-06
-9.89505e-07
-1.56409e-07
-7.61486e-08
-1.34406e-08
-7.14013e-09
-2.2776e-09
-2.65702e-09
-1.15372e-09
-9.00125e-10
-8.69356e-10
-7.39708e-10
-7.26428e-10
-6.14517e-10
-6.03525e-10
-5.05406e-10
-4.95907e-10
-4.1194e-10
-4.03887e-10
-3.33501e-10
-3.26795e-10
-2.68673e-10
-2.6316e-10
-2.15676e-10
-2.11187e-10
-1.72684e-10
-1.69052e-10
-1.37997e-10
-1.35072e-10
-1.10118e-10
-1.07771e-10
-8.77719e-11
-8.58918e-11
-6.9895e-11
-6.83921e-11
-5.56147e-11
-5.44149e-11
-4.42213e-11
-4.32645e-11
-3.51415e-11
-3.43795e-11
-2.79145e-11
-2.73087e-11
-2.21717e-11
-2.16937e-11
-1.76324e-11
-1.73138e-11
-1.45047e-11
-2.34953e-11
-1.15585e-11
-9.02578e-12
-8.75835e-12
-7.17156e-12
-7.02143e-12
-5.79656e-12
-5.68277e-12
-4.73319e-12
-4.64533e-12
-3.91361e-12
-3.8461e-12
-3.28612e-12
-3.23437e-12
-2.80572e-12
-2.76366e-12
-2.39093e-12
-2.35007e-12
-1.9418e-12
-1.89792e-12
-1.46195e-12
-1.4202e-12
-1.06038e-12
-1.01227e-12
-4.45479e-13
-3.97326e-13
-2.42237e-14
-4.31809e-15
-9.73136e-16
-7.02879e-14
3.29364e-05
-2.93537e-05
-2.32356e-06
-9.90431e-07
-1.56529e-07
-7.62106e-08
-1.34314e-08
-7.12488e-09
-2.2568e-09
-2.61961e-09
-1.13376e-09
-8.83012e-10
-8.52575e-10
-7.25129e-10
-7.12075e-10
-6.02228e-10
-5.91441e-10
-4.95178e-10
-4.85861e-10
-4.03512e-10
-3.95616e-10
-3.26607e-10
-3.20033e-10
-2.63066e-10
-2.57664e-10
-2.11136e-10
-2.06737e-10
-1.6902e-10
-1.65462e-10
-1.35049e-10
-1.32184e-10
-1.07751e-10
-1.05453e-10
-8.58754e-11
-8.40351e-11
-6.83784e-11
-6.69075e-11
-5.4404e-11
-5.32299e-11
-4.32562e-11
-4.23201e-11
-3.43733e-11
-3.36279e-11
-2.73038e-11
-2.67112e-11
-2.16866e-11
-2.12191e-11
-1.72468e-11
-1.69352e-11
-1.41879e-11
-2.29825e-11
-1.13065e-11
-8.82939e-12
-8.56783e-12
-7.01598e-12
-6.86917e-12
-5.67131e-12
-5.56003e-12
-4.63147e-12
-4.54556e-12
-3.83017e-12
-3.76418e-12
-3.21692e-12
-3.16636e-12
-2.74777e-12
-2.70672e-12
-2.34318e-12
-2.30329e-12
-1.90449e-12
-1.86157e-12
-1.43468e-12
-1.3938e-12
-1.04162e-12
-9.94419e-13
-4.37691e-13
-3.90389e-13
-2.38006e-14
-4.24279e-15
-9.56162e-16
-6.90305e-14
3.22274e-05
-2.59013e-05
-4.41473e-06
-1.42327e-06
-3.23103e-07
-1.1159e-07
-2.66871e-08
-9.96943e-09
-3.36234e-09
-2.66444e-09
-1.28227e-09
-9.32441e-10
-8.53826e-10
-7.36221e-10
-7.05508e-10
-6.10257e-10
-5.85276e-10
-5.02175e-10
-4.80623e-10
-4.09534e-10
-3.91267e-10
-3.3168e-10
-3.16469e-10
-2.67269e-10
-2.54769e-10
-2.14577e-10
-2.04399e-10
-1.71815e-10
-1.63582e-10
-1.37305e-10
-1.30677e-10
-1.09566e-10
-1.04246e-10
-8.733e-11
-8.30713e-11
-6.95423e-11
-6.61383e-11
-5.53338e-11
-5.26167e-11
-4.39982e-11
-4.18319e-11
-3.49647e-11
-3.32396e-11
-2.77748e-11
-2.64033e-11
-2.20628e-11
-2.09828e-11
-1.75776e-11
-1.68869e-11
-1.50483e-11
-2.11535e-11
-1.19923e-11
-9.16232e-12
-8.51789e-12
-7.14116e-12
-6.79895e-12
-5.76167e-12
-5.50398e-12
-4.7013e-12
-4.50246e-12
-3.88407e-12
-3.73132e-12
-3.25814e-12
-3.14106e-12
-2.7783e-12
-2.68315e-12
-2.36766e-12
-2.2753e-12
-1.93122e-12
-1.83207e-12
-1.46528e-12
-1.37054e-12
-1.06187e-12
-9.5286e-13
-4.79487e-13
-3.7073e-13
-5.752e-14
-1.20771e-14
-2.7681e-15
-6.9638e-14
3.16473e-05
-2.34373e-05
-5.76608e-06
-1.78043e-06
-4.54119e-07
-1.41899e-07
-3.72129e-08
-1.24086e-08
-4.23117e-09
-2.73653e-09
-1.38944e-09
-9.71003e-10
-8.56627e-10
-7.43831e-10
-7.01517e-10
-6.15471e-10
-5.81433e-10
-5.06706e-10
-4.77363e-10
-4.1344e-10
-3.88569e-10
-3.34974e-10
-3.14263e-10
-2.70001e-10
-2.52979e-10
-2.16816e-10
-2.02956e-10
-1.73634e-10
-1.62423e-10
-1.38774e-10
-1.29748e-10
-1.10747e-10
-1.03503e-10
-8.82777e-11
-8.24776e-11
-7.03006e-11
-6.56647e-11
-5.59397e-11
-5.22392e-11
-4.44817e-11
-4.15313e-11
-3.53501e-11
-3.30007e-11
-2.80818e-11
-2.6214e-11
-2.23085e-11
-2.08393e-11
-1.77997e-11
-1.68843e-11
-1.55909e-11
-1.9935e-11
-1.24247e-11
-9.40775e-12
-8.49718e-12
-7.22489e-12
-6.75648e-12
-5.8208e-12
-5.46969e-12
-4.74694e-12
-4.4761e-12
-3.91932e-12
-3.71125e-12
-3.2851e-12
-3.12555e-12
-2.7981e-12
-2.66837e-12
-2.38319e-12
-2.25736e-12
-1.94813e-12
-1.81326e-12
-1.48499e-12
-1.35583e-12
-1.07413e-12
-9.25869e-13
-5.06693e-13
-3.59246e-13
-8.05267e-14
-1.84651e-14
-4.29762e-15
-7.01543e-14
3.12401e-05
-2.18531e-05
-6.56996e-06
-2.03119e-06
-5.44554e-07
-1.63898e-07
-4.45397e-08
-1.41812e-08
-4.83214e-09
-2.80252e-09
-1.45939e-09
-9.97374e-10
-8.59349e-10
-7.48611e-10
-6.99267e-10
-6.18597e-10
-5.7921e-10
-5.09416e-10
-4.7548e-10
-4.15779e-10
-3.87015e-10
-3.36949e-10
-3.12995e-10
-2.7164e-10
-2.51952e-10
-2.1816e-10
-2.02129e-10
-1.74727e-10
-1.61758e-10
-1.39657e-10
-1.29216e-10
-1.11457e-10
-1.03078e-10
-8.88471e-11
-8.21381e-11
-7.07563e-11
-6.53939e-11
-5.63038e-11
-5.20234e-11
-4.47723e-11
-4.13595e-11
-3.55819e-11
-3.28641e-11
-2.82663e-11
-2.61059e-11
-2.24564e-11
-2.07584e-11
-1.79366e-11
-1.68966e-11
-1.59078e-11
-1.91905e-11
-1.26773e-11
-9.56879e-12
-8.49081e-12
-7.27638e-12
-6.73262e-12
-5.85647e-12
-5.45021e-12
-4.77444e-12
-4.46112e-12
-3.94056e-12
-3.69987e-12
-3.30134e-12
-3.11673e-12
-2.80996e-12
-2.65979e-12
-2.39233e-12
-2.24673e-12
-1.95805e-12
-1.80217e-12
-1.49671e-12
-1.3472e-12
-1.08104e-12
-9.09704e-13
-5.23023e-13
-3.53008e-13
-9.48639e-14
-2.29356e-14
-5.39997e-15
-7.05288e-14
3.10308e-05
-2.10783e-05
-6.94402e-06
-2.15984e-06
-5.90728e-07
-1.75435e-07
-4.83018e-08
-1.51116e-08
-5.13968e-09
-2.84082e-09
-1.49401e-09
-1.01075e-09
-8.6096e-10
-7.50921e-10
-6.98258e-10
-6.20061e-10
-5.78194e-10
-5.10683e-10
-4.74621e-10
-4.16873e-10
-3.86307e-10
-3.37874e-10
-3.12418e-10
-2.72409e-10
-2.51486e-10
-2.18791e-10
-2.01753e-10
-1.75239e-10
-1.61457e-10
-1.40071e-10
-1.28974e-10
-1.1179e-10
-1.02885e-10
-8.91144e-11
-8.19841e-11
-7.09702e-11
-6.52711e-11
-5.64747e-11
-5.19256e-11
-4.49087e-11
-4.12817e-11
-3.56906e-11
-3.28022e-11
-2.8353e-11
-2.6057e-11
-2.25259e-11
-2.07221e-11
-1.80019e-11
-1.69066e-11
-1.60536e-11
-1.88376e-11
-1.27935e-11
-9.64844e-12
-8.48977e-12
-7.30091e-12
-6.72195e-12
-5.87325e-12
-5.44141e-12
-4.78737e-12
-4.45437e-12
-3.95055e-12
-3.69473e-12
-3.30898e-12
-3.11274e-12
-2.81552e-12
-2.65585e-12
-2.39655e-12
-2.2418e-12
-1.96263e-12
-1.79703e-12
-1.50217e-12
-1.34322e-12
-1.08414e-12
-9.0214e-13
-5.30676e-13
-3.50289e-13
-1.01749e-13
-2.52283e-14
-5.97613e-15
-7.07255e-14
3.10308e-05
-2.10783e-05
-6.94402e-06
-2.15983e-06
-5.90726e-07
-1.75434e-07
-4.83013e-08
-1.51114e-08
-5.13959e-09
-2.84079e-09
-1.494e-09
-1.01075e-09
-8.60959e-10
-7.50921e-10
-6.98258e-10
-6.20061e-10
-5.78194e-10
-5.10683e-10
-4.74621e-10
-4.16873e-10
-3.86307e-10
-3.37874e-10
-3.12418e-10
-2.72409e-10
-2.51486e-10
-2.18791e-10
-2.01753e-10
-1.75239e-10
-1.61457e-10
-1.40071e-10
-1.28974e-10
-1.1179e-10
-1.02885e-10
-8.91144e-11
-8.19842e-11
-7.09702e-11
-6.52711e-11
-5.64747e-11
-5.19256e-11
-4.49087e-11
-4.12817e-11
-3.56906e-11
-3.28023e-11
-2.8353e-11
-2.6057e-11
-2.25259e-11
-2.07221e-11
-1.80019e-11
-1.69066e-11
-1.60536e-11
-1.88377e-11
-1.27935e-11
-9.64844e-12
-8.48977e-12
-7.30091e-12
-6.72195e-12
-5.87325e-12
-5.44141e-12
-4.78737e-12
-4.45437e-12
-3.95055e-12
-3.69473e-12
-3.30898e-12
-3.11274e-12
-2.81552e-12
-2.65585e-12
-2.39655e-12
-2.2418e-12
-1.96263e-12
-1.79703e-12
-1.50217e-12
-1.34322e-12
-1.08414e-12
-9.0214e-13
-5.30676e-13
-3.50289e-13
-1.01748e-13
-2.52282e-14
-5.97608e-15
-7.07254e-14
3.12401e-05
-2.18531e-05
-6.56996e-06
-2.03119e-06
-5.44549e-07
-1.63896e-07
-4.45382e-08
-1.41806e-08
-4.8319e-09
-2.80243e-09
-1.45936e-09
-9.97365e-10
-8.59347e-10
-7.48611e-10
-6.99267e-10
-6.18597e-10
-5.7921e-10
-5.09416e-10
-4.75481e-10
-4.15779e-10
-3.87015e-10
-3.36949e-10
-3.12995e-10
-2.71641e-10
-2.51952e-10
-2.1816e-10
-2.02129e-10
-1.74727e-10
-1.61758e-10
-1.39657e-10
-1.29216e-10
-1.11457e-10
-1.03078e-10
-8.88472e-11
-8.21381e-11
-7.07564e-11
-6.53939e-11
-5.63039e-11
-5.20234e-11
-4.47723e-11
-4.13596e-11
-3.55819e-11
-3.28641e-11
-2.82664e-11
-2.61059e-11
-2.24564e-11
-2.07584e-11
-1.79366e-11
-1.68966e-11
-1.59078e-11
-1.91905e-11
-1.26773e-11
-9.56879e-12
-8.49081e-12
-7.27638e-12
-6.73262e-12
-5.85647e-12
-5.45021e-12
-4.77444e-12
-4.46112e-12
-3.94057e-12
-3.69987e-12
-3.30135e-12
-3.11673e-12
-2.80997e-12
-2.65979e-12
-2.39233e-12
-2.24674e-12
-1.95805e-12
-1.80217e-12
-1.49671e-12
-1.3472e-12
-1.08104e-12
-9.09704e-13
-5.23022e-13
-3.53007e-13
-9.48632e-14
-2.29351e-14
-5.39984e-15
-7.05285e-14
3.16473e-05
-2.34373e-05
-5.76608e-06
-1.78043e-06
-4.54113e-07
-1.41895e-07
-3.7211e-08
-1.24078e-08
-4.23085e-09
-2.73642e-09
-1.3894e-09
-9.70992e-10
-8.56624e-10
-7.43831e-10
-7.01518e-10
-6.15471e-10
-5.81433e-10
-5.06707e-10
-4.77363e-10
-4.1344e-10
-3.88569e-10
-3.34974e-10
-3.14263e-10
-2.70001e-10
-2.52979e-10
-2.16816e-10
-2.02956e-10
-1.73634e-10
-1.62423e-10
-1.38775e-10
-1.29748e-10
-1.10747e-10
-1.03503e-10
-8.82777e-11
-8.24777e-11
-7.03006e-11
-6.56648e-11
-5.59397e-11
-5.22393e-11
-4.44817e-11
-4.15314e-11
-3.53502e-11
-3.30007e-11
-2.80818e-11
-2.6214e-11
-2.23085e-11
-2.08393e-11
-1.77997e-11
-1.68843e-11
-1.55909e-11
-1.9935e-11
-1.24247e-11
-9.40775e-12
-8.49718e-12
-7.2249e-12
-6.75649e-12
-5.8208e-12
-5.4697e-12
-4.74694e-12
-4.4761e-12
-3.91932e-12
-3.71126e-12
-3.2851e-12
-3.12556e-12
-2.79811e-12
-2.66838e-12
-2.3832e-12
-2.25736e-12
-1.94814e-12
-1.81326e-12
-1.48499e-12
-1.35583e-12
-1.07413e-12
-9.25868e-13
-5.06692e-13
-3.59245e-13
-8.05258e-14
-1.84645e-14
-4.29746e-15
-7.01539e-14
3.22275e-05
-2.59014e-05
-4.41473e-06
-1.42326e-06
-3.23098e-07
-1.11587e-07
-2.66855e-08
-9.96873e-09
-3.36207e-09
-2.66435e-09
-1.28224e-09
-9.32432e-10
-8.53824e-10
-7.36221e-10
-7.05509e-10
-6.10258e-10
-5.85277e-10
-5.02176e-10
-4.80623e-10
-4.09534e-10
-3.91267e-10
-3.3168e-10
-3.1647e-10
-2.67269e-10