/*--------------------------------*- C++ -*----------------------------------*\
| =========                 |                                                 |
| \\      /  F ield         | OpenFOAM: The Open Source CFD Toolbox           |
|  \\    /   O peration     | Version:  5.x                                   |
|   \\  /    A nd           | Web:      www.OpenFOAM.org                      |
|    \\/     M anipulation  |                                                 |
\*---------------------------------------------------------------------------*/
FoamFile
{
    version     2.0;
    format      ascii;
    class       volScalarField;
    location    "4.2";
    object      gradTx;
}
// * * * * * * * * * * * * * * * * * * * * * * * * * * * * * * * * * * * * * //

dimensions      [0 -1 0 1 0 0 0];

internalField   nonuniform List<scalar> 
6300
(
180.937
181.815
183.553
186.109
189.423
193.405
197.935
202.859
207.988
213.098
217.934
222.222
225.688
228.072
229.158
180.056
180.953
182.73
185.35
188.753
192.854
197.537
202.651
208.005
213.368
218.478
223.042
226.765
229.366
230.608
178.275
179.209
181.062
183.804
187.381
191.718
196.706
202.2
208.008
213.891
219.563
224.701
228.962
232.017
233.582
175.557
176.543
178.504
181.418
185.247
189.927
195.367
201.431
207.932
214.62
221.179
227.232
232.362
236.153
238.241
171.851
172.899
174.99
178.116
182.257
187.375
193.401
200.223
207.667
215.476
223.298
230.683
237.099
241.989
244.853
167.095
168.208
170.439
173.797
178.288
183.911
190.636
198.391
207.033
216.316
225.852
235.098
243.357
249.848
253.836
161.223
162.396
164.757
168.34
173.187
179.341
186.837
195.668
205.757
216.897
228.694
240.496
251.38
260.207
265.834
154.177
155.392
157.852
161.618
166.774
173.429
181.699
191.685
203.425
216.821
231.525
246.811
261.456
273.761
281.851
145.912
147.14
149.64
153.501
158.859
165.898
174.843
185.945
199.436
215.432
233.772
253.762
273.867
291.529
303.503
136.418
137.615
140.065
143.886
149.262
156.457
165.826
177.815
192.938
211.695
234.367
260.596
288.716
314.98
333.536
125.723
126.833
129.118
132.713
137.842
144.841
154.188
166.547
182.803
204.042
231.4
265.537
305.415
346.137
376.936
113.917
114.875
116.857
120.003
124.552
130.874
139.534
151.382
167.68
190.267
221.65
264.733
321.268
387.211
443.671
101.151
101.891
103.429
105.889
109.486
114.567
121.692
131.763
146.267
167.692
200.198
250.473
327.706
437.762
556.306
87.642
88.108
89.0782
90.6369
92.9328
96.2149
100.9
107.708
117.932
134.033
160.972
209.251
301.319
479.821
774.972
73.6655
73.8187
74.1368
74.6455
75.392
76.4577
77.985
80.2345
83.7166
89.5334
100.404
124.239
188.492
405.227
1294.33
228.937
227.566
225.122
221.633
217.155
211.769
205.57
198.658
191.135
183.096
174.629
165.812
156.714
147.394
137.905
128.297
118.61
108.887
99.1642
89.4778
79.8608
70.344
60.9554
51.7198
42.6587
33.79
25.1285
16.685
8.46757
0.480813
-7.27324
-14.795
-22.0866
-29.1518
-35.9951
-42.6213
-49.0349
-55.2401
-61.2404
-67.0384
-72.6366
-78.0372
-83.2428
-88.2568
-93.0836
-97.7291
-102.2
-106.506
-110.654
-114.652
-118.51
-122.231
-125.822
-129.283
-132.614
-135.812
-138.876
-141.799
-144.579
-147.213
-149.698
-152.032
-154.217
-156.249
-158.127
-159.848
-161.402
-162.778
-163.961
-164.931
-165.664
-166.134
-166.313
-166.176
-165.695
-164.85
-163.622
-161.998
-159.971
-157.539
-154.707
-151.488
-147.899
-143.966
-139.724
-135.212
-130.481
-125.586
-120.588
-115.55
230.466
229.108
226.625
223.053
218.46
212.938
206.593
199.536
191.875
183.71
175.13
166.215
157.03
147.634
138.077
128.406
118.662
108.884
99.1104
89.3762
79.715
70.1582
60.734
51.4675
42.3805
33.4911
24.8136
16.3591
8.13486
0.145328
-7.6081
-15.1265
-22.4128
-29.4715
-36.3078
-42.9272
-49.3348
-55.535
-61.5311
-67.3258
-72.9207
-78.3175
-83.5182
-88.5255
-93.3438
-97.979
-102.439
-106.732
-110.867
-114.855
-118.704
-122.42
-126.007
-129.469
-132.803
-136.006
-139.075
-142.004
-144.789
-147.425
-149.912
-152.248
-154.433
-156.469
-158.354
-160.085
-161.655
-163.054
-164.266
-165.27
-166.04
-166.549
-166.768
-166.667
-166.218
-165.399
-164.19
-162.576
-160.551
-158.112
-155.264
-152.017
-148.391
-144.41
-140.108
-135.526
-130.715
-125.732
-120.642
-115.511
233.604
232.265
229.693
225.94
221.098
215.287
208.638
201.28
193.337
184.917
176.113
167.002
157.648
148.102
138.412
128.618
118.759
108.874
98.9978
89.1677
79.4177
69.78
60.2841
50.9557
41.8169
32.8859
24.1771
15.7007
7.46372
-0.530542
-8.28176
-15.7923
-23.0668
-30.1113
-36.9327
-43.5379
-49.9331
-56.1233
-62.1117
-67.9002
-73.4895
-78.8796
-84.0711
-89.0657
-93.867
-98.481
-102.916
-107.183
-111.292
-115.257
-119.087
-122.791
-126.373
-129.837
-133.178
-136.393
-139.474
-142.415
-145.21
-147.852
-150.341
-152.678
-154.864
-156.904
-158.799
-160.551
-162.154
-163.598
-164.869
-165.942
-166.79
-167.381
-167.68
-167.655
-167.273
-166.507
-165.337
-163.745
-161.724
-159.271
-156.39
-153.092
-149.392
-145.314
-140.893
-136.169
-131.194
-126.031
-120.75
-115.428
238.519
237.196
234.458
230.39
225.13
218.842
211.698
203.864
195.482
186.675
177.536
168.138
158.537
148.777
138.894
128.921
118.894
108.847
98.8177
88.8422
78.957
69.1965
59.5918
50.1697
40.9531
31.9602
23.205
14.6971
6.44253
-1.55679
-9.30224
-16.7983
-24.0521
-31.0724
-37.8689
-44.4509
-50.8265
-57.0017
-62.9797
-68.7612
-74.3445
-79.7272
-84.907
-89.8835
-94.659
-99.2396
-103.635
-107.859
-111.926
-115.852
-119.651
-123.335
-126.911
-130.378
-133.734
-136.97
-140.075
-143.037
-145.847
-148.498
-150.989
-153.322
-155.504
-157.544
-159.45
-161.228
-162.878
-164.392
-165.753
-166.936
-167.908
-168.629
-169.058
-169.154
-168.877
-168.196
-167.086
-165.53
-163.517
-161.045
-158.116
-154.741
-150.932
-146.712
-142.111
-137.169
-131.941
-126.497
-120.917
-115.292
245.493
244.16
241.133
236.555
230.639
223.625
215.751
207.231
198.239
188.906
179.328
169.564
159.655
149.626
139.501
129.302
119.055
108.795
98.558
88.3848
78.3154
68.3876
58.6351
49.0868
39.7662
30.6915
21.8759
13.3283
5.05326
-2.94898
-10.6821
-18.1534
-25.3737
-32.3559
-39.1138
-45.6609
-52.0083
-58.1638
-64.1305
-69.9069
-75.4879
-80.8663
-86.0351
-90.99
-95.7309
-100.264
-104.601
-108.76
-112.761
-116.628
-120.381
-124.035
-127.601
-131.079
-134.462
-137.734
-140.879
-143.876
-146.711
-149.374
-151.862
-154.182
-156.347
-158.375
-160.284
-162.088
-163.795
-165.402
-166.891
-168.233
-169.384
-170.297
-170.915
-171.185
-171.061
-170.501
-169.477
-167.969
-165.968
-163.472
-160.484
-157.011
-153.063
-148.657
-143.816
-138.578
-132.999
-127.155
-121.147
-115.085
254.97
253.562
250.037
244.645
237.726
229.642
220.732
211.276
201.482
191.491
181.383
171.196
160.94
150.613
140.213
129.747
119.234
108.706
98.205
87.7767
77.4686
67.3248
57.3833
47.6751
38.2244
29.0487
20.1602
11.5666
3.27063
-4.72911
-12.439
-19.8702
-27.0384
-33.9623
-40.6623
-47.1581
-53.4663
-59.5974
-65.5548
-71.3335
-76.9225
-82.3066
-87.4707
-92.4038
-97.1015
-101.569
-105.823
-109.886
-113.79
-117.567
-121.25
-124.862
-128.418
-131.917
-135.346
-138.682
-141.893
-144.948
-147.822
-150.498
-152.975
-155.263
-157.386
-159.376
-161.266
-163.086
-164.856
-166.579
-168.24
-169.8
-171.204
-172.385
-173.268
-173.784
-173.868
-173.472
-172.561
-171.116
-169.13
-166.605
-163.547
-159.961
-155.852
-151.226
-146.092
-140.477
-134.434
-128.05
-121.45
-114.783
267.635
266.009
261.626
254.931
246.485
236.847
226.498
215.803
205.006
194.239
183.55
172.926
162.326
151.703
141.018
130.258
119.433
108.578
97.7451
86.9938
76.3841
65.9696
55.7944
45.8918
36.2856
26.9915
18.0195
9.37552
1.06107
-6.92695
-14.5975
-21.9661
-29.0548
-35.8909
-42.5046
-48.9255
-55.1789
-61.2811
-67.2358
-73.0331
-78.6515
-84.0629
-89.2385
-94.1556
-98.8025
-103.183
-107.317
-111.24
-114.999
-118.642
-122.22
-125.769
-129.314
-132.853
-136.365
-139.807
-143.13
-146.28
-149.215
-151.909
-154.358
-156.58
-158.616
-160.518
-162.346
-164.154
-165.982
-167.846
-169.731
-171.589
-173.343
-174.898
-176.15
-177.001
-177.366
-177.182
-176.412
-175.039
-173.066
-170.504
-167.367
-163.662
-159.384
-154.522
-149.058
-142.99
-136.357
-129.254
-121.846
-114.345
284.564
282.425
276.539
267.734
256.958
245.073
232.758
220.474
208.483
196.875
185.62
174.619
163.744
152.877
141.931
130.861
119.673
108.417
97.1659
86.0056
75.017
64.2686
53.8118
43.681
33.8966
24.4696
15.406
6.70942
-1.61894
-9.58226
-17.1909
-24.465
-31.435
-38.1399
-44.6244
-50.934
-57.109
-63.1766
-69.143
-74.9898
-80.6782
-86.1581
-91.378
-96.2956
-100.886
-105.15
-109.115
-112.832
-116.371
-119.811
-123.228
-126.683
-130.216
-133.828
-137.481
-141.104
-144.613
-147.92
-150.954
-153.672
-156.065
-158.165
-160.035
-161.766
-163.453
-165.191
-167.053
-169.079
-171.259
-173.526
-175.768
-177.844
-179.607
-180.914
-181.651
-181.735
-181.127
-179.824
-177.847
-175.23
-172.003
-168.182
-163.757
-158.683
-152.89
-146.316
-138.954
-130.898
-122.371
-113.705
307.51
304.23
295.65
283.373
269.023
253.916
238.968
224.722
211.406
198.999
187.323
176.126
165.148
154.165
143.018
131.63
120.011
108.246
96.4546
84.7685
73.3028
62.1466
51.3587
40.9705
30.9922
21.4237
12.2634
3.51267
-4.82497
-12.7485
-20.2663
-27.402
-34.1968
-40.7062
-46.9958
-53.136
-59.1935
-65.2175
-71.2219
-77.174
-83.0048
-88.6268
-93.9519
-98.9055
-103.44
-107.548
-111.267
-114.678
-117.886
-121.014
-124.178
-127.485
-131.004
-134.743
-138.637
-142.566
-146.385
-149.951
-153.147
-155.9
-158.194
-160.077
-161.656
-163.073
-164.485
-166.046
-167.887
-170.09
-172.658
-175.495
-178.428
-181.241
-183.716
-185.648
-186.872
-187.282
-186.841
-185.575
-183.547
-180.83
-177.491
-173.571
-169.062
-163.875
-157.842
-150.774
-142.549
-133.215
-123.094
-112.746
339.482
333.663
320.083
301.992
282.173
262.525
244.163
227.626
213.015
200.068
188.333
177.314
166.556
155.687
144.45
132.728
120.559
108.109
95.5904
83.2124
71.1416
59.493
48.3292
37.6687
27.497
17.7893
8.53064
-0.279367
-8.62758
-16.4994
-23.8918
-30.8301
-37.3696
-43.5888
-49.5821
-55.4568
-61.3259
-67.2863
-73.3756
-79.5324
-85.6313
-91.5225
-97.06
-102.118
-106.608
-110.505
-113.864
-116.812
-119.518
-122.161
-124.923
-127.981
-131.472
-135.433
-139.743
-144.187
-148.519
-152.512
-155.977
-158.789
-160.912
-162.425
-163.507
-164.385
-165.302
-166.497
-168.196
-170.573
-173.669
-177.326
-181.255
-185.124
-188.604
-191.398
-193.263
-194.05
-193.739
-192.421
-190.236
-187.324
-183.813
-179.805
-175.338
-170.284
-164.283
-156.895
-147.739
-136.664
-124.141
-111.235
386.047
374.268
351.005
323.097
295.074
269.277
246.726
227.754
212.225
199.388
188.309
178.124
168.122
157.737
146.577
134.466
121.512
108.069
94.522
81.2127
68.3709
56.1403
44.5739
33.6621
23.3328
13.508
4.15129
-4.73673
-13.1165
-20.9406
-28.1714
-34.8322
-41.0037
-46.7966
-52.3389
-57.7854
-63.3263
-69.1692
-75.4315
-81.9736
-88.5564
-94.9266
-100.858
-106.145
-110.63
-114.237
-117.049
-119.296
-121.239
-123.135
-125.242
-127.852
-131.261
-135.618
-140.656
-145.966
-151.139
-155.831
-159.745
-162.668
-164.508
-165.392
-165.648
-165.64
-165.716
-166.221
-167.528
-170.016
-173.871
-178.761
-184.168
-189.564
-194.479
-198.481
-201.203
-202.397
-202.084
-200.514
-197.967
-194.677
-190.846
-186.698
-182.454
-178.055
-172.719
-165.557
-155.688
-142.196
-125.738
-108.658
458.521
431.406
388.609
344.362
304.769
271.354
244.134
222.918
207.557
196.174
186.993
178.669
170.236
160.9
150.071
137.418
123.166
108.175
93.1106
78.5388
64.7192
51.8302
39.8751
28.8162
18.4418
8.55192
-0.903224
-9.92625
-18.4058
-26.2361
-33.2719
-39.5391
-45.1826
-50.3653
-55.2332
-59.9777
-64.8916
-70.4475
-77.0842
-84.3553
-91.7872
-98.9613
-105.584
-111.327
-115.917
-119.111
-121.047
-122.217
-123.028
-123.802
-124.836
-126.57
-129.687
-134.819
-141.176
-147.941
-154.453
-160.267
-164.94
-168.107
-169.477
-169.261
-168.169
-166.771
-165.513
-164.786
-165.159
-167.489
-172.578
-179.451
-187.096
-194.691
-201.667
-207.405
-211.339
-212.913
-212.234
-210.01
-206.767
-202.805
-198.331
-193.726
-189.792
-187.171
-183.78
-178.115
-168.853
-151.997
-128.228
-103.738
582.701
511.121
428.294
358.919
305.561
264.504
232.891
209.648
197.156
189.785
184.439
179.37
173.645
166.212
156.187
142.671
125.881
108.387
90.9877
74.7802
59.726
46.1744
33.885
22.9839
12.8524
2.96946
-6.58029
-15.8986
-24.6301
-32.6756
-39.4791
-45.1438
-50.0248
-54.3872
-58.305
-61.9255
-65.532
-70.1689
-77.8228
-86.5049
-95.3887
-103.789
-111.576
-118.17
-123.212
-125.796
-126.147
-125.654
-124.869
-124.094
-123.42
-123.297
-125.21
-132.255
-141.105
-150.279
-158.77
-166.347
-172.299
-176.134
-176.726
-174.391
-171.131
-167.697
-164.542
-161.767
-159.968
-160.985
-168.716
-179.025
-190.091
-200.709
-210.635
-218.923
-224.869
-226.671
-224.605
-220.971
-216.596
-211.669
-206.002
-199.783
-195.237
-197.392
-198.11
-195.849
-192.951
-171.749
-131.752
-93.0244
824.954
607.027
448.603
350.409
288.635
244.054
209.589
180.895
179.379
180.476
181.483
181.013
179.512
175.252
167.329
152.638
129.608
108.46
87.1472
69.36
52.5682
38.7002
25.8952
16.0429
6.90491
-3.0931
-12.5909
-22.7159
-31.8425
-40.9036
-47.3261
-51.877
-55.6135
-59.0489
-61.8044
-63.8931
-64.6884
-65.5452
-77.0803
-88.3632
-99.6855
-109.5
-119.283
-127.245
-134.047
-135.693
-132.464
-129.507
-126.698
-124.239
-121.208
-117.092
-113.34
-127.092
-140.568
-153.6
-164.4
-174.764
-182.707
-188.83
-188.187
-180.851
-174.341
-168.218
-163.025
-157.339
-150.72
-144.812
-161.141
-177.507
-193.729
-207.722
-221.956
-233.812
-244.364
-245.996
-239.227
-232.999
-227.214
-221.597
-214.463
-203.426
-191.031
-209.677
-216.727
-214.497
-243.403
-218.562
-133.447
-66.774
1374.35
617.242
382.177
289.449
246.948
209.031
177.973
113.004
157.836
171.294
180.652
184.139
189.346
189.565
188.213
174.611
130.621
108.771
78.228
62.5052
41.1994
29.6946
13.6531
8.07268
2.1956
-9.87622
-17.6983
-30.9709
-39.1488
-52.9313
-57.8678
-59.7828
-61.6352
-64.6896
-66.2635
-67.7227
-63.7555
-45.5445
-76.7
-90.1644
-106.153
-115.254
-129.614
-137.99
-152.306
-152.609
-138.389
-133.147
-128.02
-125.207
-120.556
-110.365
-76.2612
-122.326
-140.667
-160.135
-170.659
-186.663
-195.736
-211.265
-209.286
-186.121
-176.992
-167.398
-162.216
-154.254
-140.445
-96.6168
-153.509
-176.195
-200.572
-214.386
-236.697
-250.575
-276.701
-277.414
-253.069
-244.383
-237.587
-233.703
-228.543
-209.019
-142.124
-238.657
-248.704
-188.304
-371.244
-352.167
-108.582
1.46449
-110.044
-104.166
-98.5205
-93.1904
-88.2402
-83.7163
-79.6483
-76.0515
-72.9304
-70.2816
-68.0971
-66.3667
-65.0798
-64.2275
-63.8031
-109.907
-103.931
-98.2034
-92.8088
-87.8124
-83.259
-79.1756
-75.5744
-72.4567
-69.816
-67.6419
-65.9219
-64.6442
-63.7984
-63.3775
-109.622
-103.446
-97.5514
-92.0275
-86.9399
-82.33
-78.2191
-74.6125
-71.5046
-68.8827
-66.7312
-65.0338
-63.7753
-62.9435
-62.5298
-109.166
-102.679
-96.5267
-90.8082
-85.588
-80.9007
-76.757
-73.1507
-70.065
-67.4778
-65.3654
-63.7054
-62.4785
-61.6693
-61.2674
-108.503
-101.574
-95.0667
-89.089
-83.7016
-78.9262
-74.7561
-71.1669
-68.1257
-65.5968
-63.5459
-61.943
-60.7629
-59.9868
-59.6019
-107.571
-100.046
-93.0753
-86.7778
-81.2019
-76.3451
-72.1727
-68.6339
-65.6729
-63.2365
-61.2775
-59.7564
-58.6422
-57.9119
-57.5505
-106.276
-97.9606
-90.4095
-83.7433
-77.9816
-73.0783
-68.9546
-65.5217
-62.6942
-60.3977
-58.5699
-57.162
-56.1366
-55.4672
-55.1366
-104.459
-95.1098
-86.8573
-79.8031
-73.9015
-69.0307
-65.0446
-61.8027
-59.1836
-57.0888
-55.4416
-54.184
-53.274
-52.6825
-52.3911
-101.857
-91.1601
-82.1051
-74.7087
-68.7893
-64.0971
-60.3892
-57.4599
-55.1477
-53.3315
-51.9225
-50.8574
-50.092
-49.5967
-49.3534
-97.9881
-85.5672
-75.6927
-68.136
-62.4484
-58.1782
-54.9542
-52.4988
-50.6149
-49.1659
-48.0586
-47.2302
-46.6391
-46.2581
-46.0714
-91.9383
-77.4264
-66.961
-59.6926
-54.6889
-51.2121
-48.7494
-46.9654
-45.6463
-44.6576
-43.9149
-43.365
-42.975
-42.7244
-42.6018
-81.8537
-65.2381
-55.0313
-48.9837
-45.4014
-43.2308
-41.8652
-40.9662
-40.3464
-39.9026
-39.5774
-39.3393
-39.1706
-39.0621
-39.0088
-63.8204
-46.6391
-38.9413
-35.8084
-34.7014
-34.4437
-34.5138
-34.6869
-34.8699
-35.0282
-35.1523
-35.2433
-35.3054
-35.3437
-35.3619
-29.4406
-18.556
-18.2858
-20.6065
-23.1514
-25.3282
-27.0589
-28.397
-29.4175
-30.1873
-30.7598
-31.1753
-31.4635
-31.6449
-31.7324
39.0744
20.1418
4.96114
-5.18004
-11.9689
-16.6585
-19.996
-22.4242
-24.2152
-25.5432
-26.5236
-27.2342
-27.7278
-28.0393
-28.19
60.7119
60.5678
60.2642
59.7675
59.0191
57.9223
56.3157
53.9195
50.2111
44.1074
32.9993
9.25831
-54.7106
-279.494
-1270.86
49.0349
48.6312
47.7859
46.4158
44.3757
41.4249
37.1639
30.9069
21.4139
6.28526
-19.5059
-67.3335
-164.128
-369.617
-752.854
37.6373
37.0005
35.6712
33.5286
30.3638
25.8367
19.3975
10.1407
-3.47039
-24.1331
-56.7083
-109.92
-198.061
-336.304
-500.98
26.6813
25.8497
24.1204
21.3505
17.2972
11.5758
3.58713
-7.60241
-23.4583
-46.2795
-79.5804
-128.25
-197.198
-284.633
-363.46
16.3019
15.3217
13.2917
10.063
5.38855
-1.11133
-10.0009
-22.1055
-38.6094
-61.148
-91.7795
-132.498
-183.496
-238.938
-280.679
6.60246
5.52217
3.2946
-0.220974
-5.25297
-12.1393
-21.3569
-33.5541
-49.5701
-70.3964
-96.9728
-129.607
-166.708
-202.756
-226.884
-2.34734
-3.48123
-5.80854
-9.45238
-14.6071
-21.5487
-30.644
-42.351
-57.1907
-75.6517
-97.9588
-123.613
-150.651
-174.852
-189.842
-10.5102
-11.6564
-13.9979
-17.635
-22.7208
-29.4628
-38.1177
-48.9728
-62.2969
-78.236
-96.62
-116.658
-136.565
-153.342
-163.21
-17.8777
-19.0018
-21.288
-24.8119
-29.6847
-36.0486
-44.0635
-53.88
-65.5872
-79.1226
-94.1324
-109.793
-124.651
-136.629
-143.429
-24.4649
-25.5407
-27.7191
-31.0523
-35.6134
-41.488
-48.7582
-57.4742
-67.6081
-78.9851
-91.1927
-103.486
-114.736
-123.511
-128.371
-30.3053
-31.3141
-33.3486
-36.4403
-40.6301
-45.9585
-52.4491
-60.0838
-68.7657
-78.2708
-88.1934
-97.9022
-106.54
-113.112
-116.686
-35.4456
-36.3755
-38.2441
-41.066
-44.8564
-49.6219
-55.3455
-61.9662
-69.3516
-77.2666
-85.3424
-93.062
-99.779
-104.793
-107.484
-39.9403
-40.7854
-42.4778
-45.0192
-48.4058
-52.6202
-57.6191
-63.3175
-69.5698
-76.1504
-82.7386
-88.918
-94.2006
-98.0859
-100.151
-43.8483
-44.6072
-46.1222
-48.3856
-51.3806
-55.0739
-59.4069
-64.284
-69.56
-75.029
-80.4187
-85.3964
-89.5922
-92.6428
-94.2522
-47.2295
-47.904
-49.2469
-51.2442
-53.8705
-57.0834
-60.817
-64.9736
-69.4162
-73.9625
-78.3847
-82.4177
-85.7788
-88.2005
-89.4704
-50.1425
-50.7369
-51.9174
-53.6662
-55.953
-58.7313
-61.9333
-65.4646
-69.2003
-72.9821
-76.621
-79.9054
-82.6177
-84.5578
-85.5704
-52.6428
-53.1628
-54.1933
-55.7146
-57.6944
-60.0852
-62.8209
-65.8138
-68.9523
-72.101
-75.1033
-77.7903
-79.9928
-81.559
-82.3734
-54.7822
-55.2342
-56.1286
-57.4448
-59.1505
-61.1995
-63.5298
-66.0618
-68.6974
-71.3213
-73.8047
-76.0116
-77.8096
-79.0822
-79.7419
-56.6077
-56.9987
-57.7709
-58.9045
-60.3682
-62.1186
-64.0988
-66.2378
-68.4505
-70.6393
-72.6979
-74.5167
-75.9912
-77.0308
-77.5684
-58.1617
-58.4984
-59.1625
-60.135
-61.3868
-62.8781
-64.5576
-66.3627
-68.2201
-70.0476
-71.7575
-73.261
-74.4748
-75.3279
-75.7682
-59.482
-59.7709
-60.3399
-61.1716
-62.2393
-63.5069
-64.9291
-66.4512
-68.0105
-69.5377
-70.9603
-72.2063
-73.2089
-73.9116
-74.2738
-60.6018
-60.8488
-61.335
-62.0443
-62.9528
-64.0285
-65.2313
-66.514
-67.8231
-69.1004
-70.2859
-71.3207
-72.151
-72.7318
-73.0307
-61.5501
-61.7608
-62.1751
-62.7787
-63.5504
-64.4617
-65.478
-66.5585
-67.6577
-68.7268
-69.716
-70.5771
-71.2664
-71.7477
-71.9951
-62.3521
-62.5314
-62.8838
-63.3965
-64.0509
-64.8221
-65.6802
-66.59
-67.5131
-68.4086
-69.235
-69.9528
-70.5262
-70.926
-71.1313
-63.0295
-63.1819
-63.4811
-63.916
-64.4702
-65.1223
-65.8463
-66.6124
-67.3878
-68.1383
-68.8295
-69.4287
-69.9065
-70.2393
-70.4101
-63.6012
-63.7305
-63.9842
-64.3526
-64.8216
-65.3726
-65.9832
-66.6282
-67.2798
-67.9093
-68.4879
-68.9887
-69.3876
-69.6651
-69.8074
-64.0831
-64.1927
-64.4076
-64.7195
-65.1161
-65.5814
-66.0964
-66.6394
-67.1872
-67.7155
-68.2004
-68.6195
-68.953
-69.1847
-69.3035
-64.489
-64.5818
-64.7637
-65.0276
-65.3628
-65.7557
-66.19
-66.6474
-67.1081
-67.5518
-67.9586
-68.3098
-68.5889
-68.7828
-68.8821
-64.8304
-64.909
-65.063
-65.2861
-65.5695
-65.9012
-66.2676
-66.653
-67.0408
-67.4138
-67.7554
-68.05
-68.284
-68.4465
-68.5297
-65.1173
-65.1838
-65.3142
-65.503
-65.7425
-66.0228
-66.332
-66.657
-66.9836
-67.2976
-67.5849
-67.8324
-68.0289
-68.1652
-68.235
-65.358
-65.4144
-65.5247
-65.6846
-65.8872
-66.1242
-66.3854
-66.6598
-66.9353
-67.2
-67.4419
-67.6502
-67.8155
-67.9301
-67.9887
-65.5596
-65.6074
-65.701
-65.8364
-66.0081
-66.2088
-66.4298
-66.6618
-66.8946
-67.1181
-67.3222
-67.4979
-67.6372
-67.7338
-67.7832
-65.7281
-65.7686
-65.8481
-65.9632
-66.1089
-66.2791
-66.4666
-66.6632
-66.8604
-67.0496
-67.2223
-67.3709
-67.4886
-67.5703
-67.612
-65.8683
-65.9029
-65.9706
-66.0686
-66.1927
-66.3376
-66.497
-66.6642
-66.8318
-66.9925
-67.1392
-67.2653
-67.3652
-67.4344
-67.4698
-65.9845
-66.0141
-66.0721
-66.1559
-66.262
-66.3858
-66.5221
-66.6649
-66.808
-66.9452
-67.0703
-67.1778
-67.263
-67.322
-67.3522
-66.0802
-66.1057
-66.1556
-66.2277
-66.319
-66.4255
-66.5427
-66.6654
-66.7884
-66.9062
-67.0136
-67.1059
-67.179
-67.2296
-67.2555
-66.1582
-66.1803
-66.2236
-66.2862
-66.3654
-66.4578
-66.5594
-66.6658
-66.7723
-66.8744
-66.9674
-67.0473
-67.1106
-67.1544
-67.1768
-66.2209
-66.2403
-66.2783
-66.3332
-66.4026
-66.4837
-66.5728
-66.666
-66.7594
-66.8488
-66.9303
-67.0003
-67.0557
-67.0941
-67.1137
-66.2701
-66.2873
-66.3211
-66.37
-66.4319
-66.504
-66.5832
-66.6662
-66.7493
-66.8287
-66.9012
-66.9634
-67.0126
-67.0467
-67.0642
-66.3072
-66.3229
-66.3536
-66.3979
-66.4539
-66.5193
-66.5912
-66.6663
-66.7416
-66.8136
-66.8792
-66.9355
-66.9801
-67.011
-67.0267
-66.3336
-66.3481
-66.3765
-66.4176
-66.4696
-66.5302
-66.5967
-66.6664
-66.7361
-66.8028
-66.8636
-66.9158
-66.9571
-66.9857
-67.0003
-66.3498
-66.3636
-66.3907
-66.4297
-66.4792
-66.5368
-66.6002
-66.6665
-66.7328
-66.7962
-66.854
-66.9036
-66.9429
-66.9701
-66.984
-66.3564
-66.3699
-66.3964
-66.4347
-66.4831
-66.5396
-66.6016
-66.6665
-66.7314
-66.7935
-66.8501
-66.8987
-66.9371
-66.9637
-66.9773
-66.3536
-66.3673
-66.394
-66.4326
-66.4815
-66.5384
-66.601
-66.6665
-66.732
-66.7946
-66.8517
-66.9007
-66.9395
-66.9663
-66.9801
-66.3414
-66.3556
-66.3833
-66.4235
-66.4742
-66.5334
-66.5984
-66.6665
-66.7345
-66.7996
-66.859
-66.9099
-66.9502
-66.9781
-66.9924
-66.3193
-66.3344
-66.3641
-66.4069
-66.4611
-66.5243
-66.5938
-66.6664
-66.7391
-66.8087
-66.872
-66.9265
-66.9695
-66.9993
-67.0145
-66.2867
-66.3032
-66.3356
-66.3825
-66.4418
-66.5109
-66.5869
-66.6663
-66.7459
-66.822
-66.8913
-66.9509
-66.998
-67.0306
-67.0473
-66.2425
-66.261
-66.2972
-66.3495
-66.4156
-66.4927
-66.5775
-66.6662
-66.755
-66.84
-66.9175
-66.984
-67.0366
-67.073
-67.0917
-66.1856
-66.2065
-66.2475
-66.3068
-66.3818
-66.4693
-66.5654
-66.6661
-66.7668
-66.8633
-66.9512
-67.0267
-67.0864
-67.1278
-67.149
-66.1141
-66.1381
-66.1852
-66.2532
-66.3393
-66.4398
-66.5502
-66.6658
-66.7816
-66.8924
-66.9935
-67.0803
-67.149
-67.1966
-67.2209
-66.0259
-66.0537
-66.1083
-66.1871
-66.2869
-66.4033
-66.5314
-66.6655
-66.7998
-66.9284
-67.0457
-67.1465
-67.2263
-67.2815
-67.3098
-65.9184
-65.9509
-66.0145
-66.1064
-66.2229
-66.3588
-66.5083
-66.665
-66.8219
-66.9722
-67.1094
-67.2272
-67.3206
-67.3852
-67.4183
-65.7883
-65.8264
-65.9009
-66.0088
-66.1454
-66.3049
-66.4804
-66.6643
-66.8486
-67.0253
-67.1864
-67.325
-67.4348
-67.5108
-67.5497
-65.6317
-65.6766
-65.7643
-65.8912
-66.052
-66.2398
-66.4465
-66.6633
-66.8806
-67.089
-67.2792
-67.4428
-67.5724
-67.6623
-67.7082
-65.4441
-65.4969
-65.6004
-65.7502
-65.9399
-66.1616
-66.4058
-66.6619
-66.9188
-67.1654
-67.3905
-67.5842
-67.7377
-67.8441
-67.8986
-65.2198
-65.2822
-65.4044
-65.5813
-65.8056
-66.0678
-66.3567
-66.6599
-66.9643
-67.2565
-67.5236
-67.7534
-67.9357
-68.062
-68.1267
-64.9521
-65.0259
-65.1704
-65.3796
-65.645
-65.9554
-66.2977
-66.6572
-67.0183
-67.3652
-67.6825
-67.9557
-68.1725
-68.3228
-68.3998
-64.6333
-64.7205
-64.8914
-65.139
-65.4531
-65.8209
-66.2267
-66.6532
-67.0822
-67.4945
-67.8719
-68.1972
-68.4554
-68.6345
-68.7263
-64.2539
-64.357
-64.5591
-64.8521
-65.2241
-65.6599
-66.1412
-66.6477
-67.1575
-67.6481
-68.0975
-68.4852
-68.7931
-69.007
-69.1165
-63.803
-63.9248
-64.1638
-64.5104
-64.9508
-65.4673
-66.0383
-66.6399
-67.2462
-67.8303
-68.366
-68.8285
-69.1963
-69.4518
-69.5827
-63.2674
-63.4113
-63.6937
-64.1035
-64.6248
-65.2367
-65.9142
-66.6289
-67.3502
-68.0461
-68.6852
-69.2377
-69.6774
-69.9831
-70.1398
-62.6319
-62.8017
-63.1351
-63.6193
-64.2359
-64.9606
-65.7642
-66.6134
-67.4718
-68.3014
-69.0645
-69.7251
-70.2516
-70.6179
-70.8058
-61.8784
-62.0786
-62.4717
-63.0432
-63.7719
-64.6297
-65.5826
-66.5914
-67.6133
-68.603
-69.5149
-70.3058
-70.9369
-71.3765
-71.6021
-60.9861
-61.2216
-61.6844
-62.3581
-63.2183
-64.2327
-65.362
-66.5605
-67.7773
-68.9584
-70.0493
-70.9974
-71.7551
-72.2837
-72.5552
-59.9302
-60.2067
-60.7506
-61.5435
-62.5575
-63.756
-65.0936
-66.5168
-67.9659
-69.3766
-70.683
-71.821
-72.7326
-73.3693
-73.6967
-58.6823
-59.0063
-59.6441
-60.5752
-61.7687
-63.1828
-64.7656
-66.4552
-68.1812
-69.8672
-71.4335
-72.802
-73.9007
-74.6697
-75.0656
-57.2094
-57.588
-58.334
-59.4249
-60.8266
-62.4925
-64.3634
-66.3682
-68.4244
-70.4408
-72.3214
-73.9701
-75.2979
-76.2292
-76.7093
-55.4737
-55.9145
-56.7843
-58.0589
-59.7012
-61.6597
-63.8683
-66.2455
-68.6951
-71.1088
-73.3702
-75.3611
-76.9702
-78.1019
-78.6863
-53.4321
-53.9433
-54.9536
-56.4377
-58.3561
-60.6534
-63.2563
-66.0725
-68.9908
-71.8826
-74.6068
-77.0173
-78.9739
-80.3546
-81.0691
-51.0354
-51.6256
-52.7939
-54.5149
-56.748
-59.4349
-62.4961
-65.8287
-69.3048
-72.7727
-76.0611
-78.9887
-81.3774
-83.0699
-83.948
-48.2291
-48.9067
-50.2505
-52.2365
-54.8249
-57.9565
-61.5474
-65.4851
-69.6245
-73.7873
-77.766
-81.3342
-84.2642
-86.3507
-87.4365
-44.9523
-45.7251
-47.2613
-49.5399
-52.5248
-56.159
-60.358
-65.0016
-69.928
-74.9297
-79.7557
-84.1227
-87.7368
-90.3261
-91.679
-41.139
-42.0137
-43.7566
-46.3529
-49.7738
-53.9696
-58.8598
-64.3217
-70.1792
-76.1941
-82.0642
-87.434
-91.9208
-95.1599
-96.8607
-36.7186
-37.6994
-39.6596
-42.5934
-46.4848
-51.2981
-56.9646
-63.367
-70.3211
-77.5589
-84.7202
-91.3582
-96.971
-101.062
-103.223
-31.6172
-32.7052
-34.8866
-38.1691
-42.5559
-48.0341
-54.5584
-62.0294
-70.2658
-78.9768
-87.7393
-95.9941
-103.078
-108.304
-111.087
-25.7606
-26.9519
-29.3491
-32.9782
-37.8692
-44.0437
-51.495
-60.1601
-69.8809
-80.3589
-91.1108
-101.443
-110.475
-117.241
-120.882
-19.0771
-20.3615
-22.9565
-26.9113
-32.2915
-39.1667
-47.5889
-57.5578
-68.9701
-81.5508
-94.7735
-107.794
-119.445
-128.348
-133.206
-11.5019
-12.8614
-15.62
-19.8547
-25.6758
-33.2157
-42.6087
-53.9531
-67.248
-82.2966
-98.5762
-115.097
-130.322
-142.265
-148.903
-2.98302
-4.39016
-7.25863
-11.6969
-17.8668
-25.9782
-36.2736
-48.9939
-64.3079
-82.1876
-102.211
-123.3
-143.479
-159.863
-169.21
6.51255
5.09544
2.19242
-2.33705
-8.71002
-17.2241
-28.2547
-42.2336
-59.5861
-80.5898
-105.105
-132.134
-159.271
-182.347
-196.007
16.9917
15.6124
12.7724
8.30258
1.93328
-6.72278
-18.1887
-33.1307
-52.3287
-76.5538
-106.252
-140.893
-177.883
-211.37
-232.29
28.4279
27.143
24.4837
20.2607
14.1641
5.72941
-5.70898
-21.0725
-41.5804
-68.7166
-103.968
-148.018
-198.928
-249.118
-283.099
40.7558
39.6275
37.2802
33.5194
28.0181
20.267
9.49611
-5.44208
-26.2294
-55.2442
-95.5721
-150.38
-220.473
-298.12
-357.504
53.8664
52.9577
51.0575
47.986
43.4337
36.9011
27.5947
14.2498
-5.16519
-33.9156
-77.1211
-142.126
-236.77
-359.804
-473.146
67.6073
66.9755
65.6473
63.4803
60.2239
55.4607
48.497
38.1565
22.3814
-2.54909
-43.5315
-113.29
-233.35
-428.216
-667.494
81.7858
81.4759
80.8186
79.7301
78.0596
75.5476
71.7436
65.8363
56.285
39.9639
10.0409
-49.521
-177.98
-465.783
-1028
96.1785
96.2166
96.2884
96.3831
96.4786
96.5308
96.4499
96.0456
94.8888
91.9215
84.1952
62.093
-11.9536
-312.781
-1778.93
110.543
110.933
111.741
113.034
114.927
117.605
121.379
126.776
134.748
147.183
168.332
209.779
311.56
649.476
2153.08
124.637
125.356
126.856
129.269
132.827
137.918
145.181
155.716
171.508
196.39
238.371
315.564
471.087
802.222
1428.19
138.229
139.237
141.335
144.706
149.663
156.72
166.708
181.003
201.953
233.721
283.956
366.95
508.656
750.213
1138.05
128.379
52.1753
21.6512
5.88803
-3.64241
-9.95029
-14.3548
-17.5328
-19.8704
-21.6045
-22.8874
-23.8201
-24.4699
-24.8811
-25.0803
81.0984
49.5739
26.5731
11.6216
1.68927
-5.1736
-10.0781
-13.6694
-16.3394
-18.3368
-19.8246
-20.9123
-21.6736
-22.1568
-22.3914
55.7084
41.0525
25.9049
13.8694
4.88939
-1.75683
-6.7132
-10.4457
-13.2754
-15.4227
-17.0395
-18.2311
-19.0701
-19.6049
-19.8652
40.4954
32.8722
23.075
13.9952
6.46875
0.486452
-4.19815
-7.84869
-10.6852
-12.8768
-14.5493
-15.7945
-16.6776
-17.2433
-17.5195
30.5758
26.2011
19.7468
13.0421
6.97569
1.82855
-2.40114
-5.81693
-8.5426
-10.6912
-12.3558
-13.6091
-14.5053
-15.0826
-15.3654
23.6939
20.9737
16.5922
11.6457
6.84414
2.53351
-1.16932
-4.26435
-6.8007
-8.84151
-10.4477
-11.6715
-12.5543
-13.1263
-13.4074
18.7007
16.8996
13.8299
10.1484
6.37158
2.81634
-0.359565
-3.09969
-5.40284
-7.29355
-8.8051
-9.97065
-10.8188
-11.3718
-11.6446
14.9581
13.7064
11.4921
8.71731
5.74504
2.83571
0.147567
-2.23844
-4.29134
-6.00879
-7.40264
-8.49004
-9.28825
-9.81179
-10.0709
12.0845
11.1815
9.54328
7.42325
5.07471
2.70145
0.444876
-1.60849
-3.41274
-4.94867
-6.21289
-7.21014
-7.94829
-8.43525
-8.6771
9.83769
9.16721
7.92893
6.28777
4.42149
2.48611
0.601062
-1.15151
-2.72042
-4.07718
-5.20846
-6.11007
-6.78267
-7.22882
-7.45112
8.05642
7.54705
6.59425
5.30855
3.8162
2.2358
0.665241
-0.822069
-2.17539
-3.36223
-4.36346
-5.16897
-5.77422
-6.17775
-6.37942
6.62878
6.23473
5.49066
4.47276
3.27202
1.97861
0.6716
-0.585665
-1.74594
-2.77612
-3.65431
-4.36686
-4.90579
-5.26678
-5.44769
5.4747
5.16539
4.57716
3.76388
2.79214
1.73085
0.643404
-0.416606
-1.40681
-2.29553
-3.06014
-3.68526
-4.16087
-4.48078
-4.64152
4.53534
4.28967
3.81991
3.16498
2.37442
1.50122
0.596148
-0.296014
-1.13816
-1.90108
-2.5628
-3.10745
-3.52401
-3.80527
-3.9469
3.76653
3.56952
3.19118
2.66024
2.01405
1.29372
0.539919
-0.210156
-0.924496
-1.57688
-2.14674
-2.61854
-2.98107