/*--------------------------------*- C++ -*----------------------------------*\
| =========                 |                                                 |
| \\      /  F ield         | OpenFOAM: The Open Source CFD Toolbox           |
|  \\    /   O peration     | Version:  5.x                                   |
|   \\  /    A nd           | Web:      www.OpenFOAM.org                      |
|    \\/     M anipulation  |                                                 |
\*---------------------------------------------------------------------------*/
FoamFile
{
    version     2.0;
    format      ascii;
    class       volScalarField;
    location    "18.9";
    object      gradTy;
}
// * * * * * * * * * * * * * * * * * * * * * * * * * * * * * * * * * * * * * //

dimensions      [0 -1 0 1 0 0 0];

internalField   nonuniform List<scalar> 
6300
(
993.297
980.004
967.049
954.652
943.03
932.386
922.908
914.767
908.105
903.029
899.607
897.859
897.752
899.2
902.068
-0.169458
-0.506555
-0.837986
-1.15926
-1.46486
-1.74798
-2.00034
-2.21235
-2.37348
-2.47319
-2.50215
-2.45397
-2.32688
-2.12514
-1.85951
-0.284456
-0.85058
-1.40797
-1.94955
-2.46646
-2.9475
-3.37876
-3.74375
-4.024
-4.20047
-4.2558
-4.17741
-3.96085
-3.61271
-3.15185
-0.402237
-1.20334
-1.99375
-2.76451
-3.50395
-4.19679
-4.82345
-5.3599
-5.77831
-6.04889
-6.14318
-6.03903
-5.72641
-5.21302
-4.52722
-0.523394
-1.56677
-2.59916
-3.61076
-4.58802
-5.51223
-6.35831
-7.09405
-7.68043
-8.07355
-8.22899
-8.10907
-7.69269
-6.98569
-6.02776
-0.647966
-1.94119
-3.22537
-4.49134
-5.72512
-6.90581
-8.0035
-8.97755
-9.77578
-10.3359
-10.5901
-10.4756
-9.9496
-9.00929
-7.70726
-0.77524
-2.32465
-3.86977
-5.40409
-6.91528
-8.38234
-9.7723
-11.0368
-12.1093
-12.904
-13.32
-13.2534
-12.6208
-11.3946
-9.63906
-0.90358
-2.71238
-4.52496
-6.33994
-8.14955
-9.93594
-11.6665
-13.2881
-14.7204
-15.8506
-16.5325
-16.5972
-15.8855
-14.309
-11.9313
-1.03028
-3.09631
-5.17772
-7.28115
-9.40701
-11.5453
-13.6697
-15.7286
-17.6336
-19.2456
-20.3622
-20.7174
-20.0149
-18.0246
-14.7581
-1.15151
-3.46485
-5.80845
-8.19989
-10.652
-13.1686
-15.7383
-18.3228
-20.8397
-23.1358
-24.9531
-25.8953
-25.432
-23.0163
-18.4326
-1.26241
-3.80312
-6.39131
-9.05798
-11.8323
-14.7388
-17.792
-20.9846
-24.2664
-27.5049
-30.4189
-32.4787
-32.8012
-30.1761
-23.6051
-1.35743
-4.09388
-6.89567
-9.8084
-12.8803
-16.1624
-19.7062
-23.557
-27.7362
-32.1985
-36.7387
-40.799
-43.1181
-41.2818
-31.9038
-1.43088
-4.31927
-7.28906
-10.3996
-13.7181
-17.3241
-21.3131
-25.8011
-30.9228
-36.8138
-43.5384
-50.8604
-57.5903
-59.9292
-48.375
-1.47767
-4.46324
-7.54169
-10.7826
-14.2685
-18.1026
-22.4211
-27.4113
-33.3399
-40.5954
-49.7404
-61.5138
-76.4532
-92.4696
-92.1872
-1.49422
-4.51429
-7.6318
-10.9208
-14.4706
-18.3967
-22.8573
-28.0829
-34.4297
-42.4875
-53.3136
-69.0009
-94.2387
-141.308
-248.872
905.834
909.985
914.731
919.937
925.47
931.2
937.009
942.79
948.449
953.903
959.083
963.933
968.403
972.455
976.06
979.192
981.832
983.968
985.589
986.687
987.26
987.305
986.821
985.812
984.28
982.229
979.665
976.594
973.023
968.959
964.41
959.384
953.887
947.928
941.513
934.65
927.344
919.602
911.43
902.835
893.824
884.402
874.578
864.358
853.751
842.764
831.403
819.677
807.593
795.155
782.371
769.245
755.782
741.989
727.87
713.432
698.682
683.628
668.281
652.649
636.746
620.582
604.17
587.525
570.659
553.589
536.329
518.897
501.313
483.597
465.775
447.876
429.93
411.973
394.044
376.184
358.439
340.853
323.475
306.351
289.528
273.051
256.963
241.302
226.106
211.404
197.222
183.579
170.488
157.953
-1.5725
-1.2913
-1.00173
-0.714981
-0.440535
-0.18563
0.0449367
0.248659
0.424967
0.574759
0.699928
0.802939
0.886485
0.953246
1.00573
1.04618
1.07654
1.09848
1.11336
1.12233
1.12633
1.1261
1.12229
1.11542
1.10596
1.09433
1.08092
1.06616
1.05044
1.03417
1.01773
1.00146
0.985606
0.970339
0.955702
0.94162
0.927915
0.914339
0.900617
0.886499
0.871813
0.856502
0.840646
0.824452
0.80823
0.792339
0.777123
0.762843
0.749621
0.737397
0.72592
0.714763
0.703376
0.691154
0.677518
0.661997
0.644284
0.624269
0.602028
0.577782
0.551818
0.524401
0.495667
0.465543
0.433693
0.399498
0.36209
0.32043
0.27342
0.220035
0.159468
0.0912396
0.015285
-0.0680103
-0.157822
-0.252945
-0.351875
-0.452915
-0.55427
-0.654117
-0.750659
-0.842135
-0.926814
-1.00299
-1.06896
-1.12313
-1.16403
-1.19048
-1.20175
-1.19767
-2.65329
-2.1656
-1.66517
-1.17211
-0.70314
-0.270619
0.117684
0.458163
0.750602
0.997257
1.20196
1.36935
1.50432
1.61158
1.69547
1.75977
1.80773
1.84208
1.86506
1.87852
1.88394
1.88256
1.87536
1.86317
1.84672
1.82668
1.8037
1.77845
1.75161
1.72388
1.69595
1.66841
1.64173
1.61622
1.59194
1.56875
1.54631
1.52412
1.50164
1.47839
1.454
1.42836
1.4016
1.37412
1.34651
1.31948
1.29371
1.26972
1.24778
1.22781
1.20936
1.19164
1.17362
1.15417
1.1322
1.10682
1.07748
1.044
1.00658
0.965715
0.922031
0.876122
0.828352
0.778688
0.726592
0.670982
0.610292
0.542607
0.465883
0.378196
0.278011
0.164399
0.0371922
-0.102947
-0.254557
-0.415489
-0.583081
-0.754351
-0.926182
-1.09547
-1.25919
-1.41442
-1.55828
-1.68793
-1.80047
-1.89307
-1.96309
-2.00835
-2.02741
-2.01989
-3.78378
-3.05831
-2.31807
-1.59463
-0.91337
-0.292043
0.259183
0.736721
1.14204
1.48003
1.75757
1.9823
2.16189
2.30344
2.41325
2.49672
2.55836
2.60188
2.63031
2.64609
2.65121
2.64723
2.63544
2.61689
2.59249
2.5631
2.52958
2.49284
2.45387
2.41372
2.37343
2.33394
2.29603
2.26015
2.22645
2.19465
2.16417
2.13415
2.10363
2.07174
2.03784
2.00166
1.96344
1.92381
1.88382
1.84467
1.80758
1.7735
1.74296
1.71589
1.6916
1.66881
1.64581
1.62069
1.59165
1.55722
1.5165
1.46927
1.41599
1.35759
1.29534
1.23042
1.16366
1.09523
1.02445
0.949688
0.868475
0.777715
0.674047
0.554275
0.415814
0.257061
0.0776541
-0.121428
-0.337926
-0.568501
-0.809045
-1.05502
-1.3018
-1.54488
-1.77998
-2.00309
-2.21026
-2.39752
-2.56072
-2.69556
-2.79785
-2.86394
-2.89136
-2.87927
-4.9856
-3.97221
-2.94668
-1.95631
-1.03717
-0.212395
0.506922
1.11941
1.63055
2.05001
2.38933
2.66039
2.87436
3.04113
3.16911
3.26525
3.33521
3.38355
3.4139
3.42918
3.43171
3.4233
3.40541
3.37918
3.34561
3.30563
3.26025
3.2106
3.158
3.10393
3.04991
2.99738
2.94753
2.90112
2.85835
2.81882
2.78152
2.74505
2.70776
2.66815
2.62509
2.57808
2.52743
2.47419
2.42005
2.36705
2.31724
2.27233
2.23327
2.20011
2.17182
2.14641
2.12116
2.09301
2.059
2.0168
1.96502
1.90341
1.83286
1.75515
1.6726
1.58746
1.50147
1.41528
1.32814
1.23778
1.1405
1.0315
0.905489
0.757355
0.582922
0.379548
0.146529
-0.114754
-0.400948
-0.707085
-1.02711
-1.35448
-1.68269
-2.0057
-2.318
-2.61464
-2.89085
-3.1417
-3.36174
-3.54486
-3.68466
-3.7752
-3.81215
-3.79383
-6.28241
-4.9036
-3.52463
-2.21541
-1.02505
0.0191546
0.908548
1.64807
2.25117
2.73542
3.11942
3.42075
3.65486
3.83473
3.97084
4.07152
4.14326
4.19117
4.21926
4.2307
4.22801
4.2131
4.18744
4.15212
4.10802
4.05601
3.99713
3.93267
3.86434
3.79414
3.7243
3.65703
3.59416
3.53693
3.48569
3.43983
3.39778
3.35718
3.31533
3.26962
3.21809
3.15984
3.09525
3.02596
2.95472
2.8849
2.81996
2.7628
2.7152
2.6774
2.64797
2.62386
2.60079
2.57382
2.53823
2.49025
2.42776
2.35049
2.2601
2.15978
2.05363
1.94582
1.83965
1.73675
1.63653
1.53592
1.42946
1.30986
1.16885
0.998369
0.791769
0.544788
0.256168
-0.0721433
-0.435189
-0.82561
-1.23454
-1.65265
-2.07104
-2.48186
-2.87854
-3.25555
-3.60789
-3.93021
-4.21587
-4.4565
-4.64235
-4.76359
-4.81249
-4.78563
-7.69938
-5.8351
-4.00204
-2.30324
-0.802337
0.473808
1.52618
2.37343
3.04314
3.56543
3.96883
4.27815
4.51373
4.69158
4.82388
4.91973
4.98591
5.02761
5.04886
5.05287
5.04218
5.01869
4.98369
4.93799
4.88212
4.81662
4.74234
4.66066
4.57367
4.48414
4.39534
4.31065
4.233
4.16443
4.10561
4.0557
4.01225
3.97146
3.92879
3.87979
3.8211
3.75106
3.67013
3.58087
3.48765
3.39603
3.31178
3.23982
3.1833
3.14293
3.11674
3.10012
3.0863
3.06734
3.03555
2.9849
2.91203
2.81674
2.70191
2.57306
2.43732
2.30206
2.17334
2.0546
1.94573
1.84268
1.73755
1.61925
1.47485
1.29159
1.05895
0.770173
0.42314
0.0206617
-0.42984
-0.917314
-1.42859
-1.95025
-2.47012
-2.97826
-3.46724
-3.93185
-4.36806
-4.77138
-5.13472
-5.44693
-5.69298
-5.85608
-5.92182
-5.88325
-9.26165
-6.72154
-4.28605
-2.10602
-0.25589
1.2508
2.43935
3.35462
4.04761
4.56688
4.95395
5.24197
5.45601
5.61431
5.72967
5.81091
5.86412
5.89379
5.90357
5.89651
5.8751
5.84117
5.79568
5.73885
5.67042
5.59021
5.49854
5.39665
5.28701
5.17345
5.06083
4.95447
4.85914
4.77822
4.71307
4.66263
4.62323
4.58881
4.5517
4.50428
4.44079
4.35832
4.25737
4.14181
4.01864
3.89689
3.78625
3.69497
3.62848
3.58837
3.57206
3.57266
3.57953
3.57966
3.56034
3.51184
3.4289
3.31141
3.1642
2.99656
2.82058
2.64915
2.49294
2.35851
2.24679
2.15269
2.06486
1.96646
1.83703
1.65614
1.40721
1.07965
0.670163
0.182824
-0.37105
-0.974544
-1.6075
-2.25025
-2.88591
-3.50208
-4.09088
-4.64888
-5.17544
-5.66997
-6.12708
-6.5325
-6.86295
-7.08864
-7.18125
-7.12633
-10.9868
-7.45731
-4.20218
-1.43382
0.784991
2.48578
3.7459
4.6558
5.30219
5.75866
6.08169
6.31231
6.47852
6.59885
6.6846
6.74247
6.77619
6.78863
6.78253
6.76079
6.72607
6.68027
6.62401
6.5564
6.4757
6.38034
6.26946
6.1438
6.00604
5.86143
5.71731
5.58245
5.46455
5.36936
5.29937
5.2537
5.22709
5.21009
5.18948
5.15194
5.08787
4.99223
4.86568
4.71377
4.54762
4.38181
4.23289
4.11446
4.03574
3.9996
4.00312
4.03622
4.08251
4.12006
4.1272
4.08844
3.99557
3.84891
3.65598
3.43211
3.19737
2.97437
2.78126
2.62977
2.52253
2.45375
2.40744
2.35842
2.27338
2.11872
1.86873
1.50716
1.02934
0.44085
-0.24075
-0.989281
-1.77226
-2.56038
-3.3297
-4.0652
-4.75879
-5.41111
-6.02883
-6.62237
-7.19375
-7.72593
-8.18367
-8.51273
-8.65302
-8.57387
-12.8576
-7.7981
-3.41751
0.029545
2.57146
4.35481
5.55622
6.33582
6.8297
7.14198
7.34194
7.47482
7.56655
7.6326
7.67911
7.7082
7.71831
7.70956
7.68339
7.64312
7.59236
7.53381
7.46806
7.39215
7.30146
7.19216
7.06101
6.90777
6.73427
6.54806
6.35983
6.18538
6.0366
5.92359
5.85
5.81671
5.81649
5.83593
5.85104
5.83722
5.77978
5.67008
5.50989
5.30566
5.07553
4.84182
4.63509
4.47623
4.38113
4.35321
4.39104
4.48027
4.59757
4.70375
4.75966
4.74249
4.63921
4.45257
4.19184
3.88286
3.5568
3.25613
3.00921
2.83694
2.74252
2.72209
2.75355
2.80191
2.80964
2.71826
2.4906
2.10178
1.54758
0.832675
-0.0143345
-0.954659
-1.92983
-2.89776
-3.82237
-4.68882
-5.48624
-6.22327
-6.91712
-7.60672
-8.31693
-9.02656
-9.68969
-10.2086
-10.4408
-10.3202
-14.7159
-7.16157
-1.28885
2.79613
5.44997
7.06143
7.97332
8.42661
8.61795
8.6863
8.69801
8.69581
8.69075
8.6937
8.69788
8.70044
8.68675
8.65472
8.60372
8.53969
8.46901
8.39683
8.32583
8.24831
8.1531
8.03453
7.88346
7.70001
7.47987
7.2367
6.9816
6.75044
6.55624
6.42013
6.34172
6.3312
6.37666
6.46714
6.55335
6.58441
6.54606
6.41977
6.21667
5.93398
5.60776
5.26216
4.96751
4.74539
4.62896
4.61138
4.70417
4.88313
5.1279
5.35908
5.49663
5.51983
5.40221
5.16221
4.79651
4.35756
3.87903
3.45988
3.12905
2.9314
2.8554
2.91515
3.07476
3.30341
3.48808
3.51353
3.34408
2.93409
2.29679
1.41431
0.346053
-0.870235
-2.09816
-3.29786
-4.39907
-5.4121
-6.30087
-7.09783
-7.81168
-8.56152
-9.44106
-10.3942
-11.4034
-12.3176
-12.7363
-12.5267
-15.816
-4.10381
3.41375
7.62344
9.82977
10.7758
11.0513
10.8951
10.5838
10.3127
10.0746
9.92144
9.80397
9.75358
9.71954
9.71666
9.68221
9.62781
9.54345
9.44647
9.34851
9.25882
9.1937
9.13064
9.03909
8.92446
8.75325
8.54582
8.2594
7.94328
7.56963
7.26305
6.99298
6.83438
6.73642
6.76585
6.8728
7.10525
7.33584
7.43232
7.43976
7.2808
7.03886
6.62573
6.16867
5.60989
5.19625
4.86312
4.73518
4.71134
4.89393
5.19194
5.67848
6.14991
6.39895
6.50059
6.34209
6.05353
5.50732
4.88988
4.11639
3.53708
3.05769
2.8513
2.77336
2.96494
3.29709
3.86873
4.39631
4.58992
4.54439
4.09422
3.39951
2.26391
0.920073
-0.768589
-2.30671
-3.83936
-5.10233
-6.31394
-7.24733
-8.09173
-8.65407
-9.32923
-10.4589
-11.681
-13.2535
-15.1398
-15.9365
-15.4858
-12.7209
4.99426
12.8794
15.3351
16.0239
15.4555
14.7507
13.5866
12.4917
11.8913
11.3289
11.0954
10.8204
10.7898
10.6962
10.7782
10.7062
10.6439
10.5012
10.3545
10.2159
10.0853
10.0584
10.0539
9.95816
9.89576
9.67506
9.50525
9.08158
8.7326
8.06096
7.72298
7.26911
7.16119
6.9476
7.08875
7.18811
7.74597
8.31134
8.40836
8.573
8.26125
8.10746
7.38069
6.87599
5.74854
5.30901
4.68531
4.69145
4.51399
4.91746
5.2292
6.25077
7.26095
7.51347
7.85589
7.46919
7.3158
6.32068
5.64686
4.07411
3.47039
2.5932
2.58624
2.30319
2.8123
3.17455
4.49747
5.78542
6.01067
6.32736
5.60646
5.13709
3.41339
1.99065
-0.883705
-2.5231
-4.76913
-5.87948
-7.61631
-8.32186
-9.49169
-9.33389
-9.44238
-11.3434
-12.4631
-14.6515
-19.5307
-20.9329
-19.7423
11.5387
28.2477
30.1638
25.5908
24.0281
20.3309
19.1112
16.1779
13.6871
13.4145
12.1092
12.3287
11.4845
11.9161
11.4195
12.0609
11.7159
11.7753
11.464
11.2504
11.0713
10.7619
10.8904
11.1078
10.8287
11.0945
10.523
10.8297
9.79567
9.986
8.07126
8.34925
7.04653
7.6396
6.64742
7.47131
6.84264
8.37534
9.96072
9.2865
10.3917
9.01372
10.0006
7.81537
8.47958
4.89611
5.68647
3.60009
4.91164
3.47967
5.07263
4.24386
6.83904
9.46255
8.49812
10.2607
8.25991
9.78977
6.67096
7.69792
2.63604
3.79715
0.875207
2.71841
0.691998
2.87083
1.66833
5.17628
8.70452
7.29943
9.60415
6.75621
8.68065
4.1292
5.15131
-2.77739
-1.86611
-7.33446
-5.75465
-10.4039
-8.72791
-12.8035
-9.63027
-6.97435
-13.3529
-11.7063
-12.1747
-28.9286
-29.6626
-26.3096
147.523
72.802
56.7921
31.5116
35.1056
21.6389
25.9389
18.1323
11.6882
16.4249
10.694
15.0939
10.3118
14.3789
10.5044
14.764
12.1434
13.4407
12.286
12.0971
12.1142
10.8081
11.5947
12.877
10.9149
13.4989
10.1068
14.085
8.74694
14.2709
4.92428
11.252
4.09427
10.401
3.73237
9.94581
3.38509
8.92909
14.8642
7.60251
15.7864
6.36102
16.4619
4.14708
16.2001
-2.25435
10.2067
-2.37782
9.08279
-1.91027
8.7154
-1.67168
7.38677
16.831
5.5561
18.085
3.96676
18.958
1.0516
18.5171
-7.76284
10.0038
-7.70432
8.4231
-6.97449
7.79871
-6.6207
5.82606
18.7278
3.24623
20.3009
1.03392
21.5496
-3.18074
21.2013
-17.4004
7.97775
-20.0489
3.3402
-22.2993
-0.851478
-26.5535
-9.18147
8.50351
-26.9186
-7.90351
13.7532
-61.3947
-44.2773
-37.3087
144.775
131.185
118.351
106.234
94.7853
83.949
73.6658
63.8743
54.5122
45.5179
36.8309
28.3924
20.1451
12.0333
4.00214
-1.17679
-1.13424
-1.07479
-1.00194
-0.919357
-0.830503
-0.738337
-0.645194
-0.552745
-0.462047
-0.373628
-0.287588
-0.203699
-0.121502
-0.040378
-1.98324
-1.90914
-1.80618
-1.6807
-1.53924
-1.38786
-1.23166
-1.07456
-0.919305
-0.767555
-0.620077
-0.476926
-0.337623
-0.201312
-0.0668892
-2.82378
-2.7129
-2.5601
-2.37542
-2.16902
-1.95003
-1.72587
-1.50208
-1.28235
-1.06879
-0.862195
-0.662412
-0.468551
-0.279232
-0.0927552
-3.71465
-3.55855
-3.34586
-3.09184
-2.81139
-2.51734
-2.2197
-1.92553
-1.63923
-1.36303
-1.0975
-0.841969
-0.594933
-0.354307
-0.117654
-4.67519
-4.46075
-4.17292
-3.83467
-3.46732
-3.08822
-2.71004
-2.34108
-1.98598
-1.64659
-1.32278
-1.01303
-0.7149
-0.425405
-0.141207
-5.72962
-5.4363
-5.05035
-4.60655
-4.13496
-3.65814
-3.19115
-2.74276
-2.317
-1.91457
-1.534
-1.17244
-0.826227
-0.491204
-0.162976
-6.90968
-6.50441
-5.98554
-5.40619
-4.80778
-4.21818
-3.65363
-3.12179
-2.62465
-2.16066
-1.72619
-1.31651
-0.926354
-0.550203
-0.182466
-8.25856
-7.68602
-6.98114
-6.2248
-5.47174
-4.75315
-4.08334
-3.46609
-2.89915
-2.37721
-1.89357
-1.44105
-1.01246
-0.600782
-0.199149
-9.83596
-8.99992
-8.02812
-7.04006
-6.10118
-5.23927
-4.46046
-3.76003
-3.12862
-2.55544
-2.0298
-1.54163
-1.08167
-0.641306
-0.212497
-11.7211
-10.4495
-9.09131
-7.80609
-6.65357
-5.64223
-4.75916
-3.98492
-3.29981
-2.68611
-2.12853
-1.61401
-1.13125
-0.670273
-0.222029
-13.9988
-11.9857
-10.0814
-8.43935
-7.06473
-5.91685
-4.94898
-4.12064
-3.39956
-2.76063
-2.1842
-1.65461
-1.15902
-0.686506
-0.227373
-16.6673
-13.4129
-10.8091
-8.80507
-7.2491
-6.01139
-4.99923
-4.14906
-3.41714
-2.77262
-2.19299
-1.66119
-1.16371
-0.689348
-0.228327
-19.2357
-14.1893
-10.937
-8.72264
-7.11511
-5.88034
-4.88743
-4.05918
-3.34728
-2.71968
-2.15394
-1.63345
-1.14528
-0.678836
-0.224914
-19.1331
-13.1717
-10.0267
-8.03329
-6.60831
-5.50736
-4.61092
-3.85292
-3.19308
-2.60487
-2.06961
-1.57335
-1.10512
-0.655795
-0.217405
-1.48282
-4.47922
-7.57037
-10.8282
-14.3398
-18.2176
-22.6158
-27.7597
-33.9991
-41.9183
-52.5782
-68.1164
-93.3941
-140.992
-247.457
-1.4489
-4.37474
-7.38675
-10.5497
-13.9403
-17.6555
-21.8238
-26.6239
-32.3149
-39.2843
-48.1168
-59.6327
-74.5217
-90.3969
-84.3118
-1.3955
-4.21039
-7.09833
-10.1129
-13.3153
-16.7788
-20.5931
-24.8695
-29.7427
-35.3563
-41.7919
-48.8063
-54.9638
-55.052
-34.0398
-1.32551
-3.99529
-6.72197
-9.54558
-12.509
-15.6583
-19.0412
-22.7006
-26.6563
-30.8574
-35.065
-38.5747
-39.6202
-34.3598
-16.4536
-1.24249
-3.74066
-6.27827
-8.88114
-11.5736
-14.3757
-17.2974
-20.3258
-23.3992
-26.3539
-28.8227
-30.0543
-28.6556
-22.4493
-9.28469
-1.15032
-3.45862
-5.78922
-8.15449
-10.5619
-13.0099
-15.4793
-17.9198
-20.2245
-22.1877
-23.4394
-23.3605
-21.0297
-15.3706
-5.8691
-1.05282
-3.16108
-5.27608
-7.3985
-9.52217
-11.6291
-13.6812
-15.608
-17.2868
-18.5156
-18.9799
-18.2303
-15.715
-10.9603
-4.00672
-0.953514
-2.85884
-4.75777
-6.6416
-8.49402
-10.2863
-11.9702
-13.4684
-14.6617
-15.3742
-15.3632
-14.3262
-11.9555
-8.07679
-2.88038
-0.855385
-2.56102
-4.24994
-5.90649
-7.50761
-9.01867
-10.388
-11.5406
-12.3704
-12.7354
-12.459
-11.3482
-9.24327
-6.10833
-2.14593
-0.760819
-2.27479
-3.76456
-5.20984
-6.58372
-7.84942
-8.95645
-9.83679
-10.4017
-10.5419
-10.1341
-9.06051
-7.24626
-4.71448
-1.64027
-0.671571
-2.00537
-3.31008
-4.56274
-5.73493
-6.7903
-7.68225
-8.35199
-8.72807
-8.72904
-8.27162
-7.28712
-5.74753
-3.69731
-1.27788
-0.588812
-1.75614
-2.89171
-3.97151
-4.96723
-5.84465
-6.56233
-7.07107
-7.31484
-7.23444
-6.77511
-5.89919
-4.60336
-2.93652
-1.01014
-0.5132
-1.52895
-2.51207
-3.43866
-4.28167
-5.0099
-5.58749
-5.97412
-6.12669
-6.00294
-5.56786
-4.80286
-3.71681
-2.35597
-0.807611
-0.444986
-1.3244
-2.17167
-2.96384
-3.67579
-4.27975
-4.74523
-5.0397
-5.1304
-4.98763
-4.5897
-3.92944
-3.02109
-1.90562
-0.651512
-0.384103
-1.14217
-1.86953
-2.54471
-3.14488
-3.64575
-4.0217
-4.24675
-4.29622
-4.14949
-3.79371
-3.22829
-2.46918
-1.55155
-0.529377
-0.330254
-0.981271
-1.60363
-2.17764
-2.68294
-3.09847
-3.40295
-3.57571
-3.59828
-3.45649
-3.14327
-2.66165
-2.02734
-1.27006
-0.432644
-0.282996
-0.840266
-1.37128
-1.8583
-2.28332
-2.62831
-2.87564
-3.00897
-3.01446
-2.88253
-2.60978
-2.20103
-1.67088
-1.04423
-0.355262
-0.241795
-0.71749
-1.16949
-1.58199
-1.93926
-2.22594
-2.4275
-2.53099
-2.52607
-2.40634
-2.17071
-1.82471
-1.38144
-0.861656
-0.292851
-0.206073
-0.611165
-0.99513
-1.34403
-1.64422
-1.88269
-2.04746
-2.12827
-2.1174
-2.01064
-1.80827
-1.51593
-1.14512
-0.713128
-0.242171
-0.17525
-0.51951
-0.845116
-1.13988
-1.39204
-1.5906
-1.72571
-1.78921
-1.77532
-1.68132
-1.5083
-1.26163
-0.95129
-0.591655
-0.200786
-0.148761
-0.440808
-0.716518
-0.965305
-1.17709
-1.34258
-1.45368
-1.50388
-1.48885
-1.40688
-1.25946
-1.05154
-0.79169
-0.49187
-0.166831
-0.126072
-0.373449
-0.606614
-0.816426
-0.994268
-1.13233
-1.22392
-1.26386
-1.24885
-1.1779
-1.05263
-0.877506
-0.659843
-0.409598
-0.138863
-0.106695
-0.315956
-0.512926
-0.689744
-0.839071
-0.95434
-1.03003
-1.06199
-1.0477
-0.986634
-0.880421
-0.733008
-0.550622
-0.341552
-0.115751
-0.0901856
-0.266998
-0.433231
-0.582151
-0.707523
-0.803832
-0.866516
-0.89222
-0.879036
-0.826713
-0.736817
-0.612796
-0.459927
-0.285123
-0.096598
-0.0761467
-0.225387
-0.365556
-0.490908
-0.596156
-0.67667
-0.728675
-0.749456
-0.737546
-0.692881
-0.616908
-0.512615
-0.384464
-0.238223
-0.0806877
-0.064228
-0.190073
-0.308169
-0.413624
-0.501964
-0.569303
-0.612514
-0.629391
-0.618799
-0.580788
-0.516665
-0.429
-0.321561
-0.199164
-0.067444
-0.054122
-0.160141
-0.259559
-0.348223
-0.422353
-0.47869
-0.514638
-0.5284
-0.519091
-0.486826
-0.432767
-0.359114
-0.269044
-0.16658
-0.0563997
-0.045561
-0.134792
-0.218415
-0.292913
-0.355097
-0.402234
-0.432167
-0.443427
-0.435321
-0.407997
-0.362474
-0.300628
-0.225134
-0.139352
-0.0471743
-0.0383131
-0.113336
-0.183608
-0.246155
-0.298289
-0.337723
-0.362662
-0.371902
-0.364896
-0.341805
-0.303515
-0.251619
-0.188367
-0.116566
-0.0394558
-0.0321784
-0.0951796
-0.154165
-0.206625
-0.250301
-0.283275
-0.304057
-0.311657
-0.30564
-0.286167
-0.254003
-0.210496
-0.157536
-0.0974676
-0.0329877
-0.0269849
-0.0798115
-0.129252
-0.173195
-0.209744
-0.237294
-0.254606
-0.260866
-0.255727
-0.239342
-0.212365
-0.175937
-0.13164
-0.081432
-0.0275581
-0.0225852
-0.0667943
-0.108157
-0.1449
-0.175434
-0.19842
-0.212829
-0.217989
-0.213623
-0.199871
-0.177291
-0.146842
-0.109848
-0.067942
-0.0229912
-0.0188531
-0.0557536
-0.090269
-0.120916
-0.146365
-0.165503
-0.177474
-0.181726
-0.178036
-0.166531
-0.14768
-0.122291
-0.0914664
-0.0565663
-0.0191406
-0.0156804
-0.046369
-0.0750676
-0.10054
-0.12168
-0.137562
-0.147479
-0.150977
-0.147877
-0.138289
-0.122611
-0.101513
-0.0759152
-0.0469443
-0.0158839
-0.0129746
-0.038366
-0.0621066
-0.0831712
-0.100645
-0.113762
-0.121941
-0.124809
-0.122223
-0.114277
-0.101303
-0.0838598
-0.0627063
-0.038773
-0.0131186
-0.0106562
-0.0315093
-0.0510037
-0.0682961
-0.0826349
-0.0933922
-0.100091
-0.102429
-0.10029
-0.0937558
-0.0831002
-0.0687827
-0.0514274
-0.0317969
-0.0107579
-0.00865658
-0.025596
-0.0414297
-0.0554719
-0.0671118
-0.0758397
-0.0812696
-0.0831568
-0.0814098
-0.0760959
-0.0674397
-0.0558148
-0.0417283
-0.0257987
-0.00872827
-0.0069165
-0.0204504
-0.0330997
-0.0443158
-0.0536106
-0.0605771
-0.0649078
-0.0664081
-0.0650061
-0.0607568
-0.0538405
-0.0445563
-0.0333091
-0.0205925
-0.00696677
-0.00538408
-0.0159192
-0.0257648
-0.0344938
-0.0417259
-0.0471447
-0.0505112
-0.0516745
-0.0505794
-0.0472694
-0.0418855
-0.0346606
-0.0259101
-0.0160178
-0.00541896
-0.00401348
-0.0118666
-0.0192053
-0.0257111
-0.0311004
-0.0351375
-0.0376444
-0.038509
-0.0376907
-0.0352221
-0.0312087
-0.0258243
-0.019304
-0.0119335
-0.00403717
-0.00276363
-0.0081711
-0.0132242
-0.0177035
-0.0214138
-0.0241927
-0.0259178
-0.0265122
-0.0259478
-0.0242475
-0.0214839
-0.0177768
-0.0132881
-0.00821443
-0.00277896
-0.00159696
-0.00472167
-0.00764161
-0.0102299
-0.0123739
-0.0139796
-0.0149765
-0.0153199
-0.0149937
-0.0140112
-0.0124142
-0.0102721
-0.00767833
-0.00474659
-0.00160578
-0.000478366
-0.00141441
-0.00228924
-0.00306493
-0.0037077
-0.00418942
-0.00448882
-0.00459246
-0.0044954
-0.00420144
-0.00372309
-0.00308102
-0.00230325
-0.00142391
-0.000481729
0.000625864
0.00185035
0.00299427
0.00400778
0.00484665
0.0054742
0.00586289
0.00599555
0.00586619
0.00548023
0.00485437
0.00401585
0.00300129
0.00185512
0.000627551
0.00174901
0.00517104
0.00836833
0.0112017
0.0135477
0.0153037
0.0163923
0.0167655
0.0164059
0.0153285
0.0135795
0.0112349
0.00839722
0.00519065
0.00175595
0.00292492
0.00864777
0.013995
0.0187341
0.0226585
0.0255964
0.0274186
0.0280442
0.0274441
0.0256429
0.022718
0.0187964
0.0140493
0.00868458
0.00293794
0.00418901
0.0123853
0.020044
0.0268322
0.0324542
0.0366638
0.0392758
0.0401739
0.0393162
0.0367376
0.0325487
0.0269311
0.0201301
0.0124437
0.00420968
0.00557929
0.016496
0.0266974
0.0357402
0.0432304
0.0488404
0.052323
0.0535227
0.0523832
0.0489505
0.0433713
0.0358875
0.0268256
0.0165831
0.00561009
0.00713751
0.0211035
0.0341552
0.0457261
0.0553123
0.0624942
0.0669552
0.0684956
0.0670425
0.0626537
0.0555164
0.0459395
0.034341
0.0212296
0.00718213
0.00891034
0.0263457
0.0426411
0.05709
0.0690635
0.0780373
0.0836153
0.0855471
0.0837401
0.0782654
0.0693553
0.0573952
0.0429069
0.026526
0.00897414
0.0109507
0.0323793
0.0524092
0.0701728
0.0848974
0.0959382
0.102807
0.105194
0.102984
0.0962622
0.085312
0.0706064
0.0527868
0.0326356
0.0110414
0.0133194
0.0393842
0.063751
0.0853657
0.103289
0.116736
0.125111
0.128034
0.125362
0.117195
0.103876
0.0859798
0.0642857
0.0397471
0.0134477
0.0160865
0.0475681
0.0770035
0.103122
0.124789
0.141055
0.151199
0.154758
0.151554
0.141704
0.125619
0.10399
0.0777595
0.0480812
0.016268
0.0193338
0.0571727
0.0925591
0.123968
0.150038
0.169626
0.18186
0.186179
0.182362
0.170543
0.151211
0.125195
0.0936273
0.0578977
0.0195903
0.0231565
0.0684803
0.110876
0.148522
0.179788
0.203303
0.218017
0.223249
0.218725
0.204597
0.181445
0.150255
0.112385
0.0695042
0.0235186
0.0276659
0.0818208
0.132491
0.177507
0.21492
0.243091
0.260757
0.267092
0.261757
0.244919
0.217259
0.179953
0.134621
0.0832665
0.0281773
0.0329924
0.0975807
0.158033
0.211769
0.25647
0.290173
0.311363
0.319039
0.312775
0.292754
0.259772
0.215222
0.16104
0.0996218
0.0337144
0.0392885
0.116212
0.188238
0.252305
0.305655
0.345945
0.371353
0.380665
0.373346
0.349587
0.310317
0.25718
0.192484
0.119094
0.0403079
0.0467325
0.138245
0.223969
0.300282
0.363907
0.412049
0.442519
0.453838
0.445333
0.417192
0.370489
0.307165
0.229963
0.142313
0.0481716
0.0555323
0.164296
0.266236
0.357069
0.43291
0.490425
0.526981
0.540775
0.530953
0.497684
0.442201
0.366786
0.274698
0.17004
0.0575641
0.0659298
0.195084
0.316213
0.424265
0.514637
0.583354
0.627247
0.644111
0.632854
0.593601
0.527753
0.437983
0.32816
0.203194
0.0687985
0.0782055
0.231446
0.375271
0.503737
0.611399
0.69352
0.746279
0.766972
0.754195
0.707984
0.629914
0.523103
0.392138
0.242895
0.082256
0.092683
0.274343
0.444994
0.597655
0.725896
0.824073
0.887576
0.913074
0.898748
0.844489
0.752031
0.624993
0.468808
0.29051
0.0984022
0.109733
0.324886
0.527208
0.708528
0.861266
0.978701
1.05526
1.08683
1.07103
1.00752
0.898158
0.747123
0.56083
0.347713
0.11781
0.129779
0.384336
0.624003
0.839246
1.02115
1.16171
1.25419
1.29347
1.27644
1.20238
1.07322
0.893734
0.671478
0.416573
0.141185
0.153298
0.454126
0.737757
0.993114
1.20973
1.37811
1.49005
1.5392
1.52145
1.4355
1.28324
1.07004
0.804797
0.499655
0.169408
0.180823
0.535854
0.871144
1.17388
1.43182
1.63368
1.76953
1.83138
1.81382
1.71466
1.53556
1.28248
0.96582
0.600168
0.203583
0.212939
0.63129
1.02713
1.38574
1.69285
1.93508
2.10038
2.1787
2.16284
2.04932
1.83925
1.53907
1.16086
0.72216
0.245103
0.250281
0.742353
1.20898
1.63335
1.99894
2.2899
2.49161
2.59141
2.57968
2.45102
2.20552
1.84984
1.3979
0.870787
0.295752
0.293519
0.87108
1.42018
1.92176
2.35683
2.7067
2.9536
3.08156
3.07771
2.93385
2.64828
2.22745
1.68714
1.05269
0.357838
0.343337
1.01957
1.66436
2.25636
2.77388
3.195
3.49818
3.66324
3.67294
3.51507
3.18496
2.68802
2.04175
1.27652
0.434386
0.400405
1.1899
1.94518
2.64268
3.25786
3.76519
4.13865
4.35279
4.38453
4.2159
3.83749
3.25227
2.47895
1.55377
0.529427
0.465332
1.38397
2.26612
3.08616
3.81671
4.42832
4.88976
5.16899
5.23524
5.06238
4.63361
3.94713
3.02161
1.89987
0.648434
0.538608
1.60337
2.63018
3.59178
4.45813
5.19571
5.76737
6.13306
6.25197
6.08655
5.60869
4.80796
3.70051
2.33602
0.798992
0.620528
1.84913
3.03952
4.16353
5.18895
6.07831
6.78799
7.26848
7.46613
7.32765
6.80796
5.88178
4.55789
2.89198
0.991879
0.711096
2.1214
3.49496
4.80371
6.01424
7.08564
7.96775
8.60027
8.91368
8.83346
8.28947
7.23178
5.65277
3.61055
1.24286
0.809921
2.41917
3.99537
5.51209
6.93613
8.22439
9.3208
10.1536
10.6345
10.6613
10.1277
8.94376
7.06931
4.55513
1.5758
0.916094
2.7399
4.53707
6.28481
7.95226
9.49633
10.8568
11.9513
12.6707
12.8783
12.4174
11.1352
8.93009
5.8227
2.02838
1.02809
3.0791
5.11307
7.11326
9.05405
10.8957
12.5776
14.0095
15.0623
15.5594
15.2774
13.9676
11.4174
7.56728
2.66322
1.14366
3.43011
5.7125
7.98294
10.2246
12.406
14.4718
16.331
17.8397
18.7814
18.8512
17.6614
14.8073
10.0437
3.59136
1.25983
3.78394
6.32022
8.87254
11.4371
13.9964
16.5094
18.8957
21.0107
22.6089
23.2996
22.511
19.5231
13.693
5.02665
1.3729
4.12929
6.91676
9.7536
12.6532
15.6189
18.635
21.6489
24.5404
27.0665
28.7752
28.8878
26.2126
19.3117
7.42509
1.47863
4.45303
7.47898
10.5911
13.8232
17.2064
20.762
24.4871
28.3237
32.0918
35.3591
37.2003
35.8366
28.3926
11.8815
1.57245
4.74096
7.98137
11.345
14.8884
18.6742
22.771
27.2479
32.1543
37.4647
42.9333
47.7381
49.6829
43.77
21.3739
1.64985
4.97893
8.39811
11.9742
15.7851
19.9258
24.5161
29.7104
35.7044
42.7275
50.9683
60.2619
68.9857
70.5938
44.9995
1.70685
5.15432
8.70584
12.4403
16.4528
20.865
25.8418
31.6173
38.5396
47.1444
58.2719
73.1811
93.2297
116.308
113.35
1.74038
5.25742
8.88648
12.7133
16.8428
21.4122
26.6127
32.7279
40.2062
49.8094
62.949
82.531
115.369
180.102
337.078
1.7487
5.28272
8.92972
12.7761
16.9273
21.5209
26.7482
32.8918
40.397
50.0183
63.1518
82.6746
115.36
179.837
336.678
1.73159
5.22954
8.83446
12.6272
16.7045
21.1895
26.2473
32.11
39.118
47.788
58.9172
73.6773
93.2727
115.429
111.501
1.69034
5.10204
8.60875
12.2806
16.1985
20.4603
25.1874
30.5329
36.6847
43.8497
52.1608
61.322
69.4065
69.135
38.457
-12.126
-9.89267
-8.21604
-6.91615
-5.86689
-4.99091
-4.23949
-3.58031
-2.99085
-2.45467
-1.95921
-1.4945
-1.05227
-0.625405
-0.207488
-4.55014
-6.31076
-6.23619
-5.69379
-5.0541
-4.42309
-3.82957
-3.27814
-2.76562
-2.28655
-1.83505
-1.40543
-0.992364
-0.590866
-0.196202
-2.07126
-4.00325
-4.58117
-4.53896
-4.23525
-3.82921
-3.39041
-2.94893
-2.51714
-2.09928
-1.69568
-1.30485
-0.924417
-0.551577
-0.183345
-1.12747
-2.63605
-3.35677
-3.56571
-3.48742
-3.25806
-2.95308
-2.61295
-2.25899
-1.90208
-1.54743
-1.19705
-0.85119
-0.509084
-0.169415
-0.701978
-1.81594
-2.48774
-2.79189
-2.84447
-2.73939
-2.54014
-2.28657
-2.00286
-1.7033
-1.39619
-1.0861
-0.775349
-0.464897
-0.1549
-0.477862
-1.30289
-1.87402
-2.19276
-2.31099
-2.28611
-2.1649
-1.98112
-1.7577
-1.50977
-1.24702
-0.975601
-0.699295
-0.420389
-0.140249
-0.344505
-0.966144
-1.43555
-1.73286
-1.87686
-1.89971
-1.83311
-1.70317
-1.52957
-1.3265
-1.10386
-0.868489
-0.625043
-0.376734
-0.125846
-0.257929
-0.735114
-1.11657
-1.37941
-1.52687
-1.57541
-1.54529
-1.45552
-1.3219
-1.15681
-0.969543
-0.766976
-0.554163
-0.334867
-0.112002
-0.19821
-0.570556
-0.879956
-1.10608
-1.24555
-1.30572
-1.29889
-1.2383
-1.13608
-1.00251
-0.845842
-0.672573
-0.487781
-0.295477
-0.0989466
-0.155206
-0.449707
-0.701163
-0.892935
-1.01928
-1.08256
-1.08982
-1.04997
-0.972034
-0.864244
-0.733662
-0.586168
-0.426612
-0.25902
-0.0868372
-0.123249
-0.358747
-0.563814
-0.725215
-0.836793
-0.898302
-0.913456
-0.888074
-0.828711
-0.7418
-0.63322
-0.508136
-0.37102
-0.225748
-0.0757633
-0.0989315
-0.288918
-0.456783
-0.592089
-0.689072
-0.746226
-0.765234