/*--------------------------------*- C++ -*----------------------------------*\
| =========                 |                                                 |
| \\      /  F ield         | OpenFOAM: The Open Source CFD Toolbox           |
|  \\    /   O peration     | Version:  5.x                                   |
|   \\  /    A nd           | Web:      www.OpenFOAM.org                      |
|    \\/     M anipulation  |                                                 |
\*---------------------------------------------------------------------------*/
FoamFile
{
    version     2.0;
    format      ascii;
    class       volScalarField;
    location    "3.5001";
    object      gradTy;
}
// * * * * * * * * * * * * * * * * * * * * * * * * * * * * * * * * * * * * * //

dimensions      [0 -1 0 1 0 0 0];

internalField   nonuniform List<scalar> 
2048
(
-27.5091
-27.4752
-27.4086
-27.3111
-27.1855
-27.0352
-26.8637
-26.6746
-26.4713
-26.2572
-26.0352
-25.8079
-25.5774
-25.3458
-25.1148
-24.8856
-24.6596
-24.4375
-24.22
-24.0075
-23.8004
-23.5988
-23.4026
-23.2118
-23.0264
-22.8461
-22.671
-22.501
-22.336
-22.1759
-22.0208
-21.8708
-21.726
-21.5865
-21.4525
-21.3243
-21.202
-21.0859
-20.9762
-20.8732
-20.777
-20.688
-20.6064
-20.5326
-20.4669
-20.4096
-20.3611
-20.3218
-20.2917
-20.2709
-20.2594
-20.2569
-20.2628
-20.2763
-20.2964
-20.3217
-20.3506
-20.3815
-20.4124
-20.4416
-20.4673
-20.4881
-20.5026
-20.5101
-27.5365
-27.5018
-27.4335
-27.3338
-27.2056
-27.0524
-26.8779
-26.686
-26.4801
-26.2637
-26.0396
-25.8104
-25.5783
-25.3454
-25.1132
-24.8832
-24.6564
-24.4337
-24.2159
-24.0032
-23.796
-23.5943
-23.3982
-23.2075
-23.0221
-22.842
-22.667
-22.497
-22.3319
-22.1718
-22.0167
-21.8666
-21.7217
-21.582
-21.4479
-21.3194
-21.197
-21.0807
-20.9708
-20.8676
-20.7712
-20.6819
-20.6001
-20.526
-20.46
-20.4025
-20.3538
-20.3142
-20.2841
-20.2634
-20.2521
-20.25
-20.2566
-20.271
-20.2921
-20.3187
-20.349
-20.3814
-20.4138
-20.4444
-20.4713
-20.493
-20.5082
-20.5161
-27.5889
-27.5526
-27.4811
-27.377
-27.2436
-27.0849
-26.9048
-26.7074
-26.4966
-26.2756
-26.0475
-25.8149
-25.5799
-25.3444
-25.1101
-24.8783
-24.6502
-24.4265
-24.208
-23.9949
-23.7876
-23.5859
-23.3899
-23.1993
-23.0141
-22.8341
-22.6592
-22.4893
-22.3243
-22.1642
-22.009
-21.8587
-21.7135
-21.5735
-21.4391
-21.3103
-21.1875
-21.0709
-20.9607
-20.857
-20.7603
-20.6705
-20.5882
-20.5135
-20.447
-20.3889
-20.3398
-20.2999
-20.2696
-20.249
-20.2382
-20.2369
-20.2447
-20.2607
-20.2839
-20.3129
-20.3459
-20.3812
-20.4164
-20.4497
-20.479
-20.5026
-20.5192
-20.5277
-27.6642
-27.6254
-27.5492
-27.4387
-27.2977
-27.1307
-26.9424
-26.7372
-26.5193
-26.292
-26.0583
-25.8209
-25.5817
-25.3427
-25.1054
-24.8712
-24.6411
-24.4161
-24.1967
-23.9831
-23.7756
-23.574
-23.3781
-23.1878
-23.0028
-22.8231
-22.6484
-22.4786
-22.3137
-22.1535
-21.9981
-21.8476
-21.702
-21.5616
-21.4267
-21.2974
-21.1741
-21.057
-20.9463
-20.8422
-20.7449
-20.6545
-20.5714
-20.496
-20.4286
-20.3698
-20.3199
-20.2795
-20.249
-20.2285
-20.2183
-20.2181
-20.2275
-20.2459
-20.272
-20.3045
-20.3415
-20.3809
-20.4203
-20.4575
-20.4903
-20.5167
-20.5351
-20.5446
-27.7608
-27.7186
-27.6361
-27.5169
-27.3657
-27.188
-26.9891
-26.7739
-26.5469
-26.3117
-26.0711
-25.8277
-25.5834
-25.34
-25.099
-24.8617
-24.6293
-24.4026
-24.1821
-23.968
-23.7604
-23.5589
-23.3633
-23.1734
-22.9888
-22.8093
-22.6349
-22.4653
-22.3004
-22.1402
-21.9847
-21.8338
-21.6878
-21.5468
-21.4112
-21.2813
-21.1574
-21.0397
-20.9284
-20.8237
-20.7257
-20.6346
-20.5506
-20.4741
-20.4057
-20.3458
-20.2949
-20.2538
-20.2229
-20.2025
-20.1928
-20.1939
-20.2055
-20.2267
-20.2566
-20.2936
-20.3357
-20.3805
-20.4254
-20.4678
-20.5051
-20.5351
-20.556
-20.5668
-27.8776
-27.831
-27.7404
-27.6101
-27.4462
-27.2551
-27.0431
-26.8159
-26.5781
-26.3335
-26.085
-25.8347
-25.5845
-25.336
-25.0907
-24.8499
-24.6147
-24.3861
-24.1645
-23.9499
-23.7422
-23.541
-23.3459
-23.1565
-22.9723
-22.7933
-22.6191
-22.4498
-22.2851
-22.1249
-21.9691
-21.8178
-21.6712
-21.5295
-21.3931
-21.2624
-21.1378
-21.0194
-20.9075
-20.8021
-20.7034
-20.6113
-20.5263
-20.4486
-20.3788
-20.3175
-20.2654
-20.2233
-20.1917
-20.1713
-20.1623
-20.1648
-20.1787
-20.2034
-20.2378
-20.2802
-20.3285
-20.38
-20.4317
-20.4805
-20.5233
-20.5578
-20.5818
-20.5942
-28.0138
-27.9618
-27.861
-27.7171
-27.5376
-27.3303
-27.1028
-26.8616
-26.6116
-26.3566
-26.0992
-25.8414
-25.5846
-25.3305
-25.0803
-24.8355
-24.5974
-24.3667
-24.1438
-23.9289
-23.7214
-23.5208
-23.3263
-23.1375
-22.9539
-22.7753
-22.6016
-22.4325
-22.268
-22.1078
-21.9518
-21.8001
-21.6528
-21.5102
-21.3728
-21.2412
-21.1157
-20.9966
-20.884
-20.778
-20.6784
-20.5854
-20.4991
-20.4199
-20.3485
-20.2855
-20.2319
-20.1885
-20.1561
-20.1354
-20.1269
-20.1309
-20.1474
-20.1759
-20.2154
-20.2642
-20.3199
-20.3794
-20.4392
-20.4956
-20.5452
-20.585
-20.6127
-20.6268
-28.1692
-28.1104
-27.9971
-27.8367
-27.6383
-27.412
-27.1666
-26.9095
-26.6461
-26.3798
-26.1131
-25.8472
-25.5835
-25.3233
-25.0678
-24.8187
-24.5772
-24.3442
-24.1203
-23.9052
-23.6982
-23.4984
-23.3049
-23.1169
-22.9339
-22.7558
-22.5825
-22.4138
-22.2495
-22.0894
-21.9332
-21.781
-21.6328
-21.4891
-21.3506
-21.2179
-21.0915
-20.9716
-20.8584
-20.7517
-20.6514
-20.5573
-20.4696
-20.3888
-20.3154
-20.2504
-20.1949
-20.1499
-20.1163
-20.0951
-20.087
-20.0925
-20.1117
-20.1444
-20.1896
-20.2456
-20.3098
-20.3786
-20.448
-20.5134
-20.5709
-20.6167
-20.6486
-20.6649
-28.3436
-28.2767
-28.1482
-27.9677
-27.7471
-27.4986
-27.2329
-26.9582
-26.6803
-26.4023
-26.1259
-25.8519
-25.581
-25.3143
-25.0531
-24.7991
-24.554
-24.3188
-24.0939
-23.8789
-23.6728
-23.4742
-23.2819
-23.0948
-22.9126
-22.735
-22.5621
-22.3939
-22.23
-22.0701
-21.9138
-21.7609
-21.6117
-21.4667
-21.3268
-21.1928
-21.0654
-20.9448
-20.831
-20.7238
-20.6227
-20.5276
-20.4384
-20.3556
-20.28
-20.2127
-20.1549
-20.1079
-20.0728
-20.0508
-20.0428
-20.0496
-20.0715
-20.1086
-20.1601
-20.2242
-20.298
-20.3776
-20.4581
-20.534
-20.6004
-20.6533
-20.6898
-20.7084
-28.5375
-28.4606
-28.3136
-28.1092
-27.8624
-27.5884
-27.2999
-27.0061
-26.713
-26.4231
-26.1372
-25.8551
-25.5769
-25.3034
-25.036
-24.7769
-24.5279
-24.2904
-24.0647
-23.8502
-23.6455
-23.4485
-23.2577
-23.0718
-22.8904
-22.7133
-22.5408
-22.3731
-22.2097
-22.0501
-21.8937
-21.7402
-21.5898
-21.4432
-21.3017
-21.1662
-21.0376
-20.9163
-20.8021
-20.6946
-20.5929
-20.4967
-20.406
-20.321
-20.2428
-20.1727
-20.1122
-20.0628
-20.0259
-20.0027
-19.9946
-20.0024
-20.027
-20.0686
-20.1267
-20.1997
-20.2845
-20.3763
-20.4695
-20.5574
-20.6341
-20.6948
-20.7364
-20.7575
-28.7513
-28.6622
-28.4931
-28.2602
-27.9828
-27.6797
-27.3659
-27.0518
-26.7431
-26.4416
-26.1466
-25.8567
-25.5713
-25.2907
-25.0167
-24.7519
-24.4987
-24.2588
-24.0327
-23.8192
-23.6164
-23.4217
-23.2328
-23.0482
-22.8675
-22.6908
-22.5187
-22.3516
-22.1889
-22.0299
-21.8734
-21.7192
-21.5673
-21.4189
-21.2753
-21.1382
-21.0084
-20.8865
-20.7721
-20.6644
-20.5624
-20.4652
-20.3728
-20.2854
-20.2043
-20.131
-20.0673
-20.0151
-19.9759
-19.9512
-19.9425
-19.9511
-19.978
-20.0241
-20.0893
-20.1719
-20.2688
-20.3746
-20.4823
-20.584
-20.6722
-20.7414
-20.7885
-20.8123
-28.9858
-28.882
-28.6863
-28.4196
-28.1067
-27.7706
-27.4291
-27.0936
-26.7696
-26.4571
-26.1539
-25.8568
-25.5642
-25.2763
-24.9952
-24.724
-24.4663
-24.224
-23.9977
-23.786
-23.5859
-23.3941
-23.2075
-23.0243
-22.8442
-22.6677
-22.4959
-22.3294
-22.1678
-22.0096
-21.8533
-21.6983
-21.5448
-21.394
-21.248
-21.1088
-20.9778
-20.8554
-20.7411
-20.6336
-20.5315
-20.4335
-20.3392
-20.2492
-20.1647
-20.0877
-20.0205
-19.965
-19.9231
-19.8966
-19.8869
-19.8958
-19.9248
-19.9752
-20.0475
-20.1406
-20.2508
-20.3722
-20.4965
-20.6138
-20.7149
-20.7934
-20.8463
-20.8726
-29.2422
-29.1204
-28.8929
-28.5864
-28.2323
-27.8592
-27.4878
-27.1302
-26.7912
-26.4692
-26.1589
-25.8554
-25.556
-25.2605
-24.9715
-24.6933
-24.4305
-24.1858
-23.9597
-23.7505
-23.5542
-23.3661
-23.1822
-23.0005
-22.8208
-22.6441
-22.4724
-22.3068
-22.1466
-21.9896
-21.8337
-21.6778
-21.5223
-21.3687
-21.2198
-21.0783
-20.9459
-20.8231
-20.7093
-20.6026
-20.5007
-20.402
-20.3059
-20.2128
-20.1245
-20.0434
-19.9721
-19.9129
-19.8679
-19.839
-19.828
-19.8367
-19.8672
-19.9217
-20.0012
-20.1053
-20.2302
-20.3691
-20.5122
-20.6473
-20.7628
-20.8511
-20.9096
-20.9384
-29.5216
-29.3784
-29.1128
-28.7593
-28.3579
-27.9436
-27.54
-27.1599
-26.8072
-26.4773
-26.1619
-25.853
-25.547
-25.2436
-24.9457
-24.6595
-24.3912
-24.144
-23.9187
-23.713
-23.5216
-23.3381
-23.1574
-22.9772
-22.7975
-22.6202
-22.4482
-22.2836
-22.1254
-21.9702
-21.8149
-21.6581
-21.5002
-21.3432
-21.1907
-21.0465
-20.9126
-20.7897
-20.6768
-20.5715
-20.4704
-20.3711
-20.273
-20.1767
-20.0841
-19.9982
-19.9223
-19.859
-19.8106
-19.779
-19.766
-19.7739
-19.8054
-19.8633
-19.95
-20.0656
-20.2064
-20.3649
-20.5295
-20.6849
-20.8162
-20.9146
-20.9784
-21.0094
-29.8258
-29.6566
-29.3458
-28.9371
-28.4813
-28.0216
-27.5839
-27.1813
-26.8166
-26.4815
-26.1629
-25.8499
-25.5377
-25.226
-24.9181
-24.6226
-24.3481
-24.0984
-23.8744
-23.6734
-23.4884
-23.3107
-23.1335
-22.9547
-22.7747
-22.5959
-22.4231
-22.2599
-22.1043
-21.9517
-21.7973
-21.6396
-21.4789
-21.3176
-21.1607
-21.0134
-20.8779
-20.7552
-20.6439
-20.5406
-20.4409
-20.3413
-20.2411
-20.1412
-20.0437
-19.9523
-19.8714
-19.8037
-19.7514
-19.7167
-19.7014
-19.7078
-19.7394
-19.8001
-19.8936
-20.0211
-20.1791
-20.3593
-20.5484
-20.727
-20.8756
-20.9842
-21.0528
-21.0854
-30.1565
-29.956
-29.5918
-29.1183
-28.6002
-28.091
-27.6176
-27.1929
-26.8186
-26.4814
-26.1627
-25.8468
-25.5286
-25.2083
-24.8888
-24.5823
-24.301
-24.0488
-23.8266
-23.6317
-23.4548
-23.2842
-23.1111
-22.9334
-22.7526
-22.5713
-22.397
-22.2353
-22.0835
-21.9344
-21.7813
-21.6225
-21.4587
-21.2921
-21.1298
-20.9789
-20.8418
-20.7194
-20.6105
-20.5102
-20.4126
-20.3129
-20.2106
-20.1067
-20.0035
-19.906
-19.8196
-19.7471
-19.6907
-19.6525
-19.6344
-19.6387
-19.6693
-19.7318
-19.8316
-19.9714
-20.1477
-20.3518
-20.5689
-20.7743
-20.9419
-21.0603
-21.1323
-21.1656
-30.5161
-30.2776
-29.8506
-29.3012
-28.7122
-28.1497
-27.6393
-27.1932
-26.8126
-26.4774
-26.1618
-25.8442
-25.5205
-25.1911
-24.858
-24.5383
-24.2497
-23.9949
-23.7749
-23.5881
-23.4214
-23.2595
-23.0906
-22.9138
-22.7315
-22.5462
-22.3692
-22.2097
-22.0629
-21.9186
-21.7671
-21.6072
-21.44
-21.2668
-21.0977
-20.9429
-20.8041
-20.6823
-20.5767
-20.4806
-20.3859
-20.2863
-20.1816
-20.0736
-19.9638
-19.8593
-19.7671
-19.6895
-19.6286
-19.5868
-19.5654
-19.5668
-19.5955
-19.6585
-19.7637
-19.9159
-20.1117
-20.3418
-20.5909
-20.8277
-21.0158
-21.1429
-21.2167
-21.2496
-30.9069
-30.6223
-30.1223
-29.4839
-28.814
-28.1957
-27.6475
-27.1805
-26.7979
-26.4698
-26.1613
-25.843
-25.5137
-25.1755
-24.8258
-24.4901
-24.194
-23.9365
-23.719
-23.5423
-23.3884
-23.2372
-23.0725
-22.8961
-22.7119
-22.5205
-22.3392
-22.1826
-22.0428
-21.905
-21.7553
-21.5941
-21.4232
-21.2418
-21.0643
-20.9054
-20.7647
-20.6436
-20.5425
-20.452
-20.3614
-20.2618
-20.1546
-20.0421
-19.9249
-19.8122
-19.7139
-19.631
-19.5655
-19.52
-19.495
-19.4926
-19.5181
-19.5801
-19.6895
-19.8542
-20.0706
-20.3284
-20.6145
-20.8883
-21.0984
-21.2324
-21.3055
-21.3364
-31.332
-30.9908
-30.4071
-29.6644
-28.9022
-28.227
-27.6407
-27.1532
-26.774
-26.4589
-26.1625
-25.8437
-25.5089
-25.1625
-24.7926
-24.4369
-24.1338
-23.8734
-23.6583
-23.4944
-23.3564
-23.2183
-23.0573
-22.8806
-22.6945
-22.4942
-22.3061
-22.1538
-22.0232
-21.894
-21.746
-21.5833
-21.409
-21.2171
-21.029
-20.8661
-20.7235
-20.6029
-20.5079
-20.4247
-20.3395
-20.2398
-20.1298
-20.013
-19.8867
-19.7646
-19.6603
-19.572
-19.5014
-19.4523
-19.4235
-19.4167
-19.4374
-19.4965
-19.6085
-19.7858
-20.0237
-20.3105
-20.6392
-20.9577
-21.1912
-21.3291
-21.3979
-21.425
-31.7947
-31.3833
-30.7057
-29.8403
-28.9723
-28.2423
-27.6178
-27.1092
-26.7405
-26.4454
-26.1674
-25.8471
-25.5062
-25.154
-24.7584
-24.3773
-24.0691
-23.8056
-23.5917
-23.4444
-23.3258
-23.204
-23.0454
-22.8673
-22.6801
-22.4671
-22.2686
-22.1226
-22.0042
-21.8867
-21.7395
-21.5749
-21.3983
-21.1929
-20.9911
-20.8253
-20.6805
-20.5598
-20.4728
-20.3989
-20.3209
-20.2204
-20.1071
-19.9866
-19.8496
-19.7162
-19.6063
-19.5126
-19.4367
-19.3842
-19.3514
-19.3395
-19.3538
-19.4079
-19.5203
-19.7104
-19.9709
-20.2866
-20.6644
-21.0381
-21.2955
-21.4328
-21.4932
-21.5142
-32.2991
-31.7988
-31.0195
-30.009
-29.0186
-28.241
-27.5785
-27.0462
-26.6974
-26.4299
-26.1783
-25.8535
-25.5053
-25.1523
-24.7235
-24.3095
-24.0006
-23.7332
-23.518
-23.3921
-23.297
-23.1959
-23.0368
-22.8561
-22.6702
-22.4389
-22.2249
-22.0886
-21.9859
-21.8841
-21.736
-21.5687
-21.3923
-21.1692
-20.9494
-20.783
-20.6357
-20.5136
-20.4373
-20.3749
-20.3065
-20.2038
-20.0865
-19.9638
-19.8135
-19.6663
-19.5523
-19.4531
-19.3711
-19.3161
-19.2794
-19.2618
-19.2679
-19.3142
-19.4241
-19.6277
-19.9119
-20.2543
-20.6892
-21.1324
-21.4134
-21.5436
-21.5903
-21.6026
-32.8504
-32.2348
-31.3514
-30.1676
-29.0338
-28.2239
-27.5229
-26.9606
-26.6449
-26.4128
-26.1988
-25.8628
-25.5051
-25.161
-24.6881
-24.2302
-23.9292
-23.6568
-23.4353
-23.338
-23.2702
-23.196
-23.0317
-22.846
-22.6669
-22.4096
-22.1724
-22.0515
-21.9683
-21.8879
-21.7353
-21.5639
-21.393
-21.146
-20.9023
-20.74
-20.5894
-20.463
-20.4014
-20.3527
-20.2975
-20.1899
-20.0676
-19.9458
-19.7785
-19.6141
-19.4985
-19.3939
-19.3048
-19.2485
-19.2078
-19.1841
-19.1802
-19.2159
-19.3193
-19.5375
-19.8475
-20.2107
-20.7119
-21.2448
-21.5468
-21.6611
-21.6879
-21.6889
-33.4552
-32.6857
-31.7066
-30.313
-29.0076
-28.1936
-27.4523
-26.8478
-26.5842
-26.3943
-26.2336
-25.8745
-25.5033
-25.1855
-24.6524
-24.1346
-23.8573
-23.5773
-23.3406
-23.2824
-23.2455
-23.2075
-23.0295
-22.8356
-22.6735
-22.379
-22.1076
-22.0112
-21.9512
-21.9007
-21.7369
-21.5594
-21.4033
-21.1235
-20.8469
-20.6973
-20.542
-20.4065
-20.3654
-20.3324
-20.2954
-20.1785
-20.0495
-19.9343
-19.7447
-19.558
-19.4457
-19.3352
-19.2372
-19.1817
-19.1372
-19.1072
-19.0913
-19.1133
-19.2045
-19.4397
-19.7791
-20.1517
-20.7295
-21.3812
-21.6981
-21.7844
-21.7845
-21.7716
-34.1221
-33.1413
-32.0939
-30.442
-28.9262
-28.1561
-27.3688
-26.7008
-26.5175
-26.3732
-26.2896
-25.8872
-25.4955
-25.2335
-24.6164
-24.0157
-23.7887
-23.4962
-23.2295
-23.2268
-23.222
-23.2345
-23.0292
-22.8221
-22.695
-22.3471
-22.0255
-21.9684
-21.9337
-21.9258
-21.7402
-21.5527
-21.4272
-21.1016
-20.7795
-20.6571
-20.4943
-20.3417
-20.3301
-20.3133
-20.3025
-20.1691
-20.0306
-19.9317
-19.7121
-19.4958
-19.3949
-19.2777
-19.1676
-19.1167
-19.068
-19.0321
-19.0018
-19.0072
-19.0782
-19.334
-19.7098
-20.0718
-20.738
-21.5501
-21.8693
-21.9123
-21.8784
-21.8492
-34.8631
-33.5846
-32.5277
-30.5511
-28.7702
-28.1218
-27.2764
-26.5093
-26.4496
-26.3467
-26.3766
-25.8982
-25.4746
-25.3167
-24.5803
-23.8628
-23.7299
-23.4158
-23.0956
-23.1737
-23.1977
-23.2831
-23.0293
-22.8008
-22.7387
-22.3138
-21.9193
-21.9251
-21.9142
-21.9685
-21.7435
-21.5399
-21.4711
-21.0802
-20.694
-20.6229
-20.4477
-20.2648
-20.2968
-20.2946
-20.3221
-20.1606
-20.0084
-19.9419
-19.6805
-19.4243
-19.348
-19.2219
-19.0948
-19.0542
-19.0004
-18.9597
-18.9125
-18.8988
-18.9379
-19.2203
-19.6448
-19.9634
-20.7308
-21.7632
-22.062
-22.0428
-21.9678
-21.9204
-35.6947
-33.9878
-33.0306
-30.6366
-28.5124
-28.1076
-27.1802
-26.2582
-26.3885
-26.3087
-26.5084
-25.9035
-25.4292
-25.4515
-24.5439
-23.6606
-23.6909
-23.3395
-22.9294
-23.1281
-23.1687
-23.3622
-23.0269
-22.7645
-22.8152
-22.279
-21.7794
-21.8852
-21.8893
-22.036
-21.7446
-21.5147
-21.5438
-21.0593
-20.5821
-20.6
-20.4038
-20.1708
-20.2681
-20.2738
-20.3591
-20.1516
-19.9789
-19.9704
-19.6497
-19.3387
-19.3079
-19.1686
-19.017
-18.9956
-18.9345
-18.891
-18.8238
-18.79
-18.7804
-19.0979
-19.5925
-19.8166
-20.6987
-22.0374
-22.2771
-22.173
-22.0506
-21.9839
-36.6399
-34.3083
-33.6374
-30.6946
-28.1151
-28.1394
-27.0877
-25.9259
-26.3483
-26.2481
-26.705
-25.8973
-25.3425
-25.662
-24.507
-23.3871
-23.6868
-23.2716
-22.7171
-23.0982
-23.1276
-23.4841
-23.0183
-22.7026
-22.9397
-22.2425
-21.5925
-21.8558
-21.8532
-22.139
-21.7403
-21.4681
-21.6584
-21.0387
-20.4317
-20.5968
-20.3649
-20.0519
-20.2487
-20.247
-20.42
-20.1399
-19.9365
-20.0249
-19.6195
-19.2322
-19.2789
-19.1187
-18.9311
-18.9431
-18.87
-18.8273
-18.7361
-18.6836
-18.601
-18.9653
-19.5661
-19.6185
-20.6279
-22.396
-22.5131
-22.2993
-22.1248
-22.0387
-37.7312
-34.4826
-34.3997
-30.7209
-27.5265
-28.2556
-27.0078
-25.481
-26.3513
-26.1456
-26.9943
-25.8711
-25.1896
-25.9814
-24.4688
-23.0119
-23.7401
-23.2177
-22.439
-23.0976
-23.0624
-23.6665
-22.9981
-22.5991
-23.1337
-22.2038
-21.3406
-21.8488
-21.7956
-22.2924
-21.7262
-21.3865
-21.8329
-21.018
-20.226
-20.6254
-20.3343
-19.8974
-20.2459
-20.2075
-20.5147
-20.1227
-19.8726
-20.1167
-19.5891
-19.0956
-19.2678
-19.0731
-18.833
-18.8996
-18.8058
-18.7703
-18.6491
-18.5843
-18.3935
-18.8194
-19.5846
-19.3523
-20.4995
-22.8713
-22.7656
-22.4169
-22.1887
-22.0841
-39.0133
-34.418
-35.3921
-30.7104
-26.6757
-28.5112
-26.9517
-24.8799
-26.4327
-25.9707
-27.4155
-25.8138
-24.9356
-26.4557
-24.4283
-22.4928
-23.8825
-23.185
-22.0678
-23.1476
-22.9533
-23.9343
-22.9591
-22.4318
-23.4265
-22.1619
-20.999
-21.8831
-21.7003
-22.5169
-21.6961
-21.2509
-22.0922
-20.9966
-19.942
-20.7033
-20.3156
-19.692
-20.2715
-20.1444
-20.6564
-20.0958
-19.7752
-20.2609
-19.5576
-18.9161
-19.284
-19.0328
-18.7167
-18.8698
-18.7402
-18.722
-18.5617
-18.4984
-18.1497
-18.655
-19.6752
-18.9964
-20.287
-23.5075
-23.0252
-22.5206
-22.2408
-22.1199
-40.548
-33.9837
-36.7201
-30.6568
-25.4685
-28.9828
-26.9324
-24.062
-26.6451
-25.676
-28.0225
-25.7105
-24.5321
-27.147
-24.3834
-21.7735
-24.1584
-23.1818
-21.5655
-23.2806
-22.7704
-24.3215
-22.8918
-22.1699
-23.8579
-22.1151
-20.5351
-21.9871
-21.5425
-22.8414
-21.6422
-21.0351
-22.47
-20.9733
-19.5486
-20.8546
-20.3136
-19.4149
-20.3432
-20.0415
-20.8638
-20.0541
-19.6282
-20.4786
-19.5234
-18.6768
-19.3409
-18.9987
-18.574
-18.8601
-18.6701
-18.6854
-18.4717
-18.4352
-17.8593
-18.4633
-19.8755
-18.5238
-19.9545
-24.3643
-23.2755
-22.6047
-22.2798
-22.1459
-42.4185
-32.9991
-38.5294
-30.5518
-23.7801
-29.7745
-26.9641
-22.9453
-27.0655
-25.1914
-28.8885
-25.5423
-23.9138
-28.138
-24.3311
-20.7793
-24.6281
-23.2179
-20.8809
-23.5438
-22.4695
-24.8745
-22.7841
-21.7718
-24.4809
-22.0603
-19.9054
-22.2025
-21.2849
-23.3049
-21.5543
-20.7036
-23.011
-20.9467
-19.005
-21.1126
-20.3336
-19.038
-20.4869
-19.8743
-21.1622
-19.9906
-19.4094
-20.7974
-19.4839
-18.3553
-19.4569
-18.9711
-18.3939
-18.88
-18.5904
-18.6644
-18.3747
-18.4078
-17.509
-18.2304
-20.2363
-17.901
-19.4539
-25.5208
-23.4897
-22.6639
-22.3053
-22.1626
-44.7359
-31.2202
-41.0168
-30.3836
-21.4491
-31.0249
-27.0623
-21.4209
-27.8028
-24.4161
-30.1116
-25.2849
-22.9943
-29.5361
-24.2666
-19.4131
-25.3718
-23.3044
-19.9455
-24.0046
-21.9869
-25.6553
-22.6203
-21.1822
-25.3642
-21.9927
-19.0531
-22.588
-20.8738
-23.9591
-21.4194
-20.2091
-23.7731
-20.9137
-18.2572
-21.5203
-20.3809
-18.5226
-20.7389
-19.6071
-21.5846
-19.8958
-19.0885
-21.2527
-19.4345
-17.9211
-19.6552
-18.9482
-18.1601
-18.9405
-18.4918
-18.6627
-18.2617
-18.4312
-17.0805
-17.9329
-20.8214
-17.0837
-18.7185
-27.0773
-23.6236
-22.6902
-22.3136
-22.1664
)
;

boundaryField
{
    left
    {
        type            calculated;
        value           nonuniform List<scalar> 
32
(
-27.5091
-27.5365
-27.5889
-27.6642
-27.7608
-27.8776
-28.0138
-28.1692
-28.3436
-28.5375
-28.7513
-28.9858
-29.2422
-29.5216
-29.8258
-30.1565
-30.5161
-30.9069
-31.332
-31.7947
-32.2991
-32.8504
-33.4552
-34.1221
-34.8631
-35.6947
-36.6399
-37.7312
-39.0133
-40.548
-42.4185
-44.7359
)
;
    }
    right
    {
        type            calculated;
        value           nonuniform List<scalar> 
32
(
-20.5101
-20.5161
-20.5277
-20.5446
-20.5668
-20.5942
-20.6268
-20.6649
-20.7084
-20.7575
-20.8123
-20.8726
-20.9384
-21.0094
-21.0854
-21.1656
-21.2496
-21.3364
-21.425
-21.5142
-21.6026
-21.6889
-21.7716
-21.8492
-21.9204
-21.9839
-22.0387
-22.0841
-22.1199
-22.1459
-22.1626
-22.1664
)
;
    }
    interface
    {
        type            calculated;
        value           nonuniform List<scalar> 
64
(
-46.0222
-30.0971
-42.4582
-30.282
-20.1003
-31.7845
-27.1299
-20.5412
-28.2667
-23.9411
-30.8264
-25.1307
-22.447
-30.352
-24.2307
-18.6235
-25.8236
-23.3616
-19.4055
-24.2941
-21.6907
-26.1114
-22.5223
-20.8317
-25.8805
-21.9549
-18.5633
-22.8318
-20.622
-24.3413
-21.3383
-19.9144
-24.2176
-20.8952
-17.8246
-21.7676
-20.412
-18.2248
-20.8971
-19.4432
-21.8314
-19.839
-18.8981
-21.5193
-19.4065
-17.6714
-19.7781
-18.9374
-18.0273
-18.9824
-18.4362
-18.6669
-18.1996
-18.4575
-16.844
-17.7642
-21.1787
-16.6201
-18.2822
-27.9691
-23.6635
-22.6937
-22.3124
-22.1642
)
;
    }
    bottom
    {
        type            calculated;
        value           nonuniform List<scalar> 
64
(
-27.502
-27.4683
-27.4021
-27.3052
-27.1803
-27.0307
-26.8599
-26.6716
-26.469
-26.2556
-26.0341
-25.8072
-25.5772
-25.3459
-25.1152
-24.8863
-24.6604
-24.4384
-24.221
-24.0086
-23.8016
-23.5999
-23.4037
-23.2129
-23.0275
-22.8472
-22.6721
-22.5021
-22.337
-22.177
-22.0219
-21.8719
-21.7271
-21.5877
-21.4537
-21.3255
-21.2033
-21.0873
-20.9776
-20.8746
-20.7785
-20.6896
-20.608
-20.5343
-20.4687
-20.4115
-20.3631
-20.3237
-20.2936
-20.2729
-20.2613
-20.2587
-20.2644
-20.2777
-20.2975
-20.3224
-20.351
-20.3815
-20.4121
-20.4409
-20.4663
-20.4868
-20.5011
-20.5085
)
;
    }
    defaultFaces
    {
        type            empty;
    }
}


// ************************************************************************* //
