/*--------------------------------*- C++ -*----------------------------------*\
| =========                 |                                                 |
| \\      /  F ield         | OpenFOAM: The Open Source CFD Toolbox           |
|  \\    /   O peration     | Version:  5.x                                   |
|   \\  /    A nd           | Web:      www.OpenFOAM.org                      |
|    \\/     M anipulation  |                                                 |
\*---------------------------------------------------------------------------*/
FoamFile
{
    version     2.0;
    format      ascii;
    class       volScalarField;
    location    "8.5";
    object      T;
}
// * * * * * * * * * * * * * * * * * * * * * * * * * * * * * * * * * * * * * //

dimensions      [0 0 0 1 0 0 0];

internalField   nonuniform List<scalar> 
6300
(
10.3264
10.9818
11.6444
12.3189
13.0098
13.7212
14.4565
15.2187
16.0097
16.8305
17.6809
18.5592
19.4624
20.386
21.3243
10.324
10.9745
11.6324
12.3025
12.9893
13.6971
14.4295
15.1897
15.9797
16.8008
17.6528
18.5342
19.4418
20.371
21.316
10.3191
10.9598
11.6082
12.2692
12.9477
13.6482
14.3747
15.1307
15.9186
16.7401
17.5952
18.4826
19.3992
20.3401
21.2988
10.3116
10.9374
11.5712
12.2184
12.8842
13.5733
14.2904
15.0395
15.8238
16.6454
17.5051
18.4017
19.3322
20.2912
21.2713
10.3013
10.9069
11.5209
12.1491
12.7971
13.4703
14.174
14.913
15.6915
16.5126
17.3778
18.2868
19.2364
20.2209
21.2315
10.2883
10.8678
11.4564
12.06
12.6847
13.3367
14.0222
14.747
15.5165
16.3355
17.2067
18.1309
19.1055
20.1242
21.1763
10.2722
10.8198
11.3768
11.9496
12.5449
13.1696
13.8309
14.536
15.2921
16.1058
16.9824
17.9244
18.9305
19.9938
21.1014
10.253
10.7623
11.2813
11.8167
12.3757
12.9659
13.5956
14.2738
15.0099
15.8132
16.6925
17.6536
18.6979
19.8189
21.0006
10.2306
10.6951
11.1693
11.6602
12.1752
12.7226
13.3119
13.9537
14.6602
15.4446
16.3205
17.2995
18.3883
19.5832
20.8646
10.205
10.6181
11.0407
11.4795
11.9421
12.4373
12.9754
13.5688
14.2325
14.9845
15.8451
16.8354
17.9725
19.2606
20.6789
10.1763
10.5317
10.8958
11.2749
11.6765
12.1091
12.5835
13.1134
13.7165
14.4156
15.2399
16.2243
17.4053
18.8078
20.4186
10.1447
10.4365
10.7357
11.048
11.3797
11.739
12.1361
12.5848
13.1042
13.7214
14.4745
15.4165
16.6164
18.1463
20.0349
10.1106
10.3338
10.5626
10.8015
11.0554
11.331
11.6369
11.9853
12.3942
12.8911
13.5198
14.3508
15.4973
17.1258
19.4127
10.0747
10.2254
10.3795
10.5398
10.7094
10.8926
11.0951
11.3252
11.596
11.9291
12.3627
12.9695
13.896
15.4467
18.2108
10.0377
10.1134
10.1902
10.2687
10.3499
10.435
10.5256
10.6243
10.7354
10.8663
11.0323
11.2683
11.6702
12.5541
15.1685
22.1919
22.9815
23.7677
24.5461
25.3128
26.0638
26.7957
27.5054
28.1905
28.8486
29.4782
30.0776
30.6459
31.1821
31.6855
32.1558
32.5926
32.9956
33.3648
33.7003
34.0021
34.2705
34.5057
34.7082
34.8783
35.0165
35.1234
35.1995
35.2454
35.2617
35.2491
35.2081
35.1395
35.0438
34.9218
34.774
34.601
34.4036
34.1822
33.9376
33.6704
33.3812
33.0706
32.7393
32.3879
32.0171
31.6273
31.2193
30.7935
30.3505
29.8908
29.4148
28.9231
28.416
27.8941
27.3577
26.8075
26.2439
25.6674
25.0786
24.4781
23.8666
23.2446
22.6127
21.9716
21.322
20.6646
20
19.3292
18.6531
17.9725
17.2887
16.6029
15.9164
15.2307
14.5474
13.8681
13.1947
12.5287
11.8721
11.2266
10.5938
9.9754
9.37288
8.78761
8.22079
7.67343
7.14629
6.63989
6.15449
22.1902
22.9861
23.7785
24.5629
25.335
26.0909
26.8271
27.5406
28.2288
28.8895
29.521
30.1221
30.6916
31.2287
31.7329
32.2036
32.6406
33.0438
33.4129
33.7482
34.0497
34.3177
34.5524
34.7543
34.9237
35.0612
35.1672
35.2425
35.2875
35.3029
35.2893
35.2474
35.1779
35.0813
34.9583
34.8096
34.6358
34.4374
34.2152
33.9697
33.7016
33.4114
33.0999
32.7677
32.4154
32.0437
31.6532
31.2443
30.8178
30.3741
29.9137
29.4371
28.9447
28.437
27.9143
27.3773
26.8263
26.2619
25.6846
25.095
24.4937
23.8813
23.2584
22.6256
21.9836
21.333
20.6744
20.0087
19.3366
18.659
17.9769
17.2913
16.6035
15.9149
15.227
14.5413
13.8596
13.1836
12.5151
11.856
11.208
10.5729
9.95235
9.34786
8.76088
8.19264
7.64417
7.11629
6.60953
6.12417
22.1867
22.9954
23.8004
24.5969
25.3802
26.1461
26.891
27.6119
28.3061
28.9718
29.6074
30.2116
30.7835
31.3224
31.8279
32.2995
32.737
33.1403
33.5094
33.8442
34.1451
34.4122
34.6459
34.8465
35.0145
35.1504
35.2549
35.3284
35.3716
35.3852
35.3697
35.326
35.2546
35.1562
35.0314
34.8809
34.7052
34.5051
34.2811
34.0338
33.7638
33.4718
33.1585
32.8245
32.4704
32.097
31.7047
31.2943
30.8663
30.4212
29.9595
29.4815
28.9879
28.4788
27.9549
27.4165
26.864
26.2981
25.7192
25.1279
24.5248
23.9106
23.2859
22.6513
22.0074
21.3549
20.6943
20.0263
19.3517
18.6712
17.9859
17.2968
16.6051
15.9122
15.2197
14.5292
13.8425
13.1614
12.4878
11.8236
11.1707
10.5309
9.90595
9.29748
8.707
8.13585
7.58513
7.05574
6.54826
6.06296
22.1808
23.0095
23.8344
24.6496
25.4501
26.2312
26.9892
27.721
28.4243
29.0972
29.7385
30.3471
30.9224
31.4639
31.9711
32.4439
32.8821
33.2856
33.6545
33.9887
34.2886
34.5544
34.7864
34.9851
35.151
35.2845
35.3865
35.4573
35.4978
35.5086
35.4904
35.4439
35.3697
35.2685
35.141
34.9878
34.8095
34.6066
34.3799
34.1299
33.8572
33.5625
33.2464
32.9096
32.5528
32.1767
31.782
31.3692
30.9389
30.4917
30.028
29.5482
29.0527
28.5418
28.0159
27.4754
26.9207
26.3524
25.7711
25.1772
24.5716
23.9548
23.3274
22.6901
22.0434
21.388
20.7244
20.053
19.3747
18.6901
18
17.3056
16.6081
15.9087
15.2093
14.5114
13.8171
13.1282
12.4467
11.7748
11.1143
10.4673
9.83563
9.22102
8.62514
8.04947
7.49527
6.96352
6.45491
5.96975
22.1717
23.0291
23.8819
24.7233
25.5474
26.3492
27.1246
27.8708
28.5857
29.2678
29.9161
30.5302
31.1096
31.6541
32.1635
32.6378
33.0767
33.4804
33.8489
34.1822
34.4807
34.7446
34.9744
35.1704
35.3333
35.4637
35.5622
35.6295
35.6663
35.6733
35.6513
35.601
35.523
35.4182
35.287
35.1302
34.9484
34.742
34.5118
34.2582
33.9818
33.6834
33.3635
33.023
32.6625
32.2828
31.8847
31.4687
31.0355
30.5855
30.1193
29.637
29.1391
28.6258
28.0974
27.5542
26.9966
26.4252
25.8405
25.2432
24.634
24.0136
23.3827
22.7419
22.0917
21.4326
20.7651
20.0896
19.4065
18.7164
18.0202
17.3187
16.6132
15.9052
15.1963
14.4884
13.7836
13.084
12.3918
11.7092
11.0384
10.3815
9.74053
9.11743
8.51403
7.93204
7.37292
6.83786
6.32769
5.84277
22.1586
23.0549
23.9454
24.8217
25.6766
26.5047
27.3018
28.0654
28.7939
29.4864
30.1427
30.7628
31.3466
31.8944
32.4061
32.8819
33.3216
33.7254
34.0933
34.4255
34.7221
34.9836
35.2103
35.403
35.5621
35.6883
35.7824
35.8451
35.8771
35.8793
35.8525
35.7973
35.7146
35.6051
35.4695
35.3083
35.122
34.9114
34.6767
34.4186
34.1377
33.8345
33.5099
33.1645
32.7993
32.415
32.0125
31.5925
31.1556
30.7023
30.233
29.7479
29.2473
28.7311
28.1997
27.6532
27.092
26.5166
25.9276
25.3259
24.7122
24.0873
23.4519
22.8068
22.1524
21.4891
20.8171
20.1366
19.4479
18.7514
18.0476
17.3373
16.6218
15.9026
15.1815
14.4607
13.7423
13.0289
12.3228
11.6265
10.9423
10.2726
9.61952
8.98529
8.37196
7.78153
7.21579
6.67626
6.16399
5.67947
22.1403
23.0888
24.0292
24.9505
25.8442
26.7043
27.527
28.3102
29.0535
29.7569
30.4212
31.047
31.6352
32.1861
32.7001
33.1774
33.6179
34.0217
34.3888
34.7193
35.0136
35.2719
35.495
35.6833
35.8376
35.9586
36.0472
36.1042
36.1303
36.1266
36.0938
36.0328
35.9443
35.8293
35.6882
35.5218
35.3304
35.1146
34.8748
34.6115
34.325
34.0161
33.6856
33.3342
32.963
32.573
32.1651
31.7401
31.2988
30.8417
30.369
29.8809
29.3773
28.8581
28.3233
27.7729
27.2073
26.627
26.0328
25.4254
24.806
24.1755
23.5349
22.8848
22.2256
21.5576
20.8809
20.1951
19.5004
18.7965
18.0839
17.3632
16.6355
15.9025
15.1662
14.4291
13.6937
12.9629
12.2395
11.526
10.8252
10.1395
9.47124
8.82289
8.19678
7.59531
7.0208
6.47527
5.96022
5.47634
22.1159
23.1343
24.14
25.1186
26.0599
26.9575
27.8085
28.6123
29.37
30.0834
30.7545
31.3852
31.9768
32.5305
33.0466
33.5253
33.9665
34.3702
34.7363
35.0649
35.3562
35.6107
35.8291
36.0121
36.1605
36.2752
36.3571
36.4071
36.4261
36.4152
36.3752
36.3071
36.2119
36.0902
35.9429
35.7705
35.5735
35.352
35.1064
34.837
34.5441
34.2284
33.8907
33.532
33.1534
32.7562
32.3416
31.9107
31.4643
31.003
30.5268
30.0356
29.5292
29.007
28.4687
27.9142
27.3435
26.7572
26.1563
25.5419
24.9154
24.2781
23.6311
22.9753
22.3111
21.6385
20.9572
20.2664
19.5655
18.854
18.1315
17.3987
16.6565
15.9068
15.1519
14.3947
13.6384
12.8863
12.1415
11.4072
10.6862
9.981
9.2942
8.62829
7.98597
7.37016
6.78396
6.23029
5.71144
5.22854
22.0846
23.1977
24.2894
25.3402
26.3381
27.2775
28.1575
28.9803
29.7498
30.4702
31.1456
31.779
32.3729
32.9284
33.4463
33.9266
34.3688
34.7725
35.1374
35.4636
35.7513
36.001
36.2137
36.3901
36.5313
36.6384
36.7123
36.754
36.7646
36.7451
36.6965
36.6201
36.5168
36.3876
36.2333
36.0543
35.8511
35.6235
35.3718
35.0957
34.7956
34.4719
34.1256
33.7577
33.37
32.9639
32.5412
32.1032
31.651
31.1851
30.7055
30.2119
29.7033
29.1787
28.6372
28.0782
27.5016
26.908
26.2988
25.6754
25.0399
24.3941
23.7396
23.0776
22.4083
21.7317
21.0467
20.3519
19.6457
18.9267
18.1939
17.4474
16.6882
15.9183
15.1406
14.3588
13.5768
12.7987
12.0283
11.2691
10.5241
9.79589
9.0869
8.39959
7.73683
7.10226
6.50016
5.93505
5.41081
4.9294
22.0471
23.2918
24.4974
25.6377
26.7002
27.6826
28.5884
29.4248
30.1999
30.9216
31.5965
32.2294
32.8234
33.3801
33.8999
34.3822
34.8258
35.23
35.5938
35.9172
36.2004
36.4443
36.6498
36.8182
36.9508
37.0488
37.1133
37.1453
37.1458
37.1161
37.0574
36.9711
36.8585
36.7207
36.5585
36.3725
36.1629
35.9295
35.6715
35.3885
35.0804
34.7475
34.3908
34.0117
33.6124
33.1951
32.7622
32.3156
31.8568
31.3863
30.9041
30.4091
29.8999
29.3744
28.8304
28.2669
27.6836
27.0811
26.4611
25.826
25.1788
24.5222
23.8587
23.1898
22.5159
21.8364
21.1498
20.4534
19.7441
19.0189
18.2757
17.5141
16.735
15.9407
15.135
14.3228
13.5093
12.6998
11.8989
11.1104
10.3376
9.5829
8.84824
8.13537
7.44696
6.78747
6.16295
5.58085
5.0484
4.56933
22.008
23.4419
24.7991
26.0467
27.1774
28.1974
29.1191
29.957
30.7263
31.44
32.1075
32.7354
33.3272
33.8846
34.4069
34.8927
35.3394
35.7449
36.1079
36.4281
36.7058
36.9421
37.1387
37.2972
37.4195
37.507
37.5605
37.5812
37.57
37.5283
37.4575
37.3595
37.2359
37.0882
36.9174
36.7242
36.5087
36.27
36.0067
35.717
35.4004
35.0568
34.6875
34.2943
33.8801
33.4482
33.0023
32.5451
32.0788
31.6039
31.1203
30.6265
30.1197
29.5959
29.0513
28.4838
27.8926
27.2788
26.6446
25.9938
25.3306
24.6599
23.9851
23.3087
22.6309
21.9511
21.2666
20.5733
19.8651
19.1364
18.3838
17.6057
16.8033
15.9792
15.1387
14.2883
13.4359
12.5882
11.7512
10.9289
10.1249
9.34089
8.57802
7.83578
7.11532
6.42219
5.76457
5.15503
4.60906
4.13405
21.9847
23.7022
25.2581
26.6236
27.8139
28.8532
29.7698
30.5879
31.3324
32.0243
32.675
33.2929
33.8802
34.4389
34.9661
35.4592
35.9117
36.3206
36.6831
36.9996
37.2701
37.4968
37.6817
37.8279
37.938
38.0133
38.0546
38.0624
38.0376
37.9817
37.8962
37.7842
37.6474
37.4883
37.3079
37.1077
36.8871
36.6456
36.3792
36.0838
35.7586
35.4027
35.0182
34.6066
34.1729
33.7209
33.258
32.7875
32.3127
31.8337
31.351
30.8619
30.3633
29.847
29.3048
28.7344
28.1337
27.5056
26.8517
26.179
25.4927
24.8029
24.1136
23.4292
22.7486
22.0723
21.3957
20.7141
20.0154
19.2882
18.5283
17.7321
16.9025
16.041
15.1565
14.2563
13.3554
12.4611
11.5822
10.721
9.88314
9.06832
8.27794
7.50469
6.7442
6.00568
5.29687
4.63758
4.06745
3.60098
22.0401
24.1952
25.9907
27.4526
28.6675
29.6852
30.5621
31.324
32.0139
32.6676
33.2894
33.8938
34.4738
35.0381
35.5739
36.0837
36.546
36.9625
37.3241
37.6366
37.897
38.1111
38.28
38.4099
38.5061
38.568
38.5961
38.5901
38.5496
38.4769
38.3727
38.2438
38.0905
37.9186
37.7265
37.5197
37.2953
37.0565
36.7928
36.4931
36.1604
35.7891
35.3873
34.9503
34.4912
34.0087
33.5243
33.0352
32.5523
32.0681
31.5903
31.1104
30.632
30.1348
29.5985
29.028
28.4139
27.7688
27.0856
26.3833
25.6595
24.9449
24.2348
23.5435
22.8598
22.1935
21.5318
20.8789
20.2065
19.4867
18.7245
17.9063
17.0472
16.1358
15.1965
14.2252
13.2653
12.3115
11.3873
10.4795
9.60799
8.76038
7.95304
7.15508
6.34131
5.54627
4.75777
3.99166
3.37647
2.9323
22.4314
25.2055
27.2033
28.6371
29.8044
30.7197
31.5196
32.1634
32.7471
33.3561
33.9284
34.5293
35.0897
35.6778
36.2186
36.7762
37.2456
37.683
38.0354
38.3481
38.5897
38.7902
38.9338
39.0399
39.1229
39.1709
39.1863
39.1669
39.1071
39.0172
38.884
38.7381
38.56
38.3773
38.1657
37.9564
37.7235
37.5027
37.2576
36.9492
36.6171
36.219
35.8065
35.3254
34.8429
34.2988
33.7967
33.2736
32.7931
32.2927
31.8322
31.3564
30.9272
30.4783
29.9412
29.3839
28.738
28.0867
27.3463
26.6181
25.8127
25.0798
24.3284
23.6464
22.9457
22.3075
21.6551
21.0712
20.4657
19.7459
19.0011
18.139
17.267
16.2705
15.2823
14.1774
13.1663
12.1192
11.1685
10.1854
9.2983
8.39429
7.61452
6.8281
5.91132
5.07738
4.18633
3.12836
2.43916
2.06176
24.3529
27.3334
29.2278
30.2047
31.3039
31.92
32.7012
33.0888
33.4432
34.0973
34.5255
35.2228
35.6651
36.385
36.8385
37.595
37.9909
38.5251
38.8035
39.1613
39.3412
39.5504
39.6411
39.7026
39.7893
39.8202
39.826
39.8012
39.7076
39.6189
39.413
39.2783
39.0353
38.8771
38.601
38.4263
38.134
37.9832
37.813
37.439
37.1685
36.6688
36.3239
35.7018
35.2826
34.5278
34.0988
33.4503
33.0621
32.4592
32.0958
31.5345
31.2502
30.9485
30.3124
29.8667
29.0697
28.5326
27.5887
26.9637
25.861
25.2411
24.3215
23.7759
22.9412
22.4416
21.6794
21.2942
20.8891
20.0407
19.4465
18.3855
17.6658
16.3931
15.5358
13.9942
13.1187
11.788
10.996
9.75302
9.01278
7.84916
7.28543
6.68871
5.36195
4.69061
3.85518
1.73399
1.0528
0.871064
5.64364
5.11612
4.6174
4.14602
3.70022
3.27793
2.87693
2.4949
2.12946
1.77826
1.43898
1.10934
0.787128
0.470183
0.15638
5.61376
5.08725
4.58996
4.12038
3.67664
3.25658
2.85792
2.47825
2.11518
1.76631
1.42931
1.10189
0.781849
0.467034
0.155333
5.5535
5.02905
4.53473
4.06884
3.6293
3.21379
2.81985
2.44498
2.08666
1.74247
1.41002
1.08704
0.771334
0.460761
0.153248
5.4618
4.94064
4.45099
3.99086
3.55786
3.14937
2.76268
2.3951
2.04399
1.70684
1.38125
1.06491
0.755667
0.45142
0.150144
5.33703
4.82062
4.33766
3.88569
3.46185
3.06308
2.68635
2.3287
1.98733
1.65964
1.34318
1.03567
0.734989
0.439098
0.146052
5.17686
4.66705
4.19327
3.75234
3.34069
2.95471
2.59089
2.24597
1.91697
1.60117
1.29613
0.999596
0.709506
0.423925
0.141014
4.97812
4.47737
4.01596
3.58962
3.19381
2.82412
2.47648
2.14729
1.83336
1.53193
1.24055
0.957058
0.6795
0.406075
0.13509
4.73651
4.24827
3.80351
3.39632
3.02076
2.67142
2.34359
2.0333
1.73723
1.4526
1.17706
0.908569
0.645349
0.385779
0.128357
4.44631
3.97561
3.55343
3.17132
2.82144
2.49717
2.19312
1.90506
1.62963
1.36417
1.10649
0.854796
0.607535
0.363329
0.120913
4.09973
3.65434
3.26322
2.91403
2.59648
2.30263
2.02663
1.76415
1.51204
1.26791
1.02992
0.796577
0.566657
0.339082
0.112877
3.68618
3.27874
2.93103
2.62506
2.34776
2.09022
1.84656
1.61285
1.38645
1.1655
0.948672
0.734924
0.523423
0.313458
0.104388
3.19142
2.84336
2.55705
2.30737
2.07922
1.86391
1.65651
1.45421
1.25537
1.05896
0.864329
0.67101
0.478645
0.286933
0.0956023
2.59788
2.34618
2.14637
1.96813
1.79781
1.62964
1.46133
1.2921
1.12183
0.950619
0.778657
0.606131
0.433206
0.260021
0.0866892
1.89115
1.79706
1.7141
1.62092
1.51423
1.39549
1.26703
1.13101
0.989206
0.843015
0.693537
0.54164
0.38802
0.23325
0.0778215
1.09238
1.23678
1.292
1.28721
1.24267
1.17103
1.08026
0.975687
0.860952
0.738683
0.610824
0.478863
0.343977
0.207134
0.0691668
10.0034
10.0099
10.015
10.0177
10.0167
10.0103
9.99609
9.97056
9.92823
9.8599
9.74843
9.55688
9.18783
8.31627
5.59161
9.9726
9.91671
9.85741
9.79209
9.71756
9.62963
9.52253
9.38782
9.21245
8.97489
8.63684
8.12419
7.28006
5.75044
2.7593
9.94252
9.82587
9.70398
9.57285
9.42768
9.26224
9.06811
8.83329
8.53982
8.15959
7.64645
6.92163
5.84829
4.19952
1.68216
9.91362
9.73866
9.55694
9.36336
9.15184
8.91474
8.64192
8.31944
7.92741
7.43656
6.80303
5.96104
4.81607
3.25176
1.19317
9.88624
9.65614
9.41813
9.1663
8.89376
8.59202
8.25019
7.85387
7.38358
6.81257
6.10434
5.21083
4.07502
2.64724
0.931766
9.86065
9.57912
9.2889
8.98362
8.65594
8.29711
7.89627
7.43966
6.90967
6.28384
5.53429
4.62887
3.5367
2.2425
0.773175
9.83703
9.50812
9.17012
8.81647
8.43975
8.03137
7.58105
7.07637
6.5023
5.84101
5.07245
4.17657
3.13868
1.95935
0.66807
9.81548
9.44343
9.06222
8.66532
8.24553
7.79473
7.30357
6.76126
6.15547
5.47265
4.69902
3.82289
2.83885
1.75394
0.594115
9.79601
9.38509
8.9652
8.53005
8.07284
7.58611
7.06161
6.49021
5.86212
5.16733
4.39674
3.54412
2.60905
1.60054
0.539887
9.7786
9.33297
8.87878
8.41009
7.92063
7.40372
6.85219
6.25853
5.61507
4.91463
4.15142
3.32261
2.43026
1.48334
0.498935
9.76315
9.28679
8.80241
8.30454
7.78749
7.24534
6.67203
6.0614
5.40759
4.70551
3.95165
3.14522
2.28934
1.39219
0.46733
9.74954
9.24617
8.73542
8.21231
7.67175
7.10861
6.51776
5.89426
5.23363
4.53233
3.78839
3.00215
2.17707
1.32026
0.442531
9.73763
9.21067
8.67702
8.13218
7.5717
6.99112
6.38617
5.75289
5.08789
4.38876
3.65449
2.88606
2.08682
1.26287
0.422823
9.72728
9.17983
8.62637
8.06293
7.48558
6.89054
6.27425
5.63353
4.96585
4.26957
3.54432
2.79134
2.01375
1.21666
0.407
9.71831
9.15315
8.58265
8.00332
7.41175
6.80472
6.17928
5.5329
4.86366
4.1705
3.45341
2.71371
1.9542
1.17916
0.394194
9.71058
9.13017
8.54507
7.95221
7.34866
6.73168
6.09885
5.44813
4.77809
4.08804
3.37819
2.64984
1.90544
1.14856
0.383761
9.70395
9.11046
8.51287
7.90851
7.29488
6.66966
6.03082
5.37677
4.70642
4.01932
3.31581
2.59711
1.86533
1.12347
0.375217
9.69826
9.0936
8.48536
7.87126
7.24915
6.61707
5.97337
5.31674
4.64637
3.96198
3.26398
2.55346
1.83224
1.1028
0.368189
9.69342
9.07921
8.46192
7.83957
7.21034
6.57257
5.92488
5.26625
4.59604
3.9141
3.22085
2.51724
1.80484
1.08573
0.362388
9.68929
9.06697
8.44199
7.81267
7.17745
6.53494
5.884
5.2238
4.55385
3.87409
3.18489
2.48713
1.78212
1.07158
0.357585
9.68578
9.05657
8.42508
7.78987
7.14962
6.50316
5.84955
5.18811
4.51847
3.84061
3.15489
2.46206
1.76322
1.05983
0.3536
9.6828
9.04775
8.41075
7.77057
7.12609
6.47634
5.82054
5.15812
4.4888
3.8126
3.12983
2.44115
1.74748
1.05006
0.350286
9.68028
9.04028
8.39862
7.75425
7.10623
6.45374
5.79611
5.13291
4.46391
3.78914
3.10888
2.42369
1.73436
1.04192
0.347526
9.67815
9.03396
8.38837
7.74047
7.08947
6.43469
5.77556
5.11174
4.44303
3.76948
3.09135
2.4091
1.72341
1.03512
0.345224
9.67634
9.02863
8.37971
7.72885
7.07535
6.41864
5.75828
5.09395
4.42551
3.75302
3.07668
2.3969
1.71426
1.02945
0.343302
9.67482
9.02413
8.37241
7.71905
7.06345
6.40514
5.74375
5.07901
4.41081
3.73921
3.06439
2.3867
1.70661
1.02471
0.341697
9.67354
9.02033
8.36626
7.71079
7.05344
6.39379
5.73153
5.06646
4.39848
3.72764
3.0541
2.37816
1.70021
1.02075
0.340354
9.67246
9.01714
8.36109
7.70385
7.04502
6.38425
5.72128
5.05593
4.38814
3.71795
3.04549
2.37101
1.69485
1.01743
0.339232
9.67155
9.01445
8.35673
7.69801
7.03794
6.37623
5.71266
5.0471
4.37947
3.70982
3.03827
2.36502
1.69037
1.01466
0.338293
9.67079
9.01219
8.35307
7.6931
7.032
6.3695
5.70544
5.03969
4.37221
3.70302
3.03223
2.36002
1.68662
1.01234
0.337509
9.67015
9.0103
8.35
7.68899
7.02701
6.36387
5.69939
5.03349
4.36613
3.69733
3.02718
2.35583
1.68349
1.0104
0.336853
9.66961
9.00871
8.34744
7.68555
7.02285
6.35915
5.69433
5.02831
4.36105
3.69258
3.02296
2.35234
1.68088
1.00879
0.336306
9.66916
9.00739
8.34529
7.68267
7.01936
6.35521
5.69011
5.02399
4.35681
3.68861
3.01945
2.34943
1.6787
1.00744
0.33585
9.66879
9.00628
8.3435
7.68028
7.01647
6.35194
5.6866
5.02039
4.35329
3.68532
3.01653
2.34701
1.67689
1.00632
0.335471
9.66848
9.00537
8.34202
7.6783
7.01407
6.34922
5.68369
5.01741
4.35037
3.68259
3.01411
2.34501
1.67539
1.00539
0.335158
9.66823
9.00461
8.3408
7.67666
7.01209
6.34699
5.68129
5.01496
4.34797
3.68035
3.01212
2.34336
1.67416
1.00463
0.334901
9.66802
9.004
8.33981
7.67533
7.01048
6.34517
5.67934
5.01297
4.34602
3.67852
3.0105
2.34202
1.67316
1.00401
0.334691
9.66785
9.00351
8.33901
7.67426
7.00919
6.34371
5.67778
5.01136
4.34445
3.67705
3.0092
2.34094
1.67236
1.00352
0.334523
9.66772
9.00312
8.33838
7.67342
7.00817
6.34256
5.67655
5.01011
4.34322
3.6759
3.00818
2.3401
1.67172
1.00313
0.334391
9.66762
9.00283
8.33791
7.67279
7.0074
6.34169
5.67562
5.00915
4.34229
3.67503
3.00741
2.33946
1.67125
1.00283
0.334291
9.66755
9.00262
8.33757
7.67234
7.00686
6.34108
5.67496
5.00848
4.34163
3.67442
3.00686
2.33901
1.67091
1.00262
0.33422
9.66751
9.00249
8.33736
7.67206
7.00652
6.3407
5.67455
5.00806
4.34122
3.67404
3.00653
2.33873
1.6707
1.00249
0.334177
9.66749
9.00244
8.33728
7.67195
7.00638
6.34054
5.67439
5.00789
4.34105
3.67388
3.00639
2.33862
1.67061
1.00244
0.334159
9.6675
9.00246
8.33731
7.67199
7.00644
6.3406
5.67445
5.00796
4.34112
3.67394
3.00644
2.33866
1.67065
1.00246
0.334166
9.66753
9.00255
8.33747
7.6722
7.00669
6.34089
5.67475
5.00827
4.34142
3.67422
3.00669
2.33887
1.6708
1.00256
0.334198
9.66759
9.00273
8.33775
7.67257
7.00714
6.3414
5.6753
5.00883
4.34197
3.67474
3.00715
2.33925
1.67108
1.00273
0.334257
9.66768
9.00298
8.33816
7.67313
7.00781
6.34215
5.67611
5.00966
4.34278
3.67549
3.00782
2.3398
1.6715
1.00299
0.334344
9.66779
9.00333
8.33872
7.67387
7.00872
6.34318
5.67721
5.01078
4.34388
3.67652
3.00873
2.34055
1.67206
1.00333
0.334461
9.66794
9.00377
8.33944
7.67484
7.00989
6.3445
5.67862
5.01223
4.3453
3.67784
3.0099
2.34152
1.67279
1.00378
0.334613
9.66813
9.00433
8.34035
7.67606
7.01135
6.34616
5.6804
5.01405
4.34708
3.67951
3.01138
2.34274
1.6737
1.00435
0.334804
9.66837
9.00503
8.34147
7.67755
7.01317
6.34821
5.6826
5.01629
4.34928
3.68156
3.0132
2.34425
1.67483
1.00504
0.33504
9.66865
9.00587
8.34283
7.67938
7.01538
6.3507
5.68528
5.01903
4.35196
3.68407
3.01542
2.34609
1.6762
1.00589
0.335327
9.669
9.00689
8.34448
7.68159
7.01805
6.35373
5.68852
5.02235
4.35521
3.68711
3.01811
2.34832
1.67787
1.00692
0.335676
9.66941
9.00812
8.34647
7.68425
7.02127
6.35737
5.69242
5.02635
4.35912
3.69077
3.02136
2.35101
1.67988
1.00817
0.336096
9.66991
9.00959
8.34885
7.68744
7.02514
6.36174
5.6971
5.03114
4.36382
3.69516
3.02525
2.35423
1.68229
1.00966
0.336601
9.6705
9.01135
8.3517
7.69126
7.02976
6.36696
5.70271
5.03688
4.36944
3.70042
3.02992
2.3581
1.68518
1.01145
0.337206
9.67121
9.01345
8.3551
7.69581
7.03527
6.3732
5.7094
5.04374
4.37617
3.70671
3.0355
2.36272
1.68864
1.01359
0.337931
9.67206
9.01595
8.35915
7.70124
7.04185
6.38064
5.71739
5.05192
4.38419
3.71423
3.04217
2.36825
1.69278
1.01615
0.338797
9.67307
9.01892
8.36397
7.7077
7.04968
6.38951
5.72691
5.06169
4.39377
3.7232
3.05014
2.37485
1.69772
1.01921
0.339832
9.67426
9.02246
8.3697
7.71539
7.05899
6.40006
5.73824
5.07332
4.40519
3.7339
3.05964
2.38273
1.70362
1.02286
0.341069
9.67568
9.02666
8.37651
7.72453
7.07007
6.41262
5.75174
5.08717
4.4188
3.74666
3.07099
2.39215
1.71068
1.02722
0.342547
9.67737
9.03165
8.38459
7.73537
7.08324
6.42754
5.7678
5.10367
4.43502
3.76188
3.08453
2.40339
1.7191
1.03244
0.344314
9.67936
9.03756
8.39418
7.74825
7.09887
6.44528
5.7869
5.12332
4.45435
3.78004
3.10069
2.41682
1.72917
1.03868
0.346427
9.68173
9.04456
8.40554
7.76351
7.11742
6.46636
5.80961
5.1467
4.47738
3.8017
3.11999
2.43287
1.74122
1.04615
0.348957
9.68453
9.05285
8.41899
7.7816
7.13942
6.49138
5.83661
5.17453
4.50483
3.82754
3.14305
2.45206
1.75563
1.05509
0.351986
9.68783
9.06264
8.4349
7.80301
7.16549
6.52106
5.86869
5.20765
4.53754
3.85839
3.17061
2.47503
1.7729
1.06581
0.35562
9.69174
9.0742
8.4537
7.82832
7.19635
6.55626
5.90679
5.24705
4.57654
3.89523
3.20358
2.50255
1.79362
1.07868
0.359985
9.69633
9.08783
8.47586
7.85822
7.23286
6.59796
5.95202
5.29393
4.62305
3.93926
3.24306
2.53556
1.8185
1.09415
0.365235
9.70174
9.10387
8.50197
7.89348
7.27598
6.64732
6.00569
5.3497
4.6785
3.99189
3.29038
2.57522
1.84845
1.11279
0.371566
9.70809
9.1227
8.53266
7.93499
7.32685
6.70569
6.06932
5.41601
4.74466
4.05488
3.34717
2.62293
1.88455
1.13531
0.379217
9.71552
9.14476
8.56866
7.98376
7.38676
6.77463
6.14471
5.49486
4.82361
4.13033
3.41543
2.68047
1.92821
1.16258
0.388492
9.72419
9.17053
8.61076
8.04092
7.45717
6.85592
6.23394
5.58857
4.91784
4.22078
3.49762
2.75001
1.98114
1.19572
0.39978
9.73428
9.20053
8.65987
8.10774
7.53973
6.95158
6.33942
5.69987
5.03035
4.32935
3.59678
2.83431
2.04556
1.23618
0.413577
9.74597
9.23533
8.71692
8.1856
7.63626
7.06393
6.46391
5.83199
5.16472
4.45984
3.71671
2.93686
2.12431
1.2858
0.430535
9.75946
9.27552
8.78295
8.27596
7.74874
7.19549
6.61055
5.98864
5.3252
4.61687
3.86214
3.0621
2.22108
1.34707
0.451521
9.77495
9.3217
8.85898
8.38037
7.8793
7.34904
6.78285
6.17414
5.51685
4.80611
4.03902
3.21579
2.34076
1.42328
0.477712
9.79261
9.37444
8.94605
8.50038
8.0301
7.52754
6.98468
6.39334
5.74561
5.03446
4.25489
3.40544
2.48992
1.519
0.510743
9.81263
9.43429
9.0451
8.63746
8.20333
7.73402
7.22014
6.65171
6.01839
5.3103
4.51928
3.64097
2.67755
1.64063
0.552964
9.83513
9.50168
9.15695
8.79293
8.40097
7.97142
7.49349
6.95511
6.34309
5.64373
4.84428
3.93559
2.9162
1.79749
0.607865
9.86022
9.57691
9.28217
8.96781
8.62469
8.24241
7.8088
7.30964
6.72841
6.04664
5.24512
4.30707
3.22382
2.0036
0.680891
9.88791
9.66006
9.42102
9.16263
8.8756
8.54901
8.16962
7.72114
7.18355
6.53267
5.74077
4.77935
3.62653
2.28088
0.781046
9.91814
9.75098
9.57331
9.37732
9.15397
8.89227
8.57839
8.19449
7.71732
7.11662
6.3541
5.38455
4.16313
2.66522
0.924431
9.95075
9.8492
9.7383
9.61099
9.45896
9.27175
9.03575
8.73259
8.33685
7.81293
7.11116
6.16461
4.89172
3.2182
1.14286
9.98547
9.95391
9.91466
9.86183
9.78834
9.68507
9.53972
9.33494
9.04535
8.6327
8.03817
7.17127
5.89851
4.05019
1.5074
10.0219
10.064
10.1004
10.127
10.1384
10.1276
10.0849
9.99615
9.83926
9.57872
9.15428
8.45974
7.30493
5.36443
2.19969
10.0596
10.1779
10.293
10.4027
10.5038
10.5922
10.6621
10.7046
10.7051
10.6385
10.4579
10.0678
9.25692
7.52881
3.74935
10.098
10.2939
10.4895
10.6843
10.8779
11.0697
11.2584
11.4422
11.6175
11.7774
11.9069
11.9679
11.8458
11.1177
7.8818
10.1365
10.4103
10.6864
10.9667
11.2533
11.5492
11.858
12.1855
12.5404
12.9374
13.4035
13.9951
14.8555
16.4479
20.714
10.1744
10.5249
10.8804
11.2447
11.6224
12.0196
12.4446
12.9098
13.4341
14.0494
14.8127
15.8356
17.3566
19.9213
24.7514
10.2112
10.6361
11.0682
11.5132
11.9778
12.4706
13.0033
13.5928
14.2645
15.0585
16.0415
17.33
19.1328
21.8213
25.9931
0.449098
0.804905
0.960073
1.01771
1.01858
0.98277
0.921711
0.842603
0.75028
0.648158
0.538754
0.42399
0.305392
0.184221
0.0615682
0.240951
0.551619
0.726043
0.812107
0.840332
0.829147
0.790096
0.730785
0.656464
0.570912
0.476951
0.376763
0.272098
0.164417
0.0549955
0.151714
0.392941
0.553365
0.646665
0.689438
0.694866
0.672541
0.62938
0.570438
0.499499
0.419467
0.33264
0.240896
0.145821
0.0488175
0.105669
0.29037
0.427295
0.516301
0.564471
0.579848
0.569448
0.538927
0.492738
0.434393
0.366695
0.291929
0.212003
0.128562
0.0430774
0.0781222
0.220974
0.334497
0.41429
0.46227
0.482723
0.480322
0.459348
0.423474
0.375777
0.318828
0.254798
0.185548
0.11272
0.0378024
0.0598746
0.171942
0.265117
0.334367
0.37918
0.401462
0.404087
0.39011
0.362414
0.32358
0.275875
0.221288
0.161577
0.0983282
0.033004
0.0469606
0.136029
0.212349
0.27141
0.311732
0.333847
0.339375
0.330396
0.309086
0.27754
0.237698
0.191332
0.140061
0.0853761
0.0286802
0.037416
0.108966
0.171563
0.221464
0.256924
0.277746
0.284734
0.27924
0.262861
0.237257
0.204048
0.164782
0.120913
0.0738197
0.0248173
0.0301496
0.0881209
0.139592
0.181542
0.212277
0.23125
0.238758
0.23564
0.223041
0.202251
0.174604
0.141424
0.104003
0.0635883
0.021393
0.0244996
0.0717884
0.11423
0.149408
0.175795
0.192712
0.200158
0.198621
0.188906
0.172004
0.148998
0.121012
0.0891708
0.0545924
0.0183787
0.0200369
0.0588208
0.0939122
0.123375
0.145888
0.160748
0.167793
0.167279
0.159761
0.145993
0.12685
0.103274
0.0762385
0.0467314
0.0157418
0.0164698
0.0484167
0.0775013
0.102169
0.121293
0.13421
0.140676
0.140798
0.134953
0.123713
0.107779
0.0879366
0.0650219
0.0398993
0.0134477
0.013592
0.0399996
0.0641572
0.0848092
0.101008
0.11215
0.117962
0.118458
0.113891
0.104691
0.0914207
0.0747319
0.0553378
0.0339897
0.0114614
0.0112531
0.0331444
0.0532467
0.0705411
0.0842341
0.093791
0.0989369
0.0996337
0.0960447
0.0884953
0.0774351
0.0634048
0.0470099
0.0288992
0.00974909
0.00934109
0.0275312
0.0442854
0.058773
0.070331
0.0784938
0.0830007
0.0837841
0.0809473
0.0747363
0.065511
0.0537191
0.0398729
0.0245302
0.00827834
0.00777064
0.0229149
0.0368977
0.0490388
0.0587846
0.0657344
0.0696491
0.0704476
0.0681922
0.0630695
0.0553684
0.0454593
0.0337748
0.0207922
0.00701917
0.00647581
0.0191048
0.0307883
0.0409672
0.0491793
0.0550818
0.0584607
0.0592309
0.0574275
0.0531924
0.0467584
0.038432
0.0285776
0.0176028
0.00594418
0.00540491
0.0159511
0.0257235
0.0342609
0.0411774
0.046181
0.0490831
0.0498006
0.0483506
0.0448418
0.0394619
0.0324652
0.0241583
0.0148879
0.00502868
0.00451702
0.0133346
0.021516
0.0286797
0.0345033
0.0387389
0.0412221
0.0418749
0.0407029
0.0377898
0.0332879
0.0274078
0.0204076
0.0125819
0.00425068
0.00377937
0.0111597
0.018015
0.0240288
0.0289316
0.0325133
0.0346318
0.0352157
0.0342638
0.0318408
0.0280705
0.0231279
0.01723
0.0106267
0.0035908
0.00316561
0.0093492
0.0150981
0.0201492
0.0242768
0.0273035
0.0291067
0.0296227
0.028846
0.0268269
0.0236668
0.019511
0.0145422
0.00897175
0.00303208
0.00265432
0.00784045
0.0126656
0.0169106
0.0203863
0.0229428
0.0244752
0.0249269
0.0242905
0.0226052
0.0199542
0.0164586
0.0122719
0.00757314
0.00255975
0.00222806
0.00658225
0.0106359
0.014206
0.017134
0.0192931
0.0205938
0.0209866
0.0204629
0.0190539
0.0168278
0.0138858
0.010357
0.00639293
0.00216109
0.00187257
0.00553266
0.00894193
0.0119472
0.0144153
0.0162393
0.0173427
0.0176825
0.0172499
0.0160698
0.0141984
0.0117204
0.00874437
0.00539856
0.00182513
0.00157611
0.00465718
0.00752837
0.0100612
0.0121438
0.0136856
0.0146216
0.0149145
0.0145559
0.0135655
0.0119901
0.00990054
0.00738843
0.0045622
0.00154251
0.00132903
0.00392741
0.00634966
0.00848785
0.0102476
0.0115524
0.0123469
0.0125988
0.0123003
0.0114674
0.0101388
0.00837403
0.00625054
0.00386012
0.00130523
0.00112337
0.00331988
0.00536815
0.00717717
0.00866723
0.00977349
0.0104487
0.0106653
0.0104158
0.00971324
0.00859013
0.00709654
0.00529793
0.00327222
0.00110651
0.000952565
0.00281527
0.00455271
0.00608791
0.0073533
0.00829376
0.00886902
0.00905519
0.00884566
0.00825108
0.00729867
0.00603079
0.00450297
0.00278151
0.000940622
0.00081121
0.00239762
0.00387767