/*--------------------------------*- C++ -*----------------------------------*\
| =========                 |                                                 |
| \\      /  F ield         | OpenFOAM: The Open Source CFD Toolbox           |
|  \\    /   O peration     | Version:  5.x                                   |
|   \\  /    A nd           | Web:      www.OpenFOAM.org                      |
|    \\/     M anipulation  |                                                 |
\*---------------------------------------------------------------------------*/
FoamFile
{
    version     2.0;
    format      ascii;
    class       volScalarField;
    location    "2.7";
    object      gradTx;
}
// * * * * * * * * * * * * * * * * * * * * * * * * * * * * * * * * * * * * * //

dimensions      [0 -1 0 1 0 0 0];

internalField   nonuniform List<scalar> 
6300
(
215.532
216.511
218.444
221.286
224.962
229.367
234.361
239.763
245.351
250.864
256.007
260.465
263.921
266.082
266.706
214.55
215.551
217.531
220.447
224.229
228.775
233.949
239.572
245.422
251.23
256.689
261.464
265.212
267.616
268.408
212.563
213.608
215.679
218.739
222.727
227.551
233.083
239.151
245.531
251.942
258.052
263.485
267.846
270.758
271.902
209.528
210.634
212.833
216.099
220.384
225.614
231.677
238.414
245.604
252.951
260.087
266.573
271.926
275.666
277.379
205.382
206.562
208.918
212.436
217.093
222.839
229.594
237.222
245.514
254.168
262.77
270.791
277.615
282.596
285.16
200.052
201.311
203.834
207.631
212.706
219.053
226.634
235.36
245.058
255.432
266.028
276.203
285.144
291.941
295.746
193.459
194.791
197.474
201.543
207.045
214.028
222.524
232.522
243.921
256.472
269.703
282.845
294.812
304.274
309.904
185.53
186.917
189.723
194.018
199.898
207.485
216.908
228.278
241.627
256.828
273.461
290.659
306.981
320.435
328.832
176.211
177.618
180.481
184.903
191.04
199.101
209.343
222.05
237.478
255.748
276.649
299.344
322.012
341.648
354.453
165.481
166.858
169.676
174.07
180.254
188.531
199.308
213.097
230.483
252.031
278.037
308.049
340.072
369.686
390.026
153.371
154.653
157.291
161.444
167.37
175.457
186.258
200.541
219.321
243.849
275.415
314.737
360.531
406.99
441.463
139.976
141.088
143.388
147.041
152.322
159.664
169.722
183.482
202.408
228.625
265.028
314.945
380.318
456.271
520.552
125.465
126.33
128.128
131.005
135.21
141.151
149.481
161.253
178.198
203.209
241.121
299.687
389.516
517.211
653.931
110.085
110.637
111.788
113.636
116.358
120.247
125.795
133.845
145.916
164.887
196.553
253.159
360.838
569.113
912.44
94.1489
94.3432
94.7464
95.391
96.3356
97.6809
99.6014
102.413
106.73
113.865
127.037
155.549
231.555
485.947
1525.04
265.85
263.711
260.333
255.76
250.07
243.365
235.769
227.409
218.41
208.893
198.965
188.721
178.244
167.603
156.859
146.061
135.256
124.483
113.775
103.166
92.6834
82.3516
72.1927
62.2251
52.4641
42.9214
33.606
24.5238
15.6778
7.0688
-1.30446
-9.44511
-17.3575
-25.047
-32.5192
-39.7798
-46.8342
-53.6872
-60.3427
-66.8041
-73.0746
-79.157
-85.055
-90.7728
-96.3159
-101.691
-106.907
-111.971
-116.895
-121.686
-126.353
-130.902
-135.339
-139.664
-143.878
-147.979
-151.963
-155.826
-159.563
-163.17
-166.644
-169.981
-173.179
-176.232
-179.136
-181.879
-184.449
-186.826
-188.987
-190.902
-192.538
-193.858
-194.825
-195.399
-195.547
-195.235
-194.436
-193.129
-191.301
-188.945
-186.064
-182.666
-178.774
-174.415
-169.63
-164.469
-158.993
-153.272
-147.383
-141.408
267.631
265.492
262.054
257.369
251.528
244.65
236.87
228.328
219.158
209.486
199.421
189.06
178.482
167.755
156.937
146.075
135.214
124.389
113.637
102.987
92.4681
82.1049
71.9192
61.9296
52.1512
42.5957
33.2716
24.1846
15.3373
6.73011
-1.63889
-9.77337
-17.6783
-25.3597
-32.8238
-40.0769
-47.1246
-53.9718
-60.6224
-67.0796
-73.3457
-79.4232
-85.315
-91.0249
-96.5582
-101.922
-107.124
-112.175
-117.086
-121.865
-126.522
-131.066
-135.499
-139.825
-144.042
-148.148
-152.138
-156.007
-159.75
-163.362
-166.84
-170.182
-173.386
-176.448
-179.366
-182.129
-184.725
-187.137
-189.34
-191.303
-192.992
-194.367
-195.388
-196.014
-196.208
-195.935
-195.166
-193.879
-192.06
-189.701
-186.805
-183.379
-179.444
-175.028
-170.17
-164.922
-159.345
-153.513
-147.506
-141.411
271.287
269.142
265.569
260.641
254.479
247.233
239.069
230.151
220.631
210.645
200.307
189.712
178.937
168.042
157.08
146.093
135.12
124.196
113.353
102.622
92.031
81.6048
71.3657
61.3321
51.5191
41.9381
32.5972
23.5012
14.6521
6.04915
-2.31049
-10.4317
-18.3209
-25.9853
-33.4325
-40.6698
-47.7039
-54.5398
-61.1812
-67.6305
-73.8889
-79.9574
-85.8374
-91.5318
-97.0453
-102.385
-107.561
-112.583
-117.465
-122.22
-126.857
-131.387
-135.815
-140.142
-144.366
-148.484
-152.488
-156.37
-160.125
-163.746
-167.232
-170.582
-173.796
-176.874
-179.817
-182.618
-185.268
-187.749
-190.037
-192.099
-193.896
-195.384
-196.518
-197.251
-197.54
-197.347
-196.64
-195.395
-193.595
-191.232
-188.306
-184.824
-180.805
-176.275
-171.271
-165.846
-160.064
-154.004
-147.754
-141.414
277.019
274.847
271.033
265.689
258.989
251.139
242.355
232.841
222.777
212.312
201.566
190.627
179.565
168.429
157.261
146.093
134.959
123.888
112.911
102.059
91.3589
80.8378
70.5181
60.4188
50.5546
40.9364
31.5714
22.4634
13.6132
5.01858
-3.32489
-11.4239
-19.2869
-26.9234
-34.3433
-41.5557
-48.5687
-55.3881
-62.0171
-68.4568
-74.7061
-80.7635
-86.6278
-92.2998
-97.7832
-103.085
-108.217
-113.194
-118.03
-122.743
-127.348
-131.857
-136.275
-140.606
-144.845
-148.984
-153.012
-156.917
-160.691
-164.327
-167.821
-171.177
-174.4
-177.496
-180.47
-183.324
-186.052
-188.639
-191.059
-193.276
-195.244
-196.912
-198.224
-199.126
-199.566
-199.498
-198.888
-197.708
-195.939
-193.572
-190.605
-187.043
-182.901
-178.201
-172.979
-167.283
-161.183
-154.765
-148.134
-141.404
285.162
282.917
278.698
272.689
265.154
256.391
246.693
236.325
225.501
214.387
203.102
191.723
180.301
168.866
157.442
146.049
134.709
123.447
112.293
101.278
90.432
79.783
69.3555
59.1688
49.2375
39.5716
30.1769
21.0557
12.207
3.62705
-4.69075
-12.7556
-20.579
-28.1736
-35.5528
-42.729
-49.7127
-56.5108
-63.1262
-69.5575
-75.8003
-81.8482
-87.6957
-93.34
-98.7827
-104.031
-109.099
-114.006
-118.773
-123.423
-127.978
-132.455
-136.863
-141.203
-145.468
-149.644
-153.712
-157.655
-161.457
-165.109
-168.609
-171.964
-175.186
-178.292
-181.297
-184.212
-187.04
-189.769
-192.373
-194.809
-197.024
-198.951
-200.521
-201.665
-202.32
-202.431
-201.957
-200.867
-199.143
-196.774
-193.758
-190.097
-185.8
-180.88
-175.366
-169.302
-162.758
-155.833
-148.653
-141.363
296.245
293.829
288.938
281.886
273.088
262.989
251.999
240.464
228.643
216.711
204.774
192.884
181.056
169.291
157.583
145.932
134.349
122.854
111.478
100.256
89.2234
78.4117
67.8481
57.5529
47.5401
37.8178
28.3898
19.2564
10.4146
1.85871
-6.42037
-14.4349
-22.2002
-29.7339
-37.0545
-44.1798
-51.1242
-57.8971
-64.5008
-70.9304
-77.1754
-83.2221
-89.057
-94.671
-100.062
-105.238
-110.215
-115.02
-119.683
-124.24
-128.722
-133.154
-137.549
-141.909
-146.22
-150.458
-154.594
-158.596
-162.439
-166.11
-169.607
-172.943
-176.141
-179.233
-182.252
-185.226
-188.169
-191.078
-193.926
-196.662
-199.217
-201.504
-203.431
-204.908
-205.855
-206.206
-205.911
-204.939
-203.274
-200.908
-197.839
-194.068
-189.592
-184.414
-178.543
-172.01
-164.881
-157.268
-149.331
-141.262
311.08
308.301
302.291
293.596
282.896
270.868
258.093
245.019
231.946
219.045
206.382
193.956
181.726
169.637
157.644
145.72
133.863
122.092
110.445
98.965
87.6986
76.6852
65.9561
55.5323
45.4257
35.6415
26.1798
17.0381
8.21143
-0.307701
-8.53054
-16.4728
-24.1549
-31.6011
-38.8378
-45.8912
-52.7831
-59.5274
-66.1263
-72.5697
-78.8369
-84.9014
-90.7369
-96.3236
-101.653
-106.731
-111.58
-116.237
-120.749
-125.167
-129.539
-133.905
-138.287
-142.685
-147.077
-151.421
-155.667
-159.764
-163.67
-167.362
-170.837
-174.118
-177.247
-180.279
-183.273
-186.284
-189.348
-192.474
-195.638
-198.777
-201.794
-204.573
-206.987
-208.915
-210.249
-210.908
-210.838
-210.008
-208.412
-206.052
-202.931
-199.05
-194.396
-188.945
-182.672
-175.574
-167.699
-159.17
-150.196
-141.055
330.944
327.424
319.507
308.192
294.618
279.822
264.62
249.574
235.005
221.037
207.654
194.751
182.194
169.848
157.61
145.417
133.257
121.157
109.172
97.3693
85.8116
74.5516
63.6263
53.0563
42.8488
33.0018
23.5099
14.3668
5.56603
-2.90036
-11.0445
-18.8853
-26.4493
-33.7699
-40.8855
-47.8356
-54.6551
-61.3674
-67.9765
-74.4635
-80.7909
-86.911
-92.7759
-98.3477
-103.606
-108.554
-113.222
-117.664
-121.95
-126.159
-130.365
-134.634
-139.002
-143.471
-148.003
-152.527
-156.956
-161.207
-165.21
-168.925
-172.347
-175.513
-178.493
-181.378
-184.27
-187.265
-190.435
-193.816
-197.387
-201.065
-204.715
-208.167
-211.243
-213.774
-215.614
-216.661
-216.855
-216.181
-214.651
-212.288
-209.117
-205.144
-200.346
-194.657
-187.988
-180.258
-171.458
-161.71
-151.302
-140.661
357.91
352.876
341.612
326.038
308.096
289.359
270.924
253.443
237.202
222.195
208.236
195.054
182.362
169.91
157.514
145.072
132.568
120.059
107.642
95.424
83.4989
71.9386
60.7868
50.0601
39.7538
29.852
20.3387
11.2031
2.43948
-5.95684
-13.9954
-21.6966
-29.0943
-36.2344
-43.1722
-49.9685
-56.6822
-63.3568
-70.003
-76.5879
-83.0443
-89.2887
-95.2381
-100.824
-106.006
-110.781
-115.19
-119.315
-123.264
-127.154
-131.104
-135.22
-139.571
-144.166
-148.94
-153.768
-158.504
-163.007
-167.165
-170.908
-174.226
-177.177
-179.874
-182.467
-185.12
-187.991
-191.218
-194.883
-198.981
-203.394
-207.918
-212.302
-216.285
-219.625
-222.121
-223.639
-224.123
-223.587
-222.085
-219.688
-216.457
-212.426
-207.574
-201.782
-194.83
-186.48
-176.581
-165.197
-152.743
-139.938
395.537
387.293
369.922
347.293
322.718
298.461
275.852
255.531
237.624
221.848
207.708
194.656
182.19
169.898
157.492
144.821
131.892
118.835
105.832
93.0607
80.6646
68.7405
57.3375
46.4608
36.0777
26.1436
16.6245
7.50427
-1.21586
-9.52857
-17.4322
-24.9455
-32.1109
-38.9908
-45.6632
-52.2213
-58.7665
-65.3878
-72.1189
-78.8983
-85.6041
-92.0921
-98.2244
-103.884
-108.994
-113.535
-117.569
-121.223
-124.662
-128.063
-131.606
-135.468
-139.789
-144.607
-149.798
-155.141
-160.386
-165.306
-169.718
-173.502
-176.635
-179.205
-181.405
-183.47
-185.654
-188.207
-191.369
-195.326
-200.12
-205.563
-211.322
-217.013
-222.252
-226.689
-230.036
-232.106
-232.858
-232.38
-230.809
-228.287
-224.945
-220.891
-216.156
-210.574
-203.684
-194.932
-183.841
-170.224
-154.689
-138.597
450.39
434.845
405.8
371.352
336.884
305.189
277.486
254.145
234.981
219.152
205.619
193.422
181.773
170.06
157.856
144.948
131.405
117.539
103.691
90.1619
77.1542
64.7951
53.1329
42.1523
31.7567
21.8387
12.3363
3.22952
-5.45793
-13.6897
-21.4315
-28.6959
-35.5394
-42.0466
-48.3198
-54.4937
-60.742
-67.262
-74.1661
-81.3159
-88.4786
-95.4089
-101.892
-107.737
-112.801
-117.023
-120.494
-123.441
-126.116
-128.768
-131.65
-135.055
-139.29
-144.511
-150.44
-156.655
-162.736
-168.339
-173.173
-177.036
-179.853
-181.769
-183.127
-184.304
-185.656
-187.545
-190.374
-194.564
-200.324
-207.275
-214.826
-222.371
-229.372
-235.322
-239.788
-242.468
-243.365
-242.744
-240.899
-238.065
-234.458
-230.333
-225.955
-221.247
-215.219
-206.751
-194.735
-178.014
-157.434
-135.99
535.798
501.831
449.449
395.439
347.062
306.176
272.847
246.747
227.542
213.155
201.615
191.405
181.455
170.939
159.239
145.997
131.39
116.22
101.093
86.5156
72.7122
59.848
47.9479
37.0027
26.7484
16.9359
7.47852
-1.64921
-10.3566
-18.5568
-26.1189
-33.053
-39.4532
-45.4402
-51.1202
-56.6596
-62.3274
-68.584
-75.8604
-83.7161
-91.6889
-99.3703
-106.482
-112.715
-117.823
-121.593
-124.175
-126.05
-127.606
-129.141
-130.94
-133.447
-137.375
-143.394
-150.673
-158.361
-165.777
-172.477
-178.025
-182.079
-184.367
-185.134
-185.112
-184.883
-184.887
-185.527
-187.42
-191.541
-198.811
-208.122
-218.335
-228.514
-238.006
-246.091
-252.109
-255.396
-256.056
-254.872
-252.41
-248.957
-244.717
-240.136
-236.229
-233.818
-230.265
-223.679
-212.404
-191.358
-161.422
-130.5
682.089
595.333
495.432
411.404
346.446
296.283
257.798
229.428
213.171
203.068
195.707
189.025
181.962
173.531
162.856
149.019
132.196
114.849
97.7109
81.7604
66.9224
53.5161
41.3905
30.8598
21.1048
11.5221
2.14599
-7.13371
-15.9862
-24.3438
-31.7116
-38.1802
-43.9635
-49.2774
-54.1246
-58.6422
-63.0662
-68.4392
-76.722
-85.9491
-95.3202
-104.154
-112.337
-119.315
-124.771
-127.875
-128.877
-129.118
-129.129
-129.135
-129.214
-129.793
-132.448
-140.463
-150.316
-160.459
-169.849
-178.274
-185.031
-189.662
-191.074
-189.635
-187.397
-185.127
-183.199
-181.706
-181.256
-183.983
-194.356
-207.669
-221.895
-235.643
-248.664
-259.835
-268.361
-272.105
-271.4
-268.838
-265.346
-260.978
-255.465
-248.966
-244.345
-248.033
-249.674
-247.357
-244.142
-217.501
-166.829
-117.746
967.176
707.759
518.558
399.911
324.527
269.579
228.191
194.671
189.948
189.04
188.834
187.203
184.452
179.367
171.034
156.35
133.765
113.181
92.6231
75.4068
59.0735
45.342
32.5377
23.6006
15.2135
5.81081
-3.32594
-13.2342
-22.3295
-31.5575
-38.6007
-44.2955
-49.151
-53.7879
-57.605
-60.7611
-62.4394
-64.1055
-76.225
-87.9763
-99.7266
-109.876
-119.93
-128.106
-135.11
-137.185
-134.675
-132.518
-130.658
-129.027
-126.768
-123.149
-119.805
-134.887
-149.542
-163.642
-175.312
-186.473
-195.101
-201.881
-201.885
-195.285
-189.728
-184.877
-180.885
-176.384
-170.515
-165.415
-185.669
-205.901
-226.142
-243.818
-261.985
-277.387
-291.498
-295.219
-289.415
-284.144
-279.54
-274.647
-267.633
-255.088
-240.496
-265.194
-274.781
-272.327
-309.612
-278.245
-169.948
-85.3364
1612.84
719.056
440.081
326.12
273.187
223.355
187.261
118.454
161.241
174.017
184.026
187.011
190.32
189.893
188.375
175.071
132.462
111.485
82.7291
67.7864
47.4812
35.8345
18.1175
15.55
10.7842
-0.284109
-7.68791
-20.507
-28.4836
-41.9194
-47.4333
-51.6218
-54.6552
-59.4808
-62.0392
-65.0097
-61.832
-44.7205
-76.2597
-90.0065
-106.439
-115.739
-130.23
-138.588
-152.547
-153.101
-139.965
-135.492
-131.859
-129.825
-126.282
-116.11
-80.628
-129.924
-149.571
-170.323
-181.507
-198.321
-207.83
-223.857
-222.206
-199.435
-191.04
-183.392
-179.304
-173.033
-158.664
-110.338
-177.011
-204.118
-234.082
-251.284
-279.285
-296.795
-329.597
-332.046
-306.662
-298.486
-294.148
-291.37
-287.763
-264.153
-180.068
-304.113
-317.226
-240.069
-473.939
-449.763
-138.96
0.365103
-134.836
-127.783
-120.98
-114.533
-108.527
-103.025
-98.0672
-93.6769
-89.8622
-86.6215
-83.9465
-81.8262
-80.2487
-79.2034
-78.6828
-134.712
-127.534
-120.623
-114.09
-108.022
-102.479
-97.4992
-93.1005
-89.2876
-86.055
-83.3913
-81.2828
-79.7157
-78.6782
-78.1617
-134.454
-127.016
-119.886
-113.182
-106.992
-101.37
-96.3491
-91.9377
-88.132
-84.9189
-82.2803
-80.1975
-78.6527
-77.6314
-77.1234
-134.032
-126.189
-118.722
-111.761
-105.391
-99.661
-94.5883
-90.1685
-86.3833
-83.2075
-80.613
-78.5735
-77.0655
-76.0707
-75.5765
-133.401
-124.985
-117.052
-109.747
-103.15
-97.2934
-92.1738
-87.7638
-84.0247
-80.914
-78.3903
-76.4173
-74.9645
-74.0089
-73.5349
-132.487
-123.295
-114.755
-107.023
-100.167
-94.1886
-89.0491
-84.6876
-81.0371
-78.0327
-75.6165
-73.7402
-72.3657
-71.4648
-71.0189
-131.171
-120.952
-111.649
-103.423
-96.3052
-90.2444
-85.1455
-80.8999
-77.4029
-74.5625
-72.3021
-70.5609
-69.2929
-68.4651
-68.0563
-129.257
-117.692
-107.465
-98.7128
-91.3862
-85.3379
-80.388
-76.3628
-73.1116
-70.5118
-68.4679
-66.908
-65.7794
-65.0458
-64.6846
-126.411
-113.095
-101.805
-92.5765
-85.1884
-79.3322
-74.7053
-71.0512
-68.1682
-65.9046
-64.1494
-62.8231
-61.8703
-61.2539
-60.951
-122.03
-106.468
-94.0832
-84.5989
-77.4581
-72.0965
-68.0492
-64.968
-62.605
-60.7886
-59.4014
-58.3642
-57.6244
-57.1478
-56.9142
-114.952
-96.6652
-83.4598
-74.2769
-67.9479
-63.5461
-60.4265
-58.1659
-56.4948
-55.2428
-54.3029
-53.6076
-53.1147
-52.7983
-52.6434
-102.828
-81.7802
-68.8135
-61.1006
-56.5099
-53.7131
-51.9441
-50.7741
-49.965
-49.3846
-48.9595
-48.6483
-48.4282
-48.2867
-48.2174
-80.698
-58.8127
-48.9127
-44.8017
-43.2774
-42.8519
-42.8625
-43.0209
-43.206
-43.3709
-43.5016
-43.5974
-43.6627
-43.7027
-43.7216
-37.9314
-23.8595
-23.2226
-25.9156
-28.9457
-31.5544
-33.6328
-35.2406
-36.4667
-37.3912
-38.0783
-38.5767
-38.9222
-39.1395
-39.2443
47.8886
24.529
5.79757
-6.69203
-15.0352
-20.787
-24.8733
-27.8419
-30.0288
-31.6486
-32.8434
-33.7087
-34.3095
-34.6884
-34.8717
79.3604
79.2128
78.901
78.3886
77.612
76.4653
74.7711
72.2182
68.2213
61.5562
49.2478
22.5306
-50.483
-309.609
-1458.39
66.017
65.5702
64.6337
63.1137
60.8458
57.557
52.7924
45.7686
35.0642
17.9195
-11.4648
-66.2451
-177.64
-415.025
-858.907
52.9821
52.2658
50.7699
48.3565
44.787
39.672
32.381
21.873
6.37748
-17.2197
-54.542
-115.702
-217.303
-377.038
-567.659
40.4431
39.5013
37.5418
34.4009
29.8
23.297
14.2024
1.43946
-16.6845
-42.8292
-81.0672
-137.077
-216.59
-317.597
-408.781
28.5567
27.4421
25.1328
21.4579
16.1328
8.72052
-1.43005
-15.2723
-34.1769
-60.0395
-95.2499
-142.134
-200.947
-264.971
-313.222
17.443
16.2113
13.671
9.65972
3.91429
-3.95526
-14.4999
-28.47
-46.8386
-70.7579
-101.324
-138.906
-181.686
-223.296
-251.166
7.18334
5.88829
3.22952
-0.935063
-6.82991
-14.7739
-25.1917
-38.6141
-55.647
-76.8607
-102.523
-132.068
-163.237
-191.158
-208.463
-2.17802
-3.48876
-6.16721
-10.3291
-16.1517
-23.8751
-33.7971
-46.2517
-61.5528
-79.8744
-101.026
-124.101
-147.042
-166.39
-177.775
-10.6301
-11.9169
-14.5346
-18.5706
-24.154
-31.4498
-40.644
-51.9126
-65.3616
-80.9229
-98.1929
-116.225
-133.343
-147.15
-154.992
-18.1893
-19.4217
-21.9179
-25.7382
-30.9678
-37.7065
-46.0504
-56.0593
-67.7037
-80.785
-94.8304
-108.982
-121.941
-132.052
-137.654
-24.8933
-26.0497
-28.3822
-31.9278
-36.7341
-42.8489
-50.3007
-59.0703
-69.048
-79.9776
-91.3933
-102.569
-112.516
-120.085
-124.204
-30.7948
-31.8614
-34.0048
-37.2423
-41.5923
-47.063
-53.636
-61.2423
-69.731
-78.8324
-88.1229
-97.0073
-104.741
-110.514
-113.615
-35.9562
-36.926
-38.868
-41.7848
-45.6725
-50.5119
-56.2538
-62.8016
-69.9886
-77.5557
-85.1343
-92.245
-98.3256
-102.799
-105.177
-40.4447
-41.3157
-43.0547
-45.6533
-49.0923
-53.3342
-58.3122
-63.917
-69.982
-76.2708
-82.4704
-88.1977
-93.0264
-96.538
-98.3907
-44.3286
-45.103
-46.6449
-48.9385
-51.9547
-55.6455
-59.9355
-64.7127
-69.8199
-75.0478
-80.1342
-84.774
-88.6416
-91.4287
-92.8903
-47.6751
-48.3577
-49.7134
-51.722
-54.349
-57.541
-61.2205
-65.2794
-69.5741
-73.9228
-78.108
-81.8863
-85.0069
-87.2393
-88.4046
-50.5478
-51.1451
-52.3288
-54.0764
-56.351
-59.0981
-62.2421
-65.6823
-69.2906
-72.9112
-76.3642
-79.455
-81.9888
-83.7908
-84.7279
-53.006
-53.5254
-54.5528
-56.065
-58.025
-60.3797
-63.058
-65.9685
-68.9987
-72.0159
-74.8718
-77.4103
-79.4786
-80.9426
-81.7016
-55.1038
-55.5531
-56.4404
-57.7429
-59.4249
-61.4367
-63.7128
-66.1717
-68.7156
-71.2325
-73.5999
-75.6919
-77.3879
-78.5838
-79.2023
-56.8898
-57.2767
-58.0398
-59.1574
-60.5961
-62.3101
-64.2406
-66.3158
-68.4514
-70.5528
-72.5191
-74.2483
-75.6444
-76.6257
-77.1322
-58.4072
-58.7391
-59.3931
-60.3489
-61.5761
-63.0332
-64.6681
-66.418
-68.2108
-69.9669
-71.6029
-73.0359
-74.1889
-74.9972
-75.4137
-59.6942
-59.9781
-60.5369
-61.3522
-62.3965
-63.633
-65.0157
-66.4905
-67.9956
-69.4643
-70.8276
-72.0177
-72.9727
-73.6407
-73.9844
-60.7841
-61.0264
-61.5026
-62.1964
-63.0834
-64.1312
-65.2995
-66.5418
-67.8056
-69.035
-70.1726
-71.1629
-71.9556
-72.5092
-72.7937
-61.706
-61.9122
-62.3172
-62.9066
-63.6589
-64.5456
-65.5321
-66.5782
-67.6396
-68.6693
-69.6197
-70.4451
-71.1046
-71.5644
-71.8005
-62.4847
-62.6599
-63.0038
-63.5038
-64.141
-64.8907
-65.7232
-66.604
-67.4957
-68.3587
-69.1536
-69.8426
-70.3921
-70.7749
-70.9713
-63.1419
-63.2905
-63.5822
-64.0058
-64.545
-65.1785
-65.8806
-66.6223
-67.3716
-68.0954
-68.7609
-69.3368
-69.7955
-70.1147
-70.2783
-63.6959
-63.8218
-64.0689
-64.4276
-64.8835
-65.4186
-66.0107
-66.6352
-67.2651
-67.8727
-68.4304
-68.9123
-69.2958
-69.5624
-69.699
-64.1624
-64.2691
-64.4783
-64.7817
-65.1672
-65.619
-66.1184
-66.6444
-67.1742
-67.6846
-68.1524
-68.5563
-68.8773
-69.1003
-69.2145
-64.5549
-64.6452
-64.8223
-65.0789
-65.4048
-65.7863
-66.2076
-66.6509
-67.0969
-67.5259
-67.9188
-68.2577
-68.5268
-68.7136
-68.8093
-64.8846
-64.9611
-65.111
-65.3282
-65.6037
-65.926
-66.2817
-66.6555
-67.0312
-67.3924
-67.7228
-68.0075
-68.2335
-68.3903
-68.4706
-65.1613
-65.2261
-65.3531
-65.5369
-65.77
-66.0426
-66.3431
-66.6587
-66.9757
-67.2801
-67.5584
-67.7981
-67.9882
-68.12
-68.1875
-65.393
-65.448
-65.5556
-65.7115
-65.909
-66.1398
-66.3941
-66.6611
-66.9289
-67.186
-67.4209
-67.623
-67.7833
-67.8944
-67.9513
-65.5866
-65.6333
-65.7247
-65.8571
-66.0248
-66.2207
-66.4364
-66.6627
-66.8896
-67.1073
-67.3061
-67.4771
-67.6126
-67.7065
-67.7546
-65.7477
-65.7875
-65.8654
-65.9782
-66.121
-66.2878
-66.4714
-66.6638
-66.8568
-67.0417
-67.2106
-67.3557
-67.4707
-67.5504
-67.5912
-65.8812
-65.9152
-65.9819
-66.0785
-66.2006
-66.3433
-66.5002
-66.6647
-66.8295
-66.9874
-67.1315
-67.2553
-67.3534
-67.4213
-67.4561
-65.991
-66.0203
-66.0778
-66.1609
-66.2661
-66.3888
-66.5238
-66.6652
-66.8069
-66.9426
-67.0664
-67.1727
-67.257
-67.3153
-67.3451
-66.0804
-66.1059
-66.1558
-66.228
-66.3193
-66.4258
-66.543
-66.6657
-66.7885
-66.9061
-67.0134
-67.1056
-67.1785
-67.229
-67.2549
-66.1522
-66.1746
-66.2184
-66.2818
-66.362
-66.4555
-66.5583
-66.6659
-66.7737
-66.8769
-66.9709
-67.0517
-67.1156
-67.1599
-67.1826
-66.2084
-66.2284
-66.2674
-66.3239
-66.3954
-66.4787
-66.5703
-66.6661
-66.7621
-66.8539
-66.9376
-67.0095
-67.0664
-67.1058
-67.1259
-66.2508
-66.2689
-66.3044
-66.3557
-66.4205
-66.4962
-66.5793
-66.6663
-66.7533
-66.8366
-66.9126
-66.9778
-67.0293
-67.0651
-67.0833
-66.2806
-66.2974
-66.3303
-66.378
-66.4382
-66.5084
-66.5856
-66.6664
-66.7472
-66.8245
-66.8949
-66.9554
-67.0033
-67.0364
-67.0534
-66.2987
-66.3147
-66.3461
-66.3915
-66.449
-66.5159
-66.5895
-66.6664
-66.7434
-66.8171
-66.8842
-66.9419
-66.9875
-67.019
-67.0351
-66.3056
-66.3214
-66.3522
-66.3967
-66.4531
-66.5188
-66.5909
-66.6665
-66.742
-66.8143
-66.8801
-66.9366
-66.9814
-67.0123
-67.0281
-66.3016
-66.3176
-66.3487
-66.3938
-66.4507
-66.5171
-66.5901
-66.6665
-66.7428
-66.8159
-66.8825
-66.9396
-66.9848
-67.0161
-67.0321
-66.2866
-66.3032
-66.3356
-66.3825
-66.4418
-66.511
-66.5869
-66.6664
-66.7459
-66.822
-66.8914
-66.9509
-66.9979
-67.0305
-67.0472
-66.2601
-66.2778
-66.3125
-66.3627
-66.4261
-66.5001
-66.5813
-66.6664
-66.7515
-66.8329
-66.9071
-66.9707
-67.0211
-67.056
-67.0738
-66.2212
-66.2407
-66.2787
-66.3336
-66.4031
-66.4841
-66.5731
-66.6663
-66.7595
-66.8487
-66.93
-66.9998
-67.0551
-67.0933
-67.1129
-66.1689
-66.1906
-66.233
-66.2944
-66.372
-66.4625
-66.562
-66.6661
-66.7704
-66.8701
-66.961
-67.039
-67.1008
-67.1436
-67.1654
-66.1016
-66.1262
-66.1743
-66.2439
-66.332
-66.4348
-66.5477
-66.6659
-66.7843
-66.8976
-67.0009
-67.0895
-67.1597
-67.2083
-67.2332
-66.0171
-66.0454
-66.1007
-66.1807
-66.2819
-66.3999
-66.5297
-66.6657
-66.8017
-66.932
-67.0508
-67.1529
-67.2337
-67.2896
-67.3182
-65.9131
-65.9458
-66.0099
-66.1027
-66.22
-66.3569
-66.5075
-66.6653
-66.8232
-66.9745
-67.1124
-67.231
-67.3248
-67.3898
-67.423
-65.7863
-65.8245
-65.8993
-66.0076
-66.1446
-66.3045
-66.4804
-66.6647
-66.8493
-67.0262
-67.1875
-67.3262
-67.436
-67.5121
-67.551
-65.633
-65.6778
-65.7655
-65.8925
-66.0532
-66.2409
-66.4474
-66.6639
-66.8808
-67.0887
-67.2783
-67.4414
-67.5706
-67.6601
-67.7059
-65.4486
-65.5013
-65.6046
-65.754
-65.9432
-66.1643
-66.4076
-66.6627
-66.9185
-67.1638
-67.3876
-67.5802
-67.7327
-67.8385
-67.8925
-65.2275
-65.2897
-65.4115
-65.5878
-65.8112
-66.0722
-66.3596
-66.6611
-66.9635
-67.2537
-67.5187
-67.7467
-67.9274
-68.0526
-68.1167
-64.9634
-65.0368
-65.1807
-65.389
-65.653
-65.9617
-66.3018
-66.6588
-67.0171
-67.3611
-67.6754
-67.946
-68.1605
-68.3093
-68.3854
-64.6482
-64.7351
-64.9052
-65.1515
-65.4639
-65.8294
-66.2323
-66.6555
-67.0807
-67.4891
-67.8625
-68.1841
-68.4393
-68.6163
-68.7069
-64.2728
-64.3755
-64.5767
-64.8682
-65.2381
-65.671
-66.1487
-66.6509
-67.1559
-67.6413
-68.0855
-68.4684
-68.7724
-68.9833
-69.0913
-63.8262
-63.9476
-64.1856
-64.5305
-64.9685
-65.4815
-66.0482
-66.6445
-67.2446
-67.8221
-68.3511
-68.8075
-69.17
-69.4216
-69.5506
-63.2953
-63.4388
-63.7202
-64.1283
-64.6468
-65.2548
-65.9271
-66.6353
-67.349
-68.0366
-68.6671
-69.2116
-69.6445
-69.9452
-70.0993
-62.6649
-62.8344
-63.1668
-63.6494
-64.2631
-64.9835
-65.7811
-66.6225
-67.4715
-68.2907
-69.0429
-69.6932
-70.2107
-70.5705
-70.755
-61.9168
-62.1168
-62.5093
-63.0795
-63.8054
-64.6586
-65.6046
-66.6043
-67.6147
-68.5912
-69.4893
-70.2669
-70.8864
-71.3175
-71.5386
-61.03
-61.2657
-61.7285
-62.4015
-63.2594
-64.2692
-65.391
-66.5786
-67.7814
-68.9462
-70.0195
-70.9502
-71.6929
-72.2102
-72.4757
-59.9797
-60.257
-60.8019
-61.5952
-62.6079
-63.8022
-65.1316
-66.5423
-67.9745
-69.3646
-70.6485
-71.7641
-72.6557
-73.2776
-73.5971
-58.737
-59.0626
-59.7031
-60.6365
-61.8304
-63.2414
-64.8159
-66.4912
-68.1967
-69.8569
-71.3942
-72.7333
-73.8058
-74.5549
-74.9402
-57.2683
-57.6498
-58.4009
-59.4972
-60.9023
-62.5671
-64.4303
-66.419
-68.4504
-70.4344
-72.2774
-73.8875
-75.1802
-76.0848
-76.5505
-55.5348
-55.9806
-56.8591
-58.1437
-59.794
-61.7552
-63.9575
-66.3171
-68.737
-71.1097
-73.3223
-75.2619
-76.8238
-77.9193
-78.484
-53.492
-54.0112
-55.0354
-56.5364
-58.47
-60.7758
-63.3757
-66.1735
-69.0562
-71.8962
-74.5566
-76.8985
-78.7911
-80.1221
-80.8094
-51.0891
-51.6912
-52.8811
-54.6288
-56.8878
-59.5924
-62.6564
-65.9709
-69.405
-72.8072
-76.0118
-78.847
-81.148
-82.7716
-83.6117
-48.2683
-48.9636
-50.3396
-52.3665
-54.9962
-58.1597
-61.7632
-65.6854
-69.7757
-73.8554
-77.7233
-81.1662
-83.9749
-85.9648
-86.9971
-44.9652
-45.7635
-47.3466
-49.6859
-52.7343
-56.4216
-60.6489
-65.2832
-70.1537
-75.0506
-79.7297
-83.9253
-87.37
-89.8226
-91.0989
-41.1083
-42.0189
-43.8289
-46.5133
-50.0291
-54.3087
-59.2519
-64.7171
-70.5134
-76.3966
-82.0716
-87.2056
-91.4536
-94.4966
-96.0864
-36.6196
-37.6504
-39.7046
-42.7638
-46.7938
-51.7353
-57.4927
-63.921
-70.8126
-77.887
-84.7889
-91.1006
-96.3733
-100.179
-102.177
-31.4157
-32.572
-34.8828
-38.3407
-42.926
-48.5956
-55.2677
-62.8034
-70.9849
-79.4969
-87.9156
-95.7166
-102.311
-107.116
-109.655
-25.4096
-26.6928
-29.2653
-33.1355
-38.3058
-44.76
-52.4434
-61.2372
-70.9274
-81.1712
-91.4708
-101.17
-109.49
-115.627
-118.894
-18.5133
-19.9191
-22.7475
-27.0281
-32.7948
-40.0714
-48.8481
-59.0487
-70.4855
-82.8063
-95.4424
-107.58
-118.185
-126.128
-130.402
-10.642
-12.1587
-15.2223
-19.8896
-26.2361
-34.3416
-44.2645
-56.0019
-69.4296
-84.222
-99.7597
-115.052
-128.728
-139.176
-144.876
-1.71874
-3.32544
-6.58467
-11.586
-18.4568
-27.3504
-38.4213
-51.7814
-67.4258
-85.1197
-104.247
-123.645
-141.512
-155.52
-163.306
8.31874
6.65393
3.26129
-1.98535
-9.27396
-18.8481
-30.989
-45.9748
-63.9985
-85.0217
-108.545
-133.301
-156.973
-176.184
-187.14
19.5105
17.8314
14.3931
9.03178
1.49477
-8.56426
-21.5818
-38.0589
-58.4881
-83.1874
-111.985
-143.707
-175.531
-202.577
-218.581
31.8663
30.2286
26.8584
21.5581
14.0134
3.77282
-9.77287
-27.3991
-50.0123
-78.5065
-113.394
-154.04
-197.406
-236.635
-261.132
45.3569
43.8268
40.6618
35.641
28.4023
18.4037
4.86864
-13.2768
-37.4528
-69.3858
-110.801
-162.484
-222.149
-280.921
-320.69
59.9075
58.5576
55.7515
51.2618
44.7059
35.4886
22.7105
5.03235
-19.5072
-53.6797
-101.078
-165.383
-247.51
-338.397
-407.861
75.3925
74.2966
72.0077
68.3149
62.8553
55.0441
43.9533
28.1049
5.12714
-28.7894
-79.614
-155.904
-266.782
-410.744
-543.263
91.6353
90.8608
89.2355
86.5919
82.635
76.8747
68.4976
56.1265
37.3561
7.84143
-40.465
-122.404
-263.075
-491.029
-770.682
108.412
108.012
107.167
105.777
103.664
100.52
95.8126
88.5894
77.0438
57.5201
22.0392
-48.1155
-198.751
-535.402
-1192.29
125.463
125.468
125.473
125.462
125.405
125.246
124.872
124.05
122.268
118.277
108.621
82.0632
-5.24571
-357.378
-2070.04
142.505
142.92
143.786
145.174
147.214
150.117
154.236
160.173
169.022
182.964
206.936
254.429
372.165
765.467
2520.07
159.253
160.056
161.73
164.428
168.418
174.14
182.334
194.267
212.234
240.681
288.913
378.008
558.202
942.948
1671.57
175.439
176.58
178.958
182.782
188.413
196.442
207.829
224.163
248.162
284.653
342.507
438.316
602.174
881.607
1329.16
159.657
64.6423
26.6777
7.12867
-4.65916
-12.4433
-17.8682
-21.7761
-24.6468
-26.7741
-28.3465
-29.4888
-30.2842
-30.7874
-31.0311
100.779
61.4906
32.871
14.3032
1.99325
-6.49641
-12.5533
-16.9819
-20.2704
-22.7278
-24.5568
-25.8931
-26.8278
-27.4209
-27.7088
69.1849
50.9294
32.0838
17.1318
5.99271
-2.23895
-8.36896
-12.9794
-16.4709
-19.1178
-21.1093
-22.5762
-23.6084
-24.2662
-24.5864
50.2675
40.7777
28.5927
17.3123
7.9731
0.559055
-5.23988
-9.75388
-13.2579
-15.963
-18.0259
-19.5609
-20.649
-21.3459
-21.686
37.9401
32.4974
24.4732
16.1448
8.61653
2.23545
-3.00309
-7.2297
-10.5995
-13.2539
-15.3092
-16.8558
-17.9612
-18.6732
-19.0218
29.392
26.0097
20.5647
14.4216
8.46322
3.11841
-1.46902
-5.30045
-8.438
-10.9609
-12.9455
-14.4569
-15.5467
-16.2527
-16.5996
23.1927
20.9544
17.1409
12.5701
7.88376
3.47539
-0.459937
-3.85302
-6.70324
-9.04174
-10.9104
-12.3507
-13.3985
-14.0814
-14.4183
18.5475
16.9927
14.243
10.7987
7.11123
3.50383
0.172593
-2.78257
-5.32381
-7.44878
-9.17264
-10.517
-11.5036
-12.1505
-12.4707
14.982
13.8609
11.8272
9.19627
6.28304
3.34048
0.543955
-1.99953
-4.23343
-6.13433
-7.69838
-8.93176
-9.84446
-10.4465
-10.7454
12.195
11.3627
9.82598
7.78983
5.47517
3.07571
0.739589
-1.43148
-3.37428
-5.05378
-6.45371
-7.56914
-8.40106
-8.95281
-9.2277
9.98579
9.35372
8.17158
6.57677
4.72615
2.76694
0.8206
-1.02195
-2.69796
-4.16734
-5.40658
-6.40335
-7.15218
-7.65136
-7.90081
8.2155
7.72666
6.80371
5.54131
4.05251
2.44922
0.82953
-0.728068
-2.16511
-3.44069
-4.52782
-5.40972
-6.07663
-6.52329
-6.74712
6.78465
6.40102
5.67152
4.66305
3.45834
2.14289
0.795336
-0.517903
-1.74438
-2.84489
-3.79154
-4.56535
-5.15401
-5.54992
-5.74882
5.62017
5.31552
4.73304
3.92105
2.94106
1.85883
0.737308
-0.367988
-1.4111
-2.35592
-3.17526
-3.84955
-4.3652
-4.71333
-4.88863
4.66722
4.42295
3.95389
3.29571
2.49475
1.60204
0.66801
-0.261252
-1.14609
-1.95406
-2.65972
-3.24388
-3.6927
-3.99674
-4.15014