/*--------------------------------*- C++ -*----------------------------------*\
| =========                 |                                                 |
| \\      /  F ield         | OpenFOAM: The Open Source CFD Toolbox           |
|  \\    /   O peration     | Version:  5.x                                   |
|   \\  /    A nd           | Web:      www.OpenFOAM.org                      |
|    \\/     M anipulation  |                                                 |
\*---------------------------------------------------------------------------*/
FoamFile
{
    version     2.0;
    format      ascii;
    class       volScalarField;
    location    "0.9";
    object      gradTx;
}
// * * * * * * * * * * * * * * * * * * * * * * * * * * * * * * * * * * * * * //

dimensions      [0 -1 0 1 0 0 0];

internalField   nonuniform List<scalar> 
6300
(
605.957
608.275
612.859
619.595
628.306
638.739
650.559
663.334
676.536
689.54
701.645
712.099
720.151
725.11
726.404
603.622
605.995
610.69
617.604
626.566
637.336
649.586
662.89
676.715
690.421
703.276
714.481
723.225
728.752
730.436
598.897
601.375
606.289
613.546
623.002
634.436
647.541
661.906
676.994
692.136
706.537
719.303
729.495
736.217
738.717
591.679
594.305
599.526
607.276
617.442
629.846
644.221
660.182
677.2
694.572
711.414
726.678
739.214
747.883
751.705
581.82
584.623
590.217
598.573
609.629
623.269
639.296
657.384
677.033
697.519
717.849
736.761
752.782
764.373
770.175
569.143
572.135
578.132
587.154
599.214
614.29
632.293
653.007
676.013
700.603
725.683
749.716
770.756
786.634
795.329
553.459
556.627
563.007
572.683
585.766
602.368
622.563
646.319
673.392
703.179
734.544
765.644
793.874
816.054
829.021
534.592
537.891
544.571
554.791
568.783
586.836
609.256
636.298
668.039
704.16
743.649
784.422
823.019
854.668
874.135
512.411
515.761
522.58
533.112
547.726
566.922
591.31
621.564
658.287
701.755
751.453
805.356
859.091
905.442
935.316
486.867
490.148
496.864
507.336
522.073
541.8
567.485
600.344
641.772
693.104
755.031
826.44
902.523
972.669
1020.42
458.03
461.087
467.379
477.283
491.417
510.706
536.471
570.54
615.339
673.84
749.108
842.828
951.872
1062.27
1143.67
426.125
428.778
434.268
442.987
455.595
473.123
497.138
529.993
575.187
637.793
724.714
843.873
999.846
1180.83
1333.42
391.554
393.622
397.918
404.791
414.84
429.041
448.952
477.094
517.609
577.415
668.065
808.085
1022.78
1327.77
1653.64
354.905
356.228
358.982
363.407
369.924
379.237
392.525
411.81
440.728
486.177
562.032
697.601
955.403
1453.8
2274.54
316.924
317.392
318.365
319.921
322.201
325.45
330.089
336.881
347.305
364.524
396.271
464.87
647.407
1257.47
3747.12
724.196
718.957
710.788
699.795
686.17
670.167
652.073
632.192
610.818
588.222
564.645
540.29
515.326
489.889
464.086
438.003
411.707
385.253
358.688
332.047
305.362
278.657
251.95
225.253
198.573
171.911
145.266
118.632
92.0064
65.385
38.7679
12.1592
-14.4308
-40.9854
-67.4795
-93.8802
-120.145
-146.224
-172.057
-197.577
-222.713
-247.387
-271.521
-295.036
-317.857
-339.913
-361.137
-381.469
-400.853
-419.234
-436.563
-452.785
-467.848
-481.699
-494.281
-505.546
-515.447
-523.952
-531.041
-536.712
-540.984
-543.894
-545.495
-545.856
-545.053
-543.164
-540.267
-536.43
-531.713
-526.162
-519.812
-512.69
-504.811
-496.192
-486.844
-476.785
-466.035
-454.623
-442.584
-429.961
-416.804
-403.172
-389.13
-374.755
-360.13
-345.348
-330.512
-315.736
-301.135
-286.832
728.404
723.155
714.83
703.561
689.572
673.152
654.623
634.318
612.552
589.61
565.738
541.141
515.981
490.389
464.463
438.281
411.905
385.386
358.765
332.08
305.358
278.626
251.901
225.193
198.51
171.849
145.208
118.58
91.9572
65.3347
38.7101
12.0856
-14.5303
-41.1217
-67.6647
-94.1267
-120.466
-146.63
-172.559
-198.184
-223.43
-248.217
-272.462
-296.084
-319.006
-341.154
-362.463
-382.873
-402.33
-420.782
-438.181
-454.476
-469.612
-483.535
-496.186
-507.509
-517.454
-525.981
-533.066
-538.706
-542.92
-545.746
-547.245
-547.492
-546.571
-544.568
-541.567
-537.643
-532.855
-527.251
-520.863
-513.713
-505.814
-497.173
-487.802
-477.712
-466.922
-455.46
-443.36
-430.665
-417.425
-403.699
-389.552
-375.058
-360.299
-345.371
-330.376
-315.432
-300.661
-286.189
737.047
731.761
723.09
711.222
696.452
679.149
659.709
638.524
615.954
592.312
567.851
542.775
517.234
491.342
465.18
438.81
412.281
385.635
358.907
332.132
305.339
278.553
251.791
225.064
198.376
171.722
145.093
118.478
91.8656
65.2441
38.607
11.9531
-14.7124
-41.3763
-68.0164
-94.6012
-121.089
-147.427
-173.551
-199.39
-224.861
-249.877
-274.349
-298.189
-321.314
-343.648
-365.125
-385.688
-405.287
-423.878
-441.416
-457.855
-473.141
-487.215
-500.01
-511.458
-521.497
-530.075
-537.157
-542.735
-546.826
-549.479
-550.763
-550.77
-549.601
-547.361
-544.147
-540.043
-535.114
-529.408
-522.95
-515.752
-507.817
-499.142
-489.728
-479.579
-468.712
-457.149
-444.927
-432.089
-418.685
-404.772
-390.414
-375.683
-360.658
-345.434
-330.118
-314.831
-299.709
-284.892
750.604
745.216
735.932
723.037
706.958
688.198
667.282
644.699
620.878
596.165
570.827
545.052
518.968
492.657
466.17
439.541
412.799
385.971
359.087
332.179
305.278
278.411
251.597
224.845
198.155
171.518
144.918
118.333
91.7438
65.1315
38.4826
11.79
-14.9456
-41.7147
-68.4985
-95.2674
-121.98
-148.583
-175.009
-201.178
-226.999
-252.373
-277.198
-301.374
-324.809
-347.422
-369.146
-389.93
-409.732
-428.52
-446.261
-462.916
-478.433
-492.747
-505.778
-517.438
-527.641
-536.311
-543.398
-548.881
-552.779
-555.149
-556.083
-555.699
-554.129
-551.507
-547.955
-543.573
-538.436
-532.585
-526.038
-518.788
-510.819
-502.11
-492.644
-482.415
-471.434
-459.722
-447.317
-434.263
-420.613
-406.424
-391.755
-376.672
-361.25
-345.577
-329.764
-313.944
-298.27
-282.907
769.881
764.26
753.951
739.415
721.299
700.332
677.231
652.634
627.06
600.896
574.406
547.748
521.003
494.199
467.337
440.408
413.412
386.358
359.272
332.186
305.138
278.161
251.279
224.501
197.823
171.225
144.68
118.154
91.6129
65.0279
38.3759
11.6422
-15.1783
-42.0813
-69.0524
-96.0657
-123.082
-150.048
-176.89
-203.52
-229.833
-255.711
-281.032
-305.677
-329.537
-352.522
-374.565
-395.623
-415.673
-434.702
-452.697
-469.636
-485.474
-500.137
-513.525
-525.516
-535.985
-544.818
-551.931
-557.287
-560.903
-562.854
-563.263
-562.294
-560.127
-556.942
-552.903
-548.136
-542.725
-536.705
-530.074
-522.796
-514.822
-506.1
-496.589
-486.269
-475.14
-463.228
-450.574
-437.231
-423.257
-408.706
-393.634
-378.094
-362.146
-345.869
-329.372
-312.8
-296.336
-280.188
796.143
790.032
778.035
760.924
739.721
715.514
689.312
661.954
634.068
606.072
578.201
550.546
523.099
495.801
468.572
441.346
414.079
386.766
359.427
332.109
304.865
277.742
250.777
223.98
197.338
170.82
144.376
117.955
91.5034
64.9771
38.3411
11.5724
-15.3407
-42.3999
-69.5968
-96.9119
-124.311
-151.743
-179.131
-206.375
-233.348
-259.906
-285.895
-311.163
-335.574
-359.025
-381.447
-402.812
-423.122
-442.404
-460.683
-477.966
-494.224
-509.376
-523.289
-535.787
-546.68
-555.789
-562.977
-568.175
-571.397
-572.743
-572.39
-570.569
-567.539
-563.557
-558.844
-553.569
-547.827
-541.643
-534.975
-527.739
-519.833
-511.156
-501.632
-491.216
-479.907
-467.735
-454.757
-441.044
-426.665
-411.679
-396.129
-380.046
-363.462
-346.427
-329.037
-311.452
-293.901
-276.662
831.346
824.255
809.46
788.303
762.446
733.545
703.034
672.009
641.21
611.046
581.663
553.018
524.956
497.276
469.78
442.315
414.789
387.181
359.526
331.897
304.384
277.067
250
223.2
196.642
170.269
144.002
117.759
91.4598
65.04
38.4516
11.6632
-15.3421
-42.5712
-70.0235
-97.6902
-125.549
-153.557
-181.638
-209.677
-237.519
-264.98
-291.853
-317.936
-343.05
-367.063
-389.902
-411.563
-432.096
-451.588
-470.133
-487.798
-504.587
-520.414
-535.096
-548.37
-559.938
-569.512
-576.868
-581.883
-584.561
-585.043
-583.588
-580.538
-576.273
-571.166
-565.536
-559.611
-553.504
-547.21
-540.624
-533.578
-525.883
-517.362
-507.884
-497.38
-485.844
-473.331
-459.931
-445.75
-430.883
-415.4
-399.329
-382.663
-365.371
-347.442
-328.931
-310.008
-290.972
-272.224
878.562
869.548
850.024
822.425
789.527
753.872
717.47
681.715
647.413
614.872
584.038
554.626
526.239
498.46
470.919
443.345
415.591
387.636
359.557
331.491
303.593
276.001
248.807
222.037
195.644
169.527
143.557
117.602
91.5474
65.3015
38.8035
12.018
-15.0715
-42.4735
-70.1957
-98.2473
-126.631
-155.325
-184.265
-213.322
-242.303
-270.96
-299.011
-326.167
-352.174
-376.848
-400.11
-421.99
-442.616
-462.179
-480.889
-498.922
-516.359
-533.119
-548.94
-563.414
-576.061
-586.418
-594.112
-598.928
-600.854
-600.092
-597.036
-592.203
-586.164
-579.47
-572.589
-565.846
-559.379
-553.125
-546.861
-540.278
-533.044
-524.868
-515.538
-504.95
-493.112
-480.128
-466.156
-451.37
-435.92
-419.9
-403.325
-386.121
-368.14
-349.239
-329.369
-308.679
-287.584
-266.709
942.787
929.95
902.191
864.154
820.556
775.249
730.949
689.303
651.053
616.217
584.342
554.734
526.623
499.278
472.083
444.609
416.656
388.243
359.545
330.816
302.332
274.331
246.973
220.299
194.215
168.538
143.051
117.55
91.8672
65.8813
39.5221
12.7613
-14.4026
-41.9682
-69.9496
-98.3846
-127.324
-156.802
-186.787
-217.142
-247.621
-277.883
-307.526
-336.121
-363.283
-388.732
-412.368
-434.282
-454.723
-474.047
-492.66
-510.942
-529.133
-547.196
-564.737
-581.091
-595.478
-607.144
-615.477
-620.106
-620.979
-618.403
-612.993
-605.551
-596.938
-587.977
-579.372
-571.612
-564.873
-558.975
-553.479
-547.831
-541.479
-533.953
-524.922
-514.239
-501.951
-488.267
-473.476
-457.874
-441.705
-425.128
-408.161
-390.632
-372.177
-352.376
-330.932
-307.886
-283.831
-259.85
1032.59
1011.81
969.133
913.864
854.024
795.153
740.582
691.979
649.753
613.274
581.359
552.662
525.883
499.855
473.624
446.538
418.36
389.238
359.549
329.764
300.346
271.706
244.125
217.679
192.166
167.239
142.529
117.721
92.5803
66.954
40.7717
14.0354
-13.2072
-40.9183
-69.1068
-97.8542
-127.304
-157.612
-188.842
-220.853
-253.321
-285.772
-317.621
-348.215
-376.93
-403.297
-427.174
-448.757
-468.494
-486.989
-504.952
-523.129
-542.12
-562.046
-582.254
-601.604
-618.806
-632.653
-642.151
-646.659
-646.031
-640.746
-631.822
-620.524
-608.148
-595.906
-584.868
-575.831
-569.076
-564.164
-560.233
-556.314
-551.518
-545.117
-536.601
-525.754
-512.716
-497.918
-481.888
-465.117
-448.008
-430.849
-413.741
-396.413
-378.093
-357.823
-334.752
-308.495
-279.929
-251.144
1163.76
1125.2
1054.17
970.132
886.069
808.845
741.598
685.451
640.156
603.737
573.72
547.807
524.037
500.704
476.373
450.02
421.399
391.026
359.669
328.157
297.217
267.529
239.616
213.683
189.244
165.593
142.109
118.331
93.9512
68.7824
42.7717
15.9888
-11.3895
-39.2361
-67.5164
-96.3725
-126.109
-157.163
-189.842
-223.977
-259.121
-294.603
-329.603
-363.096
-394.035
-421.527
-445.353
-465.96
-484.116
-500.751
-516.984
-534.182
-553.789
-576.51
-601.016
-625.212
-646.957
-664.406
-675.983
-680.57
-677.742
-668.274
-654.013
-636.984
-619.094
-602.028
-587.409
-576.684
-570.543
-567.857
-566.883
-565.969
-563.779
-559.234
-551.546
-540.336
-525.929
-509.263
-491.286
-472.772
-454.308
-436.431
-419.574
-403.561
-386.757
-367.25
-343.111
-312.383
-276.3
-239.52
1368.3
1285.3
1157.94
1026.4
908.24
808.141
726.607
663.272
617.752
584.959
560.147
539.846
521.539
502.968
482.013
456.745
426.939
394.206
359.992
325.7
292.263
260.769
232.23
207.507
185.158
163.671
142.079
119.768
96.4164
71.7779
45.8353
18.7487
-8.9515
-36.9864
-65.1571
-93.6863
-123.085
-154.442
-188.82
-225.727
-264.519
-304.216
-343.844
-381.746
-416.194
-445.125
-468.255
-486.775
-502.003
-515.161
-527.687
-541.816
-561.012
-588.435
-620.243
-652.356
-681.286
-704.596
-719.853
-725.115
-718.966
-702.644
-680.122
-654.612
-628.778
-604.542
-584.258
-570.847
-566.941
-568.99
-573.349
-577.364
-579.33
-577.778
-571.464
-559.423
-542.301
-522.402
-501.37
-480.27
-459.686
-440.467
-424.118
-411.783
-399.25
-383.29
-360.903
-323.932
-273.634
-222.358
1718.83
1509.25
1267.7
1063.38
904.377
780.682
685.385
615.418
577.002
554.668
540.059
528.995
519.4
508.643
493.846
469.982
436.675
399.501
360.405
321.993
284.49
249.73
219.326
197.887
179.802
161.87
143.049
122.665
100.693
76.6059
50.4971
22.34
-6.08676
-34.599
-62.3421
-89.8117
-117.306
-147.443
-184.234
-224.843
-268.7
-314.023
-360.668
-405.474
-446.401
-477.179
-497.893
-512.421
-522.952
-530.555
-536.142
-542.207
-556.428
-594.075
-639.049
-684.086
-723.702
-756.359
-778.078
-786.043
-774.779
-745.871
-710.457
-672.622
-636.078
-601.279
-571.12
-551.231
-554.67
-566.696
-580.21
-591.601
-599.838
-603.07
-599.521
-585.721
-562.572
-537.077
-511.461
-486.943
-463.019
-440.298
-422.813
-420.227
-416.614
-408.525
-399.643
-354.621
-272.336
-192.647
2401.31
1779.19
1323.82
1035.06
849.652
712.308
607.665
522.109
513.075
513.233
514.845
516.007
518.915
520.116
518.715
496.797
451.961
407.544
359.812
316.962
272.746
232.398
193.492
183.414
174.2
161.319
146.236
127.813
107.973
84.2987
58.0581
26.2666
-3.15528
-33.3785
-59.9827
-85.9656
-107.79
-130.933
-174.23
-219.369
-270.867
-322.032
-380.25
-434.905
-491.341
-523.843
-536.55
-543.927
-548.213
-548.935
-543.982
-530.914
-518.154
-589.198
-657.788
-723.632
-776.132
-823.851
-856.066
-874.603
-855.925
-798.386
-744.19
-688.68
-640.768
-591.24
-543.097
-497.926
-529.935
-562.15
-590.017
-610.266
-627.435
-638.005
-642.219
-625.369
-586.11
-551.825
-519.876
-492.672
-464.541
-432.513
-399.987
-430.083
-440.36
-434.839
-490.363
-438.916
-267.259
-130.627
3942.39
1808.98
1139.98
857.872
725.693
596.823
502.441
318.592
435.892
469.685
490.26
500.488
520.87
535.32
573.107
556.599
466.625
420.343
352.177
313.879
255.419
212.973
126.129
167.68
173.854
163.914
154.204
134.965
120.734
95.6382
73.5604
26.7252
0.871878
-37.4301
-58.5811
-88.172
-96.4428
-85.4663
-161.651
-204.829
-273.618
-320.002
-405.089
-461.909
-570.889
-599.154
-583.016
-580.005
-578.716
-575.586
-563.585
-519.244
-359.251
-587.895
-680.509
-782.406
-835.442
-913.641
-953.699
-1016.68
-992.943
-845.986
-779.712
-693.688
-647.678
-579.103
-510.697
-333.386
-504.801
-563.751
-610.67
-633.238
-664.404
-681.955
-715.116
-697.156
-602.367
-563.1
-521.362
-499.644
-471.596
-425.372
-286.918
-468.412
-486.787
-373.186
-735.046
-696.251
-211.706
17.4032
-271.605
-255.707
-240.748
-226.859
-214.138
-202.645
-192.407
-183.424
-175.678
-169.138
-163.766
-159.524
-156.377
-154.296
-153.261
-270.791
-254.73
-239.639
-225.656
-212.877
-201.359
-191.121
-182.159
-174.445
-167.944
-162.611
-158.405
-155.287
-153.227
-152.202
-269.14
-252.742
-237.385
-223.214
-210.323
-198.76
-188.531
-179.616
-171.974
-165.554
-160.304
-156.173
-153.116
-151.098
-150.095
-266.598
-249.674
-233.909
-219.457
-206.409
-194.795
-184.598
-175.771
-168.252
-161.97
-156.854
-152.842
-149.881
-147.931
-146.963
-263.079
-245.411
-229.082
-214.264
-201.031
-189.383
-179.265
-170.593
-163.269
-157.193
-152.275
-148.437
-145.614
-143.759
-142.839
-258.447
-239.77
-222.711
-207.451
-194.036
-182.411
-172.46
-164.041
-157.011
-151.234
-146.594
-142.993
-140.357
-138.629
-137.775
-252.492
-232.474
-214.505
-198.762
-185.223
-173.737
-164.095
-156.077
-149.476
-144.116
-139.85
-136.563
-134.169
-132.606
-131.834
-244.879
-223.093
-204.038
-187.839
-174.328
-163.192
-154.082
-146.67
-140.678
-135.881
-132.105
-129.219
-127.13
-125.771
-125.101
-235.049
-210.947
-190.684
-174.198
-161.029
-150.596
-142.347
-135.822
-130.663
-126.604
-123.449
-121.06
-119.341
-118.227
-117.68
-222.012
-194.928
-173.525
-157.213
-144.97
-135.792
-128.865
-123.586
-119.529
-116.403
-114.008
-112.212
-110.928
-110.099
-109.693
-203.888
-173.199
-151.249
-136.136
-125.824
-118.717
-113.716
-110.109
-107.447
-105.452
-103.95
-102.836
-102.043
-101.533
-101.282
-176.865
-142.702
-122.111
-110.238
-103.453
-99.5172
-97.1559
-95.67
-94.6823
-93.991
-93.4893
-93.1215
-92.8597
-92.69
-92.6063
-132.875
-98.6149
-84.2362
-79.2336
-78.2173
-78.7275
-79.7052
-80.7181
-81.6065
-82.3262
-82.8801
-83.2874
-83.5701
-83.7472
-83.8323
-54.4007
-34.6313
-36.9729
-44.2315
-51.443
-57.4581
-62.207
-65.8785
-68.6868
-70.8147
-72.405
-73.5651
-74.3732
-74.8836
-75.1305
96.6116
51.4685
15.2128
-9.26974
-25.8573
-37.4459
-45.7769
-51.8919
-56.4371
-59.83
-62.3491
-64.1836
-65.4626
-66.272
-66.6642
281.67
281.323
280.591
279.387
277.561
274.863
270.874
264.859
255.43
239.682
210.533
147.081
-26.8391
-645.464
-3391.55
249.857
248.796
246.573
242.964
237.578
229.766
218.445
201.75
176.292
135.49
65.5005
-65.1076
-330.967
-897.996
-1958.94
218.775
217.071
213.512
207.77
199.276
187.102
169.744
144.72
107.806
51.5649
-37.4375
-183.372
-425.943
-807.519
-1263.07
188.872
186.63
181.964
174.484
163.525
148.034
126.363
95.9454
52.7387
-9.61046
-100.839
-234.527
-424.383
-665.656
-883.54
160.523
157.868
152.366
143.609
130.919
113.252
89.0543
56.0487
10.963
-50.732
-134.754
-246.673
-387.11
-540.029
-655.305
134.014
131.079
125.024
115.463
101.767
83.0042
57.8592
24.5394
-19.2791
-76.3489
-149.295
-239.013
-341.163
-440.537
-507.113
109.541
106.454
100.115
90.1857
76.13
57.1859
32.3387
0.319317
-40.3191
-90.9399
-152.188
-222.718
-297.14
-363.816
-405.148
87.209
84.0835
77.6966
67.7718
53.8859
35.465
11.7971
-17.9166
-54.4271
-98.1501
-148.634
-203.717
-258.492
-304.692
-331.881
67.045
63.9759
57.7329
48.1069
34.7895
17.3865
-4.54739
-31.4337
-63.5267
-100.664
-141.884
-184.928
-225.797
-258.765
-277.49
49.0102
46.0705
40.1166
31.0039
18.529
2.45324
-17.4536
-41.3356
-69.1233
-100.343
-133.867
-167.649
-198.585
-222.726
-236.1
33.015
30.2565
24.6923
16.2342
4.76797
-9.82038
-27.6001
-48.5258
-72.3366
-98.4215
-125.669
-152.345
-176.09
-194.162
-203.996
18.9339
16.3894
11.2761
3.55226
-6.82592
-19.8786
-35.5622
-53.7127
-73.9706
-95.6922
-117.867
-139.074
-157.534
-171.317
-178.718
6.61846
4.30492
-0.328432
-7.28745
-16.5634
-28.1103
-41.8115
-57.4364
-74.5879
-92.6479
-110.736
-127.709
-142.224
-152.902
-158.579
-4.09155
-6.16973
-10.319
-16.5191
-24.7247
-34.8465
-46.7252
-60.1001
-74.5742
-89.5833
-104.38
-118.05
-129.576
-137.959
-142.381
-13.3594
-15.2071
-18.8862
-24.3588
-31.556
-40.3631
-50.6001
-62.0005
-74.1888
-86.6657
-98.8056
-109.88
-119.112
-125.764
-129.253
-21.3449
-22.9736
-26.2086
-31.0015
-37.2699
-44.887
-53.6675
-63.3537
-73.603
-83.9817
-93.9706
-102.988
-110.437
-115.766
-118.547
-28.2001
-29.6252
-32.4498
-36.62
-42.0478
-48.6033
-56.106
-64.316
-72.9273
-81.5682
-89.8094
-97.1862
-103.234
-107.535
-109.772
-34.0662
-35.3055
-37.7572
-41.3658
-46.0428
-51.662
-58.0536
-64.9995
-72.231
-79.4319
-86.2481
-92.3066
-97.2432
-100.737
-102.549
-39.0722
-40.1443
-42.2617
-45.37
-49.3839
-54.1846
-59.6165
-65.4846
-71.5558
-77.5626
-83.2127
-88.2056
-92.2536
-95.1078
-96.584
-43.3342
-44.2575
-46.0785
-48.7455
-52.1788
-56.2692
-60.8764
-65.8288
-70.9254
-75.9406
-80.6335
-84.7605
-88.0927
-90.4347
-91.6436
-46.9554
-47.7476
-49.3082
-51.5892
-54.5177
-57.9951
-61.8967
-66.0729
-70.3514
-74.5425
-78.447
-81.867
-84.619
-86.5481
-87.5423
-50.0268
-50.7044
-52.0378
-53.9834
-56.4756
-59.4264
-62.7264
-66.2459
-69.8379
-73.3432
-76.5969
-79.4372
-81.7163
-83.3106
-84.1311
-52.628
-53.206
-54.3424
-55.9983
-58.1151
-60.6154
-63.4038
-66.3685
-69.3847
-72.3186
-75.0335
-77.397
-79.289
-80.6102
-81.2893
-54.828
-55.32
-56.2866
-57.6932
-59.4884
-61.6045
-63.9588
-66.4554
-68.9886
-71.446
-73.7141
-75.6841
-77.258
-78.3554
-78.919
-56.6865
-57.1045
-57.9253
-59.1185
-60.6391
-62.4283
-64.4149
-66.517
-68.645
-70.7047
-72.6017
-74.246
-75.5577
-76.4711
-76.9398
-58.2548
-58.6095
-59.3056
-60.3165
-61.6032
-63.115
-64.7908
-66.5607
-68.3489
-70.0764
-71.6645
-73.039
-74.1338
-74.8954
-75.286
-59.577
-59.8776
-60.4673
-61.3231
-62.4112
-63.688
-65.1013
-66.5916
-68.0949
-69.5448
-70.8757
-72.0259
-72.9411
-73.5773
-73.9034
-60.6904
-60.9451
-61.4443
-62.1684
-63.0882
-64.1664
-65.3582
-66.6135
-67.8779
-69.0958
-70.2123
-71.1761
-71.9422
-72.4744
-72.747
-61.6272
-61.8428
-62.2653
-62.8778
-63.6553
-64.5658
-65.5712
-66.629
-67.6932
-68.7171
-69.6548
-70.4634
-71.1057
-71.5516
-71.7799
-62.4143
-62.5968
-62.9545
-63.4726
-64.13
-64.8992
-65.748
-66.64
-67.5366
-68.3984
-69.1868
-69.8663
-70.4056
-70.7797
-70.9713
-63.0747
-63.2293
-63.5322
-63.9709
-64.5271
-65.1776
-65.8947
-66.6478
-67.4041
-68.1305
-68.7945
-69.3664
-69.82
-70.1346
-70.2957
-63.6277
-63.7589
-64.0157
-64.3876
-64.8588
-65.4096
-66.0164
-66.6533
-67.2924
-67.9058
-68.4662
-68.9486
-69.331
-69.5961
-69.7318
-64.0898
-64.2012
-64.4194
-64.7352
-65.1353
-65.6027
-66.1174
-66.6572
-67.1986
-67.7179
-68.1921
-68.6001
-68.9234
-69.1475
-69.2621
-64.4745
-64.5695
-64.7554
-65.0244
-65.3651
-65.763
-66.2009
-66.6599
-67.1202
-67.5614
-67.9641
-68.3103
-68.5847
-68.7748
-68.872
-64.7933
-64.8746
-65.0337
-65.2638
-65.5552
-65.8954
-66.2697
-66.6619
-67.0549
-67.4315
-67.7751
-68.0705
-68.3044
-68.4665
-68.5494
-65.0557
-65.1256
-65.2626
-65.4608
-65.7115
-66.0042
-66.3261
-66.6633
-67.001
-67.3246
-67.6197
-67.8733
-68.0741
-68.2132
-68.2843
-65.2695
-65.3302
-65.4491
-65.6211
-65.8388
-66.0927
-66.3719
-66.6643
-66.957
-67.2374
-67.4931
-67.7127
-67.8866
-68.007
-68.0686
-65.4411
-65.4944
-65.5988
-65.7498
-65.9408
-66.1636
-66.4085
-66.6649
-66.9217
-67.1674
-67.3915
-67.5839
-67.7362
-67.8417
-67.8956
-65.5757
-65.6232
-65.7162
-65.8507
-66.0208
-66.2191
-66.4372
-66.6654
-66.8939
-67.1125
-67.3118
-67.4829
-67.6184
-67.7121
-67.7601
-65.6773
-65.7204
-65.8048
-65.9268
-66.0811
-66.2611
-66.4588
-66.6657
-66.8728
-67.071
-67.2517
-67.4067
-67.5295
-67.6144
-67.6578
-65.749
-65.789
-65.8673
-65.9805
-66.1237
-66.2906
-66.474
-66.666
-66.858
-67.0418
-67.2092
-67.353
-67.4667
-67.5455
-67.5857
-65.7929
-65.831
-65.9056
-66.0134
-66.1497
-66.3087
-66.4834
-66.6661
-66.8489
-67.0239
-67.1832
-67.3201
-67.4283
-67.5033
-67.5416
-65.8103
-65.8477
-65.9208
-66.0265
-66.1601
-66.3159
-66.4871
-66.6662
-66.8453
-67.0167
-67.1729
-67.307
-67.4131
-67.4865
-67.524
-65.8018
-65.8396
-65.9134
-66.0201
-66.1551
-66.3124
-66.4853
-66.6662
-66.8471
-67.0202
-67.1779
-67.3133
-67.4204
-67.4946
-67.5325
-65.7672
-65.8064
-65.8832
-65.9942
-66.1345
-66.2982
-66.478
-66.6661
-66.8543
-67.0344
-67.1984
-67.3393
-67.4507
-67.5279
-67.5673
-65.7052
-65.7472
-65.8292
-65.9478
-66.0978
-66.2727
-66.4649
-66.666
-66.8672
-67.0597
-67.2351
-67.3857
-67.5048
-67.5873
-67.6295
-65.6142
-65.6601
-65.7499
-65.8797
-66.0438
-66.2353
-66.4456
-66.6657
-66.886
-67.0968
-67.2889
-67.4539
-67.5844
-67.6747
-67.7209
-65.4914
-65.5426
-65.6428
-65.7877
-65.9709
-66.1847
-66.4196
-66.6654
-66.9115
-67.147
-67.3616
-67.5459
-67.6918
-67.7928
-67.8444
-65.3329
-65.391
-65.5047
-65.669
-65.8769
-66.1194
-66.3859
-66.6649
-66.9443
-67.2117
-67.4554
-67.6647
-67.8304
-67.9451
-68.0038
-65.1342
-65.2009
-65.3314
-65.5201
-65.7588
-66.0374
-66.3436
-66.6643
-66.9853
-67.2928
-67.573
-67.8138
-68.0044
-68.1363
-68.2038
-64.8892
-64.9665
-65.1177
-65.3364
-65.6132
-65.9361
-66.2913
-66.6633
-67.0359
-67.3927
-67.7181
-67.9977
-68.219
-68.3723
-68.4507
-64.5906
-64.6807
-64.8571
-65.1124
-65.4354
-65.8125
-66.2273
-66.6619
-67.0973
-67.5145
-67.895
-68.222
-68.4809
-68.6603
-68.7521
-64.2293
-64.335
-64.5419
-64.8412
-65.2202
-65.6627
-66.1497
-66.66
-67.1714
-67.6616
-68.1089
-68.4935
-68.7981
-69.0091
-69.1171
-63.7948
-63.9191
-64.1625
-64.5148
-64.961
-65.4821
-66.0557
-66.6572
-67.2603
-67.8386
-68.3665
-68.8205
-69.1802
-69.4295
-69.557
-63.2739
-63.4205
-63.7076
-64.1232
-64.6497
-65.2649
-65.9425
-66.6533
-67.3665
-68.0506
-68.6754
-69.2129
-69.639
-69.9344
-70.0855
-62.6512
-62.8244
-63.1635
-63.6545
-64.2769
-65.0045
-65.8063
-66.6479
-67.4927
-68.3037
-69.0448
-69.6827
-70.1886
-70.5394
-70.7189
-61.9084
-62.113
-62.514
-63.0947
-63.8311
-64.6925
-65.6424
-66.6401
-67.6425
-68.6053
-69.4858
-70.2442
-70.8459
-71.2633
-71.4769
-61.0235
-61.2655
-61.7396
-62.4267
-63.2986
-64.319
-65.4452
-66.6292
-67.8196
-68.9641
-70.0116
-70.9144
-71.6312
-72.1285
-72.3832
-59.9706
-60.2567
-60.8175
-61.6305
-62.6629
-63.8722
-65.208
-66.6138
-68.0286
-69.3903
-70.6377
-71.7138
-72.5687
-73.1623
-73.4663
-58.7191
-59.0572
-59.7203
-60.6821
-61.9044
-63.3375
-64.9223
-66.592
-68.2746
-69.8959
-71.3828
-72.6668
-73.6877
-74.397
-74.7604
-57.2328
-57.6322
-58.4157
-59.553
-60.9995
-62.6974
-64.5776
-66.5612
-68.5631
-70.4948
-72.2687
-73.8024
-75.0231
-75.8717
-76.3068
-55.4694
-55.9406
-56.8655
-58.2091
-59.92
-61.931
-64.1611
-66.5178
-68.9003
-71.2031
-73.3213
-75.1552
-76.6167
-77.6336
-78.1553
-53.3788
-53.9341
-55.0246
-56.6104
-58.6322
-61.0124
-63.6567
-66.4566
-69.2928
-72.0397
-74.5712
-76.7667
-78.5188
-79.7393
-80.3658
-50.9027
-51.556
-52.8399
-54.709
-57.0956
-59.9104
-63.0442
-66.3702
-69.7473
-73.0259
-76.0542
-78.6861
-80.7899
-82.2574
-83.0113
-47.9731
-48.7403
-50.2491
-52.4484
-55.2617
-58.587
-62.2985
-66.2482
-70.2701
-74.1858
-77.8124
-80.9719
-83.5028
-85.2709
-86.18
-44.511
-45.4097
-47.1788
-49.7616
-53.0723
-56.9956
-61.3873
-66.076
-70.8666
-75.5465
-79.8948
-83.6942
-86.7451
-88.8806
-89.9799
-40.4251
-41.4749
-43.5438
-46.5696
-50.4576
-55.0789
-60.27
-65.8332
-71.5399
-77.1373
-82.3582
-86.9361
-90.623
-93.2095
-94.5429
-35.6105
-36.8327
-39.2445
-42.7792
-47.3339
-52.7668
-58.8943
-65.4906
-72.2892
-78.9894
-85.2679
-90.7964
-95.2649
-98.4082
-100.032
-29.9475
-31.3648
-34.1657
-38.2806
-43.6006
-49.9724
-57.1932
-65.0075
-73.1067
-81.1343
-88.6982
-95.3924
-100.827
-104.662
-106.647
-23.3007
-24.9365
-28.1747
-32.9456
-39.1373
-46.5886
-55.08
-64.3266
-73.974
-83.601
-92.7321
-100.863
-107.499
-112.201
-114.641
-15.5185
-17.396
-21.1199
-26.6242
-33.7996
-42.4827
-52.4424
-63.3674
-74.8554
-86.4118
-97.4604
-107.372
-115.512
-121.31
-124.328
-6.43309
-8.57377
-12.8293
-19.1428
-27.4153
-37.4905
-49.1349
-62.0172
-75.6891
-89.5751
-102.978
-115.11
-125.152
-132.349
-136.11
4.13817
1.71642
-3.1103
-10.3016
-19.7797
-31.4088
-44.9679
-60.1186
-76.374
-93.0735
-109.378
-124.298
-136.768
-145.774
-150.503
16.3903
13.6759
8.25004
0.127046
-10.6509
-23.9874
-39.6957
-57.4531
-76.7505
-96.846
-116.739
-135.186
-150.79
-162.167
-168.178
30.5266
27.5173
21.4825
12.3986
0.254028
-14.9195
-33.0009
-53.7182
-76.5726
-100.759
-125.102
-148.048
-167.747
-182.284
-190.028
46.7514
43.4586
36.8313
26.7947
13.2616
-3.83274
-24.4761
-48.4993
-75.4696
-104.562
-134.436
-163.163
-188.288
-207.117
-217.253
65.2614
61.7144
54.5464
43.6177
28.7413
9.71785
-13.6045
-41.234
-72.8924
-107.823
-144.567
-180.778
-213.198
-237.987
-251.516
86.2332
82.4831
74.8717
63.181
47.0999
26.2529
0.257477
-31.1711
-68.043
-109.823
-155.066
-201.023
-243.408
-276.673
-295.172
109.807
105.932
98.0281
85.7916
68.7668
46.3622
17.8918
-17.3284
-59.7851
-109.418
-165.069
-223.748
-279.948
-325.61
-351.673
136.071
132.175
124.192
111.726
94.1681
70.6826
40.2124
1.539
-46.5434
-104.834
-172.969
-248.193
-323.803
-388.154
-426.269
165.037
161.256
153.466
141.193
123.684
99.8521
68.2285
26.9396
-26.213
-93.4127
-175.945
-272.367
-375.474
-468.914
-527.331
196.626
193.117
185.85
174.296
157.589
134.43
102.955
60.5779
3.87163
-71.3439
-169.274
-291.897
-433.855
-573.99
-668.954
230.649
227.586
221.208
210.974
195.972
174.782
145.25
104.165
46.8089
-33.5014
-145.454
-297.997
-493.499
-710.427
-876.516
266.796
264.354
259.241
250.959
238.649
220.922
195.567
159.05
105.685
26.3138
-93.4453
-274.261
-538.259
-882.162
-1199.41
304.634
302.972
299.471
293.739
285.086
272.357
253.63
225.632
182.617
114.175
0.963551
-192.756
-527.523
-1072.4
-1742.6
343.623
342.864
341.246
338.543
334.347
327.954
318.129
302.637
277.205
233.123
151.28
-13.3015
-370.873
-1175.59
-2751.18
383.134
383.348
383.77
384.379
385.131
385.929
386.559
386.539
384.739
378.291
359.051
300.173
96.302
-743.451
-4853.89
422.492
423.684
426.158
430.11
435.878
444.016
455.433
471.671
495.495
532.337
594.343
714.332
1005.06
1960.01
6185.97
461.016
463.124
467.515
474.574
484.972
499.819
520.954
551.527
597.204
668.901
789.361
1009.91
1452.52
2391.92
4163.67
498.071
500.973
507.014
516.714
530.971
551.247
579.914
620.886
680.837
771.592
914.86
1151.27
1554.98
2245.77
3371.89
294.635
122.239
52.2553
15.5428
-6.98235
-22.0822
-32.7408
-40.5025
-46.2567
-50.5534
-53.7498
-56.084
-57.7159
-58.7511
-59.2535
186.938
115.443
62.8198
28.2456
5.02098
-11.197
-22.8982
-31.5384
-38.0088
-42.879
-46.5254
-49.2024
-51.0819
-52.2776
-52.8591
128.87
95.5298
60.8435
33.0639
12.158
-3.44725
-15.1787
-24.0779
-30.8683
-36.0497
-39.9694
-42.8693
-44.9172
-46.2252
-46.8628
93.9423
76.5407
54.0646
33.1051
15.6128
1.61266
-9.42444
-18.0792
-24.8419
-30.0929
-34.1172
-37.1235
-39.2614
-40.6336
-41.3042
71.0887
61.0676
46.2267
30.7349
16.641
4.61469
-5.32366
-13.3925
-19.8626
-24.9849
-28.9683
-31.9767
-34.1332
-35.5247
-36.207
55.1868
48.9349
38.836
27.3907
16.2315
6.16625
-2.52062
-9.81456
-15.8171
-20.6652
-24.4935
-27.4182
-29.5325
-30.9047
-31.5797
43.6205
39.4685
32.3763
23.8449
15.0607
6.7599
-0.684632
-7.13245
-12.5717
-17.0516
-20.6434
-23.4197
-25.4439
-26.7655
-27.4179
34.933
32.0397
26.9125
20.472
13.5527
6.75815
0.45925
-5.15
-9.99117
-14.0528
-17.3574
-19.941
-21.8407
-23.0882
-23.7061
28.251
26.1589
22.3579
17.4294
11.9567
6.41144
1.12414
-3.70041
-7.95095
-11.5783
-14.5704
-16.9351
-18.6879
-19.8456
-20.4209
23.0189
21.462
18.5838
14.763
10.4096
5.88493
1.46756
-2.64907
-6.34267
-9.54359
-12.2176
-14.3522
-15.9466
-17.0052
-17.533
18.8655
17.6805
15.4622
12.465
8.98035
5.28326
1.60194
-1.89122
-5.07587
-7.87383
-10.2381
-12.1428
-13.5756
-14.5317
-15.0097
15.5329
14.6148
12.8799
10.504
7.69768
4.67005
1.60549
-1.34743
-4.07706
-6.50441
-8.57654
-10.2599
-11.5343
-12.3885
-12.8168
12.8363
12.1146
10.7413
8.84096
6.56782
4.08198
1.53133
-0.958545
-3.28775
-5.38098
-7.1841
-8.6598
-9.78348
-10.5398
-10.9199
10.6396
10.0656
8.96763
7.43578
5.58496
3.53848
1.41479
-0.681145
-2.66194
-4.45844
-6.01826
-7.30325
-8.28676
-8.95117
-9.28586
8.84023
8.37945
7.49426
6.2513
4.73736
3.04821
1.27882
-0.48363
-2.16383
-3.69979
-5.04263
-6.15526
-7.01074
-7.59055
-7.88321
7.35991
6.98711
6.26854
5.25433
4.01092
2.61333
1.13791
-0.343185
-1.76564
-3.07485
-4.22631
-5.18518
-5.9254
-6.42854
-6.68293
6.13768
5.83412
5.24744
4.41595
3.39113
2.2322
1.0008