/*--------------------------------*- C++ -*----------------------------------*\
| =========                 |                                                 |
| \\      /  F ield         | OpenFOAM: The Open Source CFD Toolbox           |
|  \\    /   O peration     | Version:  5.x                                   |
|   \\  /    A nd           | Web:      www.OpenFOAM.org                      |
|    \\/     M anipulation  |                                                 |
\*---------------------------------------------------------------------------*/
FoamFile
{
    version     2.0;
    format      ascii;
    class       volScalarField;
    location    "0.9";
    object      gradTy;
}
// * * * * * * * * * * * * * * * * * * * * * * * * * * * * * * * * * * * * * //

dimensions      [0 -1 0 1 0 0 0];

internalField   nonuniform List<scalar> 
6300
(
1302.1
1907.48
2516.37
3131.03
3753.57
4385.9
5029.64
5686.04
6355.87
7039.3
7735.83
8444.22
9162.41
9887.59
10616.3
-1.77455
-5.28462
-8.67467
-11.8552
-14.7231
-17.1591
-19.0268
-20.1766
-20.4548
-19.7189
-17.8596
-14.827
-10.656
-5.48342
0.451414
-3.00098
-8.9412
-14.6909
-20.1061
-25.0186
-29.2298
-32.5084
-34.595
-35.2161
-34.1101
-31.0659
-25.9723
-18.8686
-9.98281
0.262046
-4.28908
-12.788
-21.0412
-28.859
-36.0146
-42.2321
-47.1809
-50.4776
-51.7032
-50.4379
-46.3199
-39.1258
-28.8615
-15.8393
-0.705162
-5.65635
-16.8801
-27.8261
-38.2734
-47.9475
-56.5019
-63.5037
-68.4296
-70.6792
-69.6162
-64.6477
-55.3471
-41.6096
-23.8051
-2.85881
-7.11239
-21.2494
-35.1091
-48.4599
-60.9988
-72.3226
-81.9004
-89.0555
-92.9651
-92.6971
-87.3048
-76.0024
-58.422
-34.9102
-6.74104
-8.65599
-25.8953
-42.9
-59.4567
-75.2633
-89.8868
-102.717
-112.924
-119.425
-120.899
-115.868
-102.932
-81.162
-50.6691
-13.1275
-10.2721
-30.7753
-51.1376
-71.2019
-90.7089
-109.242
-126.155
-140.494
-150.91
-155.599
-152.334
-138.69
-112.621
-73.4731
-23.2342
-11.9288
-35.7954
-59.6718
-83.5023
-107.126
-130.212
-152.162
-171.983
-188.117
-198.249
-199.173
-186.868
-157.155
-107.364
-39.1549
-13.576
-40.8049
-68.2503
-96.0067
-124.079
-152.315
-180.295
-207.155
-231.319
-250.103
-259.234
-252.448
-221.762
-159.666
-64.9356
-15.1461
-45.5967
-76.5159
-108.192
-140.865
-174.671
-209.542
-245.018
-279.893
-311.603
-335.204
-341.92
-317.771
-244.597
-109.606
-16.5576
-49.9186
-84.0223
-119.379
-156.514
-195.956
-238.18
-283.474
-331.626
-381.204
-428.051
-462.247
-462.795
-391.337
-197.29
-17.7229
-53.4968
-90.2735
-128.783
-169.854
-214.455
-263.74
-319.068
-381.923
-453.527
-533.539
-616.209
-679.811
-660.652
-406.84
-18.5595
-56.0709
-94.7894
-135.624
-179.659
-228.263
-283.25
-347.126
-423.463
-517.431
-636.355
-789.226
-979.57
-1164.6
-1049.87
-19.0033
-57.4366
-97.1867
-139.262
-184.892
-235.683
-293.865
-362.716
-447.363
-556.367
-705.208
-924.75
-1284.62
-1968.29
-3556.88
11283.8
11887.5
12485.5
13075.5
13655
14221.9
14774.4
15310.8
15829.8
16330.3
16811.4
17272.3
17712.6
18131.7
18529.5
18905.5
19259.7
19591.8
19901.9
20189.7
20455.3
20698.7
20919.7
21118.5
21295.1
21449.4
21581.6
21691.5
21779.2
21844.8
21888.2
21909.4
21908.4
21885.2
21840
21772.6
21683.3
21572.1
21439.2
21284.9
21109.4
20913.1
20696.4
20459.8
20203.8
19929.1
19636.3
19326.1
18999.3
18656.8
18299.3
17927.8
17543.3
17146.6
16738.9
16321.2
15894.7
15460.5
15019.7
14573.7
14123.6
13670.5
13215.5
12759.8
12304.4
11850.2
11398
10948.6
10502.9
10061.5
9625.06
9194.26
8769.72
8352.07
7941.92
7539.87
7146.51
6762.41
6388.11
6024.12
5670.92
5328.93
4998.53
4680.03
4373.68
4079.67
3798.08
3528.93
3272.11
3027.43
6.29754
11.6926
16.9669
21.9445
26.4893
30.5128
33.9743
36.8755
39.2506
41.1558
42.6586
43.8282
44.7296
45.4185
45.9404
46.3301
46.6133
46.8088
46.9309
46.9915
47.0017
46.9725
46.915
46.8401
46.7576
46.6756
46.5995
46.5317
46.4714
46.4144
46.3539
46.2803
46.1821
46.0457
45.8563
45.5983
45.2555
44.812
44.2531
43.5665
42.7429
41.777
40.6681
39.42
38.0402
36.5388
34.927
33.215
31.411
29.5194
27.5413
25.4747
23.3163
21.0641
18.7196
16.2905
13.7923
11.2486
8.68988
6.15173
3.67121
1.28328
-0.982825
-3.1065
-5.07761
-6.89688
-8.57496
-10.1302
-11.5854
-12.9649
-14.2905
-15.5794
-16.8427
-18.0842
-19.3017
-20.4876
-21.6308
-22.7182
-23.7361
-24.671
-25.5096
-26.2384
-26.8432
-27.3083
-27.6163
-27.749
-27.6886
-27.4203
-26.935
-26.2316
10.3677
19.6803
28.7516
37.2649
44.9812
51.7526
57.5201
62.3012
66.1708
69.2393
71.6335
73.4797
74.8926
75.9685
76.7828
77.3912
77.833
78.1359
78.3204
78.4039
78.4035
78.3372
78.2242
78.0839
77.9338
77.7886
77.658
77.5465
77.4524
77.3686
77.283
77.1791
77.0367
76.833
76.5425
76.1382
75.5919
74.876
73.9643
72.8345
71.4698
69.8609
68.0066
65.9141
63.598
61.0777
58.3746
55.5084
52.4941
49.3398
46.0459
42.6065
39.0124
35.256
31.3361
27.2631
23.062
18.7737
14.4529
10.1638
5.97419
1.948
-1.86137
-5.41673
-8.7005
-11.7155
-14.4829
-17.0382
-19.4252
-21.689
-23.8706
-26.0013
-28.1
-30.1728
-32.2137
-34.2077
-36.1336
-37.9676
-39.6857
-41.2652
-42.6844
-43.922
-44.9553
-45.7582
-46.3009
-46.5503
-46.4731
-46.0403
-45.2332
-44.0479
14.2582
28.0163
41.3408
53.7337
64.8348
74.439
82.4874
89.0413
94.2462
98.296
101.4
103.758
105.544
106.899
107.925
108.696
109.257
109.638
109.86
109.942
109.905
109.774
109.578
109.347
109.109
108.886
108.695
108.542
108.425
108.332
108.245
108.139
107.986
107.751
107.398
106.888
106.178
105.226
103.994
102.444
100.552
98.3005
95.6896
92.7311
89.4498
85.8791
82.0555
78.0129
73.7762
69.358
64.7565
59.9573
54.9388
49.6799
44.17
38.4171
32.4549
26.3438
20.1689
14.032
8.04181
2.30123
-3.10418
-8.11576
-12.7074
-16.8867
-20.6918
-24.1837
-27.4364
-30.5255
-33.5175
-36.462
-39.3871
-42.2991
-45.1848
-48.0168
-50.7593
-53.3741
-55.8251
-58.08
-60.1106
-61.89
-63.3893
-64.5734
-65.3987
-65.8132
-65.7612
-65.1916
-64.0683
-62.3807
17.9287
36.9805
55.2751
72.0664
86.8478
99.3694
109.611
117.728
123.99
128.72
132.246
134.865
136.824
138.308
139.444
140.31
140.948
141.377
141.61
141.661
141.552
141.316
140.995
140.633
140.274
139.952
139.691
139.501
139.376
139.301
139.248
139.183
139.066
138.853
138.495
137.938
137.125
135.996
134.492
132.56
130.161
127.269
123.882
120.021
115.725
111.05
106.056
100.8
95.3215
89.6411
83.7517
77.6232
71.2099
64.4639
57.3519
49.8713
42.0609
34.0053
25.8299
17.6896
9.75146
2.17424
-4.91068
-11.415
-17.3024
-22.5902
-27.3438
-31.6647
-35.6735
-39.4911
-43.2214
-46.9385
-50.6804
-54.4498
-58.2191
-61.9398
-65.5533
-69.0007
-72.2305
-75.2014
-77.8818
-80.2447
-82.2606
-83.8891
-85.0721
-85.7325
-85.78
-85.126
-83.7032
-81.4855
21.3793
47.0367
71.3754
93.2945
112.116
127.584
139.794
149.086
155.939
160.877
164.398
166.925
168.789
170.219
171.353
172.256
172.942
173.403
173.627
173.615
173.387
172.987
172.475
171.921
171.39
170.937
170.593
170.372
170.264
170.244
170.274
170.307
170.292
170.171
169.883
169.361
168.53
167.306
165.605
163.349
160.475
156.944
152.751
147.927
142.535
136.665
130.417
123.884
117.135
110.199
103.063
95.6689
87.9282
79.7417
71.0308
61.7658
51.9858
41.8053
31.4073
21.0243
10.9108
1.30946
-7.58028
-15.6275
-22.7834
-29.0831
-34.6368
-39.6105
-44.1988
-48.5931
-52.9527
-57.3851
-61.9381
-66.6026
-71.3233
-76.0151
-80.5822
-84.9347
-89.0008
-92.7318
-96.0994
-99.0872
-101.677
-103.833
-105.485
-106.52
-106.795
-106.153
-104.469
-101.683
24.6983
58.994
90.962
118.985
142.213
160.49
174.178
183.955
190.645
195.076
197.979
199.94
201.379
202.557
203.596
204.513
205.262
205.772
205.987
205.881
205.472
204.821
204.021
203.18
202.402
201.768
201.325
201.085
201.031
201.122
201.302
201.507
201.673
201.731
201.612
201.232
200.499
199.3
197.514
195.022
191.725
187.559
182.513
176.629
170.009
162.796
155.157
147.244
139.174
130.999
122.695
114.161
105.232
95.7156
85.4465
74.3396
62.4244
49.8555
36.9003
23.9097
11.2726
-0.637641
-11.5184
-21.1761
-29.5468
-36.6965
-42.8077
-48.1502
-53.0386
-57.7766
-62.6069
-67.682
-73.0556
-78.6912
-84.4821
-90.2802
-95.927
-101.285
-106.254
-110.783
-114.859
-118.496
-121.71
-124.493
-126.772
-128.391
-129.116
-128.668
-126.805
-123.403
28.1509
74.3046
116.23
151.58
179.439
200.006
214.192
223.268
228.604
231.471
232.913
233.703
234.343
235.093
236.011
237.012
237.923
238.568
238.809
238.583
237.908
236.873
235.627
234.35
233.21
232.328
231.768
231.536
231.594
231.875
232.295
232.767
233.21
233.55
233.713
233.612
233.134
232.133
230.43
227.842
224.209
219.424
213.456
206.363
198.301
189.503
180.244
170.781
161.311
151.926
142.595
133.153
123.309
112.698
100.991
87.9978
73.7236
58.3813
42.3642
26.2075
10.5115
-4.14105
-17.2884
-28.6455
-38.1326
-45.8658
-52.1418
-57.3961
-62.1426
-66.8701
-71.9468
-77.5828
-83.8243
-90.5798
-97.6501
-104.778
-111.7
-118.201
-124.146
-129.488
-134.25
-138.507
-142.357
-145.867
-148.997
-151.538
-153.109
-153.206
-151.34
-147.255
32.4123
95.706
150.967
194.963
227.166
248.71
261.567
267.97
270.121
269.92
268.789
267.687
267.152
267.39
268.314
269.644
270.976
271.951
272.311
271.944
270.871
269.239
267.292
265.338
263.66
262.44
261.753
261.582
261.852
262.443
263.229
264.083
264.91
265.637
266.206
266.544
266.533
265.983
264.627
262.169
258.351
252.988
246.009
237.479
227.635
216.849
205.594
194.296
183.288
172.731
162.613
152.678
142.441
131.21
118.335
103.449
86.5091
67.8277
47.9794
27.7945
8.20355
-9.853
-25.6742
-38.8417
-49.2747
-57.1613
-62.9715
-67.3946
-71.2922
-75.4752
-80.4918
-86.6185
-93.8552
-102.014
-110.729
-119.565
-128.065
-135.902
-142.891
-149.011
-154.346
-159.084
-163.471
-167.765
-172.048
-176.058
-179.201
-180.545
-179.048
-174.166
39.2221
128.678
201.929
255.331
290.244
309.925
318.24
318.8
315.03
309.718
304.63
300.866
298.858
298.711
300.046
302.286
304.555
306.238
306.874
306.342
304.657
302.08
298.989
295.95
293.476
291.808
291.022
291.023
291.672
292.759
294.09
295.467
296.779
297.978
299.056
300.006
300.733
301.018
300.432
298.472
294.736
288.889
280.803
270.491
258.324
244.864
230.995
217.377
204.596
192.882
182.343
172.612
162.976
152.065
138.547
121.832
101.779
78.933
54.0607
28.511
3.67448
-18.7913
-37.8844
-52.9743
-64.079
-71.4383
-75.7875
-78.1357
-80.0144
-82.8608
-87.4164
-94.0308
-102.531
-112.614
-123.6
-134.801
-145.347
-154.783
-162.844
-169.625
-175.259
-180.127
-184.678
-189.638
-195.453
-201.788
-207.848
-211.936
-211.596
-205.661
53.5725
184.987
281.477
342.327
375.257
387.507
386.081
375.862
362.158
349.194
338.563
331.518
327.883
327.898
330.477
334.889
338.982
342.039
343.122
342.408
339.736
335.672
330.622
325.759
322.146
319.919
319.173
319.544
320.879
322.741
324.899
326.961
328.826
330.507
332.103
333.799
335.576
337.314
338.218
337.333
334.156
328.001
318.786
306.149
290.844
273.429
255.988
239.194
224.306
211.271
200.83
192.325
185.257
176.582
163.266
144.924
120.973
92.8572
61.0205
28.1062
-4.35937
-32.6732
-55.941
-72.9226
-84.3474
-90.115
-91.5444
-89.6061
-87.3909
-87.8269
-91.412
-98.757
-108.954
-121.933
-136.171
-150.986
-164.229
-175.64
-184.632
-191.875
-197.26
-201.607
-205.274
-210.255
-218.083
-227.885
-239.305
-249.678
-252.169
-244.432
92.3072
291.592
412.347
469.527
490.05
484.783
466.581
437.939
408.22
385.311
367.329
357.26
351.652
353.396
358.268
367.956
374.903
380.686
381.965
381.299
376.829
370.693
361.997
353.784
348.833
345.916
345.731
346.699
349.343
352.317
355.863
358.755
361.155
363.174
365.02
367.486
370.487
374.821
378.587
379.494
377.865
371.512
361.682
345.625
326.367
301.987
279.991
258.204
241.274
225.841
216.437
209.876
209.749
207.677
195.112
175.983
146.051
112.028
69.4227
26.9493
-18.4719
-53.9145
-83.1363
-100.951
-112.834
-115.104
-112.21
-101.529
-90.9993
-88.3021
-90.0313
-99.4078
-111.391
-129.457
-147.921
-169.436
-185.742
-199.971
-208.92
-216.783
-220.729
-224.042
-223.951
-226.742
-237.839
-251.623
-272.235
-298.733
-307.434
-295.429
223.187
511.278
634.763
649.509
641.976
600.685
562.115
501.567
444.479
414.336
384.707
376.584
364.841
374.397
379.132
404.982
412.509
425.833
423.623
425.683
416.341
409.419
392.698
377.138
372.621
368.006
370.661
371.47
377.366
381.101
387.8
391.287
394.064
396.117
397.071
400.429
403.505
413.174
423.096
425.333
428.394
420.043
413.548
389.704
369.248
327.082
303.65
270.169
256.023
231.66
227.878
218.081
236.963
253.796
236.328
222.509
176.931
143.471
77.5519
29.9606
-47.0219
-84.172
-126.807
-137.562
-155.197
-147.554
-144.112
-113.253
-83.3444
-82.4152
-77.6446
-96.3049
-105.063
-136.393
-155.252
-195.356
-210.207
-231.863
-234.727
-247.285
-245.061
-251.332
-238.433
-231.222
-253.683
-265.481
-296.641
-373.363
-392.461
-368.051
763.981
967.998
1013.76
861.568
842.509
712.664
689.292
560.211
441.937
442.62
371.118
401.12
347.362
402.345
369.593
468.396
441.773
493.355
459.142
486.498
452.38
462.273
421.749
384.609
396.576
379.652
398.279
388.947
408.529
405.649
424.389
424.868
428.044
430.667
425.684
433.801
427.051
451.187
478.698
470.007
495.376
465.909
490.394
428.891
443.365
325.15
341.719
254.214
285.399
207.744
247.873
184.875
267.009
349.189
272.159
314.639
190.226
221.522
59.1582
75.1713
-133.041
-106.633
-216.47
-164.346
-234.026
-174.013
-215.546
-123.66
-34.0085
-82.1029
-31.555
-107.486
-66.2521
-161.291
-131.99
-257.62
-224.852
-290.783
-246.538
-299.034
-257.123
-306.182
-244.684
-192.936
-284.839
-251.414
-255.39
-530.917
-540.081
-480.392
3385.48
1652.6
1677.81
881.906
1202.56
671.317
968.684
603.29
268.1
574.848
211.366
546.275
173.3
556.636
170.619
712.428
358.432
684.426
406.013
635.847
425.058
587.743
445.949
321.392
462.164
340.139
466.193
364.829
472.074
399.103
487.307
454.601
462.845
476.202
435.459
488.612
406.142
484.375
586.475
465.665
641.363
434.098
691.086
358.656
708.54
129.07
529.593
67.2504
471.412
14.1027
416.258
-57.4527
296.862
673.718
135.758
646.951
-20.8497
578.29
-216.243
443.124
-557.026
66.9932
-539.436
-15.8069
-499.662
-54.3007
-479.134
-130.898
213.626
-223.873
196.621
-287.405
168.77
-365.232
114.377
-547.937
-97.3362
-508.302
-118.995
-486.673
-138.135
-520.177
-236.85
52.2442
-496.416
-183.446
176.939
-1071.95
-786.769
-672.814
2771.31
2508.32
2260.87
2027.93
1808.36
1600.92
1404.35
1217.39
1038.77
867.267
701.689
540.889
383.76
229.225
76.2372
-25.227
-23.8577
-22.2617
-20.4952
-18.6168
-16.6803
-14.7314
-12.8045
-10.923
-9.09984
-7.33907
-5.63772
-3.98747
-2.37622
-0.789311
-42.3433
-40.01
-37.2881
-34.2798
-31.0893
-27.8119
-24.5256
-21.2885
-18.1386
-15.0957
-12.1646
-9.3385
-6.60185
-3.93297
-1.30623
-59.9255
-56.5433
-52.5943
-48.2403
-43.6437
-38.9477
-34.2667
-29.6821
-25.2444
-20.9774
-16.8833
-12.9485
-9.14749
-5.44701
-1.80867
-78.2006
-73.6335
-68.296
-62.4352
-56.2897
-50.0621
-43.9057
-37.9241
-32.1757
-26.6828
-21.4402
-16.4227
-11.5913
-6.89809
-2.28983
-97.4466
-91.4819
-84.5099
-76.9043
-69.0085
-61.0967
-53.3628
-45.9266
-38.8462
-32.1338
-25.7688
-19.7082
-13.895
-8.26325
-2.74204
-118.021
-110.324
-101.345
-91.6521
-81.7325
-71.9434
-62.5137
-53.5657
-45.1425
-37.2325
-29.7889
-22.7435
-16.0152
-9.51658
-3.15673
-140.406
-130.434
-118.878
-106.614
-94.3142
-82.42
-71.1732
-60.6717
-50.9184
-41.8589
-33.4064
-25.4579
-17.9032
-10.6297
-3.52455
-165.268
-152.108
-137.103
-121.595
-106.477
-92.2368
-79.0767
-67.0201
-55.9927
-45.8716
-36.5146
-27.7747
-19.5073
-11.5728
-3.83577
-193.553
-175.6
-155.805
-136.165
-117.744
-100.96
-85.8646
-72.3292
-60.1519
-49.1132
-39
-29.6146
-20.7757
-12.3165
-4.08092
-226.555
-200.909
-174.33
-149.495
-127.354
-107.978
-91.0794
-76.2688
-63.1633
-51.4218
-40.7517
-30.9033
-21.6611
-12.8349
-4.25166
-265.668
-227.122
-191.084
-160.109
-134.181
-112.503
-94.1919
-78.4918
-64.8009
-52.651
-41.6754
-31.5811
-22.1272
-13.1083
-4.34184
-310.815
-250.79
-202.744
-165.652
-136.738
-113.642
-94.6792
-78.6934
-64.8876
-52.6979
-41.7114
-31.6137
-22.155
-13.1272
-4.34857
-353.504
-262.44
-203.42
-162.991
-133.456
-110.631
-92.1746
-76.7029
-63.3484
-51.5336
-40.8522
-31.0025
-21.7483
-12.895
-4.27311
-348.778
-242.007
-185.474
-149.411
-123.444
-103.235
-86.671
-72.5836
-60.2596
-49.2279
-39.155
-29.7909
-20.9375
-12.4294
-4.12131
-19.0518
-57.5828
-97.4327
-139.613
-185.359
-236.291
-294.661
-363.803
-448.962
-558.996
-710.183
-935.658
-1311.49
-2036.15
-3690.46
-18.7687
-56.7053
-95.8715
-137.2
-181.811
-231.141
-287.125
-352.497
-431.291
-529.646
-657.031
-827.211
-1053.57
-1306.14
-1248.04
-18.2081
-54.9731
-92.8075
-132.504
-174.984
-221.367
-273.063
-331.866
-400.028
-480.13
-574.148
-679.737
-777.452
-791.836
-498.644
-17.405
-52.4973
-88.449
-125.873
-165.442
-207.901
-254.062
-304.729
-360.468
-420.941
-483.224
-537.72
-559.186
-491.121
-238.199
-16.4055
-49.424
-83.0664
-117.751
-153.891
-191.862
-231.926
-274.067
-317.614
-360.488
-397.7
-418.635
-403.083
-318.772
-132.94
-15.2618
-45.9167
-76.9586
-108.617
-141.067
-174.365
-208.347
-242.423
-275.222
-303.962
-323.471
-324.883
-294.725
-216.919
-83.269
-14.0265
-42.1399
-70.4211
-98.933
-127.65
-156.39
-184.697
-211.664
-235.645
-253.842
-261.806
-253.049
-219.451
-153.843
-56.4357
-12.7491
-38.2461
-63.7223
-89.1045
-114.217
-138.713
-161.976
-182.976
-200.08
-210.825
-211.749
-198.461
-166.402
-112.849
-40.3401
-11.4725
-34.3661
-57.088
-79.462
-101.21
-121.89
-140.824
-156.991
-168.927
-174.627
-171.558
-156.906
-128.277
-85.0178
-29.9182
-10.2312
-30.6047
-50.6945
-70.2535
-88.9418
-106.279
-121.59
-133.943
-142.101
-144.514
-139.409
-125.056
-100.309
-65.4079
-22.7852
-9.05159
-27.0399
-44.6689
-61.6485
-77.6108
-92.0744
-104.409
-113.805
-119.261
-119.621
-113.68
-100.421
-79.3898
-51.1597
-17.6987
-7.95158
-23.7243
-39.0935
-53.7491
-67.3195
-79.3468
-89.2673
-96.4005
-99.9601
-99.1021
-93.0316
-81.1831
-63.469
-40.5432
-13.9568
-6.94202
-20.6885
-34.013
-46.6026
-58.0986
-68.0812
-76.0601
-81.4768
-83.725
-82.2012
-76.3942
-66.017
-51.1663
-32.4683
-11.1364
-6.02785
-17.9455
-29.4423
-40.2148
-49.9279
-58.2059
-64.6312
-68.7523
-70.1081
-68.2735
-62.9295
-53.9565
-41.5346
-26.2221
-8.96922
-5.20942
-15.4946
-25.374
-34.5621
-42.7529
-49.6164
-54.8015
-57.9471
-58.7058
-56.7818
-51.984
-44.2903
-33.9097
-21.323
-7.27796
-4.48373
-13.3251
-21.7854
-29.6015
-36.4989
-42.1916
-46.3872
-48.7987
-49.1657
-47.2848
-43.0487
-36.4894
-27.8163
-17.4362
-5.94141
-3.84551
-11.4201
-18.6438
-25.2784
-31.081
-35.8059
-39.211
-41.0693
-41.1859
-39.4228
-35.7262
-30.1559
-22.9079
-14.3233
-4.87422
-3.2881
-9.75849
-15.911
-21.5327
-26.4109
-30.3361
-33.1086
-34.5486
-34.511
-32.9028
-29.7042
-24.9868
-18.9275
-11.8105
-4.01483
-2.80413
-8.3175
-13.5465
-18.303
-22.4022
-25.6663
-27.9308
-29.0536
-28.926
-27.4869
-24.7365
-20.7494
-15.6812
-9.76872
-3.31791
-2.386
-7.07384
-11.51
-15.5296
-18.9731
-21.6901
-23.5456
-24.4264
-24.2515
-22.9811
-20.6274
-17.2622
-13.0211
-8.10064
-2.74944
-2.02628
-6.00486
-9.76256
-13.156
-16.048
-18.3121
-19.8367
-20.5321
-20.3372
-19.2272
-17.2203
-14.3832
-10.8324
-6.73159
-2.28346
-1.7179
-5.08916
-8.26796
-11.1303
-13.5589
-15.4472
-16.7034
-17.2557
-17.0581
-16.0957
-14.3895
-11.9995
-9.02551
-5.60364
-1.89995
-1.45433
-4.30702
-6.99302
-9.40559
-11.4448
-13.021
-14.0585
-14.4998
-14.31
-13.4806
-12.0333
-10.0213
-7.5295
-4.6713
-1.58322
-1.22962
-3.64056
-5.90786
-7.94001
-9.6521
-10.9688
-11.8275
-12.182
-12.0057
-11.2944
-10.069
-8.37616
-6.28781
-3.89852
-1.32088
-1.03842
-3.07379
-4.9859
-6.69658
-8.13381
-9.23434
-9.94644
-10.2327
-10.0727
-9.46505
-8.42916
-7.00552
-5.255
-3.25648
-1.10305
-0.876022
-2.59257
-4.20374
-5.64295
-6.84923
-7.7695
-8.36093
-8.59316
-8.45038
-7.93296
-7.05846
-5.86179
-4.39434
-2.72196
-0.921794
-0.738256
-2.1845
-3.54092
-4.75099
-5.76316
-6.53292
-7.02474
-7.2139
-7.08811
-6.64872
-5.91137
-4.906
-3.67593
-2.27614
-0.770674
-0.6215
-1.83876
-2.97969
-3.99638
-4.84533
-5.48925
-5.89861
-6.05324
-5.94351
-5.57128
-4.95033
-4.10618
-3.07532
-1.90367
-0.644461
-0.522608
-1.546
-2.5047
-3.35818
-4.06983
-4.60837
-4.9493
-5.07606
-4.9811
-4.66648
-4.14421
-3.43596
-2.57243
-1.59198
-0.538872
-0.438866
-1.29814
-2.10272
-2.81844
-3.41447
-3.86466
-4.14863
-4.25279
-4.17115
-3.90583
-3.46716
-2.87353
-2.1507
-1.33071
-0.450386
-0.367935
-1.08824
-1.76244
-2.36176
-2.86035
-3.23632
-3.47275
-3.55847
-3.48871
-3.26548
-2.89767
-2.40078
-1.79642
-1.1113
-0.376094
-0.307809
-0.910339
-1.47412
-1.975
-2.39133
-2.70484
-2.90149
-2.97207
-2.91279
-2.7255
-2.41776
-2.00264
-1.49819
-0.926675
-0.313587
-0.256766
-0.759336
-1.22945
-1.64692
-1.99367
-2.25448
-2.41772
-2.47581
-2.42572
-2.26911
-2.01238
-1.6665
-1.2465
-0.770904
-0.260858
-0.213332
-0.630858
-1.02133
-1.36794
-1.65565
-1.87185
-2.00692
-2.05465
-2.01258
-1.88221
-1.6689
-1.38179
-1.0334
-0.639046
-0.216229
-0.176242
-0.521154
-0.843658
-1.12984
-1.36726
-1.54554
-1.65674
-1.6958
-1.66075
-1.55286
-1.37664
-1.13964
-0.852192
-0.526946
-0.178291
-0.144407
-0.427003
-0.691198
-0.92557
-1.11993
-1.26578
-1.35664
-1.38839
-1.35947
-1.27095
-1.12655
-0.932492
-0.697225
-0.431094
-0.145854
-0.116889
-0.345623
-0.559436
-0.749071
-0.906282
-1.02418
-1.09756
-1.1231
-1.09956
-1.02783
-0.910945
-0.753947
-0.563682
-0.348504
-0.117908
-0.0928708
-0.274599
-0.444456
-0.595078
-0.719912
-0.813494
-0.871687
-0.891874
-0.873083
-0.816045
-0.723178
-0.598493
-0.447429
-0.276617
-0.0935846
-0.0716382
-0.211815
-0.342825
-0.458984
-0.555235
-0.627365
-0.672191
-0.687702
-0.673158
-0.629131
-0.557495
-0.461347
-0.344883
-0.213212
-0.0721324
-0.0525567
-0.155395
-0.251502
-0.336706
-0.407298
-0.460187
-0.493042
-0.50439
-0.493695
-0.46138
-0.408825
-0.338303
-0.252892
-0.156338
-0.0528905
-0.0350546
-0.103645
-0.167745
-0.224571
-0.271648
-0.306915
-0.328818
-0.336378
-0.329236
-0.307678
-0.272624
-0.225592
-0.168635
-0.104249
-0.0352681
-0.0186062
-0.0550131
-0.0890373
-0.119202
-0.144194
-0.162918
-0.17455
-0.178568
-0.174783
-0.163343
-0.144737
-0.11977
-0.0895323
-0.0553491
-0.0187251
-0.00271684
-0.00803425
-0.0130075
-0.0174226
-0.0210881
-0.0238432
-0.0255653
-0.0261748
-0.0256405
-0.0239807
-0.021264
-0.0176066
-0.0131677
-0.008143
-0.0027553
0.013092
0.0387062
0.0626355
0.0838374
0.101387
0.114516
0.122649
0.125426
0.122722
0.114649
0.101557
0.0840158
0.0627909
0.0388116
0.0131293
0.0292965
0.0866166
0.140173
0.187634
0.226931
0.256345
0.274582
0.280834
0.274812
0.256765
0.227468
0.188196
0.140662
0.0869489
0.029414
0.0463846
0.13714
0.221941
0.297098
0.359336
0.405932
0.434836
0.444762
0.43525
0.406689
0.360305
0.298112
0.222823
0.137739
0.0465965
0.0648707
0.191798
0.310403
0.415531
0.502601
0.567802
0.608264
0.622185
0.608913
0.568987
0.504118
0.417118
0.311785
0.192736
0.0652023
0.08531
0.252233
0.408222
0.546501
0.661046
0.746846
0.800118
0.818484
0.801079
0.748601
0.663293
0.54885
0.410268
0.253622
0.0858013
0.108316
0.320259
0.518334
0.693945
0.839446
0.948469
1.0162
1.03961
1.01759
0.951006
0.842693
0.69734
0.52129
0.322265
0.109026
0.134576
0.397911
0.64404
0.862292
1.04317
1.17875
1.26306
1.29229
1.26504
1.18238
1.04781
0.86714
0.648262
0.400777
0.13559
0.164874
0.487509
0.789097
1.05658
1.27833
1.44464
1.54814
1.58416
1.55095
1.44978
1.28491
1.06347
0.795091
0.491577
0.166313
0.20011
0.591715
0.957827
1.28262
1.55198
1.75412
1.88006
1.9241
1.88405
1.7614
1.5613
1.29237
0.966313
0.597475
0.202148
0.241327
0.713618
1.15524
1.54714
1.8723
2.11649
2.26884
2.3224
2.27447
2.12678
1.88548
1.56092
1.16724
0.72176
0.244207
0.289738
0.85681
1.38717
1.85798
2.24884
2.54261
2.7262
2.79116
2.73416
2.55715
2.26745
1.87744
1.40412
0.868313
0.293807
0.34676
1.02549
1.66043
2.22433
2.69277
3.04521
3.2659
3.34459
3.27714
3.06574
2.71905
2.25181
1.68436
1.04173
0.352506
0.414048
1.22456
1.98301
2.65693
3.21721
3.63927
3.90416
3.99947
3.92003
3.66827
3.25432
2.69574
2.0168
1.2475
0.422162
0.493543
1.45978
2.36426
3.16843
3.83761
4.34244
4.66014
4.77567
4.68254
4.38337
3.89
3.22321
2.41197
1.49216
0.504998
0.58751
1.73786
2.81514
3.77362
4.5721
5.17549
5.55646
5.69671
5.58809
5.23328
4.64606
3.85097
2.8825
1.78358
0.603682
0.698597
2.06668
3.34847
4.4899
5.442
6.16295
6.61988
6.7905
6.66452
6.24453
5.54641
4.59909
3.44357
2.13123
0.721429
0.829891
2.4554
3.97925
5.33758
6.47236
7.33369
7.88203
8.09019
7.94506
7.44885
6.61975
5.49173
4.1135
2.54652
0.862126
0.984977
2.91468
4.72493
6.34045
7.69253
8.7217
9.38033
9.63512
9.46929
8.88426
7.9006
6.55806
4.91446
3.04333
1.03049
1.168
3.45688
5.60578
7.52618
9.13686
10.3669
11.159
11.472
11.2845
10.5964
9.43057
7.83339
5.87335
3.63852
1.23226
1.38375
4.09624
6.64523
8.92691
10.8454
12.3162
13.2701
13.6564
13.4473
12.6401
11.26
9.3606
7.02301
4.35271
1.47448
1.63768
4.84909
7.87025
10.5797
12.8646
14.6244
15.7751
16.2542
16.0252
15.0815
13.4499
11.192
8.40364
5.21123
1.7658
1.936
5.734
9.3116
12.5273
15.2484
17.3553
18.7463
19.3436
19.0992
18.0004
16.0745
13.3917
10.0647
6.24541
2.11694
2.28569
6.77191
11.0041
14.8182
18.0586
20.5831
22.2683
23.0173
22.7664
21.4935
19.2246
16.0385
12.0676
7.49419
2.54127
2.6945
7.98612
12.9869
17.5073
21.3658
24.3934
26.4404
27.385
27.1429
25.6779
23.0114
19.2302
14.4888
9.00642
3.05558
3.17089
9.40223
15.303
20.656
25.2498
28.8843
31.3777
32.5765
32.3685
30.6963
27.5721
23.0883
17.4244
10.8439
3.68117
3.72396
11.0478
17.9994
24.3315
29.7997
34.1674
37.2135
38.7446
38.6103
36.7228
33.0764
27.7657
20.9964
13.0854
4.44539
4.36316
12.9517
21.1258
28.6066
35.1135
40.3678
44.1011
46.0687
46.0693
43.9703
39.7363
33.4557
25.361
15.833
5.38368
5.098
15.1432
24.7333
33.5576
41.2966
47.624
52.2143
54.7581
54.9856
52.7
47.8168
40.405
30.7208
19.2203
6.54277
5.93754
17.6505
28.8724
39.262
48.4596
56.0859
61.7482
65.0554
65.6466
63.233
57.6526
48.932
37.3414
23.4247
7.98514
6.88963
20.4985
33.5892
45.7938
56.7131
65.9111
72.9167
77.2381
78.3936
75.9644
69.6685
59.4516
45.577
28.6863
9.79599
7.95995
23.7061
38.921
53.2175
66.1612
77.258
85.9485
91.6183
93.629
91.38
84.4065
72.5105
55.9065
35.3363
12.094
9.15083
27.2824
44.8901
61.5799
76.8913
90.2749
101.077
108.539
111.822
110.076
102.562
88.8382
68.9897
43.8414
15.0487
10.4597
31.2221
51.4962
70.8988
88.9592
105.084
118.524
128.359
133.505
132.775
125.028
109.418
85.7526
54.8767
18.9094
11.8776
35.5006
58.7069
81.149
102.37
121.755
138.473
151.435
159.267
160.347
152.954
135.591
107.522
69.4472
24.0554
13.387
40.068
66.4476
92.246
117.056
140.277
161.029
178.072
189.716
193.801
187.801
169.198
136.237
89.0986
31.0894
14.9607
44.8443
74.5913
104.028
132.845
160.51
186.161
208.456
225.413
234.256
231.4
212.772
174.796
116.298
41.0186
16.5605
49.715
82.9493
116.24
149.432
182.141
213.619
242.545
266.741
282.832
285.948
269.781
227.605
155.149
55.6402
18.1367
54.5299
91.2671
128.52
166.351
204.625
242.849
279.916
313.695
340.414
353.883
344.848
301.438
212.785
78.4356
19.6294
59.1053
99.226
140.396
182.962
227.141
272.878
319.568
365.548
407.194
437.442
443.783
406.687
302.153
116.87
20.9713
63.2322
106.455
151.302
198.451
248.574
302.242
359.708
420.408
481.884
537.597
572.878
558.761
447.594
188.953
22.0919
66.6904
112.555
160.606
211.873
267.542
328.964
397.598
474.724
560.568
651.936
736.269
778.224
695.441
343.858
22.9243
69.2686
117.137
167.674
222.237
282.512
350.675
429.587
522.979
635.411
771.151
929.082
1084.3
1129.95
732.184
23.4123
70.7876
119.864
171.946
228.631
292.001
364.918
451.515
558.006
694.061
874.946
1123.77
1466.46
1872.36
1861.2
23.5177
71.1248
120.501
173.02
230.382
294.856
369.656
459.621
572.497
721.569
931.554
1253.25
1804.71
2904.36
5567.44
23.2258
70.2325
118.956
170.727
227.191
290.537
363.859
451.811
561.845
706.77
910.576
1223.14
1762.26
2850.61
5524.71
22.5482
68.1468
115.295
165.174
219.22
279.286
347.898
428.663
526.956
651.073
814.062
1035.69
1338.39
1695.6
1681.3
21.5217
64.9848
109.735
156.726
207.066
262.098
323.493
393.337
474.128
568.377
676.814
791.938
876.636
798.579
163.072
-220.687
-181.412
-151.638
-128.324
-109.326
-93.3294
-79.5037
-67.297
-56.322
-46.2937
-36.9927
-28.2434
-19.8989
-11.8316
-3.92612
-83.0459
-115.872
-115.097
-105.566
-94.0717
-82.5974
-71.7098
-61.5228
-52.0002
-43.0568
-34.5957
-26.5203
-18.7382
-11.1617
-3.70712
-37.9416
-73.6533
-84.6245
-84.1596
-78.7932
-71.4493
-63.4216
-55.2809
-47.2705
-39.4805
-31.9273
-24.5906
-17.4326
-10.4061
-3.45972
-20.7301
-48.6079
-62.0848
-66.1481
-64.8795
-60.7686
-55.2052
-48.9425
-42.3827
-35.7357
-29.105
-22.5344
-16.0339
-9.59364
-3.19327
-12.9486
-33.5581
-46.0756
-51.8324
-52.9329
-51.09
-47.4686
-42.8054
-37.5511
-31.9757
-26.2378
-20.4272
-14.5915
-8.75253
-2.91686
-8.83768
-24.1242
-34.7566
-40.7447
-43.0246
-42.6411
-40.4504
-37.0742
-32.9383
-28.3252
-23.4183
-18.3353
-13.1499
-7.90818
-2.63881
-6.38476
-17.9198
-26.6589
-32.228
-34.9614
-35.4426
-34.2511
-31.8667
-28.6536
-24.8756
-20.7187
-16.3124
-11.746
-7.0822
-2.36619
-4.78847
-13.6549
-20.76
-25.677
-28.4585
-29.4019
-28.8766
-27.2314
-24.7582
-21.6865
-18.1902
-14.3989
-10.4086
-6.2917
-2.1047
-3.68505
-10.6119
-16.3783
-20.6063
-23.229
-24.3781
-24.2769
-23.1681
-21.2758
-18.7899
-15.8647
-12.6221
-9.15808
-5.54919
-1.85853
-2.88906
-8.37359
-13.0631
-16.6484
-19.0204
-20.2199
-20.3743
-19.6466
-18.2032
-16.1965
-13.7579
-10.9977
-8.00718
-4.86288
-1.63051
-2.29663
-6.68651
-10.5133
-13.5312
-15.6241
-16.7855
-17.082
-16.62
-15.52
-13.9012
-11.873
-9.53197
-6.96225
-4.2372
-1.42221
-1.84521
-5.38975
-8.52431
-11.0548
-12.8731
-13.9499
-14.3147
-14.0346
-13.1955
-11.8888
-10.204
-8.22409
-6.02445
-3.67353
-1.2342
-1.49489
-4.37715
-6.95388
-9.07187
-10.6358
-11.6071
-11.9937
-11.836
-11.1942
-10.1378
-8.73899
-7.06789
-5.19105
-3.17087
-1.06625
-1.21909
-3.57624
-5.70129
-7.47272
-8.80888
-9.66927
-10.0494
-9.97228
-9.4795
-8.62358
-7.46207
-6.05381
-4.45663
-2.72651
-0.917546
-0.999443
-2.93615
-4.69366
-6.17506
-7.3114
-8.0639
-8.42158
-8.39616
-8.01603
-7.32061
-6.35572
-5.17026
-3.81404
-2.33662
-0.786885
-0.822869
-2.42018
-3.87727
-5.11637
-6.07969
-6.73184
-7.0589
-7.06547
-6.77065
-6.20398
-5.40185
-4.40474
-3.25522
-1.9967
-0.672826
-0.679837
-2.00133
-3.21185
-4.24863
-5.06343
-5.62481
-5.91802
-5.94331
-5.71332
-5.25019
-4.58281
-3.74459
-2.77173
-1.70196
-0.573814
-0.563245
-1.65932
-2.66675
-3.53457
-4.22261
-4.70341
-4.96256
-4.99779
-4.81729
-4.43766
-3.8819
-3.17754
-2.35523
-1.44756
-0.488274
-0.467711
-1.3787
-2.21831
-2.94497
-3.52525
-3.93542
-4.16206
-4.20153
-4.05901
-3.74698
-3.28376
-2.69207
-1.99776
-1.22884