/*--------------------------------*- C++ -*----------------------------------*\
| =========                 |                                                 |
| \\      /  F ield         | OpenFOAM: The Open Source CFD Toolbox           |
|  \\    /   O peration     | Version:  5.x                                   |
|   \\  /    A nd           | Web:      www.OpenFOAM.org                      |
|    \\/     M anipulation  |                                                 |
\*---------------------------------------------------------------------------*/
FoamFile
{
    version     2.0;
    format      ascii;
    class       volScalarField;
    location    "10";
    object      gradTy;
}
// * * * * * * * * * * * * * * * * * * * * * * * * * * * * * * * * * * * * * //

dimensions      [0 -1 0 1 0 0 0];

internalField   nonuniform List<scalar> 
6300
(
1021.62
1065.08
1109.16
1154.27
1200.78
1249.05
1299.39
1352.06
1407.26
1465.08
1525.52
1588.47
1653.69
1720.84
1789.45
-0.312612
-0.932431
-1.53555
-2.1093
-2.63887
-3.10674
-3.49255
-3.77354
-3.92582
-3.92664
-3.7576
-3.40865
-2.882
-2.19497
-1.38029
-0.52704
-1.57263
-2.59192
-3.56466
-4.46675
-5.26915
-5.93741
-6.43218
-6.71116
-6.73283
-6.46216
-5.87804
-4.98107
-3.79971
-2.3918
-0.749961
-2.23913
-3.69481
-5.09062
-6.39426
-7.56562
-8.55566
-9.30651
-9.75372
-9.83123
-9.48004
-8.66014
-7.36443
-5.63086
-3.54748
-0.983619
-2.93908
-4.85754
-6.70872
-8.454
-10.0434
-11.413
-12.4844
-13.1659
-13.3583
-12.9665
-11.918
-10.1856
-7.81182
-4.92222
-1.22903
-3.676
-6.08749
-8.43264
-10.6695
-12.7407
-14.5685
-16.0521
-17.0669
-17.4692
-17.1097
-15.8594
-13.6478
-10.5084
-6.61266
-1.48556
-4.44837
-7.38374
-10.2647
-13.0508
-15.6812
-18.0679
-20.0884
-21.5803
-22.3417
-22.1436
-20.7619
-18.0376
-13.9613
-8.7548
-1.75036
-5.24812
-8.73428
-12.1916
-15.5875
-18.8652
-21.9335
-24.6532
-26.8239
-28.1735
-28.3607
-27.0067
-23.7793
-18.5441
-11.5557
-2.01809
-6.05941
-10.1135
-14.1798
-18.2421
-22.2585
-26.1472
-29.7665
-32.8882
-35.1674
-36.1186
-35.1246
-31.5284
-24.8802
-15.3622
-2.28067
-6.85784
-11.4805
-16.1719
-20.9423
-25.7792
-30.6302
-35.3772
-39.7946
-43.4887
-45.8215
-45.8443
-42.3294
-34.086
-20.8271
-2.5274
-7.61067
-12.7786
-18.0848
-23.576
-29.2853
-35.2167
-41.3171
-47.4239
-53.171
-57.8336
-60.1015
-57.8583
-48.3074
-29.3719
-2.74563
-8.27875
-13.9385
-19.8123
-25.9914
-32.569
-39.6338
-47.2502
-55.4121
-63.9374
-72.2399
-78.8693
-80.6946
-71.9129
-44.7212
-2.92197
-8.82013
-14.884
-21.2343
-28.0078
-35.3652
-43.4988
-52.6372
-63.0364
-74.9257
-88.3187
-102.44
-114.137
-113.928
-78.8674
-3.04404
-9.19572
-15.543
-22.2328
-29.44
-37.3849
-46.3586
-56.7628
-69.1697
-84.4097
-103.668
-128.436
-159.484
-190.792
-178.662
-3.10248
-9.37563
-15.8592
-22.7136
-30.1343
-38.3752
-47.7873
-58.8849
-72.4692
-89.8744
-113.506
-148.148
-204.57
-311.091
-557.238
1853.17
1911.35
1969.4
2026.99
2083.76
2139.39
2193.61
2246.15
2296.82
2345.42
2391.83
2435.92
2477.6
2516.79
2553.46
2587.56
2619.06
2647.95
2674.23
2697.89
2718.95
2737.42
2753.33
2766.7
2777.56
2785.96
2791.94
2795.53
2796.79
2795.77
2792.51
2787.06
2779.48
2769.82
2758.12
2744.44
2728.83
2711.34
2692.02
2670.91
2648.08
2623.57
2597.43
2569.72
2540.49
2509.8
2477.69
2444.21
2409.41
2373.33
2336.02
2297.51
2257.83
2217.04
2175.15
2132.22
2088.28
2043.36
1997.52
1950.79
1903.23
1854.87
1805.77
1755.97
1705.52
1654.47
1602.87
1550.78
1498.26
1445.37
1392.19
1338.8
1285.28
1231.76
1178.33
1125.12
1072.26
1019.87
968.1
917.078
866.941
817.819
769.838
723.112
677.749
633.84
591.461
550.671
511.511
473.997
-0.558033
0.213637
0.979686
1.71349
2.39378
3.00583
3.54159
3.999
4.38076
4.69284
4.94308
5.13993
5.29158
5.40536
5.4874
5.54264
5.57488
5.58701
5.58128
5.55945
5.52306
5.47349
5.41208
5.34016
5.25907
5.17014
5.07469
4.97403
4.86941
4.76202
4.65294
4.54312
4.43325
4.32379
4.21493
4.10654
3.9983
3.88972
3.78031
3.66968
3.55772
3.44464
3.33107
3.21796
3.10654
2.99811
2.89389
2.79475
2.70115
2.61295
2.52939
2.44925
2.37091
2.2926
2.2127
2.12989
2.04337
1.9529
1.8588
1.76174
1.66255
1.56196
1.46022
1.35698
1.25108
1.14051
1.02258
0.894123
0.751832
0.592652
0.414162
0.214896
-0.00543906
-0.245889
-0.504299
-0.777482
-1.06146
-1.35173
-1.64351
-1.93189
-2.21196
-2.47879
-2.72741
-2.95273
-3.1496
-3.31296
-3.43811
-3.52116
-3.55952
-3.55231
-0.96889
0.36458
1.68372
2.94064
4.098
5.13097
6.02726
6.78538
7.41217
7.91984
8.3234
8.63841
8.87948
9.05926
9.1881
9.27404
9.3231
9.33974
9.32731
9.28848
9.22559
9.14081
9.03633
8.91433
8.77705
8.62672
8.46555
8.29576
8.11949
7.93877
7.75551
7.57132
7.38748
7.20478
7.02351
6.84341
6.66377
6.48359
6.30183
6.11765
5.93069
5.74126
5.55043
5.35999
5.17222
4.98961
4.81447
4.64858
4.49281
4.34697
4.20971
4.07872
3.95093
3.82306
3.69198
3.55525
3.41143
3.26019
3.10228
2.93921
2.77281
2.60472
2.43578
2.2656
2.09227
1.9123
1.72081
1.512
1.27972
1.01828
0.72314
0.391512
0.0227754
-0.381395
-0.817145
-1.27878
-1.75925
-2.25067
-2.74477
-3.23326
-3.70792
-4.1606
-4.58307
-4.96681
-5.30301
-5.58274
-5.79749
-5.94002
-6.00536
-5.99168
-1.43691
0.536533
2.47776
4.31164
5.9818
7.45348
8.71244
9.76151
10.6157
11.2974
11.8319
12.2441
12.5563
12.7872
12.9513
13.0593
13.1188
13.1351
13.1121
13.0529
12.9604
12.8373
12.6866
12.5113
12.3147
12.0997
11.8697
11.6277
11.3768
11.1201
10.8603
10.5999
10.3409
10.0846
9.83128
9.58047
9.33087
9.08062
8.82771
8.57049
8.30806
8.04073
7.7701
7.49902
7.2313
6.97115
6.72256
6.48862
6.27097
6.0694
5.8818
5.70431
5.53185
5.35886
5.18011
4.99155
4.79088
4.57779
4.35387
4.12211
3.88616
3.64935
3.41374
3.17935
2.94361
2.70124
2.44456
2.16419
1.85012
1.49295
1.08515
0.622041
0.102477
-0.470977
-1.09228
-1.75254
-2.44088
-3.14535
-3.85376
-4.55418
-5.23518
-5.88559
-6.49417
-7.04906
-7.53747
-7.94583
-8.2606
-8.46978
-8.56477
-8.54209
-1.9838
0.75484
3.42637
5.91834
8.15144
10.0823
11.6999
13.0183
14.0678
14.8871
15.5166
15.9938
16.3504
16.6115
16.7954
16.9145
16.9767
16.9872
16.9492
16.8657
16.7395
16.5738
16.3725
16.1394
15.8788
15.5947
15.2913
14.9727
14.6429
14.306
13.9661
13.6268
13.2909
12.9603
12.6357
12.3161
11.9992
11.6818
11.3601
11.0311
10.6928
10.3453
9.99071
9.63353
9.2798
8.93637
8.60987
8.30553
8.02627
7.77205
7.53964
7.32297
7.11385
6.90324
6.68266
6.4456
6.18851
5.91128
5.61703
5.31136
5.00105
4.69252
4.39023
4.09532
3.80476
3.51105
3.20267
2.86516
2.48283
2.04079
1.52705
0.934115
0.260025
-0.491409
-1.31107
-2.18562
-3.09902
-4.03412
-4.974
-5.90286
-6.80624
-7.67059
-8.48236
-9.22683
-9.887
-10.4435
-10.8756
-11.1638
-11.2934
-11.258
-2.62741
1.07007
4.63382
7.89811
10.7566
13.1625
15.1187
16.6627
17.8519
18.7507
19.4213
19.9176
20.2827
20.5477
20.7335
20.8522
20.91
20.9096
20.8526
20.7405
20.5759
20.3625
20.1048
19.808
19.4774
19.1183
18.7357
18.3345
17.9198
17.4972
17.072
16.6494
16.2339
15.8284
15.4338
15.0486
14.6692
14.2898
13.904
13.5059
13.0918
12.6607
12.2159
11.7639
11.3143
10.878
10.4661
10.0871
9.74634
9.44406
9.17561
8.93151
8.69876
8.46273
8.20969
7.9292
7.61585
7.26996
6.89733
6.50797
6.11404
5.72737
5.35674
5.00568
4.67106
4.34259
4.00332
3.63126
3.20207
2.69243
2.08351
1.36357
0.529452
-0.413101
-1.45032
-2.56228
-3.72546
-4.91553
-6.10965
-7.2878
-8.43307
-9.53086
-10.5671
-11.5256
-12.3855
-13.1199
-13.6974
-14.0858
-14.2595
-14.2062
-3.37828
1.57786
6.27243
10.4622
14.0131
16.89
19.1308
20.8179
22.054
22.9427
23.5767
24.0305
24.3589
24.5981
24.7682
24.8775
24.9269
24.9137
24.8353
24.691
24.4828
24.2149
23.8933
23.5252
23.1172
22.6759
22.2068
21.7157
21.2085
20.6921
20.1741
19.6621
19.1628
18.681
18.2184
17.7731
17.3392
16.9071
16.4657
16.0042
15.5151
14.9962
14.4516
13.8911
13.3296
12.785
12.2749
11.814
11.4111
11.0676
10.7767
10.5239
10.2886
10.0469
9.77645
9.46035
9.09025
8.66738
8.20196
7.71135
7.21681
6.73936
6.29528
5.89259
5.52876
5.18993
4.85141
4.47987
4.03737
3.48726
2.80008
1.95765
0.955255
-0.198242
-1.48171
-2.86493
-4.3129
-5.79085
-7.26801
-8.71978
-10.1279
-11.4795
-12.7634
-13.966
-15.0642
-16.0221
-16.791
-17.3167
-17.5523
-17.4738
-4.22763
2.46214
8.63772
13.9459
18.2398
21.5329
23.9392
25.6216
26.7551
27.5008
27.9907
28.323
28.5628
28.7469
28.8894
28.9884
29.0329
29.0106
28.9118
28.7327
28.4745
28.1434
27.748
27.2986
26.8042
26.2723
25.7087
25.1189
24.5094
23.8885
23.2667
22.6554
22.0654
21.5048
20.9771
20.4803
20.0055
19.5371
19.0555
18.5412
17.9804
17.3681
16.7093
16.0188
15.32
14.6413
14.0122
13.4566
12.9897
12.6146
12.3222
12.0905
11.8869
11.6719
11.4083
11.0686
10.64
10.1254
9.54223
8.91981
8.2944
7.70275
7.1737
6.72305
6.34997
6.03637
5.74663
5.43025
5.02723
4.47909
3.73984
2.78176
1.59833
0.203489
-1.36972
-3.07455
-4.85733
-6.66744
-8.46304
-10.2146
-11.9043
-13.5254
-15.077
-16.5565
-17.9451
-19.1961
-20.2346
-20.9652
-21.2972
-21.1827
-5.11743
4.08648
12.2515
18.8896
23.9069
27.4517
29.7888
31.2144
32.013
32.4254
32.6299
32.7469
32.845
32.9539
33.0715
33.1757
33.2334
33.2155
33.1021
32.8861
32.5694
32.1622
31.6786
31.1345
30.543
29.9121
29.2462
28.5485
27.8245
27.0841
26.3418
25.6159
24.9237
24.2791
23.6893
23.1538
22.6602
22.1842
21.6904
21.143
20.5179
19.8048
19.0107
18.1566
17.2794
16.4245
15.6416
14.9697
14.4342
14.0408
13.7785
13.6151
13.4997
13.3655
13.1478
12.8033
12.312
11.6808
10.9375
10.1311
9.32196
8.5746
7.93789
7.44053
7.08428
6.84724
6.67906
6.50423
6.225
5.74508
4.99371
3.92943
2.54492
0.861226
-1.06898
-3.17267
-5.36306
-7.56554
-9.72201
-11.7989
-13.78
-15.6717
-17.4945
-19.2779
-21.0241
-22.6763
-24.1214
-25.1875
-25.6848
-25.5145
-5.84982
7.20635
18.0631
26.1663
31.6938
35.1091
36.9507
37.7093
37.8263
37.6483
37.3941
37.1971
37.1103
37.1474
37.2717
37.4291
37.5415
37.5567
37.4392
37.1833
36.7935
36.2898
35.6953
35.0375
34.3373
33.6013
32.8281
32.0149
31.1621
30.2812
29.3922
28.527
27.7122
26.9733
26.3224
25.766
25.2886
24.856
24.4014
23.8557
23.1809
22.3572
21.3973
20.3268
19.2057
18.1031
17.1101
16.2857
15.673
15.2775
15.0917
15.0695
15.1388
15.1783
15.0694
14.7485
14.1847
13.3971
12.4227
11.3458
10.2599
9.2865
8.50085
7.95425
7.64637
7.55839
7.62056
7.72806
7.71128
7.4015
6.69776
5.53785
3.92198
1.87366
-0.51869
-3.14614
-5.85155
-8.53001
-11.0957
-13.521
-15.7847
-17.917
-19.9687
-22.0528
-24.2384
-26.4545
-28.5537
-30.2286
-31.0336
-30.7602
-5.77678
13.4931
27.8396
37.1512
42.522
45.0328
45.6727
45.1292
44.0652
42.9821
42.0772
41.4897
41.1986
41.2167
41.4252
41.7487
41.9907
42.0903
41.9772
41.6746
41.183
40.5497
39.8048
39.0032
38.185
37.3456
36.4696
35.54
34.5419
33.4921
32.4099
31.3675
30.3935
29.5427
28.8211
28.2664
27.8542
27.5615
27.2453
26.7565
26.0604
25.1079
23.9453
22.5717
21.1076
19.626
18.3378
17.2989
16.601
16.2143
16.171
16.3941
16.8227
17.2067
17.298
17.0455
16.3814
15.3839
14.0575
12.5753
11.0376
9.72973
8.72122
8.12585
7.89338
8.05486
8.49823
9.13226
9.62088
9.62657
9.06001
7.80415
5.92309
3.3828
0.371461
-3.00602
-6.37755
-9.65559
-12.6704
-15.4744
-17.9773
-20.2773
-22.395
-24.6806
-27.4078
-30.3999
-33.5958
-36.5216
-37.9343
-37.4182
-2.5644
26.8698
44.8665
53.8104
57.4675
57.6493
56.0971
53.2974
50.3303
48.0582
46.3017
45.3544
44.8403
45.0104
45.412
46.1841
46.6438
46.9288
46.7867
46.4364
45.7753
44.9689
43.9943
42.9914
42.0618
41.1412
40.1868
39.1624
37.9949
36.7479
35.3692
34.1079
32.8959
31.9247
31.0783
30.5602
30.2465
30.2996
30.3365
29.9542
29.3081
28.1596
26.7959
24.9459
23.0333
20.8691
19.2056
17.8198
17.0799
16.6553
16.8658
17.4219
18.5695
19.6558
20.0205
19.9343
19.057
17.8436
15.9155
13.884
11.4834
9.74112
8.34592
7.77414
7.57242
8.14474
9.10073
10.7452
12.2253
12.6751
12.4143
10.9702
8.87299
5.56978
1.78844
-2.87482
-7.03848
-11.1605
-14.5486
-17.8617
-20.4623
-22.8998
-24.5797
-26.6723
-30.1953
-34.0514
-39.0267
-44.9932
-47.6119
-46.3924
13.4495
56.7161
74.9289
78.0825
77.4172
72.7619
68.3168
61.7057
55.5937
52.3907
49.3599
48.5944
47.4956
48.4696
48.8642
51.0686
51.5471
52.3809
51.8951
51.6445
50.5757
49.6289
48.2235
46.8728
45.9244
44.9841
44.0038
42.9894
41.5612
40.1923
38.1584
36.776
35.0506
34.1257
32.8617
32.5588
32.1094
33.0601
34.0304
33.5309
33.278
31.5203
30.3457
27.4096
25.3202
21.3903
19.6726
17.4096
17.1042
16.181
17.0621
17.5972
20.4039
23.1431
23.3917
23.9614
22.216
21.3318
17.9217
15.7234
10.9806
9.25218
6.78439
6.88902
6.13637
7.68166
8.71134
12.5943
16.3129
16.7463
17.4719
15.0765
13.5591
8.44493
4.47511
-3.46324
-7.75955
-13.7221
-16.5351
-21.2749
-23.182
-26.613
-26.1698
-26.6042
-32.5029
-36.0908
-43.0297
-58.285
-62.816
-59.3596
88.0102
122.638
126.674
107.852
103.111
87.5711
83.655
69.3949
56.6681
56.475
49.156
52.3143
47.1661
52.763
49.7104
58.438
55.9386
59.7333
56.6644
58.0308
55.2003
54.9494
52.3739
50.1749
49.7755
48.8846
47.8702
47.4126
45.0422
44.5947
40.0095
39.9385
36.0529
36.8153
33.2614
34.7686
31.9565
35.7928
39.841
36.7528
39.4153
34.0418
36.4324
28.6544
30.2578
18.7267
20.9253
14.1812
18.0184
13.1092
17.7573
14.5019
22.3358
30.2174
26.3008
31.3227
24.1353
28.4576
18.1834
21.2275
6.13757
9.82858
1.5192
7.239
1.39188
7.96161
4.21371
14.6807
25.1315
20.3972
27.0242
17.9186
23.4249
9.67274
12.8769
-9.29556
-6.08058
-20.8185
-15.746
-28.7664
-23.7064
-35.9044
-26.4954
-18.6668
-38.1371
-33.3042
-35.056
-87.0186
-89.5205
-79.4154
461.803
232.609
211.334
117.342
144.354
85.6393
113.887
74.8742
39.6924
70.8192
33.863
67.9941
31.3621
69.51
33.5912
81.9725
51.2646
76.967
55.045
70.4586
56.1082
63.615
55.9802
50.8836
54.3324
52.9609
50.9329
54.5881
45.7525
54.9532
35.3585
48.5919
30.3603
45.7188
26.3713
43.1965
22.2284
38.2183
55.9264
31.6918
57.1225
25.3814
57.1602
16.3884
54.1076
-3.70927
35.054
-4.2853
31.5259
-3.72641
29.8322
-4.56333
24.1977
54.2796
16.337
56.2639
9.47931
56.601
-0.734403
52.8436
-25.751
27.6846
-23.9488
24.2445
-21.2336
23.0982
-20.754
16.7893
55.8157
7.68688
59.2306
-0.281349
61.0219
-13.5172
57.8205
-51.6861
21.4502
-56.4418
11.0966
-62.2938
0.620982
-76.3096
-24.5449
28.5809
-78.7674
-21.0352
45.2214
-186.974
-134.378
-112.93
434.54
393.826
355.361
319.027
284.684
252.167
221.301
191.902
163.787
136.771
110.674
85.3201
60.5384
36.162
12.0272
-3.49539
-3.37378
-3.20095
-2.98725
-2.74362
-2.48045
-2.20668
-1.9294
-1.65372
-1.3829
-1.11861
-0.861214
-0.610107
-0.363956
-0.120959
-5.89166
-5.67976
-5.38028
-5.01198
-4.59444
-4.14589
-3.68174
-3.21392
-2.75083
-2.29761
-1.8567
-1.42839
-1.01134
-0.603093
-0.200398
-8.39057
-8.07318
-7.62833
-7.08585
-6.47618
-5.82685
-5.1604
-4.49367
-3.83802
-3.19996
-2.58216
-1.98427
-1.40378
-0.836664
-0.277937
-11.0414
-10.5939
-9.97386
-9.22678
-8.39748
-7.52484
-6.63925
-5.76229
-4.90754
-4.08202
-3.28766
-2.52272
-1.78281
-1.06184
-0.352619
-13.9032
-13.287
-12.4462
-11.4497
-10.362
-9.23564
-8.10937
-7.0086
-5.94776
-4.93284
-3.96371
-3.03609
-2.14287
-1.27524
-0.423315
-17.0503
-16.2045
-15.074
-13.7637
-12.3649
-10.9462
-9.55383
-8.21486
-6.94197
-5.73778
-4.59821
-3.51499
-2.47732
-1.47291
-0.488713
-20.5808
-19.4064
-17.8812
-16.1661
-14.3873
-12.6302
-10.9447
-9.35491
-7.86738
-6.47799
-5.17627
-3.94831
-2.77846
-1.65035
-0.54733
-24.6288
-22.9591
-20.878
-18.6318
-16.388
-14.2424
-12.2398
-10.3925
-8.69451
-7.13044
-5.6805
-4.32343
-3.03782
-1.80268
-0.597574
-29.3798
-26.923
-24.0396
-21.0949
-18.2901
-15.7115
-13.3794
-11.2805
-9.38759
-7.66863
-6.09178
-4.62703
-3.24665
-1.92496
-0.637848
-35.081
-31.313
-27.262
-23.4179
-19.9657
-16.9339
-14.2854
-11.9625
-9.90654
-8.06459
-6.39085
-4.84618
-3.39674
-2.01263
-0.666694
-42.0001
-35.9854
-30.277
-25.3485
-21.2205
-17.7727
-14.8655
-12.3773
-10.2114
-8.29219
-6.56076
-4.97004
-3.48143
-2.06211
-0.682978
-50.1419
-40.3509
-32.5117
-26.4782
-21.7949
-18.0708
-15.0262
-12.4697
-10.2692
-8.3319
-6.58985
-4.9917
-3.49677
-2.07136
-0.686076
-58.0181
-42.7639
-32.9402
-26.2573
-21.4097
-17.6889
-14.6988
-12.2058
-10.0639
-8.17618
-6.47494
-4.91005
-3.44254
-2.04044
-0.676037
-57.805
-39.7458
-30.2272
-24.2006
-19.8974
-16.5761
-13.8739
-11.5906
-9.60407
-7.8339
-6.22358
-4.73095
-3.32285
-1.97177
-0.653661
-3.09878
-9.36392
-15.8376
-22.6792
-30.0827
-38.3012
-47.6851
-58.7504
-72.306
-89.7123
-113.46
-148.604
-206.711
-317.886
-570.028
-3.04364
-9.19356
-15.5362
-22.2173
-29.4114
-37.3404
-46.3024
-56.7163
-69.1961
-84.672
-104.568
-130.932
-165.675
-203.881
-193.247
-2.945
-8.88925
-14.9997
-21.3991
-28.2294
-35.6621
-43.9111
-53.247
-64.005
-76.5614
-91.1829
-107.441
-122.234
-123.791
-77.4787
-2.80866
-8.46945
-14.2624
-20.2815
-26.6288
-33.4165
-40.7648
-48.7897
-57.5645
-67.0159
-76.6598
-84.9674
-87.9835
-76.9417
-37.1573
-2.6421
-7.95779
-13.368
-18.9358
-24.7222
-30.7814
-37.1483
-43.8111
-50.6537
-57.3364
-63.0638
-66.1669
-63.4946
-50.0522
-20.8149
-2.45366
-7.38039
-12.3641
-17.4381
-22.6259
-27.9323
-33.326
-38.7075
-43.8535
-48.3199
-51.2902
-51.3765
-46.4843
-34.1311
-13.0783
-2.25171
-6.76336
-11.2975
-15.8612
-20.4471
-25.0225
-29.5117
-33.767
-37.5247
-40.3419
-41.519
-40.0431
-34.6546
-24.2513
-8.88573
-2.04402
-6.13065
-10.2103
-14.2687
-18.2753
-22.1725
-25.8597
-29.1717
-31.8487
-33.5025
-33.5897
-31.4265
-26.3071
-17.8172
-6.3639
-1.83732
-5.50274
-9.13769
-12.712
-16.1795
-19.468
-22.4681
-25.0172
-26.8831
-27.7505
-27.223
-24.8625
-20.3
-13.4407
-4.72711
-1.63699
-4.89593
-8.10712
-11.2296
-14.2077
-16.9638
-19.3896
-21.3369
-22.6106
-22.9671
-22.1289
-19.8276
-15.8878
-10.3519
-3.60458
-1.44708
-4.32224
-7.13811
-9.84724
-12.3899
-14.6888
-16.6431
-18.1244
-18.975
-19.013
-18.0506
-15.9303
-12.5838
-8.10426
-2.80276
-1.27034
-3.78969
-6.24315
-8.5804
-10.7414
-12.6529
-14.225
-15.3498
-15.9034
-15.7536
-14.7763
-12.8845
-10.0666
-6.42736
-2.21202
-1.10839
-3.30285
-5.42885
-7.43585
-9.26616
-10.8526
-12.1173
-12.9717
-13.3203
-13.0686
-12.137
-10.4818
-8.11962
-5.15046
-1.76622
-0.961945
-2.86353
-4.69713
-6.41392
-7.96011
-9.27575
-10.2944
-10.9447
-11.1539
-10.8556
-10.0002
-8.56987
-6.5941
-4.16178
-1.4233
-0.830977
-2.4714
-4.0465
-5.5104
-6.81411
-7.905
-8.72729
-9.22385
-9.33997
-9.02936
-8.26251
-7.03667
-5.38556
-3.38569
-1.15545
-0.714954
-2.1246
-3.47304
-4.71808
-5.81584
-6.72072
-7.38627
-7.76713
-7.82227
-7.51989
-6.84351
-5.79873
-4.41918
-2.76953
-0.943621
-0.612993
-1.8203
-2.97135
-4.02801
-4.95145
-5.70257
-6.24291
-6.53653
-6.55278
-6.27008
-5.68028
-4.79323
-3.64033
-2.27575
-0.774372
-0.523998
-1.55504
-2.53519
-3.4304
-4.2067
-4.83074
-5.27081
-5.49848
-5.49085
-5.23347
-4.72341
-3.97232
-3.00844
-1.87696
-0.638007
-0.446767
-1.32512
-2.158
-2.91533
-3.56764
-4.08662
-4.44617
-4.62377
-4.60232
-4.37227
-3.93388
-3.29914
-2.4929
-1.55279
-0.527371
-0.380074
-1.12677
-1.83325
-2.47318
-3.02113
-3.45318
-3.74785
-3.88726
-3.8586
-3.65572
-3.28068
-2.74501
-2.07031
-1.28786
-0.437091
-0.322718
-0.956338
-1.55469
-2.09488
-2.55508
-2.91512
-3.15731
-3.26743
-3.23584
-3.05869
-2.739
-2.28742
-1.72253
-1.07035
-0.363066
-0.273565
-0.81039
-1.3165
-1.77212
-2.15857
-2.45888
-2.65847
-2.74597
-2.71413
-2.56063
-2.28888
-1.9085
-1.43535
-0.891104
-0.302124
-0.231564
-0.685762
-1.11337
-1.49738
-1.82186
-2.07255
-2.23743
-2.30738
-2.27688
-2.14465
-1.91418
-1.59398
-1.19754
-0.742912
-0.251784
-0.195764
-0.57959
-0.940515
-1.26395
-1.53638
-1.7458
-1.88229
-1.93851
-1.91025
-1.79689
-1.60178
-1.33238
-1.00012
-0.620061
-0.210082
-0.16531
-0.489319
-0.793681
-1.06594
-1.29463
-1.46969
-1.58289
-1.6283
-1.6027
-1.50588
-1.34097
-1.11441
-0.835899
-0.51798
-0.17545
-0.139447
-0.412686
-0.669132
-0.89818
-1.09012
-1.23651
-1.33055
-1.3674
-1.34458
-1.26216
-1.12295
-0.932512
-0.699034
-0.432985
-0.146628
-0.117511
-0.347711
-0.563603
-0.756179
-0.917236
-1.03969
-1.11789
-1.14792
-1.12784
-1.05786
-0.940489
-0.780498
-0.584783
-0.362089
-0.122597
-0.0989235
-0.29267
-0.474259
-0.636059
-0.771148
-0.873589
-0.938689
-0.963245
-0.945733
-0.886458
-0.78762
-0.653286
-0.489262
-0.302854
-0.102526
-0.0831821
-0.24607
-0.398654
-0.534484
-0.647727
-0.733409
-0.787632
-0.807769
-0.792622
-0.742526
-0.659395
-0.546686
-0.409281
-0.253283
-0.0857335
-0.069854
-0.206622
-0.334682
-0.448589
-0.543439
-0.61507
-0.660239
-0.67679
-0.663773
-0.621528
-0.551704
-0.457232
-0.342208
-0.211731
-0.0716612
-0.0585668
-0.173221
-0.280534
-0.375923
-0.455273
-0.515101
-0.552714
-0.566338
-0.555218
-0.519675
-0.461127
-0.382045
-0.285865
-0.17684
-0.0598467
-0.0490005
-0.144917
-0.234663
-0.314392
-0.380658
-0.430554
-0.461843
-0.473066
-0.463616
-0.433794
-0.384805
-0.318728
-0.238439
-0.14748
-0.049907
-0.0408813
-0.120898
-0.195746
-0.262209
-0.317409
-0.358925
-0.384904
-0.394144
-0.38616
-0.36122
-0.320345
-0.265279
-0.198419
-0.122712
-0.0415232
-0.0339741
-0.100466
-0.16265
-0.217845
-0.263659
-0.298084
-0.319586
-0.327179
-0.320475
-0.299708
-0.265737
-0.220019
-0.164542
-0.101751
-0.0344285
-0.0280778
-0.0830267
-0.134405
-0.179995
-0.217816
-0.246213
-0.263924
-0.270141
-0.264552
-0.247362
-0.219286
-0.181532
-0.135744
-0.0839353
-0.0283992
-0.0230191
-0.0680658
-0.110179
-0.147537
-0.178517
-0.201761
-0.216241
-0.221298
-0.216685
-0.202573
-0.179555
-0.148623
-0.111124
-0.0687077
-0.0232462
-0.0186488
-0.0551416
-0.0892534
-0.119507
-0.144587
-0.163395
-0.175099
-0.17917
-0.175412
-0.163967
-0.145319
-0.120272
-0.0899197
-0.0555938
-0.0188088
-0.0148372
-0.0438704
-0.0710066
-0.0950694
-0.115012
-0.12996
-0.139255
-0.142478
-0.139474
-0.130361
-0.115524
-0.0956054
-0.0714734
-0.0441872
-0.0149493
-0.0114709
-0.0339163
-0.0548934
-0.0734923
-0.0889031
-0.100451
-0.107627
-0.110109
-0.107779
-0.100729
-0.0892582
-0.0738636
-0.0552168
-0.0341357
-0.0115485
-0.0084491
-0.0249814
-0.0404314
-0.0541285
-0.065476
-0.0739774
-0.0792579
-0.081081
-0.0793606
-0.0741652
-0.0657163
-0.0543797
-0.0406502
-0.0251299
-0.00850162
-0.00568134
-0.0167979
-0.0271864
-0.0363958
-0.0440249
-0.0497398
-0.0532887
-0.0545129
-0.0533547
-0.0498604
-0.0441791
-0.0365571
-0.0273269
-0.0168932
-0.00571506
-0.00308446
-0.0091198
-0.01476
-0.0197602
-0.0239026
-0.027006
-0.0289335
-0.0295988
-0.0289706
-0.0270738
-0.0239894
-0.0198509
-0.014839
-0.00917342
-0.00310343
-0.000580326
-0.00171603
-0.00277792
-0.00372014
-0.00450177
-0.00508856
-0.00545447
-0.00558282
-0.00546718
-0.00511178
-0.00453147
-0.0037512
-0.00280496
-0.00173439
-0.000586818
0.00190649
0.00563648
0.00912108
0.0122084
0.0147638
0.0166755
0.0178596
0.0182638
0.0178698
0.0166941
0.0147876
0.0122333
0.00914274
0.00565118
0.00191169
0.00445092
0.0131593
0.0212958
0.0285063
0.0344763
0.0389447
0.0417151
0.0426645
0.0417493
0.0390073
0.0345564
0.0285901
0.0213688
0.0132089
0.00446844
0.00712961
0.0210793
0.0341135
0.0456653
0.0552312
0.0623927
0.0668347
0.0683597
0.0668972
0.0625069
0.0553773
0.0458181
0.0342465
0.0211696
0.00716155
0.0100232
0.0296347
0.0479602
0.0642031
0.0776554
0.0877287
0.0939793
0.0961291
0.0940775
0.0879081
0.077885
0.0644432
0.0481693
0.0297766
0.0100734
0.0132187
0.039083
0.0632528
0.0846781
0.102426
0.115718
0.123971
0.126815
0.124117
0.115985
0.102766
0.0850343
0.063563
0.0392936
0.0132931
0.0168119
0.0497078
0.0804508
0.107707
0.130288
0.147207
0.157718
0.161349
0.157928
0.147592
0.130781
0.108222
0.0808993
0.0500122
0.0169196
0.0209104
0.0618272
0.10007
0.13398
0.162082
0.183145
0.19624
0.200778
0.196541
0.183695
0.162785
0.134716
0.10071
0.0622621
0.0210642
0.0256365
0.0758032
0.122696
0.164285
0.198762
0.224615
0.240703
0.246299
0.24113
0.225396
0.199761
0.16533
0.123606
0.0764207
0.025855
0.0311308
0.0920517
0.149005
0.199529
0.241428
0.272866
0.29245
0.299292
0.293055
0.273971
0.242842
0.201009
0.150294
0.0929261
0.0314401
0.0375559
0.111054
0.179778
0.240761
0.291356
0.329345
0.353043
0.361366
0.353898
0.330908
0.293356
0.242853
0.181599
0.112291
0.0379932
0.0451012
0.133372
0.215925
0.289205
0.350034
0.395748
0.424308
0.434404
0.425517
0.397956
0.35286
0.292159
0.218498
0.135118
0.045719
0.0539877
0.159659
0.258509
0.346292
0.419207
0.474058
0.508393
0.520621
0.510099
0.477176
0.423198
0.350465
0.262142
0.162125
0.0548601
0.0644737
0.190681
0.308776
0.413701
0.500921
0.566611
0.607824
0.622632
0.610233
0.571014
0.506556
0.419593
0.313906
0.194164
0.0657056
0.076862
0.227336
0.368185
0.493401
0.597583
0.676158
0.725586
0.74353
0.728988
0.682373
0.605537
0.501719
0.375429
0.232253
0.0786012
0.0915064
0.270674
0.438447
0.587704
0.712021
0.80594
0.865206
0.886982
0.870009
0.814714
0.723251
0.599447
0.448674
0.277615
0.0939618
0.10882
0.321921
0.521565
0.69932
0.847562
0.959778
1.03085
1.05734
1.03763
0.972164
0.863415
0.715899
0.536003
0.331721
0.112287
0.129286
0.382511
0.619877
0.831426
1.00812
1.14218
1.22746
1.25975
1.23703
1.15966
1.03049
0.854831
0.640261
0.396347
0.13418
0.153464
0.454109
0.736113
0.987733
1.19826
1.35844
1.46086
1.50036
1.47437
1.38312
1.22985
1.02077
0.76489
0.473643
0.160374
0.182003
0.53865
0.873442
1.17257
1.42336
1.61479
1.73793
1.78644
1.757
1.64963
1.46796
1.21921
0.91407
0.56623
0.19176
0.215652
0.638362
1.03553
1.39095
1.68968
1.91856
2.06682
2.12665
2.09373
1.96773
1.75263
1.45681
1.09289
0.677303
0.229428
0.255268
0.755805
1.2266
1.6487
2.00448
2.27829
2.4571
2.53124
2.49508
2.3477
2.09335
1.74167
1.30759
0.810791
0.274721
0.301824
0.893893
1.45148
1.95249
2.3762
2.70397
2.92005
3.0124
2.97364
2.80193
2.50163
2.08373
1.56584
0.971543
0.329297
0.356418
1.05592
1.71564
2.30994
2.81451
3.2072
3.46889
3.58457
3.54451
3.34543
2.99155
2.49522
1.87712
1.16558
0.395224
0.420272
1.24555
2.02523
2.72967
3.33049
3.80137
4.1191
4.26487
4.22578
3.99641
3.58035
2.99126
2.25328
1.40047
0.475096
0.494726
1.46683
2.38705
3.22134
3.93667
4.50186
4.88869
5.07351
5.03914
4.777
4.28929
3.59066
2.70916
1.68572
0.572202
0.581219
1.72414
2.80853
3.79558
4.64709
5.32616
5.79852
6.03433
6.01062
5.7142
5.14464
4.31704
3.26358
2.03351
0.690753
0.681265
2.02207
3.29757
4.46393
5.47721
6.29397
6.87257
7.17531
7.17144
6.84101
6.17916
5.20021
3.94062
2.45954
0.836206
0.796393
2.36533
3.86236
5.23854
6.44375
7.4271
8.13812
8.52914
8.55898
8.19792
7.43382
6.27824
4.77144
2.98432
1.01574
0.928078
2.7585
4.51106
6.13184
7.56431
8.74929
9.62582
10.1337
10.2179
9.83465
8.96028
7.60011
5.79687
3.63511
1.23892
1.07763
3.20571
5.25122
7.15584
8.85668
10.2856
11.3694
12.0325
12.2013
11.8124
10.824
9.22961
7.07121
4.44867
1.51881
1.24604
3.71022
6.08919
8.32128
10.3378
12.0614
13.4051
14.2744
14.5718
14.2063
13.1086
11.2507
8.66782
5.47561
1.87353
1.43382
4.27387
7.02912
9.63632
12.0223
14.1009
15.7702
16.9134
17.4025
17.1085
15.9209
13.7751
10.6875
6.78715
2.3289
1.64075
4.89637
8.07179
11.1049
13.9203
16.4244
18.5005
20.0066
20.7768
20.6313
19.3985
16.9534
13.2716
8.48604
2.92283
1.86563
5.57453
9.21325
12.7244
16.0343
19.0449
21.6266
23.6106
24.7868
24.9089
23.7177
20.9906
16.6219
10.7249
3.7129
2.10601
6.30137
10.4432
14.4838
18.356
21.9632
25.1674
27.7755
29.5287
30.0982
29.1034
26.1675
21.0335
13.7381
4.79027
2.35796
7.06533
11.7434
16.3598
20.8615
25.1613
29.1218
32.534
35.0922
36.3737
35.8367
32.8708
26.9459
17.8986
6.30702
2.61584
7.84959
13.0862
18.3156
23.507
28.5947
33.4569
37.8852
41.5422
43.9117
44.2564
41.6286
35.0264
23.8257
8.53376
2.87226
8.63181
14.4339
20.2975
26.2242
32.1844
38.0932
43.7717
48.8859
52.8555
54.7401
53.1462
46.2999
32.5937
11.9935
3.11822
9.38443
15.7388
22.2354
28.9181
35.8096
42.8889
50.0498
57.024
63.2468
67.6388
68.3107
62.3369
46.1489
17.805
3.34347
10.0758
16.9448
24.0438
31.4668
39.3042
47.6277
56.4571
65.6836
74.909
83.1203
88.0896
85.4666
68.1453
28.6623
3.53722
10.672
17.991
25.6269
33.7276
42.4608
52.0149
62.5882
74.3433
87.2747
100.853
113.14
118.803
105.531
51.9094
3.68901
11.1404
18.8169
26.8871
35.5489
45.0469
55.694
67.898
82.1856
99.1906
119.48
142.79
165.287
170.937
110.015
3.78986
11.4522
19.3694
27.7362
36.7892
46.8347
58.2914
71.7602
88.1401
108.825
136.009
173.003
223.468
282.572
278.612
3.8333
11.5869
19.6095
28.1086
37.34
47.6421
59.4912
73.6002
91.1043
113.944
145.724
193.86
275.648
437.999
831.416
3.81629
11.5348
19.5186
27.9722
37.147
47.3747
59.1213
73.0818
90.3624
112.854
144.08
191.346
271.879
432.96
827.21
3.73962
11.2982
19.1013
27.3347
36.2225
46.0524
57.2132
70.2572
86.0009
105.697
131.297
165.727
212.173
265.994
260.729
3.60783
10.8918
18.3851
26.2426
34.6437
43.8053
53.9971
65.557
78.8943
94.4376
112.383
131.762
147.342
140.058
52.7128
-36.6526
-29.8647
-24.7796
-20.8441
-17.6723
-15.0274
-12.7609
-10.7741
-8.99864
-7.38437
-5.89325
-4.49506
-3.16479
-1.88088
-0.624003
-13.7476
-19.049
-18.8098
-17.1632
-15.2274
-13.321
-11.5299
-9.86724
-8.32296
-6.88021
-5.52102
-4.22808
-2.98525
-1.77738
-0.590184
-6.25471
-12.0809
-13.817
-13.6829
-12.7618
-11.5343
-10.2095
-8.87802
-7.57668
-6.31796
-5.1027
-3.92627
-2.78138
-1.65952
-0.551614
-3.40295
-7.9528
-10.123
-10.7488
-10.5091
-9.81488
-8.89382
-7.86775
-6.80073
-5.72544
-4.65737
-3.60252
-2.5615
-1.53193
-0.509792
-2.11784
-5.47722
-7.50125
-8.41576
-8.57176
-8.25295
-7.65091
-6.88582
-6.03044
-5.12783
-4.20282
-3.26911
-2.33363
-1.39918
-0.466189
-1.44124
-3.92891
-5.64995
-6.60936
-6.96409
-6.88761
-6.52115
-5.96652
-5.29289
-4.54573
-3.75426
-2.9369
-2.10501
-1.2654
-0.422153
-1.03879
-2.91292
-4.3275
-5.22281
-5.65577
-5.72357
-5.52199
-5.12978
-4.60633
-3.99434
-3.32364
-2.61476
-1.88172
-1.13414
-0.378847
-0.7776
-2.21605
-3.36559
-4.15728
-4.60098
-4.74655
-4.65514
-4.38413
-3.98122
-3.48367
-2.91949
-2.30937
-1.66851
-1.00821
-0.337206
-0.597479
-1.71979
-2.65216
-3.33335
-3.75318
-3.93403
-3.91298
-3.73002
-3.42179
-3.01922
-2.54721
-2.0253
-1.46878
-0.889698
-0.29793
-0.467801
-1.3554
-2.11314
-2.69087
-3.07131
-3.26167
-3.28321
-3.16285
-2.92784
-2.60298
-2.20954
-1.76525
-1.2847
-0.77999
-0.261491
-0.371454
-1.08118
-1.69911
-2.18537
-2.5214
-2.70651
-2.75194
-2.67527
-2.49626
-2.23432
-1.90717
-1.53036
-1.11737
-0.679853
-0.228162
-0.298147
-0.870687
-1.37651
-1.78416
-2.07627
-2.24833
-2.30544
-2.25871
-2.12223
-1.91092
-1.63925
-1.32059
-0.967059
-0.589551
-0.198049
-0.241332
-0.706516
-1.12207
-1.46316
-1.71448
-1.86994
-1.93103
-1.90447
-1.80015
-1.62942
-1.40394
-1.13503
-0.833385
-0.508959
-0.171127
-0.196653
-0.576807
-0.91931
-1.2045
-1.41924
-1.55708
-1.61745
-1.6042
-1.52417
-1.38591
-1.19876
-0.972201
-0.71552
-0.43767
-0.147275
-0.161105
-0.473239
-0.756344
-0.994755
-1.17737
-1.298
-1.35498
-1.35029
-1.2886
-1.17634
-1.02094
-0.830275
-0.612346
-0.375088
-0.126305
-0.132553
-0.389823
-0.624407
-0.823744