/*--------------------------------*- C++ -*----------------------------------*\
| =========                 |                                                 |
| \\      /  F ield         | OpenFOAM: The Open Source CFD Toolbox           |
|  \\    /   O peration     | Version:  5.x                                   |
|   \\  /    A nd           | Web:      www.OpenFOAM.org                      |
|    \\/     M anipulation  |                                                 |
\*---------------------------------------------------------------------------*/
FoamFile
{
    version     2.0;
    format      ascii;
    class       volScalarField;
    location    "1.3";
    object      gradTx;
}
// * * * * * * * * * * * * * * * * * * * * * * * * * * * * * * * * * * * * * //

dimensions      [0 -1 0 1 0 0 0];

internalField   nonuniform List<scalar> 
6300
(
532.812
534.773
538.642
544.309
551.603
560.277
570.009
580.383
590.893
600.945
609.869
616.955
621.491
622.825
620.419
530.828
532.843
536.821
542.661
550.198
559.197
569.342
580.221
591.326
602.044
611.679
619.474
624.663
626.532
624.492
526.809
528.926
533.117
539.293
547.307
556.948
567.915
579.81
592.118
604.201
615.301
624.571
631.125
634.117
632.842
520.652
522.914
527.406
534.063
542.769
553.347
565.536
578.961
593.111
607.313
620.725
632.354
641.116
645.937
645.901
512.211
514.649
519.51
526.761
536.335
548.114
561.897
577.362
594.025
611.188
627.904
642.978
655.018
662.582
664.396
501.313
503.94
509.203
517.114
527.676
540.855
556.551
574.542
594.415
615.483
636.699
656.605
673.366
684.947
689.461
487.766
490.574
496.227
504.797
516.376
531.056
548.887
569.816
593.586
619.604
646.775
673.349
696.866
714.346
722.836
471.393
474.343
480.314
489.45
501.956
518.085
538.105
562.226
590.485
622.548
657.424
693.121
726.373
752.704
767.231
452.051
455.071
461.218
470.713
483.892
501.204
523.199
550.475
583.557
622.655
667.224
715.313
762.773
802.832
827.008
429.673
432.653
438.756
448.275
461.675
479.62
502.992
532.897
570.593
617.265
673.481
738.105
806.544
868.814
909.543
404.296
407.096
412.86
421.937
434.897
452.59
476.234
507.508
548.63
602.309
671.306
757.054
856.457
956.305
1028.21
376.105
378.558
383.635
391.7
403.367
419.593
441.829
472.252
514.091
572.015
652.357
762.322
905.897
1071.71
1209.65
345.445
347.383
351.408
357.847
367.264
380.57
399.221
425.563
463.447
519.285
603.763
733.958
933.073
1214.96
1513.99
312.834
314.106
316.752
321.002
327.258
336.189
348.906
367.318
394.833
437.898
509.432
636.653
877.451
1341.04
2101.06
278.94
279.441
280.48
282.14
284.566
288.007
292.885
299.955
310.657
328.027
359.401
425.752
599.017
1170.66
3487.23
614.774
606.379
595.023
580.807
563.912
544.573
523.064
499.669
474.668
448.319
420.855
392.478
363.357
333.636
303.435
272.86
242.003
210.952
179.793
148.611
117.496
86.5406
55.8428
25.504
-4.371
-33.6752
-62.3012
-90.1427
-117.097
-143.067
-167.962
-191.701
-214.209
-235.424
-255.29
-273.759
-290.79
-306.349
-320.408
-332.946
-343.951
-353.422
-361.375
-367.838
-372.862
-376.511
-378.873
-380.044
-380.138
-379.271
-377.563
-375.134
-372.093
-368.545
-364.582
-360.284
-355.723
-350.96
-346.05
-341.042
-335.977
-330.895
-325.829
-320.809
-315.857
-310.988
-306.207
-301.512
-296.89
-292.319
-287.769
-283.204
-278.583
-273.863
-269.002
-263.961
-258.702
-253.197
-247.421
-241.357
-234.997
-228.341
-221.399
-214.19
-206.744
-199.103
-191.319
-183.455
-175.581
-167.772
619.011
610.606
599.104
584.628
567.389
547.658
525.737
501.939
476.562
449.878
422.123
393.499
364.17
334.274
303.922
273.211
242.228
211.053
179.769
148.458
117.208
86.1126
55.2688
24.7795
-5.24856
-34.7062
-63.4833
-91.4707
-118.563
-144.66
-169.67
-193.509
-216.105
-237.395
-257.325
-275.847
-292.923
-308.518
-322.601
-335.15
-346.149
-355.595
-363.499
-369.887
-374.809
-378.333
-380.546
-381.555
-381.475
-380.432
-378.552
-375.959
-372.769
-369.087
-365.005
-360.604
-355.954
-351.113
-346.134
-341.064
-335.944
-330.814
-325.709
-320.658
-315.685
-310.808
-306.034
-301.359
-296.77
-292.244
-287.748
-283.243
-278.685
-274.028
-269.226
-264.238
-259.025
-253.556
-247.805
-241.755
-235.396
-228.728
-221.759
-214.508
-207.003
-199.288
-191.416
-183.452
-175.47
-167.551
627.7
619.257
607.429
592.39
574.417
553.854
531.072
506.439
480.294
452.931
424.596
395.485
365.752
335.517
304.873
273.902
242.673
211.257
179.727
148.16
116.642
85.2652
54.1278
23.335
-7.00266
-36.7712
-65.8547
-94.1378
-121.509
-147.863
-173.103
-197.145
-219.916
-241.354
-261.409
-280.038
-297.203
-312.869
-327.005
-339.582
-350.576
-359.976
-367.784
-374.023
-378.74
-382.007
-383.918
-384.59
-384.154
-382.749
-380.517
-377.592
-374.099
-370.147
-365.83
-361.226
-356.4
-351.406
-346.292
-341.099
-335.87
-330.642
-325.454
-320.339
-315.324
-310.431
-305.668
-301.034
-296.514
-292.081
-287.698
-283.318
-278.89
-274.363
-269.683
-264.805
-259.685
-254.289
-248.59
-242.569
-236.215
-229.524
-222.502
-215.167
-207.545
-199.679
-191.626
-183.456
-175.252
-167.106
641.288
632.747
620.341
604.337
585.134
563.203
539.031
513.074
485.734
457.338
428.137
398.317
368.006
337.294
306.245
274.908
243.332
211.569
179.68
147.735
115.816
84.0149
52.4326
21.178
-9.63271
-39.8778
-69.432
-98.1697
-125.969
-152.715
-178.304
-202.65
-225.678
-247.334
-267.571
-286.356
-303.654
-319.432
-333.656
-346.287
-357.288
-366.632
-374.307
-380.325
-384.73
-387.597
-389.034
-389.177
-388.181
-386.209
-383.426
-379.988
-376.032
-371.675
-367.01
-362.109
-357.029
-351.814
-346.502
-341.13
-335.735
-330.357
-325.039
-319.82
-314.736
-309.813
-305.067
-300.497
-296.086
-291.802
-287.599
-283.419
-279.201
-274.879
-270.392
-265.684
-260.709
-255.427
-249.81
-243.835
-237.491
-230.77
-223.674
-216.215
-208.417
-200.321
-191.985
-183.49
-174.933
-166.425
660.534
651.768
638.398
620.854
599.742
575.741
549.516
521.659
492.652
462.857
432.524
401.806
370.788
339.507
307.978
276.206
244.206
212.008
179.656
147.214
114.762
82.3919
50.2078
18.3245
-13.1339
-44.0346
-74.2389
-103.605
-131.995
-159.278
-185.34
-210.089
-233.453
-255.384
-275.851
-294.831
-312.304
-328.241
-342.603
-355.334
-366.377
-375.676
-383.193
-388.923
-392.902
-395.21
-395.975
-395.362
-393.564
-390.786
-387.228
-383.077
-378.489
-373.59
-368.47
-363.192
-357.794
-352.303
-346.741
-341.134
-335.517
-329.931
-324.426
-319.054
-313.863
-308.892
-304.164
-299.683
-295.43
-291.364
-287.424
-283.537
-279.621
-275.595
-271.382
-266.916
-262.142
-257.019
-251.514
-245.608
-239.283
-232.531
-225.346
-217.73
-209.699
-201.288
-192.556
-183.595
-174.527
-165.493
686.622
677.386
662.427
642.471
618.471
591.439
562.31
531.857
500.661
469.107
437.417
405.679
373.898
342.028
310.005
277.777
245.312
212.61
179.704
146.651
113.532
80.4416
47.4906
14.8
-17.4964
-49.2519
-80.3086
-110.501
-139.666
-167.647
-194.313
-219.562
-243.327
-265.575
-286.296
-305.497
-323.179
-339.327
-353.895
-366.807
-377.965
-387.266
-394.629
-400.015
-403.444
-405.006
-404.855
-403.207
-400.31
-396.432
-391.831
-386.736
-381.335
-375.762
-370.1
-364.387
-358.633
-352.832
-346.984
-341.095
-335.195
-329.331
-323.566
-317.973
-312.62
-307.569
-302.857
-298.495
-294.46
-290.7
-287.132
-283.656
-280.162
-276.543
-272.702
-268.558
-264.048
-259.128
-253.77
-247.954
-241.666
-234.891
-227.614
-219.822
-211.51
-202.696
-193.438
-183.839
-174.056
-164.283
721.384
711.207
693.616
669.872
641.527
610.118
576.968
543.083
509.139
475.51
442.33
409.567
377.087
344.715
312.276
279.634
246.701
213.45
179.904
146.124
112.198
78.23
44.3368
10.646
-22.6992
-55.5363
-87.6821
-118.937
-149.096
-177.963
-205.377
-231.219
-255.428
-277.997
-298.96
-318.371
-336.278
-352.695
-367.574
-380.801
-392.213
-401.626
-408.885
-413.892
-416.639
-417.224
-415.847
-412.797
-408.415
-403.063
-397.085
-390.777
-384.368
-378.002
-371.74
-365.579
-359.475
-353.37
-347.222
-341.013
-334.763
-328.53
-322.404
-316.489
-310.892
-305.707
-300.997
-296.787
-293.051
-289.716
-286.666
-283.76
-280.844
-277.775
-274.424
-270.693
-266.511
-261.839
-256.657
-250.954
-244.724
-237.949
-230.602
-222.641
-214.022
-204.727
-194.791
-184.331
-173.557
-162.749
767.69
755.67
733.63
703.861
668.954
631.265
592.642
554.352
517.12
481.219
446.597
412.998
380.071
347.444
314.787
281.852
248.491
214.656
180.379
145.744
110.86
75.8465
40.826
5.92842
-28.6997
-62.8819
-96.4038
-129.015
-160.446
-190.434
-218.759
-245.277
-269.938
-292.774
-313.893
-333.437
-351.543
-368.287
-383.633
-397.405
-409.323
-419.069
-426.355
-430.986
-432.905
-432.218
-429.196
-424.247
-417.857
-410.533
-402.747
-394.898
-387.273
-380.024
-373.168
-366.622
-360.249
-353.906
-347.483
-340.924
-334.242
-327.515
-320.877
-314.489
-308.516
-303.106
-298.367
-294.347
-291.019
-288.278
-285.953
-283.836
-281.711
-279.375
-276.66
-273.442
-269.649
-265.256
-260.264
-254.688
-248.54
-241.809
-234.453
-226.384
-217.489
-207.663
-196.883
-185.261
-173.091
-160.814
830.207
814.526
784.736
745.209
700.349
653.718
607.794
564.053
523.137
485.041
449.342
415.414
382.571
350.162
317.644
284.626
250.903
216.436
181.308
145.658
109.643
73.405
37.0692
0.752328
-35.4135
-71.2501
-106.508
-140.865
-173.944
-205.364
-234.805
-262.071
-287.125
-310.072
-331.133
-350.603
-368.789
-385.908
-401.963
-416.672
-429.546
-440.029
-447.615
-451.946
-452.877
-450.52
-445.263
-437.711
-428.58
-418.599
-408.431
-398.625
-389.563
-381.406
-374.078
-367.345
-360.907
-354.486
-347.869
-340.946
-333.719
-326.309
-318.928
-311.831
-305.273
-299.487
-294.65
-290.86
-288.096
-286.196
-284.897
-283.884
-282.842
-281.486
-279.586
-276.986
-273.622
-269.504
-264.683
-259.221
-253.17
-246.547
-239.306
-231.3
-222.274
-211.957
-200.169
-186.963
-172.766
-158.331
916.933
893.662
849.827
794.199
734.259
675.113
619.762
569.645
525.051
485.363
449.491
416.22
384.392
352.984
321.164
288.359
254.324
219.108
182.922
146.034
108.678
71.0347
33.2134
-4.71487
-42.6766
-80.5274
-117.988
-154.632
-189.907
-223.218
-254.049
-282.113
-307.402
-330.134
-350.703
-369.65
-387.595
-405.072
-422.233
-438.571
-453.195
-465.13
-473.525
-477.758
-477.528
-472.94
-464.57
-453.379
-440.458
-426.862
-413.521
-401.209
-390.476
-381.517
-374.059
-367.567
-361.468
-355.273
-348.627
-341.335
-333.392
-324.998
-316.51
-308.336
-300.866
-294.447
-289.374
-285.849
-283.883
-283.208
-283.386
-283.933
-284.388
-284.346
-283.483
-281.598
-278.651
-274.735
-269.997
-264.578
-258.6
-252.152
-245.241
-237.662
-228.903
-218.351
-205.48
-190.077
-172.771
-155.002
1042.61
1002.38
931.864
849.361
766.986
691.009
624.157
567.245
519.86
480.146
445.848
414.901
385.559
356.345
326.044
293.807
259.385
223.111
185.484
147.014
108.059
68.8488
29.4375
-10.2106
-50.1788
-90.4484
-130.724
-170.454
-208.779
-244.724
-277.35
-306.222
-331.423
-353.36
-372.652
-390.173
-407.092
-424.703
-443.684
-462.926
-480.692
-495.293
-505.382
-509.945
-508.394
-500.737
-487.87
-471.466
-453.232
-434.682
-417.052
-401.441
-388.757
-379.393
-372.571
-367.147
-362.093
-356.637
-350.241
-342.592
-333.649
-323.757
-313.579
-303.77
-294.891
-287.417
-281.82
-278.546
-277.769
-278.949
-281.304
-284.075
-286.616
-288.353
-288.82
-287.71
-285.045
-281.124
-276.265
-270.716
-264.683
-258.403
-252.119
-245.706
-238.094
-228.069
-214.424
-195.916
-173.432
-150.144
1237.11
1154.66
1031.13
904.302
790.46
693.725
614.2
551.085
503.582
467.085
437.333
411.221
386.49
361.215
333.656
302.34
267.051
228.997
189.19
148.623
107.731
66.876
25.9223
-15.3295
-57.3349
-100.452
-144.34
-188.393
-231.172
-271.103
-306.146
-335.699
-360.218
-380.463
-397.208
-411.608
-425.623
-442.377
-464.764
-489.395
-512.724
-531.914
-545.15
-550.874
-547.985
-535.961
-516.181
-492.104
-466.372
-441.089
-417.587
-397.37
-382.172
-373.519
-368.982
-366.11
-363.212
-359.272
-353.581
-345.632
-335.201
-322.856
-310.049
-297.801
-286.835
-277.63
-270.871
-267.599
-268.792
-272.955
-278.582
-284.512
-289.962
-294.154
-296.395
-296.032
-293.216
-288.834
-283.503
-277.528
-271.097
-264.64
-259.163
-255.459
-250.743
-242.985
-230.357
-207.466
-175.24
-142.044
1568.3
1366.03
1135.13
940.503
789.264
671.623
580.576
512.405
471.419
444.268
423.533
405.505
388.152
369.321
346.618
316.532
278.634
237.337
193.923
150.625
107.277
64.9666
22.7552
-19.449
-62.9831
-109.44
-157.821
-208.274
-257.774
-304.628
-342.95
-372.519
-395.254
-412.679
-425.197
-433.639
-440.24
-451.957
-482.61
-517.722
-550.687
-577.062
-595.675
-604.134
-600.646
-582.261
-550.584
-515.026
-478.771
-444.835
-413.3
-385.983
-366.072
-361.633
-362.907
-365.023
-365.743
-364.342
-360.087
-352.165
-339.432
-322.552
-305.646
-289.927
-276.187
-264.271
-254.851
-250.179
-255.496
-264.81
-275.388
-285.602
-295.084
-302.731
-307.688
-307.855
-303.613
-297.885
-291.646
-284.972
-277.529
-269.449
-263.635
-266.652
-267.754
-264.901
-261.054
-232.445
-178.434
-126.044
2210.23
1618.6
1186.84
914.194
739.655
611.192
513.977
434.545
419.295
412.175
405.79
398.774
391.89
382.946
370.153
341.909
295.042
248.659
198.414
152.625
105.253
62.8354
19.4955
-21.7429
-64.5216
-115.766
-168.434
-229.65
-288.311
-350.564
-392.483
-419.291
-438.036
-452.044
-459.125
-458.374
-447.524
-434.285
-494.038
-549.124
-598.104
-633.335
-660.75
-674.511
-674.66
-647.594
-590.464
-538.839
-487.722
-445.02
-402.836
-363.837
-327.601
-341.426
-355.528
-365.851
-371.233
-373.429
-371.785
-365.538
-349.551
-322.209
-299.466
-279.14
-262.855
-247.268
-231.95
-218.332
-236.404
-254.806
-272.681
-287.708
-302.816
-315.145
-325.845
-325.996
-316.124
-307.645
-300.393
-293.501
-284.86
-270.976
-255.372
-280.59
-290.446
-288.232
-327.394
-293.991
-179.284
-88.9656
3657.11
1640.92
1009.37
746.584
623.664
505.731
421.743
264.234
355.434
378.989
388.917
391.806
398.545
402.058
415.872
394.038
310.68
265.467
196.415
156.825
96.0172
61.9542
13.1313
-21.9108
-53.9737
-120.159
-166.868
-254.846
-313.823
-425.935
-463.922
-477.806
-487.758
-501.481
-504.409
-497.711
-458.286
-311.522
-512.185
-589.304
-665.279
-700.802
-745.4
-764.385
-787.738
-756.087
-622.285
-561.791
-484.429
-444.343
-387.676
-337.614
-216.952
-320.728
-353.49
-373.695
-381.208
-387.944
-390.008
-392.843
-375.934
-315.163
-289.735
-262.474
-248.463
-229.828
-206.558
-140.815
-216.801
-245.523
-274.037
-289.662
-314.513
-329.87
-359.162
-358.539
-326.601
-315.617
-308.598
-304.529
-299.723
-274.964
-188.313
-316.633
-330.502
-251.971
-498.208
-472.603
-145.006
5.00234
-159.359
-150.481
-142.042
-134.14
-126.85
-120.222
-114.288
-109.06
-104.535
-100.705
-97.5506
-95.0556
-93.2021
-91.9753
-91.3646
-159.021
-150.028
-141.493
-133.517
-126.175
-119.518
-113.572
-108.346
-103.833
-100.019
-96.8832
-94.406
-92.5673
-91.3512
-90.7461
-158.334
-149.103
-140.371
-132.246
-124.805
-118.092
-112.128
-106.909
-102.423
-98.645
-95.5493
-93.1095
-91.3021
-90.1083
-89.5147
-157.271
-147.666
-138.629
-130.281
-122.695
-115.908
-109.926
-104.732
-100.295
-96.5806
-93.5511
-91.1725
-89.4156
-88.2573
-87.6821
-155.785
-145.647
-136.188
-127.54
-119.775
-112.91
-106.928
-101.787
-97.4367
-93.8227
-90.894
-88.6062
-86.9226
-85.8157
-85.2669
-153.803
-142.937
-132.923
-123.907
-115.944
-109.019
-103.078
-98.0435
-93.8336
-90.3712
-87.5882
-85.4279
-83.8456
-82.8087
-82.2955
-151.203
-139.363
-128.648
-119.21
-111.064
-104.137
-98.3135
-93.4667
-89.4751
-86.2328
-83.6522
-81.6642
-80.2162
-79.2708
-78.8039
-147.783
-134.651
-123.085
-113.211
-104.955
-98.1411
-92.5642
-88.0269
-84.3597
-81.4252
-79.1167
-77.3536
-76.0774
-75.2476
-74.8388
-143.196
-128.362
-115.821
-105.585
-97.3941
-90.9008
-85.7675
-81.7096
-78.5045
-75.9849
-74.029
-72.5495
-71.4857
-70.797
-70.4586
-136.805
-119.77
-106.244
-95.9042
-88.1282
-82.293
-77.8882
-74.5328
-71.9572
-69.9747
-68.4586
-67.3235
-66.5129
-65.9902
-65.7339
-127.381
-107.659
-93.4734
-83.6523
-76.9145
-72.2485
-68.9529
-66.5704
-64.8107
-63.4923
-62.5015
-61.7676
-61.2465
-60.9115
-60.7475
-112.417
-90.0043
-76.3308
-68.3107
-63.623
-60.8277
-59.0992
-57.9795
-57.2178
-56.677
-56.2824
-55.9936
-55.7888
-55.6568
-55.592
-86.5997
-63.6039
-53.5298
-49.6317
-48.4344
-48.3355
-48.632
-49.0261
-49.3993
-49.7108
-49.9529
-50.1309
-50.2538
-50.3304
-50.367
-38.4659
-24.2779
-24.5493
-28.2487
-32.1437
-35.4442
-38.0632
-40.0898
-41.6385
-42.8099
-43.6834
-44.3191
-44.761
-45.0397
-45.1744
56.4592
29.5082
7.86061
-6.66847
-16.445
-23.2319
-28.0839
-31.6282
-34.2519
-36.2034
-37.6481
-38.6975
-39.4278
-39.8893
-40.1127
247.401
247.162
246.652
245.803
244.491
242.512
239.513
234.868
227.373
214.465
189.802
134.414
-21.4056
-585.066
-3107.99
218.889
217.998
216.129
213.083
208.517
201.855
192.13
177.669
155.414
119.387
56.9527
-60.6983
-302.203
-820.569
-1794.55
190.988
189.509
186.415
181.414
173.993
163.318
148.031
125.878
93.0143
42.6434
-37.5524
-169.801
-390.727
-739.657
-1157.47
164.11
162.135
158.022
151.418
141.723
127.981
108.694
81.5219
42.7693
-13.3898
-95.909
-217.319
-390.353
-610.897
-810.506
138.597
136.24
131.353
123.566
112.261
96.4884
74.8302
45.2044
4.60993
-51.1183
-127.257
-228.984
-356.978
-496.666
-602.147
114.718
112.099
106.694
98.1515
85.8969
69.08
46.4964
16.5021
-23.0406
-74.6728
-140.835
-222.405
-315.476
-406.18
-467.028
92.6522
89.8885
84.2116
75.3115
62.698
45.6734
23.3063
-5.57126
-42.2959
-88.1359
-143.712
-207.835
-275.613
-336.423
-374.156
72.5026
69.6978
63.9638
55.0473
42.56
25.9746
4.6352
-22.1968
-55.2212
-94.8364
-140.654
-190.724
-240.583
-282.685
-307.482
54.2978
51.5384
45.9234
37.2605
25.2657
9.57531
-10.2232
-34.5235
-63.5697
-97.229
-134.64
-173.756
-210.938
-240.96
-258.022
38.0065
35.3596
29.9971
21.7853
10.5361
-3.97253
-21.9565
-43.5551
-68.715
-97.0155
-127.439
-158.13
-186.262
-208.231
-220.408
23.5511
21.0645
16.0474
8.41773
-1.93145
-15.1081
-31.1805
-50.1142
-71.6792
-95.327
-120.052
-144.28
-165.863
-182.299
-191.246
10.8205
8.52469
3.91013
-3.06286
-12.4368
-24.2335
-38.4181
-54.8464
-73.197
-92.8897
-113.009
-132.264
-149.036
-161.565
-168.296
-0.317528
-2.40649
-6.59085
-12.8775
-21.2607
-31.7016
-44.0979
-58.2439
-73.7826
-90.1556
-106.565
-121.972
-135.155
-144.857
-150.016
-10.0063
-11.8839
-15.6332
-21.2373
-28.6566
-37.8125
-48.5631
-60.6744
-73.7886
-87.3954
-100.817
-113.223
-123.688
-131.301
-135.319
-18.3925
-20.0627
-23.3888
-28.3374
-34.8475
-42.8166
-52.0836
-62.4085
-73.4524
-84.7631
-95.7736
-105.822
-114.201
-120.241
-123.409
-25.6199
-27.0927
-30.0185
-34.354
-40.0257
-46.9198
-54.8698
-63.6434
-72.9307
-82.339
-91.3975
-99.5784
-106.338
-111.174
-113.699
-31.8253
-33.1145
-35.67
-39.4433
-44.3557
-50.2902
-57.0844
-64.5214
-72.3248
-80.1575
-87.6304
-94.3215
-99.8084
-103.711
-105.741
-37.1363
-38.2576
-40.4763
-43.7424
-47.9762
-53.0641
-58.8528
-65.1452
-71.6983
-78.2255
-84.4058
-89.9003
-94.3784
-97.5485
-99.1923
-41.6691
-42.6394
-44.556
-47.3698
-51.004
-55.3515
-60.2715
-65.5879
-71.0897
-76.5343
-81.6569
-86.1846
-89.856
-92.4451
-93.7842
-45.5287
-46.3645
-48.0131
-50.4279
-53.5369
-57.2415
-61.415
-65.902
-70.5207
-75.0665
-79.3209
-83.063
-86.0848
-88.209
-89.3055
-48.8083
-49.5255
-50.9386
-53.0042
-55.6565
-58.8062
-62.3408
-66.1248
-70.0021
-73.8009
-77.3405
-80.4412
-82.9366
-84.6861
-85.5877
-51.5902
-52.2037
-53.4113
-55.1734
-57.4307
-60.1038
-63.0936
-66.2827
-69.5379
-72.7151
-75.6645
-78.2396
-80.3061
-81.7517
-82.4957
-53.9463
-54.4698
-55.4991
-56.999
-58.9165
-61.1817
-63.7081
-66.3946
-69.128
-71.7873
-74.2483
-76.391
-78.1063
-79.3042
-79.92
-55.9391
-56.3848
-57.2604
-58.5347
-60.161
-62.0782
-64.2114
-66.4739
-68.7696
-70.997
-73.053
-74.8388
-76.2657
-77.2607
-77.7717
-57.6227
-58.0014
-58.745
-59.826
-61.2037
-62.8249
-64.6251
-66.5301
-68.4587
-70.3256
-72.0451
-73.5358
-74.7249
-75.553
-75.978
-59.0435
-59.3649
-59.9955
-60.9115
-62.0774
-63.4473
-64.9659
-66.5699
-68.1907
-69.7565
-71.1961
-72.442
-73.4346
-74.1251
-74.4792
-60.2413
-60.5137
-61.048
-61.8235
-62.8095
-63.9666
-65.2474
-66.5981
-67.9607
-69.2749
-70.4814
-71.5241
-72.3538
-72.9306
-73.2262
-61.25
-61.4808
-61.9332
-62.5894
-63.423
-64.4001
-65.4804
-66.6181
-67.7642
-68.8682
-69.8803
-70.7541
-71.4487
-71.9311
-72.1783
-62.0987
-62.294
-62.677
-63.2321
-63.9368
-64.7621
-65.6735
-66.6323
-67.597
-68.5252
-69.3753
-70.1084
-70.6907
-71.095
-71.302
-62.8117
-62.9771
-63.3013
-63.771
-64.3669
-65.0642
-65.8336
-66.6423
-67.4552
-68.2365
-68.9513
-69.5674
-70.0564
-70.3956
-70.5693
-63.4099
-63.5501
-63.8247
-64.2224
-64.7267
-65.3164
-65.9666
-66.6494
-67.3352
-67.9938
-68.596
-69.1146
-69.5259
-69.8112
-69.9572
-63.9108
-64.0297
-64.2626
-64.5998
-65.0271
-65.5266
-66.0769
-66.6544
-67.2341
-67.7904
-68.2986
-68.7361
-69.083
-69.3234
-69.4465
-64.3292
-64.4302
-64.6282
-64.9146
-65.2775
-65.7015
-66.1683
-66.658
-67.1492
-67.6203
-68.0505
-68.4205
-68.7138
-68.9171
-69.0211
-64.6774
-64.7636
-64.9323
-65.1764
-65.4856
-65.8466
-66.2439
-66.6605
-67.0782
-67.4785
-67.844
-68.1582
-68.4072
-68.5797
-68.6679
-64.9659
-65.0397
-65.1841
-65.3931
-65.6576
-65.9664
-66.3062
-66.6623
-67.0191
-67.3611
-67.673
-67.9412
-68.1536
-68.3007
-68.376
-65.2031
-65.2667
-65.3911
-65.5711
-65.7989
-66.0648
-66.3572
-66.6636
-66.9704
-67.2644
-67.5325
-67.7629
-67.9453
-68.0717
-68.1363
-65.3962
-65.4515
-65.5596
-65.716
-65.9139
-66.1447
-66.3986
-66.6645
-66.9307
-67.1856
-67.4181
-67.6178
-67.7759
-67.8854
-67.9414
-65.551
-65.5996
-65.6946
-65.832
-66.0059
-66.2087
-66.4317
-66.6651
-66.8988
-67.1225
-67.3265
-67.5016
-67.6403
-67.7363
-67.7854
-65.6721
-65.7154
-65.8002
-65.9228
-66.0778
-66.2587
-66.4575
-66.6655
-66.8738
-67.0731
-67.2548
-67.4108
-67.5343
-67.6198
-67.6635
-65.7631
-65.8025
-65.8795
-65.991
-66.1319
-66.2962
-66.4768
-66.6658
-66.855
-67.036
-67.2009
-67.3426
-67.4546
-67.5322
-67.5719
-65.8268
-65.8634
-65.9351
-66.0387
-66.1697
-66.3225
-66.4904
-66.666
-66.8418
-67.01
-67.1632
-67.2948
-67.3989
-67.471
-67.5078
-65.865
-65.9
-65.9684
-66.0673
-66.1924
-66.3383
-66.4985
-66.6661
-66.8339
-66.9944
-67.1406
-67.2661
-67.3654
-67.4342
-67.4693
-65.879
-65.9134
-65.9806
-66.0778
-66.2007
-66.344
-66.5015
-66.6662
-66.831
-66.9887
-67.1323
-67.2556
-67.3532
-67.4207
-67.4552
-65.8692
-65.904
-65.972
-66.0705
-66.1949
-66.34
-66.4994
-66.6662
-66.8331
-66.9927
-67.1381
-67.263
-67.3618
-67.4301
-67.4651
-65.8352
-65.8714
-65.9424
-66.045
-66.1748
-66.326
-66.4922
-66.6661
-66.8401
-67.0066
-67.1582
-67.2884
-67.3914
-67.4628
-67.4992
-65.776
-65.8148
-65.8908
-66.0007
-66.1397
-66.3017
-66.4797
-66.666
-66.8524
-67.0308
-67.1933
-67.3328
-67.4432
-67.5196
-67.5586
-65.6898
-65.7324
-65.8158
-65.9362
-66.0886
-66.2663
-66.4615
-66.6658
-66.8703
-67.0659
-67.2442
-67.3973
-67.5184
-67.6023
-67.6452
-65.5741
-65.6217
-65.7149
-65.8496
-66.0199
-66.2186
-66.437
-66.6655
-66.8942
-67.1132
-67.3127
-67.484
-67.6196
-67.7135
-67.7615
-65.4254
-65.4794
-65.5852
-65.7381
-65.9316
-66.1573
-66.4054
-66.6651
-66.925
-67.1739
-67.4007
-67.5955
-67.7497
-67.8565
-67.9111
-65.2391
-65.3012
-65.4228
-65.5986
-65.821
-66.0805
-66.3657
-66.6644
-66.9635
-67.2499
-67.511
-67.7352
-67.9128
-68.0357
-68.0986
-65.0098
-65.0818
-65.2227
-65.4266
-65.6846
-65.9857
-66.3168
-66.6635
-67.0108
-67.3434
-67.6468
-67.9074
-68.1137
-68.2566
-68.3297
-64.7304
-64.8145
-64.979
-65.2171
-65.5184
-65.8701
-66.2569
-66.6622
-67.0683
-67.4573
-67.8122
-68.1172
-68.3587
-68.526
-68.6116
-64.3927
-64.4913
-64.6843
-64.9636
-65.3172
-65.73
-66.1843
-66.6604
-67.1376
-67.595
-68.0123
-68.371
-68.6552
-68.8521
-68.9528
-63.9865
-64.1026
-64.3298
-64.6585
-65.0749
-65.5612
-66.0966
-66.6579
-67.2207
-67.7604
-68.253
-68.6767
-69.0124
-69.245
-69.364
-63.4998
-63.6367
-63.9047
-64.2926
-64.7841
-65.3583
-65.9908
-66.6543
-67.3199
-67.9584
-68.5416
-69.0433
-69.4411
-69.7167
-69.8578
-62.9181
-63.0798
-63.3964
-63.8548
-64.4358
-65.115
-65.8635
-66.6492
-67.4378
-68.1949
-68.8867
-69.4822
-69.9545
-70.2819
-70.4494
-62.2242
-62.4153
-62.7896
-63.3318
-64.0194
-64.8236
-65.7104
-66.642
-67.5778
-68.4767
-69.2987
-70.0067
-70.5684
-70.958
-71.1574
-61.3977
-61.6236
-62.0664
-62.708
-63.522
-64.4748
-65.5264
-66.6318
-67.7433
-68.8118
-69.7897
-70.6326
-71.3018
-71.7661
-72.0039
-60.4143
-60.6815
-61.2052
-61.9644
-62.9284
-64.0575
-65.3049
-66.6174
-67.9385
-69.2099
-70.3745
-71.3792
-72.1774
-72.7315
-73.0154
-59.2454
-59.5612
-60.1804
-61.0786
-62.22
-63.5582
-65.0381
-66.5972
-68.1683
-69.6821
-71.0704
-72.2692
-73.2224
-73.8845
-74.2239
-57.8574
-58.2304
-58.9621
-60.0241
-61.375
-62.9606
-64.7163
-66.5686
-68.4378
-70.2414
-71.8977
-73.3297
-74.4693
-75.2617
-75.6679
-56.2105
-56.6506
-57.5144
-58.7692
-60.367
-62.245
-64.3275
-66.5282
-68.7529
-70.9031
-72.8807
-74.593
-75.9574
-76.9069
-77.3939
-54.258
-54.7767
-55.7952
-57.2763
-59.1644
-61.3873
-63.8567
-66.4712
-69.1196
-71.6844
-74.048
-76.0978
-77.7336
-78.873
-79.4579
-51.9456
-52.5558
-53.755
-55.5007
-57.7296
-60.3585
-63.285
-66.3908
-69.5442
-72.6055
-75.4329
-77.8901
-79.8542
-81.2242
-81.9279
-49.2095
-49.9261
-51.3354
-53.3897
-56.0173
-59.1229
-62.589
-66.2774
-70.0329
-73.689
-77.0749
-80.0246
-82.3872
-84.0377
-84.8864
-45.9761
-46.8156
-48.4682
-50.8807
-53.973
-57.6373
-61.7387
-66.1172
-70.5905
-74.96
-79.0196
-82.5666
-85.4146
-87.4079
-88.4341
-42.16
-43.1407
-45.0734
-47.9
-51.5317
-55.8481
-60.6961
-65.8913
-71.22
-76.4461
-81.3202
-85.5937
-89.0353
-91.4495
-92.694
-37.6631
-38.805
-41.0582
-44.3604
-48.6152
-53.6897
-59.4126
-65.5726
-71.9208
-78.1764
-84.0377
-89.1983
-93.3692
-96.3029
-97.8179
-32.3736
-33.6979
-36.3149
-40.1595
-45.1295
-51.0814
-57.8256
-65.1232
-72.6859
-80.1806
-87.2415
-93.4898
-98.5618
-102.141
-103.993
-26.1649
-27.6936
-30.7196
-35.1775
-40.9623
-47.9231
-55.8544
-64.4898
-73.498
-82.4857
-91.0092
-98.598
-104.79
-109.178
-111.455
-18.8952
-20.65
-24.1304
-29.2742
-35.9789
-44.0911
-53.3945
-63.5975
-74.3243
-85.113
-95.4257
-104.676
-112.272
-117.681
-120.497
-10.4076
-12.4087
-16.3867
-22.2876
-30.0185
-39.4322
-50.3099
-62.3414
-75.1075
-88.0706
-100.58
-111.901
-121.271
-127.985
-131.493
-0.530963
-2.79539
-7.30817
-14.0309
-22.8898
-33.7569
-46.4244
-60.5753
-75.7538
-91.3429
-106.559
-120.48
-132.114
-140.514
-144.924
10.9173
8.37846
3.30419
-4.29128
-14.3672
-26.8319
-41.509
-58.0956
-76.115
-94.8736
-113.437
-130.648
-145.202
-155.812
-161.417
24.1275
21.312
15.6664
7.17
-4.18639
-18.3709
-35.268
-54.6211
-75.9626
-98.5393
-121.255
-142.658
-161.029
-174.583
-181.802
39.2918
36.2098
30.0074
20.6164
7.95755
-8.02674
-27.3217
-49.766
-74.9522
-102.108
-129.982
-156.774
-180.2
-197.752
-207.199
56.5949
53.2731
46.5613
36.3309
22.4099
4.61571
-17.1889
-43.0069
-72.5736
-105.179
-139.459
-173.227
-203.449
-226.549
-239.154
76.2032
72.6889
65.5573
54.607
39.5507
20.0423
-4.26977
-33.6447
-68.085
-107.085
-149.292
-192.141
-231.641
-262.631
-279.861
98.2501
94.6149
87.2033
75.7329
59.782
38.8037
12.1645
-20.7653
-60.43
-106.764
-158.677
-213.379
-265.74
-308.265
-332.531
122.819
119.161
111.666
99.9683
83.5029
61.495
32.9663
-3.20952
-48.1438
-102.567
-166.125
-236.24
-306.668
-366.577
-402.049
149.926
146.37
139.045
127.512
111.071
88.713
59.0772
20.4278
-29.2686
-92.026
-169.019
-258.882
-354.897
-441.854
-496.195
179.501
176.192
169.344
158.463
142.745
120.983
91.4459
51.7353
-1.32381
-71.5994
-162.973
-277.25
-409.413
-539.777
-628.073
211.369
208.471
202.439
192.77
178.615
158.651
130.877
92.311
38.5757
-36.5215
-141.023
-283.194
-465.174
-666.906
-821.26
245.246
242.921
238.058
230.189
218.515
201.738
177.801
143.418
93.3081
18.9751
-92.9114
-261.49
-507.214
-826.928
-1121.63
280.735
279.131
275.759
270.248
261.954
249.795
231.975
205.444
164.859
100.549
-5.43089
-186.209
-497.867
-1004.31
-1626.63
317.332
316.566
314.939
312.237
308.072
301.778
292.195
277.226
252.883
211.057
133.992
-20.0377
-353.247
-1101.21
-2563.79
354.456
354.595
354.863
355.236
355.664
356.042
356.149
355.511
353.043
346.031
326.859
270.563
79.3972
-701.824
-4516.59
391.478
392.528
394.708
398.193
403.286
410.486
420.614
435.063
456.352
489.445
545.503
654.816
921.798
1804.19
5720.94
427.766
429.671
433.641
440.026
449.439
462.892
482.07
509.857
551.456
616.904
727.155
929.565
1336.81
2202.99
3839.16
462.725
465.375
470.891
479.752
492.779
511.315
537.54
575.051
629.989
713.24
844.795
1062.05
1433.1
2067.04
3093.76
180.555
73.948
31.0433
8.75712
-4.79419
-13.8095
-20.1329
-24.7135
-28.0943
-30.6096
-32.4751
-33.8341
-34.7825
-35.3833
-35.6746
114.247
70.1057
37.7983
16.7138
2.64763
-7.11226
-14.1141
-19.2591
-23.096
-25.9738
-28.1223
-29.696
-30.7989
-31.4997
-31.8402
78.5862
58.0418
36.7573
19.7958
7.09871
-2.33001
-9.38408
-14.7121
-18.7624
-21.843
-24.1672
-25.8831
-27.0928
-27.8646
-28.2405
57.1883
46.4886
32.7123
19.9151
9.27965
0.803247
-5.8522
-11.0517
-15.1011
-18.2363
-20.6333
-22.4203
-23.6893
-24.5028
-24.9002
43.2175
37.0692
27.9856
18.5322
9.96065
2.67187
-3.33111
-8.18937
-12.0738
-15.1413
-17.5216
-19.3161
-20.6006
-21.4287
-21.8344
33.5141
29.6863
23.5141
16.5357
9.75028
3.64738
-1.60479
-6.00287
-9.61323
-12.5227
-14.8158
-16.5649
-17.8277
-18.6466
-19.0492
26.467
23.9296
19.6013
14.4044
9.06534
4.0319
-0.471543
-4.36307
-7.63882
-10.3316
-12.4869
-14.1505
-15.3621
-16.1525
-16.5425
21.1806
19.4154
16.2904
12.371
8.16764
4.04813
0.23677
-3.15066
-6.06884
-8.51303
-10.4987
-12.0492
-13.1882
-13.9356
-14.3056
17.1188
15.8443
13.5304
10.5339
7.21129
3.85012
0.650657
-2.26395
-4.82771
-7.0124
-8.81222
-10.233
-11.2854
-11.9799
-12.3249
13.9413
12.994
11.2438
8.92277
6.28129
3.53959
0.866674
-1.62076
-3.84956
-5.77866
-7.3884
-8.67219
-9.63041
-10.2663
-10.5832
11.4207
10.7005
9.35297
7.53364
5.42054
3.18108
0.953824
-1.15708
-3.07933
-4.76637
-6.19052
-7.33694
-8.19875
-8.77352
-9.06083
9.39971
8.8422
7.78921
6.34809
4.64721
2.81392
0.960113
-0.824359
-2.47228
-3.93636
-5.18515
-6.19891
-6.96597
-7.4799
-7.73751
7.7653
7.32743
6.49454
5.34257
3.96555
2.46085
0.918194
-0.586419
-1.99276
-3.25564
-4.34272
-5.23185
-5.90856
-6.36386
-6.59265
6.43454
6.08657
5.42109
4.49303
3.37234
2.13398
0.849801
-0.41669
-1.61276
-2.69682
-3.63749
-4.41201
-5.00457
-5.40474
-5.60629
5.34505
5.06587
4.52966
3.777
2.86066
1.83882
0.76907
-0.295843
-1.31045
-2.23743
-3.04743
-3.71827
-4.23389
-4.58326
-4.75957
4.44913
4.22337
3.7883
3.17441