/*--------------------------------*- C++ -*----------------------------------*\
| =========                 |                                                 |
| \\      /  F ield         | OpenFOAM: The Open Source CFD Toolbox           |
|  \\    /   O peration     | Version:  5.x                                   |
|   \\  /    A nd           | Web:      www.OpenFOAM.org                      |
|    \\/     M anipulation  |                                                 |
\*---------------------------------------------------------------------------*/
FoamFile
{
    version     2.0;
    format      ascii;
    class       volScalarField;
    location    "1.7";
    object      gradTx;
}
// * * * * * * * * * * * * * * * * * * * * * * * * * * * * * * * * * * * * * //

dimensions      [0 -1 0 1 0 0 0];

internalField   nonuniform List<scalar> 
3200
(
0.439243
-0.0181881
-0.0459154
-0.0470863
-0.0418646
-0.0411344
-0.0312608
-0.0304494
-0.0233639
-0.0364661
-0.017204
-0.0126735
-0.0122119
-0.00954256
-0.00929498
-0.00733515
-0.00715463
-0.00566957
-0.00553219
-0.00439013
-0.00428414
-0.00339854
-0.00331622
-0.00262655
-0.0025624
-0.00202449
-0.00197446
-0.00155506
-0.00151608
-0.00118961
-0.00115931
-0.000905832
-0.000882337
-0.000686168
-0.000668013
-0.000516761
-0.000502787
-0.000386646
-0.000375936
-0.000287156
-0.000278986
-0.000211455
-0.000205255
-0.000154169
-0.000149491
-0.00011109
-0.000107595
-7.89885e-05
-7.65918e-05
-5.67981e-05
-8.59537e-05
-3.88616e-05
-2.56573e-05
-2.43473e-05
-1.64456e-05
-1.57381e-05
-1.03647e-05
-9.89587e-06
-6.33129e-06
-6.02486e-06
-3.74404e-06
-3.55064e-06
-2.1458e-06
-2.02816e-06
-1.19383e-06
-1.1247e-06
-6.44966e-07
-6.05553e-07
-3.37025e-07
-3.15091e-07
-1.67819e-07
-1.55543e-07
-7.00636e-08
-6.31421e-08
-1.68846e-08
-1.37567e-08
-8.94519e-10
-1.63874e-10
-3.70875e-11
7.74269e-09
0.437731
-0.0198942
-0.0432903
-0.0459963
-0.0419907
-0.0403454
-0.0320144
-0.0301935
-0.0248992
-0.0336111
-0.0183257
-0.0132643
-0.0121306
-0.00976065
-0.00918329
-0.00748416
-0.00706596
-0.00578135
-0.00546329
-0.0044758
-0.00423046
-0.00346487
-0.00327432
-0.00267816
-0.00252969
-0.00206474
-0.00194897
-0.00158645
-0.00149625
-0.00121407
-0.00114393
-0.000924838
-0.000870458
-0.000700893
-0.000658873
-0.000528128
-0.000495784
-0.000395385
-0.000370596
-0.000293846
-0.000274936
-0.000216552
-0.0002022
-0.000158031
-0.000147204
-0.000114006
-0.000105923
-8.12793e-05
-7.58335e-05
-6.05351e-05
-7.92414e-05
-4.14608e-05
-2.72647e-05
-2.40739e-05
-1.70938e-05
-1.54457e-05
-1.07865e-05
-9.70012e-06
-6.6125e-06
-5.90253e-06
-3.92566e-06
-3.47743e-06
-2.25873e-06
-1.98596e-06
-1.26147e-06
-1.10111e-06
-6.84139e-07
-5.92676e-07
-3.59071e-07
-3.08147e-07
-1.79839e-07
-1.5134e-07
-7.70867e-08
-6.10379e-08
-2.09653e-08
-1.36961e-08
-2.19826e-09
-4.67449e-10
-1.07396e-10
7.71951e-09
0.436492
-0.0209382
-0.0414927
-0.0451746
-0.0420222
-0.0398236
-0.0325073
-0.0300764
-0.0258741
-0.0317158
-0.0190384
-0.0136978
-0.0120986
-0.00990698
-0.0091164
-0.00758188
-0.00701191
-0.00585442
-0.00542114
-0.00453176
-0.00419757
-0.00350816
-0.00324862
-0.00271185
-0.00250963
-0.00209101
-0.00193332
-0.00160695
-0.00148409
-0.00123004
-0.00113451
-0.00093725
-0.000863182
-0.000710512
-0.000653278
-0.000535555
-0.000491501
-0.000401097
-0.000367333
-0.00029822
-0.000272462
-0.000219886
-0.000200337
-0.000160559
-0.000145812
-0.000115917
-0.000104912
-8.28017e-05
-7.54688e-05
-6.29114e-05
-7.47881e-05
-4.31162e-05
-2.84316e-05
-2.3952e-05
-1.75286e-05
-1.52736e-05
-1.10653e-05
-9.58435e-06
-6.79855e-06
-5.83082e-06
-4.04611e-06
-3.43502e-06
-2.3338e-06
-1.96181e-06
-1.30653e-06
-1.08778e-06
-7.10285e-07
-5.85482e-07
-3.73806e-07
-3.04296e-07
-1.87866e-07
-1.48967e-07
-8.17808e-08
-5.98942e-08
-2.37335e-08
-1.38044e-08
-3.11122e-09
-7.16143e-10
-1.66792e-10
7.69982e-09
0.43562
-0.0215313
-0.0403698
-0.0446259
-0.0420151
-0.0395062
-0.0328046
-0.0300298
-0.0264469
-0.030561
-0.0194574
-0.0139815
-0.0120902
-0.00999715
-0.00907918
-0.00764094
-0.00698129
-0.00589847
-0.00539718
-0.00456545
-0.00417884
-0.00353423
-0.00323398
-0.00273213
-0.00249819
-0.00210683
-0.00192441
-0.00161929
-0.00147716
-0.00123965
-0.00112914
-0.000944724
-0.000859041
-0.000716305
-0.000650096
-0.000540029
-0.000489066
-0.00040454
-0.000365479
-0.000300857
-0.000271059
-0.000221896
-0.000199281
-0.000162085
-0.000145023
-0.000117071
-0.000104344
-8.3732e-05
-7.53123e-05
-6.43097e-05
-7.20762e-05
-4.40917e-05
-2.919e-05
-2.39074e-05
-1.77964e-05
-1.51795e-05
-1.12349e-05
-9.52066e-06
-6.91179e-06
-5.79173e-06
-4.11957e-06
-3.41217e-06
-2.37967e-06
-1.94897e-06
-1.33411e-06
-1.08079e-06
-7.26313e-07
-5.81755e-07
-3.8285e-07
-3.02317e-07
-1.92789e-07
-1.47723e-07
-8.46617e-08
-5.93206e-08
-2.54519e-08
-1.3943e-08
-3.69209e-09
-8.90931e-10
-2.09634e-10
7.68553e-09
0.435172
-0.0217988
-0.0398298
-0.0443516
-0.0420036
-0.0393561
-0.0329443
-0.0300153
-0.0267116
-0.0300147
-0.019651
-0.0141216
-0.0120897
-0.0100402
-0.00906266
-0.00766876
-0.0069675
-0.00591918
-0.00538636
-0.00458129
-0.00417038
-0.00354647
-0.00322736
-0.00274165
-0.00249302
-0.00211425
-0.00192038
-0.00162508
-0.00147403
-0.00124417
-0.00112672
-0.000948235
-0.00085717
-0.000719027
-0.000648659
-0.000542132
-0.000487968
-0.000406158
-0.000364644
-0.000302097
-0.000270426
-0.000222842
-0.000198805
-0.000162802
-0.000144669
-0.000117614
-0.000104089
-8.41734e-05
-7.5258e-05
-6.49563e-05
-7.07936e-05
-4.45432e-05
-2.9563e-05
-2.38957e-05
-1.79241e-05
-1.51383e-05
-1.13152e-05
-9.49263e-06
-6.96537e-06
-5.77464e-06
-4.15437e-06
-3.40227e-06
-2.40142e-06
-1.94347e-06
-1.34721e-06
-1.07783e-06
-7.33933e-07
-5.80192e-07
-3.87153e-07
-3.01494e-07
-1.9513e-07
-1.47196e-07
-8.60321e-08
-5.9087e-08
-2.62752e-08
-1.40309e-08
-3.97478e-09
-9.80829e-10
-2.32035e-10
7.67802e-09
0.435172
-0.021799
-0.0398298
-0.0443516
-0.0420037
-0.0393561
-0.0329443
-0.0300153
-0.0267116
-0.0300147
-0.019651
-0.0141216
-0.0120897
-0.0100402
-0.00906266
-0.00766876
-0.0069675
-0.00591918
-0.00538636
-0.00458129
-0.00417038
-0.00354647
-0.00322736
-0.00274165
-0.00249302
-0.00211425
-0.00192038
-0.00162508
-0.00147403
-0.00124417
-0.00112672
-0.000948235
-0.00085717
-0.000719027
-0.000648659
-0.000542132
-0.000487968
-0.000406158
-0.000364644
-0.000302097
-0.000270426
-0.000222842
-0.000198805
-0.000162802
-0.000144669
-0.000117614
-0.000104089
-8.41734e-05
-7.5258e-05
-6.49563e-05
-7.07936e-05
-4.45432e-05
-2.9563e-05
-2.38957e-05
-1.79241e-05
-1.51383e-05
-1.13152e-05
-9.49262e-06
-6.96537e-06
-5.77464e-06
-4.15437e-06
-3.40227e-06
-2.40142e-06
-1.94347e-06
-1.34721e-06
-1.07783e-06
-7.33932e-07
-5.80192e-07
-3.87152e-07
-3.01494e-07
-1.9513e-07
-1.47196e-07
-8.60321e-08
-5.90869e-08
-2.62752e-08
-1.40309e-08
-3.97476e-09
-9.80818e-10
-2.32026e-10
7.67802e-09
0.435621
-0.0215318
-0.0403699
-0.044626
-0.0420152
-0.0395063
-0.0328046
-0.0300299
-0.0264469
-0.030561
-0.0194574
-0.0139815
-0.0120902
-0.00999715
-0.00907919
-0.00764095
-0.00698129
-0.00589847
-0.00539718
-0.00456546
-0.00417884
-0.00353423
-0.00323398
-0.00273213
-0.00249819
-0.00210683
-0.00192441
-0.00161929
-0.00147716
-0.00123965
-0.00112914
-0.000944724
-0.000859041
-0.000716305
-0.000650096
-0.000540029
-0.000489067
-0.00040454
-0.000365479
-0.000300857
-0.000271059
-0.000221896
-0.000199281
-0.000162085
-0.000145023
-0.000117071
-0.000104344
-8.3732e-05
-7.53123e-05
-6.43097e-05
-7.20762e-05
-4.40917e-05
-2.91899e-05
-2.39074e-05
-1.77964e-05
-1.51795e-05
-1.12349e-05
-9.52066e-06
-6.91178e-06
-5.79173e-06
-4.11957e-06
-3.41217e-06
-2.37966e-06
-1.94897e-06
-1.33411e-06
-1.08079e-06
-7.26312e-07
-5.81754e-07
-3.8285e-07
-3.02317e-07
-1.92789e-07
-1.47722e-07
-8.46615e-08
-5.93204e-08
-2.54518e-08
-1.39429e-08
-3.69204e-09
-8.90902e-10
-2.09609e-10
7.68553e-09
0.436493
-0.0209389
-0.0414929
-0.0451746
-0.0420222
-0.0398237
-0.0325074
-0.0300764
-0.0258741
-0.0317158
-0.0190384
-0.0136978
-0.0120986
-0.00990698
-0.0091164
-0.00758188
-0.00701191
-0.00585442
-0.00542114
-0.00453176
-0.00419757
-0.00350816
-0.00324862
-0.00271185
-0.00250963
-0.00209101
-0.00193333
-0.00160695
-0.00148409
-0.00123004
-0.00113451
-0.00093725
-0.000863182
-0.000710512
-0.000653278
-0.000535555
-0.000491501
-0.000401098
-0.000367333
-0.00029822
-0.000272462
-0.000219886
-0.000200337
-0.00016056
-0.000145812
-0.000115917
-0.000104912
-8.28017e-05
-7.54688e-05
-6.29114e-05
-7.47881e-05
-4.31162e-05
-2.84316e-05
-2.39519e-05
-1.75286e-05
-1.52736e-05
-1.10653e-05
-9.58434e-06
-6.79854e-06
-5.83082e-06
-4.04611e-06
-3.43501e-06
-2.33379e-06
-1.96181e-06
-1.30653e-06
-1.08778e-06
-7.10284e-07
-5.85481e-07
-3.73806e-07
-3.04295e-07
-1.87866e-07
-1.48966e-07
-8.17806e-08
-5.9894e-08
-2.37333e-08
-1.38043e-08
-3.11116e-09
-7.16106e-10
-1.6676e-10
7.69982e-09
0.437732
-0.0198948
-0.0432905
-0.0459963
-0.0419908
-0.0403454
-0.0320144
-0.0301935
-0.0248992
-0.0336111
-0.0183257
-0.0132643
-0.0121306
-0.00976066
-0.00918329
-0.00748416
-0.00706597
-0.00578135
-0.00546329
-0.0044758
-0.00423047
-0.00346487
-0.00327432
-0.00267816
-0.00252969
-0.00206474
-0.00194897
-0.00158645
-0.00149625
-0.00121407
-0.00114393
-0.000924839
-0.000870459
-0.000700894
-0.000658874
-0.000528128
-0.000495785
-0.000395385
-0.000370596
-0.000293846
-0.000274936
-0.000216552
-0.0002022
-0.000158031
-0.000147205
-0.000114006
-0.000105923
-8.12793e-05
-7.58335e-05
-6.05351e-05
-7.92414e-05
-4.14608e-05
-2.72647e-05
-2.40739e-05
-1.70938e-05
-1.54457e-05
-1.07865e-05
-9.70011e-06
-6.61249e-06
-5.90252e-06
-3.92566e-06
-3.47743e-06
-2.25873e-06
-1.98596e-06
-1.26147e-06
-1.10111e-06
-6.84138e-07
-5.92676e-07
-3.5907e-07
-3.08146e-07
-1.79839e-07
-1.5134e-07
-7.70865e-08
-6.10378e-08
-2.09652e-08
-1.3696e-08
-2.19821e-09
-4.67417e-10
-1.07368e-10
7.71952e-09
0.439243
-0.0181884
-0.0459155
-0.0470863
-0.0418647
-0.0411344
-0.0312609
-0.0304494
-0.0233639
-0.0364662
-0.017204
-0.0126735
-0.0122119
-0.00954256
-0.00929499
-0.00733515
-0.00715463
-0.00566957
-0.00553219
-0.00439013
-0.00428415
-0.00339854
-0.00331622
-0.00262655
-0.0025624
-0.00202449
-0.00197446
-0.00155506
-0.00151608
-0.00118961
-0.00115931
-0.000905832
-0.000882337
-0.000686169
-0.000668014
-0.000516761
-0.000502787
-0.000386646
-0.000375936
-0.000287156
-0.000278986
-0.000211455
-0.000205255
-0.000154169
-0.000149491
-0.00011109
-0.000107595
-7.89885e-05
-7.65918e-05
-5.67981e-05
-8.59537e-05
-3.88616e-05
-2.56573e-05
-2.43472e-05
-1.64456e-05
-1.57381e-05
-1.03647e-05
-9.89587e-06
-6.33129e-06
-6.02486e-06
-3.74403e-06
-3.55064e-06
-2.1458e-06
-2.02816e-06
-1.19383e-06
-1.1247e-06
-6.44966e-07
-6.05552e-07
-3.37025e-07
-3.15091e-07
-1.67819e-07
-1.55543e-07
-7.00636e-08
-6.3142e-08
-1.68846e-08
-1.37567e-08
-8.945e-10
-1.63861e-10
-3.70758e-11
7.74269e-09
0.573054
-0.169184
-0.0300988
-0.0233504
-0.0203175
-0.0199789
-0.0197719
-0.019804
-0.0196544
-0.0341907
-0.0181296
-0.0157927
-0.0155103
-0.0137689
-0.0135862
-0.0119005
-0.0117306
-0.0101586
-0.0100027
-0.00858422
-0.0084451
-0.0071953
-0.00707367
-0.00599144
-0.00588672
-0.00496166
-0.00487254
-0.00408967
-0.00401451
-0.00335714
-0.00329421
-0.00274575
-0.00269336
-0.00223821
-0.00219483
-0.00181886
-0.00178309
-0.00147382
-0.00144444
-0.00119103
-0.001167
-0.000960146
-0.000940563
-0.000772349
-0.000756456
-0.000620226
-0.000607467
-0.000497967
-0.000489423
-0.000413115
-0.000671408
-0.000331518
-0.000260345
-0.000252799
-0.000207964
-0.000203708
-0.000168844
-0.000165597
-0.000138404
-0.000135882
-0.000114826
-0.00011288
-9.67045e-05
-9.52077e-05
-8.27882e-05
-8.15669e-05
-7.07163e-05
-6.9522e-05
-5.75462e-05
-5.62553e-05
-4.33919e-05
-4.21583e-05
-3.15079e-05
-3.00807e-05
-1.3245e-05
-1.18142e-05
-7.20225e-07
-1.28379e-07
-2.89284e-08
-2.09168e-06
0.568568
-0.150744
-0.0407553
-0.0256551
-0.021065
-0.0201518
-0.0198645
-0.0199776
-0.0207102
-0.0314106
-0.0191197
-0.0161572
-0.0154508
-0.0139015
-0.0134759
-0.0120198
-0.0116268
-0.0102706
-0.00991015
-0.00868617
-0.00836441
-0.00728569
-0.00700435
-0.00607007
-0.00582782
-0.0050291
-0.00482293
-0.00414689
-0.00397301
-0.0034053
-0.00325969
-0.002786
-0.0026648
-0.00227167
-0.00217128
-0.00184653
-0.00176376
-0.00149661
-0.00142864
-0.00120973
-0.00115413
-0.000975427
-0.000930113
-0.000784794
-0.000748021
-0.000630373
-0.000600902
-0.000507106
-0.000488222
-0.000438008
-0.000617908
-0.000351516
-0.000269952
-0.000251351
-0.000211573
-0.000201655
-0.000171468
-0.000163949
-0.000140444
-0.000134609
-0.000116409
-0.000111906
-9.79208e-05
-9.44546e-05
-8.36917e-05
-8.08609e-05
-7.14445e-05
-6.86794e-05
-5.83472e-05
-5.53648e-05
-4.43127e-05
-4.14535e-05
-3.212e-05
-2.88237e-05
-1.45087e-05
-1.12189e-05
-1.74057e-06
-3.65431e-07
-8.37479e-08
-2.11004e-06
0.564896
-0.13752
-0.0476162
-0.0275392
-0.0216654
-0.0202995
-0.019941
-0.0201263
-0.0213672
-0.0295499
-0.0197365
-0.0164315
-0.0154249
-0.0139891
-0.0134067
-0.0120965
-0.0115614
-0.0103428
-0.0098521
-0.00875199
-0.00831395
-0.00734414
-0.00696111
-0.00612097
-0.00579115
-0.00507281
-0.00479209
-0.00418401
-0.00394724
-0.00343655
-0.00323828
-0.00281213
-0.00264709
-0.0022934
-0.0021567
-0.00186451
-0.0017518
-0.00151143
-0.00141886
-0.00122189
-0.00114617
-0.000985367
-0.000923657
-0.000792891
-0.000742817
-0.000636988
-0.000596906
-0.000513245
-0.00048827
-0.000453692
-0.000582257
-0.000364118
-0.000277039
-0.000250748
-0.000213986
-0.000200411
-0.000173183
-0.000162939
-0.000141777
-0.00013383
-0.000117444
-0.00011131
-9.87158e-05
-9.39927e-05
-8.42774e-05
-8.04178e-05
-7.19063e-05
-6.81389e-05
-5.88538e-05
-5.47968e-05
-4.49054e-05
-4.10075e-05
-3.24904e-05
-2.80072e-05
-1.53311e-05
-1.08711e-05
-2.43673e-06
-5.58716e-07
-1.30023e-07
-2.12564e-06
0.562318
-0.12899
-0.0516838
-0.0288549
-0.0220851
-0.0204067
-0.0199955
-0.0202326
-0.0217463
-0.0284089
-0.0200929
-0.0166136
-0.015416
-0.0140425
-0.0133665
-0.0121421
-0.0115232
-0.0103857
-0.00981834
-0.00879124
-0.00828469
-0.00737905
-0.00693608
-0.00615141
-0.00576997
-0.00509896
-0.0047743
-0.00420623
-0.00393239
-0.00345527
-0.00322595
-0.0028278
-0.0026369
-0.00230642
-0.00214832
-0.00187529
-0.00174492
-0.00152031
-0.00141325
-0.00122918
-0.0011416
-0.000991332
-0.000919954
-0.000797753
-0.000739836
-0.000640967
-0.000594647
-0.000517031
-0.000488698
-0.000462847
-0.000560469
-0.000371474
-0.00028169
-0.000250562
-0.000215469
-0.000199711
-0.000174218
-0.000162365
-0.00014258
-0.000133387
-0.000118068
-0.000110972
-9.91948e-05
-9.37296e-05
-8.46279e-05
-8.016e-05
-7.21775e-05
-6.78185e-05
-5.91507e-05
-5.44616e-05
-4.52579e-05
-4.07458e-05
-3.26991e-05
-2.75183e-05
-1.58248e-05
-1.06821e-05
-2.87055e-06
-6.93983e-07
-1.63374e-07
-2.13696e-06
0.560993
-0.12481
-0.0535719
-0.0295279
-0.022301
-0.0204629
-0.0200239
-0.0202876
-0.0219192
-0.0278668
-0.0202555
-0.0167043
-0.015414
-0.0140677
-0.0133481
-0.0121634
-0.0115057
-0.0104057
-0.00980285
-0.00880956
-0.00827129
-0.00739536
-0.00692465
-0.00616564
-0.0057603
-0.0051112
-0.00476618
-0.00421664
-0.00392562
-0.00346404
-0.00322034
-0.00283513
-0.00263226
-0.00231253
-0.0021445
-0.00188035
-0.0017418
-0.00152448
-0.0014107
-0.0012326
-0.00113952
-0.000994128
-0.000918272
-0.000800033
-0.000738483
-0.000642834
-0.000593633
-0.000518838
-0.00048902
-0.000467056
-0.000550141
-0.000374857
-0.000283991
-0.00025053
-0.000216175
-0.000199397
-0.000174704
-0.000162105
-0.000142958
-0.000133186
-0.000118361
-0.000110819
-9.94199e-05
-9.36106e-05
-8.4792e-05
-8.00416e-05
-7.23029e-05
-6.76696e-05
-5.92876e-05
-5.43063e-05
-4.54221e-05
-4.0625e-05
-3.27928e-05
-2.72894e-05
-1.60561e-05
-1.05997e-05
-3.07887e-06
-7.63357e-07
-1.80805e-07
-2.14291e-06
0.560993
-0.12481
-0.053572
-0.0295279
-0.022301
-0.0204629
-0.0200239
-0.0202876
-0.0219192
-0.0278668
-0.0202555
-0.0167043
-0.015414
-0.0140677
-0.0133481
-0.0121634
-0.0115057
-0.0104057
-0.00980286
-0.00880956
-0.00827129
-0.00739536
-0.00692465
-0.00616564
-0.0057603
-0.0051112
-0.00476618
-0.00421664
-0.00392562
-0.00346404
-0.00322034
-0.00283513
-0.00263226
-0.00231253
-0.0021445
-0.00188035
-0.0017418
-0.00152448
-0.0014107
-0.0012326
-0.00113952
-0.000994129
-0.000918272
-0.000800033
-0.000738483
-0.000642834
-0.000593633
-0.000518838
-0.00048902
-0.000467056
-0.000550141
-0.000374857
-0.000283991
-0.00025053
-0.000216175
-0.000199397
-0.000174704
-0.000162105
-0.000142958
-0.000133186
-0.000118361
-0.000110819
-9.94199e-05
-9.36106e-05
-8.4792e-05
-8.00416e-05
-7.23029e-05
-6.76696e-05
-5.92877e-05
-5.43063e-05
-4.54221e-05
-4.0625e-05
-3.27928e-05
-2.72894e-05
-1.60561e-05
-1.05997e-05
-3.07887e-06
-7.63352e-07
-1.80804e-07
-2.14291e-06
0.562319
-0.12899
-0.0516839
-0.0288549
-0.0220852
-0.0204067
-0.0199955
-0.0202326
-0.0217463
-0.0284089
-0.0200929
-0.0166136
-0.015416
-0.0140425
-0.0133665
-0.0121422
-0.0115232
-0.0103857
-0.00981835
-0.00879124
-0.00828469
-0.00737905
-0.00693609
-0.00615141
-0.00576997
-0.00509896
-0.0047743
-0.00420624
-0.00393239
-0.00345527
-0.00322595
-0.0028278
-0.0026369
-0.00230643
-0.00214832
-0.0018753
-0.00174492
-0.00152031
-0.00141325
-0.00122918
-0.0011416
-0.000991332
-0.000919954
-0.000797754
-0.000739836
-0.000640967
-0.000594648
-0.000517031
-0.000488699
-0.000462847
-0.00056047
-0.000371474
-0.00028169
-0.000250562
-0.000215469
-0.000199711
-0.000174218
-0.000162365
-0.00014258
-0.000133387
-0.000118068
-0.000110972
-9.91948e-05
-9.37296e-05
-8.4628e-05
-8.016e-05
-7.21776e-05
-6.78186e-05
-5.91507e-05
-5.44617e-05
-4.52579e-05
-4.07458e-05
-3.26991e-05
-2.75182e-05
-1.58248e-05
-1.06821e-05
-2.87053e-06
-6.9397e-07
-1.6337e-07
-2.13696e-06
0.564897
-0.137521
-0.0476163
-0.0275392
-0.0216654
-0.0202995
-0.019941
-0.0201263
-0.0213672
-0.0295499
-0.0197365
-0.0164315
-0.0154249
-0.0139891
-0.0134067
-0.0120966
-0.0115614
-0.0103428
-0.00985211
-0.008752
-0.00831396
-0.00734414
-0.00696111
-0.00612098
-0.00579116
-0.00507281
-0.00479209
-0.00418401
-0.00394724
-0.00343655
-0.00323828
-0.00281214
-0.00264709
-0.0022934
-0.0021567
-0.00186451
-0.0017518
-0.00151143
-0.00141886
-0.00122189
-0.00114617
-0.000985367
-0.000923657
-0.000792892
-0.000742818
-0.000636989
-0.000596906
-0.000513246
-0.000488271
-0.000453693
-0.000582257
-0.000364118
-0.000277039
-0.000250749
-0.000213986
-0.000200411
-0.000173184
-0.000162939
-0.000141777
-0.00013383
-0.000117445
-0.00011131
-9.87158e-05
-9.39928e-05
-8.42775e-05
-8.04179e-05
-7.19064e-05
-6.8139e-05
-5.88539e-05
-5.47969e-05
-4.49054e-05
-4.10075e-05
-3.24904e-05
-2.80072e-05
-1.53311e-05
-1.08711e-05
-2.43671e-06
-5.58699e-07
-1.30018e-07
-2.12563e-06
0.568569
-0.150744
-0.0407554
-0.0256551
-0.0210651
-0.0201518
-0.0198645
-0.0199776
-0.0207102
-0.0314106
-0.0191197
-0.0161573
-0.0154508
-0.0139015
-0.0134759
-0.0120198
-0.0116268
-0.0102706
-0.00991016
-0.00868618
-0.00836442
-0.0072857
-0.00700436
-0.00607007
-0.00582783
-0.0050291
-0.00482294
-0.0041469
-0.00397301
-0.0034053
-0.00325969
-0.002786
-0.0026648
-0.00227167
-0.00217128
-0.00184653
-0.00176376
-0.00149661
-0.00142864
-0.00120973
-0.00115413
-0.000975428
-0.000930113
-0.000784794
-0.000748022
-0.000630373
-0.000600902
-0.000507107
-0.000488222
-0.000438008
-0.000617908
-0.000351516
-0.000269952
-0.000251351
-0.000211573
-0.000201655
-0.000171468
-0.000163949
-0.000140444
-0.000134609
-0.00011641
-0.000111906
-9.79209e-05
-9.44547e-05
-8.36918e-05
-8.0861e-05
-7.14446e-05
-6.86794e-05
-5.83472e-05
-5.53649e-05
-4.43127e-05
-4.14535e-05
-3.212e-05
-2.88236e-05
-1.45086e-05
-1.12189e-05
-1.74055e-06
-3.65417e-07
-8.37444e-08
-2.11003e-06
0.573055
-0.169184
-0.0300988
-0.0233504
-0.0203175
-0.0199789
-0.0197719
-0.019804
-0.0196544
-0.0341908
-0.0181296
-0.0157927
-0.0155103
-0.0137689
-0.0135862
-0.0119005
-0.0117306
-0.0101586
-0.0100027
-0.00858422
-0.0084451
-0.00719531
-0.00707368
-0.00599144
-0.00588672
-0.00496166
-0.00487254
-0.00408967
-0.00401451
-0.00335714
-0.00329421
-0.00274575
-0.00269336
-0.00223821
-0.00219483
-0.00181886
-0.00178309
-0.00147382
-0.00144444
-0.00119104
-0.001167
-0.000960147
-0.000940563
-0.000772349
-0.000756456
-0.000620227
-0.000607467
-0.000497967
-0.000489423
-0.000413115
-0.000671408
-0.000331518
-0.000260345
-0.000252799
-0.000207964
-0.000203709
-0.000168844
-0.000165597
-0.000138404
-0.000135883
-0.000114826
-0.00011288
-9.67046e-05
-9.52078e-05
-8.27882e-05
-8.15669e-05
-7.07163e-05
-6.95221e-05
-5.75462e-05
-5.62553e-05
-4.33919e-05
-4.21583e-05
-3.15079e-05
-3.00806e-05
-1.3245e-05
-1.18142e-05
-7.20217e-07
-1.28374e-07
-2.89272e-08
-2.09167e-06
0.570777
-0.169219
-0.0300368
-0.0232827
-0.0202317
-0.0198917
-0.0196773
-0.0197083
-0.0195532
-0.0340091
-0.0180302
-0.0157011
-0.0154199
-0.0136844
-0.0135023
-0.0118234
-0.0116542
-0.0100893
-0.00993413
-0.00852277
-0.00838438
-0.00714143
-0.00702049
-0.00594467
-0.00584059
-0.00492142
-0.00483288
-0.00405531
-0.00398067
-0.00332803
-0.00326556
-0.00272126
-0.00266927
-0.00221773
-0.0021747
-0.00180185
-0.00176637
-0.00145977
-0.00143065
-0.00117949
-0.00115568
-0.000950718
-0.000931316
-0.000764683
-0.000748941
-0.00061402
-0.000601383
-0.000492954
-0.000484493
-0.000408939
-0.000664615
-0.000328161
-0.000257708
-0.000250239
-0.000205862
-0.00020165
-0.000167146
-0.000163932
-0.000137023
-0.000134528
-0.000113697
-0.000111772
-9.57766e-05
-9.4297e-05
-8.2026e-05
-8.08199e-05
-7.01124e-05
-6.89329e-05
-5.70981e-05
-5.58208e-05
-4.30779e-05
-4.1856e-05
-3.13101e-05
-2.98938e-05
-1.31647e-05
-1.17428e-05
-7.15861e-07
-1.276e-07
-2.87529e-08
-2.07813e-06
0.566291
-0.150769
-0.0407011
-0.0255877
-0.020981
-0.0200643
-0.0197703
-0.0198807
-0.0206037
-0.0312437
-0.0190149
-0.0160641
-0.0153605
-0.0138165
-0.0133925
-0.0119422
-0.0115508
-0.0102008
-0.00984207
-0.00862423
-0.00830415
-0.00723133
-0.00695159
-0.00602284
-0.00578208
-0.00498844
-0.00478362
-0.00411216
-0.00393948
-0.00337585
-0.00323131
-0.00276121
-0.00264094
-0.00225093
-0.00215135
-0.00182929
-0.00174722
-0.00148237
-0.00141499
-0.00119803
-0.00114292
-0.000965861
-0.000920965
-0.000777012
-0.000740588
-0.000624069
-0.000594883
-0.000502003
-0.000483303
-0.000433581
-0.000611656
-0.000347957
-0.000267219
-0.000248806
-0.000209434
-0.000199618
-0.000169742
-0.000162302
-0.000139043
-0.000133269
-0.000115264
-0.000110809
-9.69797e-05
-9.35533e-05
-8.2919e-05
-8.01235e-05
-7.08307e-05
-6.80997e-05
-5.78889e-05
-5.4938e-05
-4.39899e-05
-4.1158e-05
-3.1915e-05
-2.8644e-05
-1.44201e-05
-1.1151e-05
-1.73001e-06
-3.63214e-07
-8.32398e-08
-2.09638e-06
0.56262
-0.137539
-0.047567
-0.0274723
-0.0215826
-0.0202119
-0.019847
-0.0200284
-0.0212573
-0.029393
-0.0196285
-0.0163372
-0.0153346
-0.0139038
-0.0133236
-0.0120187
-0.0114858
-0.0102727
-0.00978433
-0.00868973
-0.00825398
-0.00728947
-0.00690862
-0.00607346
-0.00574565
-0.00503187
-0.00475299
-0.00414903
-0.0039139
-0.00340688
-0.00321007
-0.00278715
-0.00262337
-0.00227249
-0.0021369
-0.00184713
-0.00173536
-0.00149705
-0.0014053
-0.00121008
-0.00113504
-0.00097571
-0.000914571
-0.000785034
-0.000735435
-0.000630621
-0.000590927
-0.000508082
-0.000483351
-0.000449109
-0.000576367
-0.000360432
-0.000274233
-0.00024821
-0.000211823
-0.000198387
-0.00017144
-0.000161303
-0.000140362
-0.000132498
-0.000116288
-0.00011022
-9.7766e-05
-9.30972e-05
-8.3498e-05
-7.96865e-05
-7.12861e-05
-6.75653e-05
-5.8389e-05
-5.43748e-05
-4.4577e-05
-4.07162e-05
-3.22808e-05
-2.7832e-05
-1.52372e-05
-1.08052e-05
-2.42195e-06
-5.55326e-07
-1.29234e-07
-2.11189e-06
0.560042
-0.129004
-0.0516376
-0.0287884
-0.0220031
-0.020319
-0.0199016
-0.020134
-0.0216345
-0.0282581
-0.0199829
-0.0165185
-0.0153257
-0.013957
-0.0132835
-0.0120641
-0.0114478
-0.0103154
-0.00975075
-0.00872879
-0.00822489
-0.0073242
-0.00688375
-0.00610372
-0.00572461
-0.00505787
-0.00473533
-0.00417111
-0.00389917
-0.00342547
-0.00319784
-0.00280269
-0.00261327
-0.00228541
-0.00212858
-0.00185782
-0.00172855
-0.00150587
-0.00139974
-0.00121731
-0.00113051
-0.000981621
-0.000910904
-0.000789851
-0.000732483
-0.000634562
-0.00058869
-0.000511831
-0.000483775
-0.000458171
-0.0005548
-0.000367714
-0.000278838
-0.000248026
-0.000213291
-0.000197694
-0.000172464
-0.000160734
-0.000141156
-0.00013206
-0.000116905
-0.000109886
-9.82398e-05
-9.28374e-05
-8.38445e-05
-7.94322e-05
-7.15536e-05
-6.72484e-05
-5.8682e-05
-5.40424e-05
-4.49262e-05
-4.0457e-05
-3.24867e-05
-2.73457e-05
-1.57276e-05
-1.06173e-05
-2.85313e-06
-6.89772e-07
-1.62383e-07
-2.12314e-06
0.558717
-0.124822
-0.0535272
-0.0294617
-0.0222194
-0.0203753
-0.0199301
-0.0201886
-0.0218066
-0.0277189
-0.0201447
-0.0166088
-0.0153236
-0.0139822
-0.0132652
-0.0120853
-0.0114304
-0.0103354
-0.00973535
-0.00874702
-0.00821157
-0.00734042
-0.00687238
-0.00611787
-0.005715
-0.00507003
-0.00472727
-0.00418144
-0.00389245
-0.00343418
-0.00319227
-0.00280997
-0.00260867
-0.00229147
-0.0021248
-0.00186283
-0.00172545
-0.00150999
-0.00139721
-0.0012207
-0.00112846
-0.000984392
-0.000909239
-0.000792109
-0.000731143
-0.000636412
-0.000587686
-0.000513621
-0.000484093
-0.000462338
-0.000544576
-0.000371062
-0.000281116
-0.000247994
-0.00021399
-0.000197384
-0.000172946
-0.000160477
-0.00014153
-0.000131862
-0.000117195
-0.000109735
-9.84626e-05
-9.272e-05
-8.40067e-05
-7.93155e-05
-7.16772e-05
-6.71011e-05
-5.88171e-05
-5.38884e-05
-4.50888e-05
-4.03374e-05
-3.25791e-05
-2.71181e-05
-1.59574e-05
-1.05353e-05
-3.06018e-06
-7.58724e-07
-1.79708e-07
-2.12905e-06
0.558717
-0.124823
-0.0535272
-0.0294617
-0.0222194
-0.0203753
-0.0199301
-0.0201886
-0.0218066
-0.0277189
-0.0201447
-0.0166088
-0.0153237
-0.0139822
-0.0132652
-0.0120853
-0.0114304
-0.0103354
-0.00973535
-0.00874702
-0.00821157
-0.00734042
-0.00687239
-0.00611787
-0.00571501
-0.00507003
-0.00472727
-0.00418144
-0.00389245
-0.00343418
-0.00319227
-0.00280997
-0.00260867
-0.00229147
-0.0021248
-0.00186283
-0.00172545
-0.00151
-0.00139721
-0.0012207
-0.00112846
-0.000984392
-0.000909239
-0.00079211
-0.000731143
-0.000636412
-0.000587686
-0.000513621
-0.000484093
-0.000462338
-0.000544576
-0.000371062
-0.000281116
-0.000247994
-0.00021399
-0.000197384
-0.000172946
-0.000160477
-0.00014153
-0.000131862
-0.000117195
-0.000109735
-9.84626e-05
-9.272e-05
-8.40067e-05
-7.93155e-05
-7.16772e-05
-6.71011e-05
-5.88171e-05
-5.38884e-05
-4.50888e-05
-4.03374e-05
-3.25791e-05
-2.71181e-05
-1.59574e-05
-1.05353e-05
-3.06018e-06
-7.5872e-07
-1.79707e-07
-2.12905e-06
0.560043
-0.129005
-0.0516377
-0.0287884
-0.0220031
-0.0203191
-0.0199016
-0.020134
-0.0216346
-0.0282581
-0.0199829
-0.0165185
-0.0153257
-0.013957
-0.0132835
-0.0120641
-0.0114478
-0.0103154
-0.00975076
-0.00872879
-0.00822489
-0.0073242
-0.00688375
-0.00610372
-0.00572461
-0.00505787
-0.00473533
-0.00417111
-0.00389917
-0.00342547
-0.00319784
-0.00280269
-0.00261327
-0.00228541
-0.00212858
-0.00185782
-0.00172855
-0.00150587
-0.00139974
-0.00121731
-0.00113051
-0.000981621
-0.000910905
-0.000789851
-0.000732483
-0.000634562
-0.000588691
-0.000511832
-0.000483775
-0.000458171
-0.0005548
-0.000367714
-0.000278838
-0.000248026
-0.000213291
-0.000197694
-0.000172464
-0.000160734
-0.000141156
-0.00013206
-0.000116905
-0.000109886
-9.82399e-05
-9.28375e-05
-8.38446e-05
-7.94323e-05
-7.15537e-05
-6.72485e-05
-5.8682e-05
-5.40425e-05
-4.49262e-05
-4.0457e-05
-3.24867e-05
-2.73457e-05
-1.57276e-05
-1.06172e-05
-2.85311e-06
-6.89759e-07
-1.62379e-07
-2.12314e-06
0.562621
-0.137539
-0.0475671
-0.0274723
-0.0215826
-0.0202119
-0.019847
-0.0200284
-0.0212573
-0.029393
-0.0196285
-0.0163372
-0.0153346
-0.0139039
-0.0133236
-0.0120187
-0.0114858
-0.0102727
-0.00978434
-0.00868973
-0.00825398
-0.00728948
-0.00690862
-0.00607346
-0.00574566
-0.00503188
-0.004753
-0.00414904
-0.00391391
-0.00340689
-0.00321007
-0.00278715
-0.00262338
-0.00227249
-0.0021369
-0.00184713
-0.00173536
-0.00149706
-0.0014053
-0.00121008
-0.00113504
-0.00097571
-0.000914572
-0.000785035
-0.000735435
-0.000630622
-0.000590927
-0.000508083
-0.000483352
-0.000449109
-0.000576367
-0.000360432
-0.000274234
-0.00024821
-0.000211823
-0.000198387
-0.00017144
-0.000161303
-0.000140362
-0.000132498
-0.000116288
-0.00011022
-9.77661e-05
-9.30973e-05
-8.34981e-05
-7.96866e-05
-7.12862e-05
-6.75654e-05
-5.8389e-05
-5.43749e-05
-4.4577e-05
-4.07162e-05
-3.22808e-05
-2.7832e-05
-1.52372e-05
-1.08051e-05
-2.42192e-06
-5.55309e-07
-1.29229e-07
-2.11188e-06
0.566292
-0.15077
-0.0407012
-0.0255877
-0.020981
-0.0200643
-0.0197703
-0.0198807
-0.0206037
-0.0312438
-0.019015
-0.0160642
-0.0153605
-0.0138166
-0.0133925
-0.0119423
-0.0115509
-0.0102008
-0.00984208
-0.00862424
-0.00830415
-0.00723134
-0.0069516
-0.00602285
-0.00578209
-0.00498844
-0.00478362
-0.00411216
-0.00393949
-0.00337585
-0.00323132
-0.00276121
-0.00264094
-0.00225093
-0.00215136
-0.00182929
-0.00174722
-0.00148237
-0.00141499
-0.00119803
-0.00114292
-0.000965861
-0.000920966
-0.000777012
-0.000740589
-0.00062407
-0.000594883
-0.000502004
-0.000483304
-0.000433582
-0.000611657
-0.000347957
-0.000267219
-0.000248806
-0.000209434
-0.000199618
-0.000169742
-0.000162302
-0.000139043
-0.000133269
-0.000115264
-0.000110809
-9.69798e-05
-9.35533e-05
-8.29191e-05
-8.01236e-05
-7.08308e-05
-6.80998e-05
-5.7889e-05
-5.49381e-05
-4.39899e-05
-4.1158e-05
-3.1915e-05
-2.8644e-05
-1.44201e-05
-1.1151e-05
-1.72999e-06
-3.632e-07
-8.32363e-08
-2.09637e-06
0.570777
-0.169219
-0.0300369
-0.0232827
-0.0202318
-0.0198917
-0.0196773
-0.0197083
-0.0195532
-0.0340091
-0.0180302
-0.0157011
-0.0154199
-0.0136844
-0.0135023
-0.0118234
-0.0116542
-0.0100893
-0.00993413
-0.00852277
-0.00838438
-0.00714143
-0.00702049
-0.00594467
-0.00584059
-0.00492142
-0.00483288
-0.00405532
-0.00398068
-0.00332804
-0.00326556
-0.00272126
-0.00266927
-0.00221774
-0.0021747
-0.00180185
-0.00176637
-0.00145977
-0.00143065
-0.00117949
-0.00115568
-0.000950719
-0.000931316
-0.000764683
-0.000748941
-0.00061402
-0.000601383
-0.000492954
-0.000484493
-0.00040894
-0.000664615
-0.000328161
-0.000257709
-0.000250239
-0.000205862
-0.00020165
-0.000167146
-0.000163932
-0.000137023
-0.000134528
-0.000113697
-0.000111772
-9.57767e-05
-9.42971e-05
-8.2026e-05
-8.082e-05
-7.01124e-05
-6.89329e-05
-5.70981e-05
-5.58208e-05
-4.30779e-05
-4.1856e-05
-3.13101e-05