/*--------------------------------*- C++ -*----------------------------------*\
| =========                 |                                                 |
| \\      /  F ield         | OpenFOAM: The Open Source CFD Toolbox           |
|  \\    /   O peration     | Version:  5.x                                   |
|   \\  /    A nd           | Web:      www.OpenFOAM.org                      |
|    \\/     M anipulation  |                                                 |
\*---------------------------------------------------------------------------*/
FoamFile
{
    version     2.0;
    format      ascii;
    class       volScalarField;
    location    "1.7";
    object      gradTy;
}
// * * * * * * * * * * * * * * * * * * * * * * * * * * * * * * * * * * * * * //

dimensions      [0 -1 0 1 0 0 0];

internalField   nonuniform List<scalar> 
3200
(
-0.0213872
0.00568339
-0.043397
0.0372455
-0.031219
0.0350863
-0.0215005
0.0257381
-0.0176872
0.00634755
0.017336
-0.00781649
0.0106146
-0.00656157
0.00794921
-0.00510224
0.00610316
-0.00395473
0.00471581
-0.00306488
0.00365186
-0.0023722
0.00282795
-0.00183175
0.00218668
-0.00140994
0.00168654
-0.0010811
0.00129646
-0.000825308
0.000992635
-0.000626932
0.000756565
-0.000473623
0.000573705
-0.000355609
0.000432574
-0.000265156
0.000324087
-0.00019615
0.00024106
-0.000143776
0.000177823
-0.000104255
0.000129911
-7.46463e-05
9.37671e-05
-5.28976e-05
6.56155e-05
-4.18365e-05
1.84549e-05
4.05357e-05
-1.43147e-05
2.20826e-05
-1.02633e-05
1.41616e-05
-6.40621e-06
8.96221e-06
-3.82966e-06
5.4984e-06
-2.21149e-06
3.26458e-06
-1.23716e-06
1.87786e-06
-6.71834e-07
1.04841e-06
-3.53864e-07
5.68611e-07
-1.79289e-07
2.98825e-07
-8.47841e-08
1.51616e-07
-2.8119e-08
6.56722e-08
7.88855e-10
1.62391e-08
3.34155e-09
7.7524e-10
1.84941e-10
5.28231e-11
-0.0157392
0.0019859
-0.0294895
0.0240995
-0.0199311
0.0233119
-0.0133771
0.0170795
-0.0115121
0.00452877
0.0122397
-0.00464332
0.00711832
-0.00407666
0.00529624
-0.00318375
0.00406257
-0.00247015
0.00313832
-0.00191489
0.00243021
-0.00148202
0.00188211
-0.00114402
0.00145561
-0.000880155
0.00112297
-0.00067446
0.000863508
-0.000514504
0.000661385
-0.000390507
0.000504297
-0.000294733
0.000382581
-0.000221056
0.00028861
-0.000164626
0.00021635
-0.000121611
0.000161027
-8.89921e-05
0.000118873
-6.44028e-05
8.69184e-05
-4.60063e-05
6.27844e-05
-3.25873e-05
4.37184e-05
-2.69727e-05
1.31516e-05
2.88551e-05
-8.12146e-06
1.49836e-05
-6.14497e-06
9.56882e-06
-3.82251e-06
6.0655e-06
-2.26492e-06
3.72921e-06
-1.29472e-06
2.21882e-06
-7.16608e-07
1.27885e-06
-3.84864e-07
7.15349e-07
-2.00285e-07
3.88755e-07
-9.99307e-08
2.04847e-07
-4.59544e-08
1.0461e-07
-1.30729e-08
4.60239e-08
3.16661e-09
1.17797e-08
2.92804e-09
6.96173e-10
1.66694e-10
4.7651e-11
-0.0108058
0.000249209
-0.0189915
0.014852
-0.0121398
0.0147298
-0.00794393
0.010779
-0.00712559
0.00304037
0.00812474
-0.002618
0.00453851
-0.00241601
0.00335603
-0.0018955
0.0025721
-0.00147212
0.00198649
-0.00114154
0.00153823
-0.000883433
0.00119141
-0.000681746
0.000921585
-0.000524248
0.00071115
-0.00040148
0.000546991
-0.000306039
0.00041909
-0.000232086
0.000319664
-0.000174997
0.000242607
-0.000131109
0.000183099
-9.75191e-05
0.000137324
-7.19348e-05
0.000102267
-5.25513e-05
7.55451e-05
-3.79542e-05
5.52792e-05
-2.70489e-05
3.99567e-05
-1.91536e-05
2.76934e-05
-1.65476e-05
8.82022e-06
1.9278e-05
-4.33439e-06
9.65178e-06
-3.50205e-06
6.13891e-06
-2.17103e-06
3.89673e-06
-1.27376e-06
2.40028e-06
-7.19798e-07
1.43076e-06
-3.93484e-07
8.26067e-07
-2.08558e-07
4.62843e-07
-1.06947e-07
2.5197e-07
-5.2338e-08
1.33073e-07
-2.31913e-08
6.83259e-08
-5.10263e-09
3.04511e-08
3.48418e-09
8.01816e-09
2.24952e-09
5.49004e-10
1.32115e-10
3.78158e-11
-0.00631971
-0.000281861
-0.0106226
0.00803265
-0.00650779
0.00812525
-0.00417032
0.00594034
-0.0038647
0.00175286
0.00464085
-0.00131038
0.00252166
-0.00126573
0.00185563
-0.000997016
0.00142122
-0.000774987
0.00109745
-0.000601105
0.000849788
-0.000465166
0.000658235
-0.000358876
0.000509225
-0.000275856
0.000393017
-0.000211146
0.000302358
-0.000160852
0.000231715
-0.000121895
0.00017679
-9.1837e-05
0.000134214
-6.87415e-05
0.000101327
-5.10762e-05
7.6024e-05
-3.76302e-05
5.66404e-05
-2.74508e-05
4.18609e-05
-1.97915e-05
3.06486e-05
-1.40764e-05
2.21641e-05
-9.96601e-06
1.53055e-05
-8.91209e-06
5.08121e-06
1.10606e-05
-2.05366e-06
5.40367e-06
-1.77234e-06
3.42593e-06
-1.09551e-06
2.17684e-06
-6.36891e-07
1.34273e-06
-3.55992e-07
8.01467e-07
-1.92272e-07
4.63333e-07
-1.00578e-07
2.59923e-07
-5.0802e-08
1.41683e-07
-2.43556e-08
7.49518e-08
-1.0349e-08
3.86336e-08
-1.49526e-09
1.73771e-08
2.54066e-09
4.66829e-09
1.40814e-09
3.505e-10
8.47109e-11
2.42835e-11
-0.00207893
-0.000161896
-0.00341739
0.00253762
-0.0020458
0.00259506
-0.00129535
0.00189625
-0.00122249
0.000573014
0.00150923
-0.000395209
0.000808614
-0.000392627
0.000593454
-0.000310008
0.000454358
-0.000241093
0.000350817
-0.000187027
0.000271643
-0.000144727
0.000210418
-0.000111641
0.000162795
-8.57945e-05
0.000125656
-6.56492e-05
9.66813e-05
-4.99939e-05
7.41019e-05
-3.78703e-05
5.65452e-05
-2.85185e-05
4.29343e-05
-2.13352e-05
3.24196e-05
-1.58427e-05
2.43288e-05
-1.16638e-05
1.81299e-05
-8.50141e-06
1.34026e-05
-6.12316e-06
9.81574e-06
-4.34983e-06
7.10023e-06
-3.07952e-06
4.89318e-06
-2.80821e-06
1.66022e-06
3.605e-06
-5.97298e-07
1.73974e-06
-5.385e-07
1.10104e-06
-3.3227e-07
6.99972e-07
-1.9207e-07
4.32081e-07
-1.06614e-07
2.58092e-07
-5.7134e-08
1.49306e-07
-2.96277e-08
8.38129e-08
-1.48125e-08
4.57169e-08
-7.00021e-09
2.4206e-08
-2.8839e-09
1.25022e-08
-2.50115e-10
5.65031e-09
9.1798e-10
1.53368e-09
4.78585e-10
1.20341e-10
2.91479e-11
8.37834e-12
0.00208336
0.000163445
0.0034181
-0.00253708
0.00204615
-0.00259482
0.00129552
-0.00189613
0.00122256
-0.000572971
-0.00150919
0.000395259
-0.000808554
0.000392691
-0.000593393
0.000310064
-0.000454308
0.000241136
-0.000350779
0.000187059
-0.000271615
0.000144751
-0.000210398
0.000111658
-0.000162781
8.58069e-05
-0.000125646
6.56579e-05
-9.66741e-05
4.99998e-05
-7.4097e-05
3.78743e-05
-5.6542e-05
2.8521e-05
-4.29324e-05
2.13367e-05
-3.24185e-05
1.58435e-05
-2.43282e-05
1.16641e-05
-1.81297e-05
8.50148e-06
-1.34027e-05
6.12306e-06
-9.8159e-06
4.34963e-06
-7.10047e-06
3.07924e-06
-4.89352e-06
2.80783e-06
-1.66062e-06
-3.60535e-06
5.9702e-07
-1.73994e-06
5.38347e-07
-1.10116e-06
3.32175e-07
-7.0005e-07
1.92006e-07
-4.32133e-07
1.06572e-07
-2.58126e-07
5.71073e-08
-1.49327e-07
2.96113e-08
-8.38256e-08
1.48027e-08
-4.57245e-08
6.99446e-09
-2.42104e-08
2.88063e-09
-1.25046e-08
2.48393e-10
-5.65148e-09
-9.18737e-10
-1.53413e-09
-4.78839e-10
-1.20478e-10
-2.92065e-11
-8.34722e-12
0.00632281
0.000282988
0.0106232
-0.00803221
0.0065081
-0.00812502
0.00417049
-0.00594022
0.00386478
-0.0017528
-0.00464079
0.00131044
-0.00252159
0.00126579
-0.00185557
0.000997068
-0.00142118
0.000775027
-0.00109742
0.000601135
-0.000849762
0.000465188
-0.000658215
0.000358893
-0.000509211
0.000275868
-0.000393007
0.000211155
-0.000302351
0.000160858
-0.00023171
0.0001219
-0.000176787
9.18399e-05
-0.000134212
6.87434e-05
-0.000101325
5.10774e-05
-7.60231e-05
3.76309e-05
-5.66398e-05
2.74511e-05
-4.18607e-05
1.97917e-05
-3.06485e-05
1.40764e-05
-2.21642e-05
9.96593e-06
-1.53057e-05
8.91189e-06
-5.08143e-06
-1.10608e-05
2.0535e-06
-5.40379e-06
1.77226e-06
-3.42599e-06
1.09545e-06
-2.17688e-06
6.36854e-07
-1.34276e-06
3.55967e-07
-8.01487e-07
1.92256e-07
-4.63346e-07
1.00568e-07
-2.5993e-07
5.07959e-08
-1.41687e-07
2.4352e-08
-7.49545e-08
1.03469e-08
-3.86352e-08
1.49414e-09
-1.73779e-08
-2.54116e-09
-4.66859e-09
-1.40831e-09
-3.50593e-10
-8.47519e-11
-2.42622e-11
0.0108064
-0.000248928
0.0189917
-0.0148519
0.01214
-0.0147297
0.00794403
-0.0107789
0.00712567
-0.00304031
-0.00812468
0.00261805
-0.00453847
0.00241605
-0.003356
0.00189553
-0.00257207
0.00147215
-0.00198647
0.00114156
-0.00153821
0.000883447
-0.0011914
0.000681756
-0.000921576
0.000524256
-0.000711143
0.000401486
-0.000546986
0.000306043
-0.000419086
0.000232089
-0.000319661
0.000174999
-0.000242605
0.000131111
-0.000183097
9.75202e-05
-0.000137323
7.19356e-05
-0.000102267
5.25519e-05
-7.55446e-05
3.79546e-05
-5.52789e-05
2.70491e-05
-3.99565e-05
1.91537e-05
-2.76933e-05
1.65477e-05
-8.82016e-06
-1.9278e-05
4.33442e-06
-9.65175e-06
3.50207e-06
-6.13889e-06
2.17104e-06
-3.89672e-06
1.27377e-06
-2.40028e-06
7.198e-07
-1.43075e-06
3.93485e-07
-8.26066e-07
2.08558e-07
-4.62843e-07
1.06947e-07
-2.5197e-07
5.23379e-08
-1.33073e-07
2.31912e-08
-6.8326e-08
5.10253e-09
-3.04512e-08
-3.48423e-09
-8.01819e-09
-2.24955e-09
-5.49018e-10
-1.32123e-10
-3.78123e-11
0.0157366
-0.00198678
0.0294892
-0.0240998
0.0199309
-0.023312
0.013377
-0.0170796
0.0115121
-0.00452878
-0.0122397
0.00464331
-0.00711834
0.00407664
-0.00529626
0.00318373
-0.00406259
0.00247013
-0.00313834
0.00191488
-0.00243022
0.00148201
-0.00188212
0.00114402
-0.00145561
0.000880151
-0.00112298
0.000674457
-0.000863511
0.000514502
-0.000661387
0.000390506
-0.000504297
0.000294732
-0.000382581
0.000221055
-0.00028861
0.000164626
-0.00021635
0.000121611
-0.000161027
8.89923e-05
-0.000118873
6.44031e-05
-8.69181e-05
4.60066e-05
-6.27842e-05
3.25876e-05
-4.37181e-05
2.69729e-05
-1.31513e-05
-2.88549e-05
8.12165e-06
-1.49835e-05
6.14508e-06
-9.56874e-06
3.82258e-06
-6.06545e-06
2.26496e-06
-3.72918e-06
1.29474e-06
-2.2188e-06
7.16626e-07
-1.27884e-06
3.84875e-07
-7.1534e-07
2.00291e-07
-3.8875e-07
9.99344e-08
-2.04844e-07
4.59565e-08
-1.04608e-07
1.3074e-08
-4.60232e-08
-3.16614e-09
-1.17794e-08
-2.92788e-09
-6.96091e-10
-1.66659e-10
-4.76699e-11
0.0213817
-0.00568547
0.0433959
-0.0372464
0.0312184
-0.0350868
0.0215002
-0.0257384
0.017687
-0.00634771
-0.0173361
0.00781634
-0.0106148
0.00656144
-0.00794933
0.00510213
-0.00610326
0.00395464
-0.00471589
0.00306481
-0.00365192
0.00237215
-0.00282799
0.00183171
-0.00218671
0.00140991
-0.00168656
0.00108108
-0.00129647
0.000825293
-0.000992647
0.000626922
-0.000756573
0.000473616
-0.000573711
0.000355604
-0.000432578
0.000265153
-0.000324089
0.000196148
-0.000241062
0.000143775
-0.000177824
0.000104255
-0.000129911
7.46459e-05
-9.37673e-05
5.28975e-05
-6.56154e-05
4.18367e-05
-1.84547e-05
-4.05354e-05
1.43149e-05
-2.20825e-05
1.02634e-05
-1.41615e-05
6.40628e-06
-8.96215e-06
3.82972e-06
-5.49836e-06
2.21152e-06
-3.26455e-06
1.23719e-06
-1.87784e-06
6.71849e-07
-1.0484e-06
3.53874e-07
-5.68604e-07
1.79294e-07
-2.98821e-07
8.47875e-08
-1.51614e-07
2.81209e-08
-6.56709e-08
-7.88015e-10
-1.62386e-08
-3.34126e-09
-7.75079e-10
-1.84868e-10
-5.286e-11
-0.203786
0.157132
0.0102249
0.0240993
-0.013565
0.016085
-0.01532
0.0151109
-0.0170198
0.00161557
0.0169014
-0.0110306
0.0128445
-0.0101436
0.0112065
-0.00873979
0.00971023
-0.00742103
0.00830639
-0.00624323
0.0070309
-0.00521429
0.00590132
-0.00432901
0.00491949
-0.00357603
0.00407785
-0.00294123
0.00336399
-0.00240985
0.0027635
-0.00196761
0.00226175
-0.0016014
0.00184483
-0.00129947
0.00150006
-0.00105152
0.00121615
-0.000848679
0.000983292
-0.000683359
0.000793016
-0.000549141
0.000638094
-0.000440738
0.000511929
-0.000355747
0.000400343
-0.000330189
8.44935e-05
0.000324441
-0.000169233
0.000215641
-0.000147299
0.000171432
-0.000120644
0.00013887
-9.93765e-05
0.000113526
-8.2939e-05
9.38661e-05
-7.03527e-05
7.87659e-05
-6.06378e-05
6.74902e-05
-5.16528e-05
5.82753e-05
-4.10705e-05
4.81276e-05
-2.98521e-05
3.65937e-05
-2.09218e-05
2.86274e-05
-5.27049e-06
1.291e-05
2.61479e-06
6.06035e-07
1.45741e-07
4.26536e-08
-0.145683
0.104892
0.0126357
0.0173044
-0.00830802
0.0105653
-0.00991068
0.00971982
-0.0115222
0.00115598
0.011682
-0.00687888
0.00848791
-0.00645169
0.00738687
-0.00555405
0.00640683
-0.00470791
0.00548576
-0.00395497
0.00464693
-0.00329923
0.00390275
-0.00273641
0.00325508
-0.00225856
0.00269934
-0.0018563
0.00222762
-0.00151996
0.00183058
-0.00124032
0.00149866
-0.00100894
0.00122274
-0.000818309
0.000994477
-0.000661864
0.00080645
-0.000533958
0.000652177
-0.000429774
0.000526076
-0.000345245
0.000423362
-0.000277053
0.000339555
-0.00022425
0.000263165
-0.000218488
6.02786e-05
0.000227266
-0.000102722
0.000143797
-9.24696e-05
0.000113687
-7.59813e-05
9.19897e-05
-6.26936e-05
7.51209e-05
-5.24304e-05
6.20276e-05
-4.45816e-05
5.19714e-05
-3.85065e-05
4.45255e-05
-3.27611e-05
3.85753e-05
-2.58456e-05
3.2037e-05
-1.85533e-05
2.44698e-05
-1.27995e-05
1.9557e-05
-2.43246e-06
9.12647e-06
2.28305e-06
5.4394e-07
1.31361e-07
3.84687e-08
-0.0976079
0.0663565
0.0111624
0.0117143
-0.0048366
0.00661381
-0.00611101
0.00595866
-0.00738603
0.00077823
0.0076222
-0.00408785
0.0053403
-0.0039139
0.00463571
-0.00336691
0.00402416
-0.00284923
0.00344859
-0.00239017
0.00292328
-0.00199157
0.0024565
-0.00165023
0.00204977
-0.00136095
0.00170047
-0.00111777
0.00140378
-0.000914673
0.00115391
-0.000745971
0.00094494
-0.000606495
0.000771155
-0.000491662
0.000627338
-0.000397484
0.000508835
-0.000320533
0.000411576
-0.00025789
0.000332053
-0.000207098
0.000267255
-0.00016617
0.000214287
-0.000134898
0.000164663
-0.000137281
4.04672e-05
0.00014991
-5.93242e-05
9.12193e-05
-5.53782e-05
7.17384e-05
-4.56569e-05
5.79872e-05
-3.77363e-05
4.73076e-05
-3.16224e-05
3.90141e-05
-2.69525e-05
3.26445e-05
-2.33274e-05
2.79634e-05
-1.98227e-05
2.42985e-05
-1.55186e-05
2.02809e-05
-1.10026e-05
1.55549e-05
-7.46414e-06
1.26592e-05
-9.37158e-07
6.07857e-06
1.74687e-06
4.28645e-07
1.0411e-07
3.05155e-08
-0.056097
0.0365814
0.00745333
0.00680273
-0.00249043
0.00362449
-0.00330765
0.00320985
-0.00411411
0.000449698
0.00430128
-0.00214535
0.00293723
-0.00209079
0.00254432
-0.00179764
0.00221011
-0.00151919
0.00189525
-0.00127295
0.0016074
-0.00105965
0.00135131
-0.000877341
0.00112797
-0.000723061
0.000936029
-0.000593516
0.00077291
-0.000485424
0.000635481
-0.000395708
0.000520501
-0.000321583
0.000424855
-0.00026059
0.000345682
-0.000210594
0.000280429
-0.000169763
0.000226861
-0.000136542
0.000183052
-0.000109619
0.000147345
-8.79464e-05
0.000118114
-7.1579e-05
9.01482e-05
-7.53268e-05
2.33312e-05
8.52513e-05
-3.03609e-05
5.04885e-05
-2.92696e-05
3.95401e-05
-2.42014e-05
3.19351e-05
-2.00312e-05
2.60341e-05
-1.68139e-05
2.14499e-05
-1.4359e-05
1.79291e-05
-1.24485e-05
1.53562e-05
-1.05676e-05
1.33734e-05
-8.22089e-06
1.12043e-05
-5.76836e-06
8.62096e-06
-3.85595e-06
7.10915e-06
-2.66956e-07
3.48421e-06
1.08996e-06
2.73492e-07
6.6755e-08
1.95795e-08
-0.0182972
0.0116742
0.00260122
0.0022332
-0.000763969
0.00115387
-0.00104524
0.00101193
-0.00132025
0.000147312
0.00139014
-0.000665992
0.000936785
-0.000655853
0.000810497
-0.00056374
0.00070428
-0.000476054
0.00060416
-0.00039863
0.000512546
-0.000331657
0.000430986
-0.000274472
0.00035982
-0.00022612
0.000298639
-0.000185547
0.000246629
-0.00015171
0.000202802
-0.000123638
0.000166126
-0.000100453
0.000135613
-8.1382e-05
0.000110351
-6.57541e-05
8.95283e-05
-5.29947e-05
7.24324e-05
-4.2616e-05
5.84492e-05
-3.42075e-05
4.70501e-05
-2.7443e-05
3.77109e-05
-2.23698e-05
2.86739e-05
-2.39794e-05
7.62796e-06
2.76619e-05
-9.28435e-06
1.61569e-05
-9.12604e-06
1.2624e-05
-7.55865e-06
1.01914e-05
-6.26135e-06
8.30481e-06
-5.26081e-06
6.83885e-06
-4.49787e-06
5.71299e-06
-3.90321e-06
4.89268e-06
-3.31164e-06
4.26599e-06
-2.56699e-06
3.5813e-06
-1.79043e-06
2.76035e-06
-1.18636e-06
2.29215e-06
-4.22181e-08
1.13545e-06
3.6982e-07
9.38847e-08
2.29761e-08
6.7342e-09
0.0183018
-0.0116727
-0.00260047
-0.00223245
0.000764674
-0.0011532
0.00104585
-0.00101139
0.00132072
-0.000146912
-0.00138979
0.000666322
-0.000936477
0.000656139
-0.000810236
0.000563976
-0.000704067
0.000476247
-0.000603987
0.000398786
-0.000512407
0.000331782
-0.000430873
0.000274573
-0.00035973
0.000226201
-0.000298566
0.000185612
-0.000246571
0.000151762
-0.000202755
0.00012368
-0.000166089
0.000100486
-0.000135583
8.14085e-05
-0.000110328
6.57752e-05
-8.95095e-05
5.30115e-05
-7.24174e-05
4.26294e-05
-5.84373e-05
3.42181e-05
-4.70406e-05
2.74514e-05
-3.77035e-05
2.2376e-05
-2.86688e-05
2.39833e-05
-7.6249e-06
-2.76593e-05
9.28698e-06
-1.61543e-05
9.12853e-06
-1.26217e-05
7.56069e-06
-1.01896e-05
6.26288e-06
-8.30352e-06
5.26187e-06
-6.83801e-06
4.4985e-06
-5.71255e-06
3.90346e-06
-4.8926e-06
3.31157e-06
-4.26618e-06
2.5667e-06
-3.58166e-06
1.79004e-06
-2.76076e-06
1.18596e-06
-2.29249e-06
4.19462e-08
-1.13563e-06
-3.69933e-07
-9.39398e-08
-2.30008e-08
-6.76474e-09
0.0561002
-0.0365803
-0.00745274
-0.00680214
0.00249098
-0.00362396
0.00330813
-0.00320942
0.00411448
-0.000449375
-0.00430099
0.00214562
-0.00293698
0.00209102
-0.00254411
0.00179783
-0.00220994
0.00151934
-0.00189511
0.00127307
-0.00160729
0.00105975
-0.00135122
0.000877424
-0.00112789
0.000723128
-0.000935969
0.00059357
-0.000772861
0.000485467
-0.000635442
0.000395743
-0.00052047
0.000321611
-0.00042483
0.000260612
-0.000345662
0.000210612
-0.000280413
0.000169778
-0.000226848
0.000136553
-0.000183042
0.000109628
-0.000147337
8.79535e-05
-0.000118108
7.15844e-05
-9.01437e-05
7.53304e-05
-2.33283e-05
-8.52488e-05
3.03633e-05
-5.04862e-05
2.92718e-05
-3.95381e-05
2.42032e-05
-3.19335e-05
2.00325e-05
-2.6033e-05
1.68148e-05
-2.14491e-05
1.43596e-05
-1.79287e-05
1.24488e-05
-1.5356e-05
1.05677e-05
-1.33734e-05
8.22076e-06
-1.12045e-05
5.76813e-06
-8.62121e-06
3.8557e-06
-7.10937e-06
2.66779e-07
-3.48433e-06
-1.09003e-06
-2.73528e-07
-6.67708e-08
-1.96002e-08
0.0976085
-0.0663562
-0.0111622
-0.0117141
0.0048368
-0.00661362
0.00611118
-0.0059585
0.00738617
-0.000778102
-0.00762208
0.00408795
-0.0053402
0.00391399
-0.00463563
0.00336698
-0.00402409
0.00284929
-0.00344853
0.00239022
-0.00292323
0.00199161
-0.00245646
0.00165026
-0.00204974
0.00136098
-0.00170045
0.00111779
-0.00140376
0.000914692
-0.0011539
0.000745986
-0.000944926
0.000606507
-0.000771144
0.000491672
-0.000627329
0.000397492
-0.000508828
0.000320539
-0.00041157
0.000257896
-0.000332049
0.000207102
-0.000267252
0.000166174
-0.000214284
0.000134901
-0.000164661
0.000137283
-4.04655e-05
-0.000149908
5.93256e-05
-9.12181e-05
5.53793e-05
-7.17374e-05
4.56578e-05
-5.79864e-05
3.77369e-05
-4.7307e-05
3.16229e-05
-3.90137e-05
2.69529e-05
-3.26442e-05
2.33276e-05
-2.79632e-05
1.98229e-05
-2.42983e-05
1.55187e-05
-2.02808e-05
1.10026e-05
-1.55549e-05
7.46414e-06
-1.26592e-05
9.37145e-07
-6.07858e-06
-1.74688e-06
-4.28648e-07
-1.04111e-07
-3.05185e-08
0.14568
-0.104892
-0.0126361
-0.0173048
0.00830765
-0.0105656
0.00991036
-0.0097201
0.011522
-0.00115618
-0.0116822
0.00687871
-0.00848806
0.00645154
-0.007387
0.00555393
-0.00640694
0.00470781
-0.00548585
0.00395489
-0.004647
0.00329917
-0.00390281
0.00273636
-0.00325512
0.00225852
-0.00269938
0.00185627
-0.00222765
0.00151994
-0.0018306
0.0012403
-0.00149868
0.00100893
-0.00122275
0.000818296
-0.000994488
0.000661854
-0.000806459
0.00053395
-0.000652185
0.000429768
-0.000526082
0.00034524
-0.000423367
0.000277049
-0.000339558
0.000224247
-0.000263168
0.000218487
-6.02799e-05
-0.000227267
0.000102721
-0.000143798
9.24685e-05
-0.000113688
7.59803e-05
-9.19905e-05
6.26929e-05
-7.51214e-05
5.243e-05
-6.2028e-05
4.45813e-05
-5.19715e-05
3.85065e-05
-4.45254e-05
3.27612e-05
-3.85751e-05
2.58458e-05
-3.20368e-05
1.85536e-05
-2.44695e-05
1.27998e-05
-1.95568e-05
2.43263e-06
-9.12635e-06
-2.28297e-06
-5.43906e-07
-1.31346e-07
-3.845e-08
0.203781
-0.157134
-0.0102261
-0.0241004
0.0135639
-0.016086
0.015319
-0.0151117
0.0170191
-0.00161621
-0.0169019
0.01103
-0.012845
0.0101431
-0.0112069
0.00873941
-0.00971057
0.00742071
-0.00830667
0.00624298
-0.00703113
0.00521408
-0.00590151
0.00432885
-0.00491964
0.0035759
-0.00407798
0.00294112
-0.00336409
0.00240976
-0.00276358
0.00196754
-0.00226182
0.00160134
-0.00184489
0.00129942
-0.0015001
0.00105148
-0.00121619
0.00084865
-0.000983318
0.000683335
-0.000793037
0.000549123
-0.000638111
0.000440723
-0.000511942
0.000355736
-0.000400353
0.000330181
-8.44999e-05
-0.000324447
0.000169228
-0.000215645
0.000147294
-0.000171436
0.00012064
-0.000138873
9.93736e-05
-0.000113528
8.2937e-05
-9.38678e-05
7.03513e-05
-7.8767e-05
6.06371e-05
-6.74907e-05
5.16526e-05
-5.82754e-05
4.10706e-05
-4.81273e-05
2.98524e-05
-3.65933e-05
2.09222e-05
-2.86271e-05
5.27078e-06
-1.29098e-05
-2.61467e-06
-6.05976e-07
-1.45715e-07
-4.26181e-08
-0.20383
0.157183
0.0102991
0.0240546
-0.013492
0.0160195
-0.0152434
0.0150404
-0.0169295
0.00161341
0.016811
-0.0109645
0.0127711
-0.0100798
0.0111385
-0.00868182
0.00964801
-0.00736927
0.00825032
-0.00619759
0.00698106
-0.00517446
0.00585753
-0.00429458
0.00488141
-0.00354652
0.00404503
-0.00291613
0.00333592
-0.00238864
0.00273969
-0.00194983
0.00224168
-0.00158658
0.00182803
-0.00128718
0.00148608
-0.0010414
0.0012046
-0.000840392
0.000973792
-0.000676605
0.000785248
-0.000543662
0.000631773
-0.000436309
0.000506813
-0.000352155
0.000396318
-0.000326845
8.36469e-05
0.000321158
-0.000167518
0.000213456
-0.000145811
0.000169698
-0.000119432
0.000137471
-9.83889e-05
0.00011239
-8.2129e-05
9.29384e-05
-6.96855e-05
7.80033e-05
-6.00906e-05
6.68588e-05
-5.12271e-05
5.77688e-05
-4.0765e-05
4.77479e-05
-2.9645e-05
3.63228e-05
-2.08011e-05
2.84475e-05
-5.24018e-06
1.28317e-05
2.59893e-06
6.02358e-07
1.44857e-07
4.23951e-08
-0.145713
0.104928
0.0126885
0.0172774
-0.00825954
0.0105234
-0.00986046
0.00967504
-0.0114606
0.0011544
0.01162
-0.00683719
0.00843966
-0.00641078
0.00734231
-0.00551694
0.00636598
-0.00467483
0.0054489
-0.00392586
0.00461413
-0.00327387
0.0038739
-0.00271451
0.00322997
-0.00223982
0.00267768
-0.00184037
0.00220909
-0.00150653
0.00181485
-0.00122906
0.00148539
-0.000999564
0.00121163
-0.000810547
0.000985229
-0.000655477
0.000798799
-0.00052873
0.000645885
-0.000425517
0.000520928
-0.000341794
0.000419172
-0.000274264
0.000336164
-0.000221982
0.000260521
-0.000216274
5.96748e-05
0.000224966
-0.000101681
0.000142341
-9.15359e-05
0.000112537
-7.52189e-05
9.10625e-05
-6.20713e-05
7.43687e-05
-5.19195e-05
6.14134e-05
-4.41604e-05
5.14665e-05
-3.81614e-05
4.41065e-05
-3.24943e-05
3.82376e-05
-2.56563e-05
3.17828e-05
-1.84267e-05
2.42871e-05
-1.2728e-05
1.94336e-05
-2.4191e-06
9.07107e-06
2.26919e-06
5.4064e-07
1.30564e-07
3.82356e-08
-0.097628
0.0663815
0.0111977
0.0116988
-0.00480597
0.00658826
-0.00607964
0.00593153
-0.00734623
0.000777148
0.00758195
-0.00406278
0.00531011
-0.00388889
0.00460788
-0.00334425
0.00399861
-0.00282908
0.00342551
-0.00237246
0.00290272
-0.00197616
0.0024384
-0.00163694
0.00203401
-0.00134959
0.00168687
-0.00110813
0.00139213
-0.000906547
0.00114402
-0.000739168
0.000936592
-0.000600835
0.00076416
-0.000486982
0.000621514
-0.000393637
0.000504015
-0.000317386
0.00040761
-0.00025533
0.000328807
-0.000205024
0.000264612
-0.000164496
0.000212149
-0.000133533
0.000163009
-0.000135889
4.0062e-05
0.000148393
-5.87228e-05
9.02955e-05
-5.48191e-05
7.10126e-05
-4.51991e-05
5.74024e-05
-3.73622e-05
4.68335e-05
-3.13149e-05
3.86272e-05
-2.66989e-05
3.23265e-05
-2.31197e-05
2.76989e-05
-1.96632e-05
2.40844e-05
-1.54067e-05
2.0119e-05
-1.09287e-05
1.54379e-05
-7.42385e-06
1.2579e-05
-9.32521e-07
6.04163e-06
1.73627e-06
4.26044e-07
1.03479e-07
3.03305e-08
-0.0561084
0.0365958
0.00747358
0.0067948
-0.00247353
0.00361078
-0.00329049
0.00319538
-0.00409182
0.000449064
0.00427866
-0.00213207
0.00292069
-0.00207735
0.0025291
-0.00178547
0.00219613
-0.00150838
0.00188261
-0.00126346
0.00159613
-0.00105141
0.00134139
-0.000870243
0.00111932
-0.000716997
0.000928558
-0.000588374
0.00076651
-0.000481095
0.000630042
-0.000392086
0.000515911
-0.000318572
0.000421007
-0.000258102
0.000342477
-0.00020855
0.000277775
-0.000168093
0.000224677
-0.000135184
0.000181264
-0.000108519
0.000145888
-8.70589e-05
0.000116936
-7.08539e-05
8.92431e-05
-7.45626e-05
2.30976e-05
8.43889e-05
-3.0053e-05
4.99772e-05
-2.89742e-05
3.914e-05
-2.39588e-05
3.16129e-05
-1.98328e-05
2.5773e-05
-1.66507e-05
2.12368e-05
-1.42243e-05
1.7754e-05
-1.23383e-05
1.52103e-05
-1.04834e-05
1.3255e-05
-8.16239e-06
1.11145e-05
-5.73018e-06
8.55577e-06
-3.83577e-06
7.06399e-06
-2.65986e-07
3.46302e-06
1.08334e-06
2.71833e-07
6.63501e-08
1.94608e-08
-0.0183009
0.0116789
0.00260782
0.00223078
-0.000758574
0.00114956
-0.00103979
0.0010074
-0.00131308
0.000147102
0.00138285
-0.000661843
0.000931523
-0.000651623
0.000805658
-0.000559911
0.000699833
-0.000472657
0.000600137
-0.000395651
0.000508959
-0.000329069
0.000427825
-0.000272246
0.000357064
-0.000224219
0.000296258
-0.000183935
0.00024459
-0.000150354
0.000201067
-0.000122504
0.000164662
-9.95109e-05
0.000134385
-8.06038e-05
0.000109329
-6.5115e-05
8.86815e-05
-5.24727e-05
7.17353e-05
-4.21917e-05
5.78784e-05
-3.38641e-05
4.65851e-05
-2.71659e-05
3.73348e-05
-2.2143e-05
2.83861e-05
-2.3736e-05
7.55161e-06
2.73821e-05
-9.19017e-06
1.59933e-05
-9.03392e-06
1.24962e-05
-7.48291e-06
1.00886e-05
-6.19938e-06
8.22149e-06
-5.2098e-06
6.77089e-06
-4.45576e-06
5.65713e-06
-3.86876e-06
4.84612e-06
-3.2854e-06
4.22813e-06
-2.54886e-06
3.55254e-06
-1.77869e-06
2.73941e-06
-1.18027e-06
2.27757e-06
-4.21819e-08
1.12854e-06
3.67575e-07
9.3315e-08
2.28368e-08
6.69338e-09
0.0183055
-0.0116774
-0.00260708
-0.00223004
0.000759275
-0.00114889
0.0010404
-0.00100686
0.00131354
-0.000146705
-0.00138249
0.000662171
-0.000931217
0.000651906
-0.000805399
0.000560146
-0.000699621
0.000472848
-0.000599965
0.000395805
-0.00050882
0.000329194
-0.000427713
0.000272346
-0.000356974
0.000224299
-0.000296186
0.000184
-0.000244532
0.000150405
-0.000201021
0.000122545
-0.000164625
9.95438e-05
-0.000134356
8.063e-05
-0.000109305
6.51359e-05
-8.86629e-05
5.24893e-05
-7.17204e-05
4.22049e-05
-5.78666e-05
3.38746e-05
-4.65757e-05
2.71742e-05
-3.73275e-05
2.21492e-05
-2.83811e-05
2.37399e-05
-7.54857e-06
-2.73795e-05
9.19278e-06
-1.59907e-05
9.0364e-06
-1.2494e-05
7.48494e-06
-1.00868e-05
6.2009e-06
-8.22021e-06
5.21086e-06
-6.77005e-06
4.45639e-06
-5.65669e-06
3.86901e-06
-4.84604e-06
3.28533e-06
-4.22832e-06
2.54858e-06
-3.55289e-06
1.77829e-06
-2.73982e-06
1.17988e-06
-2.27791e-06
4.19115e-08
-1.12873e-06
-3.67687e-07
-9.33698e-08
-2.28613e-08
-6.72374e-09
0.0561116
-0.0365947
-0.007473
-0.00679421
0.00247408
-0.00361026
0.00329097
-0.00319495
0.00409219
-0.000448743
-0.00427837
0.00213233
-0.00292044
0.00207758
-0.00252889
0.00178566
-0.00219596
0.00150853
-0.00188247
0.00126359
-0.00159602
0.00105151
-0.0013413
0.000870325
-0.00111924
0.000717063
-0.000928498
0.000588427
-0.000766462
0.000481137
-0.000630003
0.00039212
-0.00051588
0.0003186
-0.000420982
0.000258124
-0.000342457
0.000208568
-0.000277759
0.000168107
-0.000224664
0.000135195
-0.000181254
0.000108528
-0.00014588
8.7066e-05
-0.000116929
7.08592e-05
-8.92386e-05
7.45661e-05
-2.30948e-05
-8.43864e-05
3.00554e-05
-4.99749e-05
2.89763e-05
-3.9138e-05
2.39606e-05
-3.16114e-05
1.98342e-05
-2.57719e-05
1.66516e-05
-2.12361e-05
1.4225e-05
-1.77536e-05
1.23386e-05
-1.52102e-05
1.04835e-05
-1.3255e-05
8.16227e-06
-1.11147e-05
5.72995e-06
-8.55602e-06
3.83553e-06
-7.06421e-06
2.65811e-07
-3.46314e-06
-1.08342e-06
-2.71869e-07
-6.63659e-08
-1.94814e-08
0.0976286
-0.0663812
-0.0111975
-0.0116986
0.00480617
-0.00658808
0.00607981
-0.00593138
0.00734637
-0.000777021
-0.00758183
0.00406288
-0.00531001
0.00388898
-0.0046078
0.00334432
-0.00399854
0.00282914
-0.00342546
0.00237251
-0.00290268
0.0019762
-0.00243837
0.00163698
-0.00203398
0.00134962
-0.00168684
0.00110815
-0.00139211
0.000906565
-0.001144
0.000739183
-0.000936579
0.000600847
-0.000764149
0.000486992
-0.000621505
0.000393644
-0.000504008
0.000317393
-0.000407604
0.000255335
-0.000328803
0.000205028
-0.000264608
0.000164499
-0.000212146
0.000133536
-0.000163007
0.000135891
-4.00603e-05
-0.000148392
5.87241e-05
-9.02943e-05
5.48202e-05
-7.10116e-05
4.52e-05
-5.74017e-05
3.73628e-05
-4.68329e-05
3.13154e-05
-3.86267e-05
2.66993e-05
-3.23262e-05
2.31199e-05
-2.76987e-05
1.96633e-05
-2.40843e-05
1.54068e-05
-2.0119e-05
1.09287e-05
-1.54379e-05
7.42385e-06
-1.2579e-05
9.32508e-07
-6.04164e-06
-1.73628e-06
-4.26047e-07
-1.0348e-07
-3.03335e-08
0.145711
-0.104929
-0.0126889
-0.0172778
0.00825917
-0.0105238
0.00986014
-0.00967532
0.0114603
-0.00115461
-0.0116201
0.00683702
-0.00843981
0.00641063
-0.00734244
0.00551682
-0.00636609
0.00467474
-0.00544899
0.00392578
-0.0046142
0.00327381
-0.00387396
0.00271446
-0.00323001
0.00223978
-0.00267772
0.00184034
-0.00220912
0.0015065
-0.00181487
0.00122904
-0.00148541
0.000999548
-0.00121164
0.000810534
-0.00098524
0.000655467
-0.000798808
0.000528722
-0.000645892
0.000425511
-0.000520934
0.000341789
-0.000419176
0.00027426
-0.000336167
0.00022198
-0.000260523
0.000216272
-5.96761e-05
-0.000224967
0.00010168
-0.000142342
9.15347e-05
-0.000112538
7.5218e-05
-9.10633e-05
6.20706e-05
-7.43692e-05
5.1919e-05
-6.14138e-05
4.41602e-05
-5.14667e-05
3.81614e-05
-4.41065e-05
3.24944e-05
-3.82374e-05
2.56565e-05
-3.17825e-05
1.84269e-05
-2.42868e-05
1.27283e-05
-1.94334e-05
2.41927e-06
-9.07095e-06
-2.26912e-06
-5.40606e-07
-1.30549e-07
-3.8217e-08
0.203825
-0.157185
-0.0103002
-0.0240558
0.0134909
-0.0160205
0.0152424
-0.0150413
0.0169288
-0.00161405
-0.0168116
0.010964
-0.0127716
0.0100793
-0.0111389
0.00868144
-0.00964835
0.00736896
-0.0082506
0.00619734
-0.00698129
0.00517425
-0.00585772
0.00429442
-0.00488156
0.00354638
-0.00404515
0.00291602
-0.00333602
0.00238856
-0.00273976
0.00194976
-0.00224175
0.00158652
-0.00182809
0.00128714
-0.00148612
0.00104137
-0.00120463
0.000840362
-0.000973818
0.000676582
-0.000785268
0.000543644
-0.00063179
0.000436294
-0.000506826
0.000352143
-0.000396327
0.000326837
-8.36532e-05
-0.000321163
0.000167513
-0.000213461
0.000145806
-0.000169702
0.000119429
-0.000137474
9.83861e-05
-0.000112393
8.21269e-05
-9.29401e-05
6.96841e-05
-7.80044e-05
6.00898e-05
-6.68593e-05
5.12269e-05
-5.77689e-05
4.07651e-05
-4.77477e-05
2.96453e-05
-3.63224e-05
2.08015e-05
-2.84472e-05
5.24047e-06
-1.28315e-05
-2.59881e-06
-6.02299e-07
-1.44831e-07
-4.23598e-08
-0.0213902
0.0057038
-0.0433225
0.0371917
-0.0311531
0.0350205
-0.0214463
0.0256806
-0.0176355
0.00633649
0.0172854
-0.00778838
0.0105798
-0.00653678
0.00792077
-0.00508179
0.00607976
-0.00393802
0.00469663
-0.0030513
0.00363622
-0.00236125
0.00281527
-0.00182297
0.00217648
-0.00140294
0.00167838
-0.00107556
0.00128997
-0.000820961