/*--------------------------------*- C++ -*----------------------------------*\
| =========                 |                                                 |
| \\      /  F ield         | OpenFOAM: The Open Source CFD Toolbox           |
|  \\    /   O peration     | Version:  5.x                                   |
|   \\  /    A nd           | Web:      www.OpenFOAM.org                      |
|    \\/     M anipulation  |                                                 |
\*---------------------------------------------------------------------------*/
FoamFile
{
    version     2.0;
    format      ascii;
    class       volScalarField;
    location    "16";
    object      gradTy;
}
// * * * * * * * * * * * * * * * * * * * * * * * * * * * * * * * * * * * * * //

dimensions      [0 -1 0 1 0 0 0];

internalField   nonuniform List<scalar> 
6300
(
998.233
994.828
991.811
989.434
987.941
987.562
988.508
990.964
995.08
1000.96
1008.67
1018.19
1029.47
1042.37
1056.69
-0.194382
-0.580703
-0.959435
-1.32467
-1.66926
-1.98453
-2.26012
-2.48413
-2.64372
-2.72623
-2.72078
-2.62034
-2.42389
-2.13799
-1.77728
-0.326696
-0.9763
-1.6141
-2.23075
-2.81472
-3.35168
-3.82418
-4.21175
-4.49177
-4.64129
-4.63994
-4.47366
-4.13894
-3.64624
-3.02129
-0.462783
-1.38369
-2.28993
-3.16951
-4.00717
-4.7833
-5.47318
-6.04692
-6.47031
-6.70725
-6.72403
-6.49541
-6.01197
-5.28677
-4.35866
-0.603531
-1.80572
-2.9924
-4.15017
-5.26112
-6.30111
-7.23829
-8.03239
-8.63523
-8.99333
-9.05347
-8.77194
-8.12671
-7.13011
-5.83695
-0.749152
-2.24328
-3.72376
-5.17762
-6.58604
-7.92171
-9.14644
-10.2091
-11.0449
-11.5773
-11.7246
-11.4122
-10.5928
-9.27002
-7.51738
-0.898938
-2.69448
-4.48169
-6.2505
-7.98365
-9.65321
-11.2166
-12.6126
-13.7578
-14.5464
-14.8552
-14.5593
-13.5622
-11.8397
-9.48395
-1.05105
-3.15399
-5.25802
-7.35899
-9.44479
-11.4908
-13.4542
-15.2667
-16.8273
-17.9953
-18.5905
-18.4074
-17.2568
-15.0426
-11.8619
-1.20233
-3.61238
-6.03736
-8.48262
-10.9457
-13.411
-15.8425
-18.1728
-20.2893
-22.0169
-23.1038
-23.2229
-22.015
-19.2119
-14.8554
-1.34819
-4.05584
-6.7964
-9.58842
-12.4442
-15.3649
-18.3318
-21.2926
-24.1401
-26.679
-28.5849
-29.3653
-28.3682
-24.9346
-18.8366
-1.48277
-4.46637
-7.50394
-10.6304
-13.8779
-17.2726
-20.8269
-24.5257
-28.2992
-31.9739
-35.1912
-37.2852
-37.1577
-33.3214
-24.5906
-1.59927
-4.82291
-8.12257
-11.5511
-15.1643
-19.0204
-23.1775
-27.6841
-32.5567
-37.7261
-42.9206
-47.4264
-49.6557
-46.6029
-34.1114
-1.69066
-5.10341
-8.61226
-12.2872
-16.2077
-20.4672
-25.1783
-30.4763
-36.5173
-43.453
-51.3386
-59.8437
-67.4355
-69.3232
-53.658
-1.75058
-5.28779
-8.93579
-12.7777
-16.9119
-21.4623
-26.5919
-32.5254
-39.5828
-48.2296
-59.1366
-73.1739
-90.9192
-109.596
-107.232
-1.77445
-5.36136
-9.06539
-12.9756
-17.2
-21.878
-27.2015
-33.4505
-41.0587
-50.7457
-63.804
-82.7958
-113.471
-170.908
-302.643
1070.91
1084.48
1098.52
1112.86
1127.33
1141.77
1156.03
1169.98
1183.51
1196.52
1208.93
1220.67
1231.69
1241.95
1251.4
1260.04
1267.84
1274.77
1280.85
1286.06
1290.4
1293.87
1296.48
1298.24
1299.14
1299.21
1298.45
1296.87
1294.48
1291.31
1287.35
1282.63
1277.16
1270.95
1264.02
1256.37
1248.02
1238.97
1229.25
1218.87
1207.83
1196.15
1183.85
1170.93
1157.41
1143.31
1128.63
1113.4
1097.62
1081.3
1064.46
1047.1
1029.24
1010.89
992.048
972.737
952.966
932.749
912.1
891.035
869.573
847.732
825.53
802.987
780.125
756.964
733.528
709.84
685.929
661.825
637.562
613.181
588.724
564.24
539.784
515.412
491.186
467.169
443.426
420.022
397.02
374.483
352.47
331.036
310.229
290.093
270.663
251.966
234.02
216.834
-1.39777
-1.03199
-0.660487
-0.297152
0.0464615
0.361807
0.643525
0.889203
1.09886
1.27433
1.41856
1.53514
1.62776
1.69997
1.75499
1.79559
1.8241
1.84246
1.85224
1.85475
1.85107
1.8421
1.82862
1.81133
1.79084
1.76773
1.74252
1.71574
1.68788
1.65944
1.63082
1.6024
1.57445
1.54712
1.52042
1.49422
1.46831
1.44237
1.41608
1.38915
1.36142
1.33288
1.30367
1.27412
1.24468
1.21585
1.18811
1.16181
1.13711
1.11393
1.09192
1.07052
1.04898
1.02651
1.00233
0.975834
0.946624
0.914572
0.879795
0.842602
0.803381
0.762478
0.720061
0.67601
0.629838
0.580679
0.527333
0.468366
0.402273
0.327653
0.243399
0.148854
0.0439181
-0.0708991
-0.194501
-0.325277
-0.461221
-0.600064
-0.739401
-0.876787
-1.0098
-1.13605
-1.25317
-1.35881
-1.45064
-1.52639
-1.58401
-1.62185
-1.63885
-1.63473
-2.36287
-1.72922
-1.0879
-0.463909
0.122429
0.656583
1.13
1.53946
1.88603
2.17375
2.40848
2.59686
2.74556
2.8608
2.94806
3.01199
3.05642
3.08447
3.09869
3.10114
3.09354
3.07734
3.05379
3.02398
2.98892
2.94953
2.90668
2.86125
2.81408
2.76597
2.7177
2.66991
2.62309
2.57751
2.5332
2.48992
2.44722
2.4045
2.36112
2.31651
2.27032
2.22249
2.1733
2.12334
2.07348
2.02469
1.97789
1.9338
1.89277
1.85468
1.81891
1.78441
1.7498
1.71355
1.67424
1.63071
1.58223
1.52863
1.47018
1.40758
1.34167
1.27324
1.20274
1.1301
1.05453
0.974515
0.887885
0.792007
0.684078
0.561473
0.422096
0.264674
0.0889705
-0.10414
-0.31271
-0.533869
-0.764063
-0.999307
-1.23544
-1.46829
-1.6938
-1.90799
-2.10696
-2.28675
-2.44339
-2.57291
-2.67159
-2.73634
-2.76512
-2.75731
-3.37861
-2.4376
-1.49052
-0.576596
0.273376
1.03865
1.70837
2.2801
2.75773
3.14927
3.46492
3.71548
3.91131
4.06168
4.17448
4.25621
4.31205
4.34616
4.36183
4.36175
4.34814
4.32291
4.28769
4.24393
4.19297
4.13603
4.07431
4.00901
3.94133
3.87249
3.80363
3.73576
3.66968
3.60582
3.54423
3.48451
3.42589
3.36732
3.30766
3.24589
3.18134
3.11383
3.04378
2.97219
2.9005
2.83041
2.76353
2.70115
2.64396
2.59185
2.54385
2.49825
2.45275
2.40481
2.35203
2.29248
2.22504
2.14945
2.06638
1.97714
1.88341
1.78679
1.68835
1.58824
1.48546
1.37772
1.26161
1.13286
0.986879
0.819315
0.62665
0.406704
0.158977
-0.115227
-0.412887
-0.729545
-1.05972
-1.39735
-1.73627
-2.07044
-2.39414
-2.70191
-2.98839
-3.24809
-3.47525
-3.66387
-3.80805
-3.90264
-3.94409
-3.93114
-4.46626
-3.15457
-1.84524
-0.597007
0.546475
1.55852
2.42807
3.15645
3.75359
4.23429
4.61529
4.91311
5.14272
5.31686
5.44587
5.5379
5.59921
5.63461
5.64787
5.64205
5.61972
5.5831
5.53411
5.47451
5.40586
5.32965
5.24734
5.16043
5.07052
4.97927
4.88836
4.7993
4.71331
4.63112
4.55281
4.47777
4.40473
4.33196
4.25749
4.17954
4.09686
4.00906
3.91672
3.82141
3.72548
3.63173
3.54291
3.46127
3.38808
3.32331
3.26557
3.21216
3.15942
3.10325
3.03975
2.96585
2.87976
2.78126
2.67163
2.55334
2.42949
2.30313
2.17651
2.05041
1.92369
1.79315
1.65367
1.49867
1.3209
1.11344
0.870623
0.58887
0.267239
-0.0924113
-0.485587
-0.905645
-1.3445
-1.79345
-2.24383
-2.68757
-3.11733
-3.52639
-3.90828
-4.25619
-4.56252
-4.81873
-5.01582
-5.14541
-5.20133
-5.1811
-5.6484
-3.86814
-2.11196
-0.466556
1.00889
2.28366
3.3511
4.22189
4.91721
5.46295
5.88552
6.20905
6.45408
6.63707
6.7706
6.86392
6.92376
6.95501
6.96147
6.94623
6.91199
6.86117
6.79593
6.71821
6.62976
6.53218
6.4271
6.3163
6.20175
6.0857
5.97053
5.85853
5.75161
5.65096
5.55681
5.46826
5.38334
5.29917
5.21245
5.12011
5.0199
4.91097
4.79408
4.67165
4.54745
4.42606
4.3121
4.20937
4.12018
4.04478
3.98118
3.92523
3.87116
3.81238
3.74259
3.65687
3.55247
3.42923
3.28949
3.13766
2.9793
2.81998
2.66405
2.51357
2.36752
2.22157
2.06818
1.89735
1.6978
1.4586
1.17076
0.828561
0.43035
-0.02122
-0.519479
-1.05457
-1.61467
-2.18738
-2.76087
-3.32474
-3.87023
-4.38992
-4.87702
-5.32409
-5.72189
-6.05867
-6.32071
-6.49419
-6.56816
-6.53768
-6.9473
-4.54689
-2.21898
-0.0911756
1.76048
3.30761
4.55763
5.54036
6.29657
6.86939
7.29874
7.61843
7.85519
8.02893
8.15362
8.23859
8.28988
8.31157
8.30676
8.27823
8.22861
8.16048
8.0762
7.97787
7.86727
7.74599
7.61562
7.47805
7.33565
7.19138
7.04865
6.91097
6.78139
6.66195
6.55324
6.45406
6.36137
6.27055
6.17604
6.07251
5.95602
5.82483
5.67991
5.52493
5.36588
5.2102
5.06558
4.93846
4.83291
4.74975
4.68622
4.63605
4.59012
4.53779
4.4688
4.37522
4.25274
4.10135
3.92517
3.73179
3.53087
3.33232
3.14413
2.9707
2.81158
2.66105
2.50815
2.3377
2.13211
1.87409
1.54947
1.14921
0.670585
0.117486
-0.500055
-1.16722
-1.86644
-2.57991
-3.29152
-3.98817
-4.66003
-5.30019
-5.90319
-6.46277
-6.96895
-7.40605
-7.75297
-7.98612
-8.08526
-8.04043
-8.38194
-5.12114
-2.03773
0.681968
2.95072
4.75959
6.14929
7.1853
7.94034
8.48279
8.87025
9.14762
9.34746
9.49184
9.59428
9.6622
9.69907
9.70672
9.68669
9.64105
9.57237
9.48352
9.37722
9.25572
9.12069
8.9734
8.81504
8.6473
8.47278
8.29538
8.12006
7.9523
7.79711
7.65806
7.5365
7.43108
7.3373
7.24778
7.15316
7.04415
6.91386
6.75902
6.58078
6.38461
6.17999
5.97898
5.79439
5.63702
5.51391
5.42696
5.37254
5.34127
5.31881
5.2877
5.23092
5.13564
4.99513
4.80964
4.58608
4.33722
4.07949
3.83017
3.6034
3.40763
3.2437
3.10432
2.97378
2.82905
2.64229
2.38585
2.03745
1.58303
1.0184
0.349313
-0.408854
-1.23338
-2.09739
-2.97482
-3.84344
-4.68699
-5.49522
-6.26371
-6.99164
-7.67808
-8.31527
-8.88308
-9.34884
-9.67085
-9.80947
-9.74429
-9.95649
-5.43991
-1.33272
2.10438
4.80302
6.81492
8.25006
9.23471
9.89016
10.3193
10.6002
10.7884
10.9196
11.0151
11.0846
11.1305
11.1503
11.1417
11.1035
11.037
10.9452
10.8317
10.7001
10.553
10.3918
10.2168
10.028
9.82632
9.61412
9.39645
9.1806
8.9756
8.78964
8.62903
8.4966
8.39138
8.30714
8.23245
8.15105
8.04652
7.90713
7.72699
7.50753
7.25655
6.98898
6.72422
6.48408
6.28634
6.14295
6.05744
6.02563
6.03388
6.06006
6.07464
6.04855
5.9613
5.80236
5.57284
5.2835
4.95551
4.6161
4.29562
4.01811
3.79881
3.64056
3.53497
3.45991
3.38099
3.25288
3.03012
2.67819
2.17563
1.5167
0.709495
-0.22201
-1.24259
-2.30892
-3.3823
-4.43134
-5.43654
-6.38751
-7.28549
-8.13968
-8.96419
-9.76134
-10.5069
-11.1516
-11.6195
-11.827
-11.7311
-11.6219
-5.16934
0.336985
4.58986
7.64363
9.70001
10.9986
11.7572
12.165
12.3683
12.463
12.5103
12.5422
12.5749
12.6082
12.6353
12.6417
12.6183
12.56
12.4686
12.3481
12.205
12.0444
11.8697
11.6818
11.479
11.2586
11.0195
10.7623
10.4939
10.2245
9.97051
9.74467
9.55846
9.41651
9.3205
9.26228
9.2258
9.18132
9.09815
8.95811
8.75065
8.47876
8.15144
7.79304
7.4331
7.11185
6.85654
6.68778
6.60974
6.62023
6.69987
6.81723
6.91934
6.95347
6.88943
6.71046
6.42142
6.03586
5.58953
5.12473
4.69852
4.34835
4.10142
3.961
3.92104
3.95103
4.00321
3.99923
3.85984
3.53532
2.99287
2.22806
1.2482
0.092665
-1.18631
-2.51067
-3.82514
-5.08264
-6.26441
-7.35631
-8.3705
-9.33058
-10.2898
-11.2817
-12.2761
-13.2087
-13.9432
-14.2815
-14.1316
-13.1344
-3.53669
3.8112
8.80177
11.9201
13.6756
14.5238
14.7839
14.733
14.5725
14.3926
14.2534
14.1624
14.1324
14.1394
14.1687
14.1746
14.1439
14.063
13.9405
13.7824
13.6019
13.4075
13.2042
12.9917
12.765
12.5148
12.2371
11.9255
11.5912
11.2448
10.9235
10.6412
10.4227
10.2689
10.1938
10.1847
10.2293
10.2659
10.2303
10.1048
9.86575
9.52847
9.08977
8.598
8.08497
7.64337
7.30085
7.10075
7.03333
7.11403
7.31034
7.59518
7.86076
7.99863
7.98192
7.77595
7.40788
6.87466
6.24908
5.57677
4.99091
4.52893
4.24969
4.13583
4.20549
4.40933
4.70545
4.9397
4.95535
4.70546
4.12959
3.24834
2.03919
0.584441
-1.0653
-2.72724
-4.35055
-5.8435
-7.22211
-8.43741
-9.53375
-10.523
-11.5686
-12.7987
-14.1346
-15.551
-16.8377
-17.4389
-17.1698
-13.4706
1.33521
10.6793
15.7096
18.1593
18.9584
18.8968
18.2592
17.4594
16.8057
16.2642
15.9279
15.6958
15.6375
15.6393
15.7369
15.761
15.7427
15.6268
15.4648
15.25
15.02
14.7844
14.5531
14.323
14.0862
13.8116
13.5047
13.1224
12.7073
12.2302
11.8213
11.4472
11.1951
11.009
10.9734
11.0311
11.2454
11.4557
11.4931
11.4163
11.1235
10.7254
10.1057
9.43479
8.63521
8.03342
7.54126
7.32385
7.24476
7.44247
7.79446
8.40192
8.98716
9.26745
9.348
9.07588
8.63323
7.84749
6.97693
5.90535
5.10589
4.44736
4.16075
4.0473
4.29757
4.73557
5.49758
6.19576
6.43401
6.34579
5.70679
4.74156
3.18459
1.35776
-0.92599
-2.99871
-5.06297
-6.76833
-8.41433
-9.68921
-10.8506
-11.6337
-12.5813
-14.1627
-15.8767
-18.0794
-20.7189
-21.849
-21.2509
-8.10632
14.0722
23.7587
26.3327
26.7748
25.4798
24.0987
21.9678
19.9752
18.8771
17.8402
17.452
16.9784
17.056
17.0007
17.4109
17.4083
17.4818
17.2567
17.0649
16.7392
16.446
16.1549
15.8998
15.664
15.4617
15.1545
14.8809
14.3663
13.9123
13.1174
12.6689
12.0775
11.8721
11.5323
11.6185
11.6516
12.2674
12.8942
12.9204
13.0385
12.5328
12.2414
11.1954
10.4567
8.90051
8.26551
7.38595
7.34768
7.05749
7.5487
7.9106
9.24059
10.5526
10.8238
11.2218
10.6213
10.3525
8.94236
7.9942
5.84199
5.01789
3.83018
3.82245
3.43495
4.11931
4.5952
6.38156
8.11407
8.38274
8.77917
7.7537
7.08685
4.71856
2.78903
-1.09054
-3.28231
-6.29215
-7.77852
-10.1409
-11.1043
-12.7122
-12.5073
-12.6812
-15.3355
-16.9148
-19.9789
-26.7732
-28.7474
-27.1293
24.9522
44.7981
47.0803
40.0257
37.8909
32.1245
30.3797
25.4765
21.202
20.8595
18.4814
19.0983
17.4666
18.6651
17.6911
19.6784
18.9451
19.65
18.8379
18.8571
18.1807
17.8683
17.4724
17.2179
16.956
16.9873
16.4483
16.6034
15.5221
15.6073
13.505
13.7211
12.1512
12.7417
11.4413
12.3394
11.4321
13.2727
15.1968
14.2144
15.5581
13.6328
14.8433
11.8416
12.6551
7.83853
8.84906
6.01845
7.73355
5.74434
7.84043
6.63202
10.1045
13.6161
12.1968
14.5329
11.6883
13.7148
9.37131
10.7447
3.86553
5.45293
1.51325
4.03047
1.27859
4.24073
2.56726
7.3426
12.1398
10.147
13.2596
9.2837
11.8818
5.62026
7.02797
-3.68591
-2.38818
-9.71542
-7.52752
-13.882
-11.5915
-17.1841
-12.8355
-9.20955
-18.0563
-15.8146
-16.5068
-39.7684
-40.8186
-36.2047
202.473
100.814
83.8463
46.6335
54.2363
32.9782
41.2088
28.0798
16.7669
25.7734
14.81
23.9828
13.8796
23.4029
14.1173
25.8638
18.4111
24.003
19.2222
21.6513
19.0981
19.411
18.5869
18.5471
17.8261
19.3344
16.7428
20.1067
14.9985
20.4528
10.5545
17.3458
9.1143
16.3347
8.1851
15.6602
7.25613
14.1581
21.6853
12.1593
22.7855
10.2175
23.5111
6.99462
22.9611
-1.61396
14.9643
-1.89439
13.4541
-1.45116
12.8911
-1.38652
10.9123
23.7806
8.16244
25.3047
5.74115
26.2501
1.56838
25.3793
-10.3024
13.8474
-10.1012
11.8264
-9.10553
11.0378
-8.7466
8.27248
25.9433
4.55969
27.9477
1.3474
29.4348
-4.52147
28.7223
-23.5776
10.9263
-26.8401
5.0249
-30.0717
-0.726512
-35.9712
-12.1226
12.2231
-36.7444
-10.4891
19.4657
-84.7476
-61.0455
-51.3894
198.761
180.118
162.509
145.881
130.166
115.29
101.172
87.7276
74.8714
62.5194
50.5887
38.9987
27.6708
16.5287
5.49729
-1.60759
-1.55066
-1.47034
-1.37143
-1.25897
-1.13773
-1.01178
-0.884373
-0.757813
-0.633575
-0.512401
-0.394444
-0.279407
-0.166668
-0.0553891
-2.70958
-2.61038
-2.4712
-2.30076
-2.10805
-1.90144
-1.68795
-1.47302
-1.26045
-1.05256
-0.850434
-0.654168
-0.463128
-0.276159
-0.0917606
-3.85869
-3.71005
-3.50332
-3.25232
-2.97102
-2.672
-2.36555
-2.0593
-1.7584
-1.46578
-1.1826
-0.908658
-0.642775
-0.383077
-0.127253
-5.07736
-4.86775
-4.57968
-4.23415
-3.85167
-3.44998
-3.0429
-2.64022
-2.24805
-1.86954
-1.5055
-1.15508
-0.816228
-0.486117
-0.161427
-6.39239
-6.10385
-5.71346
-5.25288
-4.7515
-4.2333
-3.71583
-3.21058
-2.72403
-2.2588
-1.81478
-1.38992
-0.980931
-0.58373
-0.193764
-7.83737
-7.44169
-6.91735
-6.31233
-5.66809
-5.01586
-4.3765
-3.76222
-3.17864
-2.62684
-2.10487
-1.60887
-1.13383
-0.674101
-0.223662
-9.45637
-8.90808
-8.20182
-7.4109
-6.59259
-5.78547
-5.01206
-4.2831
-3.60143
-2.96503
-2.36897
-1.80684
-1.27142
-0.755171
-0.250443
-11.3094
-10.5323
-9.57081
-8.53675
-7.50582
-6.52129
-5.6031
-4.75663
-3.97894
-3.26282
-2.59913
-1.97808
-1.38982
-0.824712
-0.273381
-13.4795
-12.3408
-11.0123
-9.65934
-8.37257
-7.19067
-6.12235
-5.16132
-4.29482
-3.50814
-2.78663
-2.1165
-1.48504
-0.880472
-0.291747
-16.0769
-14.3389
-12.4781
-10.7157
-9.13436
-7.74638
-6.53426
-5.4714
-4.53083
-3.68825
-2.9227
-2.21623
-1.55335
-0.920379
-0.304878
-19.2199
-16.4596
-13.8456
-11.5907
-9.70274
-8.12614
-6.79681
-5.65914
-4.6688
-3.7913
-2.99965
-2.27235
-1.59173
-0.942807
-0.312261
-22.9072
-18.4336
-14.8537
-12.0986
-9.95967
-8.25855
-6.86762
-5.69946
-4.69388
-3.80846
-3.01223
-2.28174
-1.59841
-0.946843
-0.313615
-26.462
-19.5138
-15.037
-11.99
-9.77871
-8.08068
-6.71559
-5.57713
-4.59876
-3.73636
-2.95904
-2.24395
-1.57331
-0.932529
-0.308967
-26.3363
-18.1223
-13.7903
-11.0456
-9.0844
-7.56975
-6.33686
-5.29464
-4.3876
-3.57916
-2.84358
-2.16168
-1.51833
-0.900986
-0.298687
-1.76441
-5.3304
-9.01099
-12.8934
-17.0832
-21.7174
-26.9846
-33.1606
-40.6754
-50.2484
-63.1904
-82.1476
-113.151
-171.841
-303.725
-1.7268
-5.21448
-8.80692
-12.5829
-16.6364
-21.0861
-26.0899
-31.8686
-38.7431
-47.1956
-57.9575
-72.0632
-90.4157
-110.188
-103.313
-1.66553
-5.02577
-8.47532
-12.0798
-15.9145
-20.0698
-24.6571
-29.8155
-35.7147
-42.5389
-50.4021
-59.029
-66.6935
-67.0392
-41.616
-1.58399
-4.77503
-8.03611
-11.4166
-14.9699
-18.7534
-22.8275
-27.2479
-32.0439
-37.1606
-42.3163
-46.663
-48.0529
-41.7852
-20.0642
-1.48642
-4.47563
-7.5139
-10.6335
-13.8652
-17.2351
-20.7573
-24.4194
-28.15
-31.7549
-34.7921
-36.3504
-34.73
-27.2624
-11.2953
-1.37748
-4.14214
-6.93516
-9.77253
-12.6646
-15.6108
-18.59
-21.5432
-24.3434
-26.7432
-28.2947
-28.2449
-25.4677
-18.6417
-7.12615
-1.26178
-3.78893
-6.32558
-8.8735
-11.4264
-13.9636
-16.4406
-18.7733
-20.8146
-22.3204
-22.9092
-22.0332
-19.0171
-13.2776
-4.85742
-1.14358
-3.4291
-5.70813
-7.97099
-10.1989
-12.3581
-14.3912
-16.2057
-17.6577
-18.5344
-18.5406
-17.3074
-14.4576
-9.775
-3.48773
-1.02653
-3.07376
-5.10187
-7.09271
-9.01915
-10.8401
-12.4937
-13.8897
-14.9002
-15.3529
-15.0327
-13.7042
-11.1709
-7.38668
-2.59594
-0.913535
-2.73166
-4.52148
-6.2591
-7.91263
-9.43813
-10.7751
-11.8414
-12.53
-12.7079
-12.2251
-10.9375
-8.75278
-5.6973
-1.98272
-0.806744
-2.40921
-3.97732
-5.48386
-6.89495
-8.16709
-9.24425
-10.0555
-10.5143
-10.5218
-9.97635
-8.79388
-6.93931
-4.46559
-1.54372
-0.707605
-2.11059
-3.47589
-4.77488
-5.97373
-7.03141
-7.89804
-8.51418
-8.81199
-8.7195
-8.16991
-7.11693
-5.55576
-3.54508
-1.21967
-0.616946
-1.83815
-3.02048
-4.1354
-5.15051
-6.02836
-6.72573
-7.19391
-7.38067
-7.23463
-6.71302
-5.79284
-4.48434
-2.84313
-0.974724
-0.535096
-1.59268
-2.61188
-3.56522
-4.42259
-5.15061
-5.71253
-6.06903
-6.18041
-6.01053
-5.53287
-4.73838
-3.64395
-2.29893
-0.786055
-0.461996
-1.37387
-2.249
-3.06166
-3.78447
-4.38819
-4.84195
-5.11434
-5.17544
-5.00014
-4.57271
-3.89218
-2.97757
-1.87128
-0.638517
-0.397311
-1.18056
-1.92948
-2.62047
-3.22904
-3.72987
-4.09729
-4.30634
-4.33459
-4.16482
-3.7883
-3.20851
-2.44429
-1.53145
-0.521719
-0.340518
-1.01109
-1.65019
-2.2365
-2.7484
-3.16419
-3.4626
-3.62387
-3.63125
-3.47304
-3.14502
-2.6529
-2.0142
-1.25891
-0.428322
-0.290985
-0.863483
-1.40755
-1.90419
-2.3345
-2.67999
-2.92313
-3.04826
-3.04288
-2.89916
-2.61569
-2.19907
-1.66505
-1.03864
-0.353018
-0.248028
-0.735614
-1.19783
-1.61792
-1.97949
-2.26686
-2.46558
-2.56327
-2.55056
-2.42231
-2.17879
-1.82677
-1.38006
-0.859497
-0.291886
-0.210953
-0.625361
-1.01736
-1.37229
-1.67601
-1.91527
-2.07819
-2.15492
-2.13846
-2.02549
-1.81725
-1.5202
-1.14635
-0.713015
-0.241977
-0.179083
-0.530669
-0.862619
-1.1622
-1.41728
-1.61669
-1.75064
-1.81129
-1.79337
-1.69482
-1.51736
-1.26697
-0.953949
-0.592708
-0.201038
-0.151782
-0.449611
-0.730354
-0.983012
-1.19722
-1.36356
-1.47398
-1.52221
-1.50427
-1.41893
-1.26813
-1.05722
-0.795025
-0.493531
-0.167322
-0.128461
-0.380416
-0.617589
-0.830521
-1.01038
-1.14925
-1.24049
-1.27907
-1.26196
-1.18849
-1.06062
-0.883085
-0.663387
-0.411514
-0.139463
-0.108589
-0.321485
-0.521654
-0.700994
-0.852
-0.968025
-1.04357
-1.0746
-1.05879
-0.995825
-0.88759
-0.738227
-0.554089
-0.343507
-0.116379
-0.0916885
-0.271392
-0.440181
-0.59114
-0.717906
-0.814899
-0.877571
-0.902646
-0.888349
-0.834595
-0.743119
-0.617514
-0.463153
-0.286987
-0.0972057
-0.0773392
-0.228876
-0.371087
-0.498085
-0.604484
-0.685602
-0.737672
-0.758031
-0.745308
-0.699556
-0.622344
-0.516766
-0.387358
-0.239921
-0.0812465
-0.0651711
-0.192835
-0.312555
-0.419332
-0.508614
-0.576475
-0.619789
-0.636386
-0.625199
-0.58636
-0.521266
-0.432564
-0.32408
-0.200658
-0.0679384
-0.0548622
-0.162311
-0.26301
-0.352725
-0.427616
-0.484393
-0.520456
-0.534033
-0.524288
-0.491395
-0.436579
-0.362098
-0.271173
-0.167852
-0.0568223
-0.0461338
-0.136472
-0.221091
-0.296411
-0.359197
-0.406691
-0.436735
-0.447874
-0.43945
-0.411652
-0.365546
-0.30305
-0.226873
-0.140396
-0.0475221
-0.0387452
-0.114604
-0.185629
-0.248799
-0.301395
-0.341106
-0.366139
-0.375299
-0.368062
-0.34462
-0.305892
-0.253502
-0.189724
-0.117384
-0.0397285
-0.0324894
-0.0960922
-0.15562
-0.20853
-0.252538
-0.285714
-0.306564
-0.314108
-0.307927
-0.288203
-0.255723
-0.211861
-0.15852
-0.0980611
-0.0331859
-0.0271891
-0.0804102
-0.130205
-0.17444
-0.211202
-0.238879
-0.256229
-0.262446
-0.257194
-0.240641
-0.213458
-0.1768
-0.13226
-0.0818046
-0.0276823
-0.0226922
-0.067107
-0.108652
-0.14554
-0.176175
-0.199213
-0.213625
-0.218746
-0.214308
-0.200461
-0.177773
-0.147211
-0.110106
-0.0680943
-0.0230414
-0.0188685
-0.0557965
-0.0903305
-0.120982
-0.146422
-0.165536
-0.177472
-0.181684
-0.177956
-0.16642
-0.147553
-0.122165
-0.0913603
-0.0564954
-0.0191157
-0.0156064
-0.0461483
-0.0747048
-0.100043
-0.121062
-0.136842
-0.146682
-0.150134
-0.147024
-0.137468
-0.121862
-0.10088
-0.0754333
-0.0466427
-0.0157813
-0.0128102
-0.0378785
-0.0613137
-0.0821021
-0.0993403
-0.112273
-0.120328
-0.12314
-0.12057
-0.112715
-0.0999055
-0.0826932
-0.0618284
-0.0382278
-0.0129337
-0.0103972
-0.0307426
-0.0497603
-0.0666264
-0.0806074
-0.0910912
-0.097614
-0.0998817
-0.0977843
-0.0914024
-0.0810057
-0.0670429
-0.050123
-0.0309888
-0.0104842
-0.00829579
-0.0245287
-0.0397007
-0.0531539
-0.0643027
-0.0726593
-0.0778544
-0.0796547
-0.0779738
-0.0728775
-0.0645819
-0.0534458
-0.0399549
-0.0247013
-0.00835683
-0.00644345
-0.0190515
-0.0308345
-0.0412813
-0.0499369
-0.0564225
-0.0604519
-0.0618448
-0.0605348
-0.0565738
-0.0501305
-0.0414837
-0.0310108
-0.0191711
-0.00648578
-0.00478475
-0.014147
-0.0228961
-0.0306523
-0.0370777
-0.041891
-0.0448802
-0.0459115
-0.0449363
-0.0419936
-0.037209
-0.0307896
-0.0230157
-0.0142281
-0.00481346
-0.00326997
-0.00966818
-0.0156472
-0.0209474
-0.0253377
-0.0286261
-0.0306678
-0.0313714
-0.030704
-0.0286924
-0.0254225
-0.021036
-0.0157244
-0.00972057
-0.0032885
-0.00185359
-0.00548043
-0.00886967
-0.0118741
-0.0143628
-0.016227
-0.0173844
-0.0177833
-0.0174051
-0.0162648
-0.0144113
-0.0119247
-0.00891375
-0.00551035
-0.00186417
-0.000492982
-0.00145765
-0.00235932
-0.00315893
-0.00382168
-0.00431855
-0.00462759
-0.00473487
-0.00463522
-0.0043325
-0.00383953
-0.0031776
-0.00237558
-0.00146869
-0.000496885
0.000852835
0.00252138
0.00408015
0.00546122
0.00660431
0.00745945
0.0079891
0.00816989
0.00799361
0.00746769
0.00661486
0.00547224
0.00408975
0.0025279
0.000855141
0.00222443
0.00657663
0.010643
0.0142466
0.0172302
0.0194634
0.020848
0.0213225
0.0208652
0.0194948
0.0172704
0.0142886
0.0106796
0.00660148
0.00223322
0.00366312
0.0108303
0.0175272
0.0234623
0.0283772
0.0320566
0.0343387
0.0351222
0.0343707
0.0321149
0.0284519
0.0235405
0.0175952
0.0108765
0.00367945
0.00521225
0.0154106
0.0249401
0.0333866
0.0403818
0.0456198
0.04887
0.0499876
0.0489205
0.0457121
0.0405
0.0335101
0.0250477
0.0154836
0.00523808
0.00691838
0.0204552
0.0331051
0.0443184
0.0536066
0.0605632
0.0648819
0.0663698
0.0649571
0.0607006
0.0537824
0.0445022
0.0332652
0.0205639
0.00695681
0.00883273
0.0261157
0.0422674
0.0565868
0.0684501
0.0773382
0.0828592
0.0847659
0.0829681
0.0775371
0.0687046
0.0568529
0.0424992
0.026273
0.00888838
0.0110126
0.0325617
0.0527021
0.0705604
0.0853593
0.0964511
0.103346
0.105734
0.103502
0.0967354
0.0857231
0.0709408
0.0530334
0.0327866
0.0110922
0.0135232
0.0399857
0.0647211
0.0866581
0.104842
0.118478
0.126962
0.129911
0.127183
0.118882
0.105359
0.0871985
0.0651917
0.0403051
0.0136362
0.016439
0.0486089
0.0786832
0.105361
0.127484
0.144082
0.15442
0.158029
0.154733
0.144654
0.128216
0.106127
0.0793496
0.0490612
0.016599
0.0198466
0.058687
0.0950032
0.127228
0.153961
0.174032
0.18655
0.190943
0.186992
0.174841
0.154996
0.12831
0.0959454
0.0593265
0.0200729
0.0238465
0.0705176
0.114164
0.152906
0.185064
0.209227
0.22432
0.22965
0.224945
0.210369
0.186525
0.154435
0.115495
0.0714211
0.0241661
0.0285558
0.084448
0.136731
0.183157
0.221717
0.250719
0.268868
0.275326
0.269751
0.252332
0.223781
0.185316
0.13861
0.085724
0.0290072
0.0341118
0.100885
0.163363
0.21887
0.265005
0.299746
0.321535
0.329354
0.322782
0.302024
0.26792
0.221918
0.166017
0.102686
0.0347491
0.0406749
0.120304
0.194835
0.261089
0.316205
0.357767
0.383901
0.393375
0.385661
0.360982
0.320321
0.265392
0.198583
0.122847
0.0415747
0.0484329
0.143262
0.232055
0.31104
0.376817
0.426498
0.457835
0.469329
0.460319
0.431038
0.382627
0.317115
0.237346
0.146853
0.0497033
0.0576053
0.17041
0.276084
0.370161
0.448604
0.507966
0.545546
0.559519
0.549053
0.514374
0.456806
0.378739
0.283554
0.17548
0.0593988
0.0684481
0.20251
0.328165
0.440138
0.533639
0.604558
0.649646
0.666679
0.654597
0.613604
0.545217
0.452247
0.338711
0.209668
0.0709802
0.081259
0.240445
0.389747
0.52294
0.634352
0.719085
0.773225
0.794053
0.780213
0.731854
0.650697
0.540034
0.404635
0.250551
0.084834
0.0963829
0.285244
0.462512
0.620864
0.75359
0.854851
0.919934
0.945496
0.929798
0.872877
0.776663
0.644996
0.483531
0.299513
0.101431
0.114218
0.338092
0.548411
0.736579
0.894674
1.01574
1.09408
1.12559
1.108
1.04118
0.927244
0.770648
0.578087
0.358239
0.121345
0.13522
0.400351
0.64969
0.873175
1.06147
1.20628
1.30075
1.33976
1.3204
1.24219
1.10744
0.921272
0.69159
0.428799
0.145285
0.159909
0.473575
0.768918
1.0342
1.25845
1.43179
1.54591
1.59448
1.57364
1.48247
1.32334
1.10211
0.828081
0.513748
0.174123
0.188871
0.559519
0.909015
1.22373
1.49077
1.69842
1.83659
1.89737
1.87571
1.76994
1.58237
1.31959
0.992559
0.616257
0.208948
0.222759
0.660147
1.07326
1.44635
1.76433
2.01329
2.18098
2.25752
2.23618
2.11421
1.89361
1.58169
1.19125
0.740295
0.251123
0.262291
0.777627
1.26531
1.70722
2.08582
2.38459
2.58867
2.68563
2.66651
2.52695
2.26825
1.8983
1.43196
0.89087
0.302374
0.308244
0.914307
1.48913
2.01204
2.46272
2.82164
3.07073
3.19432
3.18047
3.02241
2.72015
2.28183
1.72456
1.07436
0.364911
0.361434
1.07268
1.749
2.36701
2.90333
3.33495
3.63991
3.79845
3.79456
3.618
3.26652
2.74795
2.08169
1.299
0.44159
0.422695
1.25529
2.04935
2.77869
3.41663
3.93619
4.31076
4.51535
4.52853
4.33504
3.9289
3.31661
2.51965
1.57551
0.536164
0.492837
1.46466
2.39463
3.25383
4.01213
4.6381
5.09962
5.36515
5.406
5.19973
4.73442
4.01348
3.05982
1.91814
0.653634
0.572593
1.70309
2.78903
3.79903
4.69949
5.45419
6.02457
6.37093
6.45504
6.24427
5.71745
4.87194
3.73054
2.34605
0.800797
0.662544
1.97247
3.23614
4.42027
5.48804
6.39825
7.10504
7.5588
7.70883
7.50824
6.92174
5.93585
4.57005
2.88559
0.98708
0.763021
2.27395
3.73848
5.12228
6.38598
7.48354
8.36117
8.95756
9.20605
9.04017
8.40336
7.26354
5.63083
3.57375
1.22589
0.873992
2.60762
4.29687
5.90767
7.39927
8.7215
9.81256
10.5978
10.991
10.8991
10.2342
8.93349
6.98627
4.46384
1.53687
0.994924
2.97211
4.90969
6.77581
8.53012
10.1199
11.4762
12.5104
13.1127
13.1558
12.5067
11.0523
8.74113
5.63482
1.94977
1.12464
3.36408
5.57212
7.72156
9.77517
11.6805
13.3636
14.7228
15.6227
15.8931
15.3382
13.7662
11.0481
7.20769
2.51162
1.2612
3.77783
6.2752
8.73381
11.1232
13.3952
15.4758
17.254
18.5697
19.2034
18.8761
17.2757
14.1344
9.37473
3.30065
1.40177
4.20493
7.00516
9.79412
12.5525
15.2428
17.7979
20.1064
21.9903
23.181
23.2978
21.8554
18.3446
12.4545
4.4558
1.54259
4.63405
7.74289
10.8756
14.0292
17.184
20.2913
23.2534
25.8923
27.9042
28.8023
27.8712
24.207
16.9985
6.2449
1.67905
5.05105
8.46403
11.9424
15.505
19.1582
22.8855
26.6247
30.2295
33.4009
35.5769
35.7849
32.5306
24.0042
9.23967
1.80585
5.43958
9.13967
12.9509
16.9176
21.081
25.4712
30.0891
34.8676
39.5886
43.718
46.1027
44.5153
35.3417
14.8141
1.91732
5.78199
9.7381
13.8512
18.1935
22.8462
27.8985
33.442
39.5456
46.1869
53.0703
59.1788
61.7679
54.5636
26.7084
2.00795
6.06088
10.2275
14.5922
19.2539
24.3336
29.9848
36.4057
43.8499
52.6168
62.9606
74.6985
85.8211
88.126
56.3537
2.07284
6.26081
10.5791
15.127
20.024
25.4241
31.5363
38.6588
47.2354
57.9513
71.8824
90.645
115.997
145.353
142.204
2.10834
6.37017
10.7714
15.4191
20.4445
26.0199
32.3862
39.9019
49.1349
61.0527
77.4487
102.015
143.392
225.151
423.371
2.11248
6.38267
10.7925
15.449
20.4831
26.0662
32.4377
39.9521
49.1699
61.0438
77.3406
101.709
142.745
224.072
422.32
2.0852
6.29816
10.6422
15.2165
20.1402
25.5651
31.6954
38.8193
47.3602
57.9631
71.6268
89.8283
114.116
141.798
137.609
2.02834
6.1226
10.332
14.7414
19.4492
24.5739
30.2631
36.7022
44.1181
52.7565
62.7614
73.7204
83.1301
81.6554
41.1128
-16.6938
-13.613
-11.3018
-9.51107
-8.06642
-6.86091
-5.8272
-4.92067
-4.11023
-3.37317
-2.6922
-2.05356
-1.44587
-0.859322
-0.285092
-6.26317
-8.6836
-8.57856
-7.83058
-6.94949
-6.0809
-5.26427
-4.5058
-3.80105
-3.14243
-2.52181
-1.93134
-1.36367
-0.811933
-0.269607
-2.85049
-5.50795
-6.30174
-6.24248
-5.82381
-5.26474
-4.6609
-4.0536
-3.45981
-2.88528
-2.33046
-1.79326
-1.2704
-0.758002
-0.251959
-1.55133
-3.62648
-4.61726
-4.90392
-4.79558
-4.47965
-4.0599
-3.59198
-3.10517
-2.61442
-2.12685
-1.64522
-1.16984
-0.699654
-0.232831
-0.965728
-2.498
-3.42173
-3.83961
-3.91148
-3.7666
-3.49232
-3.14346
-2.75324
-2.34133
-1.9191
-1.49282
-1.06567
-0.638964
-0.212897
-0.657327
-1.79209
-2.57746
-3.01557
-3.17787
-3.14339
-2.9765
-2.72363
-2.41634
-2.07539
-1.71414
-1.34101
-0.961193
-0.577823
-0.192771
-0.473844
-1.32882
-1.9743
-2.38303
-2.58088
-2.61211
-2.52037
-2.34157
-2.1028
-1.82354
-1.51742
-1.19383
-0.859172
-0.517844
-0.172982
-0.354741
-1.011
-1.53556
-1.89692
-2.09958
-2.1662
-2.12467
-2.00113
-1.81735
-1.59032
-1.33283
-1.05433
-0.761773
-0.460315
-0.153959
-0.272592
-0.784653
-1.21011
-1.52102
-1.71272
-1.79538
-1.7859
-1.70251
-1.56192
-1.37823
-1.16282
-0.924594
-0.670547
-0.406184
-0.136018
-0.213441
-0.618435
-0.964212
-1.22789
-1.40157
-1.48853
-1.49845
-1.4436
-1.33641
-1.18818
-1.00862
-0.805837
-0.586477
-0.356079
-0.119376
-0.169489
-0.493335
-0.775318
-0.99724
-1.15064
-1.23517
-1.25597
-1.22103
-1.13938
-1.01986
-0.87056
-0.698581
-0.510067
-0.31035
-0.104156
-0.136045
-0.397301
-0.628126
-0.81417
-0.947506
-1.02607
-1.05218
-1.03089
-0.968637
-0.872218
-0.748238
-0.602802
-0.441434
-0.269116
-0.0904054
-0.110123
-0.322396
-0.512028
-0.667697
-0.782406
-0.853381
-0.881287
-0.869196
-0.821611
-0.743707
-0.640808
-0.518082