/*--------------------------------*- C++ -*----------------------------------*\
| =========                 |                                                 |
| \\      /  F ield         | OpenFOAM: The Open Source CFD Toolbox           |
|  \\    /   O peration     | Version:  5.x                                   |
|   \\  /    A nd           | Web:      www.OpenFOAM.org                      |
|    \\/     M anipulation  |                                                 |
\*---------------------------------------------------------------------------*/
FoamFile
{
    version     2.0;
    format      ascii;
    class       volScalarField;
    location    "16";
    object      gradTx;
}
// * * * * * * * * * * * * * * * * * * * * * * * * * * * * * * * * * * * * * //

dimensions      [0 -1 0 1 0 0 0];

internalField   nonuniform List<scalar> 
6300
(
-3.34082
-3.08404
-2.57392
-1.81772
-0.827125
0.38087
1.78293
3.34837
5.03849
6.80633
8.59753
10.3522
12.008
13.5049
14.7896
-3.59803
-3.3378
-2.82044
-2.05256
-1.04497
0.186357
1.61908
3.22324
4.96027
6.78249
8.6336
10.4504
12.1665
13.7165
15.0428
-4.11591
-3.84909
-3.31788
-2.52754
-1.48699
-0.209989
1.28333
2.96477
4.79638
6.72928
8.70342
10.649
12.4904
14.1515
15.5643
-4.90103
-4.62521
-4.07489
-3.25317
-2.1659
-0.82311
0.759012
2.55566
4.53072
6.63432
8.80123
10.9514
12.9939
14.8342
16.386
-5.96238
-5.67624
-5.1037
-4.24478
-3.10078
-1.676
0.0197126
1.96765
4.13605
6.47555
8.91526
11.3611
13.699
15.8048
17.5616
-7.31029
-7.01407
-6.41933
-5.5219
-4.31685
-2.80027
-0.972267
1.15871
3.56978
6.21608
9.02262
11.8782
14.6357
17.1239
19.1745
-8.95481
-8.65084
-8.03805
-7.10706
-5.84487
-4.23641
-2.26767
0.0692038
2.76782
5.79588
9.08042
12.4929
15.8412
18.8802
21.3531
-10.9037
-10.5968
-9.97535
-9.02385
-7.71956
-6.03325
-3.93165
-1.3825
1.63593
5.1187
9.00979
13.1712
17.3553
21.2022
24.2975
-13.1599
-12.8578
-12.243
-11.2938
-9.97668
-8.24579
-6.04361
-3.30395
0.0392531
4.03273
8.66832
13.8265
19.2059
24.2751
28.3302
-15.7184
-15.4319
-14.8456
-13.9322
-12.6479
-10.93
-8.69348
-5.82936
-2.20815
2.30417
7.80376
14.2601
21.3663
28.3618
33.9983
-18.5639
-18.306
-17.7756
-16.9417
-15.7532
-14.1333
-11.9713
-9.11226
-5.34711
-0.412107
5.98197
14.0432
23.6367
33.8067
42.2987
-21.6676
-21.453
-21.0096
-20.3061
-19.2901
-17.8791
-15.9467
-13.3016
-9.65634
-4.58789
2.49249
12.2936
25.33
40.9288
55.2268
-24.9861
-24.8293
-24.5038
-23.9834
-23.2224
-22.1465
-20.635
-18.4915
-15.3891
-10.776
-3.71827
7.3082
24.4601
49.351
77.3075
-28.4616
-28.3746
-28.1934
-27.9015
-27.4701
-26.8496
-25.9558
-24.6406
-22.633
-19.4092
-13.8982
-3.80334
15.8505
54.7064
120.585
-32.0244
-32.0145
-31.9937
-31.9595
-31.9071
-31.8265
-31.6982
-31.4824
-31.0933
-30.3298
-28.6626
-24.4744
-11.9618
33.038
223.872
15.7553
16.4204
16.884
17.1464
17.2147
17.1015
16.8231
16.3984
15.8466
15.187
14.4375
13.6144
12.732
11.8027
10.837
9.84386
8.83076
7.80397
6.76881
5.72975
4.69059
3.65459
2.6245
1.60268
0.591087
-0.408623
-1.39512
-2.36738
-3.32463
-4.2664
-5.19245
-6.10276
-6.99746
-7.87683
-8.74115
-9.59072
-10.4257
-11.2462
-12.052
-12.8429
-13.6186
-14.3785
-15.1224
-15.85
-16.5612
-17.2562
-17.9355
-18.5997
-19.2496
-19.8861
-20.5097
-21.1209
-21.7199
-22.3062
-22.8793
-23.438
-23.9809
-24.5067
-25.0137
-25.5006
-25.9662
-26.4094
-26.8292
-27.2247
-27.5947
-27.9377
-28.2518
-28.534
-28.7808
-28.9881
-29.1507
-29.2634
-29.3204
-29.3164
-29.2462
-29.1056
-28.8913
-28.6009
-28.2337
-27.7901
-27.2717
-26.6817
-26.0245
-25.3058
-24.5326
-23.7133
-22.8571
-21.9746
-21.0769
-20.1753
16.0341
16.71
17.1732
17.4254
17.4756
17.3388
17.0335
16.5807
16.0015
15.3161
14.5432
13.6994
12.7992
11.8547
10.8762
9.87233
8.85019
7.81579
6.77419
5.72966
4.68586
3.6459
2.61245
1.5878
0.573857
-0.427752
-1.41572
-2.38905
-3.34698
-4.28908
-5.21515
-6.12523
-7.01955
-7.89846
-8.76237
-9.61165
-10.4466
-11.2672
-12.0734
-12.8648
-13.6411
-14.4016
-15.1458
-15.8734
-16.5843
-17.2787
-17.957
-18.6201
-19.2689
-19.9043
-20.5273
-21.1384
-21.7377
-22.3251
-22.8997
-23.4603
-24.0054
-24.5333
-25.0424
-25.5311
-25.9982
-26.4427
-26.8639
-27.261
-27.6332
-27.9792
-28.2972
-28.5845
-28.8376
-29.0519
-29.2224
-29.3431
-29.408
-29.4112
-29.3473
-29.2115
-29.0003
-28.7113
-28.3435
-27.8973
-27.3745
-26.7781
-26.1127
-25.3839
-24.5989
-23.766
-22.8948
-21.9963
-21.0821
-20.1641
16.6083
17.3052
17.7658
17.9948
18.0055
17.818
17.456
16.9448
16.3088
15.5707
14.7505
13.8655
12.9298
11.9554
10.9517
9.9268
8.887
7.83774
6.78356
5.72833
4.67541
3.62766
2.58759
1.55734
0.538757
-0.466616
-1.45751
-2.43293
-3.39219
-4.33488
-5.26089
-6.1704
-7.06381
-7.94167
-8.80463
-9.65324
-10.4879
-11.3089
-12.1159
-12.9085
-13.6861
-14.4478
-15.1929
-15.9208
-16.6311
-17.3241
-18.0004
-18.6609
-19.3071
-19.9403
-20.5618
-21.1724
-21.7727
-22.3622
-22.9401
-23.5048
-24.0544
-24.5869
-25.1001
-25.5923
-26.0624
-26.5094
-26.9329
-27.3329
-27.7091
-28.0607
-28.3865
-28.684
-28.9497
-29.1787
-29.3653
-29.5027
-29.5841
-29.6025
-29.5515
-29.4257
-29.221
-28.9348
-28.5658
-28.1145
-27.5828
-26.9737
-26.2918
-25.5428
-24.7337
-23.8733
-22.9717
-22.0404
-21.0923
-20.1407
17.5128
18.2399
18.6916
18.8778
18.8202
18.5478
18.093
17.488
16.7626
15.943
15.0509
14.1039
13.1159
12.0977
11.0576
10.0024
8.93717
7.86652
6.79419
5.72348
4.6573
3.59819
2.54842
1.50996
0.484511
-0.526436
-1.52165
-2.50017
-3.46132
-4.40473
-5.33042
-6.23876
-7.13043
-8.00634
-8.86749
-9.71483
-10.5491
-11.3705
-12.1789
-12.9738
-13.7539
-14.518
-15.2648
-15.9932
-16.7027
-17.3934
-18.0661
-18.7223
-19.3638
-19.9929
-20.6116
-21.2213
-21.8228
-22.4158
-22.9992
-23.5708
-24.1279
-24.6678
-25.1876
-25.6853
-26.1594
-26.6094
-27.0356
-27.4389
-27.8199
-28.1792
-28.5162
-28.8291
-29.1142
-29.3663
-29.5785
-29.7428
-29.8506
-29.8933
-29.863
-29.7531
-29.5588
-29.2769
-28.9063
-28.4473
-27.9021
-27.2739
-26.5672
-25.7876
-24.9423
-24.0398
-23.0909
-22.1086
-21.1072
-20.1027
18.8066
19.5709
19.999
20.1114
19.9438
19.54
18.9458
18.204
17.3518
16.4193
15.43
14.4011
13.3453
12.2712
11.1852
10.0919
8.99494
7.89747
6.80227
5.71191
4.6288
3.55511
2.49282
1.44368
0.409271
-0.609006
-1.60993
-2.59251
-3.55602
-4.50013
-5.42496
-6.33113
-7.21974
-8.09222
-8.95021
-9.79525
-10.6286
-11.4507
-12.2616
-13.0601
-13.8446
-14.6129
-15.3629
-16.0927
-16.8013
-17.4885
-18.1555
-18.8044
-19.4383
-20.0604
-20.6741
-21.2818
-21.8848
-22.4831
-23.0749
-23.6572
-24.2261
-24.7773
-25.3068
-25.8119
-26.2908
-26.7434
-27.1712
-27.5764
-27.9617
-28.3294
-28.6804
-29.0137
-29.3259
-29.611
-29.8604
-30.064
-30.2104
-30.2887
-30.2887
-30.2019
-30.0224
-29.7466
-29.3735
-28.904
-28.3405
-27.6868
-26.9472
-26.127
-25.2327
-24.2727
-23.2582
-22.2037
-21.1265
-20.0461
20.5821
21.3852
21.7607
21.7479
21.4069
20.8058
20.0105
19.0786
18.056
16.9771
15.8655
14.7369
13.6004
12.4615
11.3229
10.1864
9.05321
7.92491
6.80313
5.68971
4.58655
3.49546
2.41812
1.35606
0.310683
-0.716662
-1.72472
-2.71236
-3.67871
-4.62333
-5.54639
-6.44881
-7.33224
-8.19894
-9.05152
-9.89252
-10.724
-11.5472
-12.3618
-13.1665
-13.9584
-14.7342
-15.49
-16.2227
-16.9303
-17.6125
-18.2706
-18.9081
-19.5294
-20.1399
-20.745
-21.3487
-21.9535
-22.5594
-23.164
-23.7627
-24.3494
-24.9175
-25.4611
-25.9759
-26.4596
-26.913
-27.3389
-27.7422
-28.1286
-28.5032
-28.8696
-29.2284
-29.5765
-29.9067
-30.208
-30.4669
-30.6681
-30.7967
-30.8389
-30.7838
-30.6242
-30.3561
-29.9792
-29.4955
-28.9087
-28.2231
-27.443
-26.5727
-25.6173
-24.5837
-23.483
-22.3312
-21.1501
-19.9652
22.9818
23.8146
24.0809
23.8564
23.244
22.3506
21.2716
20.0833
18.8411
17.5813
16.3253
15.0834
13.8589
12.651
11.4574
10.2757
9.10425
7.94273
6.79173
5.65254
4.52673
3.41584
2.32127
1.24427
0.186024
-0.852189
-1.86899
-2.86293
-3.83273
-4.77759
-5.69757
-6.59384
-7.46883
-8.32598
-9.16944
-10.0034
-10.8315
-11.6558
-12.4764
-13.2912
-14.0956
-14.8839
-15.6501
-16.3887
-17.096
-17.7709
-18.4155
-19.0347
-19.6358
-20.2272
-20.8176
-21.4138
-22.0202
-22.6374
-23.2615
-23.8853
-24.4992
-25.0928
-25.6567
-26.1841
-26.672
-27.1217
-27.5389
-27.9322
-28.3121
-28.6886
-29.0694
-29.4582
-29.8524
-30.2434
-30.6165
-30.9524
-31.2302
-31.4285
-31.5287
-31.5161
-31.3818
-31.1221
-30.7383
-30.2352
-29.6188
-28.895
-28.0682
-27.1408
-26.1142
-24.9913
-23.7809
-22.5006
-21.1787
-19.8511
26.2299
27.0591
27.1075
26.5232
25.4854
24.1623
22.6898
21.1653
19.6509
18.1797
16.7644
15.4046
14.093
12.8196
11.5745
10.3499
9.14078
7.94517
6.76312
5.59593
4.44525
3.31257
2.19899
1.10534
0.0324188
-1.01865
-2.04624
-3.04832
-4.02271
-4.96772
-5.88288
-6.76953
-7.63107
-8.47272
-9.30098
-10.1228
-10.9443
-11.7696
-12.5995
-13.4305
-14.2557
-15.0655
-15.8498
-16.5995
-17.308
-17.9728
-18.5967
-19.1873
-19.7558
-20.316
-20.8814
-21.464
-22.0714
-22.705
-23.3591
-24.022
-24.6781
-25.3106
-25.9046
-26.449
-26.939
-27.3771
-27.7729
-28.1413
-28.5002
-28.8673
-29.2576
-29.6796
-30.1328
-30.6058
-31.0779
-31.5215
-31.9062
-32.2014
-32.3805
-32.4235
-32.3194
-32.0662
-31.6691
-31.1377
-30.4831
-29.7148
-28.8381
-27.8516
-26.7492
-25.5246
-24.179
-22.7299
-21.2152
-19.6899
30.6911
31.4276
31.0447
29.8426
28.1372
26.1889
24.1825
22.2326
20.398
18.6972
17.1231
15.6561
14.2719
12.9472
11.6618
10.4014
9.15767
7.92787
6.71293
5.51536
4.3377
3.18166
2.0479
0.936436
-0.152752
-1.21897
-2.26032
-3.27364
-4.25502
-5.20087
-6.10926
-6.98138
-7.82192
-8.63871
-9.44182
-10.2425
-11.0514
-11.8768
-12.7208
-13.5783
-14.4377
-15.2836
-16.0994
-16.8696
-17.5827
-18.2336
-18.8258
-19.3713
-19.8878
-20.3969
-20.9204
-21.4783
-22.0845
-22.7428
-23.444
-24.1683
-24.8904
-25.5837
-26.2236
-26.792
-27.2805
-27.693
-28.0459
-28.3639
-28.6761
-29.0125
-29.3998
-29.856
-30.3843
-30.9692
-31.5798
-32.1753
-32.7106
-33.1412
-33.4279
-33.5424
-33.4715
-33.2173
-32.7929
-32.2173
-31.5108
-30.6907
-29.7655
-28.7292
-27.5601
-26.2316
-24.7262
-23.0534
-21.2668
-19.4587
36.994
37.4077
36.1607
33.8861
31.1381
28.2988
25.5936
23.1335
20.9524
19.0318
17.3273
15.7878
14.3651
13.0177
11.713
10.4287
9.15423
7.88895
6.63751
5.40594
4.19886
3.01851
1.86459
0.735348
-0.371087
-1.45519
-2.5148
-3.54499
-4.53856
-5.48795
-6.38789
-7.23868
-8.04695
-8.82438
-9.58617
-10.3501
-11.135
-11.9569
-12.8226
-13.7232
-14.6391
-15.545
-16.4144
-17.2218
-17.9468
-18.5787
-19.1222
-19.5966
-20.0305
-20.4567
-20.9097
-21.4227
-22.0225
-22.7188
-23.4951
-24.3174
-25.1442
-25.9332
-26.6454
-27.2499
-27.7309
-28.0947
-28.369
-28.5944
-28.8168
-29.0841
-29.4424
-29.9281
-30.5539
-31.2955
-32.1033
-32.9153
-33.6655
-34.2879
-34.723
-34.9278
-34.8871
-34.6131
-34.1342
-33.4851
-32.7019
-31.8174
-30.8525
-29.7976
-28.6005
-27.1928
-25.5142
-23.5405
-21.3491
-19.1148
46.3048
45.7783
42.7557
38.6106
34.2693
30.2149
26.6512
23.6322
21.1313
19.0548
17.2935
15.7512
14.3494
13.0264
11.7344
10.4416
9.13727
7.82987
6.53323
5.26107
4.02136
2.81715
1.64562
0.501301
-0.621669
-1.72677
-2.81171
-3.86914
-4.88572
-5.84628
-6.73731
-7.55717
-8.31639
-9.03251
-9.72736
-10.4275
-11.1651
-11.9739
-12.874
-13.8462
-14.8547
-15.8588
-16.8184
-17.6925
-18.4447
-19.051
-19.5177
-19.8801
-20.184
-20.4779
-20.8122
-21.2419
-21.8211
-22.5793
-23.4798
-24.4599
-25.4521
-26.3932
-27.2219
-27.8854
-28.3497
-28.6247
-28.7624
-28.8287
-28.8925
-29.0244
-29.3012
-29.7981
-30.5563
-31.5259
-32.6202
-33.744
-34.8042
-35.7037
-36.3493
-36.6664
-36.6381
-36.3037
-35.7201
-34.9457
-34.0381
-33.0598
-32.0686
-31.0706
-29.9437
-28.5439
-26.7267
-24.3408
-21.4928
-18.5675
61.0089
57.7423
50.9668
43.6168
36.9866
31.4233
26.9235
23.3844
20.6987
18.6233
16.9443
15.5117
14.2199
12.99
11.7566
10.471
9.12441
7.75504
6.39347
5.06925
3.79252
2.56857
1.38731
0.236387
-0.898082
-2.02747
-3.14832
-4.25213
-5.31358
-6.30474
-7.1892
-7.96298
-8.64786
-9.2712
-9.86084
-10.4511
-11.0924
-11.8595
-12.8214
-13.9165
-15.0766
-16.2366
-17.3456
-18.3384
-19.1525
-19.7243
-20.0631
-20.2478
-20.3515
-20.4408
-20.5773
-20.8453
-21.362
-22.2346
-23.3497
-24.5847
-25.8331
-27.0148
-28.036
-28.8074
-29.2407
-29.3521
-29.2585
-29.0661
-28.8698
-28.7559
-28.8424
-29.2916
-30.254
-31.5765
-33.0942
-34.6639
-36.174
-37.4846
-38.4484
-38.9018
-38.8294
-38.3526
-37.5801
-36.5978
-35.4758
-34.3202
-33.2943
-32.5284
-31.6797
-30.4956
-28.7579
-25.806
-21.7476
-17.5997
86.589
74.7581
60.005
47.5866
38.1678
31.0998
25.8122
21.9074
19.3871
17.6205
16.2401
15.069
14.0009
12.9586
11.8537
10.5878
9.1442
7.66881
6.19977
4.80891
3.48759
2.25839
1.08526
-0.0523008
-1.18186
-2.34054
-3.50949
-4.69615
-5.84267
-6.91686
-7.80045
-8.49678
-9.0679
-9.55839
-9.99337
-10.4011
-10.8386
-11.4644
-12.5768
-13.8935
-15.2982
-16.6878
-18.0398
-19.2413
-20.2094
-20.7327
-20.8304
-20.7316
-20.5398
-20.3356
-20.1526
-20.0905
-20.3899
-21.5407
-23.0468
-24.6898
-26.3098
-27.8673
-29.2095
-30.216
-30.5949
-30.3743
-29.8966
-29.3088
-28.7283
-28.1985
-27.8612
-28.0459
-29.4326
-31.3459
-33.4929
-35.6691
-37.8309
-39.7643
-41.282
-41.8941
-41.6025
-40.8272
-39.7417
-38.4508
-36.9617
-35.3932
-34.1455
-34.1053
-33.8982
-33.244
-32.5373
-28.8642
-22.1313
-15.6342
137.316
95.9804
65.6794
47.236
35.9631
28.212
22.7091
18.4361
16.9899
16.0614
15.2342
14.4775
13.7447
13.0167
12.1824
10.96
9.20952
7.57319
5.89325
4.44822
3.04982
1.86734
0.731844
-0.352606
-1.42381
-2.63887
-3.84522
-5.19798
-6.47596
-7.80343
-8.68134
-9.21087
-9.60398
-9.92545
-10.1651
-10.308
-10.3138
-10.3683
-12.0378
-13.7434
-15.5416
-17.1931
-18.9505
-20.48
-21.9064
-22.3537
-21.8806
-21.3492
-20.7457
-20.1996
-19.5535
-18.815
-18.1916
-20.3348
-22.5467
-24.8277
-26.8762
-29.0295
-30.866
-32.5278
-32.8122
-31.7662
-30.693
-29.5404
-28.5136
-27.3636
-26.1277
-25.069
-27.8526
-30.7784
-33.849
-36.6946
-39.8162
-42.6419
-45.4193
-46.1874
-45.0713
-43.7481
-42.1985
-40.5887
-38.5614
-36.0038
-33.2572
-35.9223
-36.7599
-36.0676
-40.5881
-36.3283
-22.175
-11.052
254.605
101.312
54.278
36.5593
28.6865
22.0864
17.8345
10.8941
13.8468
14.3559
14.1267
13.8512
13.4811
13.2279
13.0696
12.0926
9.11014
7.54018
5.2483
4.02022
2.30098
1.40854
0.304837
-0.672055
-1.45865
-2.94981
-3.97013
-5.80753
-7.03797
-9.33736
-10.0639
-10.1213
-10.2432
-10.4102
-10.4762
-10.4122
-9.71863
-6.94668
-11.4467
-13.46
-15.9962
-17.5456
-20.1891
-21.8671
-25.0131
-25.2999
-23.0145
-22.0702
-20.8687
-20.2073
-19.0874
-17.3737
-12.009
-19.0299
-21.9467
-25.3001
-27.2916
-30.6476
-32.7735
-36.8229
-36.9451
-33.197
-31.6036
-29.5903
-28.476
-26.6521
-24.1389
-16.5589
-26.0673
-30.0021
-34.5288
-37.3225
-42.227
-45.5888
-52.4494
-53.1935
-48.8379
-46.9944
-44.7416
-43.3276
-40.9242
-36.886
-24.576
-40.3704
-41.8242
-31.3845
-61.282
-58.0384
-17.8548
0.530947
-19.1933
-18.1484
-17.1481
-16.2062
-15.3336
-14.5377
-13.8233
-13.1925
-12.6457
-12.1822
-11.8002
-11.4978
-11.273
-11.1242
-11.0501
-19.1651
-18.1036
-17.0894
-16.1368
-15.2567
-14.4561
-13.7394
-13.1082
-12.5624
-12.1005
-11.7205
-11.4201
-11.197
-11.0493
-10.9759
-19.1068
-18.0112
-16.9688
-15.9949
-15.0999
-14.2905
-13.5699
-12.9385
-12.3949
-11.9368
-11.5611
-11.2648
-11.0453
-10.9002
-10.828
-19.0139
-17.8652
-16.7798
-15.7737
-14.8574
-14.036
-13.311
-12.6807
-12.1419
-11.6905
-11.3221
-11.0328
-10.8189
-10.678
-10.608
-18.8791
-17.6558
-16.5111
-15.4626
-14.5196
-13.6851
-12.9572
-12.3314
-11.8014
-11.361
-11.004
-10.725
-10.5197
-10.3847
-10.3177
-18.6911
-17.3675
-16.1462
-15.0457
-14.0732
-13.2273
-12.5013
-11.8859
-11.3713
-10.9479
-10.6077
-10.3435
-10.15
-10.0232
-9.96041
-18.4321
-16.9769
-15.6602
-14.5006
-13.5
-12.6494
-11.9345
-11.3396
-10.8496
-10.4517
-10.1351
-9.89115
-9.71349
-9.5975
-9.54022
-18.0739
-16.4475
-15.0168
-13.7964
-12.7767
-11.9357
-11.2476
-10.688
-10.2359
-9.87418
-9.58968
-9.37244
-9.21522
-9.113
-9.06264
-17.5697
-15.7223
-14.163
-12.8914
-11.8746
-11.0689
-10.4321
-9.92893
-9.53157
-9.21929
-8.9769
-8.7936
-8.66182
-8.57652
-8.53461
-16.8368
-14.7089
-13.0213
-11.7314
-10.7613
-10.033
-9.48296
-9.06387
-8.74208
-8.49438
-8.30494
-8.16313
-8.06185
-7.99656
-7.96455
-15.7196
-13.2551
-11.4816
-10.2517
-9.40592
-8.81865
-8.40277
-8.10139
-7.8784
-7.71109
-7.58526
-7.49201
-7.4258
-7.38323
-7.36239
-13.9065
-11.1101
-9.39802
-8.38765
-7.79198
-7.43285
-7.20798
-7.06044
-6.95893
-6.88624
-6.83292
-6.79378
-6.766
-6.74809
-6.73929
-10.7436
-7.88078
-6.61267
-6.10885
-5.9414
-5.91272
-5.93576
-5.97339
-6.01057
-6.04195
-6.06631
-6.08409
-6.09626
-6.10376
-6.10732
-4.82694
-3.05662
-3.06296
-3.4936
-3.95198
-4.34081
-4.64889
-4.8867
-5.06793
-5.20459
-5.3062
-5.37995
-5.4311
-5.46329
-5.47883
6.83302
3.54422
0.911113
-0.850555
-2.03207
-2.8496
-3.43222
-3.85655
-4.1698
-4.40223
-4.57389
-4.69836
-4.78484
-4.83942
-4.86582
-35.2997
-35.3613
-35.4898
-35.6964
-36.0003
-36.4325
-37.0425
-37.9131
-39.1919
-41.1692
-44.5079
-51.0539
-67.2367
-120.507
-347.098
-38.2345
-38.3576
-38.614
-39.0261
-39.6326
-40.4963
-41.72
-43.476
-46.0694
-50.0778
-56.6857
-68.5249
-91.7311
-139.732
-227.622
-41.0841
-41.2614
-41.6302
-42.221
-43.0863
-44.3104
-46.0279
-48.4574
-51.9644
-57.1812
-65.2309
-78.1024
-99.007
-131.255
-169.181
-43.8106
-44.0324
-44.4923
-45.2254
-46.2909
-47.7818
-49.8414
-52.6907
-56.6722
-62.3172
-70.4275
-82.101
-98.4062
-118.834
-137.076
-46.3833
-46.6382
-47.1649
-47.9991
-49.2002
-50.8584
-53.1067
-56.1377
-60.225
-65.7415
-73.1496
-82.8829
-94.9423
-107.931
-117.64
-48.779
-49.0553
-49.6239
-50.5182
-51.7922
-53.5252
-55.8284
-58.8513
-62.7851
-67.8523
-74.257
-82.0493
-90.8329
-99.305
-104.945
-50.9829
-51.2696
-51.8569
-52.7737
-54.0654
-55.7962
-58.0504
-60.9322
-64.5583
-69.0343
-74.401
-80.5271
-86.9396
-92.6461
-96.1663
-52.9879
-53.2751
-53.861
-54.7689
-56.0339
-57.7037
-59.8365
-62.4963
-65.7411
-69.5978
-74.0177
-78.8059
-83.5366
-87.5053
-89.8322
-54.7935
-55.0734
-55.6418
-56.516
-57.7214
-59.2898
-61.2567
-63.6543
-66.4989
-69.7701
-73.3785
-77.1246
-80.6626
-83.5045
-85.114
-56.4048
-56.6713
-57.2102
-58.0333
-59.1567
-60.5992
-62.3779
-64.5017
-66.9603
-69.7082
-72.6438
-75.5877
-78.272
-80.3595
-81.5134
-57.8312
-58.08
-58.5813
-59.342
-60.3706
-61.6752
-63.2595
-65.1167
-67.2209
-69.5161
-71.9032
-74.2309
-76.2957
-77.8628
-78.714
-59.0848
-59.3134
-59.7724
-60.4646
-61.3927
-62.557
-63.9516
-65.5601
-67.3489
-69.26
-71.2039
-73.0568
-74.6651
-75.8632
-76.5056
-60.1797
-60.3869
-60.8015
-61.4235
-62.251
-63.2788
-64.4951
-65.8783
-67.392
-68.981
-70.5677
-72.0525
-73.3192
-74.2494
-74.7434
-61.1307
-61.3164
-61.6868
-62.2396
-62.9702
-63.8696
-64.9229
-66.1059
-67.3828
-68.7036
-70.0024
-71.1996
-72.207
-72.9385
-73.3241
-61.9528
-62.1175
-62.4453
-62.9324
-63.5722
-64.3537
-65.2605
-66.2682
-67.3433
-68.4414
-69.5076
-70.4784
-71.2863
-71.8678
-72.1726
-62.6606
-62.8055
-63.0933
-63.5192
-64.0756
-64.7509
-65.528
-66.3838
-67.2877
-68.2013
-69.0791
-69.8703
-70.5229
-70.9893
-71.2326
-63.2677
-63.3944
-63.6452
-64.0154
-64.4967
-65.0773
-65.7409
-66.466
-67.2253
-67.9861
-68.7107
-69.3584
-69.8888
-70.2657
-70.4616
-63.7869
-63.8969
-64.1144
-64.4344
-64.8487
-65.346
-65.9111
-66.5243
-67.162
-67.7961
-68.3956
-68.9279
-69.3612
-69.6677
-69.8266
-64.2298
-64.3248
-64.5125
-64.7878
-65.1432
-65.5678
-66.0478
-66.5658
-67.1011
-67.6301
-68.1273
-68.5662
-68.9218
-69.1723
-69.3019
-64.6066
-64.6884
-64.8497
-65.0858
-65.3895
-65.7511
-66.1581
-66.5951
-67.0445
-67.4863
-67.8994
-68.2623
-68.5552
-68.7609
-68.8671
-64.9267
-64.9968
-65.1349
-65.3367
-65.5957
-65.9029
-66.2475
-66.616
-66.9932
-67.3625
-67.7062
-68.0071
-68.2491
-68.4187
-68.506
-65.1981
-65.258
-65.376
-65.548
-65.7682
-66.0289
-66.3202
-66.6307
-66.9475
-67.2563
-67.5428
-67.7928
-67.9933
-68.1335
-68.2056
-65.4279
-65.479
-65.5794
-65.7258
-65.9128
-66.1336
-66.3797
-66.6412
-66.9071
-67.1657
-67.4048
-67.6129
-67.7794
-67.8956
-67.9553
-65.6222
-65.6656
-65.751
-65.8753
-66.0339
-66.2207
-66.4284
-66.6486
-66.872
-67.0885
-67.2883
-67.4618
-67.6003
-67.6969
-67.7465
-65.7863
-65.8232
-65.8957
-66.0011
-66.1353
-66.2932
-66.4685
-66.6539
-66.8415
-67.023
-67.1901
-67.3349
-67.4504
-67.5308
-67.5721
-65.9247
-65.956
-66.0175
-66.1067
-66.2203
-66.3537
-66.5015
-66.6576
-66.8153
-66.9675
-67.1074
-67.2285
-67.3249
-67.3919
-67.4263
-66.0414
-66.068
-66.12
-66.1956
-66.2916
-66.4042
-66.5289
-66.6603
-66.7928
-66.9205
-67.0378
-67.1391
-67.2197
-67.2757
-67.3044
-66.1397
-66.1622
-66.2063
-66.2701
-66.3513
-66.4464
-66.5515
-66.6621
-66.7736
-66.8809
-66.9793
-67.0641
-67.1316
-67.1785
-67.2025
-66.2224
-66.2414
-66.2787
-66.3327
-66.4013
-66.4816
-66.5702
-66.6634
-66.7572
-66.8475
-66.9301
-67.0013
-67.0578
-67.0971
-67.1172
-66.2919
-66.308
-66.3395
-66.3852
-66.4432
-66.511
-66.5858
-66.6644
-66.7434
-66.8193
-66.8888
-66.9486
-66.9961
-67.029
-67.0459
-66.3502
-66.3638
-66.3905
-66.4292
-66.4782
-66.5355
-66.5987
-66.6651
-66.7317
-66.7956
-66.8541
-66.9045
-66.9444
-66.9721
-66.9863
-66.3991
-66.4106
-66.4332
-66.466
-66.5075
-66.556
-66.6094
-66.6655
-66.7218
-66.7758
-66.8251
-66.8676
-66.9012
-66.9246
-66.9365
-66.4399
-66.4497
-66.4689
-66.4967
-66.5319
-66.5731
-66.6184
-66.6659
-66.7135
-66.7592
-66.8009
-66.8368
-66.8652
-66.885
-66.895
-66.4739
-66.4822
-66.4986
-66.5223
-66.5522
-66.5872
-66.6257
-66.6661
-66.7066
-66.7454
-66.7808
-66.8112
-66.8353
-66.852
-66.8606
-66.5021
-66.5092
-66.5232
-66.5434
-66.569
-66.5989
-66.6318
-66.6663
-66.7008
-66.7339
-66.764
-66.79
-66.8105
-66.8248
-66.832
-66.5253
-66.5315
-66.5435
-66.5609
-66.5829
-66.6086
-66.6368
-66.6664
-66.696
-66.7244
-66.7503
-66.7725
-66.7901
-66.8023
-66.8086
-66.5443
-66.5497
-66.5601
-66.5751
-66.5942
-66.6164
-66.6409
-66.6665
-66.6921
-66.7166
-66.739
-66.7582
-66.7735
-66.784
-66.7894
-66.5596
-66.5643
-66.5734
-66.5866
-66.6033
-66.6227
-66.6441
-66.6665
-66.6889
-66.7104
-66.73
-66.7468
-66.7601
-66.7693
-66.774
-66.5717
-66.5758
-66.5839
-66.5956
-66.6104
-66.6277
-66.6467
-66.6666
-66.6864
-66.7055
-66.7228
-66.7377
-66.7495
-66.7577
-66.7619
-66.5809
-66.5846
-66.5919
-66.6025
-66.6159
-66.6315
-66.6486
-66.6666
-66.6845
-66.7017
-66.7174
-66.7308
-66.7415
-66.7488
-66.7526
-66.5875
-66.5909
-66.5977
-66.6074
-66.6198
-66.6342
-66.65
-66.6666
-66.6832
-66.699
-66.7135
-66.7259
-66.7357
-66.7425
-66.746
-66.5917
-66.5949
-66.6013
-66.6106
-66.6223
-66.6359
-66.6509
-66.6666
-66.6823
-66.6973
-66.711
-66.7228
-66.7321
-66.7385
-66.7418
-66.5936
-66.5968
-66.603
-66.612
-66.6234
-66.6367
-66.6513
-66.6666
-66.6819
-66.6965
-66.7099
-66.7213
-66.7304
-66.7366
-66.7398
-66.5933
-66.5965
-66.6027
-66.6118
-66.6233
-66.6366
-66.6513
-66.6666
-66.682
-66.6967
-66.71
-66.7215
-66.7306
-66.7369
-66.7401
-66.5908
-66.5941
-66.6006
-66.6099
-66.6218
-66.6356
-66.6507
-66.6666
-66.6825
-66.6977
-66.7115
-66.7234
-66.7328
-66.7393
-66.7427
-66.5859
-66.5895
-66.5964
-66.6063
-66.6189
-66.6336
-66.6497
-66.6666
-66.6835
-66.6997
-66.7144
-66.727
-66.737
-66.744
-66.7475
-66.5787
-66.5825
-66.59
-66.6009
-66.6146
-66.6306
-66.6482
-66.6666
-66.685
-66.7026
-66.7187
-66.7325
-66.7434
-66.7509
-66.7548
-66.5688
-66.573
-66.5814
-66.5934
-66.6087
-66.6265
-66.6461
-66.6666
-66.6871
-66.7067
-66.7246
-66.7399
-66.7521
-66.7605
-66.7648
-66.5559
-66.5607
-66.5701
-66.5838
-66.6011
-66.6212
-66.6434
-66.6665
-66.6897
-66.7119
-66.7322
-66.7496
-66.7633
-66.7729
-66.7777
-66.5396
-66.5452
-66.556
-66.5716
-66.5914
-66.6145
-66.6399
-66.6665
-66.6931
-66.7186
-66.7418
-66.7617
-66.7775
-66.7885
-66.7941
-66.5196
-66.526
-66.5385
-66.5566
-66.5795
-66.6062
-66.6356
-66.6664
-66.6972
-66.7268
-66.7537
-66.7768
-66.7951
-66.8078
-66.8143
-66.495
-66.5025
-66.5171
-66.5382
-66.5649
-66.5961
-66.6304
-66.6663
-66.7023
-66.7368
-66.7682
-66.7952
-66.8166
-66.8314
-66.839
-66.4654
-66.4741
-66.4912
-66.5159
-66.5472
-66.5838
-66.624
-66.6661
-66.7084
-66.7489
-66.7858
-66.8175
-66.8427
-66.8601
-66.869
-66.4296
-66.4399
-66.46
-66.4891
-66.5259
-66.5689
-66.6163
-66.6659
-66.7157
-66.7634
-66.807
-66.8444
-66.8741
-66.8947
-66.9052
-66.3867
-66.3988
-66.4225
-66.4568
-66.5003
-66.5511
-66.607
-66.6656
-66.7244
-66.7809
-66.8324
-66.8767
-66.9119
-66.9362
-66.9487
-66.3354
-66.3497
-66.3777
-66.4182
-66.4696
-66.5296
-66.5958
-66.6652
-66.7349
-66.8017
-66.8628
-66.9154
-66.9571
-66.986
-67.0008
-66.2742
-66.2911
-66.3242
-66.3721
-66.4329
-66.504
-66.5823
-66.6646
-66.7472
-66.8266
-66.8992
-66.9616
-67.0112
-67.0456
-67.0632
-66.2013
-66.2213
-66.2604
-66.3171
-66.389
-66.4732
-66.5661
-66.6637
-66.7619
-66.8562
-66.9425
-67.0168
-67.0759
-67.1168
-67.1378
-66.1145
-66.1381
-66.1844
-66.2515
-66.3367
-66.4364
-66.5466
-66.6625
-66.7791
-66.8913
-66.9941
-67.0827
-67.1531
-67.202
-67.227
-66.0113
-66.0392
-66.0939
-66.1733
-66.2742
-66.3924
-66.5231
-66.6608
-66.7995
-66.933
-67.0555
-67.1612
-67.2453
-67.3036
-67.3335
-65.8887
-65.9217
-65.9864
-66.0803
-66.1997
-66.3398
-66.4948
-66.6584
-66.8234
-66.9825
-67.1286
-67.2548
-67.3552
-67.4251
-67.4609
-65.7432
-65.7821
-65.8585
-65.9695
-66.1107
-66.2767
-66.4607
-66.655
-66.8513
-67.041
-67.2154
-67.3663
-67.4865
-67.5701
-67.613
-65.5707
-65.6166
-65.7067
-65.8377
-66.0047
-66.2011
-66.4193
-66.6502
-66.8839
-67.1101
-67.3185
-67.4991
-67.6432
-67.7435
-67.795
-65.3663
-65.4203
-65.5265
-65.6809
-65.8781
-66.1105
-66.3691
-66.6434
-66.9216
-67.1916
-67.4408
-67.6572
-67.8302
-67.9508
-68.0127
-65.1243
-65.1878
-65.3127
-65.4946
-65.7271
-66.0017
-66.3081
-66.6338
-66.9652
-67.2876
-67.5859
-67.8456
-68.0535
-68.1987
-68.2734
-64.8384
-64.9128
-65.0593
-65.273
-65.5468
-65.871
-66.2336
-66.6203
-67.015
-67.4002
-67.7578
-68.07
-68.3205
-68.4957
-68.5859
-64.5007
-64.5877
-64.7592
-65.0098
-65.3315
-65.7136
-66.1423
-66.6012
-67.0714
-67.532
-67.9612
-68.3371
-68.6397
-68.8518
-68.9611
-64.1026
-64.204
-64.4041
-64.6971
-65.0743
-65.5238
-66.03
-66.5743
-67.1344
-67.6857
-68.2015
-68.6553
-69.0216
-69.2792
-69.4121
-63.6341
-63.7519
-63.9845
-64.326
-64.767
-65.2945
-65.8914
-66.5363
-67.2036
-67.8639
-68.4851
-69.034
-69.4792
-69.7931
-69.9554
-63.0838
-63.22
-63.4893
-63.8858
-64.3997
-65.0171
-65.7195
-66.4828
-67.2777
-68.0693
-68.8187
-69.4849
-70.0279
-70.4122
-70.6115
-62.439
-62.5956
-62.9059
-63.3641
-63.9604
-64.6807
-65.5052
-66.4074
-67.354
-68.3039
-69.2101
-70.0214
-70.6866
-71.1598
-71.4059
-61.6855
-61.8644
-62.2198
-62.7464
-63.4351
-64.272
-65.2368
-66.3013
-67.4279
-68.569
-69.6674
-70.6593
-71.4788
-72.0651
-72.3712
-60.8077
-61.0107
-61.4149
-62.0161
-62.8068
-63.7745
-64.8993
-66.1521
-67.4918
-68.8636
-70.1986
-71.4169
-72.4327
-73.165
-73.5491
-59.7891
-60.0174
-60.4732
-61.1543
-62.0558
-63.1678
-64.4729
-65.9426
-67.5335
-69.1836
-70.811
-72.315
-73.5837
-74.5066
-74.9936
-58.6119
-58.8661
-59.3751
-60.1396
-61.1585
-62.427
-63.9322
-65.649
-67.534
-69.5195
-71.509
-73.3766
-74.9746
-76.1508
-76.7763
-57.2583
-57.5378
-58.0996
-58.9481
-60.0881
-61.5218
-63.2445
-65.2385
-67.4646
-69.8525
-72.2915
-74.6255
-76.6585
-78.1773
-78.9933
-55.7106
-56.0137
-56.625
-57.5542
-58.8137
-60.4159
-62.3685
-64.667
-67.2829
-70.1501
-73.147
-76.0833
-78.6993
-80.6919
-81.7769
-53.9524
-54.2755
-54.9298
-55.9311
-57.3013
-59.0667
-61.2525
-63.8748
-66.9268
-70.3576
-74.0444
-77.7634
-81.1731
-83.8368
-85.3138
-51.97
-52.3075
-52.9938
-54.0517
-55.5146
-57.4255
-59.8333
-62.7844
-66.3077
-70.3872
-74.9194
-79.6584
-84.1647
-87.8057
-89.8763
-49.7532
-50.0972
-50.7999
-51.8911
-53.4168
-55.4395
-58.0368
-61.2966
-65.3023
-70.1023
-75.6508
-81.7148
-87.7572
-92.865
-95.8766
-47.2977
-47.638
-48.3361
-49.4289
-50.9741
-53.0544
-55.7803
-59.2907
-63.7455
-69.2976
-76.0241
-83.7861
-91.9988
-99.3797
-103.968
-44.606
-44.9303
-45.5986
-46.6525
-48.1598
-50.221
-52.979
-56.6291
-61.4266
-67.6773
-75.6783
-85.5442
-96.8179
-107.833
-115.246
-41.6893
-41.9838
-42.5933
-43.5614
-44.9609
-46.9039
-49.5582
-53.1707
-58.0987
-64.8415
-74.0374
-86.3246
-101.816
-118.789
-131.671
-38.5682
-38.8188
-39.3392
-40.1709
-41.3847
-43.093
-45.4722
-48.7987
-53.5104
-60.302
-70.2498
-84.8797
-105.785
-132.584
-157.043
-35.2732
-35.4665
-35.869
-36.5152
-37.4651
-38.8164
-40.7284
-43.4648
-47.4779
-53.5708
-63.2108
-79.0766
-105.662
-148.005
-199.398
-31.8441
-31.9692
-32.2297
-32.6488
-33.2668
-34.1507
-35.4121
-37.2445
-40.0012
-44.3764
-51.8484
-65.8293
-94.5958
-157.141
-277.442
-28.3285
-28.3779
-28.4805
-28.6445
-28.8842
-29.2228
-29.6994
-30.3823
-31.4008
-33.0316
-35.9661
-42.3143
-60.0723
-126.166
-439.028
-24.7787
-24.7499
-24.6889
-24.5879
-24.4329
-24.1993
-23.8437
-23.2872
-22.3756
-20.7816
-17.7133
-10.8761
8.01779
76.1748
391.583
-21.2492
-21.1446
-20.9253
-20.5691
-20.0364
-19.2606
-18.1279
-16.4388
-13.8244
-9.55597
-2.07832
12.1892
41.8971
106.813
231.772
-17.7926
-17.6191
-17.2569
-16.673
-15.8091
-14.5699
-12.7986
-10.2332
-6.42239
-0.559422
8.84101
24.5318
51.326
95.7523
158.744
22.0303
8.99389
3.75518
1.04044
-0.605798
-1.69797
-2.46199
-3.01403
-3.42056
-3.72238
-3.94582
-4.10834
-4.22161
-4.2933
-4.32805
13.929
8.53298
4.58792
2.01749
0.306051
-0.87889
-1.72715
-2.34915
-2.8121
-3.15873
-3.41712
-3.60612
-3.73844
-3.82245
-3.86326
9.57469
7.0644
4.46603
2.398
0.852274
-0.293618
-1.14941
-1.79469
-2.28441
-2.65634
-2.93657
-3.14322
-3.28878
-3.38158
-3.42677
6.9636
5.65693
3.97582
2.41576
1.12083
0.0901981
-0.71786
-1.34824
-1.8385
-2.2176
-2.5071
-2.72273
-2.87572
-2.97376
-3.02162
5.25985
4.50946
3.4015
2.2494
1.20583
0.319449
-0.409693
-0.999079
-1.46978
-1.84107
-2.1289
-2.34572
-2.50081
-2.60074
-2.64969
4.07716
3.61027
2.8578
2.00764
1.18167
0.439499
-0.198573
-0.732336
-1.17006
-1.52249
-1.80001
-2.01154
-2.16418
-2.26311
-2.31174
3.21866
2.90935
2.38194
1.74905
1.09931
0.487255
-0.0598904
-0.532278
-0.92958
-1.25591
-1.51692
-1.71826
-1.86482
-1.96039
-2.00753
2.57494
2.35988
1.97929
1.50216
0.990776
0.489927
0.0268785
-0.38436
-0.738374
-1.03468
-1.27525
-1.463
-1.60085
-1.69128
-1.73605
2.08054
1.92534
1.64367
1.27903
0.874916
0.466344
0.077668
-0.276178
-0.587236
-0.852144
-1.07027
-1.24238
-1.3698
-1.45388
-1.49564
1.6939
1.57861
1.36565
1.08332
0.762142
0.428941
0.104269
-0.197708
-0.468142
-0.702092
-0.89722
-1.05278
-1.16884
-1.24584
-1.28421
1.38731
1.2997
1.13579
0.914569
0.657712
0.38561
0.11511
-0.14114
-0.374381
-0.578992
-0.751649
-0.890587
-0.995003
-1.06463
-1.09943
1.14155
1.07376
0.94573
0.770554
0.563864
0.341163
0.116054
-0.10055
-0.3005
-0.478076
-0.629487
-0.752365
-0.845317