/*--------------------------------*- C++ -*----------------------------------*\
| =========                 |                                                 |
| \\      /  F ield         | OpenFOAM: The Open Source CFD Toolbox           |
|  \\    /   O peration     | Version:  5.x                                   |
|   \\  /    A nd           | Web:      www.OpenFOAM.org                      |
|    \\/     M anipulation  |                                                 |
\*---------------------------------------------------------------------------*/
FoamFile
{
    version     2.0;
    format      ascii;
    class       volScalarField;
    location    "16";
    object      T;
}
// * * * * * * * * * * * * * * * * * * * * * * * * * * * * * * * * * * * * * //

dimensions      [0 0 0 1 0 0 0];

internalField   nonuniform List<scalar> 
6300
(
9.98297
9.95021
9.92129
9.89873
9.88494
9.88219
9.89256
9.91785
9.95952
10.0186
10.0957
10.1906
10.3027
10.4307
10.5728
9.98168
9.94636
9.91493
9.88995
9.87388
9.86905
9.8776
9.90143
9.94207
10.0006
10.0777
10.1733
10.2867
10.4166
10.5611
9.97909
9.9386
9.9021
9.87224
9.85155
9.8425
9.84735
9.86816
9.90665
9.96409
10.0412
10.1382
10.2542
10.388
10.5372
9.97515
9.92683
9.88265
9.84533
9.81758
9.80201
9.80112
9.81719
9.85223
9.90781
9.98492
10.0838
10.2039
10.3437
10.5006
9.96983
9.91092
9.85631
9.80885
9.77141
9.74683
9.73789
9.74723
9.77724
9.82995
9.90675
10.0083
10.134
10.2822
10.4501
9.96308
9.89072
9.8228
9.76233
9.71236
9.67599
9.65635
9.65655
9.67953
9.72794
9.80385
9.90839
10.0414
10.2011
10.3839
9.95485
9.86606
9.78183
9.7053
9.63969
9.5884
9.55496
9.54304
9.55635
9.5984
9.67226
9.78001
9.92212
10.0968
10.2997
9.9451
9.83683
9.73316
9.63732
9.55269
9.48293
9.43202
9.40429
9.40437
9.43701
9.50675
9.61721
9.77017
9.96431
10.1942
9.93383
9.80298
9.67667
9.55812
9.45079
9.35858
9.28588
9.23771
9.2198
9.23849
9.30045
9.41186
9.57698
9.79598
10.0625
9.92105
9.76458
9.61242
9.46767
9.33377
9.21471
9.11517
9.04084
8.99859
8.99668
9.04467
9.15275
9.32987
9.58008
9.89711
9.90686
9.72186
9.54074
9.36635
9.20191
9.05128
8.91924
8.81186
8.737
8.70491
8.72876
8.82455
9.00962
9.29729
9.68575
9.8914
9.67525
9.46234
9.25506
9.05622
8.86926
8.69863
8.55032
8.4326
8.3572
8.34084
8.40705
8.58672
8.91365
9.40529
9.87488
9.6254
9.37829
9.13532
8.89862
8.67088
8.45569
8.25817
8.08586
7.95039
7.87034
7.87603
8.01651
8.36523
9.00353
9.85759
9.57318
9.29009
9.00932
8.73206
8.45991
8.19507
7.9408
7.70226
7.48814
7.31407
7.21017
7.23801
7.52718
8.33213
9.83987
9.51965
9.19958
8.87977
8.56038
8.24163
7.92386
7.60767
7.29421
6.9858
6.68761
6.41255
6.19812
6.17331
6.85888
10.7137
10.8482
10.9874
11.1296
11.2732
11.4165
11.5582
11.6969
11.8315
11.961
12.0846
12.2016
12.3115
12.4138
12.5082
12.5944
12.6723
12.7416
12.8024
12.8544
12.8978
12.9326
12.9588
12.9764
12.9855
12.9862
12.9787
12.963
12.9392
12.9075
12.8681
12.821
12.7664
12.7044
12.6351
12.5587
12.4753
12.3849
12.2878
12.1841
12.0738
11.9571
11.8341
11.705
11.57
11.429
11.2824
11.1301
10.9724
10.8093
10.6409
10.4674
10.2889
10.1054
9.91715
9.72413
9.52651
9.32444
9.11807
8.90755
8.69306
8.47478
8.2529
8.02763
7.79916
7.56771
7.33353
7.09685
6.85796
6.61717
6.37483
6.13133
5.88711
5.64265
5.3985
5.15522
4.9134
4.67369
4.43672
4.20313
3.97356
3.7486
3.52886
3.31486
3.1071
2.90599
2.71188
2.52503
2.34563
2.17375
10.7045
10.8413
10.983
11.1275
11.2734
11.4188
11.5624
11.7027
11.8387
11.9694
12.094
12.2118
12.3223
12.4251
12.5199
12.6064
12.6844
12.7539
12.8147
12.8668
12.9102
12.9449
12.9709
12.9884
12.9974
12.998
12.9903
12.9744
12.9505
12.9186
12.879
12.8317
12.7769
12.7147
12.6452
12.5687
12.485
12.3945
12.2973
12.1933
12.0828
11.966
11.8428
11.7135
11.5783
11.4371
11.2903
11.1378
10.9799
10.8167
10.6482
10.4746
10.2959
10.1123
9.92382
9.73062
9.53281
9.33053
9.12392
8.91316
8.69841
8.47986
8.25769
8.03212
7.80334
7.57157
7.33702
7.09995
6.86062
6.61932
6.37642
6.13228
5.88737
5.64215
5.39718
5.15303
4.91032
4.66969
4.4318
4.1973
3.96684
3.74106
3.52054
3.30585
3.09748
2.89587
2.70138
2.51429
2.33477
2.16292
10.6858
10.8276
10.9742
11.1236
11.2741
11.4237
11.5711
11.7147
11.8535
11.9865
12.113
12.2323
12.3441
12.4478
12.5433
12.6304
12.7088
12.7785
12.8394
12.8915
12.9349
12.9695
12.9953
13.0126
13.0213
13.0216
13.0135
12.9973
12.973
12.9407
12.9007
12.853
12.7979
12.7353
12.6655
12.5886
12.5046
12.4138
12.3161
12.2118
12.101
11.9837
11.8602
11.7305
11.5949
11.4533
11.3061
11.1533
10.9951
10.8316
10.6628
10.4889
10.3099
10.126
9.93719
9.74364
9.54545
9.34274
9.13566
8.9244
8.70913
8.49003
8.2673
8.04115
7.81175
7.57933
7.34408
7.10622
6.86601
6.62372
6.3797
6.1343
5.88798
5.64123
5.39461
5.14871
4.90418
4.66169
4.42193
4.1856
3.95336
3.72588
3.5038
3.28769
3.07808
2.87546
2.6802
2.4926
2.31285
2.14106
10.6572
10.8067
10.9612
11.1183
11.2758
11.4319
11.585
11.7335
11.8764
12.0129
12.1421
12.2637
12.3772
12.4823
12.5788
12.6666
12.7455
12.8156
12.8766
12.9288
12.972
13.0064
13.032
13.0489
13.0572
13.057
13.0484
13.0316
13.0067
12.9739
12.9333
12.8851
12.8293
12.7662
12.6959
12.6184
12.534
12.4426
12.3445
12.2396
12.1283
12.0104
11.8863
11.756
11.6197
11.4776
11.3298
11.1765
11.0178
10.8538
10.6846
10.5103
10.3309
10.1466
9.9573
9.76324
9.56446
9.3611
9.15333
8.94131
8.72524
8.50532
8.28175
8.05473
7.82444
7.59106
7.35478
7.11579
6.8743
6.63055
6.38486
6.13758
5.88915
5.64007
5.39092
5.14235
4.89504
4.64971
4.40709
4.16793
3.93297
3.7029
3.4784
3.26011
3.04861
2.84441
2.64795
2.45956
2.27947
2.10777
10.6182
10.7788
10.9444
11.1121
11.2796
11.4445
11.6052
11.7603
11.9086
12.0495
12.1823
12.3066
12.4223
12.5291
12.6268
12.7155
12.795
12.8654
12.9266
12.9788
13.0218
13.0559
13.0811
13.0975
13.1051
13.1043
13.095
13.0774
13.0518
13.0182
12.9768
12.9278
12.8713
12.8074
12.7364
12.6583
12.5731
12.4811
12.3823
12.2768
12.1646
12.046
11.9211
11.79
11.6529
11.51
11.3614
11.2074
11.048
10.8834
10.7136
10.5388
10.359
10.1741
9.98423
9.78949
9.58995
9.38572
9.17699
8.96394
8.74679
8.52576
8.30107
8.07291
7.84146
7.60688
7.36931
7.12888
6.88575
6.64011
6.39223
6.14244
5.89116
5.63893
5.38635
5.13412
4.88299
4.63375
4.38721
4.14419
3.90548
3.67184
3.44403
3.22272
3.00858
2.80218
2.60403
2.41454
2.23397
2.06243
10.5679
10.7437
10.9243
11.1063
11.2868
11.4631
11.6335
11.7966
11.9515
12.0976
12.2344
12.362
12.4801
12.5887
12.6878
12.7774
12.8575
12.9283
12.9896
13.0416
13.0844
13.1181
13.1427
13.1584
13.1653
13.1636
13.1533
13.1348
13.1081
13.0735
13.0311
12.9811
12.9236
12.8589
12.787
12.708
12.6221
12.5293
12.4296
12.3232
12.2102
12.0906
11.9646
11.8324
11.6942
11.5503
11.4007
11.2457
11.0856
10.9203
10.7499
10.5745
10.3941
10.2086
10.0181
9.82255
9.62205
9.41673
9.20676
8.99238
8.77383
8.55138
8.32528
8.09573
7.86291
7.62692
7.38786
7.14576
6.90072
6.65282
6.40227
6.14936
5.89449
5.63822
5.38121
5.12424
4.86815
4.61384
4.36221
4.11418
3.87062
3.63237
3.40024
3.17499
2.95736
2.74803
2.54763
2.35665
2.17544
2.00415
10.5052
10.7014
10.9021
11.1028
11.2997
11.4902
11.6722
11.8447
12.007
12.1587
12.3
12.4308
12.5514
12.6618
12.7622
12.8528
12.9335
13.0045
13.0659
13.1177
13.1601
13.1931
13.217
13.2318
13.2377
13.2349
13.2235
13.2038
13.1758
13.1399
13.0962
13.0449
12.9863
12.9205
12.8475
12.7676
12.6808
12.5871
12.4865
12.3792
12.265
12.1442
12.017
11.8834
11.7438
11.5985
11.4476
11.2915
11.1304
10.9643
10.7933
10.6173
10.4364
10.2503
10.0591
9.86263
9.661
9.45431
9.24278
9.0267
8.80638
8.58216
8.35435
8.12318
7.88881
7.65131
7.41067
7.16682
6.9197
6.66928
6.41564
6.15901
5.89977
5.63851
5.37596
5.11303
4.85069
4.59
4.33199
4.07769
3.82807
3.58405
3.34649
3.11624
2.89414
2.68101
2.47762
2.28466
2.10261
1.93168
10.4289
10.6527
10.8799
11.1045
11.322
11.5293
11.7247
11.9074
12.0774
12.2349
12.3804
12.5143
12.6372
12.7492
12.8508
12.9421
13.0233
13.0945
13.1557
13.2072
13.249
13.2813
13.3042
13.3179
13.3226
13.3185
13.3057
13.2844
13.2549
13.2173
13.1721
13.1193
13.0592
12.9921
12.918
12.8371
12.7493
12.6547
12.5532
12.4447
12.3293
12.2071
12.0782
11.9429
11.8016
11.6545
11.502
11.3445
11.1822
11.0153
10.8436
10.6672
10.4859
10.2994
10.1075
9.91006
9.70711
9.49876
9.28526
9.06701
8.84445
8.61803
8.38816
8.15515
7.91914
7.68014
7.43802
7.19252
6.94336
6.6903
6.43326
6.17234
5.9079
5.64057
5.37121
5.10089
4.83082
4.56224
4.29638
4.03442
3.77742
3.52637
3.28217
3.04573
2.81798
2.59991
2.39257
2.19693
2.01374
1.84334
10.3376
10.599
10.8614
11.1164
11.3587
11.5854
11.7952
11.9884
12.1658
12.3284
12.4774
12.6138
12.7383
12.8516
12.9541
13.046
13.1275
13.1986
13.2596
13.3105
13.3515
13.3828
13.4045
13.4169
13.4202
13.4144
13.3998
13.3767
13.3453
13.3058
13.2586
13.204
13.1422
13.0736
12.9983
12.9163
12.8276
12.7321
12.6296
12.52
12.4033
12.2794
12.1486
12.0111
11.8674
11.7181
11.5635
11.4043
11.2407
11.0728
10.9007
10.7242
10.5428
10.3561
10.1637
9.96534
9.7609
9.5505
9.3345
9.11344
8.88797
8.65877
8.42642
8.19134
7.95369
7.7134
7.47015
7.2234
6.97255
6.717
6.45639
6.19067
5.92014
5.64549
5.36778
5.08836
4.80874
4.5305
4.25512
3.98395
3.71817
3.45877
3.20666
2.96268
2.72784
2.50335
2.29064
2.09124
1.90642
1.7368
10.2298
10.5439
10.8533
11.1466
11.418
11.6656
11.8897
12.0921
12.2752
12.4413
12.5924
12.7301
12.8556
12.9695
13.0725
13.1648
13.2463
13.3173
13.3778
13.4279
13.4679
13.4979
13.5182
13.529
13.5305
13.5228
13.5062
13.4809
13.4471
13.4053
13.3557
13.2988
13.235
13.1647
13.088
13.0049
12.9155
12.8193
12.7162
12.6056
12.4875
12.3616
12.2284
12.0881
11.9413
11.7889
11.6317
11.4702
11.3051
11.1364
10.9641
10.7879
10.6071
10.4209
10.2284
10.0293
9.82316
9.61021
9.39093
9.16612
8.93677
8.70394
8.46852
8.23112
7.99195
7.75084
7.50722
7.26014
7.00842
6.75091
6.48682
6.21585
5.93824
5.65476
5.36677
5.07604
4.78464
4.49459
4.20776
3.92569
3.64967
3.38066
3.11938
2.86645
2.62275
2.38977
2.16954
1.96454
1.7772
1.60872
10.1051
10.4956
10.8681
11.2082
11.5116
11.7794
12.0152
12.2236
12.4091
12.5758
12.7266
12.864
12.9892
13.1031
13.2063
13.2987
13.3803
13.451
13.5108
13.5599
13.5985
13.6269
13.6454
13.6543
13.6538
13.644
13.625
13.5971
13.5605
13.5157
13.4631
13.4034
13.3371
13.2648
13.1866
13.1027
13.0128
12.9166
12.8132
12.702
12.5825
12.4544
12.3182
12.1741
12.0233
11.8667
11.7058
11.5414
11.3744
11.205
11.0331
10.8581
10.6791
10.4945
10.3028
10.1031
9.89511
9.67893
9.45522
9.22523
8.99046
8.75274
8.51339
8.27336
8.03291
7.79182
7.54917
7.30347
7.05253
6.7942
6.5271
6.25053
5.9647
5.67046
5.36964
5.06463
4.75853
4.454
4.15347
3.85866
3.57104
3.29136
3.02004
2.75688
2.5022
2.25782
2.02647
1.81238
1.62079
1.45416
9.96711
10.4732
10.9295
11.3226
11.6564
11.9391
12.1801
12.3878
12.5699
12.7328
12.8803
13.0152
13.1388
13.2522
13.3553
13.4481
13.5298
13.6002
13.6591
13.7068
13.7436
13.77
13.7864
13.7931
13.7903
13.7781
13.7565
13.7256
13.6856
13.6371
13.5806
13.5173
13.4479
13.3731
13.2933
13.2088
13.1191
13.0239
12.9215
12.8102
12.6895
12.559
12.4189
12.2699
12.1133
11.9506
11.7846
11.6163
11.4471
11.2771
11.1064
10.9341
10.759
10.5781
10.3884
10.1889
9.97867
9.75837
9.52843
9.2911
9.0483
8.80376
8.5591
8.31612
8.07467
7.83495
7.5954
7.35425
7.10721
6.85001
6.58093
6.29844
6.0032
5.69554
5.37846
5.05474
4.7301
4.40758
4.09089
3.78125
3.48092
3.18998
2.90892
2.63508
2.36678
2.10708
1.85852
1.62778
1.42842
1.26532
9.83573
10.5223
11.0817
11.5224
11.8748
12.1585
12.3931
12.5887
12.7583
12.9119
13.0519
13.1825
13.3031
13.4159
13.5191
13.6134
13.6955
13.7658
13.8233
13.8692
13.9035
13.9273
13.9411
13.9454
13.9403
13.9257
13.9012
13.8672
13.823
13.7698
13.7077
13.6398
13.5661
13.4887
13.4068
13.3221
13.2334
13.1415
13.0423
12.9319
12.8108
12.6769
12.5327
12.3762
12.212
12.0394
11.8664
11.6922
11.5209
11.3499
11.182
11.014
10.8471
10.6742
10.4881
10.2901
10.0766
9.8516
9.61217
9.36477
9.10857
8.85486
8.60233
8.35658
8.11385
7.87777
7.64388
7.41342
7.17645
6.92288
6.65402
6.36466
6.05953
5.73415
5.39679
5.04611
4.69856
4.35274
4.0181
3.69038
3.37726
3.07435
2.78737
2.50526
2.21895
1.94029
1.66488
1.398
1.18381
1.02915
9.80498
10.7546
11.4047
11.8493
12.1919
12.4487
12.6621
12.8272
12.9694
13.1103
13.2371
13.3642
13.4784
13.5933
13.6953
13.7963
13.878
13.9498
14.0042
14.0481
14.0783
14.0989
14.1095
14.1111
14.1036
14.0874
14.0596
14.0233
13.973
13.9153
13.8429
13.7706
13.6894
13.6106
13.524
13.4412
13.3522
13.2693
13.1794
13.0686
12.9503
12.8096
12.6638
12.4938
12.3224
12.1287
11.9499
11.764
11.5941
11.4182
11.2574
11.0923
10.9438
10.7891
10.6049
10.4134
10.1911
9.96542
9.70727
9.45099
9.16514
8.90412
8.63571
8.39257
8.14337
7.91734
7.68731
7.48188
7.26949
7.01767
6.75652
6.45352
6.14494
5.78991
5.43424
5.03293
4.66445
4.28174
3.93532
3.57843
3.25884
2.93574
2.65877
2.38145
2.06007
1.76879
1.45894
1.09232
0.853471
0.722737
10.3348
11.4183
12.0233
12.3229
12.6326
12.801
13.0007
13.0983
13.1823
13.3291
13.4216
13.5645
13.6524
13.7892
13.8729
14.007
14.0744
14.1588
14.2001
14.2463
14.2671
14.2847
14.2906
14.2898
14.2794
14.2654
14.2302
14.1993
14.1334
14.082
13.9778
13.9142
13.8091
13.7435
13.6356
13.5689
13.4621
13.4069
13.3463
13.2162
13.122
12.9496
12.8295
12.6131
12.4651
12.1962
12.0434
11.8126
11.6756
11.4648
11.3388
11.1467
11.0492
10.9465
10.7321
10.5808
10.3104
10.1259
9.7996
9.57967
9.18588
8.96391
8.6326
8.43719
8.13943
7.96259
7.69522
7.56027
7.41924
7.12582
6.91921
6.55034
6.29717
5.84655
5.53735
4.9724
4.65079
4.15843
3.86755
3.41274
3.14543
2.73067
2.53066
2.32107
1.85782
1.624
1.33475
0.602632
0.367439
0.305052
1.99294
1.80632
1.62997
1.46336
1.30585
1.15669
1.01509
0.880224
0.751243
0.627309
0.507599
0.391305
0.277642
0.165844
0.0551581
1.98228
1.79604
1.62021
1.45425
1.29747
1.14912
1.00835
0.874327
0.746186
0.623079
0.504176
0.388669
0.275774
0.16473
0.0547877
1.96079
1.77531
1.60056
1.43593
1.28067
1.13394
0.994857
0.862537
0.736087
0.614638
0.497351
0.383416
0.272054
0.162511
0.0540503
1.92809
1.74383
1.57079
1.40823
1.25531
1.11109
0.974592
0.844867
0.720977
0.602028
0.487167
0.375585
0.266512
0.159206
0.0529525
1.88361
1.70111
1.5305
1.37089
1.22125
1.08049
0.947546
0.821351
0.700918
0.585322
0.473699
0.365243
0.259199
0.154849
0.0515052
1.82654
1.64647
1.47919
1.32355
1.17828
1.04209
0.913734
0.792062
0.676016
0.564637
0.457057
0.352484
0.250187
0.149484
0.049724
1.75577
1.57903
1.41623
1.26583
1.12622
0.995829
0.873229
0.757139
0.646438
0.540146
0.437403
0.337444
0.23958
0.143174
0.0476299
1.6698
1.49764
1.34085
1.1973
1.06492
0.94177
0.826204
0.716818
0.612443
0.5121
0.414959
0.320306
0.227511
0.136002
0.0452507
1.56664
1.40087
1.25219
1.11761
0.994365
0.88012
0.772988
0.671477
0.574409
0.480846
0.390024
0.301307
0.214152
0.128071
0.0426211
1.44361
1.28699
1.14943
1.02657
0.914801
0.811344
0.714142
0.621685
0.532864
0.446844
0.362977
0.280745
0.199714
0.119508
0.0397831
1.29705
1.15406
1.03195
0.924425
0.826914
0.736306
0.650541
0.568251
0.488513
0.410683
0.334291
0.258977
0.184451
0.110462
0.0367861
1.12207
1.00022
0.899867
0.812256
0.732114
0.656417
0.583457
0.512257
0.442248
0.373079
0.304523
0.23642
0.168647
0.1011
0.0336856
0.912651
0.824865
0.755036
0.692611
0.632859
0.573783
0.514605
0.455068
0.395137
0.334857
0.274298
0.213531
0.152616
0.0916055
0.0305409
0.663925
0.631545
0.602792
0.570285
0.53292
0.491246
0.446104
0.398268
0.34837
0.29691
0.244278
0.190785
0.136679
0.0821634
0.0274133
0.383412
0.434589
0.454296
0.452811
0.437285
0.41217
0.380293
0.343525
0.303162
0.260129
0.215117
0.168652
0.12115
0.0729549
0.0243616
9.82358
9.47043
9.11635
8.76063
8.40242
8.04063
7.67377
7.29978
6.91551
6.51594
6.09213
5.62578
5.07105
4.28105
2.66091
9.80898
9.42633
9.04183
8.65405
8.2613
7.8614
7.45138
7.027
6.58186
6.10561
5.5803
4.9719
4.2098
3.13728
1.41517
9.7948
9.38352
8.96957
8.55092
8.12515
7.68919
7.23894
6.76863
6.26979
5.72935
5.12617
4.42473
3.56412
2.44459
0.939029
9.78122
9.34257
8.90057
8.45272
7.99606
7.5269
7.04043
6.53007
5.98661
5.39663
4.74027
3.98808
3.09825
2.01996
0.721568
9.7684
9.30394
8.83563
8.36064
7.87565
7.37664
6.85848
6.3145
5.73573
5.11
4.4209
3.64701
2.76324
1.74817
0.604625
9.75645
9.26797
8.77534
8.2755
7.76498
7.23965
6.69447
6.12308
5.51744
4.86738
4.1604
3.38224
2.51941
1.56558
0.533312
9.74544
9.2349
8.72005
8.19776
7.66457
7.11646
6.54865
5.95545
5.33001
4.66428
3.94932
3.17626
2.33878
1.43747
0.485856
9.73542
9.20483
8.66991
8.1276
7.57454
7.00693
6.42046
5.8102
5.17053
4.49537
3.77858
3.01502
2.20246
1.34429
0.452355
9.72638
9.17775
8.62491
8.06491
7.49459
6.91049
6.3088
5.68535
5.03571
4.35538
3.64031
2.88781
2.09782
1.27455
0.427727
9.71831
9.1536
8.58488
8.00939
7.42422
6.82626
6.21223
5.5787
4.9222
4.23949
3.52803
2.78662
2.01628
1.22118
0.40909
9.71115
9.13222
8.54955
7.9606
7.36272
6.75319
6.12921
5.488
4.82688
4.14358
3.43656
2.70551
1.95194
1.1796
0.394682
9.70486
9.11344
8.51859
7.918
7.3093
6.69014
6.05816
5.41111
4.74696
4.06413
3.36176
2.64005
1.90062
1.14675
0.383361
9.69936
9.09705
8.49162
7.88102
7.26315
6.636
5.99758
5.34609
4.68001
3.99825
3.30039
2.5869
1.85934
1.12051
0.374354
9.69458
9.08281
8.46825
7.84907
7.22346
6.58967
5.94607
5.29121
4.62395
3.94355
3.24988
2.54351
1.82589
1.09937
0.367116
9.69044
9.0705
8.44809
7.82159
7.18944
6.55015
5.90237
5.24494
4.577
3.89808
3.20818
2.50792
1.79861
1.0822
0.361253
9.68688
9.05991
8.43077
7.79804
7.16038
6.51653
5.86537
5.20597
4.53769
3.86022
3.17367
2.47864
1.77626
1.06818
0.356474
9.68382
9.05083
8.41593
7.77792
7.13563
6.48799
5.83408
5.17317
4.50476
3.82866
3.14504
2.45445
1.75787
1.05667
0.352558
9.6812
9.04306
8.40327
7.76077
7.11458
6.46379
5.80766
5.14557
4.47717
3.80233
3.12125
2.43442
1.74269
1.0472
0.349335
9.67897
9.03643
8.39247
7.74618
7.09672
6.44332
5.78536
5.12237
4.45405
3.78034
3.10144
2.4178
1.73012
1.03936
0.346674
9.67707
9.0308
8.3833
7.7338
7.08159
6.42601
5.76656
5.10285
4.43466
3.76196
3.08493
2.40398
1.71969
1.03287
0.34447
9.67545
9.02601
8.37552
7.72331
7.06878
6.4114
5.75073
5.08645
4.41841
3.74659
3.07116
2.39246
1.71101
1.02748
0.342641
9.67409
9.02195
8.36892
7.71443
7.05796
6.39907
5.73739
5.07266
4.40477
3.73372
3.05965
2.38286
1.70379
1.02299
0.34112
9.67293
9.01852
8.36335
7.70693
7.04883
6.38867
5.72616
5.06108
4.39333
3.72294
3.05002
2.37484
1.69776
1.01925
0.339852
9.67194
9.01561
8.35863
7.70059
7.04113
6.37991
5.71671
5.05135
4.38374
3.71391
3.04197
2.36814
1.69273
1.01613
0.338795
9.67112
9.01316
8.35465
7.69525
7.03463
6.37254
5.70877
5.04317
4.37569
3.70634
3.03523
2.36254
1.68853
1.01353
0.337913
9.67042
9.01109
8.3513
7.69074
7.02916
6.36633
5.70209
5.0363
4.36893
3.7
3.02958
2.35785
1.68501
1.01135
0.337175
9.66983
9.00934
8.34847
7.68694
7.02456
6.36111
5.69647
5.03054
4.36327
3.69468
3.02486
2.35392
1.68207
1.00953
0.336559
9.66933
9.00788
8.34609
7.68375
7.02068
6.35673
5.69176
5.0257
4.35851
3.69022
3.0209
2.35064
1.67961
1.00801
0.336043
9.66891
9.00664
8.34408
7.68107
7.01743
6.35304
5.6878
5.02164
4.35453
3.68649
3.01758
2.34789
1.67755
1.00673
0.335611
9.66856
9.0056
8.3424
7.67881
7.0147
6.34995
5.68448
5.01823
4.35119
3.68336
3.0148
2.34559
1.67583
1.00567
0.335251
9.66827
9.00473
8.34099
7.67692
7.01241
6.34735
5.68169
5.01538
4.34839
3.68075
3.01248
2.34366
1.67439
1.00478
0.334949
9.66802
9.004
8.33981
7.67534
7.01049
6.34519
5.67937
5.013
4.34606
3.67856
3.01054
2.34206
1.67319
1.00403
0.334698
9.66781
9.00339
8.33882
7.67401
7.00889
6.34337
5.67742
5.01101
4.34411
3.67674
3.00892
2.34072
1.67219
1.00341
0.334488
9.66764
9.00288
8.338
7.67291
7.00755
6.34186
5.67581
5.00935
4.34249
3.67522
3.00758
2.3396
1.67135
1.0029
0.334314
9.6675
9.00246
8.33731
7.672
7.00645
6.34061
5.67447
5.00798
4.34114
3.67396
3.00646
2.33868
1.67066
1.00247
0.334169
9.66738
9.00211
8.33675
7.67124
7.00553
6.33958
5.67336
5.00685
4.34003
3.67293
3.00555
2.33792
1.6701
1.00212
0.334051
9.66729
9.00183
8.33629
7.67063
7.00479
6.33874
5.67246
5.00593
4.33913
3.67208
3.0048
2.3373
1.66963
1.00183
0.333954
9.66721
9.0016
8.33592
7.67013
7.00419
6.33807
5.67174
5.00518
4.33841
3.6714
3.0042
2.33681
1.66926
1.0016
0.333876
9.66715
9.00142
8.33563
7.66974
7.00372
6.33753
5.67116
5.0046
4.33783
3.67087
3.00372
2.33641
1.66897
1.00142
0.333815
9.6671
9.00128
8.33541
7.66944
7.00336
6.33713
5.67073
5.00415
4.3374
3.67046
3.00336
2.33611
1.66874
1.00128
0.333768
9.66707
9.00118
8.33525
7.66923
7.0031
6.33683
5.67042
5.00383
4.33708
3.67017
3.0031
2.3359
1.66858
1.00119
0.333734
9.66705
9.00112
8.33515
7.66909
7.00294
6.33665
5.67022
5.00363
4.33688
3.66998
3.00294
2.33576
1.66848
1.00112
0.333713
9.66704
9.00109
8.3351
7.66903
7.00286
6.33656
5.67013
5.00354
4.33679
3.6699
3.00286
2.3357
1.66844
1.00109
0.333703
9.66704
9.0011
8.33511
7.66904
7.00287
6.33658
5.67014
5.00355
4.33681
3.66991
3.00287
2.33571
1.66844
1.0011
0.333705
9.66705
9.00113
8.33517
7.66912
7.00297
6.33669
5.67026
5.00367
4.33693
3.67002
3.00297
2.33579
1.6685
1.00114
0.333718
9.66707
9.00121
8.33529
7.66928
7.00316
6.3369
5.67049
5.00391
4.33715
3.67024
3.00316
2.33595
1.66862
1.00121
0.333742
9.66711
9.00131
8.33546
7.66951
7.00344
6.33722
5.67083
5.00426
4.3375
3.67056
3.00345
2.33618
1.6688
1.00132
0.333779
9.66716
9.00146
8.3357
7.66984
7.00383
6.33766
5.6713
5.00474
4.33797
3.671
3.00384
2.33651
1.66904
1.00147
0.333829
9.66723
9.00166
8.33601
7.67025
7.00434
6.33823
5.67191
5.00536
4.33858
3.67157
3.00434
2.33693
1.66935
1.00166
0.333895
9.66731
9.0019
8.33641
7.67078
7.00497
6.33895
5.67268
5.00615
4.33935
3.67229
3.00498
2.33745
1.66975
1.0019
0.333977
9.66741
9.0022
8.33689
7.67143
7.00576
6.33984
5.67364
5.00713
4.34031
3.67318
3.00577
2.33811
1.67024
1.00221
0.33408
9.66753
9.00256
8.33748
7.67222
7.00672
6.34092
5.6748
5.00832
4.34147
3.67427
3.00674
2.33891
1.67083
1.00258
0.334205
9.66768
9.00301
8.3382
7.67318
7.00788
6.34224
5.67621
5.00976
4.34289
3.67559
3.00791
2.33988
1.67156
1.00302
0.334356
9.66786
9.00354
8.33907
7.67434
7.00929
6.34383
5.67791
5.0115
4.34459
3.67719
3.00932
2.34105
1.67243
1.00356
0.334539
9.66808
9.00418
8.34011
7.67573
7.01097
6.34573
5.67995
5.01359
4.34663
3.6791
3.01102
2.34245
1.67348
1.00421
0.334759
9.66834
9.00495
8.34135
7.6774
7.01298
6.348
5.68239
5.01609
4.34909
3.68139
3.01305
2.34414
1.67474
1.00499
0.335023
9.66865
9.00587
8.34283
7.67938
7.01539
6.35072
5.68531
5.01908
4.35201
3.68413
3.01548
2.34615
1.67625
1.00593
0.335338
9.66902
9.00696
8.34459
7.68175
7.01825
6.35397
5.68879
5.02264
4.35551
3.68741
3.01839
2.34856
1.67805
1.00704
0.335716
9.66946
9.00825
8.3467
7.68457
7.02167
6.35783
5.69294
5.0269
4.35969
3.69132
3.02186
2.35144
1.68021
1.00837
0.336167
9.66998
9.0098
8.3492
7.68792
7.02573
6.36243
5.69788
5.03197
4.36466
3.69598
3.026
2.35487
1.68278
1.00997
0.336706
9.6706
9.01163
8.35216
7.6919
7.03056
6.36791
5.70376
5.03801
4.3706
3.70154
3.03095
2.35897
1.68585
1.01187
0.33735
9.67133
9.0138
8.35569
7.69663
7.0363
6.37442
5.71077
5.0452
4.37767
3.70818
3.03685
2.36387
1.68952
1.01414
0.338119
9.6722
9.01638
8.35987
7.70225
7.04312
6.38216
5.7191
5.05377
4.38609
3.71609
3.04389
2.36972
1.69391
1.01686
0.33904
9.67324
9.01944
8.36483
7.70891
7.05121
6.39135
5.729
5.06396
4.39613
3.72553
3.0523
2.37672
1.69916
1.02011
0.340142
9.67446
9.02305
8.3707
7.7168
7.06081
6.40226
5.74078
5.0761
4.4081
3.73679
3.06235
2.38508
1.70544
1.02401
0.341462
9.6759
9.02733
8.37765
7.72615
7.07219
6.41521
5.75477
5.09054
4.42236
3.75024
3.07436
2.39508
1.71296
1.02867
0.343044
9.67761
9.03238
8.38585
7.7372
7.08566
6.43057
5.77139
5.10772
4.43936
3.76629
3.08872
2.40707
1.72198
1.03428
0.344944
9.67961
9.03833
8.39553
7.75025
7.10159
6.44876
5.79112
5.12816
4.45963
3.78548
3.10592
2.42145
1.73281
1.04101
0.347229
9.68198
9.04534
8.40694
7.76565
7.12042
6.47031
5.81453
5.15248
4.4838
3.80841
3.12653
2.43871
1.74584
1.04912
0.349984
9.68475
9.05357
8.42035
7.78379
7.14264
6.49579
5.8423
5.1814
4.51264
3.83585
3.15125
2.45948
1.76156
1.05892
0.353311
9.688
9.06322
8.43609
7.8051
7.16881
6.52589
5.8752
5.21579
4.54705
3.86871
3.18097
2.48451
1.78054
1.07077
0.357343
9.6918
9.07449
8.45451
7.8301
7.19958
6.5614
5.91414
5.25666
4.58811
3.9081
3.21674
2.51475
1.80355
1.08518
0.362247
9.69622
9.08763
8.476
7.85933
7.23568
6.60319
5.96019
5.30521
4.63715
3.95537
3.25987
2.5514
1.83154
1.10274
0.368237
9.70134
9.10288
8.50099
7.89341
7.27791
6.6523
6.01455
5.36284
4.6957
4.01217
3.31203
2.59595
1.86573
1.12428
0.375594
9.70726
9.1205
8.52994
7.933
7.32715
6.70983
6.07861
5.43119
4.76563
4.08051
3.37524
2.65033
1.9077
1.15084
0.384689
9.71406
9.14078
8.5633
7.97879
7.38434
6.77702
6.1539
5.51213
4.84913
4.16284
3.45208
2.71701
1.95957
1.18384
0.396025
9.72182
9.16396
8.60155
8.03146
7.45047
6.85519
6.24215
5.60782
4.94881
4.26216
3.54581
2.79922
2.02414
1.22523
0.410303
9.73064
9.19031
8.64513
8.09172
7.52651
6.94569
6.34517
5.72064
5.06768
4.3821
3.66053
2.90122
2.10526
1.27775
0.428522
9.74057
9.22003
8.69442
8.16016
7.61339
7.04986
6.46488
5.8532
5.20919
4.52704
3.80144
3.02866
2.20828
1.34536
0.452163
9.75166
9.25328
8.74972
8.23728
7.71189
7.16894
6.6031
6.00821
5.37717
4.70216
3.97513
3.18914
2.34083
1.434
0.483532
9.76393
9.29011
8.81117
8.32339
7.82259
7.30391
6.76151
6.18831
5.57569
4.9134
4.18974
3.39291
2.51402
1.55294
0.526427
9.77737
9.33051
8.87876
8.41854
7.94571
7.45534
6.94129
6.39576
5.80871
5.16723
4.45517
3.65366
2.74428
1.71731
0.587614
9.79192
9.3743
8.95224
8.52243
8.08101
7.62321
7.14293
6.63205
6.07952
5.47008
4.78269
3.98933
3.0562
1.95301
0.680421
9.80747
9.42117
9.03109
8.63439
8.22767
7.80669
7.36581
6.89725
6.38984
5.82704
5.1838
4.42204
3.4862
2.30634
0.834516
9.82387
9.47067
9.11454
8.75329
8.38424
8.00398
7.60791
7.18942
6.73861
6.23986
5.6672
4.97564
4.08566
2.8624
1.12556
9.84093
9.52218
9.20155
8.87759
8.54857
8.21225
7.86556
7.50401
7.12067
6.70399
6.23314
5.66702
4.91656
3.7751
1.77374
9.85842
9.57501
9.29086
9.0054
8.71797
8.42772
8.13351
7.83373
7.52587
7.20571
6.86524
6.48639
6.01895
5.28494
3.49562
9.87607
9.62835
9.38107
9.13458
8.88931
8.64592
8.40533
8.16904
7.93959
7.72153
7.52395
7.36726
7.30643
7.52762
8.82993
9.89363
9.68139
9.47073
9.26288
9.05935
8.86216
8.67414
8.4996
8.34537
8.22311
8.15425
8.18154
8.39803
9.01949
10.5343
9.91082
9.73332
9.55844
9.38818
9.22498
9.072
8.93359
8.81603
8.72892
8.68758
8.71773
8.8644
9.20837
9.89092
11.1234
0.157717
0.28289
0.337595
0.357993
0.358403
0.345877
0.324444
0.296638
0.264163
0.228227
0.189716
0.14931
0.107549
0.064878
0.021683
0.084664
0.193915
0.255324
0.285674
0.295673
0.291795
0.278096
0.257252
0.231113
0.20101
0.167938
0.132667
0.0958156
0.0578986
0.0193666
0.0533307
0.138163
0.194619
0.227484
0.242579
0.244529
0.236706
0.221541
0.200812
0.175853
0.147686
0.117121
0.0848212
0.0513458
0.0171896
0.0371559
0.102116
0.150295
0.181632
0.19861
0.204049
0.200414
0.189692
0.173449
0.152922
0.129097
0.10278
0.0746424
0.0452652
0.0151672
0.0274751
0.0777218
0.117664
0.145752
0.162652
0.169868
0.169041
0.161675
0.14906
0.132279
0.112238
0.089701
0.0653239
0.0396848
0.013309
0.0210604
0.0604827
0.0932658
0.117639
0.133418
0.141272
0.142208
0.137301
0.127562
0.113899
0.097112
0.0778993
0.0568811
0.0346158
0.011619
0.0165197
0.0478536
0.0747067
0.0954923
0.109688
0.117479
0.119433
0.116281
0.108787
0.0976892
0.0836691
0.0673508
0.049304
0.0300545
0.0100962
0.0131631
0.0383357
0.0603607
0.0779216
0.0904038
0.0977371
0.100202
0.0982747
0.0925152
0.0835072
0.0718216
0.0580021
0.0425616
0.0259851
0.00873592
0.0106073
0.0310035
0.0491142
0.0638769
0.0746949
0.0813753
0.0840217
0.0829286
0.0784982
0.0711839
0.0614553
0.0497786
0.0366078
0.0223825
0.00753021
0.00861986
0.0252582
0.0401921
0.0525712
0.0618585
0.0678141
0.0704373
0.0698994
0.0664832
0.0605366
0.0524413
0.0425922
0.0313858
0.0192153
0.00646895
0.00704997
0.0206963
0.033044
0.0434121
0.0513353
0.0565664
0.0590475
0.0588686
0.0562247
0.0513809
0.0446449
0.036348
0.0268331
0.0164479
0.00554061
0.00579504
0.0170359
0.0272702
0.0359506
0.0426813
0.0472278
0.0495045
0.0495489
0.0474935
0.0435389
0.037932
0.0309492
0.0228847
0.0140428
0.00473301
0.00478255
0.0140746
0.0225752
0.0298426
0.0355436
0.0394652
0.0415112
0.041687
0.0400808
0.036844
0.0321743
0.0263013
0.0194759
0.0119626
0.00403385
0.00395966
0.0116627
0.0187364
0.0248223
0.0296412
0.0330048
0.0348164
0.0350623
0.0338
0.0311438
0.0272519
0.0223145
0.0165447
0.0101709
0.00343113
0.00328694
0.00968773
0.0155834
0.0206816
0.0247491
0.027622
0.0292085
0.0294847
0.0284869
0.0263015
0.0230552
0.0189056
0.0140328
0.00863313
0.00291348
0.00273439
0.0080635
0.012984
0.0172565
0.0206863
0.0231322
0.0245102
0.0247916
0.0239982
0.0221957
0.0194858
0.0159986
0.0118866
0.00731755
0.00247032
0.00227882
0.00672296
0.0108344
0.0144165
0.0173066
0.0193839
0.0205733
0.0208446
0.0202102
0.01872
0.0164558
0.0135256
0.0100576
0.00619512
0.002092
0.00190205
0.00561339
0.00905245
0.0120569
0.0144911
0.0162521
0.0172737
0.0175264
0.0170162
0.0157815
0.0138883
0.0114259
0.0085024
0.00523977
0.00176983
0.00158967
0.00469284
0.00757216
0.0100934
0.012143
0.0136338
0.0145078
0.0147377
0.0143254
0.0133002
0.0117159
0.00964638
0.00718266
0.00442833
0.00149608
0.00133017
0.00392771
0.0063405
0.00845715
0.0101828
0.0114435
0.0121892
0.0123949
0.0120599
0.0112072
0.00988019
0.00814055
0.00606466
0.00374042
0.0012639
0.00111427
0.00329085
0.00531444
0.00709242
0.00854538
0.00961082
0.0102456
0.0104273
0.010154
0.00944336
0.008331
0.00686816
0.00511908
0.00315821
0.00106734
0.000934438
0.00276019
0.00445889
0.00595335
0.00717701
0.00807707
0.0086166
0.0087757
0.00855168
0.00795843
0.00702514
0.00579449
0.00432052
0.00266626
0.000901208
0.000784545
0.00231775
0.00374514
0.00500227
0.0060333
0.00679362
0.00725168
0.00739005
0.00720568
0.00670957
0.00592571
0.00488974
0.00364713
0.00225122
0.00076101
0.000659569
0.00194876
0.0031496
0.00420816
0.00507752
0.00572001
0.00610871
0.00622845
0.00607612
0.00566047
0.00500131
0.00412845
0.00308018
0.00190163
0.0006429
0.000555387
0.0016411
0.00265285
0.00354539
0.00427926
0.0048226
0.00515246
0.00525572
0.00512938
0.00478041
0.00422527
0.00348893
0.00260368
0.00160772
0.00054358
0.000468606
0.00138478
0.00223886
0.00299279
0.00361329
0.00407338
0.00435353
0.00444241
0.00433718
0.0040435
0.00357504
0.00295279
0.00220403
0.00136114
0.000460243
0.000396431
0.00117157
0.0018944
0.00253281
0.00305867
0.00344909
0.0036874
0.00376384
0.00367582