/*--------------------------------*- C++ -*----------------------------------*\
| =========                 |                                                 |
| \\      /  F ield         | OpenFOAM: The Open Source CFD Toolbox           |
|  \\    /   O peration     | Version:  5.x                                   |
|   \\  /    A nd           | Web:      www.OpenFOAM.org                      |
|    \\/     M anipulation  |                                                 |
\*---------------------------------------------------------------------------*/
FoamFile
{
    version     2.0;
    format      ascii;
    class       volScalarField;
    location    "15.2";
    object      gradTx;
}
// * * * * * * * * * * * * * * * * * * * * * * * * * * * * * * * * * * * * * //

dimensions      [0 -1 0 1 0 0 0];

internalField   nonuniform List<scalar> 
6300
(
0.318532
0.587343
1.12119
1.91215
2.94751
4.20878
5.67066
7.29999
9.05499
10.8852
12.7321
14.5317
16.2174
17.7254
18.9993
0.0492328
0.321816
0.863567
1.66725
2.72108
4.00764
5.50269
7.17378
8.97927
10.8678
12.7789
14.6449
16.3947
17.9589
19.2764
-0.493134
-0.213345
0.343543
1.17173
2.26141
3.59753
5.15815
6.91265
8.81996
10.8274
12.8702
14.8737
16.7568
18.4386
19.8468
-1.31578
-1.02611
-0.448275
0.414203
1.5548
2.9624
4.6192
6.49815
8.56002
10.7508
13.0003
15.2224
17.3196
19.1911
20.7452
-2.42856
-2.12751
-1.52522
-0.62192
0.580684
2.07754
3.8576
5.90018
8.17056
10.6151
13.1572
15.6955
18.1075
20.2604
22.0298
-3.84289
-3.5306
-2.90366
-1.95783
-0.68818
0.908991
2.83296
5.07388
7.60636
10.3813
13.3173
16.2943
19.1539
21.7127
23.791
-5.56996
-5.24882
-4.60144
-3.61805
-2.28505
-0.586858
1.49083
3.9555
6.79916
9.98583
13.4358
17.0097
20.5005
23.6449
26.1682
-7.61864
-7.29372
-6.63571
-5.62834
-4.24759
-2.46269
-0.238798
2.45761
5.64842
9.32653
13.4298
17.8078
22.1928
26.1976
29.3782
-9.99266
-9.67214
-9.01977
-8.01248
-6.61472
-4.778
-2.44143
0.464793
4.00983
8.24157
13.1483
18.5984
24.2647
29.5741
33.7706
-12.6876
-12.3828
-11.7592
-10.7875
-9.42128
-7.59363
-5.21419
-2.16734
1.68403
6.48105
12.3231
19.1722
26.6928
34.0626
39.9388
-15.6878
-15.4128
-14.8471
-13.9575
-12.6897
-10.9615
-8.65483
-5.60445
-1.58791
3.67501
10.4901
19.0738
29.2711
40.0442
48.9629
-18.9634
-18.7338
-18.2592
-17.5063
-16.4188
-14.9083
-12.8396
-10.0082
-6.10669
-0.683713
6.88806
17.3611
31.273
47.8791
63.0047
-22.4689
-22.3002
-21.95
-21.39
-20.5712
-19.4135
-17.7876
-15.4823
-12.1474
-7.19171
0.384175
12.2087
30.58
57.1934
86.9647
-26.1434
-26.0486
-25.851
-25.5329
-25.0629
-24.3874
-23.4152
-21.9865
-19.8094
-16.3203
-10.3689
0.508944
21.644
63.3486
133.885
-29.9131
-29.9
-29.8727
-29.8281
-29.7605
-29.6583
-29.4995
-29.2395
-28.7835
-27.9117
-26.0491
-21.4486
-7.86254
40.6708
245.801
19.9351
20.5541
20.9547
21.1379
21.112
20.8913
20.4939
19.9404
19.2519
18.4493
17.552
16.5776
15.5413
14.4565
13.3343
12.1844
11.0146
9.83172
8.64134
7.4483
6.2567
5.07004
3.89132
2.72309
1.56749
0.426303
-0.69903
-1.80739
-2.89798
-3.97026
-5.02399
-6.05914
-7.07586
-8.07442
-9.05514
-10.0183
-10.9641
-11.8926
-12.8037
-13.6971
-14.5725
-15.4293
-16.2673
-17.0861
-17.8859
-18.6669
-19.4297
-20.175
-20.9037
-21.6168
-22.315
-22.999
-23.6688
-24.3242
-24.9645
-25.5885
-26.1948
-26.7818
-27.3479
-27.8917
-28.4118
-28.9071
-29.3765
-29.8191
-30.2335
-30.6181
-30.9707
-31.2882
-31.5667
-31.8014
-31.987
-32.1174
-32.1865
-32.1883
-32.1172
-31.9685
-31.7385
-31.4247
-31.0263
-30.5435
-29.9783
-29.334
-28.6155
-27.829
-26.9823
-26.0843
-25.1454
-24.1771
-23.1917
-22.2016
20.2385
20.868
21.2671
21.4383
21.3921
21.1452
20.7182
20.1341
19.4157
18.5852
17.6627
16.6661
15.6108
14.5098
13.374
12.2126
11.0332
9.84219
8.64491
7.44599
6.24936
5.05841
3.87605
2.70474
1.5466
0.403357
-0.723564
-1.83307
-2.92439
-3.99702
-5.05077
-6.08568
-7.102
-8.10008
-9.08037
-10.0432
-10.989
-11.9176
-12.8291
-13.723
-14.599
-15.4563
-16.2946
-17.1134
-17.9128
-18.693
-19.4546
-20.1986
-20.9259
-21.6379
-22.3353
-23.0191
-23.6893
-24.3458
-24.9877
-25.6137
-26.2222
-26.8115
-27.3798
-27.9255
-28.4472
-28.9439
-29.4149
-29.8592
-30.276
-30.6639
-31.0209
-31.344
-31.6293
-31.8718
-32.066
-32.2052
-32.283
-32.2928
-32.2285
-32.0851
-31.8586
-31.5464
-31.1473
-30.6618
-30.0917
-29.4405
-28.713
-27.9155
-27.0557
-26.1428
-25.1875
-24.2016
-23.1979
-22.1898
20.8632
21.5131
21.9072
22.0513
21.9607
21.6577
21.1685
20.5205
19.7406
18.8531
17.8798
16.8389
15.7457
14.6128
13.4503
12.2665
11.0683
9.86137
8.65059
7.44014
6.23363
5.03423
3.84467
2.66729
1.50411
0.3568
-0.773263
-1.88503
-2.97775
-4.05102
-5.10471
-6.13901
-7.15436
-8.15135
-9.13063
-10.0928
-11.0383
-11.9673
-12.8796
-13.7748
-14.6521
-15.5106
-16.3497
-17.1686
-17.9672
-18.7457
-19.5048
-20.2458
-20.9702
-21.6795
-22.3752
-23.0583
-23.7294
-24.388
-25.0334
-25.6637
-26.2771
-26.8712
-27.444
-27.9934
-28.5182
-29.0176
-29.4911
-29.9386
-30.3598
-30.7539
-31.1195
-31.4538
-31.753
-32.0117
-32.2235
-32.3812
-32.4771
-32.5035
-32.4535
-32.3211
-32.1018
-31.7927
-31.3924
-30.9014
-30.3217
-29.6566
-28.9111
-28.0913
-27.2052
-26.2621
-25.2732
-24.2512
-23.2103
-22.1651
21.847
22.5258
22.9067
23.0015
22.8345
22.4377
21.8467
21.0965
20.2197
19.2443
18.1936
17.0864
15.9375
14.758
13.5568
12.3408
11.1156
9.88581
8.65553
7.42835
6.20745
4.99569
3.79556
2.60924
1.43862
0.285298
-0.849409
-1.96448
-3.0592
-4.13323
-5.18657
-6.21964
-7.23316
-8.22808
-9.20547
-10.1663
-11.1113
-12.0409
-12.9547
-13.8521
-14.732
-15.5929
-16.4336
-17.2529
-18.0503
-18.826
-19.5809
-20.3169
-21.0359
-21.7405
-22.4329
-23.1147
-23.7869
-24.4492
-25.1003
-25.738
-26.3594
-26.9614
-27.5412
-28.0964
-28.6256
-29.1282
-29.6046
-30.0556
-30.4821
-30.8847
-31.2626
-31.6139
-31.9345
-32.2186
-32.4587
-32.6459
-32.7707
-32.8239
-32.7966
-32.6818
-32.474
-32.1697
-31.7677
-31.2684
-30.6741
-29.9881
-29.2155
-28.3624
-27.4363
-26.447
-25.4062
-24.3279
-23.2283
-22.1248
23.2534
23.9669
24.3175
24.3281
24.0385
23.497
22.7534
21.8545
20.8403
19.7432
18.5883
17.3938
16.1728
14.9342
13.6844
12.4281
11.1691
9.91067
8.65575
7.40726
6.16791
4.9402
3.72638
2.52843
1.34809
0.186876
-0.953928
-2.07329
-3.17051
-4.24525
-5.29767
-6.32843
-7.33871
-8.33002
-9.30408
-10.2625
-11.2066
-12.1369
-13.0533
-13.9546
-14.839
-15.7043
-16.5481
-17.3685
-18.1644
-18.9359
-19.6843
-20.4119
-21.1222
-21.8189
-22.5055
-23.1848
-23.8584
-24.5261
-25.1862
-25.8353
-26.4693
-27.0834
-27.6736
-28.2366
-28.7708
-29.2762
-29.7541
-30.2073
-30.6386
-31.0505
-31.4439
-31.8177
-32.1682
-32.4886
-32.7696
-32.9999
-33.1673
-33.2595
-33.2655
-33.1761
-32.9846
-32.6872
-32.2827
-31.772
-31.1579
-30.4442
-29.6356
-28.738
-27.7583
-26.7058
-25.5928
-24.435
-23.2518
-22.0646
25.1821
25.9303
26.2171
26.0865
25.6048
24.8465
23.8834
22.7779
21.5796
20.3251
19.0396
17.7391
16.4329
15.126
13.8209
12.5191
11.2216
9.93014
8.64645
7.37278
6.1114
4.86453
3.63417
2.4221
1.22989
0.0589564
-1.08941
-2.21409
-3.31423
-4.38944
-5.43995
-6.46673
-7.47155
-8.45677
-9.42514
-10.3794
-11.3216
-12.253
-13.1735
-14.0813
-14.9735
-15.8464
-16.6961
-17.5192
-18.3136
-19.079
-19.8172
-20.5318
-21.2279
-21.9115
-22.5883
-23.263
-23.9381
-24.6139
-25.2876
-25.9543
-26.6073
-27.2396
-27.8447
-28.418
-28.9573
-29.4632
-29.9391
-30.3902
-30.8228
-31.2424
-31.6529
-32.0549
-32.4449
-32.8149
-33.153
-33.4441
-33.6716
-33.819
-33.8714
-33.8169
-33.6473
-33.3586
-32.9501
-32.4242
-31.7847
-31.0363
-30.1836
-29.2313
-28.1847
-27.0514
-25.8434
-24.5786
-23.2808
-21.9783
27.787
28.5574
28.7171
28.3501
27.5689
26.4903
25.218
23.8345
22.3993
20.9511
19.512
18.092
16.6936
15.3149
13.9525
12.6033
11.2653
9.93807
8.62249
7.32036
6.03379
4.76489
3.51545
2.28702
1.08092
-0.101565
-1.25909
-2.39028
-3.49391
-4.56925
-5.61641
-6.63667
-7.63257
-8.60775
-9.56654
-10.5134
-11.4521
-12.3848
-13.3117
-14.2302
-15.1357
-16.0219
-16.8823
-17.711
-18.5043
-19.2612
-19.9839
-20.6779
-21.3514
-22.0137
-22.674
-23.3401
-24.0166
-24.7042
-25.3989
-26.0926
-26.7749
-27.4345
-28.0613
-28.648
-29.1915
-29.6932
-30.1593
-30.5996
-31.0252
-31.4471
-31.8738
-32.3089
-32.7499
-33.1869
-33.6037
-33.9795
-34.2909
-34.5149
-34.6309
-34.6229
-34.4812
-34.2019
-33.7863
-33.2395
-32.568
-31.7782
-30.8748
-29.8601
-28.7355
-27.5041
-26.1756
-24.7692
-23.3162
-21.8561
31.3099
32.0631
31.9753
31.2094
29.9608
28.4127
26.7124
24.965
23.2372
21.5635
19.9563
18.4135
16.9255
15.4799
14.0648
12.6711
11.2932
9.92894
8.57894
7.2453
5.93058
4.63703
3.36634
2.11965
0.897822
-0.298129
-1.46677
-2.60621
-3.71438
-4.78966
-5.83162
-6.84169
-7.82342
-8.78227
-9.72508
-10.6591
-11.591
-12.525
-13.4619
-14.3979
-15.3255
-16.2344
-17.1138
-17.9537
-18.7474
-19.4923
-20.1915
-20.8536
-21.4909
-22.1184
-22.7511
-23.4018
-24.079
-24.7842
-25.5112
-26.247
-26.9748
-27.6764
-28.3354
-28.9401
-29.4853
-29.974
-30.4166
-30.8296
-31.2325
-31.6446
-32.0821
-32.5542
-33.0602
-33.5875
-34.1132
-34.6071
-35.0358
-35.3659
-35.5683
-35.6213
-35.5129
-35.241
-34.8112
-34.234
-33.5213
-32.6835
-31.7259
-30.647
-29.4396
-28.0966
-26.6194
-25.0269
-23.3613
-21.683
36.1446
36.7793
36.2094
34.7631
32.7837
30.5539
28.2739
26.0672
23.9965
22.0799
20.3076
18.6558
17.096
15.6005
14.1461
12.716
11.3012
9.89902
8.51159
7.14282
5.79669
4.4761
3.18254
1.91634
0.67736
-0.534107
-1.71658
-2.86722
-3.98225
-5.05808
-6.09277
-7.08751
-8.04717
-8.97987
-9.89619
-10.808
-11.7267
-12.661
-13.6132
-14.5777
-15.5419
-16.4893
-17.4018
-18.263
-19.0605
-19.789
-20.4526
-21.0645
-21.6444
-22.2155
-22.8019
-23.4253
-24.1009
-24.8326
-25.6104
-26.4128
-27.2121
-27.9791
-28.6875
-29.3176
-29.8604
-30.3206
-30.7162
-31.074
-31.4262
-31.8052
-32.2401
-32.7504
-33.3395
-33.99
-34.6679
-35.3284
-35.9221
-36.4004
-36.7205
-36.8517
-36.7797
-36.507
-36.0479
-35.4231
-34.6545
-33.7608
-32.7512
-31.6186
-30.3387
-28.8819
-27.2289
-25.3899
-23.4242
-21.4337
42.9688
43.2295
41.705
39.0837
35.9664
32.7671
29.7295
26.9732
24.5337
22.3881
20.4849
18.7653
17.1735
15.6616
14.1919
12.7387
11.2905
9.84769
8.41714
7.00754
5.62583
4.27609
2.9592
1.67372
0.417181
-0.81192
-2.0123
-3.17955
-4.3066
-5.38575
-6.41145
-7.38385
-8.3097
-9.20102
-10.0738
-10.9467
-11.84
-12.7709
-13.7467
-14.7577
-15.7826
-16.7942
-17.7637
-18.6638
-19.4726
-20.1789
-20.788
-21.3214
-21.8102
-22.2903
-22.7993
-23.3733
-24.0415
-24.8145
-25.674
-26.5828
-27.4955
-28.3661
-29.1521
-29.8204
-30.354
-30.7602
-31.0696
-31.3263
-31.5808
-31.8851
-32.2892
-32.833
-33.5298
-34.3528
-35.2474
-36.1454
-36.9744
-37.6623
-38.1445
-38.3742
-38.3351
-38.0411
-37.523
-36.8187
-35.9674
-35.0049
-33.9533
-32.8019
-31.4924
-29.9494
-28.1058
-25.935
-23.5225
-21.0613
53.04
52.2495
48.7792
44.1174
39.2661
34.7466
30.7794
27.4228
24.6472
22.3467
20.3977
18.6904
17.1354
15.6616
14.2134
12.754
11.2718
9.77838
8.29229
6.83187
5.40872
4.02861
2.69047
1.3893
0.117386
-1.13118
-2.35578
-3.54984
-4.69996
-5.7904
-6.80686
-7.74722
-8.6219
-9.44888
-10.2509
-11.0562
-11.899
-12.8162
-13.8293
-14.9175
-16.0423
-17.1594
-18.2253
-19.1959
-20.0322
-20.7085
-21.2322
-21.6421
-21.9883
-22.3235
-22.7026
-23.1854
-23.8311
-24.6715
-25.6664
-26.7468
-27.8391
-28.8744
-29.786
-30.5169
-31.0306
-31.3387
-31.4984
-31.5815
-31.6634
-31.8207
-32.137
-32.6946
-33.5381
-34.6122
-35.8215
-37.0612
-38.2294
-39.2199
-39.9315
-40.2831
-40.2573
-39.8974
-39.2657
-38.4258
-37.44
-36.3766
-35.2987
-34.2122
-32.9822
-31.4492
-29.4535
-26.828
-23.6905
-20.466
68.9287
65.1272
57.5687
49.4235
42.0867
35.9298
30.9489
27.0352
24.076
21.7986
19.9619
18.3957
16.9802
15.6241
14.2508
12.802
11.2687
9.6983
8.13017
6.60231
5.12938
3.72052
2.36832
1.06262
-0.216148
-1.48505
-2.74329
-3.98346
-5.17928
-6.30162
-7.31184
-8.20513
-9.00275
-9.73262
-10.4233
-11.1114
-11.851
-12.7232
-13.8034
-15.0247
-16.313
-17.598
-18.8242
-19.9212
-20.8219
-21.4577
-21.8399
-22.0545
-22.1817
-22.2933
-22.4563
-22.7626
-23.34
-24.3058
-25.5351
-26.8935
-28.2645
-29.5606
-30.6798
-31.5255
-32.0029
-32.1307
-32.0372
-31.8381
-31.6368
-31.5269
-31.6368
-32.1442
-33.2137
-34.6766
-36.3511
-38.0796
-39.7399
-41.1788
-42.2363
-42.7352
-42.6598
-42.1445
-41.3077
-40.2422
-39.0239
-37.7687
-36.6562
-35.8288
-34.9078
-33.6146
-31.7079
-28.4577
-23.9834
-19.4083
96.5377
83.4138
67.2028
53.5656
43.2085
35.4194
29.5812
25.2727
22.5229
20.6154
19.1361
17.8836
16.7392
15.6112
14.3964
12.9715
11.3186
9.61482
7.90989
6.29349
4.75767
3.33075
1.97909
0.697092
-0.563955
-1.85435
-3.15685
-4.48099
-5.76439
-6.97427
-7.9852
-8.80074
-9.48111
-10.0727
-10.5995
-11.0923
-11.6117
-12.3308
-13.5742
-15.0352
-16.5884
-18.121
-19.6088
-20.9291
-21.9928
-22.5719
-22.6886
-22.5928
-22.3973
-22.1888
-22.0035
-21.9493
-22.2895
-23.5603
-25.2177
-27.0218
-28.7974
-30.5013
-31.9669
-33.0643
-33.4784
-33.2411
-32.7275
-32.0977
-31.4785
-30.9161
-30.564
-30.7841
-32.3225
-34.4361
-36.8024
-39.196
-41.5687
-43.6862
-45.3453
-46.0136
-45.6956
-44.8542
-43.6784
-42.2785
-40.6606
-38.9549
-37.6027
-37.5797
-37.3692
-36.6632
-35.8965
-31.85
-24.4211
-17.2511
151.216
106.144
73.1288
52.9832
40.6312
32.099
26.01
21.2653
19.7563
18.8153
17.9835
17.2154
16.4739
15.7232
14.844
13.4692
11.4414
9.53269
7.56186
5.86838
4.22894
2.83241
1.48943
0.301272
-0.8696
-2.20627
-3.53929
-5.03722
-6.45539
-7.93342
-8.93988
-9.59098
-10.0873
-10.506
-10.8246
-11.0347
-11.0849
-11.1834
-13.0312
-14.9129
-16.8933
-18.7083
-20.6343
-22.3063
-23.8611
-24.3518
-23.8431
-23.2744
-22.6312
-22.0505
-21.3616
-20.5679
-19.8985
-22.258
-24.6884
-27.1909
-29.4334
-31.7845
-33.7839
-35.5868
-35.8913
-34.7489
-33.5846
-32.3417
-31.2379
-30.0021
-28.667
-27.525
-30.6028
-33.8311
-37.2142
-40.342
-43.7642
-46.8534
-49.8804
-50.7116
-49.4844
-48.0447
-46.3716
-44.6279
-42.4231
-39.6316
-36.6345
-39.6
-40.5436
-39.7987
-44.8077
-40.1124
-24.4855
-12.2071
277.445
111.511
60.5215
41.1771
32.553
25.26
20.5025
12.598
16.1716
16.8576
16.7388
16.5087
16.2215
16.0198
16.005
14.9068
11.3925
9.53977
6.81424
5.36529
3.35029
2.25684
0.776741
-0.119517
-0.936569
-2.56349
-3.68431
-5.7083
-7.0602
-9.57161
-10.4063
-10.6041
-10.8051
-11.0833
-11.206
-11.2071
-10.4883
-7.51694
-12.4396
-14.648
-17.4364
-19.1356
-22.0253
-23.8522
-27.2613
-27.5706
-25.0839
-24.0628
-22.775
-22.0677
-20.8706
-19.0071
-13.1459
-20.8533
-24.0552
-27.734
-29.9128
-33.5737
-35.8836
-40.2664
-40.3875
-36.2879
-34.5545
-32.385
-31.1869
-29.2308
-26.4915
-18.1891
-28.6661
-33.0029
-37.993
-41.0634
-46.439
-50.1096
-57.577
-58.373
-53.5788
-51.5708
-49.1657
-47.6408
-45.0301
-40.6039
-27.0799
-44.5313
-46.149
-34.6481
-67.6925
-64.1159
-19.7277
0.565215
-21.1229
-19.9747
-18.8752
-17.8397
-16.8801
-16.0048
-15.2189
-14.525
-13.9234
-13.4134
-12.9931
-12.6603
-12.413
-12.2492
-12.1676
-21.0924
-19.9258
-18.8109
-17.7636
-16.7957
-15.9152
-15.1268
-14.4323
-13.8318
-13.3235
-12.9054
-12.5748
-12.3292
-12.1668
-12.0859
-21.029
-19.8248
-18.6789
-17.6079
-16.6236
-15.7332
-14.9404
-14.2457
-13.6476
-13.1434
-12.73
-12.4039
-12.1623
-12.0026
-11.9232
-20.9281
-19.6654
-18.4718
-17.3652
-16.3572
-15.4536
-14.6558
-13.9623
-13.3693
-12.8725
-12.467
-12.1486
-11.9132
-11.7581
-11.681
-20.7817
-19.4365
-18.1774
-17.0238
-15.9862
-15.0679
-14.2669
-13.578
-12.9947
-12.51
-12.117
-11.8099
-11.5839
-11.4353
-11.3616
-20.5771
-19.1212
-17.7773
-16.5662
-15.4958
-14.5647
-13.7655
-13.0881
-12.5215
-12.0555
-11.6809
-11.39
-11.177
-11.0374
-10.9683
-20.295
-18.6935
-17.2442
-15.9676
-14.866
-13.9294
-13.1422
-12.4871
-11.9476
-11.5095
-11.1608
-10.8922
-10.6966
-10.5688
-10.5058
-19.9042
-18.1136
-16.538
-15.194
-14.0708
-13.1445
-12.3866
-11.7702
-11.2722
-10.8739
-10.5605
-10.3212
-10.1481
-10.0355
-9.98005
-19.3533
-17.3183
-15.6003
-14.1992
-13.0788
-12.191
-11.4894
-10.9349
-10.4971
-10.1531
-9.88602
-9.68408
-9.53891
-9.44494
-9.39876
-18.551
-16.2058
-14.3455
-12.9235
-11.854
-11.0511
-10.4448
-9.98282
-9.62812
-9.3551
-9.14631
-8.99002
-8.87841
-8.80646
-8.77119
-17.3259
-14.6081
-12.652
-11.2954
-10.3624
-9.71458
-9.25578
-8.92332
-8.67733
-8.49279
-8.35401
-8.25117
-8.17814
-8.13121
-8.10822
-15.3339
-12.2484
-10.3589
-9.24346
-8.58562
-8.18886
-7.94032
-7.77722
-7.66499
-7.58461
-7.52566
-7.48239
-7.45169
-7.4319
-7.42218
-11.8535
-8.69276
-7.29154
-6.73384
-6.54761
-6.51481
-6.53934
-6.58017
-6.62069
-6.65493
-6.68153
-6.70095
-6.71424
-6.72243
-6.72631
-5.33507
-3.37744
-3.38057
-3.85266
-4.3561
-4.78336
-5.12196
-5.38337
-5.58258
-5.7328
-5.8445
-5.92557
-5.98179
-6.01718
-6.03426
7.51968
3.89869
0.999426
-0.940086
-2.2407
-3.14053
-3.78172
-4.24869
-4.59338
-4.84913
-5.03801
-5.17496
-5.27011
-5.33016
-5.35921
-33.3808
-33.4438
-33.5753
-33.7868
-34.0984
-34.5421
-35.1698
-36.068
-37.3913
-39.4456
-42.9326
-49.8137
-66.9454
-123.665
-365.741
-36.4898
-36.6182
-36.8859
-37.3164
-37.9504
-38.8544
-40.1369
-41.9805
-44.709
-48.9363
-55.9245
-68.4818
-93.165
-144.342
-238.209
-39.5097
-39.696
-40.0835
-40.7047
-41.615
-42.904
-44.7145
-47.2788
-50.986
-56.5098
-65.0492
-78.7292
-100.986
-135.372
-175.861
-42.4004
-42.6342
-43.1191
-43.8924
-45.0169
-46.5915
-48.7686
-51.7835
-56.0014
-61.9893
-70.6039
-83.0201
-100.385
-122.164
-141.63
-45.1288
-45.3981
-45.9546
-46.8363
-48.1063
-49.8606
-52.241
-55.4528
-59.7879
-65.6449
-73.5185
-83.8743
-96.7173
-110.562
-120.917
-47.6705
-47.9627
-48.5643
-49.5107
-50.8594
-52.695
-55.1361
-58.3421
-62.5175
-67.9002
-74.7095
-83.0009
-92.3544
-101.382
-107.395
-50.0092
-50.3127
-50.9346
-51.9057
-53.2745
-55.1092
-57.4999
-60.5581
-64.4086
-69.1648
-74.8715
-81.3899
-88.2174
-94.2963
-98.0476
-52.1373
-52.4417
-53.0626
-54.0248
-55.3661
-57.1372
-59.4003
-62.224
-65.6706
-69.7695
-74.4696
-79.5642
-84.6001
-88.8266
-91.3054
-54.0542
-54.3509
-54.9535
-55.8807
-57.1593
-58.8235
-60.9114
-63.4574
-66.4796
-69.9566
-73.7939
-77.7792
-81.5448
-84.5705
-86.2845
-55.765
-56.0476
-56.6193
-57.4925
-58.6847
-60.2158
-62.1044
-64.3602
-66.9726
-69.8936
-73.0152
-76.1468
-79.0033
-81.2253
-82.4537
-57.2797
-57.5437
-58.0757
-58.8829
-59.9748
-61.3599
-63.0424
-65.0153
-67.2514
-69.6911
-72.2295
-74.7054
-76.9023
-78.5699
-79.4759
-58.6112
-58.8538
-59.341
-60.0758
-61.0612
-62.2975
-63.7788
-65.4877
-67.3887
-69.4202
-71.4871
-73.4578
-75.1687
-76.4435
-77.1271
-59.7741
-59.9941
-60.4343
-61.0947
-61.9734
-63.065
-64.3571
-65.8267
-67.4354
-69.1245
-70.8116
-72.3906
-73.7379
-74.7275
-75.253
-60.7844
-60.9815
-61.3748
-61.9619
-62.7378
-63.6932
-64.8121
-66.0692
-67.4263
-68.8302
-70.2111
-71.4842
-72.5556
-73.3337
-73.7439
-61.6578
-61.8327
-62.1808
-62.6981
-63.3776
-64.2079
-65.1713
-66.2421
-67.3847
-68.552
-69.6855
-70.7178
-71.5769
-72.1954
-72.5195
-62.4097
-62.5636
-62.8692
-63.3217
-63.9128
-64.6301
-65.4558
-66.3653
-67.3259
-68.2971
-69.2303
-70.0715
-70.7654
-71.2614
-71.5201
-63.0548
-63.1893
-63.4558
-63.849
-64.3603
-64.9771
-65.6823
-66.4528
-67.2599
-68.0686
-68.8388
-69.5274
-70.0914
-70.4921
-70.7005
-63.6064
-63.7233
-63.9543
-64.2942
-64.7345
-65.2629
-65.8633
-66.515
-67.1927
-67.8668
-68.5041
-69.0699
-69.5306
-69.8565
-70.0254
-64.077
-64.178
-64.3773
-64.6699
-65.0474
-65.4986
-66.0087
-66.5591
-67.1281
-67.6904
-68.2189
-68.6855
-69.0635
-69.3299
-69.4676
-64.4774
-64.5643
-64.7357
-64.9865
-65.3092
-65.6935
-66.126
-66.5905
-67.0681
-67.5377
-67.9767
-68.3625
-68.6739
-68.8926
-69.0055
-64.8176
-64.8921
-65.0388
-65.2532
-65.5284
-65.8549
-66.221
-66.6127
-67.0136
-67.4061
-67.7715
-68.0913
-68.3485
-68.5288
-68.6217
-65.1059
-65.1696
-65.2949
-65.4777
-65.7118
-65.9888
-66.2984
-66.6284
-66.965
-67.2933
-67.5978
-67.8635
-68.0767
-68.2257
-68.3024
-65.3501
-65.4044
-65.5112
-65.6667
-65.8654
-66.1
-66.3616
-66.6396
-66.9222
-67.197
-67.4511
-67.6723
-67.8493
-67.9728
-68.0363
-65.5566
-65.6028
-65.6936
-65.8256
-65.9941
-66.1926
-66.4134
-66.6475
-66.8848
-67.115
-67.3273
-67.5117
-67.659
-67.7616
-67.8144
-65.731
-65.7702
-65.8473
-65.9592
-66.1019
-66.2697
-66.456
-66.6531
-66.8525
-67.0454
-67.223
-67.3769
-67.4997
-67.5851
-67.629
-65.8781
-65.9114
-65.9767
-66.0716
-66.1923
-66.334
-66.4911
-66.657
-66.8246
-66.9864
-67.1351
-67.2638
-67.3662
-67.4375
-67.4741
-66.0022
-66.0304
-66.0857
-66.166
-66.268
-66.3877
-66.5202
-66.6598
-66.8007
-66.9365
-67.0611
-67.1688
-67.2545
-67.314
-67.3445
-66.1066
-66.1305
-66.1773
-66.2452
-66.3314
-66.4325
-66.5442
-66.6618
-66.7803
-66.8943
-66.9989
-67.0891
-67.1608
-67.2107
-67.2362
-66.1945
-66.2147
-66.2543
-66.3117
-66.3846
-66.4699
-66.5641
-66.6632
-66.7629
-66.8588
-66.9466
-67.0223
-67.0824
-67.1242
-67.1455
-66.2683
-66.2854
-66.319
-66.3675
-66.4291
-66.5012
-66.5807
-66.6642
-66.7482
-66.8289
-66.9027
-66.9663
-67.0168
-67.0518
-67.0697
-66.3303
-66.3448
-66.3732
-66.4143
-66.4664
-66.5273
-66.5944
-66.6649
-66.7358
-66.8038
-66.8659
-66.9194
-66.9619
-66.9913
-67.0064
-66.3822
-66.3945
-66.4185
-66.4534
-66.4975
-66.549
-66.6058
-66.6654
-66.7253
-66.7827
-66.8351
-66.8802
-66.916
-66.9408
-66.9535
-66.4256
-66.436
-66.4564
-66.486
-66.5234
-66.5672
-66.6153
-66.6658
-66.7165
-66.765
-66.8094
-66.8475
-66.8778
-66.8987
-66.9094
-66.4617
-66.4706
-66.488
-66.5131
-66.545
-66.5822
-66.6231
-66.6661
-66.7091
-66.7503
-66.788
-66.8203
-66.846
-66.8637
-66.8728
-66.4917
-66.4993
-66.5142
-66.5357
-66.5629
-66.5946
-66.6296
-66.6662
-66.7029
-66.7381
-66.7702
-66.7978
-66.8196
-66.8347
-66.8425
-66.5164
-66.5229
-66.5357
-66.5542
-66.5776
-66.6049
-66.6349
-66.6664
-66.6979
-66.728
-66.7556
-66.7792
-66.7979
-66.8109
-66.8175
-66.5366
-66.5422
-66.5533
-66.5693
-66.5896
-66.6132
-66.6392
-66.6664
-66.6937
-66.7198
-66.7436
-66.7641
-66.7803
-66.7915
-66.7972
-66.5528
-66.5578
-66.5675
-66.5815
-66.5992
-66.6199
-66.6427
-66.6665
-66.6904
-66.7132
-66.734
-66.7519
-66.766
-66.7758
-66.7808
-66.5656
-66.57
-66.5786
-66.5911
-66.6068
-66.6252
-66.6454
-66.6666
-66.6877
-66.708
-66.7264
-66.7423
-66.7548
-66.7635
-66.768
-66.5753
-66.5793
-66.5871
-66.5984
-66.6126
-66.6292
-66.6475
-66.6666
-66.6857
-66.704
-66.7207
-66.735
-66.7463
-66.7541
-66.7582
-66.5823
-66.586
-66.5932
-66.6036
-66.6168
-66.6321
-66.649
-66.6666
-66.6843
-66.7011
-66.7165
-66.7297
-66.7402
-66.7474
-66.7511
-66.5867
-66.5902
-66.597
-66.6069
-66.6194
-66.6339
-66.6499
-66.6666
-66.6833
-66.6993
-66.7139
-66.7264
-66.7363
-66.7432
-66.7467
-66.5887
-66.5921
-66.5988
-66.6084
-66.6206
-66.6347
-66.6503
-66.6666
-66.6829
-66.6985
-66.7127
-66.7249
-66.7346
-66.7413
-66.7447
-66.5884
-66.5918
-66.5985
-66.6081
-66.6204
-66.6346
-66.6503
-66.6666
-66.683
-66.6987
-66.7129
-66.7252
-66.7349
-66.7416
-66.745
-66.5857
-66.5892
-66.5961
-66.6061
-66.6187
-66.6335
-66.6497
-66.6666
-66.6836
-66.6998
-66.7146
-66.7272
-66.7373
-66.7442
-66.7478
-66.5805
-66.5842
-66.5916
-66.6022
-66.6157
-66.6313
-66.6486
-66.6666
-66.6846
-66.7019
-66.7176
-66.7311
-66.7418
-66.7492
-66.753
-66.5727
-66.5768
-66.5848
-66.5964
-66.611
-66.6281
-66.6469
-66.6666
-66.6863
-66.7051
-66.7222
-66.737
-66.7486
-66.7567
-66.7608
-66.562
-66.5666
-66.5755
-66.5884
-66.6047
-66.6238
-66.6447
-66.6666
-66.6885
-66.7094
-66.7285
-66.7449
-66.7579
-66.7669
-66.7715
-66.5482
-66.5534
-66.5635
-66.5781
-66.5965
-66.6181
-66.6417
-66.6665
-66.6913
-66.7151
-66.7367
-66.7553
-66.77
-66.7802
-66.7854
-66.5308
-66.5368
-66.5483
-66.565
-66.5862
-66.6109
-66.638
-66.6665
-66.6949
-66.7222
-66.747
-66.7683
-66.7852
-66.7969
-66.8029
-66.5094
-66.5162
-66.5296
-66.5489
-66.5734
-66.602
-66.6335
-66.6664
-66.6994
-66.7309
-66.7597
-66.7845
-66.804
-66.8176
-66.8245
-66.4831
-66.4911
-66.5067
-66.5293
-66.5578
-66.5912
-66.6278
-66.6663
-66.7048
-66.7416
-66.7753
-66.8042
-66.827
-66.8429
-66.851
-66.4513
-66.4607
-66.479
-66.5054
-66.5389
-66.578
-66.621
-66.6661
-66.7113
-66.7546
-66.7941
-66.828
-66.8549
-66.8736
-66.8831
-66.4131
-66.4241
-66.4456
-66.4767
-66.5161
-66.5621
-66.6128
-66.6659
-66.7191
-66.7702
-66.8168
-66.8568
-66.8886
-66.9106
-66.9218
-66.3672
-66.3801
-66.4055
-66.4422
-66.4887
-66.543
-66.6028
-66.6655
-66.7285
-66.7888
-66.844
-66.8914
-66.929
-66.955
-66.9683
-66.3123
-66.3276
-66.3576
-66.4009
-66.4558
-66.5201
-66.5908
-66.6651
-66.7396
-66.8111
-66.8765
-66.9328
-66.9774
-67.0083
-67.0241
-66.2468
-66.2649
-66.3003
-66.3516
-66.4166
-66.4926
-66.5764
-66.6644
-66.7528
-66.8377
-66.9154
-66.9822
-67.0353
-67.0721
-67.0909
-66.1688
-66.1902
-66.232
-66.2927
-66.3696
-66.4597
-66.5591
-66.6635
-66.7685
-66.8694
-66.9617
-67.0413
-67.1045
-67.1483
-67.1707
-66.0759
-66.1012
-66.1507
-66.2225
-66.3136
-66.4203
-66.5382
-66.6622
-66.787
-66.907
-67.017
-67.1118
-67.1871
-67.2394
-67.2661
-65.9655
-65.9954
-66.0539
-66.1389
-66.2468
-66.3733
-66.5131
-66.6604
-66.8087
-66.9516
-67.0827
-67.1958
-67.2857
-67.3481
-67.3801
-65.8344
-65.8696
-65.9389
-66.0393
-66.167
-66.3169
-66.4828
-66.6578
-66.8343
-67.0045
-67.1608
-67.2959
-67.4034
-67.4781
-67.5164
-65.6787
-65.7204
-65.8021
-65.9208
-66.0719
-66.2494
-66.4462
-66.6541
-66.8642
-67.0671
-67.2537
-67.4152
-67.5438
-67.6333
-67.6792
-65.4941
-65.5432
-65.6396
-65.7798
-65.9584
-66.1686
-66.402
-66.649
-66.899
-67.141
-67.364
-67.5572
-67.7114
-67.8188
-67.8739
-65.2755
-65.3333
-65.4468
-65.6121
-65.823
-66.0716
-66.3483
-66.6417
-66.9394
-67.2282
-67.4949
-67.7265
-67.9115
-68.0405
-68.1068
-65.0167
-65.0846
-65.2181
-65.4127
-65.6614
-65.9552
-66.2829
-66.6314
-66.9859
-67.3309
-67.6501
-67.928
-68.1505
-68.3059
-68.3857
-64.7108
-64.7904
-64.947
-65.1756
-65.4685
-65.8153
-66.2032
-66.6169
-67.0392
-67.4513
-67.834
-68.168
-68.4361
-68.6236
-68.7202
-64.3496
-64.4426
-64.626
-64.894
-65.2382
-65.6468
-66.1055
-66.5964
-67.0995
-67.5923
-68.0515
-68.4538
-68.7776
-69.0046
-69.1216
-63.9237
-64.0322
-64.2462
-64.5595
-64.963
-65.4437
-65.9853
-66.5675
-67.1668
-67.7566
-68.3087
-68.7942
-69.1863
-69.4619
-69.6042
-63.4226
-63.5486
-63.7973
-64.1625
-64.6342
-65.1984
-65.8369
-66.5268
-67.2407
-67.9472
-68.6119
-69.1995
-69.6759
-70.0119
-70.1856
-62.834
-62.9796
-63.2676
-63.6916
-64.2411
-64.9015
-65.6528
-66.4694
-67.3198
-68.1668
-68.9688
-69.6818
-70.263
-70.6744
-70.8877
-62.1444
-62.3118
-62.6436
-63.1335
-63.7711
-64.5415
-65.4233
-66.3885
-67.4012
-68.4177
-69.3875
-70.2558
-70.9679
-71.4744
-71.7379
-61.3386
-61.5298
-61.9098
-62.4727
-63.2091
-64.104
-65.1359
-66.2746
-67.4799
-68.7009
-69.8765
-70.9383
-71.8155
-72.4433
-72.771
-60.3999
-60.6169
-61.0489
-61.6915
-62.5369
-63.5715
-64.7744
-66.1145
-67.5478
-69.0157
-70.4446
-71.7488
-72.8364
-73.6204
-74.0317
-59.3107
-59.5546
-60.0417
-60.7697
-61.7332
-62.9221
-64.3177
-65.8897
-67.5917
-69.3575
-71.0994
-72.7096
-74.068
-75.0564
-75.578
-58.052
-58.3236
-58.8674
-59.6842
-60.7732
-62.1291
-63.7385
-65.5746
-67.5912
-69.716
-71.8456
-73.8453
-75.5566
-76.8164
-77.4865
-56.6049
-56.9035
-57.5035
-58.4098
-59.6278
-61.1601
-63.0018
-65.1342
-67.5156
-70.071
-72.6819
-75.1812
-77.3587
-78.9859
-79.8602
-54.9505
-55.2741
-55.9268
-56.9191
-58.2643
-59.9762
-62.0633
-64.5209
-67.3192
-70.3874
-73.5958
-76.7404
-79.543
-81.6782
-82.8409
-53.0715
-53.4163
-54.1145
-55.1832
-56.6462
-58.5318
-60.8675
-63.6709
-66.9353
-70.6066
-74.5538
-78.5372
-82.1906
-85.0456
-86.629
-50.9532
-51.313
-52.045
-53.1736
-54.7347
-56.7749
-59.3469
-62.5009
-66.2688
-70.6341
-75.4866
-80.5631
-85.3926
-89.2961
-91.5165
-48.585
-48.9515
-49.7003
-50.8636
-52.4907
-54.6489
-57.422
-60.9047
-65.1875
-70.3231
-76.2637
-82.7604
-89.2376
-94.7152
-97.9459
-45.9624
-46.3246
-47.0678
-48.2315
-49.8779
-52.0959
-55.0043
-58.7529
-63.514
-69.4531
-76.6546
-84.9711
-93.7766
-101.694
-106.619
-43.0885
-43.4331
-44.1435
-45.2644
-46.8683
-49.0635
-52.0033
-55.898
-61.0225
-67.7065
-76.2711
-86.8422
-98.9318
-110.752
-118.711
-39.9754
-40.2878
-40.9343
-41.9618
-43.4483
-45.5141
-48.3393
-52.1891
-57.4481
-64.6537
-74.4941
-87.6587
-104.274
-122.493
-136.329
-36.6456
-36.9105
-37.4607
-38.3407
-39.6262
-41.4376
-43.9638
-47.5017
-52.5218
-59.7712
-70.4088
-86.0788
-108.502
-137.276
-163.555
-33.1321
-33.3352
-33.7583
-34.4382
-35.4389
-36.8647
-38.8858
-41.785
-46.0475
-52.5359
-62.8287
-79.8094
-108.319
-153.791
-209.031
-29.4777
-29.6073
-29.8777
-30.3132
-30.9565
-31.8785
-33.1982
-35.1218
-38.0274
-42.6588
-50.6043
-65.5338
-96.3564
-163.522
-292.866
-25.7335
-25.782
-25.8828
-26.0442
-26.2807
-26.6163
-27.0914
-27.7769
-28.8089
-30.4805
-33.5301
-40.2216
-59.1554
-130.073
-466.523
-21.9559
-21.9206
-21.8459
-21.7231
-21.5362
-21.2575
-20.8386
-20.1915
-19.1466
-17.3456
-13.927
-6.40812
14.1457
87.7728
427.42
-18.2031
-18.0867
-17.8427
-17.4469
-16.8558
-15.9963
-14.7444
-12.8826
-10.0097
-5.33448
2.82826
18.3531
50.5899
120.882
255.992
-14.5315
-14.3416
-13.9453
-13.3065
-12.362
-11.0079
-9.07408
-6.27626
-2.12489
4.25418
14.4703
31.5086
60.6063
108.976
178.396
24.2739
9.90684
4.13464
1.14413
-0.668964
-1.87163
-2.71284
-3.3206
-3.76811
-4.10034
-4.34629
-4.52517
-4.64984
-4.72874
-4.76699
15.3466
9.40005
5.05307
2.2212
0.33599
-0.969084
-1.90323
-2.58814
-3.09788
-3.47951
-3.76398
-3.97204
-4.11771
-4.2102
-4.25512
10.5487
7.78237
4.91931
2.64085
0.938065
-0.324123
-1.26667
-1.97731
-2.51659
-2.92613
-3.23469
-3.46222
-3.62248
-3.72465
-3.7744
7.67169
6.23184
4.37951
2.66072
1.23416
0.0988708
-0.791168
-1.48545
-2.02537
-2.44285
-2.76164
-2.99908
-3.16755
-3.27549
-3.32819
5.79454
4.96771
3.74694
2.47762
1.32797
0.35155
-0.451598
-1.10077
-1.61917
-2.02809
-2.34506
-2.58382
-2.75461
-2.86466
-2.91856
4.49154
3.9771
3.14805
2.2114
1.30147
0.483898
-0.218957
-0.806879
-1.289
-1.67714
-1.98278
-2.21575
-2.38383
-2.49278
-2.54634
3.54574
3.20494
2.62386
1.92661
1.21082
0.536576
-0.0661288
-0.586461
-1.02407
-1.38349
-1.67096
-1.8927
-2.05411
-2.15936
-2.21128
2.83657
2.59963
2.18032
1.65467
1.09131
0.53957
0.0294967
-0.423488
-0.813423
-1.13979
-1.40475
-1.61153
-1.76336
-1.86295
-1.91226
2.29191
2.12093
1.81061
1.4089
0.96371
0.513627
0.0854764
-0.304294
-0.646921
-0.938706
-1.17895
-1.36852
-1.50886
-1.60146
-1.64745
1.86598
1.73897
1.50435
1.19332
0.839502
0.472449
0.114802
-0.217836
-0.51572
-0.77341
-0.988335
-1.15967
-1.28751
-1.37232
-1.41458
1.52823
1.43171
1.25115
1.00744
0.724479
0.424733
0.12676
-0.155509
-0.412428
-0.637804
-0.827981
-0.981015
-1.09602
-1.17271
-1.21104
1.2575
1.18282
1.04178
0.8488
0.621108
0.375783
0.127811
-0.110787
-0.331036
-0.526636
-0.693413
-0.828759
-0.931141
-0.999726
-1.0341
1.03862