/*--------------------------------*- C++ -*----------------------------------*\
| =========                 |                                                 |
| \\      /  F ield         | OpenFOAM: The Open Source CFD Toolbox           |
|  \\    /   O peration     | Version:  5.x                                   |
|   \\  /    A nd           | Web:      www.OpenFOAM.org                      |
|    \\/     M anipulation  |                                                 |
\*---------------------------------------------------------------------------*/
FoamFile
{
    version     2.0;
    format      ascii;
    class       volScalarField;
    location    "15.2";
    object      T;
}
// * * * * * * * * * * * * * * * * * * * * * * * * * * * * * * * * * * * * * //

dimensions      [0 0 0 1 0 0 0];

internalField   nonuniform List<scalar> 
6300
(
10.0013
10.0051
10.013
10.0275
10.0512
10.0865
10.1354
10.1999
10.2814
10.381
10.4991
10.6356
10.7898
10.96
11.1443
9.9999
10.0011
10.0063
10.0184
10.0397
10.0728
10.1198
10.1828
10.2633
10.3624
10.4807
10.618
10.7736
10.9459
11.1327
9.99718
9.99295
9.99292
9.99982
10.0164
10.0451
10.0883
10.1482
10.2266
10.3246
10.4431
10.582
10.7406
10.9172
11.1093
9.99306
9.98063
9.97254
9.97166
9.98082
10.0028
10.0401
10.0951
10.17
10.2663
10.385
10.5263
10.6895
10.8727
11.0733
9.98748
9.96395
9.94493
9.93344
9.93249
9.94506
9.97404
10.0222
10.092
10.1856
10.3043
10.4488
10.6183
10.8109
11.0235
9.9804
9.94275
9.90978
9.88467
9.87063
9.87091
9.88881
9.92757
9.99028
10.0797
10.1979
10.346
10.5238
10.7291
10.9581
9.97175
9.91685
9.86677
9.82482
9.79441
9.77912
9.78268
9.80894
9.86179
9.94492
10.0615
10.2136
10.4017
10.6236
10.8746
9.9615
9.88612
9.81563
9.75341
9.70306
9.66846
9.65381
9.66368
9.70296
9.77665
9.88949
10.0452
10.2456
10.4891
10.7696
9.94964
9.85051
9.7562
9.67011
9.59595
9.53782
9.50039
9.48899
9.50968
9.56919
9.67451
9.83215
10.0465
10.3174
10.638
9.93619
9.81006
9.68853
9.57488
9.47278
9.38645
9.32091
9.28217
9.27756
9.31585
9.40718
9.56231
9.79062
10.0962
10.4719
9.92122
9.76502
9.61297
9.46808
9.33382
9.21429
9.11459
9.04119
9.0025
9.00943
9.076
9.21923
9.45747
9.80466
10.2584
9.9049
9.71583
9.53022
9.35065
9.1801
9.02227
8.88193
8.76548
8.68177
8.64335
8.6681
8.78111
9.01532
9.40657
9.9729
9.88745
9.66317
9.44144
9.22417
9.01364
8.81275
8.62537
8.457
8.31573
8.21405
8.17189
8.22173
8.41607
8.83333
9.55993
9.86917
9.60796
9.3482
9.09095
8.83754
8.58969
8.34979
8.12138
7.91006
7.7252
7.58365
7.51782
7.59383
7.9507
8.8608
9.85042
9.55132
9.25242
8.95387
8.65586
8.35866
8.06269
7.76867
7.4779
7.193
6.91967
6.67202
6.49069
6.51476
7.30411
11.3237
11.4928
11.6662
11.8421
12.0185
12.1939
12.3667
12.5355
12.6991
12.8564
13.0066
13.1489
13.2828
13.4079
13.5238
13.6302
13.7269
13.8137
13.8907
13.9578
14.0149
14.062
14.0994
14.1269
14.1447
14.153
14.1519
14.1414
14.1217
14.0931
14.0556
14.0093
13.9546
13.8914
13.82
13.7405
13.653
13.5578
13.4548
13.3444
13.2265
13.1015
12.9694
12.8304
12.6846
12.5323
12.3735
12.2084
12.0372
11.86
11.677
11.4881
11.2936
11.0936
10.8882
10.6776
10.4618
10.241
10.0154
9.78519
9.55054
9.31166
9.06876
8.82205
8.57177
8.31816
8.06147
7.80198
7.54
7.27587
7.00998
6.74275
6.47469
6.20631
5.93822
5.67103
5.40541
5.14205
4.88166
4.62495
4.3726
4.12531
3.8837
3.64838
3.41989
3.19868
2.98515
2.77959
2.5822
2.39306
11.3149
11.4866
11.6627
11.8411
12.02
12.1976
12.3724
12.5429
12.7079
12.8665
13.0177
13.1609
13.2955
13.4211
13.5373
13.644
13.7408
13.8278
13.9049
13.9719
14.029
14.0761
14.1133
14.1407
14.1584
14.1665
14.1651
14.1544
14.1345
14.1057
14.0679
14.0215
13.9665
13.9031
13.8315
13.7518
13.6641
13.5686
13.4655
13.3548
13.2368
13.1115
12.9792
12.8399
12.6939
12.5414
12.3824
12.2171
12.0457
11.8684
11.6851
11.4961
11.3015
11.1013
10.8957
10.6848
10.4688
10.2478
10.0219
9.79145
9.55651
9.31733
9.07412
8.82708
8.57646
8.32248
8.0654
7.80547
7.543
7.27831
7.0118
6.74388
6.47505
6.20583
5.93683
5.66869
5.40208
5.13771
4.87631
4.61859
4.36528
4.11706
3.8746
3.63851
3.40934
3.18758
2.97363
2.76779
2.57027
2.38116
11.297
11.4741
11.6556
11.8393
12.0231
12.2053
12.3841
12.5581
12.7261
12.8871
13.0403
13.1851
13.3209
13.4475
13.5645
13.6717
13.7689
13.8561
13.9333
14.0003
14.0573
14.1042
14.1412
14.1683
14.1856
14.1934
14.1916
14.1805
14.1602
14.1308
14.0927
14.0458
13.9903
13.9265
13.8545
13.7744
13.6863
13.5904
13.4868
13.3757
13.2572
13.1315
12.9987
12.859
12.7126
12.5596
12.4002
12.2345
12.0627
11.885
11.7014
11.5121
11.3171
11.1166
10.9106
10.6994
10.4829
10.2614
10.035
9.804
9.56849
9.3287
9.08486
8.83718
8.58588
8.33118
8.07332
7.81253
7.54909
7.28331
7.01556
6.74625
6.47587
6.20497
5.93415
5.66407
5.39546
5.12904
4.86558
4.60584
4.35056
4.10048
3.85628
3.61863
3.38809
3.16521
2.95039
2.74399
2.54621
2.35715
11.2698
11.4553
11.6452
11.8371
12.0286
12.2176
12.4025
12.5818
12.7541
12.9188
13.0749
13.222
13.3597
13.4876
13.6056
13.7136
13.8113
13.8988
13.9761
14.0431
14.0999
14.1465
14.1831
14.2098
14.2266
14.2338
14.2314
14.2196
14.1986
14.1686
14.1297
14.0822
14.0261
13.9616
13.889
13.8082
13.7195
13.623
13.5188
13.4071
13.288
13.1616
13.0281
12.8877
12.7405
12.5868
12.4268
12.2605
12.0882
11.9099
11.7258
11.536
11.3406
11.1396
10.9331
10.7212
10.5041
10.2819
10.0548
9.82288
9.58648
9.34578
9.10101
8.85238
8.60009
8.34434
8.08534
7.8233
7.55844
7.29105
7.02146
6.75008
6.47737
6.2039
5.9303
5.65729
5.38561
5.11605
4.84944
4.58659
4.3283
4.07536
3.8285
3.58843
3.35579
3.13116
2.91501
2.70772
2.50955
2.32058
11.2325
11.43
11.632
11.8353
12.0374
12.236
12.429
12.6152
12.7933
12.9625
13.1223
13.2723
13.4122
13.5419
13.6611
13.7699
13.8683
13.9561
14.0334
14.1004
14.1569
14.2032
14.2392
14.2653
14.2814
14.2877
14.2845
14.2718
14.2499
14.219
14.1792
14.1307
14.0737
14.0084
13.9349
13.8533
13.7638
13.6665
13.5616
13.449
13.329
13.2017
13.0672
12.9259
12.7778
12.6231
12.4622
12.2951
12.122
11.943
11.7583
11.5679
11.3719
11.1703
10.9631
10.7505
10.5325
10.3094
10.0812
9.84814
9.61055
9.36862
9.12261
8.87272
8.61915
8.36208
8.10165
7.83801
7.57135
7.30188
7.02987
6.75572
6.47988
6.20293
5.92555
5.6485
5.37262
5.09876
4.82783
4.56072
4.2983
4.04142
3.79089
3.54749
3.31193
3.08485
2.86683
2.65831
2.45958
2.27078
11.1844
11.3983
11.6165
11.8353
12.0513
12.262
12.4654
12.6601
12.8451
13.0197
13.1838
13.3371
13.4795
13.6109
13.7316
13.8413
13.9402
14.0283
14.1057
14.1724
14.2286
14.2743
14.3097
14.3349
14.35
14.3554
14.351
14.3372
14.3141
14.282
14.241
14.1913
14.1332
14.0668
13.9922
13.9097
13.8192
13.721
13.615
13.5014
13.3803
13.2519
13.1162
12.9736
12.8242
12.6684
12.5063
12.3381
12.1641
11.9843
11.7989
11.6078
11.4112
11.2089
11.0009
10.7874
10.5684
10.3439
10.1144
9.87986
9.64073
9.39724
9.14967
8.89826
8.64317
8.38454
8.12246
7.85699
7.58821
7.31625
7.0413
6.7637
6.4839
6.2025
5.92025
5.63798
5.35663
5.07719
4.80066
4.52802
4.26025
3.99828
3.74298
3.49522
3.25579
3.02547
2.80494
2.59475
2.39529
2.20674
11.1243
11.3604
11.6003
11.839
12.0728
12.2985
12.5143
12.7188
12.9115
13.0921
13.2607
13.4173
13.5622
13.6956
13.8175
13.9281
14.0275
14.1159
14.1932
14.2596
14.3152
14.3601
14.3946
14.4187
14.4327
14.4367
14.431
14.4158
14.3912
14.3575
14.315
14.2639
14.2044
14.1367
14.0609
13.9773
13.8857
13.7864
13.6793
13.5645
13.4421
13.3123
13.1751
13.0309
12.8799
12.7225
12.5589
12.3894
12.2143
12.0336
11.8474
11.6557
11.4584
11.2554
11.0466
10.8321
10.6118
10.3858
10.1545
9.91814
9.67706
9.43162
9.18217
8.92896
8.67218
8.41188
8.14806
7.88065
7.60958
7.33482
7.05646
6.77476
6.49014
6.20324
5.91489
5.62606
5.33784
5.05137
4.76781
4.48827
4.21382
3.94547
3.68418
3.43089
3.18651
2.95196
2.72811
2.5157
2.31529
2.1271
11.0511
11.317
11.5855
11.8499
12.1056
12.3493
12.5792
12.7945
12.9952
13.1818
13.3546
13.5144
13.6615
13.7965
13.9195
14.0309
14.1307
14.2191
14.2962
14.3621
14.417
14.4609
14.4942
14.517
14.5296
14.532
14.5246
14.5076
14.4812
14.4457
14.4013
14.3485
14.2873
14.2181
14.1409
14.056
13.9633
13.8628
13.7545
13.6384
13.5146
13.383
13.244
13.0978
12.9448
12.7853
12.6199
12.4488
12.2723
12.0906
11.9037
11.7114
11.5137
11.3101
11.1006
10.8849
10.6631
10.4354
10.2019
9.9631
9.71953
9.47167
9.21997
8.96473
8.70614
8.44419
8.17873
7.90949
7.63616
7.35848
7.07637
6.78993
6.49958
6.206
5.91015
5.6132
5.31646
5.02132
4.72911
4.44113
4.15855
3.88244
3.61382
3.35368
3.10304
2.86302
2.63476
2.41936
2.21765
2.03001
10.9633
11.2699
11.5763
11.8734
12.1557
12.4198
12.6649
12.8911
13.0993
13.291
13.4673
13.6295
13.7783
13.9144
14.0383
14.1502
14.2502
14.3385
14.4152
14.4804
14.5342
14.577
14.6088
14.63
14.6408
14.6413
14.6319
14.6127
14.5841
14.5463
14.4998
14.4448
14.3817
14.3107
14.232
14.1457
14.0519
13.9503
13.8409
13.7234
13.5979
13.4644
13.3231
13.1743
13.0187
12.8567
12.6889
12.5158
12.3378
12.1551
11.9675
11.775
11.5771
11.3733
11.1632
10.9465
10.723
10.493
10.2567
10.0148
9.76808
9.51717
9.26274
9.00523
8.74484
8.48146
8.21475
7.94413
7.66891
7.38847
7.10241
6.81067
6.5136
6.21197
5.90693
5.59996
5.29273
4.98696
4.68428
4.38617
4.0939
3.80859
3.53122
3.26274
3.00424
2.75709
2.52288
2.30328
2.09971
1.91287
10.8597
11.2233
11.5802
11.9184
12.2316
12.5178
12.7777
13.0133
13.2272
13.4222
13.6004
13.7636
13.9131
14.0498
14.1742
14.2864
14.3865
14.4745
14.5506
14.6148
14.6674
14.7086
14.7387
14.7579
14.7666
14.7649
14.753
14.7313
14.7
14.6595
14.6103
14.5527
14.4872
14.4142
14.3339
14.2463
14.1514
14.049
13.9386
13.8198
13.6926
13.5568
13.4127
13.2607
13.1016
12.9362
12.7653
12.5897
12.41
12.2262
12.0385
11.8462
11.6489
11.4455
11.2353
11.0176
10.7923
10.5594
10.3195
10.0735
9.8225
9.56762
9.30984
9.0498
8.78773
8.52345
8.25631
7.9853
7.7091
7.42646
7.13655
6.83901
6.53413
6.22277
5.90642
5.58703
5.26685
4.94811
4.63283
4.32273
4.01919
3.72327
3.43577
3.15738
2.88908
2.63251
2.38992
2.16408
1.95767
1.77204
10.7401
11.1862
11.6109
11.9991
12.3462
12.6536
12.9253
13.1666
13.3824
13.5774
13.7548
13.9173
14.0663
14.2029
14.3274
14.4398
14.5399
14.6277
14.7029
14.7659
14.8168
14.856
14.8839
14.9008
14.9071
14.9028
14.8882
14.8635
14.8291
14.7852
14.7325
14.6718
14.6034
14.5281
14.4459
14.3572
14.2617
14.1589
14.0481
13.9284
13.7994
13.661
13.5135
13.3573
13.1935
13.0234
12.8484
12.6695
12.4877
12.3031
12.1156
11.9247
11.7292
11.5275
11.318
11.0997
10.8722
10.6357
10.391
10.1393
9.88237
9.62214
9.36006
9.09716
8.8337
8.56944
8.30336
8.03383
7.75845
7.47486
7.18158
6.87783
6.56389
6.24068
5.91022
5.57515
5.23884
4.9042
4.57388
4.24977
3.93345
3.62577
3.32718
3.03746
2.75697
2.48775
2.23282
1.99686
1.78569
1.60202
10.6088
11.1795
11.6943
12.139
12.518
12.8404
13.1169
13.3563
13.5674
13.7575
13.9308
14.0902
14.2373
14.3732
14.4977
14.6107
14.7111
14.7986
14.8728
14.9341
14.9828
15.0195
15.0448
15.059
15.0625
15.0554
15.0378
15.0097
14.9714
14.9234
14.8663
14.8015
14.7296
14.6515
14.5674
14.4777
14.3822
14.2802
14.1701
14.0502
13.9197
13.7783
13.6264
13.4645
13.2944
13.1175
12.9368
12.7535
12.5692
12.3838
12.1976
12.0096
11.8183
11.6206
11.4132
11.195
10.9649
10.7239
10.4723
10.2126
9.94685
9.67918
9.41133
9.14523
8.8807
8.61795
8.35525
8.09067
7.81951
7.53711
7.24157
6.93125
6.60691
6.26892
5.9206
5.56498
5.20834
4.85399
4.50594
4.16553
3.83523
3.51513
3.20575
2.90419
2.60861
2.32239
2.04836
1.79393
1.57407
1.39421
10.4882
11.2533
11.8785
12.3733
12.7712
13.0935
13.3615
13.5865
13.7828
13.9619
14.1263
14.2808
14.4244
14.5598
14.6846
14.7997
14.9008
14.9884
15.061
15.1202
15.1659
15.1995
15.2214
15.2325
15.2331
15.2231
15.2022
15.1705
15.1275
15.0744
15.0112
14.9413
14.8646
14.7833
14.6967
14.6066
14.5118
14.4131
14.3063
14.1869
14.0557
13.9104
13.7537
13.5836
13.4049
13.217
13.0287
12.8389
12.6521
12.4656
12.2823
12.0989
11.9165
11.7274
11.5238
11.3071
11.0735
10.8271
10.5651
10.2944
10.014
9.73639
9.46001
9.19093
8.92505
8.66629
8.40978
8.15689
7.89671
7.61818
7.32277
7.00481
6.66951
6.312
5.9414
5.55624
5.17451
4.79465
4.42694
4.06667
3.7223
3.389
3.07305
2.76229
2.44672
2.13947
1.83567
1.54119
1.30484
1.13417
10.4811
11.5284
12.2502
12.7472
13.1332
13.4244
13.6682
13.8579
14.0226
14.1871
14.3362
14.4869
14.6231
14.7614
14.8852
15.0088
15.1097
15.1995
15.2686
15.3256
15.3664
15.396
15.4136
15.4209
15.4186
15.4064
15.3818
15.3474
15.2979
15.2398
15.1656
15.0908
15.0058
14.9227
14.8307
14.7423
14.6468
14.5575
14.4604
14.3403
14.2118
14.0588
13.9
13.7149
13.5283
13.3172
13.1224
12.9198
12.7345
12.5426
12.367
12.1866
12.0242
11.8549
11.6532
11.4435
11.2
10.9529
10.6703
10.3898
10.0772
9.79166
9.49803
9.23192
8.95901
8.71128
8.45897
8.2335
8.00022
7.72345
7.43637
7.10322
6.764
6.37382
5.98311
5.54247
5.13792
4.71773
4.33718
3.94488
3.59338
3.23782
2.93285
2.62725
2.27285
1.95152
1.60954
1.20473
0.941
0.796635
11.0869
12.2721
12.9454
13.2808
13.6317
13.8233
14.0527
14.165
14.2627
14.4346
14.5436
14.7135
14.8188
14.9839
15.0858
15.2506
15.3342
15.4405
15.4932
15.5541
15.5826
15.6099
15.6202
15.6229
15.6183
15.6073
15.5755
15.5459
15.4804
15.4282
15.3209
15.2548
15.1441
15.0747
14.9594
14.8879
14.7726
14.7131
14.6473
14.5058
14.4032
14.2152
14.0843
13.8481
13.6867
13.3937
13.2272
12.9757
12.8262
12.5961
12.4584
12.2482
12.1416
12.0291
11.794
11.6282
11.3318
11.1297
10.7723
10.5316
10.1011
9.85848
9.49635
9.28257
8.9566
8.76279
8.46942
8.32127
8.16627
7.8435
7.61622
7.21028
6.93183
6.4363
6.09667
5.47668
5.12378
4.5837
4.26427
3.76427
3.47026
3.01377
2.79352
2.56244
2.05134
1.79329
1.47387
0.665083
0.405269
0.336289
2.19408
1.98869
1.79459
1.61119
1.43779
1.27358
1.11769
0.969206
0.827195
0.690737
0.558926
0.430875
0.30572
0.182616
0.0607364
2.18237
1.97739
1.78385
1.60117
1.42858
1.26525
1.11028
0.962718
0.821631
0.686082
0.55516
0.427975
0.303664
0.18139
0.0603288
2.15875
1.9546
1.76225
1.58103
1.4101
1.24855
1.09543
0.949746
0.810518
0.676793
0.547649
0.422194
0.29957
0.178948
0.0595172
2.12282
1.92
1.72951
1.55056
1.38221
1.22342
1.07314
0.930303
0.793891
0.662917
0.536442
0.413576
0.29347
0.175311
0.058309
2.07394
1.87304
1.68521
1.50949
1.34474
1.18976
1.04338
0.904427
0.771818
0.644532
0.521619
0.402193
0.285421
0.170515
0.056716
2.01121
1.81297
1.62879
1.45742
1.29747
1.14751
1.00617
0.872197
0.744413
0.621767
0.503303
0.38815
0.275503
0.16461
0.0547554
1.93341
1.73881
1.55954
1.39393
1.24019
1.09661
0.961601
0.833764
0.71186
0.594812
0.481671
0.371596
0.263827
0.157665
0.0524505
1.83889
1.6493
1.47662
1.31854
1.17274
1.03712
0.909848
0.789386
0.674444
0.563941
0.456967
0.352731
0.250542
0.14977
0.0498315
1.72544
1.54285
1.37908
1.23084
1.0951
0.969267
0.851276
0.73948
0.632578
0.529537
0.429517
0.331817
0.235835
0.141039
0.0469366
1.59011
1.41755
1.26599
1.13064
1.00752
0.893564
0.7865
0.684668
0.586844
0.492106
0.399742
0.30918
0.219942
0.131611
0.0438123
1.42884
1.27125
1.13668
1.01821
0.910774
0.810957
0.716482
0.625841
0.538016
0.452295
0.36816
0.285215
0.203137
0.121652
0.0405127
1.23624
1.10189
0.991268
0.89471
0.806398
0.722998
0.642621
0.564191
0.487077
0.410892
0.335385
0.260378
0.185737
0.111345
0.0370988
1.00563
0.908789
0.831779
0.762958
0.697102
0.632006
0.566806
0.501219
0.435202
0.368805
0.302104
0.235175
0.168085
0.10089
0.0336363
0.73164
0.695843
0.664091
0.628231
0.587038
0.541109
0.491371
0.43867
0.383703
0.327019
0.269047
0.210129
0.150536
0.0904929
0.0301923
0.422529
0.478843
0.500503
0.498831
0.481701
0.454017
0.418891
0.378383
0.333917
0.286515
0.236934
0.185755
0.133435
0.0803524
0.0268318
9.83317
9.49921
9.1643
8.8277
8.48856
8.14574
7.79772
7.44234
7.07636
6.69452
6.28745
5.83586
5.29117
4.49695
2.81787
9.81771
9.4525
9.08534
8.71478
8.33902
7.95577
7.56193
7.15303
6.72232
6.25885
5.74359
5.14036
4.37396
3.27706
1.48712
9.80268
9.40713
9.00876
8.60546
8.19467
7.77316
7.33659
6.87887
6.39101
5.85915
5.26081
4.55816
3.68623
2.53844
0.978787
9.78829
9.36371
8.9356
8.50133
8.05775
7.60099
7.12593
6.62562
6.09026
5.50559
4.85047
4.09351
3.19007
2.08582
0.746789
9.77469
9.32274
8.86672
8.40364
7.93
7.44152
6.93279
6.3967
5.82373
5.20094
4.51083
3.73057
2.83335
1.79623
0.622115
9.76201
9.28458
8.80275
8.3133
7.81254
7.29611
6.75864
6.19339
5.5918
4.94304
4.23379
3.44885
2.57378
1.60176
0.546133
9.75033
9.24949
8.74407
8.23079
7.70596
7.1653
6.60378
6.01531
5.39261
4.72714
4.00932
3.22971
2.38152
1.46536
0.495594
9.73969
9.21756
8.69086
8.15631
7.61036
7.04899
6.46762
5.86098
5.22314
4.54757
3.82775
3.05818
2.23646
1.36618
0.45993
9.7301
9.18882
8.64308
8.08975
7.52547
6.94656
6.349
5.72834
5.07985
4.39874
3.68071
2.92287
2.12513
1.29197
0.43372
9.72153
9.16317
8.60057
8.03079
7.45072
6.85709
6.24641
5.61501
4.9592
4.27555
3.56133
2.81525
2.0384
1.23518
0.41389
9.71393
9.14048
8.56306
7.97896
7.3854
6.77947
6.1582
5.51862
4.85789
4.17359
3.46407
2.729
1.96996
1.19095
0.398563
9.70725
9.12053
8.53017
7.93371
7.32866
6.71249
6.08271
5.43691
4.77295
4.08914
3.38455
2.65939
1.91539
1.15602
0.386522
9.7014
9.10311
8.50152
7.89443
7.27963
6.65496
6.01833
5.36782
4.7018
4.01911
3.3193
2.60288
1.87149
1.12812
0.376943
9.69632
9.08799
8.47669
7.86049
7.23746
6.60574
5.96359
5.30949
4.64221
3.96097
3.2656
2.55674
1.83592
1.10563
0.369246
9.69193
9.07491
8.45528
7.8313
7.20131
6.56375
5.91716
5.26032
4.59231
3.91263
3.22127
2.51892
1.80692
1.08738
0.363012
9.68814
9.06366
8.43687
7.80628
7.17044
6.52802
5.87784
5.2189
4.55053
3.87239
3.18459
2.48778
1.78316
1.07247
0.357931
9.6849
9.05401
8.42111
7.78489
7.14413
6.49769
5.84459
5.18404
4.51553
3.83885
3.15416
2.46207
1.76361
1.06024
0.353768
9.68211
9.04576
8.40765
7.76667
7.12176
6.47198
5.81651
5.15471
4.48621
3.81086
3.12887
2.44078
1.74747
1.05017
0.350342
9.67974
9.03872
8.39618
7.75117
7.10279
6.45022
5.79281
5.13005
4.46163
3.78749
3.10782
2.42311
1.73411
1.04184
0.347513
9.67772
9.03273
8.38644
7.73802
7.08671
6.43183
5.77284
5.10931
4.44103
3.76795
3.09027
2.40842
1.72302
1.03494
0.345171
9.67601
9.02764
8.37816
7.72687
7.0731
6.4163
5.756
5.09188
4.42375
3.75161
3.07563
2.39618
1.7138
1.02921
0.343226
9.67455
9.02333
8.37116
7.71743
7.0616
6.4032
5.74183
5.07723
4.40926
3.73793
3.06339
2.38597
1.70612
1.02444
0.341609
9.67332
9.01968
8.36523
7.70946
7.0519
6.39215
5.72989
5.06492
4.3971
3.72647
3.05316
2.37745
1.69972
1.02046
0.340262
9.67228
9.01659
8.36022
7.70272
7.04371
6.38284
5.71985
5.05457
4.38691
3.71688
3.04461
2.37033
1.69437
1.01715
0.339139
9.67139
9.01399
8.35599
7.69704
7.03681
6.375
5.71141
5.04588
4.37835
3.70883
3.03744
2.36437
1.6899
1.01438
0.3382
9.67065
9.01179
8.35242
7.69225
7.03099
6.36841
5.70431
5.03858
4.37117
3.70209
3.03144
2.35939
1.68617
1.01206
0.337417
9.67002
9.00993
8.34942
7.68822
7.0261
6.36286
5.69834
5.03245
4.36515
3.69644
3.02642
2.35522
1.68304
1.01013
0.336761
9.6695
9.00837
8.34689
7.68482
7.02198
6.3582
5.69333
5.02731
4.3601
3.69171
3.02221
2.35173
1.68043
1.00851
0.336213
9.66905
9.00706
8.34476
7.68197
7.01852
6.35428
5.68913
5.023
4.35586
3.68774
3.01868
2.3488
1.67824
1.00716
0.335755
9.66868
9.00595
8.34297
7.67957
7.01562
6.35099
5.6856
5.01938
4.35231
3.68441
3.01573
2.34636
1.67641
1.00602
0.335371
9.66837
9.00503
8.34147
7.67756
7.01319
6.34824
5.68264
5.01635
4.34934
3.68163
3.01327
2.34431
1.67488
1.00508
0.335051
9.6681
9.00425
8.34021
7.67588
7.01115
6.34593
5.68017
5.01381
4.34686
3.67931
3.0112
2.34261
1.6736
1.00429
0.334784
9.66789
9.0036
8.33916
7.67447
7.00945
6.34401
5.6781
5.0117
4.34479
3.67737
3.00949
2.34118
1.67254
1.00363
0.334561
9.6677
9.00306
8.33829
7.6733
7.00803
6.3424
5.67638
5.00994
4.34306
3.67576
3.00806
2.34
1.67165
1.00308
0.334376
9.66755
9.00261
8.33757
7.67233
7.00685
6.34107
5.67496
5.00848
4.34163
3.67442
3.00687
2.33902
1.67092
1.00263
0.334222
9.66743
9.00225
8.33697
7.67153
7.00588
6.33998
5.67379
5.00728
4.34046
3.67332
3.0059
2.33821
1.67031
1.00225
0.334096
9.66732
9.00194
8.33648
7.67088
7.00509
6.33909
5.67283
5.0063
4.3395
3.67243
3.0051
2.33756
1.66982
1.00195
0.333993
9.66724
9.0017
8.33609
7.67035
7.00446
6.33837
5.67206
5.00551
4.33873
3.67171
3.00446
2.33703
1.66943
1.00171
0.333911
9.66718
9.00151
8.33578
7.66994
7.00396
6.3378
5.67145
5.00489
4.33812
3.67114
3.00396
2.33661
1.66912
1.00151
0.333845
9.66713
9.00136
8.33554
7.66962
7.00357
6.33737
5.67099
5.00442
4.33766
3.67071
3.00358
2.33629
1.66888
1.00137
0.333796
9.66709
9.00126
8.33537
7.6694
7.0033
6.33706
5.67066
5.00408
4.33733
3.6704
3.0033
2.33607
1.66871
1.00126
0.33376
9.66707
9.00119
8.33527
7.66925
7.00313
6.33687
5.67045
5.00387
4.33712
3.6702
3.00313
2.33592
1.6686
1.0012
0.333738
9.66706
9.00116
8.33522
7.66919
7.00305
6.33678
5.67035
5.00377
4.33702
3.67011
3.00305
2.33586
1.66855
1.00117
0.333728
9.66706
9.00117
8.33523
7.6692
7.00306
6.33679
5.67037
5.00379
4.33704
3.67013
3.00307
2.33587
1.66856
1.00117
0.33373
9.66708
9.00121
8.33529
7.66929
7.00317
6.33691
5.6705
5.00392
4.33717
3.67025
3.00317
2.33596
1.66863
1.00121
0.333743
9.6671
9.00129
8.33542
7.66946
7.00337
6.33714
5.67075
5.00417
4.33741
3.67048
3.00338
2.33613
1.66875
1.00129
0.33377
9.66714
9.0014
8.33561
7.66971
7.00368
6.33749
5.67112
5.00455
4.33778
3.67082
3.00368
2.33638
1.66894
1.00141
0.333809
9.6672
9.00156
8.33586
7.67005
7.0041
6.33796
5.67162
5.00507
4.33829
3.6713
3.0041
2.33673
1.6692
1.00157
0.333863
9.66727
9.00177
8.3362
7.6705
7.00464
6.33857
5.67227
5.00573
4.33894
3.67191
3.00464
2.33717
1.66954
1.00177
0.333934
9.66735
9.00203
8.33662
7.67106
7.00532
6.33934
5.6731
5.00658
4.33977
3.67268
3.00533
2.33774
1.66996
1.00204
0.334022
9.66746
9.00235
8.33714
7.67176
7.00616
6.34029
5.67412
5.00762
4.34079
3.67363
3.00617
2.33844
1.67048
1.00236
0.334131
9.66759
9.00274
8.33777
7.67261
7.00719
6.34145
5.67536
5.0089
4.34204
3.6748
3.00721
2.3393
1.67112
1.00275
0.334265
9.66776
9.00322
8.33854
7.67364
7.00843
6.34286
5.67687
5.01044
4.34355
3.67621
3.00846
2.34033
1.6719
1.00323
0.334428
9.66795
9.00379
8.33947
7.67488
7.00993
6.34456
5.67869
5.0123
4.34537
3.67792
3.00997
2.34158
1.67283
1.00381
0.334623
9.66818
9.00448
8.34058
7.67637
7.01173
6.34659
5.68087
5.01454
4.34756
3.67997
3.01179
2.34309
1.67396
1.00451
0.334859
9.66846
9.0053
8.34191
7.67814
7.01389
6.34903
5.68349
5.01721
4.35018
3.68242
3.01396
2.34489
1.67531
1.00534
0.335141
9.66879
9.00627
8.34349
7.68027
7.01646
6.35194
5.68661
5.02041
4.35332
3.68535
3.01656
2.34704
1.67692
1.00634
0.335478
9.66918
9.00744
8.34538
7.6828
7.01953
6.35541
5.69033
5.02423
4.35706
3.68886
3.01967
2.34962
1.67885
1.00753
0.335882
9.66965
9.00883
8.34763
7.68582
7.02318
6.35954
5.69477
5.02878
4.36153
3.69304
3.02339
2.3527
1.68115
1.00896
0.336365
9.67021
9.01048
8.3503
7.6894
7.02753
6.36447
5.70006
5.0342
4.36685
3.69803
3.02782
2.35638
1.6839
1.01066
0.336941
9.67087
9.01244
8.35348
7.69366
7.03269
6.37032
5.70636
5.04067
4.3732
3.70398
3.03311
2.36076
1.68719
1.0127
0.33763
9.67166
9.01477
8.35725
7.69873
7.03884
6.37729
5.71385
5.04836
4.38076
3.71108
3.03942
2.36601
1.69112
1.01513
0.338454
9.67259
9.01753
8.36173
7.70473
7.04613
6.38557
5.72276
5.05753
4.38978
3.71955
3.04696
2.37227
1.69581
1.01804
0.339439
9.6737
9.02079
8.36703
7.71186
7.05479
6.3954
5.73336
5.06843
4.40052
3.72965
3.05596
2.37975
1.70143
1.02152
0.340618
9.675
9.02466
8.37331
7.7203
7.06506
6.40707
5.74595
5.08142
4.41332
3.7417
3.06671
2.38869
1.70815
1.02568
0.34203
9.67655
9.02924
8.38074
7.7303
7.07723
6.42093
5.76092
5.09686
4.42858
3.75608
3.07956
2.3994
1.7162
1.03068
0.343723
9.67837
9.03464
8.38952
7.74212
7.09164
6.43736
5.7787
5.11525
4.44677
3.77326
3.09493
2.41223
1.72585
1.03668
0.345756
9.68052
9.04101
8.39987
7.75608
7.10868
6.45682
5.79981
5.13712
4.46846
3.79378
3.11332
2.42761
1.73744
1.04388
0.348202
9.68305
9.0485
8.41207
7.77256
7.12882
6.47987
5.82486
5.16313
4.49432
3.81832
3.13538
2.44608
1.75139
1.05256
0.351149
9.68601
9.05731
8.42642
7.79195
7.15259
6.50713
5.85456
5.19408
4.52517
3.84768
3.16183
2.4683
1.7682
1.06304
0.35471
9.68949
9.06762
8.44325
7.81475
7.18058
6.53933
5.88975
5.23086
4.56198
3.88284
3.19363
2.49509
1.78851
1.07573
0.359026
9.69355
9.07968
8.46295
7.84149
7.2135
6.57731
5.93142
5.27459
4.60592
3.92499
3.2319
2.52746
1.81314
1.09115
0.364274
9.69827
9.09373
8.48593
7.87275
7.2521
6.62201
5.98067
5.32653
4.65838
3.97557
3.27807
2.56668
1.84309
1.10995
0.370686
9.70375
9.11003
8.51266
7.9092
7.29727
6.67454
6.03882
5.38818
4.72103
4.03635
3.33388
2.61436
1.87969
1.133
0.37856
9.71008
9.12888
8.54361
7.95153
7.34992
6.73607
6.10734
5.4613
4.79585
4.10948
3.40153
2.67256
1.92463
1.16143
0.388297
9.71735
9.15055
8.57928
8.00048
7.41108
6.80793
6.18788
5.54789
4.8852
4.19758
3.48378
2.74394
1.98015
1.19677
0.400435
9.72565
9.17534
8.62017
8.0568
7.48179
6.89152
6.28226
5.65025
4.99185
4.30387
3.5841
2.83195
2.04929
1.24109
0.415725
9.73507
9.2035
8.66675
8.12121
7.56308
6.98828
6.39244
5.77093
5.11903
4.43223
3.70689
2.94115
2.13615
1.29734
0.435238
9.74568
9.23526
8.71942
8.19436
7.65595
7.09966
6.52045
5.91272
5.27043
4.58735
3.85775
3.07762
2.24649
1.36976
0.460566
9.75753
9.27077
8.7785
8.27677
7.76123
7.22695
6.66825
6.07851
5.45015
4.77476
4.04369
3.24949
2.38848
1.46474
0.494181
9.77063
9.31012
8.84414
8.36876
7.87951
7.3712
6.83759
6.27111
5.66254
5.00083
4.27347
3.46774
2.57405
1.59221
0.540162
9.78498
9.35325
8.91632
8.47038
8.01103
7.53301
7.02976
6.49294
5.9118
5.27249
4.55767
3.74707
2.82083
1.76843
0.605778
9.80051
9.39998
8.99475
8.5813
8.15551
7.71233
7.24523
6.74555
6.20145
5.59658
4.90838
4.1067
3.1552
2.02123
0.705351
9.8171
9.44999
9.07889
8.70078
8.31207
7.90825
7.48332
7.02898
6.53329
5.97854
5.33786
4.57037
3.61629
2.40033
0.870773
9.83459
9.50277
9.16788
8.8276
8.47912
8.11883
7.74183
7.34111
6.90613
6.42016
5.85541
5.16359
4.25922
2.99721
1.1834
9.85277
9.55768
9.26062
8.96012
8.65436
8.34099
8.01679
7.67703
7.31435
6.91648
6.46118
5.90439
5.1505
3.97727
1.88006
9.87139
9.61394
9.35575
9.09628
8.83487
8.57067
8.30254
8.02884
7.747
7.45266
7.13739
6.78206
6.33296
5.59895
3.7315
9.89018
9.6707
9.45177
9.23379
9.0173
8.80306
8.59215
8.38629
8.18832
8.00336
7.84141
7.72482
7.71325
8.00773
9.4687
9.90884
9.7271
9.54711
9.37024
9.19817
9.03312
8.87824
8.73824
8.62059
8.53804
8.5139
8.59461
8.88096
9.6064
11.2986
9.92711
9.78226
9.64028
9.50335
9.37415
9.25611
9.15399
9.07463
9.02846
9.03213
9.11355
9.32154
9.74372
10.5337
11.9232
0.173792
0.311686
0.371929
0.394379
0.394812
0.380999
0.357379
0.326742
0.290967
0.25138
0.20896
0.164455
0.118457
0.0714577
0.023882
0.0932855
0.213646
0.281287
0.314708
0.325711
0.321427
0.306329
0.283363
0.254566
0.221405
0.184976
0.146126
0.105535
0.0637714
0.0213309
0.0587575
0.152216
0.214405
0.250602
0.267222
0.269363
0.26074
0.24403
0.221193
0.193698
0.162671
0.129004
0.0934264
0.0565546
0.0189334
0.0409348
0.112499
0.165572
0.200089
0.218786
0.224772
0.220764
0.208949
0.191055
0.168442
0.142198
0.113209
0.0822159
0.0498578
0.0167061
0.0302684
0.0856224
0.129623
0.160561
0.179175
0.187121
0.186206
0.178089
0.164191
0.145705
0.123629
0.0988039
0.0719526
0.0437117
0.0146595
0.0232011
0.0666297
0.102743
0.129591
0.146971
0.15562
0.156649
0.151241
0.140512
0.125461
0.106969
0.0858054
0.0626537
0.0381287
0.0127981
0.0181984
0.0527163
0.0822973
0.105193
0.120829
0.12941
0.131561
0.128087
0.119832
0.107606
0.092162
0.0741869
0.054308
0.0331047
0.0111208
0.0145005
0.0422308
0.066493
0.0858372
0.0995864
0.107663
0.110378
0.108253
0.101908
0.0919848
0.0791123
0.0638897
0.0468817
0.0286225
0.00962259
0.011685
0.0341533
0.0541035
0.0703655
0.0822815
0.0896397
0.0925541
0.0913492
0.0864682
0.0784108
0.0676941
0.0548317
0.0403238
0.0246545
0.00829456
0.00949554
0.0278241
0.0442749
0.0579111
0.0681412
0.0747011
0.0775902
0.0769972
0.0732335
0.0666828
0.0577653
0.0469161
0.0345719
0.0211659
0.00712561
0.00776611
0.0227986
0.0364004
0.0478215
0.0565491
0.0623111
0.0650438
0.0648463
0.0619336
0.0565977
0.0491775
0.0400381
0.0295572
0.0181176
0.00610307
0.00638367
0.0187663
0.03004
0.0396019
0.047016
0.0520241
0.0545317
0.0545803
0.0523159
0.0479596
0.0417832
0.0340913
0.025208
0.0154685
0.00521351
0.00526832
0.0155041
0.0248681
0.0328735
0.0391533
0.0434731
0.0457267
0.0459201
0.0441505
0.0405849
0.035441
0.0289716
0.0214532
0.0131771
0.00444339
0.00436182
0.0128472
0.0206393
0.0273432
0.0326514
0.0363565
0.0383519
0.0386227
0.037232
0.034306
0.0300188
0.0245801
0.0182244
0.0112035
0.00377948
0.00362076
0.0106716
0.017166
0.0227819
0.0272624
0.030427
0.0321745
0.0324786
0.0313794
0.0289721
0.0253961
0.0208251
0.0154575
0.00950963
0.00320928
0.00301208
0.00888238
0.0143025
0.0190089
0.022787
0.0254812
0.0269991
0.0273089
0.026435
0.0244494
0.0214642
0.017623
0.0130934
0.00806049
0.00272112
0.00251023
0.00740567
0.0119346
0.0158804
0.019064
0.0213522
0.0226623
0.0229611
0.0222622
0.0206207
0.0181266
0.0148988
0.0110787
0.00682409
0.00230439
0.00209518
0.00618338
0.00997164
0.0132812
0.0159625
0.0179023
0.0190275
0.0193058
0.0187439
0.0173838
0.0152983
0.0125859
0.00936559
0.00577172
0.00194951
0.00175107
0.00516931
0.00834096
0.0111181
0.0133758
0.0150179
0.0159807
0.0162339
0.0157797
0.0146505
0.0129052
0.0106256
0.00791181
0.00487787
0.00164795
0.00146521
0.00432644
0.00698417
0.00931569
0.0112165
0.0126052
0.0134266
0.0136531
0.0132841
0.0123448
0.0108831
0.00896686
0.00668025
0.00412008
0.00139219
0.00122737
0.00362486
0.00585385
0.00781229
0.00941271
0.0105863
0.0112855
0.0114856
0.0111845
0.0104018
0.0091765
0.00756519
0.00563859
0.00347873
0.00117566
0.00102926
0.00304028
0.00491135
0.00655744
0.00790526
0.00889664
0.00949091
0.00966614
0.00941938
0.00876592
0.00773793
0.00638241
0.00475889
0.00293678
0.000992645
0.000864127
0.00255285
0.00412503
0.00550967
0.00664528
0.00748271
0.00798723
0.00813962
0.00793655
0.0073901
0.00652673
0.00538569
0.00401705
0.00247955
0.000838195
0.000726439
0.00214633
0.00346892
0.00463479
0.00559229
0.00629991
0.006728
0.00685987
0.0066921
0.0062343
0.00550832
0.00454697
0.00339243
0.00209441
0.000708072
0.000611654
0.00180736
0.00292161
0.00390457
0.00471279
0.00531116
0.00567444
0.00578815
0.005649
0.00526468
0.0046533
0.00384236
0.00286743
0.00177058
0.000598644
0.000516032
0.00152493
0.00246545
0.00329567
0.00397897
0.00448562
0.00479412
0.00489198
0.0047761
0.00445269
0.00393683
0.0032516
0.00242707
0.00149888
0.000506818
0.000436495
0.00128998
0.00208586
0.00278878
0.00336778
0.00379765
0.00406004
0.0041442
0.00404728
0.00377432