/*--------------------------------*- C++ -*----------------------------------*\
| =========                 |                                                 |
| \\      /  F ield         | OpenFOAM: The Open Source CFD Toolbox           |
|  \\    /   O peration     | Version:  5.x                                   |
|   \\  /    A nd           | Web:      www.OpenFOAM.org                      |
|    \\/     M anipulation  |                                                 |
\*---------------------------------------------------------------------------*/
FoamFile
{
    version     2.0;
    format      ascii;
    class       volScalarField;
    location    "3.1";
    object      gradTx;
}
// * * * * * * * * * * * * * * * * * * * * * * * * * * * * * * * * * * * * * //

dimensions      [0 -1 0 1 0 0 0];

internalField   nonuniform List<scalar> 
3200
(
5.02489e-07
-3.61516e-08
-6.03376e-08
-6.11277e-08
-5.11326e-08
-4.99229e-08
-3.54782e-08
-3.43088e-08
-2.48919e-08
-3.79044e-08
-1.73697e-08
-1.2266e-08
-1.17568e-08
-8.87441e-09
-8.61194e-09
-6.59417e-09
-6.41142e-09
-4.94586e-09
-4.81237e-09
-3.72766e-09
-3.62843e-09
-2.81623e-09
-2.74172e-09
-2.1292e-09
-2.07292e-09
-1.60901e-09
-1.56635e-09
-1.21422e-09
-1.18183e-09
-9.14318e-10
-8.89711e-10
-6.86523e-10
-6.67841e-10
-5.13657e-10
-4.9949e-10
-3.82673e-10
-3.71949e-10
-2.8363e-10
-2.75531e-10
-2.08932e-10
-2.02833e-10
-1.52772e-10
-1.48195e-10
-1.10713e-10
-1.07294e-10
-7.9368e-11
-7.6834e-11
-5.61872e-11
-5.4459e-11
-4.02505e-11
-6.08275e-11
-2.74556e-11
-1.80837e-11
-1.7155e-11
-1.1566e-11
-1.10661e-11
-7.27688e-12
-6.94658e-12
-4.43904e-12
-4.22363e-12
-2.62221e-12
-2.48649e-12
-1.50157e-12
-1.41912e-12
-8.34827e-13
-7.86428e-13
-4.50748e-13
-4.23175e-13
-2.35399e-13
-2.20063e-13
-1.17126e-13
-1.08546e-13
-4.88091e-14
-4.39723e-14
-1.16487e-14
-9.46971e-15
-6.16755e-16
-1.13068e-16
-2.55929e-17
5.85564e-15
5.00236e-07
-3.68573e-08
-5.77854e-08
-5.96511e-08
-5.1581e-08
-4.88327e-08
-3.65955e-08
-3.39482e-08
-2.6628e-08
-3.49758e-08
-1.85629e-08
-1.29229e-08
-1.1674e-08
-9.113e-09
-8.50062e-09
-6.74967e-09
-6.32615e-09
-5.05751e-09
-4.74839e-09
-3.80994e-09
-3.58018e-09
-2.87768e-09
-2.70519e-09
-2.17547e-09
-2.04518e-09
-1.64403e-09
-1.54527e-09
-1.24079e-09
-1.1658e-09
-9.34502e-10
-8.77542e-10
-7.01857e-10
-6.58611e-10
-5.25297e-10
-4.92503e-10
-3.91497e-10
-3.66673e-10
-2.90306e-10
-2.71558e-10
-2.13971e-10
-1.99852e-10
-1.56564e-10
-1.45968e-10
-1.13556e-10
-1.0564e-10
-8.1494e-11
-7.56323e-11
-5.78423e-11
-5.39138e-11
-4.29096e-11
-5.60816e-11
-2.92985e-11
-1.92249e-11
-1.69628e-11
-1.2025e-11
-1.08604e-11
-7.57462e-12
-6.80916e-12
-4.63701e-12
-4.13788e-12
-2.74981e-12
-2.43524e-12
-1.58078e-12
-1.3896e-12
-8.82214e-13
-7.69942e-13
-4.78167e-13
-4.14179e-13
-2.5082e-13
-2.15213e-13
-1.25529e-13
-1.0561e-13
-5.37179e-14
-4.2503e-14
-1.45031e-14
-9.43906e-15
-1.51627e-15
-3.22542e-16
-7.41108e-17
5.83971e-15
4.9839e-07
-3.71348e-08
-5.59955e-08
-5.85717e-08
-5.18162e-08
-4.81218e-08
-3.73289e-08
-3.37744e-08
-2.77371e-08
-3.30374e-08
-1.93249e-08
-1.34041e-08
-1.16436e-08
-9.27358e-09
-8.43477e-09
-6.85201e-09
-6.27463e-09
-5.13075e-09
-4.70955e-09
-3.86384e-09
-3.55082e-09
-2.91791e-09
-2.68292e-09
-2.20575e-09
-2.02826e-09
-1.66694e-09
-1.53241e-09
-1.25817e-09
-1.15603e-09
-9.47705e-10
-8.70115e-10
-7.11888e-10
-6.52979e-10
-5.32912e-10
-4.88241e-10
-3.97271e-10
-3.63456e-10
-2.94675e-10
-2.69137e-10
-2.17269e-10
-1.98036e-10
-1.59046e-10
-1.44613e-10
-1.15418e-10
-1.04635e-10
-8.2888e-11
-7.49071e-11
-5.89425e-11
-5.36511e-11
-4.46012e-11
-5.29337e-11
-3.04727e-11
-2.00533e-11
-1.68775e-11
-1.2333e-11
-1.07395e-11
-7.77147e-12
-6.72795e-12
-4.76801e-12
-4.08766e-12
-2.83444e-12
-2.40557e-12
-1.63344e-12
-1.37272e-12
-9.13787e-13
-7.6063e-13
-4.96469e-13
-4.09155e-13
-2.61128e-13
-2.12525e-13
-1.31141e-13
-1.03952e-13
-5.6999e-14
-4.17046e-14
-1.64399e-14
-9.52261e-15
-2.14654e-15
-4.94166e-16
-1.15098e-16
5.82618e-15
4.97091e-07
-3.72113e-08
-5.48565e-08
-5.78651e-08
-5.19284e-08
-4.76944e-08
-3.77724e-08
-3.36994e-08
-2.83924e-08
-3.18592e-08
-1.97751e-08
-1.37186e-08
-1.16374e-08
-9.37277e-09
-8.39858e-09
-6.91405e-09
-6.24569e-09
-5.17501e-09
-4.68763e-09
-3.89638e-09
-3.53422e-09
-2.94219e-09
-2.67031e-09
-2.22402e-09
-2.01867e-09
-1.68076e-09
-1.52511e-09
-1.26865e-09
-1.15048e-09
-9.55666e-10
-8.65902e-10
-7.17937e-10
-6.49786e-10
-5.37505e-10
-4.85824e-10
-4.00754e-10
-3.61632e-10
-2.97311e-10
-2.67765e-10
-2.19259e-10
-1.97008e-10
-1.60545e-10
-1.43846e-10
-1.16542e-10
-1.04067e-10
-8.37303e-11
-7.45003e-11
-5.96149e-11
-5.35381e-11
-4.5597e-11
-5.1017e-11
-3.11648e-11
-2.05917e-11
-1.68467e-11
-1.25227e-11
-1.06735e-11
-7.89124e-12
-6.68332e-12
-4.84775e-12
-4.0603e-12
-2.88606e-12
-2.38959e-12
-1.66562e-12
-1.36376e-12
-9.33114e-13
-7.55748e-13
-5.0769e-13
-4.06554e-13
-2.67454e-13
-2.11144e-13
-1.34583e-13
-1.03084e-13
-5.90128e-14
-4.13044e-14
-1.76424e-14
-9.62428e-15
-2.54774e-15
-6.14799e-16
-1.44662e-16
5.81636e-15
4.96423e-07
-3.72192e-08
-5.43024e-08
-5.75156e-08
-5.19718e-08
-4.74937e-08
-3.79812e-08
-3.36732e-08
-2.86962e-08
-3.13026e-08
-1.99838e-08
-1.38739e-08
-1.16383e-08
-9.42018e-09
-8.38266e-09
-6.94333e-09
-6.23275e-09
-5.19586e-09
-4.67779e-09
-3.9117e-09
-3.52675e-09
-2.95361e-09
-2.66464e-09
-2.23261e-09
-2.01435e-09
-1.68725e-09
-1.52182e-09
-1.27358e-09
-1.14798e-09
-9.5941e-10
-8.64005e-10
-7.20782e-10
-6.48347e-10
-5.39665e-10
-4.84736e-10
-4.02391e-10
-3.60811e-10
-2.98551e-10
-2.67148e-10
-2.20195e-10
-1.96546e-10
-1.61249e-10
-1.43501e-10
-1.17071e-10
-1.03812e-10
-8.41269e-11
-7.43186e-11
-5.9934e-11
-5.34989e-11
-4.60576e-11
-5.01106e-11
-3.14852e-11
-2.08566e-11
-1.68387e-11
-1.26132e-11
-1.06445e-11
-7.94789e-12
-6.66368e-12
-4.88549e-12
-4.04835e-12
-2.91052e-12
-2.38268e-12
-1.68089e-12
-1.35992e-12
-9.42294e-13
-7.53681e-13
-5.13025e-13
-4.05464e-13
-2.70464e-13
-2.1057e-13
-1.3622e-13
-1.02716e-13
-5.99708e-14
-4.11415e-14
-1.82186e-14
-9.688e-15
-2.74304e-15
-6.76848e-16
-1.6012e-16
5.8112e-15
4.96423e-07
-3.72195e-08
-5.43025e-08
-5.75156e-08
-5.19719e-08
-4.74938e-08
-3.79812e-08
-3.36732e-08
-2.86962e-08
-3.13026e-08
-1.99838e-08
-1.38739e-08
-1.16383e-08
-9.42018e-09
-8.38266e-09
-6.94333e-09
-6.23275e-09
-5.19586e-09
-4.67779e-09
-3.9117e-09
-3.52675e-09
-2.95361e-09
-2.66464e-09
-2.23261e-09
-2.01435e-09
-1.68725e-09
-1.52182e-09
-1.27358e-09
-1.14798e-09
-9.5941e-10
-8.64005e-10
-7.20782e-10
-6.48347e-10
-5.39665e-10
-4.84736e-10
-4.02391e-10
-3.60811e-10
-2.98551e-10
-2.67148e-10
-2.20195e-10
-1.96546e-10
-1.61249e-10
-1.43501e-10
-1.17071e-10
-1.03812e-10
-8.41269e-11
-7.43186e-11
-5.9934e-11
-5.34989e-11
-4.60576e-11
-5.01106e-11
-3.14852e-11
-2.08566e-11
-1.68387e-11
-1.26132e-11
-1.06445e-11
-7.94789e-12
-6.66368e-12
-4.88549e-12
-4.04835e-12
-2.91052e-12
-2.38268e-12
-1.68089e-12
-1.35991e-12
-9.42293e-13
-7.5368e-13
-5.13024e-13
-4.05464e-13
-2.70464e-13
-2.1057e-13
-1.3622e-13
-1.02716e-13
-5.99707e-14
-4.11415e-14
-1.82186e-14
-9.68798e-15
-2.74303e-15
-6.7684e-16
-1.60113e-16
5.8112e-15
4.97092e-07
-3.72121e-08
-5.48567e-08
-5.78652e-08
-5.19285e-08
-4.76944e-08
-3.77724e-08
-3.36994e-08
-2.83924e-08
-3.18592e-08
-1.97751e-08
-1.37186e-08
-1.16374e-08
-9.37277e-09
-8.39858e-09
-6.91405e-09
-6.24569e-09
-5.17502e-09
-4.68763e-09
-3.89638e-09
-3.53422e-09
-2.94219e-09
-2.67031e-09
-2.22402e-09
-2.01867e-09
-1.68076e-09
-1.52511e-09
-1.26865e-09
-1.15048e-09
-9.55666e-10
-8.65903e-10
-7.17937e-10
-6.49786e-10
-5.37505e-10
-4.85824e-10
-4.00754e-10
-3.61632e-10
-2.97311e-10
-2.67765e-10
-2.19259e-10
-1.97008e-10
-1.60545e-10
-1.43846e-10
-1.16542e-10
-1.04067e-10
-8.37303e-11
-7.45003e-11
-5.96149e-11
-5.35381e-11
-4.5597e-11
-5.1017e-11
-3.11648e-11
-2.05917e-11
-1.68467e-11
-1.25227e-11
-1.06734e-11
-7.89123e-12
-6.68332e-12
-4.84775e-12
-4.0603e-12
-2.88606e-12
-2.38959e-12
-1.66562e-12
-1.36375e-12
-9.33113e-13
-7.55747e-13
-5.0769e-13
-4.06554e-13
-2.67454e-13
-2.11144e-13
-1.34583e-13
-1.03083e-13
-5.90126e-14
-4.13043e-14
-1.76423e-14
-9.62423e-15
-2.5477e-15
-6.14778e-16
-1.44642e-16
5.81636e-15
4.98391e-07
-3.71358e-08
-5.59957e-08
-5.85718e-08
-5.18163e-08
-4.81219e-08
-3.73289e-08
-3.37744e-08
-2.77371e-08
-3.30374e-08
-1.93249e-08
-1.34041e-08
-1.16436e-08
-9.27357e-09
-8.43477e-09
-6.85201e-09
-6.27463e-09
-5.13075e-09
-4.70955e-09
-3.86384e-09
-3.55083e-09
-2.91791e-09
-2.68292e-09
-2.20576e-09
-2.02826e-09
-1.66694e-09
-1.53241e-09
-1.25817e-09
-1.15603e-09
-9.47705e-10
-8.70115e-10
-7.11888e-10
-6.5298e-10
-5.32913e-10
-4.88241e-10
-3.97271e-10
-3.63456e-10
-2.94676e-10
-2.69137e-10
-2.17269e-10
-1.98036e-10
-1.59046e-10
-1.44613e-10
-1.15418e-10
-1.04635e-10
-8.2888e-11
-7.49071e-11
-5.89425e-11
-5.36511e-11
-4.46012e-11
-5.29337e-11
-3.04726e-11
-2.00533e-11
-1.68775e-11
-1.2333e-11
-1.07395e-11
-7.77147e-12
-6.72795e-12
-4.768e-12
-4.08766e-12
-2.83444e-12
-2.40557e-12
-1.63344e-12
-1.37272e-12
-9.13785e-13
-7.60629e-13
-4.96469e-13
-4.09155e-13
-2.61127e-13
-2.12524e-13
-1.31141e-13
-1.03952e-13
-5.69989e-14
-4.17045e-14
-1.64398e-14
-9.52254e-15
-2.14649e-15
-4.94138e-16
-1.15072e-16
5.82618e-15
5.00238e-07
-3.68582e-08
-5.77856e-08
-5.96512e-08
-5.15811e-08
-4.88328e-08
-3.65955e-08
-3.39482e-08
-2.6628e-08
-3.49758e-08
-1.85629e-08
-1.29229e-08
-1.1674e-08
-9.113e-09
-8.50062e-09
-6.74967e-09
-6.32615e-09
-5.05752e-09
-4.74839e-09
-3.80994e-09
-3.58019e-09
-2.87768e-09
-2.70519e-09
-2.17548e-09
-2.04518e-09
-1.64403e-09
-1.54527e-09
-1.24079e-09
-1.16581e-09
-9.34502e-10
-8.77542e-10
-7.01858e-10
-6.58612e-10
-5.25297e-10
-4.92503e-10
-3.91498e-10
-3.66673e-10
-2.90307e-10
-2.71558e-10
-2.13971e-10
-1.99852e-10
-1.56564e-10
-1.45968e-10
-1.13556e-10
-1.0564e-10
-8.14941e-11
-7.56323e-11
-5.78423e-11
-5.39138e-11
-4.29096e-11
-5.60816e-11
-2.92984e-11
-1.92248e-11
-1.69628e-11
-1.2025e-11
-1.08604e-11
-7.57461e-12
-6.80916e-12
-4.63701e-12
-4.13788e-12
-2.74981e-12
-2.43524e-12
-1.58078e-12
-1.3896e-12
-8.82213e-13
-7.69941e-13
-4.78166e-13
-4.14179e-13
-2.50819e-13
-2.15213e-13
-1.25529e-13
-1.0561e-13
-5.37178e-14
-4.25028e-14
-1.4503e-14
-9.439e-15
-1.51623e-15
-3.22518e-16
-7.40876e-17
5.83972e-15
5.0249e-07
-3.6152e-08
-6.03377e-08
-6.11277e-08
-5.11326e-08
-4.99229e-08
-3.54782e-08
-3.43088e-08
-2.48919e-08
-3.79044e-08
-1.73697e-08
-1.2266e-08
-1.17568e-08
-8.87441e-09
-8.61194e-09
-6.59417e-09
-6.41142e-09
-4.94586e-09
-4.81237e-09
-3.72766e-09
-3.62843e-09
-2.81623e-09
-2.74172e-09
-2.1292e-09
-2.07292e-09
-1.60902e-09
-1.56635e-09
-1.21422e-09
-1.18183e-09
-9.14318e-10
-8.89711e-10
-6.86524e-10
-6.67841e-10
-5.13657e-10
-4.9949e-10
-3.82674e-10
-3.71949e-10
-2.8363e-10
-2.75531e-10
-2.08932e-10
-2.02833e-10
-1.52773e-10
-1.48195e-10
-1.10714e-10
-1.07294e-10
-7.9368e-11
-7.6834e-11
-5.61872e-11
-5.4459e-11
-4.02505e-11
-6.08275e-11
-2.74556e-11
-1.80837e-11
-1.7155e-11
-1.1566e-11
-1.10661e-11
-7.27688e-12
-6.94658e-12
-4.43904e-12
-4.22363e-12
-2.62221e-12
-2.48649e-12
-1.50157e-12
-1.41912e-12
-8.34827e-13
-7.86427e-13
-4.50748e-13
-4.23175e-13
-2.35399e-13
-2.20063e-13
-1.17126e-13
-1.08546e-13
-4.88091e-14
-4.39722e-14
-1.16486e-14
-9.46969e-15
-6.1674e-16
-1.13059e-16
-2.55831e-17
5.85564e-15
0.000156152
-0.000138873
-1.10073e-05
-4.70122e-06
-7.59761e-07
-3.79981e-07
-8.29357e-08
-5.31308e-08
-2.94914e-08
-4.46358e-08
-2.21806e-08
-1.83585e-08
-1.79083e-08
-1.53491e-08
-1.50881e-08
-1.27782e-08
-1.25512e-08
-1.05139e-08
-1.03166e-08
-8.57124e-09
-8.40382e-09
-6.94017e-09
-6.80069e-09
-5.59178e-09
-5.47711e-09
-4.48925e-09
-4.39584e-09
-3.5947e-09
-3.51912e-09
-2.87286e-09
-2.81198e-09
-2.29262e-09
-2.24375e-09
-1.82747e-09
-1.78834e-09
-1.45533e-09
-1.42404e-09
-1.15803e-09
-1.13305e-09
-9.20825e-10
-9.00905e-10
-7.31775e-10
-7.15909e-10
-5.81296e-10
-5.68679e-10
-4.61715e-10
-4.51762e-10
-3.6719e-10
-3.60558e-10
-3.02062e-10
-4.89293e-10
-2.40709e-10
-1.87966e-10
-1.82396e-10
-1.49352e-10
-1.46225e-10
-1.20717e-10
-1.18348e-10
-9.85725e-11
-9.67427e-11
-8.15044e-11
-8.00984e-11
-6.84366e-11
-6.73589e-11
-5.84319e-11
-5.7556e-11
-4.97937e-11
-4.89427e-11
-4.044e-11
-3.95262e-11
-3.04469e-11
-2.95773e-11
-2.20837e-11
-2.10817e-11
-9.27765e-12
-8.27481e-12
-5.04495e-13
-8.99337e-14
-2.02676e-14
-1.46383e-12
0.000152798
-0.000122541
-2.08996e-05
-6.749e-06
-1.54744e-06
-5.47273e-07
-1.4566e-07
-6.66912e-08
-3.57257e-08
-4.22261e-08
-2.38076e-08
-1.8972e-08
-1.78406e-08
-1.55515e-08
-1.49424e-08
-1.29453e-08
-1.242e-08
-1.06618e-08
-1.02055e-08
-8.69883e-09
-8.31156e-09
-7.04773e-09
-6.72505e-09
-5.68095e-09
-5.41562e-09
-4.5623e-09
-4.34617e-09
-3.65405e-09
-3.47916e-09
-2.9208e-09
-2.77993e-09
-2.33118e-09
-2.21809e-09
-1.8584e-09
-1.76783e-09
-1.48008e-09
-1.40768e-09
-1.17781e-09
-1.12001e-09
-9.36612e-10
-8.90512e-10
-7.4436e-10
-7.07643e-10
-5.91319e-10
-5.62125e-10
-4.69724e-10
-4.4673e-10
-3.74233e-10
-3.59527e-10
-3.20381e-10
-4.50354e-10
-2.55309e-10
-1.95054e-10
-1.81333e-10
-1.52017e-10
-1.4473e-10
-1.22642e-10
-1.17154e-10
-1.0006e-10
-9.58244e-11
-8.26523e-11
-7.93981e-11
-6.93148e-11
-6.68189e-11
-5.90827e-11
-5.70525e-11
-5.03166e-11
-4.83462e-11
-4.10104e-11
-3.88992e-11
-3.10977e-11
-2.90825e-11
-2.25156e-11
-2.02011e-11
-1.0164e-11
-7.85821e-12
-1.21924e-12
-2.55997e-13
-5.86749e-14
-1.47671e-12
0.000150053
-0.000110885
-2.72921e-05
-8.43873e-06
-2.16702e-06
-6.90595e-07
-1.95468e-07
-7.83268e-08
-4.04596e-08
-4.08124e-08
-2.48909e-08
-1.9437e-08
-1.78191e-08
-1.56865e-08
-1.48522e-08
-1.30534e-08
-1.23381e-08
-1.07575e-08
-1.01363e-08
-8.78158e-09
-8.2543e-09
-7.11758e-09
-6.67821e-09
-5.73892e-09
-5.37762e-09
-4.60983e-09
-4.3155e-09
-3.69269e-09
-3.45451e-09
-2.95201e-09
-2.76017e-09
-2.35629e-09
-2.20228e-09
-1.87855e-09
-1.7552e-09
-1.49621e-09
-1.3976e-09
-1.1907e-09
-1.11197e-09
-9.46899e-10
-8.84115e-10
-7.52563e-10
-7.02556e-10
-5.97854e-10
-5.58095e-10
-4.74953e-10
-4.43675e-10
-3.78962e-10
-3.59472e-10
-3.31932e-10
-4.24413e-10
-2.64516e-10
-2.0028e-10
-1.80892e-10
-1.538e-10
-1.43826e-10
-1.23901e-10
-1.16424e-10
-1.01031e-10
-9.52628e-11
-8.3403e-11
-7.89703e-11
-6.9889e-11
-6.64881e-11
-5.95048e-11
-5.67368e-11
-5.06485e-11
-4.79641e-11
-4.13715e-11
-3.84995e-11
-3.15169e-11
-2.87695e-11
-2.27772e-11
-1.96293e-11
-1.0741e-11
-7.61488e-12
-1.70691e-12
-3.91401e-13
-9.10958e-14
-1.48765e-12
0.000148126
-0.00010339
-3.10948e-05
-9.62506e-06
-2.5947e-06
-7.94625e-07
-2.30137e-07
-8.67842e-08
-4.36619e-08
-4.00486e-08
-2.5555e-08
-1.97483e-08
-1.78179e-08
-1.57695e-08
-1.48003e-08
-1.3118e-08
-1.22906e-08
-1.08148e-08
-1.00964e-08
-8.83113e-09
-8.22132e-09
-7.15946e-09
-6.65129e-09
-5.7737e-09
-5.35581e-09
-4.63836e-09
-4.29792e-09
-3.71589e-09
-3.44039e-09
-2.97076e-09
-2.74886e-09
-2.37138e-09
-2.19324e-09
-1.89065e-09
-1.74798e-09
-1.5059e-09
-1.39183e-09
-1.19845e-09
-1.10738e-09
-9.53083e-10
-8.80458e-10
-7.57494e-10
-6.99649e-10
-6.01782e-10
-5.55793e-10
-4.78102e-10
-4.41952e-10
-3.81876e-10
-3.59734e-10
-3.38678e-10
-4.08563e-10
-2.69894e-10
-2.03708e-10
-1.80756e-10
-1.54896e-10
-1.43318e-10
-1.2466e-10
-1.16009e-10
-1.01617e-10
-9.49438e-11
-8.38555e-11
-7.87275e-11
-7.02352e-11
-6.62998e-11
-5.97576e-11
-5.65533e-11
-5.08437e-11
-4.77377e-11
-4.15833e-11
-3.82638e-11
-3.17663e-11
-2.8586e-11
-2.29247e-11
-1.92869e-11
-1.10873e-11
-7.48271e-12
-2.01082e-12
-4.86162e-13
-1.14462e-13
-1.49559e-12
0.000147136
-9.97251e-05
-3.28643e-05
-1.02336e-05
-2.81307e-06
-8.49181e-07
-2.4794e-07
-9.12235e-08
-4.52804e-08
-3.97185e-08
-2.58709e-08
-1.99041e-08
-1.7821e-08
-1.58089e-08
-1.47767e-08
-1.31482e-08
-1.22689e-08
-1.08415e-08
-1.00781e-08
-8.85432e-09
-8.20629e-09
-7.17907e-09
-6.63904e-09
-5.79e-09
-5.3459e-09
-4.65174e-09
-4.28994e-09
-3.72677e-09
-3.43398e-09
-2.97956e-09
-2.74373e-09
-2.37846e-09
-2.18914e-09
-1.89633e-09
-1.7447e-09
-1.51045e-09
-1.38922e-09
-1.20209e-09
-1.1053e-09
-9.55985e-10
-8.78801e-10
-7.59808e-10
-6.98332e-10
-6.03626e-10
-5.54751e-10
-4.79581e-10
-4.4118e-10
-3.83267e-10
-3.59947e-10
-3.41782e-10
-4.0105e-10
-2.72367e-10
-2.05404e-10
-1.80734e-10
-1.55419e-10
-1.4309e-10
-1.25018e-10
-1.15821e-10
-1.01892e-10
-9.47999e-11
-8.40682e-11
-7.86181e-11
-7.03979e-11
-6.62147e-11
-5.98759e-11
-5.64691e-11
-5.09339e-11
-4.76325e-11
-4.1681e-11
-3.81546e-11
-3.18825e-11
-2.85013e-11
-2.29909e-11
-1.91267e-11
-1.12496e-11
-7.4251e-12
-2.15676e-12
-5.34762e-13
-1.26675e-13
-1.49976e-12
0.000147136
-9.97251e-05
-3.28643e-05
-1.02336e-05
-2.81306e-06
-8.49176e-07
-2.47937e-07
-9.12224e-08
-4.528e-08
-3.97184e-08
-2.58709e-08
-1.99041e-08
-1.7821e-08
-1.5809e-08
-1.47767e-08
-1.31482e-08
-1.22689e-08
-1.08415e-08
-1.00781e-08
-8.85432e-09
-8.20629e-09
-7.17908e-09
-6.63904e-09
-5.79e-09
-5.3459e-09
-4.65174e-09
-4.28994e-09
-3.72677e-09
-3.43398e-09
-2.97956e-09
-2.74373e-09
-2.37846e-09
-2.18914e-09
-1.89633e-09
-1.74471e-09
-1.51045e-09
-1.38922e-09
-1.20209e-09
-1.1053e-09
-9.55986e-10
-8.78801e-10
-7.59808e-10
-6.98332e-10
-6.03626e-10
-5.54751e-10
-4.79581e-10
-4.4118e-10
-3.83267e-10
-3.59947e-10
-3.41782e-10
-4.0105e-10
-2.72367e-10
-2.05404e-10
-1.80734e-10
-1.55419e-10
-1.4309e-10
-1.25018e-10
-1.15821e-10
-1.01892e-10
-9.47999e-11
-8.40683e-11
-7.86181e-11
-7.03979e-11
-6.62147e-11
-5.9876e-11
-5.64692e-11
-5.09339e-11
-4.76325e-11
-4.1681e-11
-3.81546e-11
-3.18825e-11
-2.85013e-11
-2.29909e-11
-1.91267e-11
-1.12496e-11
-7.42509e-12
-2.15675e-12
-5.34758e-13
-1.26674e-13
-1.49976e-12
0.000148126
-0.00010339
-3.10948e-05
-9.62504e-06
-2.59468e-06
-7.94612e-07
-2.30131e-07
-8.67813e-08
-4.36608e-08
-4.00482e-08
-2.55549e-08
-1.97483e-08
-1.78178e-08
-1.57695e-08
-1.48003e-08
-1.3118e-08
-1.22906e-08
-1.08148e-08
-1.00964e-08
-8.83113e-09
-8.22132e-09
-7.15946e-09
-6.65129e-09
-5.7737e-09
-5.35581e-09
-4.63836e-09
-4.29793e-09
-3.71589e-09
-3.44039e-09
-2.97077e-09
-2.74886e-09
-2.37138e-09
-2.19324e-09
-1.89065e-09
-1.74798e-09
-1.5059e-09
-1.39183e-09
-1.19845e-09
-1.10738e-09
-9.53084e-10
-8.80458e-10
-7.57494e-10
-6.9965e-10
-6.01783e-10
-5.55793e-10
-4.78102e-10
-4.41953e-10
-3.81876e-10
-3.59734e-10
-3.38679e-10
-4.08563e-10
-2.69894e-10
-2.03708e-10
-1.80756e-10
-1.54896e-10
-1.43318e-10
-1.2466e-10
-1.16009e-10
-1.01617e-10
-9.49438e-11
-8.38555e-11
-7.87275e-11
-7.02352e-11
-6.62998e-11
-5.97576e-11
-5.65533e-11
-5.08437e-11
-4.77377e-11
-4.15833e-11
-3.82638e-11
-3.17663e-11
-2.8586e-11
-2.29247e-11
-1.92869e-11
-1.10873e-11
-7.48269e-12
-2.0108e-12
-4.86152e-13
-1.14459e-13
-1.49558e-12
0.000150053
-0.000110885
-2.72921e-05
-8.43871e-06
-2.16699e-06
-6.90578e-07
-1.95459e-07
-7.8323e-08
-4.04582e-08
-4.08119e-08
-2.48908e-08
-1.9437e-08
-1.78191e-08
-1.56865e-08
-1.48522e-08
-1.30534e-08
-1.23381e-08
-1.07575e-08
-1.01363e-08
-8.78159e-09
-8.25431e-09
-7.11759e-09
-6.67821e-09
-5.73892e-09
-5.37762e-09
-4.60983e-09
-4.31551e-09
-3.69269e-09
-3.45451e-09
-2.95201e-09
-2.76017e-09
-2.35629e-09
-2.20229e-09
-1.87855e-09
-1.7552e-09
-1.49621e-09
-1.3976e-09
-1.1907e-09
-1.11197e-09
-9.469e-10
-8.84115e-10
-7.52563e-10
-7.02557e-10
-5.97854e-10
-5.58095e-10
-4.74954e-10
-4.43676e-10
-3.78962e-10
-3.59472e-10
-3.31932e-10
-4.24413e-10
-2.64516e-10
-2.0028e-10
-1.80892e-10
-1.538e-10
-1.43826e-10
-1.23901e-10
-1.16424e-10
-1.01031e-10
-9.52629e-11
-8.3403e-11
-7.89703e-11
-6.98891e-11
-6.64882e-11
-5.95049e-11
-5.67369e-11
-5.06486e-11
-4.79641e-11
-4.13716e-11
-3.84995e-11
-3.15169e-11
-2.87695e-11
-2.27772e-11
-1.96293e-11
-1.07409e-11
-7.61486e-12
-1.70689e-12
-3.91389e-13
-9.10924e-14
-1.48764e-12
0.000152798
-0.000122541
-2.08996e-05
-6.74898e-06
-1.54742e-06
-5.47258e-07
-1.45653e-07
-6.6688e-08
-3.57245e-08
-4.22257e-08
-2.38074e-08
-1.89719e-08
-1.78406e-08
-1.55515e-08
-1.49424e-08
-1.29453e-08
-1.242e-08
-1.06618e-08
-1.02055e-08
-8.69884e-09
-8.31157e-09
-7.04773e-09
-6.72505e-09
-5.68095e-09
-5.41563e-09
-4.5623e-09
-4.34617e-09
-3.65406e-09
-3.47916e-09
-2.9208e-09
-2.77993e-09
-2.33118e-09
-2.21809e-09
-1.8584e-09
-1.76783e-09
-1.48008e-09
-1.40768e-09
-1.17782e-09
-1.12001e-09
-9.36612e-10
-8.90513e-10
-7.44361e-10
-7.07644e-10
-5.9132e-10
-5.62125e-10
-4.69724e-10
-4.4673e-10
-3.74234e-10
-3.59528e-10
-3.20381e-10
-4.50354e-10
-2.55309e-10
-1.95054e-10
-1.81333e-10
-1.52017e-10
-1.4473e-10
-1.22642e-10
-1.17154e-10
-1.0006e-10
-9.58245e-11
-8.26524e-11
-7.93981e-11
-6.93149e-11
-6.6819e-11
-5.90827e-11
-5.70525e-11
-5.03166e-11
-4.83463e-11
-4.10105e-11
-3.88992e-11
-3.10978e-11
-2.90825e-11
-2.25156e-11
-2.02011e-11
-1.0164e-11
-7.85819e-12
-1.21922e-12
-2.55986e-13
-5.86722e-14
-1.4767e-12
0.000156152
-0.000138873
-1.10074e-05
-4.70121e-06
-7.59752e-07
-3.79976e-07
-8.29327e-08
-5.31295e-08
-2.94909e-08
-4.46357e-08
-2.21805e-08
-1.83585e-08
-1.79083e-08
-1.53491e-08
-1.50881e-08
-1.27782e-08
-1.25512e-08
-1.05139e-08
-1.03166e-08
-8.57124e-09
-8.40383e-09
-6.94017e-09
-6.80069e-09
-5.59178e-09
-5.47711e-09
-4.48925e-09
-4.39584e-09
-3.5947e-09
-3.51912e-09
-2.87286e-09
-2.81198e-09
-2.29262e-09
-2.24375e-09
-1.82747e-09
-1.78834e-09
-1.45533e-09
-1.42404e-09
-1.15804e-09
-1.13305e-09
-9.20825e-10
-9.00905e-10
-7.31775e-10
-7.15909e-10
-5.81296e-10
-5.6868e-10
-4.61715e-10
-4.51762e-10
-3.67191e-10
-3.60558e-10
-3.02062e-10
-4.89293e-10
-2.40709e-10
-1.87966e-10
-1.82397e-10
-1.49352e-10
-1.46226e-10
-1.20718e-10
-1.18348e-10
-9.85726e-11
-9.67428e-11
-8.15044e-11
-8.00985e-11
-6.84367e-11
-6.73589e-11
-5.84319e-11
-5.7556e-11
-4.97937e-11
-4.89427e-11
-4.04401e-11
-3.95263e-11
-3.04469e-11
-2.95773e-11
-2.20837e-11
-2.10817e-11
-9.27764e-12
-8.2748e-12
-5.04488e-13
-8.99294e-14
-2.02667e-14
-1.46383e-12
0.000156212
-0.000138928
-1.10139e-05
-4.7053e-06
-7.60009e-07
-3.79957e-07
-8.2577e-08
-5.27444e-08
-2.90853e-08
-4.39285e-08
-2.18075e-08
-1.80394e-08
-1.75955e-08
-1.5077e-08
-1.48202e-08
-1.25485e-08
-1.23253e-08
-1.03224e-08
-1.01285e-08
-8.4132e-09
-8.24869e-09
-6.81072e-09
-6.67371e-09
-5.48636e-09
-5.37375e-09
-4.40379e-09
-4.31208e-09
-3.52566e-09
-3.45148e-09
-2.81725e-09
-2.75752e-09
-2.24794e-09
-2.2e-09
-1.79166e-09
-1.75327e-09
-1.42667e-09
-1.39599e-09
-1.13515e-09
-1.11065e-09
-9.02575e-10
-8.83046e-10
-7.17246e-10
-7.01693e-10
-5.69743e-10
-5.57377e-10
-4.52538e-10
-4.42782e-10
-3.59896e-10
-3.53396e-10
-2.96069e-10
-4.79594e-10
-2.35942e-10
-1.84252e-10
-1.78794e-10
-1.46411e-10
-1.43347e-10
-1.18351e-10
-1.16029e-10
-9.66516e-11
-9.48588e-11
-7.993e-11
-7.85528e-11
-6.71326e-11
-6.60775e-11
-5.73423e-11
-5.64856e-11
-4.88991e-11
-4.80667e-11
-3.97443e-11
-3.88487e-11
-2.994e-11
-2.90869e-11
-2.17373e-11
-2.07523e-11
-9.13409e-12
-8.14696e-12
-4.96691e-13
-8.85419e-14
-1.99539e-14
-1.44059e-12
0.000152857
-0.00012259
-2.09098e-05
-6.75364e-06
-1.54819e-06
-5.4734e-07
-1.45353e-07
-6.63122e-08
-3.53024e-08
-4.15775e-08
-2.34145e-08
-1.86449e-08
-1.75293e-08
-1.52763e-08
-1.4677e-08
-1.27128e-08
-1.21963e-08
-1.04678e-08
-1.00193e-08
-8.53861e-09
-8.15806e-09
-6.9164e-09
-6.59942e-09
-5.57395e-09
-5.31339e-09
-4.47552e-09
-4.26333e-09
-3.58393e-09
-3.41227e-09
-2.8643e-09
-2.72607e-09
-2.28578e-09
-2.17484e-09
-1.822e-09
-1.73316e-09
-1.45095e-09
-1.37994e-09
-1.15454e-09
-1.09786e-09
-9.18054e-10
-8.72859e-10
-7.29584e-10
-6.93591e-10
-5.79569e-10
-5.50953e-10
-4.60388e-10
-4.37851e-10
-3.66799e-10
-3.52387e-10
-3.14024e-10
-4.41426e-10
-2.50254e-10
-1.912e-10
-1.77752e-10
-1.49023e-10
-1.41882e-10
-1.20236e-10
-1.14859e-10
-9.81087e-11
-9.39592e-11
-8.10548e-11
-7.78672e-11
-6.79928e-11
-6.55494e-11
-5.79794e-11
-5.59938e-11
-4.94099e-11
-4.74826e-11
-4.03021e-11
-3.8233e-11
-3.05786e-11
-2.86015e-11
-2.216e-11
-1.9885e-11
-1.00063e-11
-7.7367e-12
-1.20037e-12
-2.52035e-13
-5.77669e-14
-1.45326e-12
0.00015011
-0.000110929
-2.73047e-05
-8.44388e-06
-2.16812e-06
-6.90743e-07
-1.95198e-07
-7.79541e-08
-4.00263e-08
-4.02033e-08
-2.44855e-08
-1.9104e-08
-1.75085e-08
-1.54093e-08
-1.45883e-08
-1.28192e-08
-1.21158e-08
-1.05619e-08
-9.95134e-09
-8.61994e-09
-8.10182e-09
-6.98504e-09
-6.55343e-09
-5.63089e-09
-5.27608e-09
-4.52219e-09
-4.23323e-09
-3.62186e-09
-3.38808e-09
-2.89494e-09
-2.70669e-09
-2.31042e-09
-2.15933e-09
-1.84176e-09
-1.72078e-09
-1.46677e-09
-1.37006e-09
-1.16718e-09
-1.08998e-09
-9.28141e-10
-8.66588e-10
-7.37625e-10
-6.88605e-10
-5.85974e-10
-5.47003e-10
-4.65513e-10
-4.34857e-10
-3.71433e-10
-3.52333e-10
-3.25347e-10
-4.15999e-10
-2.59278e-10
-1.96321e-10
-1.7732e-10
-1.5077e-10
-1.40996e-10
-1.2147e-10
-1.14143e-10
-9.90611e-11
-9.34092e-11
-8.17902e-11
-7.74484e-11
-6.85553e-11
-6.52259e-11
-5.83926e-11
-5.56854e-11
-4.97342e-11
-4.71082e-11
-4.06551e-11
-3.78405e-11
-3.09898e-11
-2.82945e-11
-2.24159e-11
-1.93218e-11
-1.05741e-11
-7.49705e-12
-1.6805e-12
-3.85344e-13
-8.9686e-14
-1.46404e-12
0.000148183
-0.000103431
-3.11088e-05
-9.63057e-06
-2.59605e-06
-7.94831e-07
-2.29894e-07
-8.64161e-08
-4.32233e-08
-3.94638e-08
-2.51425e-08
-1.94114e-08
-1.75076e-08
-1.5491e-08
-1.45373e-08
-1.28827e-08
-1.20692e-08
-1.06182e-08
-9.91207e-09
-8.66864e-09
-8.06942e-09
-7.02619e-09
-6.527e-09
-5.66506e-09
-5.25467e-09
-4.55021e-09
-4.21598e-09
-3.64464e-09
-3.37423e-09
-2.91335e-09
-2.69559e-09
-2.32523e-09
-2.15046e-09
-1.85364e-09
-1.71369e-09
-1.47627e-09
-1.36441e-09
-1.17478e-09
-1.08548e-09
-9.34204e-10
-8.63003e-10
-7.4246e-10
-6.85756e-10
-5.89825e-10
-5.44748e-10
-4.686e-10
-4.33169e-10
-3.7429e-10
-3.5259e-10
-3.31959e-10
-4.00464e-10
-2.64549e-10
-1.99682e-10
-1.77187e-10
-1.51845e-10
-1.40498e-10
-1.22215e-10
-1.13737e-10
-9.9635e-11
-9.30966e-11
-8.22336e-11
-7.72107e-11
-6.88943e-11
-6.50418e-11
-5.86401e-11
-5.55061e-11
-4.99248e-11
-4.68864e-11
-4.08621e-11
-3.76089e-11
-3.12345e-11
-2.81144e-11
-2.25601e-11
-1.89844e-11
-1.09149e-11
-7.36686e-12
-1.9797e-12
-4.78638e-13
-1.12691e-13
-1.47185e-12
0.000147192
-9.97648e-05
-3.28789e-05
-1.02393e-05
-2.81454e-06
-8.49417e-07
-2.4771e-07
-9.08579e-08
-4.48395e-08
-3.91453e-08
-2.54552e-08
-1.95653e-08
-1.75109e-08
-1.55299e-08
-1.45141e-08
-1.29124e-08
-1.20478e-08
-1.06445e-08
-9.89415e-09
-8.69143e-09
-8.05466e-09
-7.04546e-09
-6.51497e-09
-5.68107e-09
-5.24494e-09
-4.56335e-09
-4.20815e-09
-3.65532e-09
-3.36794e-09
-2.92198e-09
-2.69056e-09
-2.33218e-09
-2.14644e-09
-1.85921e-09
-1.71048e-09
-1.48073e-09
-1.36185e-09
-1.17834e-09
-1.08344e-09
-9.3705e-10
-8.61379e-10
-7.44728e-10
-6.84465e-10
-5.91633e-10
-5.43726e-10
-4.7005e-10
-4.32412e-10
-3.75653e-10
-3.52798e-10
-3.35001e-10
-3.931e-10
-2.66973e-10
-2.01344e-10
-1.77165e-10
-1.52357e-10
-1.40275e-10
-1.22565e-10
-1.13553e-10
-9.99048e-11
-9.29557e-11
-8.24421e-11
-7.71036e-11
-6.90537e-11
-6.49586e-11
-5.8756e-11
-5.54239e-11
-5.00129e-11
-4.67834e-11
-4.09576e-11
-3.75017e-11
-3.13485e-11
-2.80313e-11
-2.26248e-11
-1.88266e-11
-1.10746e-11
-7.31011e-12
-2.12337e-12
-5.26485e-13
-1.24714e-13
-1.47596e-12
0.000147192
-9.97649e-05
-3.28789e-05
-1.02393e-05
-2.81453e-06
-8.49412e-07
-2.47707e-07
-9.08568e-08
-4.48391e-08
-3.91451e-08
-2.54552e-08
-1.95653e-08
-1.75109e-08
-1.55299e-08
-1.45141e-08
-1.29124e-08
-1.20478e-08
-1.06445e-08
-9.89415e-09
-8.69143e-09
-8.05466e-09
-7.04546e-09
-6.51497e-09
-5.68107e-09
-5.24494e-09
-4.56335e-09
-4.20815e-09
-3.65532e-09
-3.36794e-09
-2.92198e-09
-2.69056e-09
-2.33218e-09
-2.14644e-09
-1.85921e-09
-1.71048e-09
-1.48073e-09
-1.36185e-09
-1.17834e-09
-1.08344e-09
-9.3705e-10
-8.61379e-10
-7.44728e-10
-6.84465e-10
-5.91633e-10
-5.43726e-10
-4.7005e-10
-4.32412e-10
-3.75653e-10
-3.52799e-10
-3.35001e-10
-3.931e-10
-2.66973e-10
-2.01344e-10
-1.77165e-10
-1.52357e-10
-1.40275e-10
-1.22565e-10
-1.13553e-10
-9.99048e-11
-9.29557e-11
-8.24421e-11
-7.71036e-11
-6.90538e-11
-6.49586e-11
-5.8756e-11
-5.54239e-11
-5.00129e-11
-4.67834e-11
-4.09576e-11
-3.75017e-11
-3.13485e-11
-2.80313e-11
-2.26248e-11
-1.88266e-11
-1.10746e-11
-7.31011e-12
-2.12337e-12
-5.26482e-13
-1.24713e-13
-1.47595e-12
0.000148183
-0.000103432
-3.11088e-05
-9.63055e-06
-2.59603e-06
-7.94817e-07
-2.29888e-07
-8.64132e-08
-4.32222e-08
-3.94634e-08
-2.51424e-08
-1.94114e-08
-1.75076e-08
-1.5491e-08
-1.45373e-08
-1.28827e-08
-1.20692e-08
-1.06182e-08
-9.91208e-09
-8.66864e-09
-8.06943e-09
-7.02619e-09
-6.527e-09
-5.66506e-09
-5.25467e-09
-4.55021e-09
-4.21598e-09
-3.64464e-09
-3.37423e-09
-2.91335e-09
-2.6956e-09
-2.32523e-09
-2.15046e-09
-1.85364e-09
-1.7137e-09
-1.47627e-09
-1.36441e-09
-1.17478e-09
-1.08548e-09
-9.34205e-10
-8.63004e-10
-7.4246e-10
-6.85756e-10
-5.89825e-10
-5.44748e-10
-4.686e-10
-4.33169e-10
-3.7429e-10
-3.5259e-10
-3.31959e-10
-4.00464e-10
-2.64549e-10
-1.99682e-10
-1.77187e-10
-1.51845e-10
-1.40498e-10
-1.22215e-10
-1.13737e-10
-9.9635e-11
-9.30967e-11
-8.22337e-11
-7.72108e-11
-6.88944e-11
-6.50418e-11
-5.86401e-11
-5.55062e-11
-4.99248e-11
-4.68865e-11
-4.08621e-11
-3.7609e-11
-3.12345e-11
-2.81144e-11
-2.25601e-11
-1.89844e-11
-1.09148e-11
-7.36685e-12
-1.97968e-12
-4.78628e-13
-1.12688e-13
-1.47185e-12
0.000150111
-0.000110929
-2.73047e-05
-8.44385e-06
-2.1681e-06
-6.90725e-07
-1.9519e-07
-7.79503e-08
-4.00249e-08
-4.02028e-08
-2.44854e-08
-1.9104e-08
-1.75085e-08
-1.54093e-08
-1.45883e-08
-1.28192e-08
-1.21158e-08
-1.0562e-08
-9.95135e-09
-8.61995e-09
-8.10182e-09
-6.98505e-09
-6.55343e-09
-5.63089e-09
-5.27608e-09
-4.5222e-09
-4.23323e-09
-3.62186e-09
-3.38808e-09
-2.89494e-09
-2.70669e-09
-2.31042e-09
-2.15933e-09
-1.84176e-09
-1.72078e-09
-1.46677e-09
-1.37006e-09
-1.16718e-09
-1.08999e-09
-9.28141e-10
-8.66588e-10
-7.37626e-10
-6.88606e-10
-5.85974e-10
-5.47004e-10
-4.65514e-10
-4.34858e-10
-3.71433e-10
-3.52333e-10
-3.25347e-10
-4.16e-10
-2.59278e-10
-1.96321e-10
-1.7732e-10
-1.50771e-10
-1.40996e-10
-1.2147e-10
-1.14144e-10
-9.90612e-11
-9.34092e-11
-8.17903e-11
-7.74484e-11
-6.85553e-11
-6.5226e-11
-5.83927e-11
-5.56854e-11
-4.97342e-11
-4.71083e-11
-4.06551e-11
-3.78405e-11
-3.09899e-11
-2.82945e-11
-2.24158e-11
-1.93218e-11
-1.05741e-11
-7.49702e-12
-1.68048e-12
-3.85331e-13
-8.96827e-14
-1.46403e-12
0.000152857
-0.00012259
-2.09098e-05
-6.75362e-06
-1.54816e-06
-5.47325e-07
-1.45345e-07
-6.6309e-08
-3.53012e-08
-4.15771e-08
-2.34144e-08
-1.86448e-08
-1.75293e-08
-1.52763e-08
-1.4677e-08
-1.27128e-08
-1.21964e-08
-1.04678e-08
-1.00193e-08
-8.53861e-09
-8.15807e-09
-6.9164e-09
-6.59943e-09
-5.57395e-09