/*--------------------------------*- C++ -*----------------------------------*\
| =========                 |                                                 |
| \\      /  F ield         | OpenFOAM: The Open Source CFD Toolbox           |
|  \\    /   O peration     | Version:  5.x                                   |
|   \\  /    A nd           | Web:      www.OpenFOAM.org                      |
|    \\/     M anipulation  |                                                 |
\*---------------------------------------------------------------------------*/
FoamFile
{
    version     2.0;
    format      ascii;
    class       volScalarField;
    location    "3.1";
    object      gradTy;
}
// * * * * * * * * * * * * * * * * * * * * * * * * * * * * * * * * * * * * * //

dimensions      [0 -1 0 1 0 0 0];

internalField   nonuniform List<scalar> 
3200
(
-4.28775e-08
1.94638e-08
-5.38801e-08
4.96646e-08
-3.69583e-08
4.34228e-08
-2.34105e-08
2.9594e-08
-1.81561e-08
7.7467e-09
1.78393e-08
-7.27141e-09
1.03509e-08
-5.969e-09
7.44085e-09
-4.50484e-09
5.51876e-09
-3.3956e-09
4.13569e-09
-2.56561e-09
3.11574e-09
-1.94064e-09
2.35364e-09
-1.46774e-09
1.77961e-09
-1.10887e-09
1.34517e-09
-8.36179e-10
1.01551e-09
-6.28938e-10
7.65077e-10
-4.71537e-10
5.74827e-10
-3.52147e-10
4.30412e-10
-2.61753e-10
3.20948e-10
-1.93475e-10
2.38138e-10
-1.42049e-10
1.75649e-10
-1.03449e-10
1.28635e-10
-7.45992e-11
9.33937e-11
-5.31625e-11
6.70538e-11
-3.75235e-11
4.6718e-11
-2.95756e-11
1.31694e-11
2.86718e-11
-1.00594e-11
1.55717e-11
-7.20563e-12
9.96351e-12
-4.49134e-12
6.29423e-12
-2.68181e-12
3.85611e-12
-1.54722e-12
2.28693e-12
-8.64928e-13
1.31432e-12
-4.69418e-13
7.33268e-13
-2.47117e-13
3.97451e-13
-1.25128e-13
2.08754e-13
-5.91121e-14
1.05843e-13
-1.95257e-14
4.57738e-14
6.64318e-16
1.11998e-14
2.30534e-15
5.34644e-16
1.27284e-16
3.6125e-17
-3.12172e-08
1.07188e-08
-3.61332e-08
3.24295e-08
-2.33536e-08
2.90114e-08
-1.43484e-08
1.97575e-08
-1.16763e-08
5.53132e-09
1.26588e-08
-4.2449e-09
6.96836e-09
-3.67885e-09
4.97251e-09
-2.793e-09
3.68329e-09
-2.10903e-09
2.75881e-09
-1.59492e-09
2.07791e-09
-1.20691e-09
1.5695e-09
-9.12916e-10
1.18672e-09
-6.89639e-10
8.97096e-10
-5.19911e-10
6.77345e-10
-3.90898e-10
5.10411e-10
-2.92915e-10
3.83587e-10
-2.18605e-10
2.87309e-10
-1.62359e-10
2.1432e-10
-1.1989e-10
1.59094e-10
-8.79178e-11
1.1741e-10
-6.39338e-11
8.60406e-11
-4.60214e-11
6.25169e-11
-3.27266e-11
4.49168e-11
-2.30919e-11
3.11403e-11
-1.90525e-11
9.38648e-12
2.04163e-11
-5.69873e-12
1.05684e-11
-4.31111e-12
6.73345e-12
-2.67832e-12
4.26049e-12
-1.58521e-12
2.61568e-12
-9.0538e-13
1.55451e-12
-5.00776e-13
8.95155e-13
-2.68799e-13
5.00359e-13
-1.39812e-13
2.71753e-13
-6.97138e-14
1.43112e-13
-3.20208e-14
7.30348e-14
-9.05373e-15
3.20853e-14
2.28473e-15
8.12903e-15
2.02021e-15
4.80117e-16
1.14724e-16
3.25897e-17
-2.12426e-08
5.51482e-09
-2.30126e-08
2.01595e-08
-1.40824e-08
1.84223e-08
-8.3905e-09
1.2538e-08
-7.14623e-09
3.71585e-09
8.43673e-09
-2.34534e-09
4.45826e-09
-2.16226e-09
3.15944e-09
-1.65205e-09
2.33751e-09
-1.24978e-09
1.75001e-09
-9.45967e-10
1.31779e-09
-7.16143e-10
9.95266e-10
-5.41762e-10
7.5254e-10
-4.09222e-10
5.6892e-10
-3.08427e-10
4.29615e-10
-2.31799e-10
3.23793e-10
-1.73602e-10
2.43395e-10
-1.29474e-10
1.82355e-10
-9.60819e-11
1.36075e-10
-7.08784e-11
1.01051e-10
-5.19133e-11
7.46107e-11
-3.76949e-11
5.47078e-11
-2.70839e-11
3.97777e-11
-1.92175e-11
2.85965e-11
-1.35577e-11
1.97334e-11
-1.16796e-11
6.296e-12
1.36434e-11
-3.03563e-12
6.80918e-12
-2.45493e-12
4.32058e-12
-1.52015e-12
2.73748e-12
-8.90953e-13
1.68375e-12
-5.0306e-13
1.00248e-12
-2.74827e-13
5.78267e-13
-1.45589e-13
3.23763e-13
-7.4619e-14
1.76147e-13
-3.64921e-14
9.29747e-14
-1.61463e-14
4.77064e-14
-3.5145e-15
2.12322e-14
2.47832e-15
5.53597e-15
1.55221e-15
3.78623e-16
9.0922e-17
2.5866e-17
-1.23458e-08
2.51333e-09
-1.27682e-08
1.09787e-08
-7.48747e-09
1.02004e-08
-4.34698e-09
6.93897e-09
-3.84127e-09
2.14328e-09
4.83253e-09
-1.1511e-09
2.48354e-09
-1.12474e-09
1.75053e-09
-8.64162e-10
1.29394e-09
-6.54769e-10
9.68381e-10
-4.95977e-10
7.29078e-10
-3.75616e-10
5.50601e-10
-2.84184e-10
4.1632e-10
-2.14643e-10
3.14755e-10
-1.61739e-10
2.37708e-10
-1.21513e-10
1.79181e-10
-9.0964e-11
1.34713e-10
-6.78028e-11
1.0095e-10
-5.0281e-11
7.53488e-11
-3.706e-11
5.59722e-11
-2.71156e-11
4.13416e-11
-1.96638e-11
3.03265e-11
-1.41062e-11
2.20615e-11
-9.99014e-12
1.58672e-11
-7.04764e-12
1.09094e-11
-6.28639e-12
3.62741e-12
7.82917e-12
-1.43541e-12
3.81284e-12
-1.24148e-12
2.41148e-12
-7.66589e-13
1.5294e-12
-4.45224e-13
9.4198e-13
-2.48663e-13
5.61601e-13
-1.34221e-13
3.24364e-13
-7.0175e-14
1.81828e-13
-3.5427e-14
9.90519e-14
-1.69715e-14
5.23693e-14
-7.19826e-15
2.69763e-14
-1.01679e-15
1.21177e-14
1.79865e-15
3.22423e-15
9.71704e-16
2.41723e-16
5.82959e-17
1.66131e-17
-4.04887e-09
7.1161e-10
-4.09019e-09
3.48164e-09
-2.34286e-09
3.26442e-09
-1.33979e-09
2.22008e-09
-1.20902e-09
7.00778e-10
1.5738e-09
-3.42809e-10
7.97496e-10
-3.47433e-10
5.60457e-10
-2.67833e-10
4.14065e-10
-2.03123e-10
3.09827e-10
-1.53931e-10
2.33241e-10
-1.16601e-10
1.76137e-10
-8.8224e-11
1.33181e-10
-6.66323e-11
1.00693e-10
-5.02027e-11
7.60486e-11
-3.77096e-11
5.73283e-11
-2.82217e-11
4.3105e-11
-2.1029e-11
3.23052e-11
-1.55883e-11
2.41156e-11
-1.14838e-11
1.79169e-11
-8.39724e-12
1.32361e-11
-6.08502e-12
9.71169e-12
-4.36113e-12
7.06685e-12
-3.08517e-12
5.08381e-12
-2.17652e-12
3.48829e-12
-1.98017e-12
1.18526e-12
2.55198e-12
-4.16904e-13
1.22767e-12
-3.77034e-13
7.75058e-13
-2.3242e-13
4.9181e-13
-1.3422e-13
3.03134e-13
-7.44454e-14
1.80856e-13
-3.98709e-14
1.04527e-13
-2.06651e-14
5.86323e-14
-1.03261e-14
3.19618e-14
-4.87595e-15
1.69132e-14
-2.00448e-15
8.72999e-15
-1.6587e-16
3.94036e-15
6.48753e-16
1.05944e-15
3.3026e-16
8.29907e-17
2.00566e-17
5.7362e-18
4.05505e-09
-7.09743e-10
4.09099e-09
-3.48117e-09
2.34308e-09
-3.26432e-09
1.33982e-09
-2.22009e-09
1.20898e-09
-7.00832e-10
-1.57383e-09
3.42802e-10
-7.97479e-10
3.47464e-10
-5.60423e-10
2.67867e-10
-4.14034e-10
2.03151e-10
-3.09803e-10
1.53952e-10
-2.33223e-10
1.16617e-10
-1.76124e-10
8.82351e-11
-1.33171e-10
6.66402e-11
-1.00686e-10
5.02082e-11
-7.60441e-11
3.77132e-11
-5.73254e-11
2.82241e-11
-4.31031e-11
2.10305e-11
-3.23041e-11
1.55891e-11
-2.4115e-11
1.14842e-11
-1.79167e-11
8.39737e-12
-1.32361e-11
6.08497e-12
-9.71179e-12
4.36099e-12
-7.06702e-12
3.08498e-12
-5.08402e-12
2.17628e-12
-3.48857e-12
1.97986e-12
-1.18558e-12
-2.55227e-12
4.16684e-13
-1.22783e-12
3.76914e-13
-7.75151e-13
2.32346e-13
-4.91871e-13
1.34171e-13
-3.03174e-13
7.44129e-14
-1.80881e-13
3.98503e-14
-1.04543e-13
2.06525e-14
-5.86421e-14
1.03186e-14
-3.19676e-14
4.87154e-15
-1.69166e-14
2.00197e-15
-8.73183e-15
1.64554e-16
-3.94126e-15
-6.49328e-16
-1.05978e-15
-3.30453e-16
-8.30947e-17
-2.0103e-17
-5.7035e-18
1.23502e-08
-2.51195e-09
1.27688e-08
-1.09782e-08
7.48772e-09
-1.02003e-08
4.34707e-09
-6.93892e-09
3.84129e-09
-2.14328e-09
-4.83252e-09
1.15112e-09
-2.4835e-09
1.12478e-09
-1.75049e-09
8.64199e-10
-1.2939e-09
6.54799e-10
-9.68355e-10
4.96e-10
-7.29059e-10
3.75632e-10
-5.50587e-10
2.84196e-10
-4.1631e-10
2.14652e-10
-3.14748e-10
1.61745e-10
-2.37703e-10
1.21518e-10
-1.79177e-10
9.0967e-11
-1.34711e-10
6.78049e-11
-1.00949e-10
5.02823e-11
-7.53478e-11
3.70609e-11
-5.59715e-11
2.71161e-11
-4.13412e-11
1.96641e-11
-3.03263e-11
1.41063e-11
-2.20615e-11
9.99014e-12
-1.58672e-11
7.04756e-12
-1.09095e-11
6.28623e-12
-3.62759e-12
-7.82933e-12
1.43528e-12
-3.81293e-12
1.24141e-12
-2.41153e-12
7.66547e-13
-1.52943e-12
4.45196e-13
-9.42003e-13
2.48644e-13
-5.61616e-13
1.34209e-13
-3.24374e-13
7.01673e-14
-1.81834e-13
3.54223e-14
-9.90555e-14
1.69687e-14
-5.23714e-14
7.19664e-15
-2.69775e-14
1.01593e-15
-1.21183e-14
-1.79904e-15
-3.22446e-15
-9.71835e-16
-2.41795e-16
-5.83291e-17
-1.65906e-17
2.12435e-08
-5.51443e-09
2.30129e-08
-2.01592e-08
1.40826e-08
-1.84222e-08
8.39062e-09
-1.25379e-08
7.14631e-09
-3.71579e-09
-8.43668e-09
2.34538e-09
-4.45822e-09
2.1623e-09
-3.15941e-09
1.65208e-09
-2.33749e-09
1.2498e-09
-1.74999e-09
9.45984e-10
-1.31777e-09
7.16155e-10
-9.95256e-10
5.41772e-10
-7.52532e-10
4.09229e-10
-5.68914e-10
3.08432e-10
-4.2961e-10
2.31803e-10
-3.2379e-10
1.73605e-10
-2.43393e-10
1.29476e-10
-1.82354e-10
9.60833e-11
-1.36074e-10
7.08794e-11
-1.01051e-10
5.19139e-11
-7.46102e-11
3.76954e-11
-5.47074e-11
2.70842e-11
-3.97775e-11
1.92177e-11
-2.85963e-11
1.35578e-11
-1.97333e-11
1.16797e-11
-6.29596e-12
-1.36434e-11
3.03565e-12
-6.80916e-12
2.45495e-12
-4.32057e-12
1.52016e-12
-2.73748e-12
8.90957e-13
-1.68375e-12
5.03062e-13
-1.00248e-12
2.74828e-13
-5.78267e-13
1.45589e-13
-3.23763e-13
7.4619e-14
-1.76147e-13
3.6492e-14
-9.29748e-14
1.61462e-14
-4.77065e-14
3.51442e-15
-2.12323e-14
-2.47836e-15
-5.536e-15
-1.55223e-15
-3.78635e-16
-9.09294e-17
-2.58621e-17
3.12136e-08
-1.07198e-08
3.61328e-08
-3.24297e-08
2.33535e-08
-2.90114e-08
1.43484e-08
-1.97575e-08
1.16764e-08
-5.53126e-09
-1.26587e-08
4.24492e-09
-6.96835e-09
3.67884e-09
-4.97252e-09
2.793e-09
-3.6833e-09
2.10902e-09
-2.75882e-09
1.59491e-09
-2.07791e-09
1.20691e-09
-1.5695e-09
9.12913e-10
-1.18673e-09
6.89637e-10
-8.97098e-10
5.1991e-10
-6.77346e-10
3.90897e-10
-5.10411e-10
2.92914e-10
-3.83588e-10
2.18605e-10
-2.87309e-10
1.62359e-10
-2.1432e-10
1.1989e-10
-1.59094e-10
8.7918e-11
-1.1741e-10
6.3934e-11
-8.60404e-11
4.60216e-11
-6.25166e-11
3.27268e-11
-4.49166e-11
2.30921e-11
-3.11401e-11
1.90527e-11
-9.38625e-12
-2.04161e-11
5.69888e-12
-1.05683e-11
4.31119e-12
-6.73338e-12
2.67837e-12
-4.26044e-12
1.58524e-12
-2.61565e-12
9.05403e-13
-1.55449e-12
5.0079e-13
-8.95144e-13
2.68808e-13
-5.00353e-13
1.39817e-13
-2.7175e-13
6.97167e-14
-1.4311e-13
3.20224e-14
-7.30336e-14
9.05456e-15
-3.20847e-14
-2.28438e-15
-8.12882e-15
-2.0201e-15
-4.80054e-16
-1.14696e-16
-3.26097e-17
4.28697e-08
-1.94664e-08
5.38787e-08
-4.96655e-08
3.69577e-08
-4.34232e-08
2.34102e-08
-2.95942e-08
1.8156e-08
-7.74678e-09
-1.78394e-08
7.27132e-09
-1.0351e-08
5.9689e-09
-7.44095e-09
4.50475e-09
-5.51884e-09
3.39553e-09
-4.13575e-09
2.56556e-09
-3.11579e-09
1.9406e-09
-2.35367e-09
1.46771e-09
-1.77964e-09
1.10884e-09
-1.34519e-09
8.36164e-10
-1.01552e-09
6.28927e-10
-7.65086e-10
4.7153e-10
-5.74833e-10
3.52141e-10
-4.30417e-10
2.6175e-10
-3.20951e-10
1.93473e-10
-2.3814e-10
1.42047e-10
-1.7565e-10
1.03448e-10
-1.28636e-10
7.45987e-11
-9.3394e-11
5.31622e-11
-6.70539e-11
3.75234e-11
-4.6718e-11
2.95758e-11
-1.31692e-11
-2.86716e-11
1.00596e-11
-1.55716e-11
7.20572e-12
-9.96344e-12
4.4914e-12
-6.29419e-12
2.68185e-12
-3.85608e-12
1.54724e-12
-2.28691e-12
8.64947e-13
-1.31431e-12
4.69429e-13
-7.33259e-13
2.47125e-13
-3.97445e-13
1.25133e-13
-2.0875e-13
5.91148e-14
-1.05841e-13
1.95271e-14
-4.57728e-14
-6.6367e-16
-1.11994e-14
-2.30511e-15
-5.34518e-16
-1.27225e-16
-3.61641e-17
-0.000167469
0.000132582
2.27675e-05
9.34789e-06
1.81663e-06
7.58629e-07
1.27122e-07
7.79126e-08
-9.72368e-09
7.8093e-09
2.18922e-08
-1.21881e-08
1.50831e-08
-1.10895e-08
1.25994e-08
-9.22299e-09
1.05118e-08
-7.54946e-09
8.66471e-09
-6.12871e-09
7.07305e-09
-4.94693e-09
5.73253e-09
-3.97668e-09
4.62195e-09
-3.18726e-09
3.71249e-09
-2.54902e-09
2.97381e-09
-2.03531e-09
2.37731e-09
-1.62311e-09
1.89757e-09
-1.29309e-09
1.51285e-09
-1.0293e-09
1.20497e-09
-8.18717e-10
9.5895e-10
-6.50791e-10
7.62609e-10
-5.17033e-10
6.0609e-10
-4.10636e-10
4.81444e-10
-3.26229e-10
3.81944e-10
-2.60995e-10
2.95921e-10
-2.40323e-10
6.35845e-11
2.3623e-10
-1.21594e-10
1.55906e-10
-1.05465e-10
1.23267e-10
-8.60374e-11
9.93968e-11
-7.06207e-11
8.09363e-11
-5.87568e-11
6.66889e-11
-4.9703e-11
5.5789e-11
-4.27346e-11
4.76698e-11
-3.63232e-11
4.10575e-11
-2.8829e-11
3.38354e-11
-2.0926e-11
2.56842e-11
-1.46533e-11
2.00671e-11
-3.68747e-12
9.04332e-12
1.83183e-12
4.24652e-13
1.02173e-13
2.99393e-14
-0.00011958
8.90835e-05
2.03629e-05
7.65989e-06
1.67535e-06
6.23599e-07
1.22278e-07
6.09394e-08
-3.70192e-09
6.09844e-09
1.54152e-08
-7.45335e-09
1.00227e-08
-7.00708e-09
8.33554e-09
-5.82724e-09
6.95957e-09
-4.76177e-09
5.74146e-09
-3.86023e-09
4.68973e-09
-3.1126e-09
3.80264e-09
-2.50019e-09
3.06696e-09
-2.00274e-09
2.46406e-09
-1.60104e-09
1.97414e-09
-1.27798e-09
1.57836e-09
-1.01892e-09
1.25998e-09
-8.11596e-10
1.00461e-09
-6.45932e-10
8.00218e-10
-5.13712e-10
6.36877e-10
-4.08297e-10
5.06506e-10
-3.24348e-10
4.02566e-10
-2.57587e-10
3.19776e-10
-2.04663e-10
2.53584e-10
-1.64231e-10
1.94728e-10
-1.58802e-10
4.53775e-11
1.65601e-10
-7.36608e-11
1.0403e-10
-6.61362e-11
8.17889e-11
-5.41376e-11
6.58732e-11
-4.45176e-11
5.35789e-11
-3.71181e-11
4.40859e-11
-3.14773e-11
3.68238e-11
-2.71235e-11
3.14591e-11
-2.30278e-11
2.71847e-11
-1.81347e-11
2.25273e-11
-1.3001e-11
1.7177e-11
-8.96204e-12
1.37098e-11
-1.7002e-12
6.39323e-12
1.59943e-12
3.81142e-13
9.20925e-14
2.70015e-14
-8.00377e-05
5.66788e-05
1.57169e-05
5.70275e-06
1.33656e-06
4.66466e-07
9.97971e-08
4.40809e-08
-6.6766e-10
4.40009e-09
1.02201e-08
-4.3371e-09
6.33843e-09
-4.22329e-09
5.24858e-09
-3.5125e-09
4.385e-09
-2.8655e-09
3.62022e-09
-2.31977e-09
2.95874e-09
-1.86855e-09
2.40007e-09
-1.49976e-09
1.93631e-09
-1.20069e-09
1.55602e-09
-9.59465e-10
1.24683e-09
-7.65629e-10
9.96988e-10
-6.10283e-10
7.95953e-10
-4.86018e-10
6.3468e-10
-3.86752e-10
5.05583e-10
-3.07544e-10
4.02405e-10
-2.44407e-10
3.20047e-10
-1.94136e-10
2.54379e-10
-1.54167e-10
2.02065e-10
-1.22508e-10
1.60175e-10
-9.86195e-11
1.21961e-10
-9.96521e-11
3.04726e-11
1.09302e-10
-4.24486e-11
6.60314e-11
-3.95641e-11
5.16355e-11
-3.25016e-11
4.15424e-11
-2.67747e-11
3.37549e-11
-2.23716e-11
2.77392e-11
-1.90188e-11
2.31376e-11
-1.6423e-11
1.9763e-11
-1.39271e-11
1.71275e-11
-1.08842e-11
1.42632e-11
-7.70708e-12
1.09203e-11
-5.2247e-12
8.87478e-12
-6.53691e-13
4.25826e-12
1.22381e-12
3.00355e-13
7.29882e-14
2.14185e-14
-4.59656e-05
3.13804e-05
9.83234e-06
3.51939e-06
8.57776e-07
2.8913e-07
6.48497e-08
2.67701e-08
3.66044e-10
2.66602e-09
5.83559e-09
-2.23411e-09
3.50015e-09
-2.24399e-09
2.88811e-09
-1.86663e-09
2.41406e-09
-1.52072e-09
1.99417e-09
-1.2297e-09
1.63051e-09
-9.89661e-10
1.32305e-09
-7.93832e-10
1.06765e-09
-6.35235e-10
8.58099e-10
-5.07439e-10
6.87677e-10
-4.0482e-10
5.49927e-10
-3.2262e-10
4.3907e-10
-2.56888e-10
3.50127e-10
-2.04394e-10
2.78923e-10
-1.62516e-10
2.22011e-10
-1.2914e-10
1.76579e-10
-1.02569e-10
1.40352e-10
-8.14482e-11
1.11488e-10
-6.47295e-11
8.83477e-11
-5.2252e-11
6.68215e-11
-5.46259e-11
1.75727e-11
6.2186e-11
-2.16816e-11
3.65637e-11
-2.08918e-11
2.84707e-11
-1.72151e-11
2.28862e-11
-1.42032e-11
1.85816e-11
-1.18883e-11
1.52553e-11
-1.01273e-11
1.2711e-11
-8.7603e-12
1.08554e-11
-7.42189e-12
9.4283e-12
-5.7639e-12
7.88082e-12
-4.03934e-12
6.05292e-12
-2.69835e-12
4.9841e-12
-1.85288e-13
2.44087e-12
7.63602e-13
1.91638e-13
4.67995e-14
1.37421e-14
-1.49879e-05
1.00372e-05
3.33806e-06
1.18979e-06
2.95191e-07
9.79829e-08
2.24379e-08
8.9841e-09
2.46721e-10
8.93603e-10
1.89769e-09
-6.85836e-10
1.11873e-09
-7.01762e-10
9.21284e-10
-5.83827e-10
7.70257e-10
-4.75269e-10
6.3648e-10
-3.84065e-10
5.2053e-10
-3.08943e-10
4.22448e-10
-2.4772e-10
3.40939e-10
-1.98176e-10
2.74047e-10
-1.58276e-10
2.19635e-10
-1.2625e-10
1.75648e-10
-1.00603e-10
1.40245e-10
-8.00987e-11
1.11839e-10
-6.37261e-11
8.90971e-11
-5.0666e-11
7.09191e-11
-4.02584e-11
5.64076e-11
-3.19738e-11
4.48357e-11
-2.5389e-11
3.5615e-11
-2.01788e-11
2.82177e-11
-1.63159e-11
2.12633e-11
-1.73802e-11
5.74584e-12
2.01824e-11
-6.62218e-12
1.17037e-11
-6.51036e-12
9.09175e-12
-5.37426e-12
7.30502e-12
-4.43793e-12
5.92848e-12
-3.71844e-12
4.86459e-12
-3.17139e-12
4.05084e-12
-2.74611e-12
3.45908e-12
-2.32535e-12
3.00783e-12
-1.79944e-12
2.51916e-12
-1.25354e-12
1.93817e-12
-8.30076e-13
1.60701e-12
-2.90016e-14
7.95444e-13
2.59086e-13
6.57844e-14
1.61074e-14
4.72572e-15
1.49885e-05
-1.00373e-05
-3.33832e-06
-1.18999e-06
-2.95305e-07
-9.80374e-08
-2.24606e-08
-8.99238e-09
-2.49347e-10
-8.94235e-10
-1.89768e-09
6.86045e-10
-1.11847e-09
7.02016e-10
-9.2105e-10
5.84037e-10
-7.70071e-10
4.75434e-10
-6.36334e-10
3.84194e-10
-5.20416e-10
3.09044e-10
-4.22358e-10
2.478e-10
-3.40868e-10
1.98239e-10
-2.73991e-10
1.58326e-10
-2.1959e-10
1.26289e-10
-1.75613e-10
1.00634e-10
-1.40217e-10
8.01234e-11
-1.11817e-10
6.37458e-11
-8.90796e-11
5.06816e-11
-7.09052e-11
4.02708e-11
-5.63965e-11
3.19836e-11
-4.48268e-11
2.53968e-11
-3.5608e-11
2.0185e-11
-2.82123e-11
1.63205e-11
-2.12595e-11
1.7383e-11
-5.7437e-12
-2.01805e-11
6.62408e-12
-1.17018e-11
6.51221e-12
-9.09005e-12
5.37578e-12
-7.30369e-12
4.43907e-12
-5.92752e-12
3.71923e-12
-4.86397e-12
3.17185e-12
-4.05052e-12
2.74629e-12
-3.45903e-12
2.32529e-12
-3.00799e-12
1.79921e-12
-2.51944e-12
1.25323e-12
-1.93849e-12
8.29771e-13
-1.60728e-12
2.87919e-14
-7.95588e-13
-2.59172e-13
-6.58264e-14
-1.61255e-14
-4.74916e-15
4.5966e-05
-3.13805e-05
-9.83251e-06
-3.51952e-06
-8.57852e-07
-2.89167e-07
-6.48648e-08
-2.67755e-08
-3.67729e-10
-2.66637e-09
-5.83551e-09
2.23432e-09
-3.49992e-09
2.24421e-09
-2.88791e-09
1.86681e-09
-2.4139e-09
1.52087e-09
-1.99405e-09
1.22981e-09
-1.63041e-09
9.89749e-10
-1.32297e-09
7.93902e-10
-1.06758e-09
6.35291e-10
-8.5805e-10
5.07483e-10
-6.87638e-10
4.04855e-10
-5.49897e-10
3.22647e-10
-4.39045e-10
2.5691e-10
-3.50108e-10
2.04412e-10
-2.78908e-10
1.6253e-10
-2.21999e-10
1.29151e-10
-1.7657e-10
1.02578e-10
-1.40344e-10
8.14552e-11
-1.11482e-10
6.4735e-11
-8.83429e-11
5.22562e-11
-6.68181e-11
5.46286e-11
-1.75705e-11
-6.21841e-11
2.16834e-11
-3.6562e-11
2.08935e-11
-2.84692e-11
1.72164e-11
-2.2885e-11
1.42042e-11
-1.85807e-11
1.18891e-11
-1.52547e-11
1.01277e-11
-1.27106e-11
8.76053e-12
-1.08552e-11
7.42193e-12
-9.42834e-12
5.76379e-12
-7.88098e-12
4.03916e-12
-6.05311e-12
2.69815e-12
-4.98427e-12
1.85151e-13
-2.44096e-12
-7.63659e-13
-1.91665e-13
-4.68111e-14
-1.3758e-14
8.00378e-05
-5.66788e-05
-1.57169e-05
-5.70277e-06
-1.33657e-06
-4.6647e-07
-9.97989e-08
-4.40815e-08
6.67572e-10
-4.40002e-09
-1.022e-08
4.33722e-09
-6.33832e-09
4.2234e-09
-5.24848e-09
3.51258e-09
-4.38492e-09
2.86557e-09
-3.62016e-09
2.31982e-09
-2.95869e-09
1.8686e-09
-2.40003e-09
1.4998e-09
-1.93628e-09
1.20072e-09
-1.55599e-09
9.59488e-10
-1.24681e-09
7.65647e-10
-9.96972e-10
6.10298e-10
-7.9594e-10
4.86029e-10
-6.3467e-10
3.86761e-10
-5.05575e-10
3.07551e-10
-4.02399e-10
2.44413e-10
-3.20041e-10
1.94141e-10
-2.54375e-10
1.54171e-10
-2.02061e-10
1.22511e-10
-1.60172e-10
9.86218e-11
-1.21959e-10
9.96538e-11
-3.04712e-11
-1.09301e-10
4.24497e-11
-6.60304e-11
3.9565e-11
-5.16347e-11
3.25024e-11
-4.15417e-11
2.67753e-11
-3.37544e-11
2.2372e-11
-2.77388e-11
1.90191e-11
-2.31374e-11
1.64232e-11
-1.97629e-11
1.39273e-11
-1.71274e-11
1.08843e-11
-1.42632e-11
7.7071e-12
-1.09203e-11
5.2247e-12
-8.87479e-12
6.5368e-13
-4.25827e-12
-1.22382e-12
-3.00357e-13
-7.29887e-14
-2.14209e-14
0.000119579
-8.90834e-05
-2.03628e-05
-7.65977e-06
-1.67528e-06
-6.23565e-07
-1.22264e-07
-6.09343e-08
3.70361e-09
-6.09799e-09
-1.54151e-08
7.45327e-09
-1.00228e-08
7.00697e-09
-8.33565e-09
5.82715e-09
-6.95966e-09
4.76169e-09
-5.74153e-09
3.86017e-09
-4.68978e-09
3.11256e-09
-3.80268e-09
2.50016e-09
-3.06699e-09
2.00271e-09
-2.46409e-09
1.60102e-09
-1.97416e-09
1.27796e-09
-1.57838e-09
1.0189e-09
-1.25999e-09
8.11585e-10
-1.00462e-09
6.45923e-10
-8.00226e-10
5.13705e-10
-6.36883e-10
4.08292e-10
-5.06511e-10
3.24344e-10
-4.0257e-10
2.57583e-10
-3.19779e-10
2.04661e-10
-2.53586e-10
1.64229e-10
-1.94729e-10
1.588e-10
-4.53782e-11
-1.65602e-10
7.36601e-11
-1.04031e-10
6.61354e-11
-8.17897e-11
5.4137e-11
-6.58738e-11
4.45171e-11
-5.35793e-11
3.71178e-11
-4.40861e-11
3.14772e-11
-3.68239e-11
2.71235e-11
-3.1459e-11
2.30279e-11
-2.71845e-11
1.81349e-11
-2.25271e-11
1.30012e-11
-1.71768e-11
8.96223e-12
-1.37096e-11
1.70033e-12
-6.39314e-12
-1.59938e-12
-3.81116e-13
-9.2081e-14
-2.69871e-14
0.000167468
-0.000132582
-2.27672e-05
-9.34767e-06
-1.8165e-06
-7.58567e-07
-1.27097e-07
-7.79035e-08
9.7264e-09
-7.80884e-09
-2.18924e-08
1.21876e-08
-1.50835e-08
1.1089e-08
-1.25998e-08
9.22261e-09
-1.05121e-08
7.54915e-09
-8.66498e-09
6.12847e-09
-7.07326e-09
4.94674e-09
-5.7327e-09
3.97653e-09
-4.62208e-09
3.18714e-09
-3.71259e-09
2.54893e-09
-2.9739e-09
2.03523e-09
-2.37738e-09
1.62305e-09
-1.89763e-09
1.29304e-09
-1.5129e-09
1.02926e-09
-1.205e-09
8.18687e-10
-9.58977e-10
6.50767e-10
-7.6263e-10
5.17014e-10
-6.06107e-10
4.10621e-10
-4.81458e-10
3.26217e-10
-3.81954e-10
2.60986e-10
-2.95929e-10
2.40317e-10
-6.35895e-11
-2.36234e-10
1.2159e-10
-1.5591e-10
1.05462e-10
-1.2327e-10
8.60345e-11
-9.93993e-11
7.06185e-11
-8.09382e-11
5.87552e-11
-6.66903e-11
4.9702e-11
-5.57898e-11
4.27339e-11
-4.76702e-11
3.6323e-11
-4.10576e-11
2.88291e-11
-3.38352e-11
2.09263e-11
-2.56839e-11
1.46536e-11
-2.00668e-11
3.6877e-12
-9.04316e-12
-1.83173e-12
-4.24606e-13
-1.02155e-13
-2.99118e-14
-0.000167535
0.000132634
2.27743e-05
9.35384e-06
1.81798e-06
7.58935e-07
1.27562e-07
7.76495e-08
-9.3589e-09
7.77432e-09
2.15425e-08
-1.19675e-08
1.48221e-08
-1.08911e-08
1.23767e-08
-9.05611e-09
1.03233e-08
-7.41112e-09
8.5073e-09
-6.01505e-09
6.94294e-09
-4.85415e-09
5.62584e-09
-3.90132e-09
4.53499e-09
-3.1263e-09
3.64194e-09
-2.49986e-09
2.91679e-09
-1.99576e-09
2.33136e-09
-1.59137e-09
1.86064e-09
-1.26768e-09
1.48323e-09
-1.00899e-09
1.18126e-09
-8.02505e-10
9.40009e-10
-6.37874e-10
7.47502e-10
-5.06757e-10
5.9406e-10
-4.0247e-10
4.71878e-10
-3.19743e-10
3.74352e-10
-2.55811e-10
2.90042e-10
-2.35558e-10
6.23147e-11
2.31549e-10
-1.19195e-10
1.52825e-10
-1.03392e-10
1.20838e-10
-8.43539e-11
9.7446e-11
-6.92482e-11
7.93564e-11
-5.76265e-11
6.53971e-11
-4.8762e-11
5.47209e-11
-4.19458e-11
4.67738e-11
-3.56817e-11
4.03136e-11
-2.83431e-11
3.32498e-11
-2.0584e-11
2.52524e-11
-1.44308e-11
1.97521e-11
-3.63158e-12
8.90341e-12
1.80348e-12
4.1808e-13
1.00592e-13
2.94761e-14
-0.000119627
8.91181e-05
2.03694e-05
7.66446e-06
1.67652e-06
6.23886e-07
1.22596e-07
6.07793e-08
-3.45269e-09
6.07391e-09
1.51732e-08
-7.31633e-09
9.84987e-09
-6.88135e-09
8.18843e-09
-5.72158e-09
6.83494e-09
-4.67434e-09
5.63727e-09
-3.7885e-09
4.60355e-09
-3.05412e-09
3.73194e-09
-2.45273e-09
3.0093e-09
-1.96437e-09
2.41728e-09
-1.57011e-09
1.93631e-09
-1.25312e-09
1.54788e-09
-9.98972e-10
1.23547e-09
-7.95628e-10
9.84953e-10
-6.33172e-10
7.8448e-10
-5.03532e-10
6.24301e-10
-4.00189e-10
4.96474e-10
-3.17899e-10
3.94576e-10
-2.52463e-10
3.13422e-10
-2.00594e-10
2.48544e-10
-1.60969e-10
1.90858e-10
-1.55653e-10
4.44714e-11
1.62319e-10
-7.22086e-11
1.01974e-10
-6.48364e-11
8.01769e-11
-5.3079e-11
6.45799e-11
-4.36532e-11
5.25324e-11
-3.6405e-11
4.3231e-11
-3.08827e-11
3.61176e-11
-2.66246e-11
3.0866e-11
-2.26234e-11
2.66904e-11
-1.78312e-11
2.21363e-11
-1.279e-11
1.68871e-11
-8.82762e-12
1.34942e-11
-1.67488e-12
6.29427e-12
1.57468e-12
3.75244e-13
9.06675e-14
2.65838e-14
-8.00693e-05
5.67008e-05
1.57221e-05
5.70601e-06
1.33746e-06
4.66697e-07
1.00013e-07
4.39884e-08
-5.06542e-10
4.38387e-09
1.00621e-08
-4.256e-09
6.22947e-09
-4.14728e-09
5.15607e-09
-3.44867e-09
4.30655e-09
-2.81278e-09
3.55459e-09
-2.27658e-09
2.90442e-09
-1.83338e-09
2.35548e-09
-1.47125e-09
1.89994e-09
-1.17765e-09
1.52649e-09
-9.40905e-10
1.22296e-09
-7.50715e-10
9.77741e-10
-5.98324e-10
7.80477e-10
-4.76446e-10
6.22265e-10
-3.79105e-10
4.95642e-10
-3.01446e-10
3.94461e-10
-2.39551e-10
3.13709e-10
-1.90275e-10
2.49331e-10
-1.511e-10
1.9805e-10
-1.20072e-10
1.56991e-10
-9.66608e-11
1.19538e-10
-9.76769e-11
2.98643e-11
1.07136e-10
-4.16123e-11
6.47257e-11
-3.87869e-11
5.06176e-11
-3.18664e-11
4.07264e-11
-2.62553e-11
3.30952e-11
-2.19424e-11
2.72008e-11
-1.86602e-11
2.26932e-11
-1.6122e-11
1.93895e-11
-1.36839e-11
1.68151e-11
-1.07033e-11
1.4015e-11
-7.58287e-12
1.07355e-11
-5.14734e-12
8.73505e-12
-6.44318e-13
4.19232e-12
1.20487e-12
2.95706e-13
7.18588e-14
2.10872e-14
-4.59837e-05
3.13925e-05
9.83566e-06
3.52134e-06
8.58346e-07
2.8928e-07
6.49752e-08
2.67227e-08
4.56374e-10
2.65677e-09
5.74638e-09
-2.1917e-09
3.44013e-09
-2.20349e-09
2.83725e-09
-1.83265e-09
2.37091e-09
-1.4927e-09
1.95805e-09
-1.20677e-09
1.60059e-09
-9.71003e-10
1.29849e-09
-7.78715e-10
1.0476e-09
-6.2303e-10
8.41826e-10
-4.97611e-10
6.74515e-10
-3.96926e-10
5.39316e-10
-3.16291e-10
4.30536e-10
-2.51825e-10
3.4328e-10
-2.0035e-10
2.73441e-10
-1.59292e-10
2.17629e-10
-1.26573e-10
1.73083e-10
-1.00529e-10
1.37568e-10
-7.98275e-11
1.09273e-10
-6.34422e-11
8.65918e-11
-5.12142e-11
6.54936e-11
-5.35433e-11
1.72219e-11
6.09532e-11
-2.12546e-11
3.58407e-11
-2.04816e-11
2.79093e-11
-1.68788e-11
2.24366e-11
-1.39278e-11
1.82183e-11
-1.16605e-11
1.49589e-11
-9.93669e-12
1.24665e-11
-8.60018e-12
1.06497e-11
-7.29288e-12
9.25594e-12
-5.66866e-12
7.74344e-12
-3.97463e-12
5.95019e-12
-2.65884e-12
4.90554e-12
-1.8288e-13
2.40306e-12
7.51783e-13
1.88672e-13
4.60754e-14
1.35295e-14
-1.49938e-05
1.0041e-05
3.3392e-06
1.19044e-06
2.95385e-07
9.80344e-08
2.24791e-08
8.96964e-09
2.75812e-10
8.90595e-10
1.86886e-09
-6.72694e-10
1.09957e-09
-6.8908e-10
9.0507e-10
-5.73189e-10
7.56496e-10
-4.66503e-10
6.24955e-10
-3.76896e-10
5.10984e-10
-3.03113e-10
4.14608e-10
-2.42999e-10
3.34541e-10
-1.94366e-10
2.68852e-10
-1.55209e-10
2.15432e-10
-1.23786e-10
1.72259e-10
-9.86284e-11
1.3752e-10
-7.85192e-11
1.09652e-10
-6.24648e-11
8.73461e-11
-4.96605e-11
6.95196e-11
-3.9458e-11
5.52909e-11
-3.13375e-11
4.39461e-11
-2.48837e-11
3.49075e-11
-1.97774e-11
2.76569e-11
-1.59918e-11
2.08407e-11
-1.70357e-11
5.63116e-12
1.97823e-11
-6.49182e-12
1.14722e-11
-6.38255e-12
8.91247e-12
-5.26931e-12
7.16149e-12
-4.35193e-12
5.81254e-12
-3.64723e-12
4.77006e-12
-3.11177e-12
3.97288e-12
-2.696e-12
3.39349e-12
-2.28504e-12
2.95278e-12
-1.76981e-12
2.4752e-12
-1.23353e-12
1.90523e-12
-8.18007e-13
1.58167e-12
-2.87085e-14
7.8312e-13
2.55076e-13
6.47663e-14
1.58582e-14
4.65261e-15
1.49944e-05
-1.00412e-05
-3.33946e-06
-1.19064e-06
-2.95499e-07
-9.8089e-08
-2.25018e-08
-8.97793e-09
-2.78449e-10
-8.91236e-10
-1.86885e-09
6.72898e-10
-1.09932e-09
6.89329e-10
-9.04841e-10
5.73395e-10
-7.56313e-10
4.66665e-10
-6.24811e-10
3.77023e-10
-5.10872e-10
3.03213e-10
-4.1452e-10
2.43078e-10
-3.34472e-10
1.94427e-10
-2.68797e-10
1.55257e-10
-2.15389e-10
1.23825e-10
-1.72225e-10
9.8659e-11
-1.37493e-10
7.85434e-11
-1.09631e-10
6.24841e-11
-8.73289e-11
4.96758e-11
-6.9506e-11
3.94702e-11
-5.52801e-11
3.13472e-11
-4.39375e-11
2.48914e-11
-3.49006e-11
1.97836e-11
-2.76516e-11
1.59963e-11
-2.08371e-11
1.70385e-11
-5.62905e-12
-1.97804e-11
6.49369e-12
-1.14703e-11
6.38437e-12
-8.91079e-12
5.27081e-12
-7.16018e-12
4.35305e-12
-5.81159e-12
3.648e-12
-4.76945e-12
3.11223e-12
-3.97257e-12
2.69617e-12
-3.39344e-12
2.28498e-12
-2.95293e-12
1.76958e-12
-2.47548e-12
1.23323e-12
-1.90555e-12
8.17706e-13
-1.58193e-12
2.8502e-14
-7.83263e-13
-2.55161e-13
-6.48077e-14
-1.5876e-14
-4.6757e-15
4.59841e-05
-3.13926e-05
-9.83583e-06
-3.52147e-06
-8.58422e-07
-2.89316e-07
-6.49903e-08
-2.67282e-08
-4.58068e-10
-2.65713e-09
-5.74631e-09
2.19189e-09
-3.4399e-09
2.20371e-09
-2.83706e-09
1.83283e-09
-2.37075e-09
1.49284e-09
-1.95792e-09
1.20688e-09
-1.6005e-09
9.7109e-10
-1.29841e-09
7.78784e-10
-1.04754e-09
6.23084e-10
-8.41778e-10
4.97654e-10
-6.74477e-10
3.9696e-10
-5.39285e-10
3.16318e-10
-4.30512e-10
2.51847e-10
-3.43261e-10
2.00367e-10
-2.73426e-10
1.59305e-10
-2.17617e-10
1.26584e-10
-1.73074e-10
1.00537e-10
-1.3756e-10
7.98344e-11
-1.09267e-10
6.34476e-11
-8.6587e-11
5.12183e-11
-6.54902e-11
5.35459e-11
-1.72198e-11
-6.09513e-11
2.12564e-11
-3.58389e-11
2.04832e-11
-2.79078e-11
1.68801e-11
-2.24354e-11
1.39289e-11
-1.82174e-11
1.16612e-11
-1.49583e-11
9.93715e-12
-1.24662e-11
8.60041e-12
-1.06496e-11
7.29292e-12
-9.25598e-12
5.66856e-12
-7.74359e-12
3.97446e-12
-5.95038e-12
2.65865e-12
-4.90571e-12
1.82745e-13
-2.40315e-12
-7.51838e-13
-1.88699e-13
-4.60868e-14
-1.35452e-14
8.00694e-05
-5.67008e-05
-1.57221e-05
-5.70602e-06
-1.33747e-06
-4.66701e-07
-1.00015e-07
-4.39889e-08
5.0645e-10
-4.3838e-09
-1.0062e-08
4.25612e-09
-6.22936e-09
4.14739e-09
-5.15597e-09
3.44876e-09
-4.30648e-09
2.81285e-09
-3.55453e-09
2.27663e-09
-2.90437e-09
1.83342e-09
-2.35545e-09
1.47128e-09
-1.89991e-09
1.17768e-09
-1.52647e-09
9.40927e-10
-1.22294e-09
7.50732e-10
-9.77725e-10
5.98338e-10
-7.80465e-10
4.76458e-10
-6.22255e-10
3.79114e-10
-4.95635e-10
3.01453e-10
-3.94455e-10
2.39557e-10
-3.13704e-10
1.9028e-10
-2.49327e-10
1.51104e-10
-1.98047e-10
1.20075e-10
-1.56989e-10
9.6663e-11
-1.19536e-10
9.76785e-11
-2.98629e-11
-1.07134e-10
4.16134e-11
-6.47248e-11
3.87878e-11
-5.06168e-11
3.18672e-11
-4.07258e-11
2.62558e-11
-3.30947e-11
2.19428e-11
-2.72004e-11
1.86605e-11
-2.26929e-11
1.61222e-11
-1.93893e-11
1.36841e-11
-1.6815e-11
1.07034e-11
-1.4015e-11
7.58289e-12
-1.07355e-11
5.14734e-12
-8.73506e-12
6.44306e-13
-4.19233e-12
-1.20488e-12
-2.95709e-13
-7.18593e-14
-2.10896e-14
0.000119626
-8.91181e-05
-2.03692e-05
-7.66434e-06
-1.67645e-06
-6.23852e-07
-1.22582e-07
-6.07741e-08
3.45438e-09
-6.07346e-09
-1.51732e-08
7.31626e-09
-9.84998e-09
6.88124e-09
-8.18854e-09
5.72149e-09
-6.83502e-09
4.67426e-09
-5.63734e-09
3.78844e-09
-4.6036e-09
3.05407e-09
-3.73198e-09
2.4527e-09
-3.00933e-09
1.96435e-09
-2.4173e-09
1.57009e-09
-1.93633e-09
1.2531e-09
-1.54789e-09
9.98959e-10
-1.23548e-09
7.95618e-10
-9.84963e-10
6.33163e-10
-7.84487e-10
5.03526e-10
-6.24307e-10
4.00184e-10
-4.96479e-10
3.17895e-10
-3.9458e-10
2.5246e-10
-3.13426e-10
2.00591e-10
-2.48546e-10
1.60967e-10
-1.9086e-10
1.55652e-10
-4.44721e-11
-1.62319e-10
7.22079e-11
-1.01975e-10
6.48357e-11
-8.01776e-11
5.30783e-11
-6.45804e-11
4.36527e-11
-5.25327e-11
3.64047e-11
-4.32312e-11
3.08825e-11
-3.61176e-11
2.66246e-11
-3.08659e-11
2.26235e-11
-2.66903e-11
1.78314e-11
-2.21361e-11
1.27902e-11
-1.68869e-11
8.82782e-12
-1.34941e-11
1.67501e-12
-6.29418e-12
-1.57462e-12
-3.75218e-13
-9.06562e-14
-2.65697e-14
0.000167534
-0.000132634
-2.2774e-05
-9.35362e-06
-1.81785e-06
-7.58873e-07
-1.27537e-07
-7.76404e-08
9.36163e-09
-7.77384e-09
-2.15428e-08
1.19671e-08
-1.48225e-08
1.08907e-08
-1.23771e-08
9.05574e-09
-1.03236e-08
7.41083e-09
-8.50756e-09
6.01481e-09
-6.94315e-09
4.85397e-09
-5.62601e-09
3.90118e-09
-4.53512e-09
3.12618e-09
-3.64204e-09
2.49977e-09
-2.91688e-09
1.99569e-09
-2.33143e-09
1.59131e-09