/*--------------------------------*- C++ -*----------------------------------*\
| =========                 |                                                 |
| \\      /  F ield         | OpenFOAM: The Open Source CFD Toolbox           |
|  \\    /   O peration     | Version:  5.x                                   |
|   \\  /    A nd           | Web:      www.OpenFOAM.org                      |
|    \\/     M anipulation  |                                                 |
\*---------------------------------------------------------------------------*/
FoamFile
{
    version     2.0;
    format      ascii;
    class       volScalarField;
    location    "15.1";
    object      gradTx;
}
// * * * * * * * * * * * * * * * * * * * * * * * * * * * * * * * * * * * * * //

dimensions      [0 -1 0 1 0 0 0];

internalField   nonuniform List<scalar> 
6300
(
0.812097
1.08253
1.61958
2.41523
3.45662
4.72507
6.19503
7.83297
9.59672
11.4353
13.2897
15.0954
16.7852
18.2947
19.5671
0.541168
0.815415
1.36046
2.16897
3.22903
4.52305
6.0265
7.70662
9.52134
11.4188
13.338
15.2106
16.9649
18.5311
19.8474
-0.00450236
0.277035
0.837387
1.67068
2.76698
4.11108
5.68077
7.44512
9.36265
11.3801
13.4322
15.4435
17.3322
19.0168
20.4244
-0.832213
-0.54067
0.0408735
0.90885
2.05664
3.47297
5.13986
7.0299
9.10347
11.3061
13.5667
15.7985
17.903
19.7788
21.3332
-1.95193
-1.64886
-1.04256
-0.133277
1.07723
2.58381
4.37525
6.43059
8.71472
11.1734
13.7293
16.2801
18.7021
20.8614
22.6324
-3.37521
-3.06076
-2.42947
-1.47712
-0.198754
1.40929
3.34619
5.60195
8.1508
10.9431
13.8965
16.8899
19.7633
22.3317
24.4137
-5.11342
-4.78996
-4.13792
-3.14746
-1.80491
-0.0946155
1.99776
4.47968
7.3429
10.551
14.0232
17.619
21.1289
24.2876
26.8176
-7.17555
-6.8482
-6.18526
-5.17036
-3.77929
-1.9811
0.259285
2.97555
6.18961
9.89408
14.0259
18.4332
22.8453
26.8714
30.0634
-9.56548
-9.24246
-8.58503
-7.5699
-6.16127
-4.31028
-1.95558
0.973112
4.54538
8.80925
13.7526
19.242
24.947
30.2888
34.5044
-12.2788
-11.9716
-11.3429
-10.3634
-8.98608
-7.14362
-4.74491
-1.67341
2.209
7.04442
12.9326
19.8347
27.4113
34.8316
40.74
-15.2999
-15.0226
-14.4521
-13.555
-12.2765
-10.5337
-8.2075
-5.13132
-1.08087
4.22627
11.0982
19.7523
30.0311
40.8855
49.8618
-18.5987
-18.3671
-17.8883
-17.1287
-16.0315
-14.5076
-12.4205
-9.56395
-5.62793
-0.157127
7.48092
18.0446
32.0746
48.8165
64.0538
-22.1294
-21.9591
-21.6056
-21.0403
-20.2136
-19.0449
-17.4035
-15.0765
-11.7102
-6.70826
0.937504
12.8697
31.4055
58.2511
88.2672
-25.8307
-25.7349
-25.535
-25.2135
-24.7383
-24.0553
-23.0725
-21.6285
-19.4285
-15.9037
-9.89292
1.09057
22.4254
64.5142
135.679
-29.6283
-29.6148
-29.5866
-29.5406
-29.4709
-29.3659
-29.2029
-28.937
-28.472
-27.5855
-25.6966
-21.0405
-7.30964
41.7003
248.759
20.4989
21.1116
21.5037
21.6762
21.6376
21.4024
20.9889
20.4179
19.711
18.8891
17.9718
16.9769
15.9198
14.8139
13.6706
12.4995
11.3085
10.1044
8.89301
7.6791
6.46683
5.25975
4.06088
2.8728
1.69768
0.53732
-0.606826
-1.73363
-2.84227
-3.93222
-5.00323
-6.05526
-7.08847
-8.10313
-9.09956
-10.078
-11.0388
-11.9819
-12.9071
-13.8143
-14.703
-15.5728
-16.4234
-17.2545
-18.0662
-18.8587
-19.6326
-20.3887
-21.1279
-21.8512
-22.5594
-23.253
-23.9323
-24.5968
-25.246
-25.8787
-26.4934
-27.0885
-27.6625
-28.2138
-28.7411
-29.2433
-29.7193
-30.1681
-30.5884
-30.9785
-31.3362
-31.6584
-31.941
-32.1794
-32.3679
-32.5006
-32.5713
-32.5738
-32.5026
-32.3528
-32.1206
-31.8037
-31.4011
-30.913
-30.3415
-29.69
-28.9633
-28.1677
-27.3111
-26.4025
-25.4526
-24.4728
-23.4755
-22.4737
20.8056
21.4288
21.8193
21.9795
21.9203
21.6585
21.2151
20.6132
19.876
19.0259
18.0832
17.066
15.9896
14.8674
13.7104
12.5277
11.327
10.1147
8.89633
7.67648
6.45914
5.24772
4.04517
2.85398
1.67629
0.513851
-0.631899
-1.75986
-2.86924
-3.95954
-5.03057
-6.08236
-7.11516
-8.12935
-9.12534
-10.1035
-11.0642
-12.0074
-12.933
-13.8408
-14.7301
-15.6004
-16.4513
-17.2824
-18.0936
-18.8853
-19.658
-20.4127
-21.1505
-21.8727
-22.58
-23.2734
-23.9531
-24.6187
-25.2695
-25.9043
-26.5212
-27.1187
-27.6948
-28.248
-28.777
-29.2806
-29.7581
-30.2087
-30.6314
-31.0249
-31.387
-31.7148
-32.0044
-32.2507
-32.4479
-32.5896
-32.669
-32.6797
-32.6153
-32.4709
-32.2423
-31.9269
-31.5236
-31.0328
-30.4564
-29.7979
-29.062
-28.2553
-27.3854
-26.4618
-25.4952
-24.4976
-23.4819
-22.4618
21.4371
22.0806
22.4657
22.5983
22.4941
22.1755
21.6691
21.0027
20.2033
19.2957
18.3016
17.2396
16.1252
14.9708
13.7868
12.5815
11.3618
10.1335
8.90152
7.67003
6.4427
5.22274
4.0129
2.81558
1.63279
0.466241
-0.682686
-1.81292
-2.92373
-4.01467
-5.08564
-6.13682
-7.16866
-8.18173
-9.17671
-10.1542
-11.1146
-12.0582
-12.9847
-13.8936
-14.7843
-15.6559
-16.5075
-17.3386
-18.149
-18.9389
-19.7091
-20.4609
-21.1957
-21.9151
-22.6206
-23.3134
-23.9938
-24.6617
-25.316
-25.9551
-26.5769
-27.1792
-27.7598
-28.3168
-28.8489
-29.3552
-29.8354
-30.2891
-30.7163
-31.116
-31.4868
-31.826
-32.1296
-32.3923
-32.6074
-32.7678
-32.8655
-32.893
-32.8431
-32.7098
-32.4885
-32.1762
-31.7717
-31.2754
-30.6892
-30.0166
-29.2626
-28.4334
-27.5369
-26.5827
-25.5821
-24.548
-23.4946
-22.4369
22.4315
23.1038
23.4752
23.5576
23.3758
22.9623
22.3529
21.5832
20.6858
19.6894
18.6173
17.4884
16.3177
15.1164
13.8934
12.6557
11.4088
10.1574
8.90571
7.65731
6.41544
5.18297
3.96245
2.75607
1.56577
0.393138
-0.760479
-1.89405
-3.00688
-4.09859
-5.16922
-6.21915
-7.24914
-8.26013
-9.25321
-10.2294
-11.1893
-12.1334
-13.0614
-13.9726
-14.8659
-15.7398
-16.5931
-17.4245
-18.2337
-19.0207
-19.7867
-20.5332
-21.2626
-21.9772
-22.6794
-23.3709
-24.0524
-24.7239
-25.3839
-26.0304
-26.6603
-27.2706
-27.8584
-28.4212
-28.9576
-29.4672
-29.9502
-30.4075
-30.8401
-31.2484
-31.6318
-31.9881
-32.3134
-32.6018
-32.8455
-33.0357
-33.1628
-33.2173
-33.1904
-33.0749
-32.8652
-32.558
-32.1517
-31.647
-31.046
-30.3524
-29.5709
-28.7079
-27.7711
-26.7701
-25.717
-24.6258
-23.5131
-22.3962
23.8531
24.5599
24.8999
24.8968
24.5908
24.0306
23.267
22.3468
21.3107
20.1914
19.0141
17.7972
16.5538
15.293
14.021
12.7427
11.4618
10.1815
8.90489
7.63496
6.37442
5.12581
3.89143
2.67328
1.47315
0.292546
-0.86723
-2.00514
-3.12048
-4.21291
-5.2826
-6.33022
-7.35695
-8.36431
-9.35404
-10.3278
-11.2868
-12.2317
-13.1622
-14.0774
-14.9752
-15.8535
-16.7098
-17.5424
-18.35
-19.1327
-19.8919
-20.6301
-21.3505
-22.0571
-22.7534
-23.4423
-24.1252
-24.8021
-25.4712
-26.1292
-26.7718
-27.3943
-27.9925
-28.5632
-29.1047
-29.617
-30.1017
-30.5612
-30.9986
-31.4162
-31.8153
-32.1945
-32.5501
-32.8751
-33.1603
-33.3941
-33.5642
-33.6583
-33.6651
-33.5752
-33.3821
-33.0818
-32.6731
-32.1569
-31.5359
-30.8142
-29.9964
-29.0884
-28.0972
-27.0324
-25.9061
-24.7346
-23.5372
-22.3356
25.8025
26.5433
26.8182
26.6717
26.171
25.3915
24.4058
23.2769
22.0548
20.7766
19.4676
18.1438
16.8147
15.4851
14.1575
12.8332
11.5135
10.1999
8.89425
7.59883
6.31599
5.04797
3.79684
2.56441
1.35227
0.16185
-1.00555
-2.14882
-3.26711
-4.36002
-5.42778
-6.47139
-7.49261
-8.49385
-9.47785
-10.4473
-11.4045
-12.3505
-13.2852
-14.2068
-15.1125
-15.9985
-16.8608
-17.6959
-18.5019
-19.2785
-20.0273
-20.7521
-21.4582
-22.1515
-22.8379
-23.5219
-24.2064
-24.8914
-25.5743
-26.25
-26.9118
-27.5525
-28.1658
-28.7469
-29.2935
-29.8064
-30.2889
-30.7463
-31.185
-31.6106
-32.0269
-32.4346
-32.8302
-33.2055
-33.5485
-33.8438
-34.0748
-34.2247
-34.2784
-34.2239
-34.0529
-33.7614
-33.3487
-32.8171
-32.1706
-31.4138
-30.5514
-29.5881
-28.5292
-27.3826
-26.1602
-24.8803
-23.5668
-22.2486
28.4351
29.1971
29.3425
28.9562
28.1523
27.0487
25.7504
24.3405
22.8792
21.4056
19.9417
18.4977
17.0758
15.6739
14.2887
12.9168
11.5563
10.2065
8.86863
7.54438
6.236
4.94563
3.67516
2.42616
1.19998
-0.00209519
-1.17873
-2.32854
-3.45033
-4.54336
-5.60775
-6.64479
-7.65704
-8.64816
-9.62252
-10.5846
-11.5382
-12.4855
-13.4267
-14.3592
-15.2782
-16.1775
-17.0505
-17.8913
-18.6961
-19.4639
-20.197
-20.901
-21.5841
-22.2557
-22.9253
-23.6007
-24.2865
-24.9834
-25.6874
-26.3904
-27.0817
-27.7501
-28.3853
-28.9798
-29.5306
-30.0392
-30.5118
-30.9582
-31.3899
-31.8178
-32.2506
-32.6919
-33.1391
-33.5822
-34.0048
-34.3859
-34.7017
-34.9291
-35.0471
-35.0398
-34.897
-34.615
-34.1952
-33.6425
-32.9637
-32.1651
-31.2514
-30.2251
-29.0873
-27.8414
-26.497
-25.0738
-23.6031
-22.1254
31.9951
32.7381
32.6319
31.8415
30.5645
28.9861
27.255
25.4776
23.721
22.02
20.3869
18.8194
17.3075
15.8385
14.4005
12.9839
11.5831
10.1959
8.8231
7.46687
6.12986
4.81446
3.52242
2.25493
1.01286
-0.202783
-1.39059
-2.54869
-3.67502
-4.76798
-5.82712
-6.8539
-7.85187
-8.82656
-9.78483
-10.734
-11.6807
-12.6294
-13.5806
-14.5308
-15.4721
-16.3943
-17.2864
-18.1384
-18.9435
-19.699
-20.4083
-21.0798
-21.7263
-22.3627
-23.0042
-23.664
-24.3504
-25.0651
-25.8017
-26.5472
-27.2844
-27.9952
-28.6629
-29.2755
-29.828
-30.3233
-30.7721
-31.1911
-31.5998
-32.0178
-32.4616
-32.9404
-33.4534
-33.9879
-34.5207
-35.0213
-35.4558
-35.7905
-35.996
-36.0503
-35.9413
-35.6668
-35.2326
-34.6492
-33.9288
-33.0817
-32.1133
-31.0221
-29.8007
-28.4418
-26.947
-25.3354
-23.6494
-21.9507
36.8801
37.5012
36.9061
35.4268
33.4105
31.1428
28.8259
26.5846
24.4821
22.5363
20.7373
19.0605
17.4769
15.9583
14.481
13.028
11.5899
10.1643
8.75349
7.36146
5.99244
4.64948
3.33419
2.04695
0.787586
-0.443645
-1.64532
-2.81463
-3.94782
-5.04129
-6.09311
-7.10446
-8.08021
-9.02857
-9.96016
-10.8869
-11.8204
-12.7693
-13.7361
-14.715
-15.6933
-16.6543
-17.5798
-18.4531
-19.2618
-20.0007
-20.6738
-21.2945
-21.8827
-22.462
-23.0567
-23.6887
-24.3735
-25.1149
-25.9029
-26.7156
-27.5251
-28.3019
-29.0194
-29.6576
-30.2075
-30.6741
-31.0752
-31.4384
-31.7958
-32.1805
-32.6217
-33.1392
-33.7364
-34.3956
-35.0825
-35.7516
-36.3531
-36.8377
-37.1622
-37.2955
-37.2233
-36.9481
-36.4844
-35.8529
-35.0761
-34.1727
-33.1518
-32.0063
-30.7117
-29.2377
-27.5649
-25.7036
-23.7139
-21.699
43.7747
44.0147
42.4529
39.7848
36.6178
33.37
30.2875
27.4914
25.017
22.8411
20.9111
19.1672
17.5524
16.0183
14.5262
13.0502
11.5784
10.1114
8.65654
7.22274
5.81728
4.44451
3.10544
1.79869
0.521704
-0.727154
-1.94671
-3.13264
-4.27784
-5.37462
-6.41738
-7.40625
-8.34799
-9.25468
-10.1424
-11.03
-11.9379
-12.8835
-13.874
-14.8999
-15.9394
-16.9652
-17.9481
-18.8606
-19.6806
-20.3968
-21.0145
-21.5557
-22.0517
-22.5389
-23.0552
-23.6373
-24.3145
-25.0976
-25.9681
-26.8884
-27.8124
-28.6938
-29.4897
-30.1664
-30.7069
-31.1186
-31.4326
-31.6935
-31.9522
-32.2614
-32.6717
-33.2231
-33.9295
-34.7633
-35.6694
-36.5789
-37.4184
-38.115
-38.6033
-38.8363
-38.7974
-38.5006
-37.9772
-37.2656
-36.4052
-35.4323
-34.3693
-33.205
-31.8806
-30.3195
-28.4538
-26.2566
-23.8144
-21.3228
53.9485
53.1223
49.5917
44.8603
39.9402
35.3581
31.3364
27.9344
25.1218
22.7911
20.8168
19.0873
17.5116
16.0173
14.548
13.066
11.5595
10.0408
8.52897
7.04296
5.59486
4.19082
2.82999
1.50745
0.215211
-1.05294
-2.29661
-3.50932
-4.67764
-5.78575
-6.81923
-7.7759
-8.66618
-9.50811
-10.3246
-11.1439
-12.001
-12.9327
-13.961
-15.0649
-16.2053
-17.3375
-18.4177
-19.4012
-20.2487
-20.9343
-21.4654
-21.8816
-22.2332
-22.5738
-22.9587
-23.4484
-24.1029
-24.9542
-25.9615
-27.0553
-28.1609
-29.2086
-30.1312
-30.8709
-31.3912
-31.7036
-31.8661
-31.9514
-32.0356
-32.1963
-32.5179
-33.0836
-33.9385
-35.0266
-36.2512
-37.5064
-38.689
-39.6916
-40.4118
-40.768
-40.7423
-40.3788
-39.7407
-38.892
-37.896
-36.8214
-35.7321
-34.6339
-33.3902
-31.8393
-29.8198
-27.1621
-23.9858
-20.7211
69.9969
66.1233
58.4592
50.2067
42.7748
36.5379
31.4922
27.5281
24.5321
22.2275
20.3695
18.7854
17.3532
15.98
14.5876
13.1166
11.5578
9.96014
8.36391
6.80835
5.30874
3.87473
2.49924
1.17242
-0.12608
-1.41409
-2.69114
-3.94998
-5.16415
-6.30437
-7.33168
-8.24113
-9.05396
-9.79816
-10.5024
-11.2036
-11.9564
-12.8428
-13.9389
-15.1772
-16.4828
-17.7845
-19.0265
-20.1374
-21.0496
-21.6939
-22.0817
-22.3001
-22.4302
-22.5445
-22.7109
-23.0222
-23.6075
-24.5856
-25.8301
-27.2049
-28.5922
-29.9035
-31.0356
-31.8911
-32.3743
-32.5041
-32.4105
-32.2105
-32.0085
-31.899
-32.0121
-32.5273
-33.6112
-35.0929
-36.7883
-38.5381
-40.2183
-41.6743
-42.7442
-43.2489
-43.1729
-42.6522
-41.8067
-40.7302
-39.4993
-38.2311
-37.1072
-36.2718
-35.3414
-34.0337
-32.1043
-28.8141
-24.2839
-19.6514
97.8795
84.5812
68.1736
54.3721
43.8885
36.0023
30.09
25.7272
22.9466
21.0202
19.5277
18.2642
17.1095
15.9699
14.7401
13.2935
11.612
9.87711
8.1401
6.49303
4.92805
3.47425
2.09831
0.796553
-0.482551
-1.79107
-3.11195
-4.45499
-5.75716
-6.98558
-8.01381
-8.84545
-9.54051
-10.1456
-10.6847
-11.1888
-11.7192
-12.4508
-13.7118
-15.1924
-16.7657
-18.3175
-19.8235
-21.1598
-22.2361
-22.8226
-22.9416
-22.8458
-22.6495
-22.4401
-22.2543
-22.201
-22.5464
-23.8332
-25.5107
-27.3363
-29.1327
-30.8559
-32.3379
-33.4473
-33.8658
-33.6261
-33.1076
-32.4722
-31.8477
-31.281
-30.927
-31.1518
-32.7107
-34.8511
-37.2468
-39.6695
-42.0703
-44.2123
-45.89
-46.5655
-46.2436
-45.3929
-44.2048
-42.7904
-41.1559
-39.4325
-38.0666
-38.0462
-37.8356
-37.1228
-36.3482
-32.2515
-24.729
-17.4686
153.091
107.515
74.1333
53.7583
41.261
32.6237
26.4557
21.6475
20.1304
19.1879
18.3557
17.5861
16.8434
16.0896
15.2042
13.8084
11.7427
9.79682
7.78649
6.05926
4.38704
2.96147
1.5904
0.387947
-0.796754
-2.15033
-3.5009
-5.01888
-6.45637
-7.95507
-8.979
-9.64641
-10.1565
-10.5882
-10.9173
-11.1362
-11.1921
-11.2963
-13.1685
-15.074
-17.0792
-18.9162
-20.8649
-22.556
-24.1279
-24.6242
-24.1103
-23.5361
-22.8873
-22.3016
-21.6067
-20.8053
-20.1295
-22.5179
-24.9776
-27.5097
-29.7781
-32.1554
-34.1764
-35.9978
-36.3048
-35.1492
-33.9726
-32.7176
-31.6035
-30.3563
-29.0079
-27.8549
-30.9723
-34.2412
-37.6662
-40.8318
-44.2942
-47.4184
-50.4785
-51.3177
-50.0752
-48.619
-46.9282
-45.1669
-42.9401
-40.1183
-37.088
-40.0941
-41.0522
-40.3005
-45.3754
-40.6216
-24.7964
-12.3625
280.526
112.886
61.363
41.7998
33.0746
25.6885
20.863
12.8284
16.4864
17.1966
17.0929
16.8691
16.593
16.3983
16.4028
15.2879
11.7004
9.80911
7.02502
5.54609
3.49072
2.37009
0.839582
-0.0462905
-0.86785
-2.51397
-3.6488
-5.69871
-7.06743
-9.6082
-10.4575
-10.6739
-10.8853
-11.1783
-11.3084
-11.3181
-10.5954
-7.596
-12.5769
-14.812
-17.6346
-19.3541
-22.2769
-24.1239
-27.5682
-27.8802
-25.3656
-24.3338
-23.0338
-22.3201
-21.1124
-19.2284
-13.2997
-21.0999
-24.34
-28.0624
-30.2662
-33.9676
-36.3019
-40.7287
-40.8494
-36.7023
-34.9502
-32.7598
-31.5505
-29.5769
-26.8073
-18.4081
-29.0153
-33.4062
-38.4586
-41.5661
-47.0047
-50.7164
-58.2644
-59.0671
-54.2138
-52.1825
-49.7525
-48.2131
-45.5807
-41.104
-27.4165
-45.0907
-46.7306
-35.0872
-68.5554
-64.934
-19.9798
0.569624
-21.382
-20.2199
-19.1071
-18.059
-17.0878
-16.2018
-15.4063
-14.7039
-14.095
-13.5787
-13.1533
-12.8164
-12.566
-12.4002
-12.3177
-21.3511
-20.1704
-19.0421
-17.982
-17.0023
-16.1111
-15.313
-14.6101
-14.0022
-13.4878
-13.0645
-12.7298
-12.4813
-12.3168
-12.235
-21.2871
-20.0683
-18.9085
-17.8245
-16.8281
-15.9269
-15.1245
-14.4212
-13.8158
-13.3055
-12.887
-12.5569
-12.3123
-12.1507
-12.0703
-21.1851
-19.9071
-18.699
-17.5789
-16.5586
-15.6439
-14.8364
-14.1343
-13.5341
-13.0312
-12.6208
-12.2984
-12.0602
-11.9031
-11.8251
-21.0371
-19.6755
-18.4011
-17.2334
-16.1832
-15.2536
-14.4427
-13.7454
-13.155
-12.6642
-12.2664
-11.9556
-11.7268
-11.5763
-11.5017
-20.8304
-19.3566
-17.9963
-16.7704
-15.6868
-14.7443
-13.9353
-13.2495
-12.676
-12.2042
-11.825
-11.5305
-11.3149
-11.1736
-11.1036
-20.5451
-18.924
-17.4569
-16.1646
-15.0494
-14.1013
-13.3043
-12.6412
-12.0951
-11.6515
-11.2985
-11.0266
-10.8286
-10.6993
-10.6354
-20.15
-18.3373
-16.7423
-15.3816
-14.2446
-13.3068
-12.5396
-11.9156
-11.4114
-11.0081
-10.6909
-10.4487
-10.2734
-10.1594
-10.1032
-19.5928
-17.5326
-15.7933
-14.3748
-13.2405
-12.3417
-11.6313
-11.07
-10.6268
-10.2784
-10.0081
-9.80366
-9.65669
-9.56156
-9.51481
-18.7813
-16.4069
-14.5233
-13.0837
-12.0008
-11.1879
-10.574
-10.1062
-9.74711
-9.47069
-9.2593
-9.10106
-8.98807
-8.91522
-8.87951
-17.5417
-14.7899
-12.8093
-11.4356
-10.4909
-9.83492
-9.37035
-9.03371
-8.78463
-8.59777
-8.45725
-8.35311
-8.27918
-8.23165
-8.20838
-15.5258
-12.4014
-10.488
-9.35845
-8.69224
-8.29041
-8.03869
-7.8735
-7.75982
-7.67841
-7.61869
-7.57487
-7.54377
-7.52373
-7.51388
-12.0027
-8.80193
-7.38279
-6.81783
-6.62906
-6.5957
-6.62041
-6.66168
-6.70263
-6.73726
-6.76415
-6.78379
-6.79723
-6.80551
-6.80944
-5.40349
-3.42063
-3.42329
-3.90093
-4.4104
-4.84282
-5.18551
-5.45008
-5.6517
-5.80374
-5.91679
-5.99884
-6.05575
-6.09156
-6.10885
7.61184
3.94624
1.01125
-0.952142
-2.26875
-3.17962
-3.82868
-4.30136
-4.65028
-4.90916
-5.10035
-5.23897
-5.33528
-5.39606
-5.42547
-33.122
-33.1852
-33.3171
-33.5293
-33.8419
-34.2872
-34.9172
-35.8191
-37.1484
-39.2131
-42.7201
-49.6464
-66.9061
-124.091
-368.256
-36.2544
-36.3836
-36.6528
-37.0857
-37.7235
-38.6329
-39.9234
-41.7788
-44.5255
-48.7824
-55.8219
-68.4759
-93.3584
-144.964
-239.637
-39.2973
-39.4848
-39.8749
-40.5002
-41.4166
-42.7143
-44.5373
-47.1198
-50.854
-56.4193
-65.0247
-78.8138
-101.253
-135.928
-176.762
-42.2102
-42.4456
-42.9339
-43.7126
-44.845
-46.4309
-48.6239
-51.6611
-55.9109
-61.9451
-70.6277
-83.1441
-100.652
-122.613
-142.245
-44.9597
-45.2309
-45.7913
-46.6794
-47.9587
-49.726
-52.1242
-55.3604
-59.7289
-65.6319
-73.5683
-84.008
-96.9567
-110.916
-121.359
-47.5209
-47.8154
-48.4214
-49.3748
-50.7336
-52.5831
-55.0427
-58.2734
-62.4813
-67.9067
-74.7706
-83.1293
-92.5596
-101.662
-107.725
-49.8779
-50.1837
-50.8102
-51.7887
-53.1678
-55.0165
-57.4257
-60.5077
-64.3884
-69.1825
-74.9349
-81.5063
-88.3897
-94.5188
-98.3013
-52.0226
-52.3292
-52.9549
-53.9244
-55.276
-57.0607
-59.3415
-62.1873
-65.6611
-69.7927
-74.5306
-79.6665
-84.7436
-89.0048
-91.5041
-53.9544
-54.2534
-54.8607
-55.795
-57.0834
-58.7607
-60.8648
-63.4309
-66.477
-69.9818
-73.8499
-77.8675
-81.6638
-84.7143
-86.4424
-55.6787
-55.9635
-56.5396
-57.4196
-58.621
-60.1641
-62.0675
-64.3411
-66.9743
-69.9186
-73.0653
-76.2222
-79.1019
-81.3421
-82.5805
-57.2054
-57.4714
-58.0075
-58.821
-59.9214
-61.3174
-63.0131
-65.0016
-67.2555
-69.7147
-72.2735
-74.7694
-76.9841
-78.6653
-79.5786
-58.5473
-58.7918
-59.2828
-60.0233
-61.0165
-62.2625
-63.7555
-65.4779
-67.3941
-69.4418
-71.5253
-73.5119
-75.2366
-76.5218
-77.2109
-59.7194
-59.9411
-60.3848
-61.0503
-61.9359
-63.0361
-64.3385
-65.8198
-67.4413
-69.1439
-70.8445
-72.4362
-73.7944
-74.792
-75.3218
-60.7377
-60.9363
-61.3327
-61.9245
-62.7065
-63.6694
-64.7972
-66.0642
-67.4322
-68.8473
-70.2393
-71.5226
-72.6026
-73.387
-73.8005
-61.618
-61.7943
-62.1451
-62.6665
-63.3514
-64.1882
-65.1593
-66.2386
-67.3903
-68.5669
-69.7095
-70.75
-71.6161
-72.2395
-72.5663
-62.3759
-62.531
-62.839
-63.295
-63.8908
-64.6139
-65.4461
-66.3628
-67.3311
-68.31
-69.2506
-70.0986
-70.7981
-71.2981
-71.5589
-63.026
-63.1616
-63.4302
-63.8265
-64.3419
-64.9636
-65.6744
-66.451
-67.2646
-68.0797
-68.8561
-69.5502
-70.1187
-70.5227
-70.7327
-63.5821
-63.6999
-63.9327
-64.2753
-64.7191
-65.2517
-65.8568
-66.5138
-67.1969
-67.8763
-68.5187
-69.0891
-69.5535
-69.882
-70.0522
-64.0564
-64.1582
-64.3591
-64.654
-65.0345
-65.4893
-66.0034
-66.5583
-67.1317
-67.6986
-68.2313
-68.7016
-69.0826
-69.3512
-69.49
-64.46
-64.5476
-64.7203
-64.9731
-65.2984
-65.6857
-66.1216
-66.5898
-67.0712
-67.5446
-67.9871
-68.3761
-68.6899
-68.9104
-69.0241
-64.8028
-64.8779
-65.0258
-65.2419
-65.5193
-65.8484
-66.2175
-66.6122
-67.0163
-67.4119
-67.7802
-68.1027
-68.362
-68.5437
-68.6373
-65.0935
-65.1577
-65.284
-65.4683
-65.7042
-65.9834
-66.2954
-66.6281
-66.9674
-67.2983
-67.6052
-67.8731
-68.0879
-68.2381
-68.3154
-65.3396
-65.3944
-65.502
-65.6587
-65.859
-66.0955
-66.3592
-66.6393
-66.9242
-67.2012
-67.4574
-67.6803
-67.8587
-67.9832
-68.0473
-65.5478
-65.5943
-65.6858
-65.8189
-65.9887
-66.1888
-66.4114
-66.6473
-66.8866
-67.1186
-67.3326
-67.5185
-67.6669
-67.7704
-67.8235
-65.7235
-65.7631
-65.8407
-65.9536
-66.0974
-66.2666
-66.4543
-66.6529
-66.8539
-67.0484
-67.2274
-67.3826
-67.5063
-67.5925
-67.6367
-65.8719
-65.9054
-65.9712
-66.0668
-66.1885
-66.3314
-66.4897
-66.6569
-66.8258
-66.9889
-67.1388
-67.2685
-67.3718
-67.4437
-67.4805
-65.9969
-66.0253
-66.0811
-66.162
-66.2648
-66.3855
-66.519
-66.6598
-66.8017
-66.9386
-67.0643
-67.1728
-67.2592
-67.3192
-67.3499
-66.1022
-66.1262
-66.1734
-66.2419
-66.3288
-66.4306
-66.5432
-66.6618
-66.7812
-66.8962
-67.0015
-67.0925
-67.1648
-67.215
-67.2407
-66.1907
-66.2111
-66.251
-66.3089
-66.3824
-66.4684
-66.5633
-66.6632
-66.7637
-66.8603
-66.9488
-67.0252
-67.0858
-67.1278
-67.1494
-66.2652
-66.2824
-66.3162
-66.3651
-66.4272
-66.4999
-66.58
-66.6642
-66.7489
-66.8302
-66.9046
-66.9687
-67.0196
-67.0549
-67.073
-66.3276
-66.3422
-66.3708
-66.4122
-66.4648
-66.5262
-66.5939
-66.6649
-66.7363
-66.8048
-66.8675
-66.9215
-66.9642
-66.9939
-67.0091
-66.3799
-66.3923
-66.4166
-66.4516
-66.4961
-66.5481
-66.6054
-66.6654
-66.7257
-66.7836
-66.8365
-66.8819
-66.918
-66.943
-66.9558
-66.4237
-66.4342
-66.4548
-66.4845
-66.5223
-66.5664
-66.6149
-66.6658
-66.7168
-66.7658
-66.8105
-66.849
-66.8795
-66.9006
-66.9114
-66.4601
-66.469
-66.4866
-66.5119
-66.544
-66.5815
-66.6228
-66.666
-66.7094
-66.751
-66.7889
-66.8215
-66.8474
-66.8653
-66.8745
-66.4903
-66.4979
-66.5129
-66.5346
-66.562
-66.5941
-66.6293
-66.6662
-66.7032
-66.7387
-66.771
-66.7988
-66.8208
-66.8361
-66.8439
-66.5152
-66.5218
-66.5347
-66.5533
-66.5769
-66.6044
-66.6347
-66.6664
-66.6981
-66.7285
-66.7563
-66.7801
-66.799
-66.8121
-66.8188
-66.5355
-66.5412
-66.5524
-66.5685
-66.589
-66.6128
-66.639
-66.6664
-66.6939
-66.7202
-66.7442
-66.7649
-66.7812
-66.7925
-66.7982
-66.5519
-66.5569
-66.5667
-66.5808
-66.5987
-66.6196
-66.6425
-66.6665
-66.6906
-66.7136
-66.7345
-66.7526
-66.7668
-66.7767
-66.7818
-66.5648
-66.5692
-66.5779
-66.5905
-66.6063
-66.6249
-66.6452
-66.6666
-66.6879
-66.7083
-66.7269
-66.7429
-66.7555
-66.7643
-66.7688
-66.5746
-66.5786
-66.5865
-66.5978
-66.6122
-66.6289
-66.6473
-66.6666
-66.6859
-66.7043
-66.7211
-66.7355
-66.747
-66.7549
-66.7589
-66.5816
-66.5853
-66.5926
-66.6031
-66.6163
-66.6318
-66.6488
-66.6666
-66.6844
-66.7014
-66.7169
-66.7303
-66.7408
-66.7481
-66.7518
-66.5861
-66.5896
-66.5965
-66.6064
-66.619
-66.6337
-66.6498
-66.6666
-66.6835
-66.6996
-66.7143
-66.7269
-66.7369
-66.7438
-66.7474
-66.5881
-66.5915
-66.5982
-66.6079
-66.6202
-66.6345
-66.6502
-66.6666
-66.6831
-66.6988
-66.7131
-66.7254
-66.7352
-66.7419
-66.7453
-66.5877
-66.5912
-66.5979
-66.6076
-66.62
-66.6343
-66.6501
-66.6666
-66.6831
-66.6989
-66.7133
-66.7257
-66.7355
-66.7422
-66.7457
-66.585
-66.5885
-66.5955
-66.6056
-66.6183
-66.6332
-66.6495
-66.6666
-66.6837
-66.7001
-66.715
-66.7278
-66.7379
-66.7449
-66.7485
-66.5797
-66.5835
-66.5909
-66.6017
-66.6152
-66.631
-66.6484
-66.6666
-66.6848
-66.7022
-66.7181
-66.7317
-66.7425
-66.7499
-66.7537
-66.5719
-66.576
-66.5841
-66.5958
-66.6106
-66.6278
-66.6468
-66.6666
-66.6864
-66.7054
-66.7227
-66.7376
-66.7493
-66.7575
-66.7616
-66.5611
-66.5657
-66.5747
-66.5877
-66.6042
-66.6234
-66.6445
-66.6666
-66.6887
-66.7098
-66.7291
-66.7456
-66.7587
-66.7678
-66.7724
-66.5472
-66.5524
-66.5626
-66.5773
-66.5959
-66.6177
-66.6415
-66.6665
-66.6915
-66.7155
-66.7373
-66.7561
-66.7709
-66.7812
-66.7864
-66.5297
-66.5356
-66.5473
-66.5642
-66.5855
-66.6104
-66.6378
-66.6665
-66.6952
-66.7226
-66.7477
-66.7692
-66.7863
-66.798
-66.8041
-66.508
-66.5149
-66.5284
-66.5479
-66.5726
-66.6015
-66.6332
-66.6664
-66.6996
-66.7315
-66.7605
-66.7855
-66.8052
-66.8189
-66.8259
-66.4815
-66.4895
-66.5053
-66.5281
-66.5569
-66.5905
-66.6275
-66.6663
-66.7051
-66.7423
-66.7762
-66.8054
-66.8285
-66.8444
-66.8526
-66.4494
-66.4589
-66.4773
-66.504
-66.5378
-66.5772
-66.6206
-66.6661
-66.7117
-66.7553
-66.7952
-66.8295
-66.8566
-66.8754
-66.885
-66.4109
-66.4219
-66.4436
-66.475
-66.5148
-66.5612
-66.6123
-66.6659
-66.7196
-66.7711
-66.8181
-66.8585
-66.8905
-66.9127
-66.9241
-66.3646
-66.3776
-66.4032
-66.4402
-66.4871
-66.5419
-66.6022
-66.6655
-66.729
-66.7899
-66.8455
-66.8934
-66.9313
-66.9575
-66.971
-66.3092
-66.3246
-66.3548
-66.3986
-66.454
-66.5188
-66.5902
-66.6651
-66.7403
-66.8124
-66.8784
-66.9351
-66.9801
-67.0113
-67.0273
-66.2431
-66.2614
-66.2971
-66.3488
-66.4144
-66.4911
-66.5756
-66.6644
-66.7536
-66.8393
-66.9176
-66.985
-67.0385
-67.0756
-67.0946
-66.1644
-66.186
-66.2282
-66.2894
-66.367
-66.4579
-66.5581
-66.6635
-66.7694
-66.8712
-66.9643
-67.0446
-67.1083
-67.1525
-67.1752
-66.0707
-66.0962
-66.1462
-66.2186
-66.3105
-66.4182
-66.5371
-66.6622
-66.788
-66.9091
-67.02
-67.1157
-67.1917
-67.2444
-67.2714
-65.9593
-65.9895
-66.0485
-66.1342
-66.2431
-66.3707
-66.5117
-66.6603
-66.81
-66.9542
-67.0863
-67.2004
-67.2911
-67.3541
-67.3864
-65.827
-65.8626
-65.9324
-66.0338
-66.1626
-66.3138
-66.4812
-66.6577
-66.8358
-67.0075
-67.1652
-67.3014
-67.4099
-67.4852
-67.5239
-65.67
-65.712
-65.7945
-65.9142
-66.0667
-66.2458
-66.4443
-66.654
-66.8659
-67.0706
-67.2588
-67.4218
-67.5515
-67.6418
-67.6881
-65.4838
-65.5333
-65.6306
-65.772
-65.9522
-66.1642
-66.3996
-66.6488
-66.901
-67.1452
-67.3701
-67.5651
-67.7206
-67.8289
-67.8845
-65.2632
-65.3215
-65.4361
-65.6028
-65.8156
-66.0664
-66.3455
-66.6414
-66.9418
-67.2332
-67.5022
-67.7358
-67.9225
-68.0526
-68.1195
-65.0022
-65.0707
-65.2054
-65.4016
-65.6525
-65.9489
-66.2795
-66.6311
-66.9887
-67.3367
-67.6587
-67.9391
-68.1636
-68.3203
-68.4009
-64.6936
-64.7739
-64.9319
-65.1625
-65.4579
-65.8078
-66.1991
-66.6164
-67.0424
-67.4582
-67.8442
-68.1812
-68.4517
-68.6409
-68.7383
-64.3292
-64.4231
-64.608
-64.8784
-65.2256
-65.6378
-66.1005
-66.5958
-67.1032
-67.6004
-68.0637
-68.4696
-68.7962
-69.0252
-69.1432
-63.8996
-64.009
-64.2249
-64.541
-64.948
-65.4329
-65.9793
-66.5666
-67.1712
-67.7662
-68.3231
-68.813
-69.2085
-69.4866
-69.6301
-63.3941
-63.5211
-63.7721
-64.1405
-64.6163
-65.1854
-65.8295
-66.5255
-67.2457
-67.9585
-68.6291
-69.2218
-69.7024
-70.0414
-70.2167
-62.8004
-62.9472
-63.2377
-63.6654
-64.2198
-64.8859
-65.6438
-66.4676
-67.3255
-68.18
-68.9891
-69.7084
-70.2947
-70.7097
-70.925
-62.1047
-62.2735
-62.6082
-63.1024
-63.7456
-64.5227
-65.4123
-66.3859
-67.4075
-68.433
-69.4114
-70.2874
-71.0058
-71.5169
-71.7827
-61.2918
-61.4847
-61.8679
-62.4358
-63.1786
-64.0814
-65.1223
-66.271
-67.487
-68.7187
-69.9047
-70.9759
-71.8609
-72.4943
-72.825
-60.3449
-60.5638
-60.9995
-61.6478
-62.5004
-63.5441
-64.7576
-66.1094
-67.5554
-69.0362
-70.4778
-71.7935
-72.8908
-73.6819
-74.0968
-59.2462
-59.4922
-59.9835
-60.7178
-61.6897
-62.8889
-64.2967
-65.8825
-67.5995
-69.381
-71.1383
-72.7628
-74.1334
-75.1305
-75.6568
-57.9765
-58.2504
-58.7989
-59.6228
-60.7212
-62.0889
-63.7123
-65.5646
-67.5989
-69.7424
-71.891
-73.9085
-75.6351
-76.9062
-77.5822
-56.5168
-56.8179
-57.4231
-58.3372
-59.5658
-61.1113
-62.969
-65.1201
-67.5225
-70.1004
-72.7346
-75.2561
-77.4532
-79.0949
-79.9771
-54.848
-55.1744
-55.8327
-56.8334
-58.1902
-59.9169
-62.0221
-64.5012
-67.3241
-70.4194
-73.6563
-76.8291
-79.6568
-81.8112
-82.9844
-52.9527
-53.3004
-54.0046
-55.0823
-56.5579
-58.4597
-60.8155
-63.6434
-66.9364
-70.6401
-74.6225
-78.6416
-82.3279
-85.2087
-86.8064
-50.816
-51.1789
-51.9171
-53.0551
-54.6296
-56.6872
-59.2812
-62.4627
-66.2636
-70.6673
-75.563
-80.6851
-85.5582
-89.4971
-91.7377
-48.4274
-48.797
-49.552
-50.725
-52.3658
-54.5423
-57.3391
-60.8519
-65.1721
-70.3529
-76.3464
-82.9014
-89.4372
-94.9647
-98.2249
-45.7823
-46.1474
-46.8968
-48.07
-49.7301
-51.9666
-54.8997
-58.6804
-63.4828
-69.4741
-76.7396
-85.131
-94.0164
-102.007
-106.976
-42.8838
-43.2312
-43.9473
-45.0772
-46.6942
-48.9074
-51.8718
-55.7994
-60.968
-67.7104
-76.351
-87.0173
-99.217
-111.146
-119.178
-39.7443
-40.059
-40.7106
-41.7461
-43.2443
-45.3267
-48.1749
-52.0567
-57.3603
-64.6284
-74.5557
-87.8386
-104.605
-122.992
-136.957
-36.3863
-36.6531
-37.2074
-38.0939
-39.389
-41.2143
-43.7603
-47.3268
-52.3885
-59.6996
-70.4302
-86.2405
-108.868
-137.908
-164.434
-32.8433
-33.0478
-33.4736
-34.1581
-35.1656
-36.6014
-38.6373
-41.5585
-45.8545
-52.3963
-62.7771
-79.9082
-108.677
-154.571
-210.33
-29.1586
-29.2888
-29.5605
-29.9982
-30.6449
-31.5721
-32.8996
-34.8356
-37.7611
-42.4271
-50.4365
-65.494
-96.5938
-164.383
-294.946
-25.3835
-25.4319
-25.5324
-25.6935
-25.9296
-26.2648
-26.7396
-27.4255
-28.4593
-30.1364
-33.2015
-39.9393
-59.0316
-130.6
-470.231
-21.5752
-21.539
-21.4625
-21.3368
-21.1456
-20.8608
-20.4333
-19.774
-18.7111
-16.8821
-13.4163
-5.80543
14.9723
89.3372
432.254
-17.7924
-17.6743
-17.427
-17.0258
-16.4269
-15.5561
-14.2881
-12.403
-9.49521
-4.76509
3.49007
19.1846
51.7624
122.779
259.259
-14.0918
-13.8996
-13.4987
-12.8525
-11.8971
-10.5275
-8.57178
-5.7426
-1.54528
4.90341
15.2296
32.4497
61.8581
110.76
181.047
24.5753
10.0295
4.18559
1.15803
-0.677463
-1.89497
-2.74654
-3.36178
-3.81479
-4.15111
-4.40007
-4.58115
-4.70735
-4.78722
-4.82593
15.537
9.51651
5.11554
2.24855
0.34
-0.981208
-1.92688
-2.62024
-3.13627
-3.5226
-3.81056
-4.02119
-4.16865
-4.26227
-4.30774
10.6795
7.87881
4.98018
2.67347
0.949581
-0.328227
-1.28243
-2.00184
-2.54777
-2.96237
-3.27473
-3.50506
-3.66729
-3.77073
-3.82109
7.7668
6.30907
4.43373
2.69362
1.24938
0.100031
-0.801018
-1.50388
-2.05047
-2.47311
-2.79583
-3.0362
-3.20674
-3.31601
-3.36937
5.86636
5.02926
3.79334
2.50827
1.34437
0.355858
-0.45723
-1.11442
-1.63924
-2.0532
-2.3741
-2.6158
-2.7887
-2.9001
-2.95467
4.54719
4.02637
3.18704
2.23877
1.31756
0.489859
-0.221697
-0.816893
-1.30497
-1.69792
-2.00733
-2.24317
-2.41334
-2.52363
-2.57784
3.58967
3.24465
2.65635
1.95045
1.22579
0.543199
-0.0669682
-0.59374
-1.03676
-1.40062
-1.69164
-1.91613
-2.07953
-2.18608
-2.23864
2.87171
2.63183
2.20732
1.67515
1.10481
0.546237
0.0298472
-0.428744
-0.823504
-1.1539
-1.42215
-1.63148
-1.78518
-1.88601
-1.93592
2.3203
2.1472
1.83303
1.42634
0.975635
0.519977
0.0865244
-0.308071
-0.654938
-0.950333
-1.19355
-1.38546
-1.52754
-1.62128
-1.66784
1.88909
1.7605
1.52298
1.20809
0.849892
0.478292
0.116216
-0.220539
-0.522111
-0.782989
-1.00057
-1.17402
-1.30344
-1.3893
-1.43209
1.54716
1.44945
1.26664
1.01991
0.733446
0.429988
0.128324
-0.15744
-0.417538
-0.645703
-0.838233
-0.99316
-1.10959
-1.18722
-1.22603
1.27307
1.19746
1.05468
0.859309
0.628797
0.380433
0.12939
-0.112162
-0.335137
-0.533158
-0.701999
-0.839019
-0.942668