/*--------------------------------*- C++ -*----------------------------------*\
| =========                 |                                                 |
| \\      /  F ield         | OpenFOAM: The Open Source CFD Toolbox           |
|  \\    /   O peration     | Version:  5.x                                   |
|   \\  /    A nd           | Web:      www.OpenFOAM.org                      |
|    \\/     M anipulation  |                                                 |
\*---------------------------------------------------------------------------*/
FoamFile
{
    version     2.0;
    format      ascii;
    class       volScalarField;
    location    "15.1";
    object      T;
}
// * * * * * * * * * * * * * * * * * * * * * * * * * * * * * * * * * * * * * //

dimensions      [0 0 0 1 0 0 0];

internalField   nonuniform List<scalar> 
6300
(
10.0037
10.0125
10.0254
10.0449
10.0737
10.114
10.1682
10.2379
10.3248
10.4299
10.5535
10.6957
10.8555
11.0314
11.2213
10.0024
10.0085
10.0187
10.0357
10.062
10.1003
10.1525
10.2208
10.3066
10.4112
10.535
10.678
10.8392
11.0173
11.2099
9.99962
10.0003
10.0052
10.017
10.0386
10.0724
10.1208
10.186
10.2697
10.3732
10.4973
10.6419
10.8062
10.9885
11.1865
9.99547
9.98788
9.98466
9.9887
10.0028
10.0298
10.0723
10.1326
10.2129
10.3147
10.439
10.586
10.755
10.9441
11.1506
9.98986
9.9711
9.95688
9.95025
9.95422
9.97179
10.0059
10.0593
10.1345
10.2336
10.358
10.5082
10.6836
10.8822
11.1008
9.98273
9.94976
9.92152
9.90117
9.89197
9.8972
9.92016
9.96412
10.0322
10.1271
10.2511
10.4051
10.5889
10.8003
11.0355
9.97403
9.9237
9.87823
9.84094
9.81528
9.80484
9.81339
9.8448
9.90298
9.99166
10.114
10.2721
10.4664
10.6947
10.9521
9.96372
9.89277
9.82675
9.76907
9.72334
9.69348
9.68372
9.69867
9.74323
9.82246
9.94111
10.103
10.3098
10.5599
10.8472
9.95177
9.85692
9.76692
9.68522
9.61553
9.56199
9.52932
9.52288
9.54878
9.61379
9.72497
9.88884
10.1098
10.3878
10.7156
9.93823
9.8162
9.69879
9.58934
9.49153
9.40962
9.34865
9.31472
9.31519
9.3589
9.45607
9.61755
9.85277
10.1658
10.5494
9.92316
9.77084
9.62271
9.4818
9.35161
9.23627
9.14093
9.07212
9.03831
9.0505
9.12283
9.27247
9.51788
9.87309
10.3356
9.90672
9.72131
9.53938
9.36354
9.19681
9.04291
8.90666
8.7945
8.71538
8.68194
8.71223
8.83156
9.07313
9.47305
10.0495
9.88914
9.66827
9.44996
9.23616
9.02916
8.83188
8.64826
8.48381
8.34673
8.24961
8.21256
8.26836
8.46996
8.89647
9.63498
9.87073
9.61266
9.35603
9.10196
8.85176
8.60719
8.37066
8.14574
7.93809
7.75717
7.62001
7.55931
7.64182
8.00782
8.93211
9.85184
9.55559
9.25955
8.96386
8.66873
8.37444
8.08142
7.79038
7.50268
7.22094
6.95097
6.70701
6.53015
6.56082
7.36416
11.4059
11.5798
11.7578
11.9382
12.1191
12.2988
12.4758
12.6486
12.8161
12.9771
13.1309
13.2767
13.4138
13.542
13.6607
13.7698
13.8691
13.9583
14.0375
14.1065
14.1655
14.2143
14.2531
14.282
14.301
14.3103
14.31
14.3002
14.2811
14.2528
14.2155
14.1694
14.1146
14.0513
13.9796
13.8996
13.8116
13.7156
13.6119
13.5005
13.3816
13.2555
13.1221
12.9817
12.8345
12.6806
12.5202
12.3534
12.1804
12.0013
11.8162
11.6253
11.4287
11.2264
11.0187
10.8057
10.5874
10.3641
10.1359
9.90307
9.6657
9.42405
9.17831
8.92873
8.67551
8.41892
8.1592
7.89665
7.63156
7.3643
7.09524
6.82483
6.55356
6.28198
6.01067
5.74027
5.47145
5.20492
4.94139
4.68157
4.42617
4.17588
3.93134
3.69316
3.46188
3.23798
3.02184
2.81377
2.61396
2.42251
11.3972
11.5736
11.7543
11.9373
12.1207
12.3026
12.4816
12.6562
12.8252
12.9875
13.1423
13.2889
13.4267
13.5554
13.6745
13.7839
13.8833
13.9727
14.0519
14.1209
14.1798
14.2286
14.2673
14.296
14.3148
14.3239
14.3234
14.3134
14.2941
14.2656
14.2281
14.1817
14.1267
14.0632
13.9912
13.9111
13.8228
13.7267
13.6227
13.5111
13.392
13.2656
13.132
12.9914
12.844
12.6899
12.5292
12.3622
12.189
12.0097
11.8245
11.6334
11.4366
11.2342
11.0263
10.813
10.5945
10.371
10.1426
9.90941
9.67176
9.4298
9.18375
8.93383
8.68027
8.42331
8.16319
7.90019
7.63461
7.36678
7.0971
6.82598
6.55394
6.2815
6.00928
5.73791
5.46809
5.20054
4.93598
4.67515
4.41877
4.16754
3.92214
3.68317
3.45121
3.22675
3.01018
2.80183
2.60189
2.41046
11.3795
11.5613
11.7475
11.9358
12.1241
12.3107
12.4937
12.6718
12.8438
13.0085
13.1654
13.3136
13.4527
13.5823
13.7022
13.8121
13.9119
14.0015
14.0808
14.1498
14.2086
14.2572
14.2957
14.3241
14.3426
14.3513
14.3504
14.3399
14.3201
14.2912
14.2532
14.2064
14.1509
14.087
14.0146
13.934
13.8454
13.7488
13.6444
13.5324
13.4128
13.2859
13.1519
13.0108
12.8629
12.7083
12.5473
12.3799
12.2062
12.0266
11.841
11.6496
11.4524
11.2497
11.0414
10.8278
10.6088
10.3848
10.1558
9.92214
9.6839
9.44132
9.19464
8.94407
8.68982
8.43213
8.17122
7.90735
7.64079
7.37186
7.10092
6.8284
6.55479
6.28064
6.00657
5.73326
5.46141
5.19178
4.92514
4.66225
4.40388
4.15077
3.9036
3.66306
3.42972
3.20411
2.98667
2.77774
2.57754
2.38616
11.3524
11.5428
11.7375
11.934
12.1301
12.3236
12.5128
12.6962
12.8725
13.0409
13.2007
13.3512
13.4922
13.6232
13.7441
13.8547
13.955
14.0449
14.1243
14.1933
14.2519
14.3002
14.3383
14.3663
14.3843
14.3924
14.3908
14.3797
14.3592
14.3296
14.2909
14.2434
14.1873
14.1226
14.0496
13.9684
13.8791
13.7819
13.6769
13.5642
13.444
13.3164
13.1817
13.0399
12.8913
12.736
12.5743
12.4062
12.232
12.0518
11.8658
11.6739
11.4762
11.273
11.0642
10.8499
10.6303
10.4056
10.1758
9.94127
9.70214
9.45865
9.21102
8.95948
8.70423
8.44547
8.18342
7.91828
7.65029
7.37972
7.10692
6.8323
6.55633
6.27958
6.00271
5.72641
5.45146
5.17865
4.90882
4.64279
4.38137
4.12536
3.8755
3.63251
3.39704
3.16966
2.95087
2.74104
2.54044
2.34916
11.3154
11.5179
11.7247
11.9329
12.1396
12.3427
12.5402
12.7305
12.9126
13.0857
13.2491
13.4026
13.5457
13.6785
13.8006
13.9122
14.013
14.1032
14.1827
14.2516
14.3099
14.3578
14.3954
14.4227
14.4399
14.4472
14.4448
14.4328
14.4114
14.3808
14.3412
14.2927
14.2357
14.1701
14.0963
14.0142
13.9241
13.8261
13.7203
13.6067
13.4857
13.3572
13.2214
13.0787
12.9291
12.7728
12.6102
12.4413
12.2663
12.0855
11.8987
11.7062
11.508
11.3041
11.0946
10.8796
10.6592
10.4334
10.2026
9.96688
9.72654
9.4818
9.23292
8.98011
8.72357
8.46347
8.19996
7.93321
7.66339
7.39071
7.11547
6.83804
6.5589
6.27864
5.99793
5.71755
5.43834
5.16118
4.88698
4.61663
4.35103
4.09103
3.83746
3.59109
3.35265
3.12281
2.90212
2.69104
2.48987
2.29875
11.2675
11.4866
11.7099
11.9336
12.1544
12.3698
12.5776
12.7765
12.9656
13.1441
13.3118
13.4686
13.6142
13.7488
13.8723
13.9848
14.0862
14.1767
14.2562
14.3249
14.3829
14.4302
14.467
14.4935
14.5097
14.516
14.5124
14.4992
14.4766
14.4448
14.404
14.3543
14.2961
14.2294
14.1545
14.0715
13.9804
13.8814
13.7746
13.66
13.5378
13.4081
13.2711
13.1271
12.9762
12.8187
12.6549
12.4849
12.309
12.1273
11.9398
11.7467
11.5478
11.3432
11.133
10.917
10.6955
10.4685
10.2362
9.99904
9.75713
9.51082
9.26036
9.006
8.74792
8.48625
8.22108
7.95247
7.6805
7.4053
7.12708
6.84616
6.56301
6.27825
5.9926
5.70694
5.4222
5.13939
4.85951
4.58358
4.31256
4.0474
3.789
3.53821
3.29586
3.06272
2.83949
2.62672
2.42482
2.23394
11.2078
11.4493
11.6944
11.9383
12.177
12.4075
12.6278
12.8367
13.0335
13.218
13.3903
13.5504
13.6986
13.835
13.9598
14.0731
14.1751
14.2657
14.3452
14.4136
14.4709
14.5175
14.5534
14.5787
14.5938
14.5987
14.5938
14.5791
14.555
14.5216
14.4792
14.4281
14.3685
14.3005
14.2243
14.1401
14.0479
13.9478
13.8398
13.7241
13.6005
13.4694
13.3309
13.1852
13.0327
12.8736
12.7083
12.537
12.36
12.1773
11.989
11.7952
11.5957
11.3904
11.1793
10.9623
10.7395
10.5109
10.277
10.0378
9.79396
9.54567
9.29331
9.03714
8.77734
8.51398
8.24704
7.97647
7.70218
7.42415
7.14247
6.8574
6.56938
6.27904
5.98723
5.69492
5.40323
5.1133
4.82631
4.54338
4.2656
3.99399
3.72952
3.47313
3.22577
2.98834
2.76174
2.54673
2.34385
2.15334
11.135
11.4066
11.6806
11.9505
12.2113
12.4599
12.6944
12.9141
13.119
13.3095
13.486
13.6493
13.7997
13.9377
14.0637
14.1777
14.2801
14.3708
14.45
14.5178
14.5745
14.62
14.6547
14.6787
14.6923
14.6956
14.6889
14.6724
14.6464
14.6112
14.567
14.5141
14.4527
14.3832
14.3056
14.2201
14.1267
14.0254
13.9162
13.7991
13.674
13.5412
13.4008
13.2531
13.0985
12.9374
12.7702
12.5972
12.4189
12.2351
12.0461
11.8517
11.6517
11.4459
11.234
11.0159
10.7915
10.5611
10.3249
10.0834
9.83702
9.58628
9.33163
9.07341
8.81178
8.54675
8.27815
8.00572
7.72915
7.44817
7.16268
6.87282
6.57899
6.28189
5.98248
5.68196
5.38165
5.08294
4.7872
4.49573
4.20971
3.93025
3.65835
3.39503
3.14132
2.89835
2.66729
2.44923
2.24503
2.05507
11.0477
11.3604
11.6727
11.9755
12.2631
12.5324
12.7822
13.0128
13.2253
13.4209
13.6009
13.7665
13.9185
14.0578
14.1845
14.2991
14.4017
14.4923
14.5711
14.6382
14.6938
14.738
14.7712
14.7936
14.8054
14.8067
14.798
14.7793
14.7511
14.7135
14.667
14.612
14.5486
14.4773
14.3981
14.3113
14.2167
14.1143
14.0039
13.8853
13.7586
13.6238
13.4811
13.3308
13.1735
13.0098
12.8402
12.6652
12.4853
12.3005
12.1109
11.9162
11.7161
11.51
11.2975
11.0783
10.8522
10.6195
10.3805
10.1359
9.88624
9.6324
9.375
9.11448
8.85103
8.58455
8.31469
8.04086
7.76237
7.47859
7.18911
6.89388
6.59325
6.28799
5.97929
5.66862
5.3577
5.04823
4.74189
4.44016
4.14434
3.85556
3.5748
3.30303
3.04136
2.79117
2.55407
2.33175
2.12567
1.93652
10.9446
11.3149
11.6782
12.0225
12.3413
12.6328
12.8975
13.1375
13.3557
13.5545
13.7363
13.903
14.0558
14.1956
14.3228
14.4377
14.5403
14.6306
14.7088
14.7749
14.8292
14.8719
14.9032
14.9236
14.9332
14.9323
14.9211
14.8999
14.8689
14.8286
14.7793
14.7216
14.6559
14.5825
14.5016
14.4134
14.3178
14.2145
14.1031
13.9832
13.8547
13.7176
13.572
13.4185
13.2577
13.0904
12.9177
12.7402
12.5584
12.3727
12.1828
11.9884
11.7888
11.5832
11.3705
11.1504
10.9224
10.6868
10.4442
10.1953
9.94141
9.68356
9.42276
9.15968
8.89454
8.62714
8.35685
8.08261
7.80313
7.51712
7.22374
6.92263
6.61409
6.29899
5.97884
5.6556
5.33157
5.00898
4.68989
4.37603
4.0688
3.76927
3.47826
3.19645
2.92484
2.66511
2.41952
2.19088
1.98191
1.79397
10.8258
11.2793
11.7111
12.1058
12.4588
12.7715
13.0481
13.2938
13.5137
13.7125
13.8935
14.0594
14.2117
14.3513
14.4786
14.5937
14.6964
14.7864
14.8637
14.9285
14.9811
15.0218
15.051
15.069
15.0761
15.0725
15.0585
15.0343
15
14.9563
14.9036
14.8426
14.774
14.6982
14.6155
14.5261
14.4298
14.3261
14.2143
14.0934
13.9632
13.8234
13.6742
13.5164
13.3509
13.1789
13.002
12.8212
12.6373
12.4506
12.261
12.068
11.8702
11.6662
11.4543
11.2335
11.0034
10.7642
10.5166
10.262
10.0021
9.73883
9.4737
9.20773
8.94117
8.6738
8.40457
8.13184
7.85317
7.56619
7.2694
6.96201
6.64429
6.31719
5.98276
5.64366
5.3033
4.96462
4.63032
4.30228
3.98212
3.67068
3.36843
3.07514
2.7912
2.51864
2.26054
2.02164
1.80784
1.62188
10.6954
11.2748
11.7975
12.2491
12.6342
12.962
13.2432
13.4869
13.702
13.8958
14.0725
14.2353
14.3856
14.5245
14.6519
14.7676
14.8705
14.9602
15.0365
15.0996
15.15
15.1881
15.2145
15.2298
15.2341
15.2277
15.2105
15.1828
15.1447
15.0967
15.0396
14.9745
14.9023
14.8236
14.739
14.6486
14.5522
14.4493
14.3382
14.217
14.0852
13.9423
13.7888
13.6252
13.4532
13.2744
13.0916
12.9063
12.72
12.5325
12.3442
12.154
11.9605
11.7605
11.5508
11.33
11.0973
10.8535
10.599
10.3362
10.0674
9.79667
9.5257
9.25649
8.98886
8.72302
8.45721
8.18948
7.91509
7.6293
7.33021
7.01616
6.68791
6.34585
5.99334
5.63345
5.27252
4.9139
4.56165
4.21712
3.88281
3.5588
3.24563
2.94035
2.6411
2.35132
2.07387
1.81625
1.59364
1.41152
10.5762
11.3519
11.9859
12.4881
12.8921
13.2196
13.4922
13.7211
13.921
14.1035
14.2713
14.429
14.5757
14.7141
14.8419
14.9598
15.0634
15.1533
15.228
15.289
15.3363
15.3711
15.3942
15.4061
15.4074
15.3981
15.3776
15.3462
15.3033
15.2503
15.1869
15.1167
15.0395
14.9577
14.8704
14.7796
14.6839
14.5843
14.4764
14.3558
14.2232
14.0763
13.9179
13.7459
13.5652
13.3753
13.1849
12.993
12.8041
12.6155
12.4301
12.2446
12.0601
11.8688
11.6629
11.4436
11.2073
10.9581
10.693
10.4191
10.1355
9.85468
9.5751
9.30289
9.03389
8.77209
8.51254
8.25664
7.99335
7.71147
7.41249
7.09068
6.75134
6.38951
6.01446
5.62468
5.23837
4.85395
4.48182
4.11721
3.76865
3.43127
3.11144
2.79683
2.47734
2.16624
1.85863
1.56043
1.3211
1.14828
10.5723
11.6327
12.3642
12.8683
13.2602
13.556
13.8039
13.9969
14.1647
14.3324
14.4845
14.6383
14.7776
14.9191
15.0458
15.1725
15.2759
15.3682
15.4392
15.498
15.5402
15.5711
15.5895
15.5976
15.596
15.5843
15.5601
15.5259
15.4765
15.4183
15.3439
15.2687
15.1831
15.0994
15.0067
14.9175
14.8211
14.7309
14.6328
14.5115
14.3816
14.2268
14.0663
13.8791
13.6904
13.4769
13.28
13.0751
12.8877
12.6936
12.516
12.3335
12.1692
11.998
11.7939
11.5817
11.3354
11.0854
10.7995
10.5158
10.1996
9.91074
9.61373
9.34453
9.06844
8.81781
8.5625
8.33434
8.09826
7.81814
7.52757
7.19037
6.84704
6.45213
6.05673
5.61082
5.20144
4.77624
4.39112
3.9941
3.63834
3.27843
2.9697
2.6603
2.30146
1.97609
1.62979
1.21984
0.952764
0.806566
11.1883
12.3872
13.0698
13.41
13.7664
13.9612
14.1946
14.3089
14.4084
14.5837
14.695
14.8686
14.9761
15.1451
15.2495
15.4185
15.5043
15.6135
15.6677
15.7306
15.7602
15.7888
15.7997
15.8028
15.7989
15.7883
15.757
15.7275
15.662
15.6097
15.5019
15.4354
15.324
15.254
15.1377
15.0655
14.949
14.8889
14.8224
14.6793
14.5756
14.3854
14.253
14.0141
13.8509
13.5546
13.3863
13.1319
12.9807
12.748
12.6087
12.3961
12.2882
12.1745
11.9366
11.7688
11.4689
11.2643
10.9027
10.6593
10.2239
9.97849
9.61223
9.39599
9.06623
8.87015
8.57328
8.42336
8.26648
7.93977
7.70971
7.29879
7.01694
6.51538
6.17167
5.54431
5.18721
4.64074
4.31751
3.81154
3.51395
3.05186
2.82889
2.59492
2.07737
1.81607
1.49259
0.673484
0.410355
0.340487
2.22109
2.01318
1.81669
1.63104
1.45551
1.28928
1.13147
0.981154
0.837393
0.699254
0.565819
0.436189
0.30949
0.184868
0.0614855
2.20923
2.00174
1.80583
1.62089
1.44619
1.28085
1.12396
0.974587
0.831761
0.694542
0.562006
0.433252
0.307409
0.183627
0.0610729
2.18533
1.97868
1.78396
1.60051
1.42748
1.26394
1.10894
0.961456
0.820512
0.68514
0.554403
0.427401
0.303265
0.181155
0.0602513
2.14897
1.94365
1.75083
1.56968
1.39925
1.2385
1.08637
0.941775
0.803682
0.671093
0.543058
0.418677
0.29709
0.177474
0.0590283
2.0995
1.89612
1.70599
1.5281
1.36132
1.20444
1.05625
0.915583
0.781339
0.652483
0.528054
0.407154
0.288942
0.172619
0.0574158
2.03601
1.83533
1.64888
1.4754
1.31347
1.16166
1.01859
0.882958
0.753597
0.629438
0.509513
0.392939
0.278902
0.166641
0.0554311
1.95727
1.76027
1.57879
1.41113
1.25549
1.11014
0.973468
0.844053
0.720645
0.602152
0.487615
0.376182
0.267083
0.159611
0.0530978
1.8616
1.66966
1.49485
1.33482
1.18722
1.04992
0.921081
0.799131
0.682769
0.570903
0.462607
0.357085
0.253634
0.151618
0.0504466
1.74677
1.56192
1.39612
1.24605
1.10862
0.981238
0.86179
0.748612
0.640389
0.536076
0.43482
0.335914
0.238747
0.14278
0.0475161
1.60979
1.43509
1.28165
1.14462
1.01997
0.904606
0.796218
0.693127
0.594093
0.498184
0.404679
0.312998
0.222658
0.133237
0.0443533
1.44655
1.28699
1.15075
1.0308
0.922036
0.820983
0.725338
0.633576
0.544664
0.457883
0.372708
0.288738
0.205646
0.123155
0.0410131
1.25157
1.11554
1.00354
0.905785
0.816375
0.73194
0.650567
0.571166
0.493097
0.41597
0.339529
0.263596
0.188032
0.11272
0.0375572
1.01813
0.920062
0.842087
0.772407
0.705731
0.639825
0.573817
0.507417
0.440583
0.373364
0.305838
0.238081
0.170162
0.102137
0.034052
0.740738
0.70448
0.672325
0.636015
0.594307
0.547807
0.49745
0.444096
0.388448
0.331062
0.272374
0.212726
0.152397
0.0916115
0.0305655
0.427785
0.484788
0.50671
0.505012
0.487667
0.459638
0.424075
0.383064
0.338047
0.290058
0.239864
0.188051
0.135085
0.0813459
0.0271635
9.83447
9.50309
9.17076
8.83675
8.50018
8.15991
7.81443
7.46157
7.09805
6.7186
6.31379
5.8642
5.32086
4.52608
2.83904
9.81889
9.45603
9.09121
8.72297
8.3495
7.9685
7.57684
7.17003
6.74126
6.27952
5.76562
5.16309
4.3961
3.29592
1.49682
9.80374
9.41031
9.01405
8.61281
8.20404
7.78448
7.34976
6.89373
6.40736
5.87665
5.27898
4.57616
3.7027
2.5511
0.984149
9.78924
9.36656
8.94033
8.50788
8.06608
7.61098
7.13746
6.6385
6.10424
5.52028
4.86533
4.10773
3.20245
2.0947
0.75019
9.77554
9.32527
8.87092
8.40945
7.93733
7.45027
6.94281
6.40779
5.8356
5.21321
4.52296
3.74184
2.8428
1.80271
0.624474
9.76276
9.28682
8.80645
8.3184
7.81896
7.30372
6.76729
6.20287
5.60183
4.95324
4.24369
3.45783
2.58111
1.60664
0.547862
9.75099
9.25145
8.74732
8.23525
7.71154
7.17189
6.61121
6.02338
5.40106
4.73561
4.01741
3.23691
2.38728
1.46912
0.496907
9.74027
9.21928
8.69368
8.16018
7.61519
7.05466
6.47398
5.86784
5.23023
4.55461
3.83438
3.064
2.24105
1.36913
0.460952
9.7306
9.19031
8.64553
8.0931
7.52963
6.95143
6.35442
5.73413
5.0858
4.40459
3.68616
2.9276
2.12881
1.29432
0.434528
9.72196
9.16446
8.60269
8.03367
7.4543
6.86125
6.25102
5.6199
4.96419
4.28042
3.56582
2.81911
2.04138
1.23707
0.414537
9.7143
9.14159
8.56488
7.98144
7.38846
6.78301
6.16211
5.52275
4.86208
4.17764
3.46778
2.73217
1.97239
1.19249
0.399086
9.70757
9.12149
8.53173
7.93583
7.33127
6.7155
6.08602
5.44039
4.77646
4.09251
3.38762
2.662
1.91738
1.15727
0.386948
9.70168
9.10393
8.50286
7.89624
7.28185
6.65752
6.02113
5.37075
4.70473
4.02192
3.32186
2.60503
1.87313
1.12914
0.377292
9.69656
9.08869
8.47783
7.86203
7.23934
6.6079
5.96596
5.31196
4.64467
3.96331
3.26772
2.55853
1.83727
1.10648
0.369533
9.69213
9.07551
8.45625
7.83261
7.20292
6.56558
5.91915
5.26239
4.59438
3.91459
3.22304
2.5204
1.80804
1.08808
0.36325
9.68832
9.06417
8.4377
7.80739
7.17179
6.52957
5.87952
5.22065
4.55226
3.87403
3.18606
2.48901
1.78409
1.07305
0.358128
9.68504
9.05444
8.42181
7.78583
7.14528
6.499
5.846
5.18551
4.51698
3.84022
3.15539
2.4631
1.76438
1.06072
0.353931
9.68224
9.04612
8.40824
7.76747
7.12273
6.47308
5.8177
5.15595
4.48743
3.81201
3.1299
2.44164
1.74812
1.05057
0.350478
9.67985
9.03903
8.39668
7.75184
7.1036
6.45115
5.79382
5.13109
4.46265
3.78845
3.10868
2.42383
1.73465
1.04217
0.347626
9.67781
9.03299
8.38686
7.73858
7.0874
6.43262
5.77368
5.11018
4.44189
3.76876
3.09099
2.40902
1.72347
1.03522
0.345265
9.67608
9.02786
8.37852
7.72735
7.07368
6.41696
5.75671
5.09261
4.42447
3.75228
3.07623
2.39668
1.71418
1.02944
0.343305
9.67461
9.02352
8.37146
7.71784
7.06209
6.40375
5.74243
5.07784
4.40986
3.7385
3.0639
2.38639
1.70644
1.02463
0.341675
9.67337
9.01984
8.36548
7.7098
7.05231
6.39262
5.7304
5.06543
4.39761
3.72695
3.05359
2.3778
1.69998
1.02063
0.340317
9.67232
9.01673
8.36043
7.70301
7.04406
6.38323
5.72028
5.05501
4.38733
3.71728
3.04496
2.37062
1.69459
1.01729
0.339185
9.67143
9.0141
8.35617
7.69728
7.0371
6.37533
5.71177
5.04625
4.37871
3.70917
3.03774
2.36462
1.69009
1.01449
0.338239
9.67068
9.01188
8.35258
7.69246
7.03124
6.36869
5.70461
5.03889
4.37147
3.70237
3.03169
2.3596
1.68632
1.01216
0.337449
9.67005
9.01001
8.34955
7.68839
7.02631
6.36309
5.6986
5.03271
4.3654
3.69668
3.02663
2.35539
1.68317
1.01021
0.336789
9.66952
9.00844
8.34699
7.68497
7.02216
6.35839
5.69354
5.02753
4.36031
3.6919
3.02239
2.35187
1.68054
1.00858
0.336236
9.66907
9.00711
8.34485
7.68209
7.01867
6.35445
5.6893
5.02318
4.35604
3.68791
3.01883
2.34893
1.67833
1.00721
0.335774
9.6687
9.006
8.34305
7.67968
7.01575
6.35113
5.68575
5.01953
4.35246
3.68456
3.01586
2.34646
1.67649
1.00607
0.335388
9.66838
9.00507
8.34154
7.67765
7.01329
6.34836
5.68277
5.01648
4.34947
3.68175
3.01337
2.3444
1.67494
1.00512
0.335065
9.66812
9.00429
8.34027
7.67595
7.01124
6.34603
5.68027
5.01392
4.34697
3.67941
3.01129
2.34268
1.67366
1.00432
0.334795
9.66789
9.00363
8.33921
7.67454
7.00952
6.34409
5.67819
5.01179
4.34488
3.67746
3.00956
2.34125
1.67258
1.00366
0.334571
9.66771
9.00309
8.33833
7.67336
7.00809
6.34248
5.67646
5.01002
4.34314
3.67583
3.00812
2.34005
1.67169
1.00311
0.334384
9.66756
9.00264
8.3376
7.67238
7.00691
6.34114
5.67503
5.00855
4.3417
3.67449
3.00693
2.33907
1.67095
1.00265
0.334229
9.66743
9.00226
8.337
7.67157
7.00593
6.34003
5.67384
5.00734
4.34052
3.67338
3.00595
2.33825
1.67034
1.00227
0.334102
9.66733
9.00196
8.33651
7.67091
7.00513
6.33913
5.67288
5.00635
4.33955
3.67247
3.00514
2.33759
1.66985
1.00197
0.333999
9.66725
9.00172
8.33611
7.67038
7.00449
6.33841
5.6721
5.00556
4.33877
3.67175
3.0045
2.33706
1.66945
1.00172
0.333915
9.66718
9.00152
8.3358
7.66996
7.00399
6.33784
5.67149
5.00493
4.33816
3.67118
3.00399
2.33664
1.66914
1.00153
0.33385
9.66713
9.00138
8.33556
7.66965
7.0036
6.3374
5.67103
5.00446
4.33769
3.67074
3.00361
2.33632
1.6689
1.00138
0.3338
9.6671
9.00127
8.33539
7.66942
7.00333
6.33709
5.67069
5.00412
4.33736
3.67043
3.00333
2.33609
1.66873
1.00127
0.333764
9.66707
9.0012
8.33528
7.66927
7.00315
6.3369
5.67048
5.0039
4.33715
3.67023
3.00316
2.33594
1.66862
1.00121
0.333741
9.66706
9.00117
8.33523
7.66921
7.00308
6.33681
5.67039
5.0038
4.33705
3.67014
3.00308
2.33588
1.66857
1.00118
0.333731
9.66707
9.00118
8.33524
7.66922
7.00309
6.33682
5.6704
5.00382
4.33707
3.67016
3.00309
2.33589
1.66858
1.00118
0.333733
9.66708
9.00122
8.33531
7.66931
7.0032
6.33694
5.67053
5.00395
4.3372
3.67028
3.0032
2.33598
1.66864
1.00122
0.333747
9.66711
9.0013
8.33544
7.66948
7.0034
6.33718
5.67078
5.00421
4.33745
3.67051
3.00341
2.33615
1.66877
1.0013
0.333773
9.66715
9.00142
8.33563
7.66974
7.00371
6.33752
5.67115
5.00459
4.33782
3.67086
3.00371
2.33641
1.66896
1.00142
0.333813
9.6672
9.00158
8.33589
7.67008
7.00413
6.338
5.67166
5.00511
4.33833
3.67134
3.00414
2.33675
1.66922
1.00158
0.333868
9.66727
9.00179
8.33622
7.67053
7.00468
6.33862
5.67232
5.00578
4.33899
3.67195
3.00468
2.33721
1.66956
1.00179
0.333939
9.66736
9.00205
8.33665
7.6711
7.00536
6.33939
5.67316
5.00664
4.33983
3.67273
3.00537
2.33778
1.66999
1.00205
0.334028
9.66747
9.00237
8.33717
7.6718
7.00621
6.34035
5.67418
5.00769
4.34086
3.6737
3.00623
2.33848
1.67052
1.00238
0.334138
9.6676
9.00277
8.33781
7.67266
7.00725
6.34152
5.67544
5.00897
4.34212
3.67487
3.00727
2.33935
1.67116
1.00278
0.334273
9.66776
9.00325
8.33859
7.6737
7.00851
6.34294
5.67696
5.01053
4.34364
3.6763
3.00853
2.34039
1.67194
1.00326
0.334437
9.66796
9.00382
8.33952
7.67495
7.01002
6.34466
5.6788
5.01241
4.34548
3.67802
3.01006
2.34166
1.67289
1.00385
0.334635
9.66819
9.00452
8.34064
7.67645
7.01184
6.34671
5.681
5.01466
4.34769
3.68008
3.01189
2.34317
1.67402
1.00455
0.334872
9.66847
9.00534
8.34198
7.67825
7.01401
6.34917
5.68363
5.01736
4.35033
3.68256
3.01408
2.34499
1.67538
1.00539
0.335156
9.66881
9.00633
8.34358
7.68039
7.0166
6.3521
5.68678
5.02059
4.35349
3.68552
3.01671
2.34717
1.67701
1.0064
0.335497
9.66921
9.00751
8.34549
7.68294
7.0197
6.3556
5.69054
5.02444
4.35727
3.68905
3.01985
2.34977
1.67895
1.0076
0.335904
9.66968
9.00891
8.34775
7.68598
7.02338
6.35977
5.69502
5.02903
4.36178
3.69327
3.02359
2.35287
1.68128
1.00904
0.336391
9.67024
9.01057
8.35045
7.6896
7.02777
6.36474
5.70035
5.0345
4.36715
3.6983
3.02806
2.35658
1.68406
1.01076
0.336973
9.67091
9.01255
8.35366
7.6939
7.03298
6.37065
5.70671
5.04102
4.37355
3.70431
3.0334
2.36101
1.68737
1.01281
0.337668
9.6717
9.0149
8.35746
7.69901
7.03918
6.37767
5.71426
5.04879
4.38118
3.71147
3.03977
2.36629
1.69134
1.01526
0.338499
9.67264
9.01768
8.36198
7.70507
7.04654
6.38602
5.72325
5.05803
4.39028
3.72001
3.04737
2.37261
1.69607
1.0182
0.339493
9.67376
9.02098
8.36733
7.71226
7.05527
6.39594
5.73394
5.06904
4.40111
3.7302
3.05645
2.38016
1.70173
1.02171
0.340682
9.67508
9.02488
8.37366
7.72077
7.06563
6.40772
5.74665
5.08213
4.41403
3.74236
3.0673
2.38918
1.70851
1.02591
0.342107
9.67663
9.0295
8.38116
7.73086
7.07791
6.4217
5.76175
5.09772
4.42942
3.75687
3.08026
2.39998
1.71663
1.03095
0.343815
9.67847
9.03494
8.39001
7.74278
7.09244
6.43827
5.77969
5.11626
4.44777
3.7742
3.09576
2.41292
1.72637
1.037
0.345866
9.68064
9.04137
8.40046
7.75687
7.10964
6.45791
5.80098
5.13833
4.46965
3.7949
3.11432
2.42844
1.73806
1.04427
0.348333
9.68319
9.04893
8.41277
7.77349
7.12996
6.48116
5.82625
5.16457
4.49574
3.81966
3.13657
2.44708
1.75213
1.05303
0.351306
9.68618
9.05781
8.42724
7.79306
7.15393
6.50866
5.85621
5.19578
4.52686
3.84928
3.16326
2.46949
1.76909
1.0636
0.354899
9.68969
9.06822
8.44422
7.81605
7.18217
6.54114
5.89172
5.2329
4.564
3.88475
3.19534
2.49652
1.78959
1.0764
0.359252
9.69378
9.08038
8.46409
7.84302
7.21537
6.57945
5.93375
5.277
4.60833
3.92727
3.23395
2.52917
1.81443
1.09195
0.364547
9.69855
9.09455
8.48727
7.87456
7.25432
6.62455
5.98344
5.3294
4.66125
3.97829
3.28052
2.56874
1.84465
1.11092
0.371016
9.70408
9.111
8.51423
7.91133
7.29988
6.67753
6.0421
5.3916
4.72445
4.03961
3.33683
2.61684
1.88157
1.13418
0.378961
9.71046
9.13001
8.54545
7.95403
7.353
6.73961
6.11122
5.46536
4.79993
4.11338
3.40508
2.67556
1.92691
1.16286
0.388784
9.71779
9.15187
8.58143
8.00341
7.41469
6.8121
6.19246
5.55272
4.89006
4.20227
3.48805
2.74757
1.98293
1.19851
0.40103
9.72617
9.17687
8.62268
8.06022
7.48601
6.89642
6.28767
5.65597
4.99765
4.30949
3.58926
2.83637
2.05268
1.24323
0.416456
9.73567
9.20528
8.66966
8.12519
7.56801
6.99403
6.39882
5.77772
5.12595
4.43899
3.71315
2.94654
2.14032
1.29998
0.436144
9.74637
9.23731
8.72279
8.19897
7.66169
7.10638
6.52794
5.92075
5.27869
4.59548
3.86534
3.08422
2.25164
1.37306
0.461699
9.75832
9.27313
8.78238
8.28209
7.76788
7.23478
6.67704
6.08799
5.46
4.78455
4.05294
3.25763
2.39491
1.46888
0.495618
9.77154
9.31281
8.84859
8.37488
7.88719
7.38028
6.84786
6.28228
5.67425
5.01263
4.28477
3.47783
2.58215
1.59751
0.542015
9.78601
9.35631
8.92138
8.47737
8.01984
7.54349
7.04169
6.50605
5.9257
5.28669
4.5715
3.75967
2.83115
1.77533
0.608228
9.80167
9.40345
9.00048
8.58924
8.16556
7.72435
7.25903
6.76085
6.21789
5.61365
4.92533
4.12253
3.16856
2.03043
0.708713
9.8184
9.45388
9.08533
8.70973
8.32346
7.92195
7.49917
7.04674
6.55263
5.99897
5.35864
4.59037
3.63383
2.41301
0.875663
9.83603
9.5071
9.17508
8.83763
8.49192
8.13431
7.75989
7.36157
6.92872
6.44448
5.88079
5.18894
4.28263
3.01539
1.1912
9.85437
9.56246
9.26859
8.97125
8.66863
8.35835
8.03718
7.70036
7.34047
6.94514
6.49193
5.93641
5.18205
4.00453
1.8944
9.87314
9.61919
9.3645
9.10854
8.85063
8.58995
8.32534
8.05516
7.77683
7.48597
7.1741
6.82194
6.37531
5.64131
3.76331
9.89208
9.67642
9.4613
9.24717
9.03456
8.82425
8.61735
8.41559
8.22187
8.04137
7.88423
7.77304
7.76812
8.07249
9.55486
9.91089
9.73326
9.55741
9.38472
9.21689
9.05618
8.90577
8.77042
8.65771
8.58051
8.56241
8.65032
8.9461
9.68556
11.4017
9.92931
9.78886
9.65131
9.51888
9.39426
9.28094
9.18371
9.10951
9.06886
9.0786
9.16693
9.38319
9.81592
10.6204
12.0311
0.175952
0.315554
0.376541
0.399266
0.399702
0.385717
0.361803
0.330786
0.294567
0.25449
0.211545
0.166488
0.119922
0.0723414
0.0241773
0.0944437
0.216297
0.284774
0.318607
0.329745
0.325407
0.310121
0.28687
0.257716
0.224144
0.187264
0.147933
0.10684
0.0645601
0.0215947
0.0594864
0.154103
0.217063
0.253707
0.270532
0.272699
0.263968
0.24705
0.223931
0.196095
0.164683
0.1306
0.0945821
0.0572542
0.0191675
0.0414424
0.113894
0.167624
0.202568
0.221496
0.227556
0.223497
0.211535
0.193419
0.170526
0.143957
0.114609
0.083233
0.0504746
0.0169127
0.0306437
0.0866836
0.131229
0.16255
0.181394
0.189438
0.188512
0.180293
0.166223
0.147508
0.125159
0.100027
0.0728429
0.0442525
0.0148409
0.0234886
0.0674553
0.104016
0.131196
0.148791
0.157547
0.158589
0.153113
0.142251
0.127014
0.108292
0.0868672
0.063429
0.0386005
0.0129564
0.0184239
0.0533694
0.0833168
0.106497
0.122326
0.131012
0.13319
0.129673
0.121315
0.108938
0.0933027
0.075105
0.0549801
0.0335144
0.0112585
0.0146802
0.0427539
0.0673167
0.0869003
0.10082
0.108997
0.111744
0.109593
0.10317
0.0931234
0.0800915
0.0646804
0.0474619
0.0289768
0.00974168
0.0118297
0.0345763
0.0547737
0.071237
0.0833005
0.0907497
0.0937001
0.0924801
0.0875387
0.0793814
0.068532
0.0555104
0.0408228
0.0249596
0.00839722
0.00961315
0.0281687
0.0448232
0.0586283
0.0689851
0.0756261
0.0785509
0.0779504
0.0741401
0.0675082
0.0584803
0.0474968
0.0349998
0.0214279
0.00721381
0.0078623
0.0230809
0.0368512
0.0484137
0.0572494
0.0630826
0.0658491
0.0656491
0.0627003
0.0572984
0.0497863
0.0405337
0.0299231
0.0183419
0.00617861
0.00646273
0.0189988
0.030412
0.0400923
0.0475982
0.0526683
0.0552069
0.0552561
0.0529636
0.0485533
0.0423004
0.0345133
0.0255201
0.01566
0.00527805
0.00533356
0.0156961
0.025176
0.0332806
0.0396381
0.0440114
0.0462928
0.0464886
0.0446971
0.0410874
0.0358797
0.0293302
0.0217188
0.0133402
0.00449839
0.00441584
0.0130063
0.0208949
0.0276818
0.0330557
0.0368067
0.0388268
0.0391009
0.037693
0.0347307
0.0303904
0.0248844
0.01845
0.0113422
0.00382627
0.0036656
0.0108038
0.0173785
0.023064
0.0275999
0.0308037
0.0325728
0.0328808
0.0317679
0.0293307
0.0257105
0.0210829
0.0156488
0.00962735
0.003249
0.00304938
0.00899237
0.0144796
0.0192443
0.0230691
0.0257967
0.0273333
0.027647
0.0267622
0.0247521
0.0217299
0.0178412
0.0132555
0.00816027
0.00275481
0.00254131
0.00749736
0.0120824
0.0160771
0.0193
0.0216166
0.0229428
0.0232453
0.0225378
0.0208759
0.018351
0.0150833
0.0112158
0.00690856
0.00233292
0.00212112
0.00625993
0.0100951
0.0134456
0.0161601
0.0181239
0.0192631
0.0195448
0.0189759
0.017599
0.0154877
0.0127417
0.00948152
0.00584316
0.00197364
0.00177275
0.00523331
0.00844422
0.0112558
0.0135414
0.0152038
0.0161786
0.0164349
0.015975
0.0148318
0.013065
0.0107572
0.00800974
0.00493825
0.00166835
0.00148334
0.00438
0.00707062
0.009431
0.0113553
0.0127612
0.0135928
0.0138221
0.0134485
0.0124976
0.0110178
0.00907783
0.00676292
0.00417107
0.00140942
0.00124256
0.00366973
0.00592629
0.00790897
0.0095292
0.0107173
0.0114252
0.0116278
0.011323
0.0105305
0.00929006
0.00765881
0.00570837
0.00352177
0.00119021
0.00104199
0.00307789
0.00497212
0.00663858
0.00800307
0.00900672
0.00960834
0.00978574
0.00953592
0.00887438
0.00783366
0.00646137
0.00481776
0.00297311
0.00100493
0.000874815
0.00258443
0.00417606
0.00557782
0.00672747
0.00757526
0.00808602
0.00824029
0.00803471
0.0074815
0.00660746
0.0054523
0.00406673
0.00251021
0.000848562
0.00073542
0.00217286
0.00351181
0.00469209
0.00566143
0.00637779
0.00681118
0.00694468
0.00677483
0.00631137
0.00557641
0.00460318
0.00343437
0.0021203
0.000716826
0.000619211
0.00182969
0.00295771
0.00395282
0.00477102
0.00537678
0.00574454
0.00585966
0.00571879
0.00532972
0.00471079
0.00388983
0.00290285
0.00179245
0.00060604
0.000522403
0.00154375
0.00249588
0.00333636
0.00402808
0.00454099
0.0048533
0.00495237
0.00483506
0.00450766
0.00398542
0.00329174
0.00245703
0.00151738
0.000513073
0.000441877
0.00130588
0.00211157
0.00282316
0.0034093
0.00384446
0.0041101
0.00419529
0.00409717
0.00382085