/*--------------------------------*- C++ -*----------------------------------*\
| =========                 |                                                 |
| \\      /  F ield         | OpenFOAM: The Open Source CFD Toolbox           |
|  \\    /   O peration     | Version:  5.x                                   |
|   \\  /    A nd           | Web:      www.OpenFOAM.org                      |
|    \\/     M anipulation  |                                                 |
\*---------------------------------------------------------------------------*/
FoamFile
{
    version     2.0;
    format      ascii;
    class       volScalarField;
    location    "20";
    object      gradTx;
}
// * * * * * * * * * * * * * * * * * * * * * * * * * * * * * * * * * * * * * //

dimensions      [0 -1 0 1 0 0 0];

internalField   nonuniform List<scalar> 
6300
(
-15.9862
-15.771
-15.343
-14.7072
-13.8716
-12.8482
-11.6534
-10.3094
-8.84435
-7.29285
-5.69549
-4.09756
-2.54678
-1.09016
0.229725
-16.2016
-15.9841
-15.5511
-14.9072
-14.0597
-13.0197
-11.8029
-10.4307
-8.93106
-7.33898
-5.69633
-4.05068
-2.45291
-0.953689
0.400833
-16.6347
-16.4127
-15.9704
-15.3111
-14.4406
-13.3683
-12.108
-10.6797
-9.11046
-7.43593
-5.70044
-3.95619
-2.26076
-0.672774
0.75377
-17.29
-17.0621
-16.6069
-15.9263
-15.0236
-13.9051
-12.5815
-11.0698
-9.39541
-7.59413
-5.71359
-3.81317
-1.96145
-0.230745
1.31116
-18.1734
-17.9388
-17.4692
-16.7638
-15.8225
-14.6471
-13.2433
-11.6229
-9.80752
-7.83184
-5.7469
-3.62172
-1.5414
0.399811
2.11104
-19.2915
-19.0509
-18.5675
-17.8374
-16.8558
-15.6179
-14.1219
-12.3712
-10.3802
-8.17907
-5.82073
-3.38567
-0.982522
1.26006
3.2126
-20.6505
-20.4059
-19.9127
-19.1629
-18.1455
-16.8472
-15.2552
-13.3602
-11.1632
-8.68378
-5.97155
-3.11801
-0.263359
2.41006
4.70681
-22.2543
-22.0098
-21.5146
-20.7562
-19.7162
-18.3706
-16.6917
-14.6515
-12.2289
-9.42152
-6.26395
-2.85173
0.636751
3.93646
6.73543
-24.1029
-23.8647
-23.3799
-22.6313
-21.5927
-20.2275
-18.4897
-16.3255
-13.6798
-10.5097
-6.81127
-2.662
1.72535
5.96331
9.52712
-26.1898
-25.9663
-25.5091
-24.7969
-23.7959
-22.4571
-20.7142
-18.4813
-15.6552
-12.1263
-7.80975
-2.71062
2.96306
8.66402
13.4704
-28.5005
-28.3018
-27.8934
-27.2515
-26.337
-25.0912
-23.429
-21.2305
-18.3335
-14.531
-9.59102
-3.33409
4.17319
12.259
19.2742
-31.0099
-30.8474
-30.5114
-29.9787
-29.2097
-28.142
-26.6801
-24.6785
-21.9177
-18.0733
-12.6895
-5.20823
4.80448
16.924
28.3604
-33.6821
-33.5665
-33.3263
-32.9425
-32.3812
-31.5873
-30.4711
-28.8857
-26.5858
-23.1552
-17.8858
-9.6141
3.32851
22.2718
43.9591
-36.4701
-36.4102
-36.2852
-36.0838
-35.7855
-35.3549
-34.7315
-33.8077
-32.3848
-30.076
-26.0846
-18.6913
-4.14862
24.8752
74.6738
-39.3182
-39.3191
-39.3206
-39.3223
-39.3221
-39.3156
-39.2924
-39.2288
-39.0699
-38.6796
-37.6855
-34.918
-26.1074
6.70318
148.211
1.29671
2.11879
2.7978
3.33132
3.72214
3.97735
4.10719
4.12396
4.04093
3.87153
3.62865
3.32424
2.96903
2.57248
2.14274
1.68677
1.21045
0.718703
0.215636
-0.29531
-0.811255
-1.32978
-1.84883
-2.36667
-2.88182
-3.39303
-3.89925
-4.39966
-4.89364
-5.38078
-5.86088
-6.3339
-6.8
-7.25941
-7.71244
-8.15941
-8.60056
-9.03604
-9.46589
-9.89
-10.3082
-10.7201
-11.1257
-11.5245
-11.9166
-12.3019
-12.6808
-13.0535
-13.4205
-13.7822
-14.1389
-14.491
-14.8382
-15.1804
-15.5168
-15.8468
-16.1691
-16.4827
-16.7865
-17.0793
-17.3601
-17.6281
-17.8824
-18.1224
-18.3471
-18.5553
-18.7456
-18.916
-19.0642
-19.1871
-19.2814
-19.3435
-19.3695
-19.3558
-19.299
-19.1961
-19.045
-18.8443
-18.5932
-18.2923
-17.9426
-17.5463
-17.1063
-16.6266
-16.1118
-15.5673
-14.9995
-14.4151
-13.8215
-13.2261
1.49072
2.32453
3.00701
3.53652
3.91717
4.15762
4.26977
4.26741
4.16508
3.97712
3.71706
3.39718
3.02838
2.62008
2.18034
1.71593
1.23253
0.734864
0.226857
-0.288224
-0.807646
-1.32911
-1.85066
-2.37062
-2.88757
-3.40026
-3.90766
-4.40896
-4.90352
-5.39095
-5.87107
-6.34389
-6.80962
-7.26858
-7.72116
-8.16776
-8.60868
-9.04412
-9.4741
-9.8985
-10.317
-10.7294
-11.1352
-11.5341
-11.9261
-12.3112
-12.6895
-13.0616
-13.428
-13.7892
-14.1456
-14.4977
-14.8454
-15.1884
-15.5261
-15.8575
-16.1815
-16.4968
-16.8021
-17.0963
-17.3784
-17.6475
-17.903
-18.1443
-18.3705
-18.5809
-18.774
-18.9479
-19.1003
-19.2281
-19.3277
-19.3952
-19.4265
-19.4177
-19.365
-19.2654
-19.1164
-18.9165
-18.665
-18.3623
-18.0095
-17.6089
-17.1634
-16.677
-16.1542
-15.6008
-15.0231
-14.4283
-13.8239
-13.2179
1.89076
2.74791
3.43622
3.95584
4.31382
4.52238
4.59698
4.55459
4.4123
4.18633
3.89139
3.5404
3.14443
2.71281
2.2533
1.77229
1.27501
0.765789
0.248146
-0.274994
-0.801196
-1.3284
-1.85485
-2.379
-2.8995
-3.41514
-3.92492
-4.42798
-4.9237
-5.41167
-5.89176
-6.36409
-6.82897
-7.28691
-7.73848
-8.18424
-8.62466
-9.06
-9.4903
-9.91536
-10.3348
-10.748
-11.1545
-11.5538
-11.9456
-12.33
-12.7072
-13.0779
-13.4428
-13.8028
-14.1586
-14.5107
-14.8593
-15.204
-15.5443
-15.8788
-16.2063
-16.525
-16.8336
-17.1307
-17.4152
-17.6864
-17.944
-18.1875
-18.4168
-18.6312
-18.8298
-19.0108
-19.1717
-19.3095
-19.42
-19.4988
-19.5412
-19.5425
-19.4985
-19.4056
-19.2609
-19.0627
-18.8103
-18.5041
-18.1452
-17.736
-17.2794
-16.7794
-16.2407
-15.6692
-15.0714
-14.4551
-13.8285
-13.2006
2.52228
3.41416
4.10804
4.60761
4.92537
5.07978
5.09238
4.98536
4.77979
4.49464
4.14622
3.74817
3.31162
2.84553
2.35706
1.85189
1.33457
0.8087
0.277225
-0.25747
-0.793403
-1.32889
-1.86244
-2.39271
-2.91847
-3.43854
-3.95189
-4.45762
-4.95505
-5.44376
-5.92366
-6.395
-6.85832
-7.3144
-7.76413
-8.2084
-8.64791
-9.08309
-9.514
-9.9403
-10.3613
-10.7762
-11.1841
-11.584
-11.9757
-12.3589
-12.7342
-13.1024
-13.4647
-13.8223
-14.1767
-14.5286
-14.8784
-15.2261
-15.5705
-15.9102
-16.2434
-16.5678
-16.8816
-17.183
-17.4709
-17.7449
-18.0049
-18.2512
-18.4842
-18.7042
-18.9106
-19.1022
-19.2765
-19.4298
-19.5577
-19.6546
-19.7148
-19.7325
-19.7024
-19.6201
-19.4822
-19.2868
-19.0331
-18.7214
-18.3533
-17.9311
-17.4578
-16.9373
-16.3744
-15.775
-15.1462
-14.4964
-13.8351
-13.1726
3.42815
4.36524
5.0594
5.52091
5.77186
5.84112
5.75979
5.55777
5.26166
4.89383
4.47232
4.01118
3.52116
3.01031
2.4847
1.94887
1.40627
0.859557
0.310822
-0.238274
-0.786358
-1.33224
-1.87482
-2.413
-2.94568
-3.47168
-3.98989
-4.49926
-4.99897
-5.48854
-5.9679
-6.43746
-6.89809
-7.35101
-7.79764
-8.23937
-8.67736
-9.11229
-9.54427
-9.97277
-10.3967
-10.8146
-11.2249
-11.6262
-12.0178
-12.3993
-12.7714
-13.1353
-13.493
-13.8466
-14.1981
-14.5492
-14.9007
-15.2525
-15.6033
-15.951
-16.2929
-16.6258
-16.9471
-17.2545
-17.5467
-17.8234
-18.0853
-18.3337
-18.5703
-18.7965
-19.0128
-19.2184
-19.4111
-19.5868
-19.7397
-19.8631
-19.9494
-19.991
-19.9812
-19.9143
-19.7863
-19.5947
-19.339
-19.0199
-18.6392
-18.1995
-17.7039
-17.1561
-16.5606
-15.9232
-15.2511
-14.554
-13.8432
-13.1313
4.6754
5.66586
6.3455
6.73715
6.87971
6.81905
6.60075
6.26542
5.84654
5.3701
4.85526
4.31561
3.76049
3.19619
2.6269
2.05543
1.48374
0.9132
0.344819
-0.220645
-0.782585
-1.34044
-1.89361
-2.44131
-2.98254
-3.5161
-4.04064
-4.55483
-5.05753
-5.54804
-6.02625
-6.49278
-6.94895
-7.39667
-7.83818
-8.27571
-8.71116
-9.14569
-9.57951
-10.0118
-10.4406
-10.8638
-11.2785
-11.6825
-12.0742
-12.4531
-12.8201
-13.1771
-13.5271
-13.8736
-14.2201
-14.5692
-14.9226
-15.2802
-15.6405
-16.0001
-16.355
-16.7005
-17.0325
-17.3477
-17.6445
-17.923
-18.1849
-18.4331
-18.6713
-18.9029
-19.13
-19.3531
-19.5701
-19.7763
-19.9642
-20.1249
-20.248
-20.3235
-20.3421
-20.2965
-20.1816
-19.9949
-19.7361
-19.4069
-19.0099
-18.5482
-18.0249
-17.4434
-16.8071
-16.1209
-15.392
-14.6312
-13.8526
-13.0728
6.36763
7.41378
8.04603
8.31183
8.27993
8.02374
7.60997
7.09312
6.51409
5.90144
5.2737
4.6421
4.01286
3.38908
2.77206
2.16218
1.55942
0.963608
0.374498
-0.208197
-0.784783
-1.3555
-1.92035
-2.47899
-3.03052
-3.57357
-4.10636
-4.62697
-5.13367
-5.62526
-6.10143
-6.56301
-7.01197
-7.45126
-7.8844
-8.31503
-8.74625
-9.18008
-9.61696
-10.0555
-10.4929
-10.925
-11.3474
-11.7564
-12.1489
-12.5242
-12.8831
-13.2289
-13.5662
-13.9007
-14.238
-14.5829
-14.9381
-15.3041
-15.6784
-16.056
-16.4304
-16.7945
-17.1418
-17.4673
-17.7687
-18.0464
-18.304
-18.5468
-18.7818
-19.0154
-19.2528
-19.4963
-19.7446
-19.9917
-20.2279
-20.4405
-20.6151
-20.7377
-20.7953
-20.7782
-20.6801
-20.4985
-20.2346
-19.8914
-19.4735
-18.9852
-18.4298
-17.8094
-17.1253
-16.3798
-15.5788
-14.734
-13.8636
-12.991
8.66763
9.75745
10.274
10.315
10.0029
9.45512
8.76742
8.01013
7.22985
6.45427
5.69751
4.965
4.25719
3.57207
2.90678
2.25853
1.62497
1.00424
0.394831
-0.204645
-0.795527
-1.37906
-1.95613
-2.52695
-3.09077
-3.64585
-4.18964
-4.71918
-5.23159
-5.72469
-6.19764
-6.65141
-7.08891
-7.51467
-7.93424
-8.35346
-8.77754
-9.21003
-9.65191
-10.101
-10.5526
-10.9999
-11.4358
-11.8537
-12.2486
-12.6185
-12.9649
-13.2927
-13.6092
-13.9236
-14.245
-14.5814
-14.938
-15.3159
-15.7113
-16.1163
-16.5206
-16.9127
-17.2822
-17.6215
-17.9266
-18.1988
-18.444
-18.6718
-18.894
-19.1222
-19.3665
-19.6327
-19.9205
-20.2227
-20.5254
-20.8104
-21.0571
-21.2451
-21.3561
-21.3764
-21.2984
-21.1207
-20.8468
-20.4834
-20.0384
-19.5186
-18.9282
-18.2671
-17.5317
-16.7185
-15.8286
-14.8734
-13.8775
-12.8767
11.8408
12.9264
13.1865
12.8261
12.0653
11.0877
10.0249
8.96005
7.93867
6.97981
6.0862
5.25216
4.46867
3.72633
3.01682
2.3336
1.67192
1.02847
0.400751
-0.213562
-0.816943
-1.41199
-2.00097
-2.58507
-3.16368
-3.73442
-4.29346
-4.83608
-5.35734
-5.85316
-6.32146
-6.76322
-7.18274
-7.58697
-7.98456
-8.38487
-8.79666
-9.22643
-9.67636
-10.143
-10.6183
-11.0913
-11.5502
-11.984
-12.3841
-12.7467
-13.0736
-13.3725
-13.6552
-13.9362
-14.2303
-14.5508
-14.9073
-15.3024
-15.7302
-16.1777
-16.628
-17.0631
-17.4662
-17.8246
-18.1319
-18.3899
-18.6089
-18.8049
-18.9972
-19.2058
-19.4485
-19.7377
-20.0757
-20.4527
-20.8482
-21.2353
-21.5836
-21.8632
-22.0472
-22.116
-22.0603
-21.8813
-21.5877
-21.1928
-20.7106
-20.1536
-19.5282
-18.8316
-18.0502
-17.1674
-16.1723
-15.0711
-13.8986
-12.7145
16.3447
17.2836
16.9923
15.9135
14.4395
12.8429
11.2852
9.84719
8.55728
7.41119
6.38894
5.46635
4.62073
3.83313
3.08887
2.37753
1.69248
1.02994
0.387256
-0.238317
-0.850447
-1.45372
-2.05291
-2.65113
-3.24795
-3.83987
-4.42098
-4.98375
-5.51975
-6.02128
-6.48349
-6.90706
-7.29859
-7.6688
-8.03095
-8.39969
-8.78985
-9.21377
-9.6767
-10.1725
-10.6871
-11.2028
-11.7006
-12.1625
-12.5737
-12.9263
-13.2225
-13.4753
-13.7037
-13.93
-14.1773
-14.4682
-14.8208
-15.2418
-15.7205
-16.2349
-16.7573
-17.2594
-17.7146
-18.1013
-18.4078
-18.6371
-18.8067
-18.9431
-19.0769
-19.2401
-19.4636
-19.7721
-20.1747
-20.6558
-21.1831
-21.7156
-22.209
-22.6187
-22.9039
-23.0346
-22.9996
-22.8065
-22.4745
-22.0275
-21.4906
-20.8868
-20.2308
-19.5178
-18.7147
-17.7779
-16.6685
-15.3713
-13.9362
-12.4763
23.0307
23.4119
21.932
19.5693
16.9895
14.5418
12.373
10.5208
8.96861
7.66407
6.54799
5.56954
4.68905
3.87735
3.11335
2.38343
1.68047
1.00269
0.349001
-0.282536
-0.8968
-1.50141
-2.10633
-2.71926
-3.33934
-3.96095
-4.57493
-5.16998
-5.73183
-6.24604
-6.70114
-7.09704
-7.44513
-7.76222
-8.06782
-8.38364
-8.73435
-9.1449
-9.62964
-10.1748
-10.7545
-11.3399
-11.9027
-12.4139
-12.8478
-13.1867
-13.4339
-13.6132
-13.7552
-13.8933
-14.0614
-14.2967
-14.6356
-15.0977
-15.6596
-16.2803
-16.9155
-17.5231
-18.0613
-18.4934
-18.7947
-18.9699
-19.0522
-19.0849
-19.1141
-19.1872
-19.3559
-19.671
-20.1604
-20.7923
-21.5104
-22.2519
-22.9548
-23.5532
-23.9829
-24.1917
-24.1662
-23.9317
-23.5266
-22.9916
-22.3668
-21.6948
-21.0153
-20.3335
-19.5716
-18.6365
-17.4352
-15.87
-14.0096
-12.1027
33.6462
32.2195
28.1427
23.5373
19.3489
15.8386
13.0044
10.7622
9.02305
7.64535
6.50864
5.53147
4.65814
3.85273
3.08857
2.35036
1.63204
0.940602
0.278723
-0.351745
-0.957154
-1.54875
-2.1483
-2.77716
-3.42857
-4.09304
-4.75619
-5.40405
-6.01252
-6.55591
-7.00403
-7.35585
-7.63627
-7.87215
-8.08995
-8.31731
-8.59265
-8.96912
-9.49559
-10.1271
-10.8136
-11.5096
-12.179
-12.7766
-13.2584
-13.5789
-13.7432
-13.8044
-13.8124
-13.8131
-13.8486
-13.9761
-14.2728
-14.8098
-15.5137
-16.3048
-17.1134
-17.8866
-18.5606
-19.0737
-19.363
-19.4362
-19.369
-19.2316
-19.0879
-18.9965
-19.0374
-19.3186
-19.9406
-20.8046
-21.8035
-22.8438
-23.851
-24.7302
-25.38
-25.6858
-25.6335
-25.3022
-24.7654
-24.085
-23.3105
-22.5136
-21.8026
-21.2645
-20.6776
-19.8783
-18.7259
-16.7934
-14.1499
-11.4524
52.2236
44.8425
35.1146
26.905
20.7317
16.1618
12.7832
10.2789
8.5569
7.27943
6.23938
5.34371
4.52926
3.76855
3.02628
2.28855
1.54478
0.835862
0.163136
-0.457108
-1.03746
-1.58466
-2.14813
-2.80263
-3.49902
-4.22707
-4.95946
-5.69487
-6.38691
-7.00298
-7.44558
-7.71747
-7.89155
-8.00808
-8.09826
-8.18187
-8.30527
-8.57729
-9.21028
-9.99998
-10.8591
-11.7175
-12.5584
-13.3061
-13.9012
-14.1961
-14.2009
-14.072
-13.8799
-13.6826
-13.5035
-13.4115
-13.5638
-14.2816
-15.2423
-16.3037
-17.3624
-18.3926
-19.2916
-19.976
-20.2422
-20.1046
-19.7869
-19.387
-18.9862
-18.6153
-18.3725
-18.4755
-19.3719
-20.6225
-22.0371
-23.4829
-24.9313
-26.2375
-27.272
-27.6954
-27.5026
-26.9683
-26.2107
-25.3137
-24.2864
-23.2086
-22.341
-22.2655
-22.0892
-21.6283
-21.1399
-18.7404
-14.3677
-10.151
89.3144
60.844
39.8993
27.3399
19.8053
14.769
11.3027
8.66878
7.45047
6.57142
5.76205
5.03882
4.3228
3.65764
2.9573
2.23526
1.40716
0.678871
-0.0281517
-0.620021
-1.16562
-1.59722
-2.01694
-2.76781
-3.52395
-4.35487
-5.15842
-6.04816
-6.87071
-7.69983
-8.13297
-8.21991
-8.22966
-8.18193
-8.116
-7.9891
-7.8038
-7.66562
-8.69922
-9.77278
-10.9057
-11.9505
-13.0721
-14.0549
-14.9764
-15.2307
-14.8509
-14.4306
-13.9548
-13.526
-13.0327
-12.4949
-12.0405
-13.4034
-14.8258
-16.3062
-17.6522
-19.0874
-20.3313
-21.4804
-21.7027
-21.0319
-20.3231
-19.5437
-18.841
-18.0495
-17.2096
-16.4895
-18.293
-20.2042
-22.2254
-24.118
-26.2161
-28.1356
-30.0439
-30.592
-29.8632
-28.9557
-27.8565
-26.7298
-25.3346
-23.6006
-21.7385
-23.4112
-23.9104
-23.4179
-26.3058
-23.5284
-14.3607
-7.15005
175.773
66.008
32.6088
20.5386
15.2811
11.1153
8.62321
5.02007
5.85536
5.7629
5.16052
4.72337
4.04297
3.59722
2.91941
2.33457
1.1257
0.491142
-0.385355
-0.849648
-1.45798
-1.62697
-1.40891
-2.72547
-3.4412
-4.52212
-5.23327
-6.4982
-7.34506
-8.9669
-9.31887
-8.83347
-8.6505
-8.38198
-8.22148
-7.88039
-7.23443
-5.06655
-8.13059
-9.46003
-11.079
-12.0727
-13.7858
-14.8918
-17.0122
-17.1783
-15.5591
-14.869
-13.962
-13.4621
-12.6257
-11.4581
-7.90016
-12.4394
-14.3258
-16.5019
-17.8133
-20.0575
-21.5073
-24.3193
-24.4492
-22.0137
-20.9609
-19.5898
-18.8234
-17.5534
-15.8739
-10.8695
-17.0588
-19.6273
-22.5989
-24.4569
-27.7578
-30.0497
-34.7741
-35.3272
-32.481
-31.2188
-29.5416
-28.5323
-26.8703
-24.1771
-16.0457
-26.2467
-27.1595
-20.3392
-39.6297
-37.5183
-11.5352
0.388815
-12.5785
-11.89
-11.2316
-10.6121
-10.0386
-9.5158
-9.04671
-8.63272
-8.27402
-7.96998
-7.71948
-7.5212
-7.37384
-7.27627
-7.22769
-12.5591
-11.8599
-11.1924
-10.5661
-9.98775
-9.462
-8.99153
-8.57735
-8.21928
-7.91636
-7.66719
-7.47022
-7.32397
-7.22721
-7.17905
-12.5191
-11.7977
-11.1122
-10.472
-9.88418
-9.35285
-8.87997
-8.46577
-8.10931
-7.80892
-7.56263
-7.36844
-7.22454
-7.12947
-7.08219
-12.4555
-11.6998
-10.9863
-10.3255
-9.72402
-9.18515
-8.70964
-8.29638
-7.94318
-7.64731
-7.40591
-7.21631
-7.07622
-6.98386
-6.93799
-12.3634
-11.5594
-10.8077
-10.1196
-9.50114
-8.95401
-8.47696
-8.06685
-7.71966
-7.43115
-7.1973
-7.01459
-6.88012
-6.7917
-6.74785
-12.2354
-11.3665
-10.5654
-9.84401
-9.2068
-8.65271
-8.17726
-7.77433
-7.43739
-7.16026
-6.93749
-6.76456
-6.6379
-6.55489
-6.5138
-12.0598
-11.1058
-10.2433
-9.48412
-8.82926
-8.27268
-7.80495
-7.41573
-7.09524
-6.83494
-6.62779
-6.4682
-6.35197
-6.27609
-6.23861
-11.8179
-10.7534
-9.81769
-9.01984
-8.35336
-7.80372
-7.35405
-6.98834
-6.69283
-6.45641
-6.27044
-6.12843
-6.02564
-5.95881
-5.92589
-11.4792
-10.2723
-9.25414
-8.42413
-7.76053
-7.2347
-6.81912
-6.49067
-6.23127
-6.02737
-5.86909
-5.74937
-5.6633
-5.60758
-5.58019
-10.9897
-9.60226
-8.50236
-7.66194
-7.02987
-6.55538
-6.19701
-5.92389
-5.71414
-5.55265
-5.42911
-5.33661
-5.27054
-5.22795
-5.20706
-10.2483
-8.64456
-7.49101
-6.69134
-6.14157
-5.75988
-5.48958
-5.29369
-5.14871
-5.03991
-4.95805
-4.89737
-4.85427
-4.82656
-4.81299
-9.05254
-7.23658
-6.12567
-5.47076
-5.08512
-4.85293
-4.70771
-4.61252
-4.54705
-4.50017
-4.46577
-4.4405
-4.42256
-4.41099
-4.4053
-6.97836
-5.12353
-4.3043
-3.98087
-3.87518
-3.85896
-3.87576
-3.90158
-3.92677
-3.94792
-3.96431
-3.97626
-3.98444
-3.98948
-3.99188
-3.11517
-1.9748
-1.98709
-2.27319
-2.57575
-2.83193
-3.03474
-3.19125
-3.31049
-3.4004
-3.46725
-3.51577
-3.54941
-3.57059
-3.58082
4.47886
2.32662
0.603959
-0.549036
-1.32269
-1.85822
-2.24001
-2.51814
-2.7235
-2.87591
-2.98848
-3.07011
-3.12683
-3.16262
-3.17994
-41.9282
-41.985
-42.1032
-42.2926
-42.5699
-42.9617
-43.5104
-44.2857
-45.41
-47.12
-49.9455
-55.3324
-68.2362
-109.594
-282.725
-44.2616
-44.3661
-44.5835
-44.932
-45.443
-46.1675
-47.1876
-48.6406
-50.7671
-54.0184
-59.3124
-68.6708
-86.7755
-123.809
-191.065
-46.5226
-46.6689
-46.9727
-47.4586
-48.1681
-49.1679
-50.5642
-52.5278
-55.3431
-59.4985
-65.8567
-75.9356
-92.1701
-117.034
-146.111
-48.682
-48.8622
-49.2357
-49.8299
-50.6915
-51.8932
-53.5468
-55.8237
-58.9884
-63.4489
-69.8171
-78.9256
-91.5722
-107.333
-121.349
-50.7163
-50.9216
-51.3454
-52.0157
-52.9787
-54.3047
-56.0966
-58.5031
-61.7341
-66.0745
-71.8746
-79.4583
-88.8113
-98.8446
-106.321
-52.608
-52.8292
-53.2839
-53.9983
-55.014
-56.3926
-58.2196
-60.6098
-63.7093
-67.6865
-72.6937
-78.7621
-85.5779
-92.1315
-96.4837
-54.3463
-54.5747
-55.0423
-55.7715
-56.7974
-58.1691
-59.9515
-62.2241
-65.075
-68.5831
-72.7758
-77.5468
-82.5265
-86.9469
-89.669
-55.9259
-56.154
-56.619
-57.3388
-58.3406
-59.6606
-61.3431
-63.4367
-65.9842
-69.0044
-72.4564
-76.1866
-79.8633
-82.9419
-84.7444
-57.3472
-57.5689
-58.0189
-58.7104
-59.6628
-60.9002
-62.4493
-64.3339
-66.5653
-69.1257
-71.9439
-74.8634
-77.6156
-79.8228
-81.0716
-58.6146
-58.8252
-59.2511
-59.9009
-60.787
-61.9234
-63.3226
-64.9904
-66.9178
-69.0681
-71.361
-73.6564
-75.7462
-77.3694
-78.2659
-59.7358
-59.9322
-60.3277
-60.9273
-61.7376
-62.7641
-64.0092
-65.4667
-67.1156
-68.9113
-70.7762
-72.5921
-74.2008
-75.4206
-76.0827
-60.7207
-60.9009
-61.2625
-61.8076
-62.5379
-63.4531
-64.5484
-65.81
-67.2114
-68.7066
-70.2255
-71.6717
-72.9256
-73.859
-74.3592
-61.5804
-61.7436
-62.0699
-62.5592
-63.2098
-64.0172
-64.9719
-66.0564
-67.242
-68.4853
-69.7254
-70.8847
-71.8729
-72.5982
-72.9831
-62.3269
-62.4729
-62.7642
-63.1988
-63.7728
-64.479
-65.3053
-66.2326
-67.2327
-68.2661
-69.2814
-70.2165
-71.0029
-71.5736
-71.8743
-62.972
-63.1014
-63.359
-63.7417
-64.244
-64.8574
-65.5685
-66.3583
-67.2001
-68.0594
-68.8931
-69.6517
-70.2826
-70.7365
-70.9743
-63.5271
-63.641
-63.867
-64.2014
-64.6381
-65.1678
-65.7771
-66.4477
-67.1555
-67.8705
-68.557
-69.1754
-69.6853
-70.0495
-70.2395
-64.0032
-64.1027
-64.2996
-64.5901
-64.9677
-65.4231
-65.9432
-66.5113
-67.1059
-67.7014
-68.2681
-68.7745
-69.189
-69.4835
-69.6365
-64.4103
-64.4966
-64.6673
-64.9183
-65.2433
-65.6332
-66.0761
-66.5565
-67.0558
-67.5521
-68.0212
-68.4374
-68.7762
-69.0157
-69.1398
-64.7575
-64.832
-64.9793
-65.1952
-65.4738
-65.8067
-66.1828
-66.5886
-67.0077
-67.4218
-67.8108
-68.1541
-68.4322
-68.6281
-68.7293
-65.0528
-65.117
-65.2435
-65.4286
-65.6667
-65.9501
-66.269
-66.6113
-66.9632
-67.309
-67.6322
-67.9162
-68.1452
-68.3061
-68.3891
-65.3037
-65.3587
-65.4669
-65.6251
-65.8281
-66.0689
-66.3388
-66.6274
-66.9228
-67.2119
-67.4809
-67.7163
-67.9056
-68.0383
-68.1066
-65.5163
-65.5633
-65.6558
-65.7906
-65.9632
-66.1675
-66.3957
-66.6389
-66.8869
-67.1286
-67.3529
-67.5485
-67.7054
-67.815
-67.8715
-65.6964
-65.7364
-65.8152
-65.9298
-66.0764
-66.2494
-66.4421
-66.647
-66.8552
-67.0576
-67.2448
-67.4076
-67.5379
-67.6288
-67.6755
-65.8486
-65.8827
-65.9496
-66.047
-66.1712
-66.3175
-66.4802
-66.6527
-66.8276
-66.9971
-67.1535
-67.2893
-67.3977
-67.4733
-67.5121
-65.9772
-66.0061
-66.0629
-66.1454
-66.2506
-66.3743
-66.5116
-66.6568
-66.8037
-66.9458
-67.0766
-67.1899
-67.2803
-67.3432
-67.3755
-66.0856
-66.1102
-66.1583
-66.2282
-66.3172
-66.4217
-66.5374
-66.6597
-66.7831
-66.9023
-67.0118
-67.1066
-67.182
-67.2345
-67.2614
-66.1771
-66.1978
-66.2386
-66.2978
-66.373
-66.4612
-66.5588
-66.6617
-66.7655
-66.8655
-66.9573
-67.0366
-67.0997
-67.1435
-67.166
-66.2541
-66.2717
-66.3062
-66.3562
-66.4197
-66.4942
-66.5765
-66.6632
-66.7504
-66.8344
-66.9114
-66.9779
-67.0307
-67.0674
-67.0862
-66.3188
-66.3337
-66.3629
-66.4052
-66.4589
-66.5218
-66.5912
-66.6642
-66.7376
-66.8082
-66.8729
-66.9286
-66.9729
-67.0036
-67.0194
-66.3733
-66.3859
-66.4106
-66.4463
-66.4917
-66.5448
-66.6034
-66.6649
-66.7267
-66.7862
-66.8405
-66.8874
-66.9245
-66.9503
-66.9635
-66.4189
-66.4296
-66.4505
-66.4808
-66.5192
-66.564
-66.6135
-66.6654
-66.7176
-66.7676
-66.8134
-66.8528
-66.8841
-66.9057
-66.9168
-66.4572
-66.4663
-66.484
-66.5096
-66.5421
-66.5801
-66.6219
-66.6658
-66.7098
-66.7521
-66.7907
-66.8239
-66.8502
-66.8685
-66.8778
-66.4892
-66.4969
-66.5119
-66.5337
-66.5612
-66.5934
-66.6289
-66.666
-66.7033
-66.7391
-66.7717
-66.7998
-66.822
-66.8375
-66.8453
-66.5159
-66.5224
-66.5352
-66.5537
-66.5772
-66.6045
-66.6346
-66.6662
-66.6979
-66.7282
-66.7559
-66.7797
-66.7986
-66.8116
-66.8183
-66.538
-66.5436
-66.5545
-66.5703
-66.5903
-66.6137
-66.6394
-66.6664
-66.6933
-66.7192
-66.7428
-66.7631
-66.7791
-66.7903
-66.7959
-66.5563
-66.561
-66.5704
-66.584
-66.6012
-66.6213
-66.6433
-66.6664
-66.6896
-66.7118
-66.732
-66.7494
-66.7631
-66.7726
-66.7775
-66.5712
-66.5753
-66.5835
-66.5952
-66.6101
-66.6274
-66.6465
-66.6665
-66.6865
-66.7057
-66.7232
-66.7382
-66.75
-66.7583
-66.7625
-66.5832
-66.5868
-66.5939
-66.6042
-66.6172
-66.6324
-66.6491
-66.6666
-66.684
-66.7008
-66.716
-66.7291
-66.7395
-66.7467
-66.7504
-66.5927
-66.5959
-66.6022
-66.6114
-66.6229
-66.6363
-66.6511
-66.6666
-66.6821
-66.6969
-66.7104
-66.722
-66.7312
-66.7375
-66.7408
-66.6
-66.6029
-66.6086
-66.6168
-66.6272
-66.6393
-66.6527
-66.6666
-66.6806
-66.6939
-66.7061
-66.7165
-66.7248
-66.7305
-66.7335
-66.6052
-66.6079
-66.6132
-66.6207
-66.6303
-66.6415
-66.6538
-66.6666
-66.6795
-66.6918
-66.703
-66.7126
-66.7202
-66.7255
-66.7282
-66.6086
-66.6112
-66.6161
-66.6233
-66.6323
-66.6429
-66.6545
-66.6666
-66.6788
-66.6904
-66.701
-66.7101
-66.7173
-66.7222
-66.7248
-66.6103
-66.6127
-66.6175
-66.6245
-66.6333
-66.6436
-66.6548
-66.6666
-66.6784
-66.6897
-66.7
-66.7088
-66.7158
-66.7207
-66.7231
-66.6102
-66.6127
-66.6175
-66.6244
-66.6333
-66.6435
-66.6548
-66.6666
-66.6784
-66.6898
-66.7001
-66.7089
-66.7159
-66.7207
-66.7232
-66.6084
-66.611
-66.6159
-66.6231
-66.6322
-66.6428
-66.6544
-66.6666
-66.6788
-66.6905
-66.7011
-66.7102
-66.7174
-66.7224
-66.725
-66.6049
-66.6076
-66.6128
-66.6205
-66.6301
-66.6413
-66.6537
-66.6666
-66.6796
-66.6919
-66.7032
-66.7129
-66.7205
-66.7258
-66.7286
-66.5994
-66.6024
-66.6081
-66.6164
-66.6269
-66.6391
-66.6526
-66.6666
-66.6807
-66.6941
-66.7064
-66.7169
-66.7253
-66.731
-66.734
-66.592
-66.5952
-66.6016
-66.6108
-66.6225
-66.636
-66.651
-66.6666
-66.6822
-66.6972
-66.7108
-66.7225
-66.7318
-66.7382
-66.7415
-66.5823
-66.5859
-66.5931
-66.6035
-66.6167
-66.632
-66.6489
-66.6666
-66.6842
-66.7012
-66.7166
-66.7298
-66.7403
-66.7475
-66.7513
-66.57
-66.5742
-66.5824
-66.5943
-66.6094
-66.627
-66.6463
-66.6665
-66.6868
-66.7062
-66.7238
-66.739
-66.751
-66.7593
-66.7636
-66.5548
-66.5597
-66.5692
-66.583
-66.6004
-66.6207
-66.6431
-66.6665
-66.6899
-66.7124
-66.7328
-66.7504
-66.7643
-66.774
-66.7789
-66.5363
-66.5419
-66.553
-66.569
-66.5893
-66.613
-66.6391
-66.6664
-66.6937
-66.7199
-66.7438
-66.7643
-66.7806
-66.7919
-66.7976
-66.5138
-66.5204
-66.5334
-66.5522
-66.5759
-66.6037
-66.6343
-66.6663
-66.6984
-66.7291
-66.7571
-66.7813
-66.8004
-66.8136
-66.8203
-66.4866
-66.4944
-66.5097
-66.5318
-66.5598
-66.5925
-66.6284
-66.6661
-66.7039
-66.7401
-66.7732
-66.8016
-66.8242
-66.8398
-66.8478
-66.4541
-66.4633
-66.4813
-66.5074
-66.5404
-66.5789
-66.6214
-66.6659
-66.7105
-66.7534
-66.7925
-66.8261
-66.8528
-66.8713
-66.8807
-66.4152
-66.4261
-66.4473
-66.4781
-66.5171
-66.5627
-66.6129
-66.6656
-66.7184
-66.7692
-66.8156
-66.8555
-66.8871
-66.909
-66.9203
-66.3688
-66.3816
-66.4067
-66.4431
-66.4892
-66.5432
-66.6027
-66.6651
-66.7278
-66.7881
-66.8431
-66.8905
-66.9282
-66.9542
-66.9676
-66.3135
-66.3286
-66.3583
-66.4014
-66.456
-66.5199
-66.5904
-66.6645
-66.7389
-66.8105
-66.876
-66.9324
-66.9772
-67.0083
-67.0242
-66.2476
-66.2655
-66.3007
-66.3516
-66.4163
-66.492
-66.5756
-66.6636
-66.7521
-66.8372
-66.9151
-66.9824
-67.0358
-67.0728
-67.0918
-66.1693
-66.1905
-66.232
-66.2923
-66.3689
-66.4586
-66.5578
-66.6623
-66.7675
-66.8689
-66.9618
-67.042
-67.1057
-67.15
-67.1727
-66.0762
-66.1013
-66.1504
-66.2217
-66.3123
-66.4187
-66.5364
-66.6605
-66.7857
-66.9064
-67.0172
-67.1129
-67.1891
-67.2421
-67.2692
-65.9658
-65.9954
-66.0534
-66.1376
-66.2449
-66.3708
-66.5105
-66.6579
-66.8069
-66.9508
-67.0831
-67.1975
-67.2887
-67.3521
-67.3846
-65.8348
-65.8697
-65.9381
-66.0376
-66.1644
-66.3135
-66.4791
-66.6543
-66.8317
-67.0033
-67.1613
-67.2983
-67.4075
-67.4836
-67.5227
-65.6797
-65.7207
-65.8013
-65.9187
-66.0684
-66.2448
-66.4411
-66.6493
-66.8604
-67.0652
-67.2542
-67.4183
-67.5494
-67.6408
-67.6878
-65.496
-65.5442
-65.6391
-65.7772
-65.9538
-66.1624
-66.3949
-66.6421
-66.8935
-67.1381
-67.3643
-67.5612
-67.7188
-67.8289
-67.8855
-65.2789
-65.3354
-65.4467
-65.6091
-65.817
-66.0632
-66.3385
-66.632
-66.9315
-67.2236
-67.4948
-67.7314
-67.9213
-68.0541
-68.1225
-65.0224
-65.0886
-65.2189
-65.4093
-65.6537
-65.9439
-66.2694
-66.6177
-66.9744
-67.3238
-67.6492
-67.9342
-68.1634
-68.3241
-68.4069
-64.7201
-64.7972
-64.9493
-65.172
-65.4587
-65.8001
-66.1845
-66.5976
-67.0226
-67.4406
-67.8317
-68.1755
-68.4531
-68.6482
-68.7488
-64.3642
-64.4538
-64.6307
-64.8904
-65.2256
-65.6264
-66.0797
-66.5692
-67.0755
-67.5762
-68.047
-68.4629
-68.8001
-69.0378
-69.1607
-63.9461
-64.0497
-64.2546
-64.5562
-64.9469
-65.4162
-65.9497
-66.5292
-67.1323
-67.7325
-68.3004
-68.8051
-69.2161
-69.507
-69.6578
-63.4561
-63.5753
-63.8115
-64.1602
-64.6138
-65.1614
-65.7878
-66.4729
-67.191
-67.9112
-68.5978
-69.2121
-69.7156
-70.0736
-70.2597
-62.8832
-63.0196
-63.2903
-63.6913
-64.2154
-64.8519
-65.5852
-66.3935
-67.2483
-68.1133
-68.9454
-69.6962
-70.3161
-70.7595
-70.9909
-62.2158
-62.3706
-62.6787
-63.1368
-63.7389
-64.4752
-65.3304
-66.282
-67.2985
-68.3383
-69.3493
-70.2711
-71.0392
-71.5925
-71.8827
-61.4408
-61.6151
-61.9629
-62.4824
-63.1693
-64.016
-65.0087
-66.1253
-67.3325
-68.5832
-69.8153
-70.9528
-71.9114
-72.6084
-72.976
-60.5449
-60.7391
-61.128
-61.7116
-62.4889
-63.4554
-64.6009
-65.9057
-67.3363
-68.8411
-70.3468
-71.7587
-72.9654
-73.8528
-74.3245
-59.514
-59.728
-60.1578
-60.8064
-61.677
-62.7705
-64.0825
-65.5987
-67.2886
-69.0982
-70.9436
-72.707
-74.241
-75.3859
-76.0006
-58.3347
-58.5671
-59.0356
-59.7471
-60.7103
-61.9338
-63.4224
-65.1712
-67.1577
-69.3306
-71.5974
-73.8145
-75.7868
-77.2872
-78.1036
-56.9939
-57.2422
-57.7448
-58.5131
-59.5629
-60.9132
-62.5815
-64.5786
-66.8974
-69.4977
-72.2856
-75.092
-77.6601
-79.6636
-80.7734
-55.4807
-55.7409
-56.2696
-57.0834
-58.207
-59.6716
-61.5124
-63.7626
-66.4415
-69.5344
-72.961
-76.5348
-79.9256
-82.6604
-84.214
-53.7869
-54.0531
-54.5963
-55.4388
-56.6143
-58.1687
-60.159
-62.6489
-65.6982
-69.3394
-73.5343
-78.1047
-82.6466
-86.4776
-88.7332
-51.9082
-52.1729
-52.7154
-53.5629
-54.7585
-56.3633
-58.4587
-61.1468
-64.5439
-68.7598
-73.8467
-79.6943
-85.8611
-91.3887
-94.8189
-49.8459
-50.0999
-50.6226
-51.4453
-52.6185
-54.2171
-56.3469
-59.1523
-62.8208
-67.5755
-73.6308
-81.0622
-89.5195
-97.7562
-103.286
-47.6073
-47.8403
-48.3217
-49.0844
-50.1832
-51.702
-53.766
-56.5584
-60.3434
-65.4881
-72.4591
-81.7177
-93.331
-106.003
-115.594
-45.2069
-45.4082
-45.8254
-46.4902
-47.4562
-48.8084
-50.6793
-53.2753
-56.9219
-62.1323
-69.6987
-80.7381
-96.4071
-116.39
-134.562
-42.6669
-42.8263
-43.1573
-43.6869
-44.4611
-45.5548
-47.089
-49.2627
-52.4143
-57.1406
-64.5264
-76.5433
-96.4878
-128.032
-166.15
-40.0163
-40.1252
-40.3515
-40.7138
-41.2441
-41.9954
-43.0547
-44.5711
-46.8131
-50.3021
-56.1382
-66.8433
-88.5127
-135.11
-224.209
-37.2901
-37.3427
-37.4514
-37.6241
-37.8738
-38.222
-38.7031
-39.3756
-40.346
-41.8338
-44.3687
-49.5293
-63.2267
-112.672
-344.141
-34.5276
-34.5213
-34.5071
-34.4809
-34.4353
-34.3564
-34.2188
-33.9732
-33.5199
-32.6384
-30.776
-26.2871
-13.1159
36.172
267.948
-31.7695
-31.7056
-31.5711
-31.3514
-31.02
-30.5318
-29.8094
-28.7151
-26.9914
-24.1243
-19.0076
-9.07446
11.9137
58.2877
148.232
-29.056
-28.939
-28.6945
-28.2995
-27.7136
-26.87
-25.6585
-23.8943
-21.257
-17.1728
-10.5841
0.460964
19.314
50.1454
90.9807
14.3772
5.87579
2.45689
0.683715
-0.392312
-1.10659
-1.60649
-1.96782
-2.23396
-2.43161
-2.57794
-2.6844
-2.7586
-2.80556
-2.82833
9.09207
5.57274
2.99848
1.32027
0.202274
-0.572162
-1.12678
-1.5336
-1.83648
-2.06331
-2.23241
-2.35613
-2.44275
-2.49775
-2.52446
6.25086
4.61335
2.9178
1.56776
0.558278
-0.19038
-0.749701
-1.17156
-1.49181
-1.73507
-1.91839
-2.0536
-2.14884
-2.20956
-2.23913
4.54675
3.69425
2.59716
1.57876
0.733149
0.0599198
-0.468076
-0.880082
-1.20058
-1.44846
-1.63778
-1.77881
-1.87888
-1.943
-1.97432
3.43463
2.94498
2.22185
1.46974
0.788308
0.209362
-0.266997
-0.65214
-0.959783
-1.2025
-1.39068
-1.53245
-1.63387
-1.69922
-1.73123
2.66253
2.35782
1.86666
1.31163
0.772291
0.287562
-0.129262
-0.478013
-0.764064
-0.994405
-1.17581
-1.3141
-1.41389
-1.47857
-1.51037
2.10201
1.90011
1.55582
1.14262
0.718344
0.318605
-0.0388004
-0.347423
-0.607028
-0.820286
-0.990876
-1.12248
-1.21828
-1.28076
-1.31158
1.68168
1.54129
1.29282
0.98129
0.647352
0.320246
0.0177849
-0.250871
-0.482172
-0.675791
-0.833008
-0.95571
-1.04581
-1.10492
-1.13418
1.35883
1.25751
1.07361
0.835513
0.571611
0.304771
0.0508942
-0.180259
-0.383482
-0.556571
-0.699102
-0.811576
-0.894852
-0.9498
-0.977094
1.10634
1.03107
0.892013
0.707652
0.497908
0.280291
0.0682229
-0.129041
-0.305716
-0.458568
-0.586065
-0.687712
-0.763559
-0.813879
-0.838955
0.906115
0.848908
0.741879