/*--------------------------------*- C++ -*----------------------------------*\
| =========                 |                                                 |
| \\      /  F ield         | OpenFOAM: The Open Source CFD Toolbox           |
|  \\    /   O peration     | Version:  5.x                                   |
|   \\  /    A nd           | Web:      www.OpenFOAM.org                      |
|    \\/     M anipulation  |                                                 |
\*---------------------------------------------------------------------------*/
FoamFile
{
    version     2.0;
    format      ascii;
    class       volScalarField;
    location    "20";
    object      T;
}
// * * * * * * * * * * * * * * * * * * * * * * * * * * * * * * * * * * * * * //

dimensions      [0 0 0 1 0 0 0];

internalField   nonuniform List<scalar> 
6300
(
9.9198
9.76048
9.60438
9.45362
9.31023
9.17618
9.05327
8.94312
8.84708
8.76623
8.70123
8.65232
8.61927
8.60138
8.59747
9.91872
9.75725
9.59904
9.44623
9.30089
9.16503
9.0405
8.92897
8.83189
8.75035
8.68511
8.63643
8.60409
8.58737
8.58502
9.91655
9.75076
9.58829
9.43135
9.28207
9.14254
9.01471
8.90038
8.80111
8.71817
8.65239
8.60416
8.57327
8.55894
8.55981
9.91327
9.74094
9.57202
9.4088
9.2535
9.10833
8.9754
8.8567
8.754
8.66879
8.60212
8.55452
8.52585
8.51529
8.52124
9.90884
9.72769
9.55006
9.37831
9.21479
9.06186
8.92185
8.79699
8.68939
8.60084
8.53275
8.4859
8.46032
8.45508
8.46831
9.90324
9.71093
9.52222
9.33958
9.16548
9.00246
8.85312
8.72002
8.60569
8.51242
8.44211
8.39601
8.3744
8.37636
8.3996
9.89644
9.69055
9.48832
9.29229
9.10507
8.92938
8.76812
8.62428
8.50092
8.40102
8.32724
8.28158
8.26488
8.27632
8.31308
9.88842
9.66649
9.44823
9.2362
9.0331
8.84187
8.66569
8.50804
8.37266
8.26346
8.18423
8.13818
8.1272
8.15092
8.20593
9.87919
9.63875
9.4019
9.17115
8.94927
8.7393
8.54472
8.36951
8.21821
8.09591
8.00802
7.95969
7.95478
7.9942
8.07404
9.86877
9.60743
9.34945
9.09725
8.85351
8.62133
8.40437
8.20705
8.03474
7.89394
7.79222
7.73775
7.738
7.79701
7.91128
9.85725
9.57274
9.29122
9.01487
8.74619
8.48813
8.24436
8.01955
7.81975
7.65288
7.52913
7.46106
7.46245
7.54452
7.70763
9.84475
9.53505
9.2278
8.92482
8.62823
8.34063
8.06539
7.80703
7.57182
7.36867
7.21035
7.11488
7.10619
7.21097
7.44467
9.83145
9.49491
9.16012
8.82838
8.50127
8.18076
7.86952
7.57134
7.29181
7.03962
6.82871
6.68191
6.63642
6.74848
7.08186
9.81758
9.45302
9.08937
8.72732
8.3677
8.01161
7.6606
7.31698
6.98444
6.66928
6.38293
6.14759
6.0091
6.06462
6.5066
9.80341
9.41023
9.01703
8.62381
8.23058
7.83737
7.44427
7.05152
6.6597
6.27013
5.8861
5.51642
5.18774
4.99427
5.32181
8.60527
8.61979
8.64058
8.66642
8.6961
8.72846
8.76239
8.79691
8.83113
8.86426
8.89565
8.92474
8.95105
8.97422
8.99393
9.00993
9.02204
9.03011
9.03402
9.0337
9.0291
9.02018
9.00694
8.98937
8.96749
8.94134
8.91094
8.87635
8.83761
8.79479
8.74793
8.69711
8.64237
8.58377
8.52138
8.45523
8.38539
8.31189
8.23479
8.15413
8.06995
7.98232
7.89128
7.7969
7.69921
7.59829
7.49418
7.38694
7.27662
7.16327
7.04692
6.92762
6.8054
6.68031
6.5524
6.4217
6.28828
6.15221
6.01357
5.87244
5.72892
5.5831
5.43511
5.28506
5.13307
4.97928
4.82382
4.66685
4.50855
4.34912
4.18877
4.02776
3.86638
3.70494
3.54378
3.38329
3.22385
3.06587
2.90977
2.75598
2.6049
2.45694
2.31247
2.17183
2.03536
1.9033
1.7759
1.65331
1.53565
1.42296
8.59452
8.61073
8.63326
8.66084
8.6922
8.72613
8.7615
8.79729
8.83262
8.86671
8.89891
8.92866
8.95553
8.97914
8.99919
9.01547
9.02779
9.03602
9.04004
9.0398
9.03524
9.02634
9.01309
8.99549
8.97358
8.94737
8.9169
8.88224
8.84342
8.80051
8.75357
8.70266
8.64784
8.58917
8.5267
8.46048
8.39057
8.317
8.23983
8.1591
8.07486
7.98715
7.89604
7.80157
7.7038
7.6028
7.49861
7.39131
7.28092
7.16751
7.0511
6.93174
6.80947
6.68432
6.55633
6.42555
6.29204
6.15586
6.01709
5.87583
5.73215
5.58619
5.43803
5.2878
5.13562
4.98163
4.82594
4.66873
4.51014
4.35039
4.18968
4.02826
3.86642
3.70449
3.5428
3.38173
3.22171
3.06313
2.90643
2.75205
2.60039
2.45189
2.30691
2.16583
2.02896
1.89659
1.76895
1.64621
1.52848
1.41581
8.57284
8.59251
8.61863
8.64978
8.68456
8.72168
8.75994
8.79829
8.83585
8.87183
8.90562
8.93669
8.96463
8.9891
9.00984
9.02665
9.03938
9.0479
9.05214
9.05204
9.04756
9.03868
9.02542
9.00777
8.98577
8.95945
8.92885
8.89403
8.85505
8.81197
8.76485
8.71377
8.65879
8.59996
8.53734
8.47098
8.40093
8.32724
8.24993
8.16907
8.08468
7.99682
7.90554
7.81091
7.71298
7.61182
7.50748
7.40003
7.28952
7.17598
7.05947
6.94001
6.81763
6.69235
6.56423
6.43328
6.29958
6.16318
6.02416
5.88262
5.73865
5.59236
5.44388
5.2933
5.14075
4.98635
4.83023
4.67252
4.51338
4.35299
4.19156
4.02933
3.86658
3.70364
3.54087
3.37867
3.21744
3.05765
2.89973
2.74414
2.59133
2.44172
2.29573
2.15373
2.01608
1.88306
1.75492
1.63187
1.51401
1.40139
8.53982
8.56497
8.59672
8.63343
8.67352
8.71552
8.75818
8.8004
8.84127
8.88006
8.91618
8.94916
8.97865
9.00436
9.02608
9.04364
9.05694
9.06588
9.07042
9.07051
9.06613
9.05728
9.04398
9.02624
9.0041
8.9776
8.94679
8.91174
8.8725
8.82915
8.78177
8.73042
8.67519
8.61612
8.55328
8.48672
8.41647
8.34258
8.26509
8.18402
8.09942
8.01133
7.91981
7.82493
7.72674
7.62533
7.52076
7.4131
7.30239
7.18868
7.07202
6.95241
6.82987
6.70443
6.57611
6.44493
6.31094
6.1742
6.03481
5.89284
5.74842
5.60166
5.45267
5.30158
5.14849
4.99351
4.83675
4.67833
4.51838
4.35706
4.19455
4.0311
3.86697
3.70252
3.5381
3.37414
3.2111
3.04944
2.88965
2.73222
2.57763
2.42633
2.27878
2.13537
1.99649
1.86246
1.73357
1.61002
1.49196
1.37944
8.49488
8.52786
8.56764
8.61219
8.65965
8.70838
8.757
8.80438
8.84963
8.89208
8.9312
8.96661
8.99805
9.0253
9.04822
9.06671
9.0807
9.09015
9.09503
9.09533
9.09106
9.08222
9.06885
9.05098
9.02864
9.00188
8.97077
8.93538
8.89579
8.85207
8.80431
8.7526
8.69702
8.63763
8.5745
8.50767
8.43718
8.36305
8.28531
8.20398
8.1191
8.0307
7.93885
7.84362
7.74508
7.64332
7.53843
7.43047
7.31951
7.20559
7.08873
6.96895
6.84624
6.7206
6.59203
6.46055
6.32618
6.189
6.04909
5.90655
5.76151
5.61411
5.46446
5.31268
5.15889
5.00318
4.84562
4.6863
4.52531
4.36278
4.19887
4.03378
3.86781
3.70129
3.53463
3.36827
3.20272
3.0385
2.87614
2.71619
2.55915
2.40553
2.25582
2.11047
1.96989
1.83446
1.7045
1.58027
1.46193
1.34955
8.43719
8.48094
8.53162
8.5867
8.64391
8.70136
8.75756
8.81137
8.86198
8.90881
8.95148
8.98974
9.02341
9.05241
9.07668
9.09619
9.11094
9.12092
9.12616
9.12667
9.12248
9.11362
9.10014
9.08206
9.05945
9.03236
9.00085
8.96501
8.92493
8.88072
8.83247
8.78028
8.72425
8.66447
8.60098
8.53383
8.46305
8.38864
8.31062
8.22899
8.14376
8.05497
7.96269
7.867
7.76799
7.66576
7.56043
7.45209
7.34082
7.22664
7.10959
6.98964
6.86677
6.74093
6.6121
6.48026
6.34543
6.20767
6.06709
5.9238
5.77796
5.62972
5.47924
5.32664
5.17202
5.01545
4.85698
4.69662
4.53442
4.37045
4.20482
4.03772
3.86941
3.70025
3.53068
3.36121
3.19241
3.02485
2.85916
2.69592
2.53571
2.37909
2.22657
2.07867
1.93585
1.79855
1.66717
1.54202
1.42331
1.31114
8.36567
8.42399
8.48924
8.55809
8.62777
8.69609
8.7615
8.82292
8.87971
8.93149
8.97807
9.01939
9.05544
9.08627
9.11192
9.13247
9.14796
9.15846
9.16402
9.1647
9.16055
9.15162
9.13796
9.11962
9.09664
9.06911
9.03708
9.00067
8.95997
8.91511
8.86621
8.81342
8.75683
8.69655
8.63264
8.56514
8.49406
8.41937
8.34106
8.25909
8.17346
8.08421
7.99138
7.89508
7.79544
7.6926
7.58671
7.47788
7.36623
7.25178
7.13455
7.01448
6.8915
6.76551
6.63643
6.50421
6.36883
6.23037
6.08892
5.94467
5.7978
5.64852
5.49703
5.34346
5.18791
5.03043
4.87099
4.70955
4.54605
4.38047
4.21286
4.04334
3.87218
3.69976
3.52655
3.35317
3.18025
3.0085
2.83861
2.67126
2.50709
2.3467
2.19067
2.03953
1.89384
1.75411
1.62084
1.49447
1.37528
1.26341
8.27898
8.35703
8.44161
8.52826
8.61352
8.69498
8.77111
8.8411
8.90461
8.9616
9.01218
9.05656
9.09493
9.12751
9.15447
9.17596
9.19211
9.20304
9.20885
9.20962
9.20544
9.19636
9.18245
9.16376
9.14034
9.11225
9.07957
9.04242
9.00092
8.95523
8.90551
8.85193
8.79465
8.73378
8.66941
8.60155
8.53018
8.45525
8.37668
8.29439
8.20833
8.11851
8.025
7.92792
7.82744
7.72377
7.61713
7.50769
7.39558
7.28087
7.16352
7.04345
6.9205
6.79448
6.66523
6.53263
6.39663
6.25729
6.11475
5.96925
5.82106
5.67047
5.51775
5.36307
5.20655
5.04817
4.88785
4.7254
4.56063
4.39339
4.22359
4.0513
3.87675
3.70035
3.52266
3.34441
3.16639
2.98944
2.81438
2.64199
2.47299
2.30802
2.14768
1.99255
1.84323
1.70035
1.56459
1.43654
1.3167
1.20525
8.17551
8.28061
8.39095
8.50039
8.60472
8.70148
8.78952
8.86856
8.93885
9.00087
9.05518
9.10231
9.14272
9.17679
9.20482
9.22707
9.24372
9.25493
9.26086
9.26161
9.2573
9.248
9.23376
9.21465
9.19068
9.16192
9.12844
9.09036
9.04784
9.00107
8.95029
8.89571
8.83757
8.776
8.71112
8.64293
8.57137
8.49631
8.41759
8.33504
8.24854
8.15807
8.06369
7.96557
7.86396
7.75917
7.65151
7.54127
7.42864
7.31368
7.19637
7.07651
6.95385
6.82806
6.69881
6.56589
6.42918
6.28876
6.1448
5.99765
5.84772
5.69545
5.54122
5.38531
5.22781
5.06868
4.90771
4.74454
4.57875
4.40995
4.23787
4.06248
3.88395
3.70275
3.51957
3.3353
3.15097
2.96762
2.78628
2.60783
2.43306
2.26265
2.09717
1.93718
1.78331
1.63634
1.49719
1.36681
1.246
1.13516
8.05349
8.19662
8.34155
8.47983
8.60677
8.72049
8.82082
8.90857
8.98494
9.05119
9.10846
9.15768
9.19957
9.23469
9.26345
9.28617
9.30308
9.31438
9.32024
9.32083
9.31627
9.30666
9.29204
9.27244
9.24786
9.21831
9.18386
9.14463
9.1008
9.05263
9.00044
8.94457
8.88533
8.82293
8.75751
8.68908
8.61752
8.54258
8.46395
8.38131
8.29441
8.20319
8.1077
8.00818
7.90499
7.79861
7.68955
7.57824
7.46496
7.34984
7.2328
7.11355
6.99166
6.86654
6.73763
6.60453
6.46705
6.32524
6.17939
6.03
5.87771
5.72321
5.56709
5.40976
5.25137
5.09181
4.9307
4.76742
4.60117
4.43117
4.2569
4.07812
3.89498
3.70797
3.518
3.32624
3.13409
2.94291
2.75398
2.56834
2.38685
2.21016
2.03874
1.87298
1.71344
1.56107
1.41715
1.28326
1.16096
1.05099
7.91148
8.11001
8.30167
8.47554
8.62783
8.7587
8.87019
8.96492
9.04554
9.11439
9.17327
9.22353
9.2661
9.30168
9.33072
9.35357
9.37045
9.38157
9.38716
9.38739
9.38245
9.37244
9.35742
9.33734
9.3121
9.28168
9.24609
9.20543
9.15992
9.1099
9.05582
8.99822
8.93754
8.87413
8.80817
8.73967
8.66844
8.5941
8.51602
8.4336
8.34644
8.25436
8.15745
8.05598
7.95055
7.84185
7.73077
7.61795
7.50388
7.3887
7.27233
7.15434
7.03405
6.91042
6.78242
6.64942
6.51108
6.3675
6.21903
6.06647
5.91081
5.75323
5.59464
5.43569
5.27656
5.11712
4.95677
4.79453
4.62892
4.45852
4.28238
4.10001
3.91152
3.71743
3.51897
3.31772
3.11577
2.91495
2.71691
2.52284
2.33372
2.15006
1.97214
1.7998
1.63324
1.47361
1.32264
1.18302
1.05814
0.94953
7.75039
8.03323
8.28738
8.50228
8.67967
8.82476
8.94364
9.0415
9.12301
9.19188
9.25044
9.30036
9.34263
9.378
9.40684
9.42947
9.44601
9.45667
9.46169
9.46132
9.45583
9.44537
9.43001
9.40956
9.38373
9.35242
9.31551
9.27315
9.22544
9.17294
9.11618
9.05621
8.99358
8.92894
8.86238
8.7941
8.72376
8.65089
8.57427
8.49263
8.40549
8.31241
8.21366
8.10942
8.00072
7.88845
7.7744
7.65939
7.54433
7.42919
7.31411
7.19838
7.08117
6.9605
6.83434
6.70194
6.5626
6.41671
6.26449
6.10737
5.94659
5.78465
5.62266
5.46183
5.30213
5.1437
4.98552
4.82641
4.66355
4.49407
4.3168
4.13068
3.93607
3.73316
3.5239
3.31016
3.09581
2.88294
2.6741
2.47018
2.27269
2.08167
1.89746
1.7183
1.54305
1.37367
1.21175
1.06157
0.931858
0.82574
7.58218
7.99774
8.32955
8.58298
8.77797
8.92851
9.04733
9.14156
9.21864
9.28418
9.33997
9.38817
9.42903
9.46366
9.49184
9.51409
9.52998
9.53984
9.54391
9.54256
9.53629
9.52527
9.50988
9.48947
9.46317
9.43115
9.39272
9.34849
9.29781
9.24204
9.18109
9.11795
9.05247
8.98642
8.919
8.85145
8.78263
8.71303
8.63968
8.55953
8.47301
8.37854
8.27772
8.16923
8.05595
7.93755
7.81935
7.70087
7.58482
7.46953
7.35677
7.24447
7.13325
7.01841
6.89522
6.76437
6.62349
6.475
6.31695
6.15347
5.98402
5.8161
5.64894
5.48632
5.32583
5.16989
5.01557
4.86368
4.70765
4.54081
4.36394
4.17353
3.97256
3.75801
3.53526
3.30347
3.07367
2.8451
2.6242
2.40825
2.20231
2.00348
1.8155
1.63113
1.44441
1.26297
1.08393
0.910642
0.771596
0.671181
7.47047
8.0828
8.48454
8.74779
8.9402
9.07788
9.18635
9.26626
9.33083
9.39043
9.44036
9.48646
9.52434
9.55851
9.5853
9.6078
9.62255
9.63125
9.63387
9.63078
9.62353
9.61136
9.59691
9.57774
9.55078
9.51901
9.4782
9.43303
9.3774
9.31852
9.24907
9.18297
9.11207
9.04581
8.9757
8.91055
8.84255
8.78048
8.71479
8.6355
8.55191
8.45373
8.35274
8.23586
8.11849
7.98626
7.86464
7.73874
7.62413
7.50616
7.3987
7.28895
7.19045
7.08828
6.96706
6.84118
6.69529
6.54698
6.37717
6.20812
6.01916
5.84641
5.66863
5.50769
5.3429
5.19367
5.04208
4.90685
4.76725
4.60196
4.43051
4.23154
4.02855
3.79461
3.55962
3.29387
3.04975
2.79615
2.56716
2.33188
2.12166
1.90964
1.72832
1.54733
1.33813
1.14882
0.947835
0.71039
0.555694
0.471046
7.73876
8.47107
8.83889
9.01455
9.1812
9.26924
9.36646
9.41296
9.45013
9.51055
9.54618
9.59656
9.6249
9.66394
9.68485
9.7126
9.72376
9.73136
9.73195
9.72494
9.71779
9.70064
9.69067
9.67715
9.64525
9.6198
9.56988
9.53258
9.46157
9.41016
9.31213
9.25485
9.1649
9.11067
9.0252
8.97365
8.89386
8.85307
8.80942
8.71756
8.65175
8.53291
8.45054
8.30315
8.20234
8.01961
7.91604
7.7603
7.66822
7.5276
7.44385
7.31717
7.25289
7.1855
7.04556
6.94673
6.77053
6.64984
6.43624
6.29139
6.03092
5.8839
5.66402
5.53455
5.33753
5.22083
5.04497
4.95626
4.86381
4.67195
4.53669
4.2953
4.12908
3.83267
3.62825
3.2531
3.03946
2.71175
2.51915
2.21939
2.04361
1.77156
1.64066
1.50413
1.20321
1.05147
0.864226
0.390974
0.238921
0.19872
1.30444
1.18216
1.06664
0.957529
0.854397
0.756757
0.664081
0.575823
0.491427
0.410342
0.332027
0.255953
0.181603
0.108476
0.0360779
1.29742
1.17539
1.06022
0.95154
0.848898
0.751785
0.659658
0.571955
0.488111
0.407569
0.329784
0.254225
0.180379
0.107746
0.0358352
1.28326
1.16175
1.0473
0.939505
0.837861
0.741821
0.650804
0.564221
0.481489
0.402035
0.32531
0.250783
0.177941
0.106292
0.035352
1.26172
1.14103
1.02772
0.921306
0.821213
0.726826
0.63751
0.552633
0.471582
0.39377
0.318636
0.245651
0.17431
0.104127
0.0346328
1.23243
1.11293
1.00124
0.896776
0.798851
0.706753
0.61977
0.537214
0.458433
0.382821
0.30981
0.238875
0.169519
0.101272
0.0336847
1.19486
1.077
0.967533
0.865695
0.770653
0.681559
0.597599
0.518014
0.442112
0.369266
0.298907
0.230516
0.163616
0.0977582
0.0325179
1.1483
1.03268
0.926182
0.82781
0.736499
0.651225
0.571046
0.495126
0.422731
0.353221
0.286032
0.220665
0.156668
0.0936258
0.0311465
1.09177
0.97921
0.8767
0.782856
0.696303
0.615789
0.540228
0.468708
0.400462
0.334851
0.271333
0.209442
0.148765
0.0889292
0.0295886
1.02399
0.915686
0.818543
0.730603
0.650061
0.575392
0.505367
0.43901
0.375553
0.314384
0.255006
0.197003
0.140019
0.0837368
0.027867
0.943223
0.840992
0.751178
0.670945
0.597939
0.530348
0.466831
0.406408
0.348353
0.292125
0.237301
0.183543
0.130568
0.0781317
0.0260094
0.847114
0.753875
0.674223
0.604055
0.540396
0.481224
0.425199
0.371432
0.319325
0.268458
0.218527
0.169297
0.120579
0.0722116
0.0240481
0.732509
0.653164
0.587777
0.530651
0.478362
0.428948
0.381303
0.334794
0.289053
0.243853
0.199049
0.154538
0.110239
0.0660865
0.0220194
0.595534
0.538491
0.493064
0.452405
0.413447
0.374901
0.336267
0.297386
0.258236
0.21885
0.179277
0.139564
0.099752
0.0598753
0.0199623
0.433075
0.412194
0.393579
0.372453
0.348115
0.320937
0.291477
0.260243
0.227652
0.194033
0.159644
0.124688
0.0893285
0.0536997
0.0179166
0.250069
0.283629
0.296602
0.295708
0.285621
0.269254
0.248457
0.224454
0.198094
0.169984
0.140576
0.110214
0.0791735
0.0476779
0.015921
9.79043
9.37101
8.95073
8.52894
8.10488
7.67754
7.24564
6.80734
6.35993
5.89914
5.41753
4.90023
4.31088
3.5355
2.119
9.77882
9.33595
8.8915
8.44428
7.99286
7.53542
7.06951
6.59167
6.0967
5.57632
5.01633
4.39008
3.64291
2.65457
1.16674
9.76757
9.30198
8.83419
8.36253
7.88502
7.39917
6.90166
6.38788
5.8511
5.28102
4.66113
3.96389
3.14242
2.12049
0.801741
9.75681
9.26955
8.77957
8.28484
7.78297
7.27101
6.7451
6.20007
5.62863
5.0203
4.35965
3.62396
2.78114
1.79252
0.634474
9.74667
9.239
8.72824
8.2121
7.68793
7.15252
6.60183
6.03059
5.43177
4.79591
4.11028
3.35842
2.52112
1.58219
0.544225
9.73723
9.21061
8.68065
8.14493
7.60068
7.04465
6.47283
5.88026
5.26064
4.60607
3.90691
3.1522
2.33166
1.44064
0.489036
9.72855
9.18452
8.63706
8.08368
7.52163
6.94773
6.35824
5.7487
5.11376
4.4472
3.7421
2.99168
2.19116
1.34115
0.452225
9.72065
9.16083
8.59757
8.02845
7.4508
6.86164
6.25758
5.63477
4.98885
4.31509
3.60876
2.86596
2.08503
1.26869
0.426194
9.71354
9.13952
8.56216
7.97914
7.38795
6.78588
6.16995
5.5369
4.88327
4.20559
3.50075
2.76671
2.00349
1.2144
0.40703
9.70719
9.12052
8.53068
7.9355
7.33267
6.71976
6.0942
5.45331
4.79439
4.11495
3.41303
2.68773
1.9399
1.17281
0.392512
9.70157
9.10372
8.50292
7.89716
7.28438
6.66241
6.02909
5.38223
4.71976
4.03992
3.34153
2.62439
1.88969
1.14038
0.381278
9.69662
9.08897
8.4786
7.86372
7.24245
6.61296
5.97339
5.32199
4.65719
3.97776
3.28306
2.57325
1.84962
1.11474
0.372444
9.6923
9.07609
8.45743
7.83469
7.20625
6.5705
5.9259
5.27106
4.60477
3.92622
3.23507
2.53171
1.81738
1.09425
0.365412
9.68855
9.06491
8.43909
7.80963
7.17511
6.53417
5.88553
5.22807
4.56088
3.88342
3.19556
2.49779
1.79123
1.07773
0.359758
9.6853
9.05526
8.42327
7.78808
7.14844
6.5032
5.85129
5.19183
4.52413
3.84783
3.16294
2.46996
1.76991
1.06431
0.355176
9.68251
9.04695
8.40969
7.76961
7.12566
6.47685
5.8223
5.16131
4.49335
3.81819
3.13594
2.44706
1.75243
1.05335
0.35144
9.68011
9.03983
8.39806
7.75383
7.10625
6.45448
5.79779
5.13561
4.46757
3.7935
3.11354
2.42813
1.73805
1.04435
0.348378
9.67806
9.03374
8.38812
7.74039
7.08976
6.43552
5.77709
5.114
4.44596
3.77289
3.09492
2.41246
1.72617
1.03694
0.345857
9.67631
9.02854
8.37967
7.72896
7.07576
6.41948
5.75963
5.09583
4.42786
3.75567
3.07942
2.39945
1.71634
1.03081
0.343775
9.67482
9.02413
8.37248
7.71926
7.06391
6.40592
5.7449
5.08054
4.41268
3.74128
3.0665
2.38864
1.70817
1.02573
0.342051
9.67355
9.02038
8.36638
7.71104
7.05387
6.39447
5.7325
5.0677
4.39995
3.72924
3.05571
2.37962
1.70138
1.02151
0.34062
9.67248
9.0172
8.36121
7.70408
7.0454
6.38482
5.72205
5.0569
4.38927
3.71917
3.0467
2.37211
1.69573
1.018
0.339429
9.67157
9.0145
8.35684
7.6982
7.03824
6.37667
5.71326
5.04783
4.38032
3.71073
3.03916
2.36583
1.69101
1.01507
0.338437
9.6708
9.01223
8.35315
7.69324
7.03221
6.36981
5.70586
5.04021
4.3728
3.70366
3.03286
2.36059
1.68707
1.01263
0.337609
9.67015
9.01031
8.35003
7.68905
7.02712
6.36404
5.69963
5.0338
4.3665
3.69773
3.02758
2.3562
1.68378
1.01059
0.336919
9.6696
9.00868
8.3474
7.68552
7.02283
6.35917
5.6944
5.02843
4.36121
3.69276
3.02316
2.35253
1.68103
1.00889
0.336341
9.66914
9.00732
8.34518
7.68255
7.01923
6.35509
5.69
5.02391
4.35677
3.6886
3.01946
2.34945
1.67873
1.00746
0.335858
9.66875
9.00617
8.34332
7.68004
7.0162
6.35165
5.68631
5.02012
4.35305
3.68511
3.01636
2.34688
1.6768
1.00627
0.335455
9.66842
9.0052
8.34175
7.67794
7.01365
6.34876
5.68321
5.01694
4.34993
3.68219
3.01376
2.34473
1.67519
1.00527
0.335117
9.66815
9.00439
8.34043
7.67617
7.01151
6.34634
5.68061
5.01427
4.34731
3.67974
3.01159
2.34293
1.67384
1.00444
0.334834
9.66792
9.0037
8.33933
7.67469
7.00971
6.34431
5.67843
5.01204
4.34512
3.67769
3.00977
2.34142
1.67271
1.00374
0.334598
9.66773
9.00313
8.3384
7.67345
7.00821
6.34261
5.67661
5.01017
4.34329
3.67597
3.00825
2.34016
1.67177
1.00316
0.334401
9.66756
9.00265
8.33763
7.67241
7.00695
6.34119
5.67508
5.00861
4.34176
3.67455
3.00698
2.33911
1.67099
1.00267
0.334237
9.66743
9.00225
8.33698
7.67155
7.00591
6.34001
5.67382
5.00731
4.34049
3.67336
3.00593
2.33824
1.67033
1.00227
0.3341
9.66732
9.00192
8.33645
7.67083
7.00504
6.33903
5.67276
5.00624
4.33944
3.67237
3.00505
2.33751
1.66979
1.00193
0.333987
9.66722
9.00165
8.336
7.67024
7.00432
6.33822
5.6719
5.00535
4.33857
3.67156
3.00433
2.33692
1.66935
1.00166
0.333894
9.66715
9.00143
8.33564
7.66976
7.00374
6.33756
5.67119
5.00463
4.33786
3.6709
3.00375
2.33643
1.66898
1.00143
0.333818
9.66709
9.00125
8.33535
7.66937
7.00327
6.33702
5.67062
5.00404
4.33729
3.67036
3.00327
2.33604
1.66869
1.00125
0.333756
9.66704
9.00111
8.33512
7.66906
7.00289
6.3366
5.67017
5.00358
4.33684
3.66994
3.0029
2.33573
1.66846
1.00111
0.333708
9.667
9.001
8.33495
7.66883
7.00261
6.33628
5.66982
5.00323
4.33649
3.66962
3.00261
2.33549
1.66828
1.001
0.333671
9.66698
9.00092
8.33482
7.66865
7.0024
6.33605
5.66957
5.00297
4.33624
3.66938
3.00241
2.33532
1.66815
1.00092
0.333644
9.66696
9.00087
8.33474
7.66855
7.00227
6.3359
5.66941
5.00281
4.33608
3.66923
3.00227
2.33521
1.66807
1.00087
0.333627
9.66695
9.00084
8.3347
7.66849
7.00221
6.33583
5.66934
5.00273
4.336
3.66916
3.00221
2.33516
1.66803
1.00084
0.333619
9.66695
9.00084
8.3347
7.66849
7.00221
6.33583
5.66934
5.00273
4.33601
3.66916
3.00221
2.33516
1.66803
1.00084
0.333619
9.66696
9.00087
8.33474
7.66855
7.00228
6.33591
5.66942
5.00282
4.33609
3.66924
3.00228
2.33522
1.66808
1.00087
0.333628
9.66698
9.00092
8.33483
7.66867
7.00242
6.33606
5.66959
5.00299
4.33626
3.6694
3.00242
2.33534
1.66816
1.00092
0.333646
9.66701
9.001
8.33496
7.66884
7.00263
6.3363
5.66985
5.00325
4.33652
3.66964
3.00263
2.33551
1.66829
1.00101
0.333674
9.66704
9.00112
8.33514
7.66908
7.00292
6.33663
5.6702
5.00362
4.33687
3.66997
3.00293
2.33575
1.66848
1.00112
0.333712
9.66709
9.00126
8.33537
7.6694
7.0033
6.33706
5.67066
5.00409
4.33733
3.6704
3.00331
2.33607
1.66871
1.00126
0.333761
9.66716
9.00144
8.33567
7.6698
7.00378
6.33761
5.67124
5.00468
4.33791
3.67095
3.00379
2.33647
1.66901
1.00145
0.333823
9.66723
9.00167
8.33604
7.67029
7.00438
6.33828
5.67196
5.00542
4.33864
3.67162
3.00439
2.33696
1.66938
1.00168
0.333901
9.66733
9.00195
8.33649
7.67089
7.00511
6.3391
5.67285
5.00632
4.33952
3.67245
3.00512
2.33757
1.66983
1.00196
0.333995
9.66744
9.00229
8.33703
7.67162
7.00599
6.3401
5.67391
5.00741
4.34059
3.67345
3.00601
2.3383
1.67038
1.0023
0.33411
9.66758
9.00269
8.33769
7.6725
7.00705
6.3413
5.6752
5.00873
4.34188
3.67465
3.00708
2.33919
1.67104
1.00271
0.334249
9.66774
9.00318
8.33847
7.67355
7.00833
6.34274
5.67675
5.01032
4.34343
3.6761
3.00836
2.34026
1.67184
1.0032
0.334416
9.66794
9.00376
8.33942
7.67481
7.00985
6.34447
5.6786
5.01221
4.34529
3.67784
3.00991
2.34153
1.6728
1.00379
0.334616
9.66817
9.00445
8.34054
7.67632
7.01168
6.34653
5.68081
5.01448
4.34751
3.67992
3.01175
2.34306
1.67394
1.0045
0.334855
9.66845
9.00528
8.34188
7.67811
7.01385
6.34899
5.68345
5.01719
4.35017
3.68241
3.01396
2.34489
1.67531
1.00534
0.335141
9.66878
9.00626
8.34347
7.68025
7.01644
6.35193
5.6866
5.02041
4.35333
3.68537
3.01659
2.34707
1.67694
1.00635
0.335483
9.66918
9.00743
8.34537
7.68279
7.01953
6.35542
5.69035
5.02426
4.35711
3.68891
3.01973
2.34968
1.67889
1.00756
0.335892
9.66965
9.00883
8.34763
7.68582
7.02319
6.35957
5.69482
5.02884
4.36161
3.69313
3.02348
2.35279
1.68122
1.009
0.33638
9.67021
9.01048
8.3503
7.68941
7.02755
6.36451
5.70013
5.0343
4.36697
3.69816
3.02796
2.3565
1.68401
1.01073
0.336964
9.67087
9.01243
8.35348
7.69367
7.03272
6.37038
5.70645
5.0408
4.37337
3.70417
3.0333
2.36094
1.68733
1.01279
0.337663
9.67165
9.01475
8.35724
7.69873
7.03887
6.37736
5.71397
5.04854
4.38098
3.71133
3.03968
2.36625
1.69131
1.01526
0.338498
9.67258
9.0175
8.3617
7.70472
7.04615
6.38564
5.7229
5.05774
4.39006
3.71987
3.0473
2.37259
1.69608
1.01821
0.339499
9.67368
9.02075
8.36697
7.71181
7.05479
6.39547
5.73352
5.0687
4.40088
3.73007
3.05641
2.38018
1.70178
1.02175
0.340699
9.67497
9.02458
8.3732
7.7202
7.06501
6.40713
5.74613
5.08174
4.41378
3.74225
3.0673
2.38927
1.70862
1.026
0.34214
9.6765
9.0291
8.38055
7.73012
7.07711
6.42094
5.76111
5.09725
4.42916
3.7568
3.08035
2.40017
1.71684
1.0311
0.343872
9.67829
9.03442
8.38922
7.74181
7.09141
6.4373
5.77888
5.11571
4.4475
3.7742
3.09597
2.41326
1.72671
1.03725
0.34596
9.6804
9.04068
8.39941
7.75559
7.10828
6.45665
5.79996
5.13765
4.46937
3.79501
3.11472
2.429
1.73862
1.04468
0.348481
9.68287
9.04801
8.41136
7.77178
7.12816
6.4795
5.82493
5.16375
4.49548
3.81993
3.13725
2.44797
1.75301
1.05366
0.351536
9.68575
9.05658
8.42536
7.79077
7.15154
6.50647
5.8545
5.19476
4.52663
3.8498
3.16436
2.47089
1.77044
1.06457
0.35525
9.68912
9.06657
8.4417
7.813
7.17897
6.53822
5.88946
5.23161
4.56382
3.88564
3.19706
2.49865
1.79164
1.07787
0.359785
9.69301
9.07817
8.46071
7.83891
7.21106
6.57552
5.93074
5.27535
4.60824
3.9287
3.23658
2.5324
1.81752
1.09417
0.365352
9.69752
9.09158
8.48274
7.86903
7.2485
6.61925
5.9794
5.32723
4.66128
3.9805
3.28446
2.57357
1.84929
1.11426
0.372231
9.7027
9.10702
8.50814
7.90387
7.29201
6.67033
6.0366
5.38868
4.72462
4.0429
3.34266
2.62403
1.88852
1.13921
0.380801
9.70862
9.12469
8.53727
7.94398
7.34233
6.72977
6.10365
5.46132
4.80023
4.11817
3.41362
2.68622
1.93733
1.17049
0.391585
9.71534
9.14478
8.57049
7.98989
7.40023
6.79863
6.18197
5.547
4.8904
4.20905
3.50044
2.76334
1.99861
1.21014
0.405334
9.72292
9.16747
8.6081
8.04208
7.46643
6.87794
6.273
5.64769
4.99775
4.31886
3.60706
2.85964
2.07636
1.26112
0.423156
9.7314
9.19287
8.65033
8.10094
7.54156
6.96866
6.37818
5.76547
5.12521
4.45151
3.73842
2.98083
2.17632
1.32789
0.446771
9.74079
9.22105
8.69733
8.16674
7.62607
7.07157
6.49881
5.9024
5.27587
4.61152
3.90067
3.13459
2.30679
1.41737
0.479012
9.75108
9.252
8.74909
8.23955
7.72018
7.18718
6.63584
6.06024
5.45279
4.80382
4.10128
3.33121
2.48004
1.54082
0.524912
9.76225
9.2856
8.80545
8.31917
7.82376
7.31551
6.78972
6.24019
5.65855
5.03332
4.34879
3.58414
2.71443
1.71752
0.594369
9.77421
9.32165
8.86605
8.40514
7.93624
7.45602
6.96008
6.44243
5.89457
5.30399
4.65192
3.91002
3.03716
1.98188
0.709371
9.78686
9.3598
8.93034
8.49665
8.0566
7.60743
7.1455
6.66565
6.16025
5.61737
5.01744
4.32684
3.48657
2.39708
0.925924
9.80005
9.39962
8.99755
8.59259
8.18327
7.76771
7.34337
6.90662
6.45194
5.97035
5.4459
4.84759
4.10904
3.07734
1.40684
9.81361
9.44058
9.06676
8.69156
8.31428
7.93408
7.54984
7.16002
6.76233
6.3531
5.92565
5.46572
4.93507
4.20119
2.68163
9.82735
9.48209
9.13693
8.79195
8.44731
8.10325
7.76018
7.41887
7.08072
6.74847
6.42795
6.13295
5.90221
5.87063
6.62565
9.84107
9.52354
9.20696
8.89211
8.57994
8.27171
7.9693
7.67553
7.395
7.1357
6.91251
6.75555
6.73102
6.99382
7.89678
9.85458
9.5643
9.2758
8.99041
8.70981
8.43614
8.17241
7.92297
7.69452
7.49783
7.35107
7.28615
7.36029
7.67243
8.36319
0.102899
0.184645
0.220415
0.233783
0.234089
0.225937
0.211957
0.193807
0.172601
0.149128
0.123969
0.0975689
0.0702809
0.0423969
0.0141696
0.055254
0.126587
0.166709
0.186557
0.193114
0.190603
0.181671
0.168067
0.150999
0.131337
0.109733
0.086689
0.0626102
0.037834
0.0126552
0.0348134
0.0902037
0.12708
0.14856
0.158436
0.159725
0.154628
0.144731
0.131197
0.114895
0.0964953
0.0765272
0.0554234
0.0335505
0.0112321
0.0242588
0.0666762
0.0981438
0.118619
0.129719
0.133282
0.130917
0.123921
0.113316
0.0999092
0.0843465
0.0671536
0.0487703
0.0295761
0.00991026
0.0179404
0.0507523
0.0768399
0.0951893
0.106235
0.110955
0.110422
0.105616
0.0973792
0.0864199
0.0733291
0.0586062
0.0426802
0.0259289
0.00869578
0.0137529
0.0394976
0.0609092
0.0768309
0.0871419
0.0922767
0.0928931
0.0896915
0.0833329
0.0744102
0.0634448
0.050894
0.0371628
0.0226162
0.00759126
0.0107883
0.0312519
0.0487906
0.0623683
0.071643
0.0767352
0.0780151
0.0759591
0.0710666
0.0638186
0.0546609
0.0440011
0.0322113
0.0196354
0.00659616
0.00859663
0.025037
0.0394224
0.0508934
0.0590482
0.0638404
0.0654531
0.0641961
0.0604357
0.0545527
0.0469199
0.0378925
0.0278057
0.0169763
0.00570729
0.00692774
0.0202489
0.0320779
0.041721
0.0487882
0.0531532
0.0548836
0.0541711
0.0512784
0.0465015
0.040147
0.0325194
0.0239155
0.0146224
0.00491947
0.00562987
0.0164969
0.0262512
0.0343372
0.0404042
0.0442954
0.0460101
0.0456598
0.0434292
0.0395455
0.0342579
0.0278242
0.0205037
0.012553
0.00422606
0.00460463
0.0135177
0.0215828
0.0283553
0.0335311
0.0369486
0.0385701
0.0384541
0.0367278
0.0335642
0.0291644
0.0237447
0.0175292
0.0107449
0.00361953
0.00378505
0.0111271
0.0178119
0.0234819
0.0278786
0.0308489
0.0323366
0.0323662
0.0310241
0.0284413
0.024779
0.0202177
0.0149496
0.00917367
0.00309191
0.0031238
0.00919306
0.0147455
0.0194926
0.0232166
0.0257786
0.0271155
0.0272307
0.0261818
0.0240678
0.0210176
0.0171813
0.0127227
0.00781467
0.00263515
0.00258636
0.00761781
0.0122383
0.0162136
0.0193615
0.0215589
0.0227425
0.0229034
0.0220791
0.0203442
0.0178021
0.0145769
0.0108078
0.00664416
0.00224141
0.00214699
0.00632793
0.0101789
0.0135092
0.0161662
0.018043
0.0190795
0.0192601
0.0186085
0.0171812
0.0150607
0.01235
0.00916693
0.00563963
0.00190325
0.00178611
0.00526711
0.00848122
0.0112721
0.0135126
0.0151105
0.0160108
0.0161947
0.0156766
0.0144993
0.0127291
0.0104512
0.00776499
0.00478026
0.00161376
0.00148857
0.00439159
0.00707733
0.00941728
0.0113052
0.0126623
0.0134393
0.0136167
0.0132024
0.012229
0.01075
0.00883582
0.0065703
0.00404709
0.00136665
0.00124251
0.00366693
0.00591351
0.00787624
0.00946641
0.0106169
0.0112843
0.0114494
0.0111163
0.0103097
0.00907297
0.00746439
0.00555452
0.00342309
0.00115622
0.0010385
0.00306575
0.00494677
0.00659386
0.00793288
0.00890685
0.00947794
0.00962817
0.00935885
0.00868917
0.00765412
0.00630214
0.00469257
0.00289312
0.000977419
0.000869041
0.0025661
0.00414246
0.00552536
0.00665281
0.00747653
0.00796379
0.00809818
0.0078794
0.00732228
0.00645532
0.00531873
0.00396243
0.00244386
0.000825793
0.000728063
0.00215024
0.00347247
0.00463422
0.00558361
0.00627981
0.00669464
0.0068134
0.00663484
0.00617052
0.0054437
0.00448786
0.00334496
0.00206368
0.000697438
0.000610654
0.00180378
0.00291389
0.00389053
0.00469021
0.00527843
0.00563104
0.00573505
0.00558867
0.005201
0.00459109
0.00378685
0.00282358
0.00174248
0.000588966
0.000512808
0.00151497
0.00244797
0.00326969
0.00394363
0.00444063
0.00474006
0.00483053
0.00471004
0.00438577
0.00387341
0.00319625
0.00238401
0.00147155
0.000497448
0.000431249
0.00127417
0.00205933
0.00275146
0.00331989
0.00373999
0.00399416
0.00407247
0.00397289
0.00370113
0.00327015
0.00269943
0.00201402
0.00124341
0.00042037
0.000363285
0.00107346
0.00173527
0.0023191
0.00279915
0.00315456
0.00337035
0.00343792
0.00335529
0.00312703
0.00276391
0.00228225
0.00170317
0.00105168
0.00035558
0.000306704
0.000906344
0.00146535
0.0019588
0.00236493
0.00266608
0.00284946
0.00290764
0.00283878
0.00264658
0.00233997
0.0019327