/*--------------------------------*- C++ -*----------------------------------*\
| =========                 |                                                 |
| \\      /  F ield         | OpenFOAM: The Open Source CFD Toolbox           |
|  \\    /   O peration     | Version:  5.x                                   |
|   \\  /    A nd           | Web:      www.OpenFOAM.org                      |
|    \\/     M anipulation  |                                                 |
\*---------------------------------------------------------------------------*/
FoamFile
{
    version     2.0;
    format      ascii;
    class       volScalarField;
    location    "9.7";
    object      gradTx;
}
// * * * * * * * * * * * * * * * * * * * * * * * * * * * * * * * * * * * * * //

dimensions      [0 -1 0 1 0 0 0];

internalField   nonuniform List<scalar> 
6300
(
47.5259
47.9506
48.7921
50.0339
51.65
53.6029
55.8421
58.3024
60.9029
63.5469
66.1247
68.5174
70.6041
72.2714
73.4226
47.0999
47.5325
48.3903
49.6583
51.3117
53.3151
55.6196
58.1609
60.8578
63.6117
66.3083
68.8217
71.0221
72.7858
74.0074
46.2399
46.6877
47.5772
48.8957
50.6222
52.7249
55.1588
57.8622
60.7541
63.7322
66.6735
69.4375
71.875
73.8407
75.2089
44.9309
45.3998
46.3337
47.7239
49.555
51.8021
54.427
57.3735
60.5626
63.8881
67.2143
70.3782
73.1983
75.4914
77.0964
43.1516
43.6455
44.6326
46.1098
48.0704
50.5001
53.372
56.6407
60.2333
64.0418
67.9159
71.661
75.0467
77.8288
79.7851
40.877
41.3969
42.4399
44.011
46.1154
48.7543
51.9191
55.5824
59.6866
64.1285
68.7449
73.3016
77.4973
80.9901
83.4552
38.0813
38.6241
39.7177
41.3776
43.6246
46.4814
49.9661
54.0819
58.8005
64.0392
69.6319
75.3017
80.649
85.1776
88.3838
34.7414
35.299
36.428
38.1559
40.5227
43.5791
47.3806
51.9772
57.3931
63.5943
70.4401
77.6229
84.6176
90.6857
95.0024
30.8428
31.4014
32.5383
34.2939
36.7301
39.9304
43.9988
49.0517
55.1988
62.5034
70.9098
80.1306
89.5109
97.9435
104.007
26.3845
26.9242
28.0287
29.7502
32.1719
35.4124
39.6313
45.0306
51.8455
60.3092
70.5633
82.4773
95.3499
107.568
116.578
21.3855
21.881
22.9008
24.5053
26.7937
29.9148
34.0821
39.5925
46.8422
56.323
68.5552
83.8634
101.841
120.399
134.861
15.8898
16.3126
17.1872
18.5754
20.5818
23.3698
27.1887
32.414
39.6064
49.5839
63.4696
82.5781
107.75
137.324
163.144
9.97018
10.2915
10.959
12.0264
13.5871
15.7929
18.8877
23.267
29.5843
38.9352
53.1594
75.2272
109.255
158
211.129
3.72832
3.92343
4.3298
4.98307
5.94644
7.3261
9.30101
12.1811
16.5275
23.4118
35.0039
55.9149
96.04
174.289
304.624
-2.7095
-2.65676
-2.54713
-2.37116
-2.11138
-1.73681
-1.19176
-0.371945
0.931553
3.17941
7.52822
17.387
44.6994
138.489
526.904
73.9873
74.0248
73.6237
72.794
71.5593
69.9532
68.0159
65.7908
63.3214
60.6487
57.8105
54.8398
51.7651
48.6106
45.3966
42.1402
38.8562
35.5572
32.2544
28.9579
25.6766
22.4189
19.1921
16.0028
12.8569
9.75942
6.71475
3.72637
0.797079
-2.07106
-4.87661
-7.61874
-10.2971
-12.9115
-15.4622
-17.9494
-20.373
-22.733
-25.029
-27.2604
-29.4264
-31.5264
-33.5601
-35.5274
-37.429
-39.2662
-41.041
-42.756
-44.4141
-46.0181
-47.5709
-49.0746
-50.5305
-51.9392
-53.3001
-54.6119
-55.8728
-57.0807
-58.2335
-59.3292
-60.3663
-61.3437
-62.2606
-63.1158
-63.9081
-64.6351
-65.2931
-65.8769
-66.3793
-66.7917
-67.1036
-67.3038
-67.3803
-67.3216
-67.117
-66.7571
-66.2349
-65.5455
-64.6867
-63.6592
-62.4664
-61.1146
-59.6131
-57.974
-56.2124
-54.3462
-52.3963
-50.3859
-48.3397
-46.2838
74.6096
74.655
74.2393
73.3758
72.0926
70.4286
68.4289
66.1414
63.6125
60.8859
58
54.9883
51.8789
48.6952
45.4565
42.1791
38.8769
35.5618
32.2447
28.9351
25.6421
22.3738
19.1374
15.9398
12.7866
9.68304
6.63335
3.64102
0.708788
-2.16134
-4.96807
-7.7107
-10.389
-13.0032
-15.5537
-18.0407
-20.4645
-22.825
-25.1218
-27.3541
-29.521
-31.6216
-33.6552
-35.6215
-37.5212
-39.3555
-41.1266
-42.8374
-44.4912
-46.0913
-47.641
-49.1426
-50.5979
-52.0072
-53.3698
-54.6843
-55.9483
-57.1593
-58.3147
-59.4126
-60.4513
-61.43
-62.3482
-63.2055
-64.0012
-64.7334
-65.399
-65.9929
-66.508
-66.9352
-67.2635
-67.4806
-67.5739
-67.5307
-67.3393
-66.9899
-66.4746
-65.7883
-64.9286
-63.8961
-62.6942
-61.3292
-59.8103
-58.1494
-56.3619
-54.4659
-52.4827
-50.4363
-48.353
-46.2599
75.888
75.9475
75.4979
74.5602
73.1727
71.3856
69.255
66.8377
64.1871
61.3508
58.3694
55.2763
52.0986
48.8577
45.5711
42.2528
38.9151
35.5686
32.2231
28.8878
25.5714
22.2819
19.0266
15.8121
12.6445
9.52869
6.46899
3.46883
0.530846
-2.34311
-5.15196
-7.89531
-10.5734
-13.1868
-15.7364
-18.2229
-20.6469
-23.0085
-25.3072
-27.5417
-29.7109
-31.8129
-33.8466
-35.8112
-37.707
-39.5352
-41.2985
-43.0003
-44.6448
-46.2364
-47.7793
-49.2767
-50.7306
-52.1414
-53.5082
-54.8285
-56.0992
-57.3168
-58.4779
-59.5801
-60.6216
-61.6023
-62.5224
-63.3829
-64.1844
-64.9264
-65.6069
-66.2212
-66.7622
-67.2199
-67.5821
-67.8347
-67.9628
-67.9518
-67.7881
-67.4602
-66.9593
-66.2795
-65.4182
-64.3758
-63.1558
-61.7644
-60.2106
-58.5063
-56.6666
-54.7101
-52.659
-50.5392
-48.3793
-46.2097
77.8962
77.9713
77.458
76.3907
74.8266
72.8357
70.4926
67.8687
65.0278
62.0233
58.8982
55.6849
52.4079
49.0852
45.7301
42.3536
38.965
35.5729
32.186
28.8126
25.4613
22.14
18.8562
15.6167
12.4273
9.29317
6.21855
3.20682
0.260481
-2.6188
-5.43026
-8.174
-10.8508
-13.4622
-16.0097
-18.495
-20.9191
-23.2825
-25.5844
-27.8234
-29.9969
-32.1023
-34.1371
-36.0996
-37.9895
-39.808
-41.5583
-43.245
-44.8738
-46.4511
-47.9825
-49.4727
-50.9245
-52.3383
-53.7125
-55.0433
-56.3258
-57.5547
-58.7252
-59.8338
-60.8788
-61.8607
-62.7815
-63.6443
-64.4521
-65.2071
-65.9089
-66.5539
-67.1351
-67.6411
-68.0574
-68.3669
-68.551
-68.5917
-68.4722
-68.1787
-67.7005
-67.031
-66.1674
-65.1102
-63.8632
-62.4324
-60.8266
-59.0572
-57.1386
-55.0896
-52.9335
-50.6989
-48.4186
-46.1285
80.7568
80.841
80.214
78.9352
77.0934
74.7916
72.133
69.2107
66.1024
62.8685
59.5525
56.184
52.782
49.3579
45.9191
42.471
39.0189
35.569
32.1284
28.7051
25.3073
21.9436
18.6216
15.3484
12.13
8.97158
5.87724
2.85035
-0.10666
-2.99232
-5.80622
-8.54907
-11.2226
-13.8295
-16.3726
-18.855
-21.2787
-23.6447
-25.9522
-28.1988
-30.3806
-32.4929
-34.5312
-36.4921
-38.3742
-40.1785
-41.9091
-43.5723
-45.1766
-46.731
-48.2443
-49.7233
-51.1722
-52.5915
-53.9784
-55.3268
-56.6287
-57.8758
-59.0606
-60.1779
-61.2259
-62.2061
-63.1231
-63.9837
-64.795
-65.5633
-66.2914
-66.9777
-67.6151
-68.1904
-68.6855
-69.0782
-69.3446
-69.461
-69.4059
-69.1618
-68.7159
-68.0609
-67.1941
-66.117
-64.8339
-63.3514
-61.6773
-59.8217
-57.7975
-55.6223
-53.3202
-50.9234
-48.4711
-46.0081
84.6625
84.7331
83.9073
82.2888
80.0211
77.2601
74.1517
70.819
67.3567
63.8304
60.281
56.7303
53.1867
49.6508
46.1203
42.593
39.0689
35.551
32.0453
28.5598
25.1038
21.6864
18.3162
15.0007
11.7461
8.55729
5.43849
2.39298
-0.576764
-3.46932
-6.28458
-9.02397
-11.6905
-14.2885
-16.823
-19.2992
-21.7212
-24.0908
-26.4075
-28.6673
-30.864
-32.9897
-35.0364
-36.9977
-38.8703
-40.6547
-42.3562
-43.984
-45.5505
-47.0696
-48.5547
-50.0165
-51.4616
-52.8907
-54.2989
-55.6763
-57.0098
-58.2858
-59.4922
-60.6211
-61.6697
-62.6414
-63.5449
-64.3928
-65.199
-65.9762
-66.7329
-67.4708
-68.1832
-68.8542
-69.4598
-69.9704
-70.3532
-70.5762
-70.6107
-70.4342
-70.0314
-69.3946
-68.5227
-67.4193
-66.091
-64.5449
-62.7884
-60.8282
-58.673
-56.3367
-53.8426
-51.2267
-48.5384
-45.8365
89.9111
89.9146
88.7404
86.5755
83.6579
80.2273
76.4919
72.6129
68.7017
64.8242
61.0104
57.2653
53.579
49.9349
46.316
42.7095
39.1089
35.5145
31.9321
28.3715
24.8439
21.3606
17.9316
14.565
11.2668
8.04186
4.8939
1.82627
-1.15822
-4.05779
-6.87229
-9.60384
-12.257
-14.8387
-17.3574
-19.8216
-22.2387
-24.6131
-26.9442
-29.2264
-31.4493
-33.5997
-35.664
-37.6307
-39.4928
-41.2499
-42.9088
-44.4832
-45.992
-47.4566
-48.8979
-50.3332
-51.7731
-53.2192
-54.663
-56.088
-57.4729
-58.7949
-60.0346
-61.1787
-62.2232
-63.1739
-64.0459
-64.861
-65.6437
-66.4177
-67.2004
-67.9997
-68.8098
-69.6109
-70.37
-71.0453
-71.5907
-71.9615
-72.1183
-72.0314
-71.6828
-71.0658
-70.1835
-69.0446
-67.6604
-66.0407
-64.1916
-62.1144
-59.8083
-57.2774
-54.5395
-51.6337
-48.6244
-45.5949
96.9703
96.79
94.9984
91.9443
88.0319
83.6319
79.0373
74.4521
69.9971
65.725
61.6395
57.7145
53.9095
50.1815
46.4928
42.8166
39.1392
35.4598
31.787
28.1349
24.5196
20.9561
17.4568
14.0302
10.6818
7.41519
4.23332
1.13962
-1.86216
-4.76889
-7.57955
-10.2966
-12.9265
-15.4798
-17.9699
-20.4115
-22.8177
-25.1973
-27.5511
-29.8706
-32.1387
-34.3335
-36.4318
-38.4137
-40.266
-41.9859
-43.5825
-45.0764
-46.4966
-47.8763
-49.2489
-50.6425
-52.0752
-53.55
-55.0532
-56.5569
-58.0255
-59.4218
-60.7136
-61.879
-62.9108
-63.8187
-64.6279
-65.3745
-66.1002
-66.8454
-67.6431
-68.5117
-69.4485
-70.427
-71.3997
-72.3059
-73.0788
-73.6538
-73.9756
-74.0044
-73.7193
-73.1181
-72.2125
-71.022
-69.5677
-67.8658
-65.9224
-63.7291
-61.2663
-58.5155
-55.477
-52.1889
-48.7386
-45.2539
106.601
105.984
103.072
98.5474
93.1062
87.3146
81.5676
76.1024
71.028
66.3559
62.0363
57.9896
54.1281
50.3705
46.6507
42.9243
39.1715
35.3948
31.6111
27.8446
24.12
20.4587
16.8765
13.3822
9.97872
6.66614
3.44548
0.320355
-2.70312
-5.61846
-8.42174
-11.1147
-13.7062
-16.2118
-18.6524
-21.0521
-23.4347
-25.8183
-28.2073
-30.5884
-32.9333
-35.2056
-37.3668
-39.3827
-41.2293
-42.8988
-44.4035
-45.7751
-47.0586
-48.3057
-49.5689
-50.8948
-52.3158
-53.8393
-55.4417
-57.0755
-58.6813
-60.1982
-61.5736
-62.7705
-63.7758
-64.6047
-65.2988
-65.9173
-66.5274
-67.1963
-67.9825
-68.9243
-70.0261
-71.25
-72.5243
-73.7572
-74.8505
-75.7094
-76.2537
-76.4281
-76.2097
-75.6074
-74.6504
-73.3782
-71.8303
-70.0378
-68.0118
-65.7307
-63.138
-60.1668
-56.7732
-52.9768
-48.9017
-44.7631
120.114
118.48
113.467
106.468
98.6831
90.931
83.6898
77.1884
71.4781
66.4777
62.0389
57.9967
54.1961
50.5039
46.8169
43.0688
39.2373
35.3388
31.4098
27.4933
23.6284
19.8469
16.1691
12.603
9.14427
5.78437
2.51976
-0.645508
-3.69999
-6.62952
-9.42282
-12.079
-14.6097
-17.0374
-19.3936
-21.717
-24.0504
-26.4311
-28.8745
-31.3578
-33.8322
-36.2372
-38.5105
-40.595
-42.4472
-44.0483
-45.4156
-46.6001
-47.6724
-48.7113
-49.7977
-51.0094
-52.4081
-54.0141
-55.784
-57.6337
-59.4639
-61.1776
-62.6895
-63.937
-64.8937
-65.5838
-66.0776
-66.4709
-66.8687
-67.3772
-68.0968
-69.1055
-70.4266
-71.9994
-73.707
-75.4085
-76.9584
-78.2168
-79.0634
-79.4158
-79.2519
-78.6058
-77.5411
-76.1302
-74.4439
-72.5446
-70.4673
-68.18
-65.5539
-62.425
-58.6484
-54.1653
-49.1553
-44.0272
139.931
135.84
126.718
115.519
104.211
93.8099
84.7449
77.1332
70.9042
65.7893
61.4693
57.6548
54.1065
50.6288
47.07
43.3325
39.3988
35.3257
31.1896
27.0667
23.0163
19.085
15.3001
11.669
8.16702
4.76504
1.45071
-1.77112
-4.87697
-7.83684
-10.6214
-13.2241
-15.6613
-17.9659
-20.1818
-22.3675
-24.5974
-26.9535
-29.4839
-32.1395
-34.8308
-37.4579
-39.9257
-42.1411
-44.026
-45.534
-46.69
-47.586
-48.3336
-49.0477
-49.8452
-50.854
-52.201
-53.952
-56.0106
-58.2189
-60.4131
-62.4467
-64.1852
-65.5212
-66.3946
-66.8442
-67.0001
-67.0168
-67.0496
-67.2529
-67.7935
-68.8355
-70.4637
-72.5533
-74.8974
-77.2767
-79.4846
-81.3158
-82.5832
-83.1458
-82.9871
-82.2058
-80.9291
-79.2773
-77.3628
-75.3066
-73.224
-71.1158
-68.6927
-65.6147
-61.54
-56.1114
-49.5781
-42.8404
170.99
160.442
142.959
124.726
108.433
94.7634
83.7062
75.0855
68.7248
63.9552
60.1705
56.9285
53.9139
50.8696
47.5794
43.8777
39.76
35.4027
30.9496
26.5354
22.2319
18.1119
14.2094
10.5484
7.04553
3.61923
0.248233
-3.0639
-6.26428
-9.29669
-12.0819
-14.6072
-16.904
-19.0221
-21.0133
-22.9541
-24.9626
-27.2246
-29.9128
-32.8694
-35.9216
-38.9072
-41.7041
-44.1626
-46.147
-47.5258
-48.3385
-48.7848
-49.0422
-49.2633
-49.5879
-50.2108
-51.4113
-53.4461
-56.0207
-58.8237
-61.5926
-64.1396
-66.2597
-67.7703
-68.5048
-68.5264
-68.1222
-67.5384
-66.9838
-66.6419
-66.7671
-67.7202
-69.8354
-72.7393
-76.0361
-79.3904
-82.5521
-85.2255
-87.1164
-87.9134
-87.6173
-86.5181
-84.8557
-82.8018
-80.4844
-78.1054
-76.0166
-74.5038
-72.7734
-70.2388
-66.3801
-59.6474
-50.2944
-40.7024
224.573
195.029
160.274
131.139
108.872
91.9534
79.1571
69.782
64.2527
60.7014
58.0888
55.8733
53.7631
51.4634
48.6802
45.0207
40.4654
35.6165
30.6526
25.8438
21.1827
16.8247
12.7705
9.19956
5.81343
2.39346
-1.03926
-4.51779
-7.8936
-11.1126
-13.9167
-16.3196
-18.4037
-20.2607
-21.9174
-23.4432
-24.9623
-26.8815
-29.9548
-33.4614
-37.1075
-40.6281
-43.969
-46.8661
-49.1393
-50.3323
-50.5138
-50.255
-49.8024
-49.3292
-48.9002
-48.735
-49.4194
-52.1618
-55.7012
-59.4766
-63.0908
-66.446
-69.2107
-71.136
-71.6402
-70.8206
-69.5018
-68.0168
-66.6105
-65.3572
-64.5475
-64.9302
-68.0701
-72.3584
-77.0904
-81.7801
-86.3213
-90.2603
-93.2236
-94.2534
-93.4025
-91.6398
-89.3445
-86.7043
-83.693
-80.4851
-77.9784
-78.2039
-78.0108
-76.7681
-75.3578
-66.9557
-51.3539
-36.2726
329.833
237.117
169.493
127.661
101.606
83.2064
69.6798
58.9392
56.9311
56.0945
55.4342
54.6654
53.884
52.7521
51.0419
47.4526
41.5927
35.995
30.1316
24.9387
19.6965
15.0996
10.6353
7.58426
4.62974
1.18579
-2.26097
-6.11975
-9.74885
-13.5258
-16.3294
-18.4907
-20.2304
-21.7878
-23.0098
-23.9415
-24.3858
-24.8761
-29.3725
-33.8521
-38.4739
-42.607
-46.8727
-50.4675
-53.6863
-54.5946
-53.3223
-52.0036
-50.5917
-49.3307
-47.832
-46.0351
-44.4634
-49.7289
-55.0412
-60.3605
-64.9608
-69.6018
-73.3696
-76.5467
-76.681
-73.8324
-71.1196
-68.3809
-66.0158
-63.4327
-60.6097
-58.1687
-64.6498
-71.3376
-78.2045
-84.3821
-90.9562
-96.6987
-102.114
-103.3
-100.499
-97.527
-94.3286
-91.14
-87.1834
-81.8535
-76.0047
-82.5056
-84.7585
-83.5376
-94.4025
-84.6303
-51.6633
-25.7789
570.452
243.07
141.571
101.46
83.3174
67.4401
56.1895
35.5203
47.9212
51.2328
52.9348
53.4742
54.5086
54.8722
56.1084
53.153
42.3413
36.7552
28.6441
24.1037
17.2808
13.1828
6.46486
5.82952
4.15056
-0.0180926
-2.88959
-8.05258
-11.3912
-17.3408
-19.667
-21.269
-22.3193
-23.7977
-24.5198
-25.1415
-23.7429
-17.1017
-28.814
-34.0375
-40.5436
-44.3943
-50.7417
-54.6096
-61.5599
-61.9962
-56.1971
-53.8857
-51.1627
-49.6737
-47.1924
-43.01
-29.661
-47.228
-54.3703
-62.2786
-66.7714
-74.0138
-78.3777
-86.3378
-86.0158
-76.6476
-72.7733
-68.2056
-65.7342
-61.8524
-56.1207
-38.5584
-60.9307
-70.0577
-80.3096
-86.4118
-96.7871
-103.607
-117.091
-118.086
-107.841
-103.738
-99.297
-96.6801
-92.65
-83.9677
-56.2462
-92.9227
-96.5071
-72.902
-143.163
-135.704
-41.7727
1.01022
-44.0431
-41.6573
-39.3718
-37.2185
-35.2224
-33.4009
-31.765
-30.3202
-29.0675
-28.0052
-27.1296
-26.4363
-25.9209
-25.5796
-25.4096
-43.9804
-41.5564
-39.2389
-37.0608
-35.0471
-33.2146
-31.5734
-30.1275
-28.8767
-27.818
-26.9468
-26.2579
-25.7463
-25.4078
-25.2393
-43.8503
-41.3482
-38.9658
-36.7381
-34.6899
-32.8367
-31.1859
-29.7391
-28.4932
-27.4428
-26.5813
-25.9019
-25.3983
-25.0655
-24.9
-43.6435
-41.0194
-38.5375
-36.2353
-34.1371
-32.2556
-30.5941
-29.1492
-27.9137
-26.8784
-26.0334
-25.3695
-24.879
-24.5555
-24.3948
-43.3438
-40.5477
-37.9287
-35.5277
-33.3671
-31.4541
-29.785
-28.3495
-27.1337
-26.1231
-25.3037
-24.6635
-24.1922
-23.8823
-23.7286
-42.9259
-39.8983
-37.1014
-34.5791
-32.3489
-30.4082
-28.742
-27.3294
-26.148
-25.176
-24.3946
-23.788
-23.3437
-23.0524
-22.9083
-42.3502
-39.0177
-35.9988
-33.338
-31.0407
-29.0871
-27.4448
-26.0779
-24.9522
-24.038
-23.3103
-22.7498
-22.3416
-22.0751
-21.9435
-41.5531
-37.8228
-34.5374
-31.7328
-29.3884
-27.4543
-25.8717
-24.5847
-23.5447
-22.7128
-22.0586
-21.559
-21.1975
-20.9624
-20.8466
-40.4282
-36.1822
-32.5945
-29.667
-27.3253
-25.4695
-24.0028
-22.8438
-21.9288
-21.2097
-20.6517
-20.2298
-19.9265
-19.7302
-19.6337
-38.7857
-33.8828
-29.9908
-27.0148
-24.7759
-23.095
-21.8257
-20.8588
-20.1165
-19.5452
-19.1085
-18.7816
-18.5482
-18.3977
-18.324
-36.2668
-30.5719
-26.4706
-23.6252
-21.6679
-20.3086
-19.346
-18.6486
-18.1328
-17.7459
-17.455
-17.2395
-17.0866
-16.9883
-16.9402
-32.1494
-25.667
-21.6941
-19.347
-17.9615
-17.1251
-16.6009
-16.2567
-16.0198
-15.8502
-15.7259
-15.6347
-15.57
-15.5284
-15.5079
-24.9123
-18.2519
-15.2915
-14.1068
-13.7057
-13.6293
-13.6753
-13.7571
-13.8392
-13.909
-13.9633
-14.0031
-14.0303
-14.047
-14.055
-11.2905
-7.1366
-7.11296
-8.08291
-9.12478
-10.0109
-10.7139
-11.2568
-11.6708
-11.983
-12.2152
-12.3838
-12.5007
-12.5742
-12.6098
15.6598
8.10905
2.05929
-1.98693
-4.69944
-6.57556
-7.91219
-8.88548
-9.60387
-10.1369
-10.5305
-10.8159
-11.0142
-11.1393
-11.1998
-8.65988
-8.74147
-8.91251
-9.19006
-9.60363
-10.2014
-11.0627
-12.3231
-14.2312
-17.2937
-22.7095
-33.9305
-63.3018
-164.402
-605.436
-14.0132
-14.2114
-14.6257
-15.2951
-16.2873
-17.714
-19.7596
-22.7384
-27.2144
-34.2718
-46.1673
-67.9784
-111.673
-203.692
-374.358
-19.2292
-19.5317
-20.1622
-21.1763
-22.6696
-24.7972
-27.8089
-32.1144
-38.4053
-47.8906
-62.7393
-86.829
-126.486
-188.366
-261.794
-24.2356
-24.6246
-25.4328
-26.7251
-28.6117
-31.2666
-34.9602
-40.1119
-47.3783
-57.785
-72.8942
-94.8693
-125.863
-165.021
-200.221
-28.9722
-29.4268
-30.3675
-31.8616
-34.0205
-37.0152
-41.099
-46.6413
-54.1705
-64.4136
-78.2811
-96.6468
-119.572
-144.422
-163.09
-33.3935
-33.8917
-34.9183
-36.5366
-38.8492
-42.0076
-46.2252
-51.7911
-59.0783
-68.5253
-80.5437
-95.2581
-111.942
-128.116
-138.923
-37.4691
-37.99
-39.0584
-40.7296
-43.0906
-46.2647
-50.4152
-55.7458
-62.4865
-70.8512
-80.9337
-92.5014
-104.667
-115.536
-122.26
-41.1833
-41.7082
-42.7802
-44.4439
-46.7676
-49.8437
-53.786
-58.7212
-64.767
-71.9844
-80.292
-89.3293
-98.2919
-105.835
-110.267
-44.5331
-45.0469
-46.0913
-47.7
-49.9224
-52.8213
-56.4672
-60.9256
-66.2339
-72.3606
-79.1433
-86.2088
-92.9025
-98.2927
-101.351
-47.5263
-48.0172
-49.0107
-50.5301
-52.6074
-55.2802
-58.5841
-62.5398
-67.1325
-72.2813
-77.7982
-83.3464
-88.4181
-92.3702
-94.5576
-50.1789
-50.6385
-51.5652
-52.9728
-54.879
-57.301
-60.2485
-63.7116
-67.645
-71.9463
-76.4312
-80.8147
-84.711
-87.6729
-89.2835
-52.5124
-52.9356
-53.7859
-55.0694
-56.7925
-58.9571
-61.5547
-64.5567
-67.9021
-71.4837
-75.1345
-78.6212
-81.6527
-83.914
-85.1275
-54.552
-54.9364
-55.7059
-56.8609
-58.3993
-60.3126
-62.5803
-65.1633
-67.9951
-70.973
-73.9519
-76.7438
-79.129
-80.8824
-81.8142
-56.3249
-56.6698
-57.3581
-58.3862
-59.746
-61.4219
-63.3869
-65.5972
-67.9865
-70.4615
-72.899
-75.1487
-77.0439
-78.4214
-79.1479
-57.8584
-58.1648
-58.7746
-59.6813
-60.8732
-62.3306
-64.0233
-65.9067
-67.9186
-69.9761
-71.9764
-73.7996
-75.3184
-76.4123
-76.9859
-59.1792
-59.449
-59.9849
-60.7785
-61.8159
-63.0758
-64.5272
-66.1271
-67.8188
-69.5305
-71.1766
-72.6618
-73.8879
-74.7646
-75.2221
-60.3127
-60.5487
-61.0163
-61.7064
-62.6043
-63.6882
-64.928
-66.2839
-67.7051
-69.1303
-70.4887
-71.704
-72.6998
-73.4078
-73.7759
-61.2824
-61.4875
-61.8931
-62.4901
-63.2635
-64.1923
-65.2482
-66.3952
-67.5886
-68.7764
-69.9001
-70.8985
-71.7117
-72.2871
-72.5854
-62.1097
-62.2871
-62.6373
-63.1512
-63.8148
-64.6081
-65.5053
-66.4742
-67.4761
-68.467
-69.3986
-70.2216
-70.8886
-71.3587
-71.6019
-62.814
-62.9666
-63.2677
-63.7085
-64.2759
-64.9517
-65.7126
-66.5302
-67.3713
-68.1987
-68.9726
-69.6529
-70.2021
-70.588
-70.7872
-63.4122
-63.5431
-63.8011
-64.178
-64.6619
-65.2363
-65.8806
-66.57
-67.276
-67.9675
-68.6114
-69.1753
-69.629
-69.9469
-70.1107
-63.9195
-64.0315
-64.2518
-64.5733
-64.985
-65.4723
-66.0172
-66.5982
-67.1909
-67.7692
-68.3059
-68.7743
-69.15
-69.4128
-69.5481
-64.3491
-64.4446
-64.6324
-64.9059
-65.2555
-65.6684
-66.1288
-66.6181
-67.1159
-67.5999
-68.0477
-68.4375
-68.7495
-68.9673
-69.0793
-64.7124
-64.7937
-64.9534
-65.1857
-65.4822
-65.8315
-66.2202
-66.6323
-67.0503
-67.4557
-67.8299
-68.1548
-68.4144
-68.5953
-68.6882
-65.0193
-65.0884
-65.2239
-65.421
-65.672
-65.9674
-66.2954
-66.6423
-66.9935
-67.3333
-67.6462
-67.9174
-68.1338
-68.2844
-68.3617
-65.2783
-65.3369
-65.4518
-65.6187
-65.8312
-66.0807
-66.3573
-66.6494
-66.9445
-67.2295
-67.4915
-67.7182
-67.8988
-68.0244
-68.0888
-65.4966
-65.5462
-65.6436
-65.7849
-65.9645
-66.1753
-66.4085
-66.6544
-66.9025
-67.1417
-67.3613
-67.551
-67.702
-67.8069
-67.8607
-65.6804
-65.7225
-65.8049
-65.9244
-66.0762
-66.2542
-66.4509
-66.658
-66.8666
-67.0676
-67.2518
-67.4107
-67.5371
-67.6249
-67.6699
-65.8351
-65.8707
-65.9404
-66.0415
-66.1698
-66.3201
-66.486
-66.6605
-66.8361
-67.005
-67.1597
-67.2931
-67.3991
-67.4726
-67.5103
-65.965
-65.9952
-66.0542
-66.1397
-66.2482
-66.3751
-66.5151
-66.6623
-66.8102
-66.9524
-67.0825
-67.1945
-67.2835
-67.3452
-67.3768
-66.0741
-66.0996
-66.1496
-66.2219
-66.3137
-66.421
-66.5394
-66.6636
-66.7884
-66.9082
-67.0177
-67.112
-67.1868
-67.2387
-67.2653
-66.1654
-66.187
-66.2294
-66.2907
-66.3685
-66.4593
-66.5594
-66.6645
-66.7699
-66.8711
-66.9635
-67.0431
-67.1061
-67.1498
-67.1722
-66.2417
-66.2601
-66.2961
-66.3481
-66.4141
-66.4912
-66.5761
-66.6651
-66.7544
-66.84
-66.9182
-66.9855
-67.0388
-67.0758
-67.0947
-66.3052
-66.3209
-66.3515
-66.3959
-66.4521
-66.5177
-66.5899
-66.6656
-66.7414
-66.8142
-66.8806
-66.9377
-66.9829
-67.0142
-67.0303
-66.3579
-66.3713
-66.3975
-66.4355
-66.4835
-66.5396
-66.6012
-66.6659
-66.7307
-66.7927
-66.8494
-66.898
-66.9366
-66.9633
-66.977
-66.4013
-66.4128
-66.4354
-66.468
-66.5093
-66.5575
-66.6106
-66.6661
-66.7218
-66.7751
-66.8237
-66.8655
-66.8985
-66.9214
-66.9332
-66.4366
-66.4466
-66.4662
-66.4945
-66.5304
-66.5722
-66.6181
-66.6663
-66.7145
-66.7606
-66.8027
-66.8389
-66.8675
-66.8874
-66.8975
-66.465
-66.4738
-66.491
-66.5158
-66.5472
-66.5839
-66.6242
-66.6664
-66.7086
-66.7491
-66.7859
-66.8176
-66.8426
-66.86
-66.8689
-66.4874
-66.4952
-66.5104
-66.5325
-66.5605
-66.5931
-66.629
-66.6665
-66.704
-66.7399
-66.7727
-66.8008
-66.8231
-66.8385
-66.8464
-66.5042
-66.5113
-66.5252
-66.5452
-66.5705
-66.6001
-66.6325
-66.6665
-66.7005
-66.7331
-66.7627
-66.7882
-66.8083
-66.8222
-66.8294
-66.5162
-66.5228
-66.5356
-66.5542
-66.5777
-66.605
-66.6351
-66.6666
-66.698
-66.7282
-66.7556
-66.7792
-66.7978
-66.8107
-66.8173
-66.5237
-66.5299
-66.5421
-66.5597
-66.5821
-66.6081
-66.6367
-66.6666
-66.6965
-66.7251
-66.7512
-66.7736
-66.7913
-66.8036
-66.8099
-66.5268
-66.5329
-66.5448
-66.5621
-66.5839
-66.6094
-66.6373
-66.6666
-66.6959
-66.7239
-66.7494
-66.7713
-66.7886
-66.8006
-66.8067
-66.5256
-66.5318
-66.5438
-66.5612
-66.5832
-66.6089
-66.6371
-66.6666
-66.6961
-66.7243
-66.7501
-66.7721
-66.7896
-66.8017
-66.8079
-66.5202
-66.5266
-66.5391
-66.5572
-66.58
-66.6067
-66.6359
-66.6666
-66.6972
-66.7265
-66.7533
-66.7762
-66.7943
-66.8069
-66.8133
-66.5104
-66.5172
-66.5305
-66.5498
-66.5742
-66.6026
-66.6339
-66.6666
-66.6993
-66.7306
-66.7591
-66.7836
-66.8029
-66.8163
-66.8232
-66.4958
-66.5032
-66.5178
-66.5389
-66.5655
-66.5966
-66.6308
-66.6665
-66.7023
-66.7365
-66.7677
-66.7945
-66.8157
-66.8303
-66.8378
-66.476
-66.4843
-66.5006
-66.5241
-66.5538
-66.5885
-66.6266
-66.6665
-66.7064
-66.7446
-66.7794
-66.8093
-66.8329
-66.8493
-66.8577
-66.4505
-66.4599
-66.4783
-66.505
-66.5387
-66.578
-66.6212
-66.6664
-66.7117
-66.755
-66.7945
-66.8284
-66.8553
-66.8739
-66.8834
-66.4184
-66.4293
-66.4504
-66.481
-66.5196
-66.5647
-66.6144
-66.6663
-66.7183
-66.7681
-66.8135
-66.8525
-66.8833
-66.9047
-66.9156
-66.3789
-66.3914
-66.4159
-66.4513
-66.4961
-66.5484
-66.6059
-66.6661
-66.7264
-66.7842
-66.8369
-66.8821
-66.918
-66.9428
-66.9555
-66.3307
-66.3452
-66.3738
-66.4151
-66.4674
-66.5284
-66.5956
-66.6659
-66.7364
-66.8039
-66.8655
-66.9184
-66.9603
-66.9893
-67.0041
-66.2723
-66.2894
-66.3229
-66.3713
-66.4326
-66.5043
-66.583
-66.6656
-66.7484
-66.8277
-66.9
-66.9622
-67.0115
-67.0456
-67.0631
-66.202
-66.2222
-66.2616
-66.3186
-66.3908
-66.4751
-66.5679
-66.6652
-66.7627
-66.8563
-66.9417
-67.0151
-67.0733
-67.1136
-67.1342
-66.1178
-66.1416
-66.188
-66.2553
-66.3404
-66.44
-66.5496
-66.6646
-66.7799
-66.8905
-66.9916
-67.0785
-67.1474
-67.1952
-67.2196
-66.0172
-66.0452
-66.1
-66.1795
-66.2802
-66.3979
-66.5276
-66.6637
-66.8003
-66.9315
-67.0513
-67.1545
-67.2363
-67.293
-67.322
-65.897
-65.9301
-65.995
-66.089
-66.2081
-66.3475
-66.5011
-66.6625
-66.8246
-66.9803
-67.1226
-67.2452
-67.3425
-67.41
-67.4445
-65.7539
-65.7931
-65.8698
-65.981
-66.122
-66.2871
-66.4693
-66.6608
-66.8533
-67.0383
-67.2077
-67.3536
-67.4695
-67.5498
-67.591
-65.5836
-65.6299
-65.7207
-65.8522
-66.0193
-66.2149
-66.431
-66.6583
-66.8871
-67.1073
-67.3089
-67.4829
-67.621
-67.7169
-67.7661
-65.3812
-65.4359
-65.5432
-65.6989
-65.8966
-66.1285
-66.3848
-66.6549
-66.927
-67.1891
-67.4294
-67.6369
-67.8019
-67.9165
-67.9752
-65.1407
-65.2054
-65.3322
-65.5162
-65.7503
-66.0251
-66.3292
-66.65
-66.9737
-67.286
-67.5727
-67.8206
-68.0178
-68.1549
-68.2252
-64.8554
-64.9317
-65.0814
-65.2989
-65.5758
-65.9012
-66.262
-66.6432
-67.0284
-67.4007
-67.743
-68.0393
-68.2754
-68.4397
-68.5239
-64.5171
-64.607
-64.7836
-65.0404
-65.3676
-65.7528
-66.1806
-66.6335
-67.0921
-67.5361
-67.9452
-68.2999
-68.5829
-68.78
-68.8812
-64.1164
-64.2222
-64.4301
-64.7328
-65.1192
-65.5748
-66.0819
-66.6199
-67.1659
-67.6958
-68.1851
-68.6102
-68.95
-69.1869
-69.3086
-63.6421
-63.7665
-64.0109
-64.3672
-64.8228
-65.3611
-65.9617
-66.6006
-67.2509
-67.8837
-68.4696
-68.9799
-69.3885
-69.6739
-69.8206
-63.0816
-63.2273
-63.5141
-63.9326
-64.4689
-65.1042
-65.815
-66.5734
-67.348
-68.1043
-68.8066
-69.4201
-69.9125
-70.2571
-70.4344
-62.42
-62.5903
-62.9257
-63.4163
-64.0463
-64.7948
-65.6351
-66.5351
-67.4578
-68.3622
-69.2054
-69.9443
-70.5392
-70.9563
-71.1714
-61.6402
-61.8385
-62.2298
-62.8031
-63.5414
-64.4216
-65.4138
-66.481
-67.5802
-68.6627
-69.6764
-70.5685
-71.2892
-71.796
-72.0576
-60.7226
-60.9528
-61.4075
-62.0753
-62.9381
-63.9708
-65.1403
-66.4048
-67.7142
-69.011
-70.2319
-71.3117
-72.1877
-72.8058
-73.1255
-59.6453
-59.9112
-60.4373
-61.212
-62.2168
-63.4251
-64.8007
-66.2973
-67.8571
-69.412
-70.8854
-72.1964
-73.2654
-74.0226
-74.4154
-58.3834
-58.6889
-59.2945
-60.1891
-61.3544
-62.7631
-64.3773
-66.1458
-68.0033
-69.8695
-71.6517
-73.2489
-74.5596
-75.4925
-75.9779
-56.9095
-57.2582
-57.951
-58.9782
-60.3228
-61.9586
-63.8467
-65.9327
-68.1433
-70.3854
-72.5465
-74.5004
-76.1161
-77.2731
-77.8774
-55.1936
-55.5886
-56.3755
-57.5469
-59.0891
-60.9788
-63.1788
-65.6329
-68.2615
-70.9574
-73.5852
-75.9865
-77.9912
-79.4374
-80.1965
-53.2035
-53.647
-54.533
-55.8582
-57.6143
-59.7837
-62.3343
-65.212
-68.333
-71.5765
-74.7812
-77.748
-80.2539
-82.0788
-83.0425
-50.9054
-51.3982
-52.3857
-53.8704
-55.8524
-58.3239
-61.2628
-64.6222
-68.3194
-72.2226
-76.1423
-79.8294
-82.9894
-85.3182
-86.5577
-48.2653
-48.806
-49.8932
-51.5375
-53.7505
-56.5396
-59.8992
-63.798
-68.1625
-72.8572
-77.6649
-82.2767
-86.3019
-89.3138
-90.9335
-45.25
-45.8343
-47.014
-48.8098
-51.2487
-54.3593
-58.1612
-62.6503
-67.7765
-73.4133
-79.3236
-85.1311
-90.3179
-94.2761
-96.4338
-41.829
-42.4495
-43.7073
-45.6354
-48.2807
-51.699
-55.946
-61.0603
-67.0358
-73.7793
-81.0535
-88.4165
-95.187
-100.488
-103.432
-37.9774
-38.6222
-39.9352
-41.9633
-44.7761
-48.4634
-53.1285
-58.8722
-65.7618
-73.7766
-82.7215
-92.1132
-101.076
-108.338
-112.475
-33.6782
-34.3311
-35.6668
-37.7464
-40.6643
-44.549
-49.5622
-55.8883
-63.7064
-73.1281
-84.079
-96.1077
-108.146
-118.356
-124.39
-28.926
-29.5661
-30.882
-32.9477
-35.8812
-39.8511
-45.0843
-51.8684
-60.5374
-71.4176
-84.688
-100.095
-116.484
-131.275
-140.496
-23.7296
-24.3321
-25.5767
-27.5468
-30.3787
-34.2762
-39.5296
-46.5395
-55.8329
-68.0471
-83.8127
-103.402
-125.932
-148.06
-163.004
-18.1152
-18.6527
-19.7679
-21.5476
-24.1366
-27.7598
-32.7554
-39.6251
-49.1003
-62.2102
-80.2824
-104.665
-135.659
-169.834
-195.889
-12.128
-12.5723
-13.4982
-14.9867
-17.1767
-20.2906
-24.68
-30.9014
-39.8437
-52.9275
-72.3699
-101.336
-143.176
-197.247
-246.866
-5.83277
-6.15797
-6.83828
-7.93923
-9.57541
-11.9361
-15.3327
-20.2886
-27.7113
-39.2292
-57.8436
-89.0676
-142.197
-227.751
-332.299
0.687792
0.50245
0.113299
-0.520506
-1.47151
-2.86251
-4.90295
-7.96326
-12.7353
-20.6033
-34.5608
-61.5864
-118.702
-245.062
-490.333
7.33649
7.30384
7.23423
7.11797
6.93742
6.66153
6.23449
5.55021
4.39002
2.25089
-2.20322
-13.2095
-47.1186
-179.796
-818.69
14.0072
14.1303
14.3869
14.8005
15.412
16.2899
17.5499
19.3934
22.1944
26.712
34.7039
51.0718
93.0536
237.009
887.702
20.5919
20.8633
21.4301
22.345
23.7008
25.6524
28.4593
32.5708
38.8058
48.7595
65.7935
97.5646
162.409
301.911
567.56
26.9873
27.3904
28.2307
29.5826
31.5752
34.42
38.4618
44.2726
52.8335
65.8893
86.6482
121.089
179.915
279.208
431.914
50.7941
20.7082
8.6306
2.3785
-1.40949
-3.92091
-5.67691
-6.94525
-7.879
-8.57213
-9.08519
-9.45834
-9.7184
-9.88298
-9.96275
32.1068
19.656
10.5589
4.63588
0.694877
-2.03215
-3.98342
-5.41369
-6.47794
-7.2746
-7.86836
-8.30263
-8.60664
-8.79966
-8.89339
22.0656
16.2745
10.283
5.51677
1.95621
-0.682101
-2.65167
-4.13625
-5.26263
-6.1179
-6.7622
-7.23727
-7.57185
-7.78517
-7.88902
16.0458
13.032
9.15593
5.56037
2.57705
0.203561
-1.65671
-3.1075
-4.23554
-5.10763
-5.77348
-6.26938
-6.6212
-6.84662
-6.95668
12.1186
10.3883
7.83398
5.17872
2.77438
0.732817
-0.946089
-2.30285
-3.38614
-4.24051
-4.90272
-5.40149
-5.75823
-5.98809
-6.10068
9.39298
8.31655
6.58205
4.62277
2.71975
1.01022
-0.45917
-1.68807
-2.69568
-3.50679
-4.14541
-4.63215
-4.98332
-5.21093
-5.3228
7.41474
6.70174
5.48613
4.02769
2.53071
1.12084
-0.139249
-1.22697
-2.14163
-2.8928
-3.49354
-3.95689
-4.29415
-4.51407
-4.62255
5.93155
5.43588
4.55878
3.45933
2.28115
1.12743
0.0609713
-0.886016
-1.70111
-2.38325
-2.93702
-3.36916
-3.68643
-3.89455
-3.99757
4.79251
4.43485
3.78577
2.9456
2.01458
1.07342
0.178221
-0.636649
-1.35289
-1.96281
-2.46495
-2.86114
-3.15445
-3.34797
-3.44409
3.9018
3.63613
3.14542
2.49493
1.75501
0.987481
0.239684
-0.455764
-1.0785
-1.61718
-2.06643
-2.42454
-2.69174
-2.86899
-2.95731
3.19552
2.99365
2.616
2.10633
1.51461
0.887823
0.26479
-0.325366
-0.862483
-1.33363
-1.73117
-2.05106
-2.29145
-2.45173
-2.53184
2.6294
2.4732
2.17824
1.77467
1.29853
0.78555
0.267061
-0.231797
-0.692265
-1.10118
-1.44982
-1.73275
-1.94676
-2.09012
-2.16197
2.17171
2.04909
1.81587
1.49339
1.10803
0.687089
0.255698
-0.164884
-0.557838
-0.910571
-1.21409
-1.46227
-1.65111
-1.77814
-1.84197
1.79915
1.70174
1.51547
1.25576
0.942227
0.595875
0.236825
-0.117156
-0.451338
-0.754125
-1.01678
-1.23299
-1.39837
-1.51003
-1.56627
1.49421
1.41609