/*--------------------------------*- C++ -*----------------------------------*\
| =========                 |                                                 |
| \\      /  F ield         | OpenFOAM: The Open Source CFD Toolbox           |
|  \\    /   O peration     | Version:  5.x                                   |
|   \\  /    A nd           | Web:      www.OpenFOAM.org                      |
|    \\/     M anipulation  |                                                 |
\*---------------------------------------------------------------------------*/
FoamFile
{
    version     2.0;
    format      ascii;
    class       volScalarField;
    location    "18.3";
    object      gradTy;
}
// * * * * * * * * * * * * * * * * * * * * * * * * * * * * * * * * * * * * * //

dimensions      [0 -1 0 1 0 0 0];

internalField   nonuniform List<scalar> 
6300
(
994.146
982.553
971.306
960.633
950.752
941.873
934.188
927.869
923.06
919.869
918.361
918.552
920.403
923.821
928.66
-0.173749
-0.519323
-0.8589
-1.18775
-1.50007
-1.78873
-2.04511
-2.2592
-2.4201
-2.51688
-2.53995
-2.48281
-2.34382
-2.12764
-1.84568
-0.291729
-0.872227
-1.44346
-1.99797
-2.52645
-3.01713
-3.45551
-3.82442
-4.10468
-4.27656
-4.3222
-4.22875
-3.99192
-3.61897
-3.12993
-0.412661
-1.23439
-2.04474
-2.83424
-3.59061
-4.29781
-4.93539
-5.4783
-5.89764
-6.1625
-6.24354
-6.11806
-5.77615
-5.22641
-4.499
-0.537189
-1.60791
-2.66686
-3.70363
-4.70392
-5.64809
-6.50989
-7.25574
-7.84502
-8.23221
-8.37137
-8.22377
-7.76815
-7.01145
-5.99596
-0.665383
-1.99319
-3.31116
-4.60948
-5.87334
-7.08073
-8.20034
-9.18971
-9.9945
-10.5499
-10.7859
-10.6375
-10.0612
-9.0553
-7.67591
-0.796528
-2.3883
-3.97509
-5.54977
-7.09919
-8.60113
-10.021
-11.3082
-12.3933
-13.1871
-13.5849
-13.479
-12.7839
-11.4725
-9.614
-0.928956
-2.78837
-4.6511
-6.51531
-8.37247
-10.2036
-11.9743
-13.6288
-15.0833
-16.2202
-16.8873
-16.9097
-16.1227
-14.4369
-11.9213
-1.05988
-3.1851
-5.32563
-7.48788
-9.67177
-11.8664
-14.0436
-16.1493
-18.0908
-19.7229
-20.8346
-21.1495
-20.3605
-18.2308
-14.7773
-1.18534
-3.56652
-5.97841
-8.43877
-10.9603
-13.5465
-16.1845
-18.8339
-21.4077
-23.7458
-25.5786
-26.4933
-25.9386
-23.3485
-18.505
-1.30032
-3.9172
-6.58269
-9.32845
-12.1842
-15.1747
-18.3141
-21.5938
-24.9603
-28.274
-31.2404
-33.3064
-33.5522
-30.7196
-23.7781
-1.39903
-4.21926
-7.10668
-10.1081
-13.2731
-16.6539
-20.3032
-24.2669
-28.5654
-33.1494
-37.8024
-41.9397
-44.2439
-42.1995
-32.2877
-1.47555
-4.45411
-7.5166
-10.7242
-14.1463
-17.8646
-21.9778
-26.6051
-31.8849
-37.9556
-44.88
-52.4057
-59.2843
-61.5468
-49.2881
-1.52459
-4.60502
-7.7814
-11.1257
-14.723
-18.6803
-23.1383
-28.2906
-34.4133
-41.908
-51.3559
-63.5186
-78.9405
-95.4149
-94.7775
-1.5424
-4.65993
-7.87828
-11.274
-14.9398
-18.9952
-23.6042
-29.0057
-35.5693
-43.9071
-55.1168
-71.3719
-97.5438
-146.394
-258.11
934.225
939.996
946.342
953.121
960.192
967.421
974.686
981.874
988.889
995.645
1002.07
1008.11
1013.71
1018.83
1023.44
1027.52
1031.05
1034.02
1036.4
1038.21
1039.43
1040.07
1040.12
1039.58
1038.47
1036.78
1034.53
1031.71
1028.34
1024.43
1019.98
1015
1009.5
1003.49
996.98
989.974
982.479
974.504
966.056
957.142
947.77
937.948
927.684
916.987
905.865
894.327
882.381
870.037
857.302
844.182
830.685
816.817
802.584
787.993
773.049
757.76
742.135
726.182
709.913
693.338
676.47
659.322
641.909
624.245
606.344
588.224
569.9
551.393
532.721
513.91
494.984
475.974
456.914
437.842
418.798
399.827
380.976
362.294
343.831
325.638
307.764
290.256
273.161
256.519
240.369
224.745
209.672
195.171
181.256
167.932
-1.54278
-1.24704
-0.943378
-0.643446
-0.357086
-0.09176
0.147637
0.358616
0.540707
0.694967
0.823474
0.92888
1.01405
1.08183
1.13482
1.17538
1.20551
1.22691
1.24101
1.24896
1.25172
1.25009
1.24471
1.23614
1.22488
1.21136
1.19602
1.17927
1.16155
1.14326
1.1248
1.10649
1.0886
1.07129
1.0546
1.03843
1.02261
1.00686
0.990909
0.974499
0.957457
0.939735
0.921425
0.902759
0.884072
0.86575
0.848165
0.831597
0.816178
0.801846
0.788338
0.775203
0.761861
0.747671
0.732027
0.71443
0.694561
0.672307
0.647752
0.621136
0.592765
0.562918
0.531742
0.499156
0.4648
0.428014
0.387873
0.343271
0.293038
0.236085
0.171551
0.0989233
0.0181297
-0.0704258
-0.165875
-0.266945
-0.372049
-0.479394
-0.587082
-0.693186
-0.795803
-0.893066
-0.98314
-1.0642
-1.13446
-1.19219
-1.23583
-1.26413
-1.27629
-1.27214
-2.60391
-2.09112
-1.56646
-1.05086
-0.56168
-0.111635
0.291363
0.643775
0.945603
1.19941
1.40937
1.58048
1.71792
1.82668
1.91127
1.97564
2.02314
2.05655
2.07817
2.08989
2.09323
2.08946
2.0796
2.06454
2.04505
2.02183
1.99558
1.967
1.93681
1.90571
1.87439
1.84347
1.81341
1.7845
1.75681
1.73016
1.7042
1.67841
1.65223
1.62515
1.59683
1.56714
1.53626
1.50462
1.47286
1.44174
1.41198
1.38416
1.35856
1.3351
1.3133
1.29234
1.27111
1.24844
1.22315
1.19433
1.1614
1.12418
1.08288
1.03803
0.990309
0.94034
0.888509
0.834779
0.778573
0.718736
0.653599
0.581123
0.499133
0.405583
0.298838
0.177907
0.0426062
-0.10637
-0.267482
-0.438462
-0.616496
-0.798436
-0.98099
-1.16087
-1.33489
-1.49993
-1.65296
-1.79093
-1.91078
-2.00948
-2.0842
-2.13262
-2.15319
-2.14551
-3.7149
-2.95239
-2.17657
-1.42035
-0.710028
-0.0638807
0.507806
1.00164
1.41951
1.76684
2.05106
2.28039
2.46293
2.60617
2.71668
2.80003
2.86087
2.90298
2.92942
2.9427
2.94481
2.9374
2.9218
2.89914
2.87039
2.83648
2.79832
2.75688
2.71318
2.66828
2.62324
2.57902
2.53638
2.49578
2.45732
2.42073
2.38537
2.35035
2.31467
2.27743
2.23799
2.1961
2.15202
2.10647
2.06056
2.01559
1.97285
1.93337
1.89771
1.8658
1.83691
1.80969
1.78232
1.75281
1.71922
1.68003
1.63429
1.58178
1.52299
1.45895
1.39096
1.32032
1.2479
1.17386
1.09746
1.01699
0.92979
0.83258
0.721781
0.593995
0.446471
0.277504
0.0867004
-0.124911
-0.354946
-0.599881
-0.855377
-1.11665
-1.37879
-1.63706
-1.88693
-2.12413
-2.34449
-2.54378
-2.71758
-2.86131
-2.97048
-3.04121
-3.07081
-3.05841
-4.89736
-3.8327
-2.75836
-1.72362
-0.765833
0.0912352
0.836498
1.46905
1.99513
2.42528
2.77195
3.04781
3.26468
3.43293
3.56132
3.657
3.72573
3.77211
3.7998
3.81173
3.81027
3.79729
3.77434
3.74266
3.70334
3.65742
3.60596
3.55018
3.49143
3.43122
3.37108
3.31247
3.25657
3.20413
3.15533
3.10971
3.06622
3.02339
2.97953
2.93305
2.88283
2.82839
2.77007
2.70902
2.64707
2.58639
2.52919
2.47725
2.43161
2.39231
2.35827
2.32739
2.29677
2.26318
2.22351
2.17528
2.11705
2.04857
1.9708
1.88565
1.79558
1.703
1.60972
1.51644
1.42235
1.32502
1.22051
1.10371
0.968988
0.810924
0.625076
0.408635
0.160847
-0.116834
-0.42087
-0.746011
-1.08586
-1.43352
-1.78212
-2.12526
-2.45714
-2.7725
-3.0663
-3.33328
-3.56763
-3.76284
-3.91206
-4.00896
-4.04888
-4.03002
-6.17477
-4.72695
-3.28312
-1.91604
-0.676578
0.407396
1.32755
2.08982
2.70896
3.20399
3.59485
3.90023
4.13648
4.31715
4.45311
4.55283
4.62284
4.66821
4.69292
4.70013
4.69236
4.67163
4.63952
4.59726
4.54588
4.48639
4.41992
4.34784
4.27189
4.19413
4.1168
4.04209
3.97188
3.90735
3.84885
3.79569
3.74622
3.69801
3.64823
3.59417
3.53384
3.46634
3.39212
3.31297
3.23183
3.15229
3.07803
3.01213
2.95648
2.91134
2.87518
2.84478
2.81559
2.7824
2.7402
2.68503
2.61465
2.52882
2.42931
2.31955
2.20388
2.08675
1.97163
1.86026
1.75197
1.64348
1.52898
1.40071
1.24988
1.06793
0.847806
0.584977
0.278109
-0.0707394
-0.456332
-0.87089
-1.30505
-1.74896
-2.19324
-2.6296
-3.05109
-3.45188
-3.82666
-4.16972
-4.47399
-4.73054
-4.92895
-5.05871
-5.11154
-5.0838
-7.57179
-5.61537
-3.69722
-1.92459
-0.363258
0.959639
2.04619
2.91694
3.60176
4.13299
4.54111
4.85249
5.08858
5.26605
5.39738
5.49172
5.55573
5.59438
5.61156
5.6104
5.59344
5.56269
5.51964
5.46531
5.40045
5.32578
5.24228
5.15142
5.05532
4.95678
4.85909
4.76562
4.67934
4.60225
4.53502
4.47671
4.42478
4.37526
4.32343
4.26468
4.19554
4.11434
4.02162
3.92015
3.81462
3.71091
3.61517
3.53261
3.46655
3.41775
3.38412
3.36075
3.34049
3.31491
3.27587
3.217
3.13478
3.02904
2.90289
2.76221
2.61458
2.46785
2.32842
2.1999
2.08214
1.97082
1.85752
1.73042
1.57581
1.38013
1.13223
0.824938
0.456023
0.0284603
-0.449894
-0.967357
-1.51002
-2.06371
-2.6156
-3.1552
-3.67469
-4.16857
-4.63256
-5.06188
-5.44895
-5.78186
-6.04457
-6.21912
-6.29015
-6.25019
-9.11254
-6.44859
-3.90169
-1.62878
0.29349
1.85235
3.07572
4.01202
4.71596
5.2395
5.62695
5.91345
6.1254
6.28167
6.39521
6.47459
6.52544
6.5518
6.55694
6.54374
6.51471
6.47182
6.41636
6.34889
6.2695
6.17825
6.07561
5.96291
5.84263
5.71859
5.59567
5.47919
5.37395
5.28335
5.20872
5.14896
5.10023
5.05623
5.00897
4.95055
4.87498
4.77929
4.6641
4.53358
4.39516
4.25845
4.13372
4.02969
3.95213
3.90269
3.87862
3.87262
3.87339
3.86716
3.84042
3.78292
3.68912
3.55898
3.3977
3.21519
3.02432
2.83874
2.66978
2.52433
2.40333
2.30131
2.20618
2.10003
1.96112
1.76778
1.50243
1.15387
0.718617
0.201025
-0.386919
-1.02732
-1.69889
-2.38085
-3.05544
-3.70958
-4.335
-4.92811
-5.48822
-6.0147
-6.50175
-6.93414
-7.28698
-7.52849
-7.62845
-7.57141
-10.8123
-7.11325
-3.7116
-0.82812
1.47342
3.22799
4.51852
5.44159
6.08987
6.54196
6.8581
7.08177
7.24235
7.35882
7.44224
7.49853
7.53039
7.53977
7.52872
7.49988
7.45592
7.39905
7.33039
7.24964
7.15564
7.04715
6.92346
6.78534
6.63539
6.47884
6.32299
6.17662
6.0475
5.94148
5.86106
5.80537
5.76893
5.74194
5.71064
5.66114
5.58345
5.47239
5.32872
5.15842
4.97329
4.78881
4.6225
4.48874
4.39727
4.35114
4.3472
4.37478
4.41646
4.44898
4.44934
4.40117
4.29584
4.1338
3.92316
3.68027
3.42648
3.18578
2.97737
2.81363
2.69724
2.62196
2.57076
2.51687
2.42489
2.25918
1.9925
1.60768
1.09984
0.474953
-0.248342
-1.04234
-1.87271
-2.70854
-3.52464
-4.3052
-5.04176
-5.73506
-6.39219
-7.02421
-7.63318
-8.20085
-8.6896
-9.04159
-9.19273
-9.11029
-12.6485
-7.3497
-2.77552
0.810323
3.4406
5.27131
6.48983
7.26621
7.74564
8.03955
8.22177
8.34034
8.42219
8.48296
8.5277
8.55701
8.56708
8.55647
8.52547
8.4771
8.41504
8.34257
8.2611
8.16879
8.06196
7.93721
7.79138
7.6241
7.43697
7.23738
7.03595
6.84852
6.68711
6.56204
6.47712
6.43335
6.42333
6.43317
6.43785
6.41167
6.33931
6.21177
6.03102
5.80396
5.54986
5.29236
5.0638
4.88627
4.77655
4.73825
4.76982
4.85605
4.97217
5.07655
5.1276
5.10121
4.98368
4.77811
4.49454
4.16056
3.8093
3.48584
3.22017
3.03432
2.93152
2.90754
2.93882
2.98817
2.99445
2.89563
2.65235
2.23833
1.64927
0.89028
-0.0082476
-1.00524
-2.0389
-3.06488
-4.04519
-4.96435
-5.81094
-6.59421
-7.33242
-8.06695
-8.82412
-9.5812
-10.2892
-10.8439
-11.0933
-10.9673
-14.4484
-6.54302
-0.416541
3.82457
6.55887
8.19569
9.09718
9.51769
9.66777
9.69714
9.67627
9.65091
9.63152
9.6293
9.63451
9.64229
9.63264
9.6016
9.5463
9.4731
9.38819
9.29807
9.20645
9.10787
8.9931
8.85661
8.68923
8.49042
8.25548
7.9976
7.72774
7.48195
7.27339
7.12378
7.03294
7.01175
7.04813
7.13087
7.20849
7.22773
7.17367
7.02682
6.79907
6.4875
6.13041
5.75333
5.4307
5.18527
5.0521
5.02388
5.11289
5.29344
5.54398
5.78007
5.91659
5.93171
5.79752
5.53397
5.13778
4.66498
4.15139
3.70202
3.34735
3.13475
3.05168
3.11292
3.28026
3.52091
3.7148
3.73955
3.55752
3.12051
2.44292
1.50607
0.373201
-0.915774
-2.21654
-3.48731
-4.65413
-5.72829
-6.67156
-7.51844
-8.27814
-9.07726
-10.0153
-11.0324
-12.1095
-13.0858
-13.5347
-13.3144
-15.4186
-3.17511
4.6569
9.00853
11.2577
12.1794
12.3977
12.1592
11.7642
11.4277
11.1378
10.9535
10.8167
10.7655
10.7382
10.7533
10.7297
10.6823
10.5936
10.4867
10.3696
10.2565
10.1626
10.0711
9.95628
9.82132
9.63314
9.40959
9.10784
8.7759
8.3857
8.06262
7.77563
7.60175
7.4893
7.5081
7.60703
7.83678
8.06406
8.15016
8.14247
7.95923
7.68866
7.23745
6.74057
6.13673
5.68729
5.32344
5.17732
5.14151
5.32491
5.63081
6.13736
6.62771
6.88112
6.97795
6.79835
6.48156
5.89206
5.22886
4.4017
3.7825
3.27061
3.04932
2.96463
3.16614
3.5167
4.12154
4.67925
4.88175
4.83038
4.34963
3.61043
2.40465
0.979944
-0.808817
-2.43688
-4.05896
-5.39606
-6.68026
-7.67057
-8.56781
-9.16674
-9.88719
-11.0923
-12.3967
-14.0746
-16.087
-16.9392
-16.4629
-11.9362
6.54547
14.7418
17.2194
17.8678
17.1757
16.3557
15.0256
13.7764
13.0908
12.4471
12.1874
11.8786
11.8672
11.7807
11.92
11.8606
11.8226
11.6669
11.5147
11.345
11.1872
11.115
11.0676
10.9484
10.8625
10.6278
10.4412
10.0035
9.63797
8.94686
8.5912
8.11489
7.99113
7.75655
7.88895
7.97743
8.54616
9.12283
9.20756
9.36394
9.01732
8.83826
8.05308
7.50469
6.29771
5.82055
5.14803
5.14365
4.94344
5.36046
5.6792
6.75403
7.81647
8.07109
8.4222
7.99667
7.8218
6.7524
6.02882
4.35251
3.70843
2.77541
2.76719
2.46545
3.00471
3.38696
4.79002
6.15517
6.3895
6.72153
5.9509
5.44981
3.61848
2.11093
-0.933239
-2.66582
-5.04091
-6.21408
-8.05536
-8.80349
-10.0467
-9.88023
-9.99903
-12.0264
-13.2228
-15.5579
-20.7589
-22.2565
-20.9931
13.8299
31.077
33.0619
28.0642
26.4078
22.3556
21.0475
17.775
14.9767
14.693
13.2028
13.4916
12.5116
13.0765
12.4976
13.3722
12.9601
13.1316
12.7347
12.5672
12.303
11.9938
12.0313
12.1669
11.8919
12.1173
11.5527
11.8339
10.7948
10.9682
9.02439
9.29291
7.94587
8.5395
7.49475
8.33248
7.65568
9.24349
10.8894
10.1612
11.3092
9.83353
10.8601
8.5272
9.21661
5.40721
6.23461
4.00998
5.39147
3.85609
5.53703
4.63834
7.38806
10.168
9.12161
10.9843
8.83359
10.4497
7.11429
8.20031
2.81649
4.05004
0.94809
2.90735
0.754868
3.06904
1.78692
5.51275
9.25911
7.75623
10.2002
7.1637
9.2044
4.36579
5.45439
-2.94661
-1.96972
-7.75383
-6.07018
-11.0047
-9.22367
-13.5554
-10.183
-7.3626
-14.157
-12.4093
-12.9144
-30.7633
-31.5498
-27.9835
156.936
77.5854
61.4366
34.0971
38.3974
23.584
28.5681
19.8416
12.556
18.0327
11.3971
16.6229
10.9201
15.9329
11.1214
16.6776
13.2192
15.2594
13.4725
13.7589
13.326
12.3013
12.8067
13.8577
12.1151
14.5099
11.2601
15.1279
9.84031
15.3476
5.9164
12.3213
4.98259
11.4474
4.52246
10.9572
4.07319
9.8574
16.0752
8.41329
17.0327
7.04684
17.7198
4.64951
17.4071
-2.15995
11.0439
-2.32055
9.83989
-1.86244
9.42858
-1.65589
7.97882
18.0298
5.98325
19.3261
4.2465
20.208
1.10961
19.6886
-8.24822
10.6351
-8.16707
8.96872
-7.38741
8.31229
-7.0243
6.20612
19.9221
3.43971
21.5708
1.06556
22.8653
-3.42189
22.4631
-18.4639
8.46245
-21.22
3.60414
-23.6242
-0.841218
-28.1577
-9.69079
9.11938
-28.5881
-8.35133
14.7044
-65.3373
-47.1104
-39.6892
153.924
139.477
125.834
112.952
100.78
89.259
78.326
67.9155
57.9614
48.3982
39.1616
30.1892
21.42
12.7948
4.25542
-1.25012
-1.20507
-1.14203
-1.06471
-0.977034
-0.882661
-0.784748
-0.68578
-0.587536
-0.491144
-0.397166
-0.305711
-0.216538
-0.129161
-0.0429236
-2.10686
-2.0284
-1.91921
-1.78603
-1.63583
-1.47504
-1.3091
-1.14217
-0.977181
-0.8159
-0.659147
-0.506985
-0.358906
-0.214004
-0.0711067
-2.99988
-2.88245
-2.72038
-2.52437
-2.30519
-2.07257
-1.83442
-1.59662
-1.36311
-1.13612
-0.916534
-0.704171
-0.498095
-0.296841
-0.0986049
-3.94646
-3.7811
-3.55548
-3.28583
-2.98798
-2.67562
-2.35937
-2.04677
-1.74249
-1.44893
-1.16669
-0.895063
-0.632456
-0.376656
-0.125076
-4.96719
-4.73997
-4.43457
-4.07544
-3.68527
-3.28251
-2.88067
-2.48856
-2.11115
-1.75041
-1.40621
-1.07693
-0.760004
-0.452248
-0.150118
-6.08788
-5.77695
-5.36734
-4.89606
-4.39509
-3.88846
-3.3922
-2.91565
-2.4631
-2.03533
-1.63079
-1.24643
-0.878375
-0.522209
-0.173263
-7.34233
-6.91253
-6.36168
-5.74632
-5.11053
-4.48399
-3.88398
-3.31869
-2.79026
-2.29702
-1.83515
-1.39963
-0.984845
-0.584946
-0.193988
-8.77657
-8.16905
-7.42047
-6.61692
-5.81667
-5.05294
-4.34099
-3.68486
-3.08218
-2.52732
-2.01316
-1.53207
-1.07642
-0.638735
-0.21173
-10.4542
-9.56657
-8.53414
-7.48413
-6.48622
-5.57004
-4.74214
-3.99753
-3.32626
-2.7169
-2.15806
-1.63906
-1.15002
-0.681836
-0.225927
-12.4597
-11.1088
-9.66534
-8.29918
-7.07398
-5.99879
-5.05996
-4.23681
-3.50841
-2.85592
-2.2631
-1.71605
-1.20277
-0.712652
-0.236067
-14.8835
-12.7436
-10.7191
-8.97321
-7.51164
-6.29114
-5.26204
-4.38129
-3.6146
-2.93525
-2.32236
-1.75927
-1.23233
-0.72993
-0.241755
-17.7238
-14.263
-11.494
-9.36283
-7.70817
-6.39201
-5.31571
-4.41168
-3.63341
-2.94809
-2.33177
-1.76632
-1.23735
-0.732969
-0.242776
-20.4584
-15.0905
-11.631
-9.27581
-7.56613
-6.25295
-5.19704
-4.31627
-3.55925
-2.89189
-2.29031
-1.73686
-1.21778
-0.721809
-0.239152
-20.3514
-14.0093
-10.6637
-8.54318
-7.0275
-5.85655
-4.90318
-4.09707
-3.39538
-2.76988
-2.20069
-1.673
-1.1751
-0.697324
-0.231172
-1.53123
-4.62555
-7.81803
-11.1833
-14.8115
-18.8192
-23.3668
-28.688
-35.1467
-43.35
-54.402
-70.5275
-96.7887
-146.291
-257.121
-1.49667
-4.51909
-7.63089
-10.8992
-14.4038
-18.2452
-22.5571
-27.5254
-33.4197
-40.6439
-49.8079
-61.7686
-77.2523
-93.7965
-87.5751
-1.44192
-4.35055
-7.33503
-10.451
-13.7621
-17.3445
-21.2916
-25.7196
-30.7691
-36.5907
-43.2715
-50.5627
-56.979
-57.1112
-35.3411
-1.36994
-4.12932
-6.94785
-9.86719
-12.932
-16.1903
-19.692
-23.4821
-27.5822
-31.9406
-36.311
-39.9644
-41.0689
-35.6354
-17.0738
-1.28442
-3.86699
-6.49065
-9.18234
-11.9675
-14.8671
-17.892
-21.0294
-24.2157
-27.2821
-29.8485
-31.1361
-29.6992
-23.2761
-9.63009
-1.18936
-3.5761
-5.98618
-8.43258
-10.9233
-13.4569
-16.0139
-18.5425
-20.9323
-22.9705
-24.2737
-24.1997
-21.7922
-15.9326
-6.08506
-1.08874
-3.26899
-5.45646
-7.652
-9.84944
-12.0303
-14.1554
-16.152
-17.8931
-19.1694
-19.655
-18.8837
-16.2824
-11.3584
-4.15288
-0.986181
-2.95685
-4.92111
-6.87008
-8.78703
-10.6423
-12.3863
-13.9388
-15.1765
-15.9173
-15.9092
-14.8385
-12.3854
-8.36857
-2.98473
-0.884799
-2.64914
-4.39635
-6.11035
-7.76738
-9.33169
-10.7499
-11.9443
-12.8051
-13.1852
-12.9012
-11.753
-9.57448
-6.32798
-2.22325
-0.787065
-2.35331
-3.89465
-5.39016
-6.8121
-8.12244
-9.26898
-10.1813
-10.7675
-10.9141
-10.4934
-9.38304
-7.50512
-4.88335
-1.69911
-0.694802
-2.07477
-3.42475
-4.72104
-5.93428
-7.02691
-7.95068
-8.64472
-9.03501
-9.0371
-8.56455
-7.54603
-5.95231
-3.82932
-1.32355
-0.609227
-1.81705
-2.99211
-4.10957
-5.1402
-6.0486
-6.79187
-7.31906
-7.57211
-7.48963
-7.01478
-6.10844
-4.76701
-3.04109
-1.04614
-0.531029
-1.58208
-2.59944
-3.5584
-4.43098
-5.18492
-5.78309
-6.18373
-6.34217
-6.21459
-5.76464
-4.97297
-3.8487
-2.43968
-0.836326
-0.460472
-1.37051
-2.24732
-3.06718
-3.80412
-4.4294
-4.91145
-5.21658
-5.31083
-5.1634
-4.75177
-4.06844
-3.12812
-1.9732
-0.67463
-0.397489
-1.18199
-1.93474
-2.63354
-3.2548
-3.77333
-4.16265
-4.39584
-4.44731
-4.29566
-3.92757
-3.34237
-2.55654
-1.60649
-0.548131
-0.341778
-1.01552
-1.65962
-2.25374
-2.77678
-3.20697
-3.52227
-3.70127
-3.72481
-3.57821
-3.25411
-2.75562
-2.09899
-1.31498
-0.44795
-0.292881
-0.869623
-1.41921
-1.92329
-2.36324
-2.72039
-2.97651
-3.11464
-3.12045
-2.984
-2.70175
-2.27868
-1.72988
-1.08112
-0.367816
-0.250248
-0.742578
-1.2104
-1.63736
-2.00718
-2.30397
-2.51267
-2.61987
-2.61488
-2.49103
-2.24717
-1.88904
-1.43017
-0.892069
-0.30319
-0.213283
-0.632551
-1.02996
-1.39109
-1.70184
-1.94871
-2.11931
-2.20302
-2.19183
-2.08138
-1.87194
-1.56934
-1.18549
-0.738279
-0.250714
-0.181386
-0.5377
-0.874714
-1.17981
-1.44084
-1.6464
-1.78628
-1.85205
-1.83772
-1.74046
-1.56139
-1.30606
-0.984809
-0.612509
-0.207864
-0.153971
-0.45625
-0.741624
-0.999139
-1.21836
-1.38968
-1.50471
-1.55671
-1.54118
-1.45636
-1.30378
-1.08856
-0.819572
-0.509198
-0.172709
-0.13049
-0.386536
-0.627878
-0.845052
-1.02914
-1.17206
-1.26689
-1.30825
-1.29274
-1.21932
-1.08966
-0.908387
-0.683073
-0.424021
-0.143754
-0.110436
-0.327033
-0.530912
-0.713935
-0.868509
-0.987834
-1.0662
-1.09929
-1.08452
-1.02132
-0.911385
-0.758797
-0.569999
-0.353574
-0.119826
-0.093348
-0.276361
-0.448425
-0.602573
-0.73235
-0.832046
-0.896941
-0.92356
-0.909924
-0.855773
-0.762726
-0.63435
-0.476108
-0.295156
-0.0999972
-0.0788174
-0.233292
-0.378379
-0.508132
-0.617078
-0.700423
-0.754261
-0.77578
-0.76346
-0.717233
-0.638596
-0.530641
-0.397986
-0.246602
-0.0835261
-0.066481
-0.196741
-0.31898
-0.428137
-0.519581
-0.589288
-0.634021
-0.651496
-0.640538
-0.601197
-0.534824
-0.444081
-0.332867
-0.206168
-0.0698158
-0.0560206
-0.165759
-0.268665
-0.360442
-0.437176
-0.495493
-0.532707
-0.546956
-0.537324
-0.50393
-0.447974
-0.371736
-0.278502
-0.172436
-0.0583825
-0.0471593
-0.139521
-0.226078
-0.303191
-0.367559
-0.416352
-0.447338
-0.458997
-0.450609
-0.422328
-0.375208
-0.311191
-0.233045
-0.14425
-0.0488321
-0.039657
-0.117312
-0.190049
-0.254791
-0.308756
-0.349574
-0.37539
-0.384957
-0.377707
-0.353808
-0.314174
-0.260457
-0.194984
-0.120661
-0.0408419
-0.0333068
-0.0985175
-0.159572
-0.213872
-0.259081
-0.293213
-0.314725
-0.322593
-0.316367
-0.296212
-0.262919
-0.217886
-0.163067
-0.10089
-0.034146
-0.0279308
-0.0826092
-0.133783
-0.179267
-0.217097
-0.245614
-0.263534
-0.270015
-0.264697
-0.247738
-0.219816
-0.18211
-0.136259
-0.0842895
-0.0285252
-0.0233764
-0.0691341
-0.111946
-0.149976
-0.181581
-0.205373
-0.220287
-0.225628
-0.22111
-0.206877
-0.183506
-0.15199
-0.113699
-0.0703242
-0.0237973
-0.0195128
-0.0577046
-0.0934279
-0.125147
-0.151488
-0.171296
-0.183686
-0.188088
-0.184269
-0.172361
-0.152851
-0.126573
-0.0946695
-0.0585473
-0.0198109
-0.0162283
-0.047989
-0.0776904
-0.104052
-0.125932
-0.142369
-0.152633
-0.156254
-0.153046
-0.143123
-0.126897
-0.105062
-0.0785694
-0.0485856
-0.0164393
-0.0134269
-0.0397034
-0.0642716
-0.0860706
-0.104154
-0.117729
-0.126193
-0.129161
-0.126485
-0.118262
-0.104836
-0.0867846
-0.0648934
-0.0401254
-0.0135762
-0.0110263
-0.0326039
-0.0527755
-0.0706687
-0.0855058
-0.096637
-0.103569
-0.105988
-0.103775
-0.0970139
-0.0859883
-0.0711732
-0.0532148
-0.032902
-0.0111318
-0.00895572
-0.0264805
-0.0428614
-0.0573889
-0.0694312
-0.0784608
-0.0840785
-0.0860312
-0.084224
-0.0787265
-0.0697712
-0.0577445
-0.043171
-0.0266906
-0.00903005
-0.00715357
-0.0211514
-0.0342342
-0.0458348
-0.0554483
-0.0626537
-0.0671329
-0.0686848
-0.0672349
-0.06284
-0.0556867
-0.0460841
-0.0344513
-0.0212987
-0.00720568
-0.00556618
-0.0164576
-0.0266363
-0.0356605
-0.0431373
-0.0487395
-0.0522199
-0.0534227
-0.0522907
-0.0488688
-0.0433027
-0.0358335
-0.0267869
-0.0165598
-0.00560234
-0.00414609
-0.0122586
-0.0198399
-0.0265606
-0.0321281
-0.0362986
-0.0388884
-0.0397817
-0.0389364
-0.0363864
-0.0322404
-0.026678
-0.0199421
-0.012328
-0.00417064
-0.00285073
-0.00842862
-0.013641
-0.0182615
-0.0220888
-0.0249553
-0.0267349
-0.027348
-0.0267659
-0.0250121
-0.0221614
-0.0183375
-0.0137072
-0.00847351
-0.00286661
-0.00164117
-0.00485236
-0.00785315
-0.0105132
-0.0127165
-0.0143668
-0.0153912
-0.0157442
-0.0154091
-0.0143994
-0.0127582
-0.0105568
-0.00789113
-0.00487815
-0.00165029
-0.000481005
-0.00142222
-0.0023019
-0.0030819
-0.00372827
-0.00421272
-0.00451386
-0.00461815
-0.00452062
-0.00422508
-0.00374408
-0.00309843
-0.00231629
-0.00143199
-0.000484461
0.000664714
0.00196521
0.00318014
0.00425656
0.0051475
0.00581401
0.00622682
0.00636773
0.00623033
0.00582041
0.0051557
0.00426513
0.0031876
0.00197027
0.000666507
0.00183052
0.00541203
0.00875833
0.0117238
0.0141791
0.0160169
0.0171563
0.0175468
0.0171705
0.0160428
0.0142123
0.0117585
0.00878855
0.00543254
0.00183778
0.00305155
0.00902217
0.0146009
0.0195452
0.0236395
0.0267046
0.0286057
0.0292584
0.0286323
0.0267532
0.0237016
0.0196102
0.0146575
0.00906059
0.00306514
0.00436458
0.0129044
0.0208841
0.0279569
0.0338144
0.0382005
0.040922
0.0418578
0.0409642
0.0382775
0.033913
0.02806
0.0209739
0.0129653
0.00438614
0.00580909
0.0171754
0.027797
0.0372123
0.0450111
0.0508522
0.0544782
0.0557273
0.054541
0.0509669
0.0451579
0.0373658
0.0279307
0.0172662
0.0058412
0.00742845
0.0219637
0.0355474
0.04759
0.057567
0.0650418
0.0696847
0.071288
0.0697757
0.065208
0.0577798
0.0478125
0.0357412
0.0220952
0.00747496
0.00927115
0.0274125
0.0443679
0.059402
0.0718603
0.0811977
0.0870017
0.0890118
0.0871318
0.0814354
0.0721645
0.0597201
0.0446449
0.0276005
0.00933766
0.0113922
0.0336849
0.0545224
0.0730023
0.0883207
0.0998069
0.106953
0.109437
0.107138
0.100145
0.0887529
0.0734542
0.054916
0.033952
0.0114867
0.0138548
0.0409675
0.0663139
0.0887978
0.107442
0.12143
0.130141
0.133182
0.130403
0.121908
0.108054
0.0894378
0.0668712
0.0413458
0.0139886
0.0167319
0.0494766
0.080093
0.107259
0.129796
0.146716
0.157267
0.160969
0.157637
0.147392
0.130661
0.108164
0.080881
0.0500114
0.0169211
0.0201084
0.0594633
0.0962676
0.128935
0.15605
0.176423
0.189148
0.193641
0.189671
0.177379
0.157273
0.130214
0.0973809
0.060219
0.0203757
0.0240832
0.0712211
0.115314
0.154467
0.186985
0.211442
0.226745
0.232188
0.227484
0.212791
0.188712
0.156273
0.116886
0.0722883
0.0244607
0.0287723
0.0850931
0.13779
0.184607
0.223517
0.252816
0.271189
0.277779
0.272232
0.254721
0.225955
0.187156
0.14001
0.0865999
0.0293053
0.0343111
0.101481
0.16435
0.220235
0.266723
0.301776
0.323814
0.331799
0.325286
0.304465
0.270165
0.223834
0.167484
0.103608
0.0350636
0.0408581
0.120855
0.195759
0.262387
0.31787
0.359772
0.386198
0.395884
0.388275
0.363568
0.322729
0.267468
0.200184
0.123859
0.0419206
0.0485988
0.143766
0.232915
0.312277
0.378445
0.428514
0.460203
0.471978
0.463136
0.433873
0.385305
0.319451
0.239162
0.148006
0.0500988
0.0577493
0.170855
0.276866
0.371328
0.4502
0.510016
0.548036
0.562387
0.552177
0.517582
0.459884
0.381455
0.285686
0.176842
0.059867
0.0685611
0.202871
0.328836
0.441203
0.535186
0.606653
0.652304
0.669849
0.658149
0.617333
0.548856
0.4555
0.341287
0.211323
0.071551
0.0813257
0.24068
0.390246
0.523843
0.635807
0.721213
0.776087
0.797616
0.784337
0.736288
0.655104
0.544026
0.407826
0.252614
0.0855473
0.0963795
0.285286
0.462746
0.621502
0.754867
0.856973
0.923023
0.949553
0.934667
0.878252
0.782107
0.649995
0.487566
0.302136
0.10234
0.114108
0.33784
0.548232
0.73679
0.895631
1.01777
1.0974
1.13024
1.11383
1.0478
0.934083
0.777016
0.583276
0.361632
0.122526
0.134951
0.399654
0.648879
0.872711
1.06188
1.20807
1.30426
1.34514
1.32745
1.25046
1.11616
0.929501
0.69836
0.433253
0.146839
0.159404
0.472217
0.767155
1.0327
1.25798
1.43309
1.54954
1.60068
1.58226
1.49291
1.33458
1.11287
0.837027
0.51967
0.176195
0.188021
0.55719
0.905838
1.22065
1.4889
1.69884
1.84015
1.90453
1.88632
1.78324
1.59702
1.33384
1.00452
0.624221
0.211743
0.221411
0.65641
1.06802
1.44092
1.76031
2.01224
2.18419
2.26572
2.2493
2.13131
1.91289
1.60073
1.20739
0.75112
0.254934
0.260231
0.77187
1.25707
1.69835
2.07855
2.38118
2.59102
2.6949
2.68281
2.5491
2.29386
1.92399
1.45397
0.905731
0.307624
0.305177
0.905686
1.47662
1.99819
2.45064
2.81455
3.07141
3.20462
3.20076
3.05129
2.7544
2.31679
1.75486
1.09497
0.372215
0.35696
1.06003
1.73044
2.34602
2.88421
3.32223
3.63766
3.80951
3.81981
3.65583
3.31266
2.79592
2.12378
1.32785
0.451857
0.416272
1.23706
2.02233
2.74759
3.38733
3.91503
4.30361
4.52657
4.55987
4.38478
3.99145
3.38293
2.57866
1.61631
0.550748
0.483744
1.43875
2.35588
3.20853
3.96824
4.60442
5.08456
5.37531
5.44462
5.26526
4.81966
4.10587
3.1433
1.97646
0.674588
0.559883
1.66673
2.7342
3.734
4.63492
5.40214
5.99699
6.3778
6.50205
6.33059
5.83408
5.00157
3.84977
2.43035
0.831278
0.644988
1.92205
3.15951
4.32811
5.39443
6.31953
7.05804
7.55842
7.7648
7.62162
7.08182
6.11897
4.74207
3.00901
1.03205
0.739059
2.20486
3.63261
4.99322
6.252
7.36645
8.28443
8.94317
9.27026
9.18804
8.6233
7.52388
5.88167
3.75702
1.29333
0.841679
2.51409
4.15233
5.72903
7.20975
8.54978
9.6908
10.5582
11.0599
11.0895
10.536
9.3057
7.35628
4.74046
1.64
0.951895
2.84705
4.71475
6.53145
8.26519
9.87126
11.2872
12.4271
13.1774
13.3958
12.9188
11.5868
9.29365
6.06043
2.11133
1.0681
3.19904
5.31257
7.39146
9.40924
11.3248
13.0751
14.5665
15.6644
16.1849
15.8952
14.5355
11.8838
7.87753
2.77263
1.18797
3.56312
5.93441
8.29386
10.6243
12.8929
15.0428
16.9791
18.5522
19.5366
19.6145
18.3813
15.4145
10.4575
3.73974
1.30837
3.92987
6.56445
9.2164
11.8821
14.5436
17.1586
19.6438
21.8486
23.5179
24.2442
23.4311
20.3271
14.2604
5.23576
1.42546
4.28753
7.18238
10.1294
13.1427
16.2265
19.3646
22.5031
25.517
28.1539
29.9427
30.0717
27.2971
20.1172
7.73656
1.53481
4.6224
7.76408
10.9962
14.3544
17.8716
21.5704
25.4488
29.447
33.3787
36.794
38.7284
37.3263
29.5854
12.3849
1.63165
4.91968
8.28296
11.7753
15.4558
19.3904
23.6513
28.3113
33.4231
38.9619
44.6734
49.7019
51.7573
45.6227
22.2896
1.71133
5.16469
8.71218
12.4237
16.3806
20.6825
25.455
30.8598
37.1027
44.4251
53.0268
62.74
71.8755
73.6031
46.9483
1.76968
5.34429
9.02747
12.9016
17.0659
21.6477
26.8194
32.8262
40.0324
48.9996
60.6082
76.1788
97.1376
121.293
118.303
1.80356
5.44848
9.21011
13.1779
17.4612
22.2032
27.6039
33.9595
41.739
51.7395
65.438
85.8754
120.179
187.834
351.889
1.81116
5.47158
9.24956
13.235
17.5378
22.3013
27.7251
34.104
41.9031
51.9111
65.5876
85.9421
120.061
187.429
351.377
1.79231
5.41303
9.14487
13.0718
17.2944
21.9408
27.1828
33.262
40.5331
49.535
61.0992
76.45
96.8508
119.955
115.982
1.74838
5.27729
8.90466
12.7032
16.7567
21.1667
26.059
31.5922
37.9611
45.3791
53.9809
63.4508
71.7628
71.2848
38.9136
-12.8985
-10.5221
-8.7382
-7.35534
-6.23922
-5.3075
-4.50831
-3.80727
-3.1804
-2.61021
-2.08334
-1.58918
-1.11893
-0.665022
-0.220631
-4.83988
-6.7122
-6.63255
-6.05543
-5.37493
-4.70374
-4.07247
-3.486
-2.94095
-2.43148
-1.95135
-1.49449
-1.05524
-0.628304
-0.208633
-2.20308
-4.25784
-4.87232
-4.82727
-4.50413
-4.07222
-3.6055
-3.13596
-2.67675
-2.23237
-1.80317
-1.38756
-0.983005
-0.586533
-0.194964
-1.19918
-2.80363
-3.57008
-3.79219
-3.70884
-3.46484
-3.14045
-2.7787
-2.40225
-2.02269
-1.64554
-1.27294
-0.905147
-0.541354
-0.180153
-0.746606
-1.93136
-2.6458
-2.96922
-3.02507
-2.91327
-2.70133
-2.43164
-2.1299
-1.81133
-1.48473
-1.15497
-0.824508
-0.494371
-0.164721
-0.508231
-1.38568
-1.99307
-2.33202
-2.45772
-2.43122
-2.30229
-2.10682
-1.86921
-1.60553
-1.32611
-1.03747
-0.743639
-0.447045
-0.149142
-0.366393
-1.02752
-1.52673
-1.8429
-1.99603
-2.0203
-1.94945
-1.81124
-1.62662
-1.41065
-1.17388
-0.923573
-0.664684
-0.400626
-0.133827
-0.274314
-0.781807
-1.18748
-1.467
-1.62381
-1.67541
-1.64337
-1.54788
-1.40578
-1.2302
-1.03105
-0.815627
-0.589313
-0.356107
-0.119105
-0.210799
-0.606792
-0.935836
-1.17632
-1.32462
-1.38861
-1.38133
-1.31688
-1.20817
-1.06612
-0.899504
-0.71524
-0.518724
-0.31422
-0.105223
-0.165062
-0.478265
-0.745686
-0.94963
-1.08399
-1.15128
-1.15899
-1.1166
-1.03372
-0.919083
-0.780211
-0.623357
-0.453677
-0.275452
-0.0923461
-0.131076
-0.381527
-0.599613
-0.771259
-0.889917
-0.955325
-0.971435
-0.944438
-0.881303
-0.788873
-0.673399
-0.540377
-0.39456
-0.240071
-0.0805701
-0.105213
-0.307264
-0.485785
-0.62968
-0.732817
-0.793596
-0.813807
-0.797362
-0.749225
-0.674658
-0.578769
-0.466279