/*--------------------------------*- C++ -*----------------------------------*\
| =========                 |                                                 |
| \\      /  F ield         | OpenFOAM: The Open Source CFD Toolbox           |
|  \\    /   O peration     | Version:  5.x                                   |
|   \\  /    A nd           | Web:      www.OpenFOAM.org                      |
|    \\/     M anipulation  |                                                 |
\*---------------------------------------------------------------------------*/
FoamFile
{
    version     2.0;
    format      ascii;
    class       volScalarField;
    location    "13.8";
    object      gradTy;
}
// * * * * * * * * * * * * * * * * * * * * * * * * * * * * * * * * * * * * * //

dimensions      [0 -1 0 1 0 0 0];

internalField   nonuniform List<scalar> 
6300
(
1003.93
1011.93
1020.37
1029.55
1039.74
1051.2
1064.16
1078.84
1095.38
1113.89
1134.42
1156.94
1181.33
1207.41
1234.93
-0.223037
-0.665939
-1.09902
-1.51473
-1.90403
-2.2561
-2.55812
-2.79556
-2.9529
-3.01502
-2.96925
-2.80784
-2.53061
-2.1468
-1.67554
-0.375263
-1.12085
-1.85107
-2.55393
-3.21481
-3.8158
-4.3353
-4.74822
-5.02718
-5.14473
-5.07694
-4.8081
-4.3358
-3.67496
-2.85924
-0.532414
-1.59109
-2.63049
-3.6351
-4.58547
-5.457
-6.21903
-6.83485
-7.26289
-7.45978
-7.38568
-7.01184
-6.32952
-5.358
-4.14827
-0.695717
-2.08059
-3.44468
-4.77045
-6.03493
-7.20763
-8.24892
-9.1092
-9.72967
-10.0457
-9.99409
-9.52399
-8.61236
-7.2791
-5.59648
-0.865588
-2.59089
-4.29716
-5.96708
-7.57614
-9.08965
-10.4598
-11.6233
-12.5008
-12.9994
-13.0209
-12.4776
-11.3168
-9.54959
-7.27364
-1.04133
-3.12017
-5.18597
-7.22452
-9.21283
-11.115
-12.8772
-14.4233
-15.6507
-16.4301
-16.6124
-16.0487
-14.6276
-12.3286
-9.27609
-1.22086
-3.66246
-6.10201
-8.53212
-10.9356
-13.2801
-15.5107
-17.542
-19.2486
-20.4576
-20.9497
-20.4771
-18.816
-15.8611
-11.7488
-1.40049
-4.20679
-7.02744
-9.86628
-12.7174
-15.5589
-18.3434
-20.9853
-23.3437
-25.202
-26.2515
-26.094
-24.2978
-20.5511
-14.9304
-1.5748
-4.73675
-7.93462
-11.1881
-14.5088
-17.8946
-21.3184
-24.712
-27.9388
-30.7552
-32.7599
-33.3492
-31.7302
-27.1147
-19.2614
-1.73673
-5.23077
-8.7862
-12.4424
-16.2352
-20.1921
-24.3236
-28.6052
-32.944
-37.1197
-40.6836
-42.8124
-42.1588
-36.9162
-25.6819
-1.87806
-5.66335
-9.53693
-13.5601
-17.7971
-22.3149
-27.1787
-32.4408
-38.1122
-44.0955
-50.0421
-55.0575
-57.1764
-52.7092
-36.6088
-1.9902
-6.0076
-10.138
-14.4638
-19.0783
-24.0914
-29.635
-35.8671
-42.9679
-51.1078
-60.3314
-70.1988
-78.7798
-80.1354
-59.703
-2.06534
-6.23878
-10.5436
-15.0786
-19.9608
-25.3373
-31.4026
-38.4244
-46.7841
-57.0361
-69.9764
-86.626
-107.608
-129.349
-124.558
-2.09771
-6.33849
-10.7191
-15.3461
-20.3486
-25.8942
-32.2134
-39.6434
-48.7076
-60.2756
-75.9116
-98.72
-135.676
-205.093
-364.763
1261.17
1285.57
1310.3
1335.14
1359.88
1384.31
1408.27
1431.59
1454.14
1475.79
1496.46
1516.06
1534.54
1551.85
1567.95
1582.82
1596.43
1608.78
1619.85
1629.65
1638.18
1645.45
1651.46
1656.22
1659.75
1662.07
1663.2
1663.15
1661.94
1659.6
1656.14
1651.59
1645.96
1639.28
1631.57
1622.85
1613.14
1602.45
1590.82
1578.25
1564.76
1550.39
1535.14
1519.05
1502.12
1484.39
1465.87
1446.59
1426.56
1405.79
1384.31
1362.13
1339.27
1315.74
1291.55
1266.72
1241.28
1215.23
1188.6
1161.41
1133.69
1105.45
1076.72
1047.54
1017.92
987.9
957.503
926.763
895.716
864.404
832.87
801.167
769.353
737.491
705.651
673.908
642.344
611.04
580.081
549.552
519.539
490.121
461.377
433.378
406.191
379.872
354.468
330.016
306.54
284.052
-1.18849
-0.724373
-0.257575
0.194886
0.619071
1.00492
1.34641
1.64124
1.89011
2.09587
2.26274
2.39552
2.49907
2.57792
2.63608
2.67691
2.70318
2.71712
2.72053
2.7149
2.70146
2.68128
2.65531
2.62441
2.58937
2.55095
2.50984
2.46672
2.42223
2.37697
2.33146
2.28616
2.2414
2.19736
2.15407
2.11138
2.06903
2.02668
1.98396
1.94057
1.89635
1.85134
1.80579
1.76017
1.71507
1.67117
1.62908
1.58927
1.55192
1.51692
1.48381
1.45185
1.42006
1.38742
1.35292
1.31576
1.27542
1.23174
1.18483
1.13506
1.0829
1.02875
0.972772
0.914747
0.853997
0.789356
0.719229
0.641739
0.554921
0.456961
0.346431
0.222489
0.0850179
-0.0653186
-0.227101
-0.398256
-0.576204
-0.75803
-0.940647
-1.12091
-1.29569
-1.46189
-1.61642
-1.75618
-1.87809
-1.97913
-2.05657
-2.10815
-2.13243
-2.12897
-2.01502
-1.2117
-0.406563
0.369782
1.09283
1.74553
2.31842
2.80873
3.21898
3.55525
3.8257
4.03925
4.2046
4.32965
4.42119
4.48481
4.52501
4.54535
4.54867
4.5373
4.51318
4.47803
4.43337
4.38059
4.321
4.25583
4.18624
4.11336
4.03826
3.96197
3.88541
3.8094
3.7345
3.66107
3.58912
3.5184
3.44838
3.37837
3.30764
3.23557
3.16182
3.08639
3.00975
2.93275
2.85653
2.78238
2.71152
2.64484
2.58279
2.52518
2.4712
2.41945
2.36815
2.31531
2.25909
2.19798
2.13105
2.05803
1.97927
1.8956
1.80805
1.71754
1.62459
1.52897
1.42959
1.32439
1.21051
1.08448
0.942673
0.781678
0.598799
0.392414
0.162236
-0.0905861
-0.36353
-0.652901
-0.954128
-1.2621
-1.57149
-1.87693
-2.17318
-2.45511
-2.71761
-2.95549
-3.16346
-3.33624
-3.46886
-3.55714
-3.59828
-3.59138
-2.8933
-1.70183
-0.514309
0.621202
1.66763
2.60081
3.40905
4.09125
4.65406
5.10908
5.47029
5.75205
5.96782
6.12928
6.24614
6.32608
6.37506
6.3977
6.39758
6.37765
6.34042
6.28809
6.22272
6.14619
6.06029
5.96669
5.867
5.7628
5.65561
5.54695
5.43821
5.33062
5.22512
5.12224
5.02203
4.92403
4.82734
4.73073
4.63288
4.53265
4.42932
4.32285
4.21389
4.10385
3.99466
3.88854
3.78758
3.69343
3.60693
3.5279
3.45505
3.38612
3.31813
3.2478
3.17201
3.08829
2.99517
2.89231
2.78053
2.66147
2.53718
2.40962
2.28001
2.1484
2.01333
1.87172
1.71905
1.54976
1.35786
1.13773
0.884844
0.596437
0.271907
-0.087025
-0.476443
-0.8906
-1.32246
-1.76426
-2.20811
-2.64627
-3.07138
-3.47639
-3.85431
-4.19792
-4.49956
-4.75124
-4.94504
-5.07404
-5.13337
-5.12122
-3.84421
-2.18602
-0.54692
1.00116
2.40581
3.63627
4.6815
5.54598
6.24467
6.79831
7.22955
7.56019
7.8095
7.99345
8.12455
8.21222
8.26338
8.28312
8.27535
8.24327
8.18971
8.11728
8.02847
7.92564
7.811
7.68666
7.55462
7.41688
7.27545
7.1324
6.98971
6.84921
6.71233
6.57993
6.4521
6.32814
6.20653
6.08522
5.9619
5.83452
5.70173
5.56322
5.41994
5.27406
5.12873
4.98758
4.85417
4.73134
4.62066
4.52203
4.43357
4.35174
4.2718
4.18844
4.09664
3.99244
3.87357
3.73974
3.59255
3.43511
3.27131
3.10489
2.93854
2.77304
2.6067
2.4352
2.25176
2.04779
1.8139
1.54114
1.22223
0.852664
0.431299
-0.0393886
-0.553559
-1.10265
-1.67629
-2.26334
-2.85276
-3.43424
-3.99839
-4.53655
-5.04029
-5.50064
-5.90749
-6.24945
-6.51443
-6.69117
-6.77129
-6.7513
-4.88905
-2.64273
-0.448446
1.58768
3.39489
4.93855
6.21435
7.23956
8.04426
8.66391
9.13379
9.48554
9.74543
9.93382
10.0656
10.151
10.197
10.2083
10.1883
10.14
10.0663
9.97019
9.85456
9.72224
9.57586
9.41787
9.25061
9.07642
8.89781
8.71748
8.53823
8.36275
8.19327
8.0312
7.87681
7.72903
7.5855
7.44278
7.29696
7.14439
6.98255
6.81064
6.62991
6.44369
6.25696
6.07566
5.90571
5.75195
5.61721
5.50169
5.4027
5.31483
5.23058
5.14143
5.0393
4.91788
4.7737
4.60656
4.4195
4.2181
4.00936
3.80022
3.59601
3.39903
3.20766
3.01602
2.81418
2.58906
2.32607
2.01112
1.63272
1.18362
0.661856
0.0710024
-0.580255
-1.2792
-2.01069
-2.75887
-3.50873
-4.24706
-4.96269
-5.64617
-6.28863
-6.88028
-7.40877
-7.85839
-8.21076
-8.44732
-8.55328
-8.52181
-6.04674
-3.02428
-0.121993
2.50413
4.7638
6.62696
8.1085
9.25115
10.1109
10.7457
11.2087
11.5438
11.7849
11.9563
12.074
12.1473
12.1814
12.1791
12.1425
12.0738
11.9759
11.8519
11.7054
11.5398
11.3581
11.1632
10.9573
10.7431
10.5234
10.3017
10.0821
9.86839
9.66428
9.47216
9.29272
9.12455
8.96402
8.80555
8.64245
8.46835
8.27862
8.07147
7.84851
7.61476
7.37808
7.14811
6.93464
6.74585
6.58675
6.45822
6.35649
6.27337
6.19702
6.11373
6.01033
5.87671
5.70747
5.50267
5.26768
5.01221
4.74852
4.48902
4.2436
4.01744
3.80952
3.61204
3.41057
3.18532
2.91352
2.57292
2.14542
1.61962
0.992308
0.268767
-0.537891
-1.40854
-2.32068
-3.25162
-4.18098
-5.09222
-5.973
-6.81457
-7.60987
-8.3506
-9.02338
-9.60715
-10.0737
-10.3913
-10.533
-10.485
-7.32908
-3.23259
0.602312
3.94841
6.70386
8.86515
10.491
11.6706
12.5018
13.0757
13.4683
13.7378
13.9253
14.0569
14.1468
14.2006
14.2188
14.2
14.1436
14.0506
13.9236
13.7667
13.5845
13.3811
13.1604
12.9249
12.6768
12.4183
12.1526
11.884
11.618
11.361
11.1188
10.8957
10.6932
10.5099
10.3404
10.1758
10.0046
9.8156
9.60056
9.35585
9.08346
8.79082
8.49034
8.19756
7.92881
7.69774
7.51306
7.37687
7.28423
7.22286
7.17419
7.11569
7.02558
6.88752
6.6931
6.44291
6.146
5.81881
5.48227
5.15815
4.86406
4.61018
4.39693
4.21435
4.04174
3.84914
3.60055
3.26037
2.80017
2.20226
1.46179
0.586677
-0.402936
-1.47769
-2.60316
-3.74624
-4.87891
-5.98085
-7.03941
-8.04922
-9.00936
-9.91844
-10.7658
-11.5245
-12.1506
-12.5886
-12.7854
-12.7135
-8.72454
-3.06416
2.03048
6.2431
9.4992
11.8741
13.5156
14.5916
15.263
15.6666
15.905
16.0501
16.1462
16.2175
16.2715
16.3052
16.3093
16.2751
16.1975
16.0762
15.9144
15.7182
15.4938
15.2476
14.9839
14.7048
14.4112
14.1041
13.7861
13.4624
13.1411
12.8325
12.5461
12.2894
12.0662
11.8754
11.7098
11.5555
11.3925
11.2005
10.9653
10.6802
10.3477
9.97829
9.59161
9.21254
8.86886
8.58297
8.36966
8.23297
8.1671
8.1542
8.16562
8.16331
8.10999
7.97963
7.75915
7.45053
7.06803
6.63902
6.19826
5.78417
5.42674
5.14455
4.94032
4.80243
4.70181
4.59373
4.41956
4.12077
3.65332
2.9903
2.12529
1.06957
-0.145261
-1.47366
-2.86015
-4.25569
-5.62091
-6.93178
-8.17581
-9.35521
-10.4822
-11.5749
-12.6359
-13.6324
-14.4983
-15.1329
-15.4245
-15.3157
-10.147
-2.08134
4.72842
9.91473
13.5626
15.9379
17.3535
18.0936
18.4087
18.4938
18.4749
18.4315
18.4014
18.4016
18.424
18.4512
18.4534
18.4114
18.3129
18.1585
17.9536
17.7084
17.4333
17.1379
16.828
16.504
16.1636
15.8043
15.4262
15.0358
14.6445
14.2706
13.929
13.6337
13.3909
13.2033
13.0617
12.9465
12.8207
12.6462
12.4006
12.0715
11.6636
11.1894
10.6807
10.1753
9.72449
9.36246
9.11476
8.98592
8.97256
9.04938
9.17574
9.28329
9.30428
9.20043
8.95106
8.56351
8.05605
7.47513
6.87489
6.32766
5.88016
5.56578
5.38735
5.33603
5.37182
5.43272
5.41728
5.22328
4.78737
4.06852
3.06272
1.78097
0.275351
-1.38652
-3.10461
-4.80922
-6.44156
-7.9793
-9.40556
-10.7369
-12.0044
-13.2773
-14.5989
-15.9282
-17.1792
-18.171
-18.6401
-18.4646
-11.2531
0.709405
9.76341
15.8013
19.4578
21.3828
22.1625
22.2062
21.8839
21.4691
21.0784
20.7917
20.6114
20.5516
20.5679
20.6313
20.6594
20.6269
20.5067
20.3116
20.0485
19.7399
19.4
19.0468
18.6902
18.3251
17.9409
17.5294
17.0819
16.6086
16.1207
15.6601
15.2433
14.9005
14.634
14.4631
14.3733
14.3506
14.3173
14.1923
13.9544
13.5742
13.0732
12.4484
11.763
11.0576
10.4505
9.97556
9.68695
9.57086
9.64649
9.87158
10.2113
10.5263
10.6767
10.6292
10.3404
9.84765
9.14834
8.33764
7.47375
6.72615
6.14053
5.78995
5.65002
5.74296
6.00447
6.38047
6.67096
6.67303
6.3278
5.55891
4.39651
2.81379
0.920062
-1.21925
-3.36929
-5.46754
-7.39911
-9.18796
-10.7725
-12.2111
-13.5191
-14.9101
-16.551
-18.3371
-20.2337
-21.9615
-22.7843
-22.4568
-10.6968
7.68763
19.1406
25.1169
27.8468
28.4781
28.0324
26.8468
25.4934
24.4109
23.5332
23
22.6491
22.5934
22.6452
22.8635
22.954
22.9703
22.8098
22.5643
22.2106
21.8179
21.3876
20.9623
20.5662
20.1755
19.7591
19.3084
18.7764
18.2041
17.5593
16.9884
16.4529
16.059
15.7413
15.608
15.5903
15.7716
15.9476
15.9028
15.7146
15.2527
14.6629
13.7964
12.8757
11.8004
10.9878
10.3221
10.0124
9.88135
10.1068
10.5303
11.284
12.0079
12.3357
12.4069
12.0251
11.4307
10.4025
9.27817
7.90659
6.89276
6.06384
5.71207
5.57866
5.90836
6.47341
7.4525
8.34107
8.62398
8.47936
7.61702
6.33662
4.29553
1.91945
-1.03551
-3.70753
-6.36491
-8.56125
-10.69
-12.3485
-13.8728
-14.9136
-16.1821
-18.2933
-20.5862
-23.5303
-27.0549
-28.5841
-27.8283
-2.69272
24.6475
36.4035
39.1063
39.2568
37.1234
34.9669
31.7287
28.7124
27.0574
25.4913
24.9456
24.2612
24.4801
24.4825
25.279
25.3554
25.5677
25.235
24.9724
24.4283
23.9497
23.3675
22.8355
22.4339
22.0628
21.6262
21.204
20.5285
19.9039
18.891
18.2653
17.4584
17.1073
16.5829
16.5861
16.5202
17.2002
17.8955
17.8198
17.8687
17.1152
16.651
15.2221
14.2108
12.1645
11.3138
10.1556
10.0805
9.67839
10.2818
10.7133
12.3995
14.0597
14.3639
14.837
14.0156
13.6382
11.7951
10.5746
7.82417
6.79306
5.29997
5.31974
4.84035
5.73481
6.34607
8.65482
10.8833
11.1905
11.6643
10.277
9.37206
6.25963
3.75244
-1.25919
-4.06681
-7.92606
-9.82061
-12.869
-14.1177
-16.2304
-15.9799
-16.2404
-19.7738
-21.8971
-25.991
-35.0211
-37.6739
-35.5762
40.5732
64.0488
66.7034
56.7705
53.9546
45.801
43.4579
36.2899
29.9698
29.5749
25.979
27.0897
24.5715
26.6773
25.1753
28.7303
27.5597
28.9487
27.558
27.7844
26.5506
26.2293
25.2739
24.5197
24.2563
24.043
23.4715
23.4632
22.206
22.1618
19.6639
19.802
17.8063
18.4043
16.6633
17.6627
16.3749
18.6057
20.9526
19.5561
21.177
18.5601
20.0271
16.0455
17.0355
10.8058
12.0815
8.42868
10.6184
8.02649
10.7036
9.0885
13.5516
18.0632
16.1481
19.1304
15.3656
17.9554
12.2902
14.0735
5.26503
7.35786
2.35683
5.64545
2.12298
5.96838
3.77364
9.97212
16.1913
13.5164
17.5288
12.2419
15.5856
7.35159
9.19128
-4.65714
-2.91212
-12.3168
-9.41874
-17.6398
-14.6428
-21.9915
-16.3103
-11.5857
-23.2848
-20.3705
-21.3433
-52.1707
-53.6041
-47.5452
266.204
133.431
115.128
64.1856
76.3384
46.1113
58.8967
39.6301
22.6953
36.7019
19.6897
34.4595
18.2237
34.0698
18.5866
38.9867
26.0785
36.3327
27.5527
32.6997
27.3591
29.4225
26.891
25.4976
26.0073
26.5394
24.5064
27.5214
22.1374
27.9534
16.6418
24.4116
14.4202
23.0698
12.7982
22.0336
11.1635
19.8446
29.4008
16.9478
30.5884
14.1249
31.2497
9.71046
30.2571
-1.35995
19.9468
-1.71077
18.0427
-1.21213
17.3067
-1.28822
14.6346
31.3215
10.8805
33.1402
7.56568
34.1604
2.05983
32.8252
-12.9914
18.1384
-12.5228
15.7797
-11.2035
14.9003
-10.8845
11.26
34.3072
6.2128
36.7845
1.77895
38.4714
-6.06217
37.2214
-30.5091
14.2986
-34.4229
6.9951
-38.5639
-0.269754
-46.5149
-15.2628
16.7196
-47.8387
-13.2462
26.2956
-111.647
-80.3225
-67.5521
260.399
235.994
212.938
191.161
170.577
151.09
132.593
114.977
98.13
81.9426
66.3065
51.1162
36.269
21.6648
7.20553
-2.09542
-2.02283
-1.91933
-1.79121
-1.64509
-1.48723
-1.32302
-1.15672
-0.991397
-0.829007
-0.670548
-0.516239
-0.365709
-0.218158
-0.0725028
-3.53227
-3.40564
-3.2262
-3.00532
-2.75486
-2.48578
-2.20737
-1.9268
-1.64908
-1.37732
-1.11298
-0.856205
-0.606208
-0.361494
-0.120118
-5.03123
-4.84125
-4.57448
-4.24901
-3.88321
-3.49365
-3.09387
-2.69399
-2.3008
-1.91822
-1.54782
-1.18939
-0.841419
-0.501486
-0.166591
-6.62195
-6.35357
-5.9814
-5.53297
-5.03529
-4.51169
-3.98044
-3.45446
-2.94188
-2.4469
-1.97067
-1.5121
-1.06858
-0.636436
-0.211349
-8.33986
-7.9696
-7.4645
-6.86613
-6.21321
-5.53734
-4.86169
-4.20148
-3.56534
-2.95681
-2.37582
-1.81975
-1.28436
-0.764319
-0.253714
-10.2294
-9.72034
-9.04075
-8.25375
-7.414
-6.5627
-5.72744
-4.9244
-4.16113
-3.43916
-2.75602
-2.10671
-1.48475
-0.882761
-0.292898
-12.349
-11.6414
-10.7242
-9.694
-8.62624
-7.57193
-6.5609
-5.60748
-4.71558
-3.88264
-3.10234
-2.36631
-1.66516
-0.989062
-0.328015
-14.7782
-13.7719
-12.5206
-11.1716
-9.82492
-8.53775
-7.33667
-6.22898
-5.211
-4.27342
-3.40435
-2.59099
-1.8205
-1.0803
-0.358109
-17.6272
-16.1474
-14.4145
-12.6468
-10.9639
-9.41737
-8.01896
-6.76068
-5.62597
-4.59566
-3.65059
-2.77277
-1.94554
-1.15352
-0.382223
-21.0425
-18.7758
-16.3432
-14.0368
-11.9665
-10.1487
-8.56103
-7.1687
-5.93648
-4.83258
-3.82956
-2.90391
-2.03536
-1.20598
-0.399486
-25.1814
-21.5697
-18.1456
-15.1907
-12.7163
-10.6499
-8.9076
-7.41653
-6.1186
-4.96858
-3.93109
-2.97793
-2.08598
-1.23556
-0.40922
-30.044
-24.1756
-19.4786
-15.8638
-13.058
-10.8269
-9.00282
-7.47111
-6.15273
-4.99198
-3.94824
-2.99071
-2.09504
-1.24102
-0.411052
-34.7397
-25.6098
-19.729
-15.7278
-12.825
-10.5966
-8.80559
-7.31226
-6.02915
-4.8983
-3.87912
-2.94161
-2.06242
-1.22242
-0.405014
-34.5953
-23.7943
-18.0998
-14.4932
-11.9173
-9.92872
-8.3106
-6.9431
-5.75324
-4.6929
-3.72828
-2.83413
-1.9906
-1.18122
-0.391587
-2.08928
-6.31243
-10.6731
-15.276
-20.2485
-25.7557
-32.0258
-39.3933
-48.3806
-59.8638
-75.442
-98.3498
-135.972
-207.484
-368.761
-2.04746
-6.18342
-10.4456
-14.9292
-19.7476
-25.045
-31.0134
-37.9219
-46.1631
-56.3289
-69.3199
-86.4188
-108.775
-133.054
-125.273
-1.97714
-5.96671
-10.0644
-14.3496
-18.9141
-23.868
-29.3478
-35.5248
-42.6089
-50.8317
-60.3445
-70.8355
-80.2429
-80.8888
-50.3711
-1.88229
-5.67491
-9.55275
-13.5761
-17.8101
-22.3258
-27.198
-32.4974
-38.2639
-44.4384
-50.6899
-56.0045
-57.7936
-50.3637
-24.2361
-1.76795
-5.32391
-8.94005
-12.6562
-16.5104
-20.5357
-24.7515
-29.1454
-33.6352
-37.9913
-41.6856
-43.6219
-41.7464
-32.8226
-13.6183
-1.63966
-4.93108
-8.25786
-11.6402
-15.0918
-18.6133
-22.1811
-25.7266
-29.099
-32.0034
-33.9017
-33.886
-30.5938
-22.4203
-8.57829
-1.50298
-4.51366
-7.53703
-10.5762
-13.6245
-16.6586
-19.6262
-22.4278
-24.8879
-26.7139
-27.4467
-26.425
-22.8309
-15.9542
-5.84006
-1.36299
-4.08739
-6.8052
-9.50565
-12.1671
-14.75
-17.1864
-19.3661
-21.117
-22.1835
-22.2099
-20.7503
-17.3473
-11.7364
-4.18923
-1.22411
-3.66567
-6.08537
-8.46215
-10.7642
-12.9429
-14.9249
-16.6021
-17.8213
-18.3753
-18.0049
-16.425
-13.3971
-8.86307
-3.11569
-1.08984
-3.25909
-5.39532
-7.47047
-9.44687
-11.2724
-12.8748
-14.1561
-14.9874
-15.209
-14.6397
-13.1052
-10.4926
-6.83234
-2.37823
-0.962799
-2.87544
-4.74765
-6.54731
-8.23425
-9.75669
-11.0477
-12.0224
-12.5768
-12.5918
-11.9449
-10.5339
-8.31561
-5.35284
-1.85073
-0.844753
-2.51982
-4.15034
-5.7024
-7.1358
-8.40163
-9.44027
-10.1805
-10.5407
-10.4343
-9.78057
-8.52314
-6.6556
-4.24786
-1.46164
-0.736725
-2.19514
-3.60748
-4.93984
-6.15367
-7.20428
-8.03997
-8.60235
-8.82862
-8.65688
-8.03538
-6.93604
-5.37067
-3.4057
-1.16771
-0.639134
-1.90243
-3.12014
-4.25957
-5.28486
-6.15613
-6.82942
-7.25757
-7.39285
-7.1917
-6.62198
-5.6725
-4.36322
-2.75312
-0.941425
-0.551932
-1.64138
-2.68713
-3.65853
-4.52295
-5.24544
-5.78905
-6.11612
-6.19066
-5.98241
-5.47226
-4.6588
-3.56465
-2.2405
-0.764551
-0.474735
-1.41067
-2.30572
-3.13176
-3.85958
-4.45892
-4.89903
-5.14998
-5.18481
-4.98273
-4.53313
-3.83999
-2.92576
-1.8333
-0.62458
-0.406933
-1.20834
-1.97222
-2.67319
-3.28541
-3.78295
-4.14035
-4.3339
-4.34345
-4.1549
-3.76308
-3.17469
-2.41064
-1.50681
-0.512688
-0.347782
-1.03205
-1.68241
-2.27621
-2.79087
-3.20426
-3.49541
-3.64555
-3.63963
-3.46821
-3.12951
-2.63137
-1.99256
-1.24302
-0.422496
-0.296472
-0.87931
-1.43188
-1.93418
-2.36662
-2.71045
-2.94839
-3.06556
-3.05073
-2.89767
-2.60665
-2.18571
-1.65136
-1.02851
-0.349295
-0.252177
-0.747583
-1.21624
-1.64064
-2.0039
-2.29016
-2.4852
-2.57722
-2.55779
-2.4229
-2.174
-1.81879
-1.3716
-0.853153
-0.289543
-0.214095
-0.63443
-1.03132
-1.38955
-1.69464
-1.9332
-2.09354
-2.16625
-2.14501
-2.0273
-1.81517
-1.51574
-1.14132
-0.70915
-0.240537
-0.181467
-0.537554
-0.873234
-1.17537
-1.43156
-1.63056
-1.76272
-1.82053
-1.7992
-1.69724
-1.51696
-1.26474
-0.951124
-0.590451
-0.200184
-0.153593
-0.454848
-0.738442
-0.993076
-1.20819
-1.37432
-1.48351
-1.52974
-1.50937
-1.42158
-1.2687
-1.05638
-0.793601
-0.492301
-0.166845
-0.129839
-0.384402
-0.623757
-0.838223
-1.01883
-1.15762
-1.24803
-1.28519
-1.26635
-1.1911
-1.06169
-0.883066
-0.662821
-0.410924
-0.139222
-0.109635
-0.324514
-0.526351
-0.70688
-0.858491
-0.974514
-1.0495
-1.07954
-1.06248
-0.998235
-0.888857
-0.738643
-0.554019
-0.343297
-0.11628
-0.0924788
-0.273682
-0.443739
-0.595613
-0.722865
-0.819895
-0.882194
-0.906575
-0.891391
-0.836701
-0.744376
-0.618113
-0.463336
-0.286985
-0.0971847
-0.0779296
-0.230588
-0.373751
-0.501442
-0.60822
-0.68939
-0.741209
-0.761081
-0.747725
-0.701296
-0.623459
-0.517379
-0.387631
-0.24001
-0.0812626
-0.0656026
-0.194087
-0.314504
-0.42179
-0.511356
-0.579263
-0.622405
-0.638659
-0.627021
-0.587697
-0.52215
-0.43308
-0.324335
-0.20076
-0.0679632
-0.0551645
-0.163187
-0.264373
-0.354442
-0.429528
-0.486331
-0.522269
-0.535602
-0.525538
-0.492305
-0.437174
-0.362439
-0.271337
-0.167914
-0.0568366
-0.046328
-0.137033
-0.22196
-0.297498
-0.360393
-0.407886
-0.437827
-0.448788
-0.440143
-0.412117
-0.36581
-0.303162
-0.226893
-0.140381
-0.0475123
-0.0388456
-0.114892
-0.186067
-0.249331
-0.301953
-0.341625
-0.366562
-0.375588
-0.368203
-0.344623
-0.30579
-0.253342
-0.18956
-0.117263
-0.0396844
-0.0325053
-0.0961327
-0.155665
-0.208551
-0.252504
-0.285596
-0.306344
-0.313781
-0.307506
-0.287719
-0.255221
-0.211393
-0.158139
-0.0978121
-0.0330993
-0.0271252
-0.0802167
-0.129878
-0.173974
-0.210596
-0.238138
-0.255369
-0.261494
-0.256192
-0.239641
-0.21252
-0.175986
-0.13163
-0.0814059
-0.0275458
-0.0225496
-0.0666823
-0.107954
-0.144587
-0.174992
-0.197837
-0.212104
-0.21714
-0.212687
-0.198901
-0.176354
-0.146011
-0.109194
-0.0675241
-0.0228474
-0.0186452
-0.0551341
-0.0892513
-0.119524
-0.144638
-0.163492
-0.175249
-0.179375
-0.175661
-0.164245
-0.145601
-0.120532
-0.0901287
-0.0557295
-0.0188558
-0.0152972
-0.0452324
-0.0732177
-0.0980427
-0.118629
-0.134074
-0.143693
-0.147052
-0.143984
-0.134605
-0.119309
-0.0987545
-0.0738375
-0.0456531
-0.015446
-0.0124067
-0.0366846
-0.0593783
-0.0795048
-0.0961887
-0.1087
-0.116484
-0.119191
-0.116689
-0.109075
-0.0966684
-0.0800063
-0.059815
-0.0369811
-0.0125116
-0.0098881
-0.0292368
-0.0473211
-0.0633569
-0.0766462
-0.0866075
-0.0928006
-0.0949472
-0.0929443
-0.0868701
-0.0769824
-0.0637084
-0.0476272
-0.0294446
-0.00996158
-0.00766625
-0.022667
-0.0366862
-0.0491158
-0.0594145
-0.0671314
-0.0719262
-0.073584
-0.0720259
-0.0673135
-0.0596475
-0.0493595
-0.0368984
-0.022811
-0.00771718
-0.00567475
-0.0167785
-0.0271551
-0.0363542
-0.0439751
-0.0496842
-0.0532299
-0.0544536
-0.0532975
-0.0498076
-0.044133
-0.0365193
-0.0272989
-0.016876
-0.00570926
-0.00385391
-0.0113947
-0.0184416
-0.0246884
-0.0298631
-0.0337392
-0.0361458
-0.0369755
-0.0361893
-0.0338186
-0.0299648
-0.0247947
-0.0185342
-0.0114576
-0.00387614
-0.00214903
-0.00635397
-0.0102835
-0.013767
-0.0166527
-0.0188143
-0.0201565
-0.0206195
-0.0201812
-0.0188594
-0.0167104
-0.0138274
-0.0103361
-0.00638965
-0.00216165
-0.00050879
-0.00150442
-0.00243513
-0.00326062
-0.003945
-0.0044583
-0.0047778
-0.00488907
-0.00478666
-0.00447448
-0.00396571
-0.00328227
-0.00245398
-0.00151722
-0.000513315
0.00111621
0.00330004
0.00534019
0.00714776
0.00864387
0.0097631
0.0104563
0.010693
0.0104622
0.0097739
0.0086577
0.00716222
0.00535278
0.00330859
0.00111923
0.00277494
0.00820424
0.013277
0.0177724
0.0214944
0.0242802
0.0260074
0.0265994
0.0260288
0.0243193
0.0215444
0.0178247
0.0133225
0.00823516
0.00278588
0.00451738
0.013356
0.0216146
0.0289339
0.0349949
0.0395323
0.0423467
0.0433129
0.0423862
0.0396044
0.0350871
0.0290303
0.0216985
0.013413
0.00453754
0.00639599
0.0189105
0.0306043
0.040969
0.0495531
0.0559808
0.0599692
0.0613407
0.0600314
0.0560944
0.0496985
0.0411212
0.0307367
0.0190004
0.0064278
0.00846726
0.0250348
0.0405167
0.0542405
0.0656083
0.0741227
0.0794085
0.0812297
0.0795009
0.0742916
0.0658245
0.0544666
0.0407136
0.0251684
0.00851453
0.0107933
0.0319127
0.0516497
0.0691477
0.0836447
0.0945061
0.101253
0.103583
0.101387
0.0947506
0.0839575
0.0694749
0.0519346
0.0321061
0.0108617
0.0134439
0.0397504
0.0643373
0.0861385
0.104205
0.117746
0.126164
0.12908
0.126355
0.118096
0.104652
0.086606
0.0647444
0.0400267
0.0135416
0.016498
0.0487819
0.0789589
0.105722
0.127907
0.144543
0.154894
0.158494
0.155166
0.14504
0.128542
0.106386
0.0795371
0.0491744
0.0166368
0.0200466
0.0592762
0.0959506
0.128484
0.155462
0.175704
0.188313
0.192716
0.188697
0.176407
0.156362
0.129424
0.0967694
0.0598319
0.0202432
0.0241947
0.0715444
0.115817
0.155103
0.187694
0.212165
0.227427
0.232786
0.227971
0.213158
0.188966
0.156432
0.116975
0.0723301
0.0244726
0.0290647
0.0859487
0.139147
0.186368
0.225565
0.255019
0.273418
0.279918
0.274186
0.256422
0.227361
0.188247
0.140783
0.0870588
0.0294573
0.0347992
0.102912
0.166627
0.223206
0.270199
0.305547
0.32767
0.335544
0.328755
0.307529
0.272736
0.225858
0.168936
0.10448
0.0353537
0.0415653
0.122929
0.19906
0.266698
0.322919
0.365258
0.391815
0.401349
0.393346
0.368056
0.326501
0.270443
0.202321
0.125142
0.0423482
0.0495582
0.146578
0.237389
0.318117
0.385278
0.435925
0.467778
0.47933
0.46994
0.439876
0.390334
0.323404
0.241994
0.149703
0.0506636
0.0590066
0.174539
0.28272
0.378955
0.459102
0.519642
0.557834
0.571852
0.560886
0.525219
0.466239
0.386419
0.28922
0.178951
0.0605672
0.0701775
0.207603
0.336344
0.450962
0.546538
0.618874
0.664675
0.681718
0.668984
0.626746
0.556614
0.461499
0.345521
0.213831
0.0723808
0.0833824
0.246696
0.399774
0.53619
0.65011
0.736528
0.791482
0.812259
0.797564
0.747641
0.664334
0.551065
0.412729
0.25549
0.0864931
0.0989837
0.292895
0.474771
0.637035
0.772777
0.876027
0.942017
0.967428
0.950602
0.891714
0.792856
0.658035
0.493062
0.30531
0.103376
0.117401
0.34745
0.563386
0.756293
0.918001
1.04139
1.12073
1.15192
1.13284
1.06354
0.946346
0.78594
0.589208
0.364979
0.123602
0.139118
0.411802
0.667989
0.897213
1.08983
1.23735
1.33286
1.37131
1.34996
1.26861
1.12984
0.939066
0.704446
0.436552
0.147874
0.16469
0.487608
0.79131
1.06355
1.29295
1.46943
1.58459
1.63223
1.60873
1.51355
1.34943
1.12264
0.842785
0.522557
0.177054
0.194747
0.576756
0.936476
1.25962
1.53283
1.74408
1.88322
1.94252
1.91728
1.80634
1.61255
1.34304
1.00916
0.626109
0.212209
0.230002
0.681378
1.10703
1.49037
1.81572
2.06879
2.23726
2.31152
2.28533
2.15665
1.92824
1.60814
1.20966
0.751081
0.254666
0.271247
0.803859
1.30696
1.76138
2.14879
2.45222
2.65673
2.75025
2.72453
2.57619
2.3076
1.92765
1.4519
0.90232
0.306092
0.319354
0.946826
1.54069
2.07892
2.54017
2.90433
3.15326
3.27176
3.24888
3.07922
2.76429
2.31366
1.74541
1.08594
0.368596
0.375261
1.11312
1.81304
2.44989
2.99896
3.43645
3.74032
3.89144
3.87514
3.68309
3.3152
2.78132
2.10227
1.30975
0.444877
0.439957
1.30576
2.12918
2.88181
3.5352
4.06134
4.43344
4.62734
4.62342
4.40905
3.98136
3.34978
2.53789
1.5838
0.53843
0.514447
1.52783
2.49448
3.38261
4.15979
4.79317
5.25029
5.50059
5.5178
5.28313
4.78909
4.04342
3.07225
1.92123
0.653847
0.599705
1.78234
2.91427
3.96044
4.88422
5.64738
6.21071
6.53566
6.58706
6.33728
5.77151
4.89365
3.73147
2.33946
0.797253
0.696605
2.07206
3.3936
4.62323
5.72015
6.64031
7.33665
7.76065
7.86542
7.61082
6.97064
5.94127
4.55027
2.86197
0.976972
0.805832
2.3992
3.93673
5.37814
6.6788
7.78861
8.65165
9.20727
9.39329
9.15207
8.43997
7.23999
5.57549
3.52105
1.20456
0.927762
2.76509
4.54658
6.23075
7.76995
9.10823
10.1801
10.9105
11.2178
11.0203
10.2481
8.86124
6.87146
4.36209
1.49649
1.06232
3.16975
5.22397
7.184
9.00056
10.6128
11.9455
12.9074
13.3928
13.2874
12.4829
10.9012
8.52819
5.4505
1.87684
1.2088
3.61135
5.96674
8.23682
10.373
12.3115
13.9683
15.2353
15.978
16.04
15.2574
13.4905
10.6743
6.88331
2.38221
1.36574
4.08567
6.76871
9.38256
11.8826
14.2056
16.2618
17.9271
19.0358
19.3789
18.7155
16.8083
13.4972
8.80922
3.07041
1.53069
4.58559
7.61867
10.6073
13.5152
16.2849
18.8266
21.0052
22.6251
23.4168
23.0371
21.1009
17.2763
11.4648
4.03777
1.70014
5.10061
8.49947
11.8879
15.2437
18.5223
21.6434
24.4713
26.7894
28.268
28.4394
26.7049
22.435
15.2423
5.45546
1.86945
5.61673
9.38746
13.1911
17.0257
20.8691
24.6635
28.2914
31.5364
34.0269
35.165
34.0694
29.6234
20.821
7.65375
2.03292
6.11652
10.2525
14.4726
18.8015
23.2497
27.7992
32.3771
36.8071
40.7248
43.4416
43.7605
39.8369
29.4308
11.3382
2.18405
6.57986
11.0592
15.6785
20.4944
25.5598
30.915
36.5654
42.4334
48.2565
53.3832
56.3973
54.5517
43.3783
18.2058
2.31592
6.98518
11.7685
16.7478
22.0138
27.6685
33.8257
40.6025
48.0906
56.2714
64.7917
72.4086
75.7439
67.0469
32.8783
2.42178
7.31125
12.3416
17.6179
23.263
29.4282
36.3059
44.1453
53.2665
64.0503
76.8269
91.3927
105.291
108.404
69.4869
2.49576
7.53943
12.7439
18.2317
24.151
30.693
38.1179
46.7977
57.2874
70.4449
87.6192
110.839
142.328
178.947
175.579
2.5335
7.65588
12.9494
18.5457
24.6064
31.3445
39.0584
48.1931
59.4552
74.0496
94.2121
124.544
175.8
277.257
523.191
2.53275
7.65343
12.9446
18.537
24.5913
31.318
39.0119
48.1109
59.3087
73.7871
93.7423
123.716
174.411
275.234
521.384
2.49365
7.53256
12.7304
18.2076
24.109
30.6198
37.9896
46.5708
56.8834
69.7208
86.3149
108.496
138.211
172.286
167.801
2.41871
7.30127
12.3221
17.5835
23.2035
29.325
36.1256
43.8282
52.7044
63.0451
75.0071
88.0432
98.9832
96.114
44.1578
-21.9325
-17.8765
-14.836
-12.4817
-10.5836
-9.00034
-7.64327
-6.45355
-5.39021
-4.42335
-3.5302
-2.69267
-1.89581
-1.12672
-0.373801
-8.22727
-11.4027
-11.2614
-10.277
-9.11884
-7.97782
-6.90556
-5.91001
-4.98522
-4.12115
-3.30707
-2.53264
-1.78819
-1.06467
-0.353528
-3.74363
-7.23191
-8.27232
-8.19291
-7.64211
-6.9075
-6.1145
-5.31728
-4.53802
-3.7842
-3.05637
-2.35176
-1.666
-0.99403
-0.330411
-2.037
-4.76103
-6.0608
-6.43606
-6.29297
-5.87765
-5.32634
-4.71203
-4.07312
-3.42918
-2.78953
-2.15775
-1.53424
-0.917577
-0.305349
-1.26786
-3.27917
-4.49124
-5.03912
-5.13283
-4.94219
-4.58187
-4.12383
-3.61166
-3.07115
-2.51719
-1.95799
-1.39771
-0.838034
-0.279223
-0.862863
-2.35231
-3.38288
-3.95753
-4.17013
-4.12451
-3.90521
-3.57319
-3.16985
-2.72244
-2.24847
-1.75897
-1.26074
-0.757885
-0.25284
-0.621947
-1.74408
-2.59112
-3.12732
-3.3867
-3.42742
-3.30681
-3.07203
-2.75862
-2.39216
-1.99051
-1.56599
-1.12698
-0.679248
-0.226897
-0.465584
-1.32687
-2.01521
-2.48932
-2.75508
-2.84233
-2.78767
-2.62544
-2.38421
-2.08628
-1.74843
-1.38306
-0.99926
-0.603813
-0.201952
-0.357746
-1.02975
-1.58805
-1.99597
-2.24742
-2.35577
-2.34321
-2.2337
-2.04916
-1.8081
-1.52545
-1.21291
-0.879624
-0.532826
-0.178426
-0.280105
-0.811578
-1.26531
-1.61127
-1.83911
-1.95314
-1.96607
-1.89403
-1.75332
-1.5588
-1.32321
-1.05715
-0.769365
-0.467114
-0.1566
-0.222418
-0.647387
-1.0174
-1.30858
-1.50982
-1.62069
-1.64792
-1.60203
-1.49485
-1.33801
-1.14211
-0.916466
-0.669146
-0.407137
-0.136638
-0.178524
-0.521352
-0.824236
-1.06834
-1.24327
-1.34632
-1.38054
-1.35257
-1.27086
-1.14433
-0.981648
-0.790831
-0.579121
-0.353052
-0.118602
-0.144505
-0.423051
-0.671879
-0.876132
-1.02663
-1.11973
-1.15632
-1.14043
-1.07797
-0.975738
-0.84072
-0.679698
-0.499062
-0.304784
-0.102478
-0.117753
-0.345383
-0.550471
-0.721245
-0.849832
-0.93238
-0.968537
-0.96061
-0.912694
-0.829909
-0.717845