/*--------------------------------*- C++ -*----------------------------------*\
| =========                 |                                                 |
| \\      /  F ield         | OpenFOAM: The Open Source CFD Toolbox           |
|  \\    /   O peration     | Version:  5.x                                   |
|   \\  /    A nd           | Web:      www.OpenFOAM.org                      |
|    \\/     M anipulation  |                                                 |
\*---------------------------------------------------------------------------*/
FoamFile
{
    version     2.0;
    format      ascii;
    class       volScalarField;
    location    "14.3";
    object      gradTx;
}
// * * * * * * * * * * * * * * * * * * * * * * * * * * * * * * * * * * * * * //

dimensions      [0 -1 0 1 0 0 0];

internalField   nonuniform List<scalar> 
6300
(
5.08258
5.36702
5.93171
6.76787
7.8614
9.19191
10.7315
12.4438
14.2831
16.194
18.1132
19.9709
21.6951
23.2169
24.4761
4.79756
5.0862
5.65966
6.5099
7.62383
8.98219
10.5582
12.3163
14.2106
16.1852
18.1741
20.1036
21.8968
23.4789
24.7843
4.22334
4.52
5.11028
5.98768
7.14124
8.55422
10.2023
12.0517
14.0574
16.1615
18.2935
20.372
22.3089
24.017
25.4186
3.35189
3.65959
4.27321
5.18871
6.39865
7.89052
9.64444
11.6304
13.805
16.1092
18.4658
20.7812
22.9492
24.8607
26.4172
2.17222
2.49269
3.13368
4.09472
5.37355
6.96419
8.85395
11.0196
13.4226
16.0037
18.6788
21.3371
23.8452
26.0589
27.844
0.671511
1.00472
1.67356
2.68237
4.03608
5.73813
7.78695
10.1709
12.8613
15.8035
18.9078
22.0425
25.0348
27.685
29.7989
-1.16295
-0.819444
-0.12706
0.924556
2.34971
4.1647
6.38419
9.01519
12.0476
15.4407
19.1058
22.8897
26.5657
29.8468
32.4351
-3.34143
-2.99302
-2.28745
-1.20735
0.27296
2.1862
4.56931
7.45743
10.8726
14.805
19.1844
23.8443
28.4906
32.7007
35.9915
-5.86883
-5.52425
-4.82291
-3.73998
-2.23727
-0.262731
2.24886
5.37197
9.17984
13.7218
18.9816
24.8116
30.8513
36.473
40.8533
-8.74131
-8.41275
-7.74046
-6.6929
-5.21986
-3.24925
-0.683688
2.60118
6.75233
11.9201
18.2081
25.5687
33.629
41.486
47.6736
-11.9428
-11.6455
-11.0338
-10.0718
-8.70053
-6.83123
-4.33607
-1.03647
3.30759
8.9977
16.3613
25.6254
36.6093
48.1675
57.6415
-15.4422
-15.193
-14.6778
-13.8604
-12.6797
-11.0396
-8.79337
-5.71908
-1.48375
4.40119
12.6132
23.9617
39.0143
56.9323
73.1355
-19.1911
-19.0069
-18.6245
-18.0129
-17.1187
-15.8545
-14.0792
-11.5632
-7.92523
-2.52298
5.72819
18.5928
38.5531
67.4108
99.5459
-23.1246
-23.0196
-22.8007
-22.4484
-21.9281
-21.1808
-20.1063
-18.5297
-16.1315
-12.2966
-5.77101
6.12755
29.1932
74.6106
151.216
-27.1636
-27.1464
-27.1106
-27.0524
-26.9649
-26.8346
-26.6359
-26.3181
-25.7747
-24.7614
-22.6438
-17.5056
-2.51952
50.6203
274.384
25.3723
25.9306
26.2483
26.3275
26.1782
25.8165
25.263
24.5407
23.673
22.683
21.5919
20.4189
19.1808
17.8919
16.5644
15.2086
13.833
12.445
11.0507
9.65533
8.26339
6.87875
5.50474
4.14417
2.79945
1.47256
0.165084
-1.12172
-2.38695
-3.63004
-4.85068
-6.04884
-7.22467
-8.37845
-9.51053
-10.6212
-11.7107
-12.779
-13.8261
-14.8517
-15.8554
-16.8367
-17.7953
-18.7311
-19.6441
-20.5347
-21.4037
-22.2519
-23.0804
-23.8905
-24.683
-25.4587
-26.2178
-26.96
-27.6846
-28.3905
-29.0761
-29.7398
-30.3797
-30.9945
-31.5825
-32.1427
-32.6739
-33.1749
-33.6444
-34.0806
-34.4809
-34.8419
-35.1593
-35.4277
-35.6411
-35.7928
-35.876
-35.884
-35.8105
-35.6504
-35.3993
-35.0548
-34.6155
-34.0819
-33.4561
-32.7418
-31.9443
-31.0706
-30.1291
-29.1301
-28.085
-27.0065
-25.9084
-24.8048
25.7078
26.2762
26.5911
26.656
26.4833
26.0921
25.5056
24.7493
23.8486
22.8279
21.7093
20.5122
19.2534
17.947
16.6048
15.2366
13.8506
12.4538
11.0519
9.6501
8.25262
6.86323
5.48517
4.12119
2.77363
1.44445
0.135217
-1.15286
-2.41891
-3.66239
-4.88307
-6.08099
-7.25639
-8.40967
-9.54128
-10.6516
-11.741
-12.8095
-13.857
-14.8831
-15.8874
-16.8692
-17.828
-18.7637
-19.6761
-20.5657
-21.4333
-22.2799
-23.1068
-23.9154
-24.707
-25.4823
-26.2417
-26.985
-27.7113
-28.4193
-29.1074
-29.7735
-30.4157
-31.0325
-31.6223
-32.184
-32.7168
-33.2198
-33.692
-34.1319
-34.537
-34.9043
-35.2293
-35.5064
-35.7294
-35.891
-35.9839
-36.0008
-35.935
-35.7807
-35.5336
-35.1907
-34.7508
-34.2142
-33.5831
-32.8611
-32.0537
-31.1677
-30.2117
-29.1961
-28.1325
-27.0344
-25.916
-24.7922
26.3985
26.9864
27.2931
27.3258
27.1024
26.6481
25.9922
25.1652
24.1966
23.1134
21.9392
20.694
19.3942
18.0533
16.6822
15.2899
13.8835
12.4694
11.0528
9.63835
8.22995
6.83119
5.44512
4.07437
2.72121
1.38751
0.0747809
-1.2158
-2.48342
-3.72762
-4.94826
-6.14555
-7.31993
-8.47204
-9.60258
-10.7122
-11.8013
-12.8702
-13.9185
-14.9459
-15.9515
-16.9345
-17.894
-18.8295
-19.7408
-20.6282
-21.4928
-22.3359
-23.1592
-23.9648
-24.7541
-25.5285
-26.2885
-27.034
-27.764
-28.4767
-29.1698
-29.8411
-30.4881
-31.1089
-31.7021
-32.2667
-32.8023
-33.3088
-33.7858
-34.2326
-34.6474
-35.0272
-35.3677
-35.6628
-35.9056
-36.0878
-36.2008
-36.2362
-36.1863
-36.0443
-35.8053
-35.466
-35.0248
-34.4823
-33.8405
-33.1032
-32.2757
-31.3651
-30.3799
-29.3306
-28.2296
-27.0912
-25.9311
-24.7657
27.4856
28.1009
28.3888
28.3638
28.0535
27.4938
26.7244
25.7843
24.709
23.5294
22.2709
20.9537
19.5936
18.2026
16.7899
15.3628
13.9273
12.4884
11.0504
9.61751
8.19317
6.78065
5.38279
4.00207
2.64062
1.30023
-0.0176454
-1.31189
-2.58173
-3.82679
-5.04711
-6.24309
-7.41552
-8.56544
-9.69396
-10.8021
-11.8908
-12.9602
-14.0101
-15.0398
-16.0481
-17.0334
-17.9944
-18.9299
-19.8395
-20.7235
-21.583
-22.42
-23.2371
-24.037
-24.8223
-25.595
-26.356
-27.1052
-27.8412
-28.5617
-29.2635
-29.9433
-30.5979
-31.2248
-31.8226
-32.3906
-32.9293
-33.4396
-33.9227
-34.3789
-34.8076
-35.2064
-35.5708
-35.8943
-36.1685
-36.3836
-36.5289
-36.5941
-36.5696
-36.4472
-36.2211
-35.8873
-35.4444
-34.8928
-34.2349
-33.4746
-32.6172
-31.6695
-30.6399
-29.5391
-28.3802
-27.1789
-25.9532
-24.7225
29.039
29.6859
29.9346
29.812
29.3628
28.6409
27.702
26.5973
25.371
24.0584
22.6865
21.2749
19.8372
18.3827
16.9179
15.4476
13.9756
12.5055
11.0405
9.58403
8.13914
6.70878
5.29557
3.90183
2.52955
1.1804
-0.144206
-1.44318
-2.71577
-3.96165
-5.181
-6.37454
-7.54352
-8.68958
-9.81456
-10.9202
-12.0078
-13.078
-14.1307
-15.1645
-16.1775
-17.1673
-18.1313
-19.0675
-19.975
-20.8537
-21.7053
-22.5326
-23.3395
-24.1301
-24.9085
-25.678
-26.4401
-27.1949
-27.9405
-28.6732
-29.3885
-30.0813
-30.7471
-31.3824
-31.9855
-32.5563
-33.0967
-33.6094
-34.0978
-34.5644
-35.0104
-35.4345
-35.8323
-36.1964
-36.5162
-36.7793
-36.972
-37.0808
-37.0932
-36.9992
-36.7914
-36.4654
-36.0199
-35.4559
-34.7764
-33.9854
-33.0883
-32.0913
-31.002
-29.8309
-28.5914
-27.3014
-25.9821
-24.6578
31.1677
31.8438
32.0144
31.7297
31.0639
30.1
28.9175
27.5849
26.1566
24.6723
23.1589
21.6332
20.1043
18.5771
17.0534
15.5344
14.021
12.5148
11.0181
9.53358
8.06394
6.61197
5.18013
3.77054
2.38502
1.02513
-0.30778
-1.61255
-2.88833
-4.13474
-5.35205
-6.54135
-7.70449
-8.84405
-9.96294
-11.0641
-12.1497
-13.2212
-14.2782
-15.319
-16.3402
-17.338
-18.3079
-19.2465
-20.1514
-21.0227
-21.8623
-22.6744
-23.4649
-24.2404
-25.0074
-25.7711
-26.5345
-27.2977
-28.0579
-28.8096
-29.5455
-30.2579
-30.9397
-31.586
-32.1943
-32.7656
-33.3034
-33.8139
-34.3037
-34.7792
-35.2444
-35.7001
-36.1421
-36.5616
-36.9451
-37.2759
-37.5356
-37.7057
-37.7698
-37.7146
-37.5313
-37.2151
-36.7656
-36.185
-35.4777
-34.6487
-33.7029
-32.6454
-31.4818
-30.2206
-28.8753
-27.4655
-26.018
-24.5646
34.0403
34.7288
34.7491
34.1956
33.1939
31.8733
30.3484
28.7097
27.0222
25.3274
23.6486
21.9953
20.3688
18.766
17.1819
15.6126
14.0555
12.5102
10.978
9.46136
7.96308
6.48597
5.03245
3.60443
2.20345
0.83087
-0.511971
-1.82373
-3.10323
-4.34975
-5.56347
-6.74579
-7.89941
-9.02821
-10.1369
-11.2301
-12.312
-13.385
-14.449
-15.5013
-16.5367
-17.5485
-18.5295
-19.4735
-20.3763
-21.2371
-22.0586
-22.8471
-23.6117
-24.3628
-25.1108
-25.8643
-26.6287
-27.4044
-28.1872
-28.9683
-29.736
-30.478
-31.1833
-31.8438
-32.4562
-33.0224
-33.5493
-34.0477
-34.5299
-35.0082
-35.4919
-35.9848
-36.4838
-36.9781
-37.4494
-37.8745
-38.2275
-38.4828
-38.6175
-38.6142
-38.4619
-38.1565
-37.6995
-37.0962
-36.354
-35.4797
-34.4781
-33.3517
-32.1016
-30.7314
-29.2514
-27.6835
-26.0622
-24.4323
37.9218
38.5753
38.3094
37.3062
35.7824
33.9405
31.9426
29.9043
27.8975
25.9593
24.101
22.3184
20.5989
18.9272
17.2889
15.6729
14.0728
12.4865
10.9153
9.36242
7.83148
6.32582
4.84788
3.39922
1.98085
0.593683
-0.761004
-2.08144
-3.36565
-4.61201
-5.82014
-6.99154
-8.13001
-9.24136
-10.3329
-11.4124
-12.4871
-13.5615
-14.6365
-15.7078
-16.7671
-17.8032
-18.8043
-19.7595
-20.6615
-21.5078
-22.3022
-23.054
-23.7776
-24.4893
-25.2059
-25.9418
-26.7062
-27.5008
-28.3188
-29.1458
-29.9631
-30.7508
-31.491
-32.1706
-32.7843
-33.3355
-33.836
-34.3041
-34.7614
-35.2293
-35.7255
-36.2601
-36.8321
-37.4272
-38.0199
-38.5766
-39.0599
-39.433
-39.6636
-39.7279
-39.6127
-39.3158
-38.8434
-38.2072
-37.4201
-36.4934
-35.4326
-34.2357
-32.8941
-31.3997
-29.7539
-27.9779
-26.1185
-24.244
43.2434
43.7449
42.9309
41.1657
38.8287
36.2317
33.5947
31.0529
28.6739
26.4754
24.4438
22.5501
20.7598
19.0401
17.3633
15.7101
14.0699
12.4407
10.826
9.2316
7.6633
6.12558
4.62098
3.15027
1.7132
0.309624
-1.05943
-2.3914
-3.6826
-4.92936
-6.12966
-7.28472
-8.39962
-9.48298
-10.5461
-11.6017
-12.6624
-13.7373
-14.8291
-15.9315
-17.0307
-18.1083
-19.1448
-20.122
-21.0266
-21.8532
-22.6066
-23.3016
-23.9603
-24.6085
-25.273
-25.9778
-26.7398
-27.5633
-28.4369
-29.3369
-30.2326
-31.0918
-31.8854
-32.592
-33.202
-33.721
-34.1689
-34.5759
-34.9773
-35.4091
-35.9033
-36.4814
-37.1466
-37.8795
-38.6418
-39.3838
-40.0504
-40.5878
-40.9488
-41.0996
-41.0247
-40.7272
-40.2229
-39.5348
-38.687
-37.6998
-36.5828
-35.3275
-33.9064
-32.2857
-30.4438
-28.3919
-26.1964
-23.9719
50.7474
50.808
48.9213
45.8476
42.2488
38.5801
35.1091
31.9667
29.19
26.7506
24.5878
22.6323
20.8186
19.0906
17.4036
15.728
14.0508
12.3739
10.7073
9.06294
7.45087
5.87748
4.34511
2.85276
1.39721
-0.0242433
-1.41132
-2.76012
-4.06356
-5.31362
-6.50435
-7.6357
-8.7146
-9.75369
-10.77
-11.7838
-12.817
-13.8885
-15.0063
-16.1597
-17.3251
-18.4725
-19.5704
-20.5888
-21.5039
-22.3038
-22.9948
-23.6012
-24.1576
-24.704
-25.2818
-25.9313
-26.6846
-27.5532
-28.5168
-29.534
-30.5542
-31.5268
-32.4049
-33.1522
-33.7505
-34.2085
-34.5604
-34.8553
-35.1489
-35.4987
-35.9601
-36.5767
-37.3631
-38.2889
-39.2928
-40.2989
-41.2267
-41.9963
-42.5364
-42.7957
-42.7569
-42.4358
-41.8668
-41.092
-40.1542
-39.0928
-37.9316
-36.6578
-35.2056
-33.49
-31.4355
-29.0123
-26.316
-23.5634
61.8101
60.6745
56.62
51.2845
45.7682
40.6428
36.1498
32.3534
29.2198
26.6272
24.4329
22.5098
20.7538
19.0814
17.4273
15.7479
14.0307
12.292
10.5561
8.84758
7.1825
5.57012
4.01146
2.50211
1.03201
-0.407713
-1.81838
-3.19421
-4.52141
-5.78334
-6.9645
-8.06218
-9.08683
-10.0572
-10.9973
-11.9378
-12.9162
-13.973
-15.132
-16.3704
-17.6453
-18.9079
-20.1104
-21.2042
-22.1468
-22.9107
-23.5047
-23.9724
-24.3693
-24.754
-25.1872
-25.7349
-26.4628
-27.406
-28.5194
-29.7261
-30.9442
-32.0974
-33.1123
-33.9264
-34.5006
-34.8483
-35.0336
-35.1361
-35.2391
-35.4273
-35.793
-36.427
-37.3785
-38.5852
-39.9401
-41.3263
-42.6303
-43.7346
-44.5276
-44.9205
-44.8952
-44.5007
-43.8066
-42.8832
-41.799
-40.6288
-39.4421
-38.2444
-36.8839
-35.1816
-32.958
-30.0254
-26.5162
-22.9072
79.2429
74.7428
66.1628
56.9808
48.7233
41.7935
36.1862
31.7851
28.4701
25.9296
23.8871
22.1461
20.5681
19.0454
17.4868
15.822
14.0413
12.2055
10.3653
8.56936
6.83802
5.18517
3.60659
2.09481
0.622949
-0.833129
-2.27568
-3.69838
-5.07327
-6.36938
-7.54485
-8.59378
-9.5372
-10.404
-11.2242
-12.0372
-12.9025
-13.91
-15.1433
-16.5283
-17.9831
-19.4295
-20.8066
-22.0369
-23.0468
-23.7621
-24.1962
-24.4452
-24.598
-24.734
-24.9271
-25.2788
-25.9308
-27.0135
-28.3871
-29.9016
-31.4272
-32.8669
-34.1083
-35.0458
-35.5762
-35.7217
-35.6254
-35.4157
-35.2061
-35.0999
-35.2388
-35.8199
-37.0259
-38.6677
-40.5416
-42.4715
-44.3211
-45.9207
-47.0942
-47.6471
-47.5643
-46.9966
-46.0761
-44.9053
-43.567
-42.1881
-40.9679
-40.0647
-39.054
-37.6231
-35.5011
-31.8686
-26.8595
-21.735
109.497
94.6848
76.5721
61.3461
49.7668
41.0394
34.4852
29.6523
26.6046
24.5144
22.9066
21.5475
20.3022
19.0607
17.6992
16.0625
14.1309
12.1252
10.1104
8.198
6.38036
4.69316
3.10544
1.62991
0.191098
-1.27809
-2.76159
-4.2714
-5.73855
-7.12912
-8.30737
-9.27728
-10.0978
-10.8181
-11.4611
-12.0611
-12.6838
-13.522
-14.9359
-16.5857
-18.3325
-20.0508
-21.714
-23.1865
-24.371
-25.0181
-25.1539
-25.0564
-24.8506
-24.6315
-24.4384
-24.3898
-24.7785
-26.2016
-28.0515
-30.0607
-32.0334
-33.9215
-35.5415
-36.751
-37.2056
-36.943
-36.3802
-35.6946
-35.0242
-34.4191
-34.0475
-34.3124
-36.0455
-38.4155
-41.062
-43.7319
-46.3713
-48.72
-50.5541
-51.2885
-50.9313
-50
-48.7055
-47.1682
-45.393
-43.5185
-42.0369
-42.0396
-41.8285
-41.0596
-40.219
-35.6935
-27.369
-19.3328
169.327
119.378
82.8225
60.4589
46.7024
37.1552
30.3049
24.9482
23.3599
22.4042
21.5674
20.7845
20.0305
19.2483
18.3074
16.7271
14.3269
12.0578
9.70777
7.68989
5.73463
4.05772
2.44255
1.11204
-0.197121
-1.7025
-3.20967
-4.90589
-6.51411
-8.19459
-9.36984
-10.1759
-10.8026
-11.3432
-11.76
-12.0523
-12.1546
-12.3046
-14.3887
-16.503
-18.7229
-20.7513
-22.8957
-24.7508
-26.4685
-27.0101
-26.4472
-25.8232
-25.1222
-24.4912
-23.7415
-22.8708
-22.1364
-24.7747
-27.4863
-30.272
-32.7611
-35.3619
-37.5654
-39.5427
-39.8674
-38.596
-37.3115
-35.951
-34.7476
-33.4018
-31.9391
-30.6902
-34.1474
-37.7647
-41.5482
-45.0358
-48.8393
-52.2596
-55.597
-56.5011
-55.1241
-53.5259
-51.6837
-49.7732
-47.3615
-44.2822
-40.9679
-44.3219
-45.4055
-44.5988
-50.2425
-44.9884
-27.4627
-13.6958
307.21
124.784
68.6355
47.1764
37.576
29.3866
23.9736
14.817
19.2039
20.1225
20.1501
19.9795
19.7991
19.664
19.8362
18.5718
14.3338
12.1068
8.82655
7.09143
4.68791
3.33323
1.36967
0.563339
-0.302863
-2.12437
-3.38554
-5.66713
-7.18559
-9.98756
-10.9639
-11.3327
-11.6312
-12.0464
-12.2382
-12.317
-11.5566
-8.30194
-13.7981
-16.268
-19.389
-21.2843
-24.4937
-26.5127
-30.2593
-30.5921
-27.8284
-26.7006
-25.2927
-24.5215
-23.2184
-21.1551
-14.6375
-23.2422
-26.8138
-30.9102
-33.3276
-37.3739
-39.9148
-44.7135
-44.8273
-40.2674
-38.3517
-35.9809
-34.6756
-32.5523
-29.5227
-20.2908
-32.0186
-36.8739
-42.46
-45.8843
-51.8587
-55.9179
-64.1432
-64.9979
-59.6349
-57.4024
-54.7595
-53.0995
-50.2907
-45.3841
-30.2957
-49.8733
-51.7039
-38.8491
-75.9582
-71.954
-22.1434
0.606527
-23.6019
-22.3211
-21.0942
-19.9384
-18.8671
-17.8898
-17.0121
-16.237
-15.5651
-14.9954
-14.5258
-14.154
-13.8777
-13.6947
-13.6036
-23.5683
-22.2668
-21.0227
-19.8537
-18.773
-17.7898
-16.9093
-16.1337
-15.4628
-14.895
-14.4279
-14.0585
-13.7841
-13.6026
-13.5123
-23.4986
-22.155
-20.876
-19.6803
-18.5812
-17.5869
-16.7014
-15.9253
-15.2571
-14.6939
-14.2319
-13.8676
-13.5976
-13.4192
-13.3305
-23.3875
-21.9782
-20.6457
-19.4101
-18.2843
-17.275
-16.3838
-15.6089
-14.9464
-14.3912
-13.9382
-13.5823
-13.3193
-13.1459
-13.0598
-23.226
-21.7243
-20.3183
-19.0298
-17.8707
-16.8447
-15.9497
-15.1799
-14.5281
-13.9863
-13.5471
-13.2039
-12.9513
-12.7852
-12.7028
-23.0003
-21.3743
-19.8731
-18.5199
-17.3238
-16.2832
-15.39
-14.6328
-13.9996
-13.4786
-13.0599
-12.7348
-12.4967
-12.3406
-12.2633
-22.6886
-20.8993
-19.2796
-17.8527
-16.6212
-15.5742
-14.6941
-13.9616
-13.3585
-12.8686
-12.4788
-12.1785
-11.9598
-11.817
-11.7465
-22.2562
-20.2546
-18.493
-16.99
-15.7339
-14.6979
-13.8503
-13.161
-12.604
-12.1585
-11.808
-11.5405
-11.3468
-11.2209
-11.1589
-21.6456
-19.3695
-17.4476
-15.88
-14.6264
-13.6331
-12.8481
-12.2277
-11.7379
-11.353
-11.0543
-10.8284
-10.666
-10.5609
-10.5092
-20.7547
-18.13
-16.0476
-14.4559
-13.2586
-12.3597
-11.681
-11.1638
-10.7668
-10.4612
-10.2276
-10.0526
-9.92774
-9.84722
-9.80775
-19.3914
-16.3478
-14.1569
-12.6372
-11.592
-10.8662
-10.3522
-9.97969
-9.70411
-9.49739
-9.34194
-9.22675
-9.14497
-9.09241
-9.06667
-17.1703
-13.7126
-11.5946
-10.3439
-9.60597
-9.16071
-8.88168
-8.69851
-8.57244
-8.48216
-8.41594
-8.36734
-8.33287
-8.31065
-8.29974
-13.2823
-9.73776
-8.16493
-7.53768
-7.32712
-7.28888
-7.31523
-7.36013
-7.40487
-7.44275
-7.4722
-7.49371
-7.50842
-7.51749
-7.52179
-5.9904
-3.79104
-3.78957
-4.31467
-4.87584
-5.35239
-5.73014
-6.0218
-6.24407
-6.41169
-6.53632
-6.62678
-6.68951
-6.72899
-6.74805
8.40129
4.35361
1.11243
-1.05554
-2.50913
-3.51464
-4.23107
-4.75277
-5.13785
-5.42354
-5.63452
-5.78749
-5.89376
-5.96083
-5.99328
-30.882
-30.9468
-31.082
-31.3
-31.6214
-32.0802
-32.7307
-33.6645
-35.0456
-37.2001
-40.8798
-48.1969
-66.5641
-127.777
-390.029
-34.2176
-34.353
-34.6353
-35.0897
-35.7596
-36.7159
-38.075
-40.0326
-42.9367
-47.4491
-54.9323
-68.4246
-95.0318
-150.347
-252
-37.4593
-37.6573
-38.0693
-38.7299
-39.6989
-41.0722
-43.0037
-45.7435
-49.7112
-55.635
-64.8121
-79.5451
-103.564
-140.735
-184.564
-40.5638
-40.8132
-41.3307
-42.1563
-43.3575
-45.0411
-47.3711
-50.6017
-55.1275
-61.5619
-70.8333
-84.2169
-102.961
-126.501
-147.562
-43.4952
-43.7831
-44.3783
-45.3218
-46.6815
-48.561
-51.1134
-54.5606
-59.2184
-65.5188
-73.9988
-85.1653
-99.0292
-113.988
-125.186
-46.2268
-46.5398
-47.1843
-48.1985
-49.6445
-51.6137
-54.2342
-57.6787
-62.1687
-67.9624
-75.2987
-84.2403
-94.336
-104.088
-110.586
-48.7411
-49.0665
-49.7335
-50.7753
-52.2443
-54.2143
-56.7829
-60.0708
-64.2135
-69.3348
-75.4841
-82.5136
-89.8816
-96.4456
-100.498
-51.0295
-51.3562
-52.0226
-53.0557
-54.4963
-56.3992
-58.8321
-61.8693
-65.5787
-69.9931
-75.0582
-80.5519
-85.9853
-90.5476
-93.2242
-53.0913
-53.4099
-54.0572
-55.0532
-56.4272
-58.2162
-60.4616
-63.201
-66.4544
-70.1995
-74.3348
-78.6319
-82.6939
-85.959
-87.809
-54.9318
-55.2354
-55.8497
-56.7882
-58.0699
-59.7164
-61.7481
-64.1758
-66.9886
-70.1349
-73.4989
-76.8751
-79.9558
-82.3529
-83.6784
-56.5615
-56.8453
-57.4172
-58.2851
-59.4593
-60.9492
-62.7597
-64.8833
-67.291
-69.9191
-72.6544
-75.3234
-77.6923
-79.4909
-80.4682
-57.9943
-58.2552
-58.7791
-59.5694
-60.6293
-61.9595
-63.5537
-65.3934
-67.4405
-69.6288
-71.856
-73.9801
-75.8247
-77.1993
-77.9366
-59.2459
-59.4825
-59.956
-60.6664
-61.6118
-62.7865
-64.1773
-65.7595
-67.492
-69.3114
-71.1292
-72.831
-74.2833
-75.3502
-75.9169
-60.3333
-60.5454
-60.9685
-61.6002
-62.4352
-63.4634
-64.6679
-66.0214
-67.4829
-68.9952
-70.483
-71.8549
-73.0097
-73.8484
-74.2906
-61.2735
-61.4617
-61.8362
-62.3929
-63.1243
-64.018
-65.0551
-66.2082
-67.4387
-68.696
-69.9172
-71.0295
-71.9554
-72.622
-72.9713
-62.0829
-62.2486
-62.5775
-63.0644
-63.7007
-64.4729
-65.3619
-66.3412
-67.3758
-68.4218
-69.4271
-70.3335
-71.0813
-71.6158
-71.8947
-62.7774
-62.9222
-63.209
-63.6322
-64.1826
-64.8467
-65.606
-66.4357
-67.3049
-68.176
-69.0057
-69.7476
-70.3553
-70.7871
-71.0116
-63.3714
-63.4971
-63.7458
-64.1117
-64.5857
-65.1546
-65.8011
-66.5029
-67.2328
-67.9588
-68.6453
-69.2549
-69.7513
-70.1024
-70.2844
-63.878
-63.9867
-64.2013
-64.5163
-64.9227
-65.4085
-65.9577
-66.5505
-67.1633
-67.769
-68.3382
-68.8409
-69.2481
-69.5351
-69.6835
-64.3092
-64.4027
-64.5872
-64.8572
-65.2047
-65.6185
-66.0841
-66.5844
-67.0987
-67.6045
-68.0774
-68.4931
-68.8285
-69.0641
-69.1857
-64.6754
-64.7556
-64.9136
-65.1444
-65.4407
-65.7923
-66.1866
-66.6083
-67.0401
-67.4629
-67.8564
-68.201
-68.4781
-68.6723
-68.7723
-64.9859
-65.0545
-65.1894
-65.3862
-65.6383
-65.9365
-66.2699
-66.6253
-66.9879
-67.3414
-67.6694
-67.9557
-68.1852
-68.3458
-68.4284
-65.2489
-65.3073
-65.4223
-65.5897
-65.8037
-66.0564
-66.338
-66.6374
-66.9418
-67.2377
-67.5115
-67.7497
-67.9403
-68.0734
-68.1418
-65.4712
-65.521
-65.6187
-65.7609
-65.9423
-66.1561
-66.3939
-66.6459
-66.9016
-67.1495
-67.3782
-67.5768
-67.7354
-67.846
-67.9028
-65.659
-65.7013
-65.7842
-65.9048
-66.0584
-66.2392
-66.4398
-66.652
-66.8667
-67.0745
-67.2658
-67.4316
-67.5638
-67.6559
-67.7031
-65.8175
-65.8533
-65.9236
-66.0258
-66.1557
-66.3084
-66.4776
-66.6563
-66.8367
-67.011
-67.1712
-67.3097
-67.4201
-67.4969
-67.5363
-65.951
-65.9814
-66.041
-66.1274
-66.2373
-66.3662
-66.5089
-66.6593
-66.811
-66.9572
-67.0915
-67.2075
-67.2997
-67.3639
-67.3967
-66.0635
-66.0892
-66.1396
-66.2128
-66.3056
-66.4145
-66.5348
-66.6614
-66.789
-66.9119
-67.0245
-67.1217
-67.1989
-67.2526
-67.28
-66.1581
-66.1799
-66.2226
-66.2844
-66.3629
-66.4548
-66.5562
-66.663
-66.7703
-66.8736
-66.9682
-67.0497
-67.1145
-67.1594
-67.1824
-66.2377
-66.2561
-66.2922
-66.3445
-66.4108
-66.4884
-66.5741
-66.664
-66.7545
-66.8414
-66.9209
-66.9894
-67.0438
-67.0815
-67.1008
-66.3044
-66.32
-66.3505
-66.3948
-66.4509
-66.5165
-66.5889
-66.6648
-66.7411
-66.8143
-66.8813
-66.9389
-66.9846
-67.0164
-67.0326
-66.3603
-66.3735
-66.3994
-66.4369
-66.4844
-66.54
-66.6011
-66.6654
-66.7298
-66.7916
-66.8481
-66.8967
-66.9352
-66.962
-66.9756
-66.407
-66.4182
-66.4402
-66.472
-66.5124
-66.5595
-66.6113
-66.6657
-66.7203
-66.7726
-66.8204
-66.8615
-66.8941
-66.9166
-66.9282
-66.4459
-66.4555
-66.4742
-66.5013
-66.5356
-66.5757
-66.6198
-66.666
-66.7124
-66.7568
-66.7973
-66.8322
-66.8598
-66.8789
-66.8887
-66.4782
-66.4863
-66.5023
-66.5255
-66.5548
-66.5891
-66.6267
-66.6662
-66.7057
-66.7436
-66.7782
-66.8079
-66.8315
-66.8478
-66.8561
-66.5047
-66.5118
-66.5255
-66.5455
-66.5707
-66.6001
-66.6324
-66.6663
-66.7003
-66.7328
-66.7625
-66.7879
-66.8081
-66.8221
-66.8292
-66.5264
-66.5325
-66.5445
-66.5617
-66.5836
-66.6091
-66.6371
-66.6664
-66.6958
-66.7239
-66.7496
-66.7716
-66.7891
-66.8012
-66.8074
-66.5439
-66.5493
-66.5597
-66.5748
-66.594
-66.6163
-66.6408
-66.6665
-66.6922
-66.7168
-66.7393
-66.7585
-66.7738
-66.7844
-66.7898
-66.5577
-66.5624
-66.5717
-66.5851
-66.6021
-66.622
-66.6437
-66.6665
-66.6894
-66.7112
-66.7311
-66.7482
-66.7617
-66.7711
-66.7759
-66.5681
-66.5724
-66.5808
-66.593
-66.6084
-66.6263
-66.646
-66.6666
-66.6872
-66.7069
-66.7249
-66.7404
-66.7526
-66.7611
-66.7654
-66.5756
-66.5796
-66.5874
-66.5986
-66.6128
-66.6294
-66.6476
-66.6666
-66.6857
-66.7039
-66.7205
-66.7348
-66.746
-66.7539
-66.7579
-66.5803
-66.5841
-66.5915
-66.6021
-66.6156
-66.6313
-66.6486
-66.6666
-66.6847
-66.702
-66.7177
-66.7312
-66.7419
-66.7493
-66.7531
-66.5824
-66.5861
-66.5933
-66.6037
-66.6168
-66.6322
-66.649
-66.6666
-66.6842
-66.7011
-66.7165
-66.7296
-66.7401
-66.7473
-66.751
-66.582
-66.5857
-66.5929
-66.6034
-66.6166
-66.632
-66.6489
-66.6666
-66.6843
-66.7013
-66.7167
-66.73
-66.7405
-66.7477
-66.7514
-66.579
-66.5828
-66.5903
-66.6011
-66.6148
-66.6308
-66.6483
-66.6666
-66.685
-66.7025
-66.7185
-66.7322
-66.7431
-66.7506
-66.7544
-66.5733
-66.5774
-66.5854
-66.5969
-66.6114
-66.6284
-66.6471
-66.6666
-66.6861
-66.7048
-66.7218
-66.7365
-66.748
-66.756
-66.7601
-66.5648
-66.5693
-66.578
-66.5905
-66.6064
-66.6249
-66.6453
-66.6666
-66.6879
-66.7083
-66.7269
-66.7428
-66.7555
-66.7642
-66.7687
-66.5533
-66.5582
-66.5679
-66.5819
-66.5995
-66.6202
-66.6428
-66.6666
-66.6903
-66.713
-66.7337
-66.7515
-66.7656
-66.7753
-66.7803
-66.5383
-66.5439
-66.5548
-66.5706
-66.5906
-66.614
-66.6396
-66.6665
-66.6934
-66.7191
-66.7426
-66.7627
-66.7787
-66.7897
-66.7954
-66.5194
-66.5258
-66.5383
-66.5565
-66.5794
-66.6062
-66.6356
-66.6664
-66.6973
-66.7268
-66.7538
-66.7769
-66.7952
-66.8079
-66.8144
-66.496
-66.5035
-66.518
-66.539
-66.5656
-66.5966
-66.6307
-66.6664
-66.7021
-66.7364
-66.7676
-66.7944
-66.8157
-66.8304
-66.8379
-66.4676
-66.4762
-66.4931
-66.5176
-66.5486
-66.5848
-66.6246
-66.6662
-66.708
-66.748
-66.7845
-66.8158
-66.8406
-66.8578
-66.8666
-66.4331
-66.4432
-66.463
-66.4917
-66.5281
-66.5705
-66.6171
-66.6661
-66.7151
-66.762
-66.8049
-66.8417
-66.8709
-66.8911
-66.9015
-66.3915
-66.4035
-66.4268
-66.4605
-66.5033
-66.5532
-66.6082
-66.6658
-66.7236
-66.7789
-66.8295
-66.873
-66.9074
-66.9313
-66.9435
-66.3417
-66.3558
-66.3833
-66.4231
-66.4736
-66.5325
-66.5974
-66.6654
-66.7337
-66.7992
-66.859
-66.9105
-66.9513
-66.9795
-66.994
-66.2822
-66.2988
-66.3313
-66.3783
-66.4379
-66.5076
-66.5844
-66.6649
-66.7458
-66.8234
-66.8943
-66.9554
-67.0038
-67.0373
-67.0545
-66.2111
-66.2307
-66.2691
-66.3248
-66.3953
-66.4778
-66.5687
-66.6642
-66.7602
-66.8523
-66.9365
-67.0091
-67.0666
-67.1065
-67.127
-66.1264
-66.1496
-66.1951
-66.2609
-66.3444
-66.4421
-66.5499
-66.6632
-66.7771
-66.8866
-66.9868
-67.0732
-67.1417
-67.1893
-67.2136
-66.0257
-66.0531
-66.1068
-66.1847
-66.2836
-66.3994
-66.5273
-66.6618
-66.7972
-66.9275
-67.0468
-67.1496
-67.2314
-67.2881
-67.3172
-65.9059
-65.9383
-66.0018
-66.094
-66.211
-66.3483
-66.5
-66.6598
-66.8208
-66.9759
-67.1181
-67.2408
-67.3384
-67.4062
-67.4409
-65.7636
-65.8018
-65.8769
-65.9859
-66.1245
-66.2871
-66.4671
-66.657
-66.8485
-67.0333
-67.2028
-67.3494
-67.4661
-67.5472
-67.5887
-65.5947
-65.6399
-65.7285
-65.8573
-66.0213
-66.2139
-66.4274
-66.653
-66.8809
-67.1011
-67.3036
-67.4789
-67.6185
-67.7156
-67.7654
-65.3944
-65.4477
-65.5523
-65.7043
-65.8981
-66.1262
-66.3794
-66.6474
-66.9187
-67.1814
-67.4233
-67.633
-67.8003
-67.9169
-67.9767
-65.1572
-65.2199
-65.3431
-65.5223
-65.7512
-66.0209
-66.3211
-66.6395
-66.9625
-67.276
-67.5653
-67.8167
-68.0175
-68.1575
-68.2295
-64.8764
-64.9501
-65.0949
-65.306
-65.5758
-65.8946
-66.2501
-66.6283
-67.013
-67.3873
-67.7337
-68.0354
-68.2768
-68.4455
-68.5322
-64.5445
-64.6308
-64.8008
-65.0488
-65.3665
-65.7427
-66.1635
-66.6125
-67.0707
-67.518
-67.9332
-68.2958
-68.5868
-68.7903
-68.8951
-64.1526
-64.2536
-64.4525
-64.7432
-65.1165
-65.5599
-66.0575
-66.5902
-67.136
-67.6709
-68.1693
-68.606
-68.9574
-69.2038
-69.3308
-63.6906
-63.8083
-64.0404
-64.3803
-64.8179
-65.3394
-65.927
-66.5587
-67.209
-67.8491
-68.4483
-68.9753
-69.4009
-69.7001
-69.8546
-63.147
-63.2836
-63.5534
-63.9495
-64.4611
-65.0731
-65.7658
-66.5144
-67.2891
-68.0558
-68.7773
-69.415
-69.9322
-70.297
-70.4857
-62.5086
-62.6664
-62.9787
-63.4385
-64.0345
-64.7508
-65.5658
-66.4519
-67.3747
-68.2939
-69.1644
-69.9385
-70.5694
-71.0161
-71.2477
-61.7605
-61.942
-62.3017
-62.8329
-63.5245
-64.36
-65.3166
-66.3638
-67.4627
-68.5659
-69.6186
-70.5613
-71.3345
-71.8845
-72.1706
-60.8864
-61.0938
-61.5057
-62.116
-62.9145
-63.8851
-65.0044
-66.2398
-67.5477
-68.8729
-70.1491
-71.3018
-72.2544
-72.9362
-73.2921
-59.8684
-60.1036
-60.5718
-61.2685
-62.185
-63.3069
-64.6117
-66.0655
-67.6208
-69.214
-70.7652
-72.1813
-73.3624
-74.214
-74.6608
-58.6872
-58.9515
-59.4794
-60.2684
-61.3129
-62.6018
-64.1154
-65.8207
-67.6675
-69.5841
-71.4753
-73.2239
-74.6993
-75.773
-76.3397
-57.3224
-57.6166
-58.2057
-59.0908
-60.271
-61.7408
-63.486
-65.4776
-67.6658
-69.972
-72.2842
-74.4561
-76.3151
-77.6839
-78.412
-55.7535
-56.0768
-56.7265
-57.7083
-59.028
-60.6887
-62.6854
-64.9982
-67.582
-70.3557
-73.1907
-75.9054
-78.2713
-80.0397
-80.9899
-53.9601
-54.3103
-55.0169
-56.0913
-57.5483
-59.4032
-61.6654
-64.3304
-67.3664
-70.6967
-74.1807
-77.5969
-80.6425
-82.9634
-84.2276
-51.9235
-52.2965
-53.052
-54.2086
-55.7925
-57.8348
-60.3657
-63.4052
-66.9463
-70.9311
-75.2176
-79.5456
-83.5167
-86.621
-88.343
-49.6281
-50.0171
-50.8086
-52.0292
-53.7184
-55.9271
-58.7129
-62.1315
-66.2182
-70.9558
-76.2257
-81.7421
-86.9928
-91.2384
-93.6541
-47.0625
-47.4584
-48.2673
-49.5244
-51.2837
-53.6186
-56.6207
-60.394
-65.0379
-70.6109
-77.0625
-84.1231
-91.1668
-97.1265
-100.643
-44.2223
-44.6129
-45.4149
-46.6711
-48.4494
-50.8468
-53.9931
-58.052
-63.2124
-69.6558
-77.4763
-86.5155
-96.0935
-104.711
-110.073
-41.1109
-41.482
-42.2473
-43.4553
-45.1853
-47.555
-50.7318
-54.9452
-60.4958
-67.7444
-77.0436
-88.5338
-101.687
-114.557
-123.226
-37.7419
-38.0774
-38.7723
-39.8772
-41.4771
-43.7029
-46.7507
-50.9099
-56.6001
-64.4089
-75.0893
-89.3972
-107.477
-127.32
-142.399
-34.1402
-34.4236
-35.0127
-35.9556
-37.3344
-39.28
-41.9979
-45.8113
-51.2333
-59.0793
-70.6158
-87.6413
-112.042
-143.39
-172.043
-30.3418
-30.5577
-31.0077
-31.7315
-32.7982
-34.3211
-36.4845
-39.5958
-44.1831
-51.187
-62.3305
-80.7641
-111.781
-161.331
-221.585
-26.3938
-26.5295
-26.8127
-27.2695
-27.9456
-28.9174
-30.313
-32.3555
-35.4548
-40.4201
-48.9826
-65.1484
-98.6505
-171.839
-312.968
-22.3518
-22.399
-22.4974
-22.6553
-22.8878
-23.2195
-23.6925
-24.3813
-25.4308
-27.1555
-30.3549
-37.4938
-57.9597
-135.165
-502.356
-18.2773
-18.2334
-18.141
-17.9898
-17.7613
-17.4238
-16.9222
-16.1571
-14.9383
-12.8672
-8.99187
-0.58439
22.133
102.89
474.129
-14.2337
-14.1018
-13.8257
-13.3782
-12.7108
-11.7424
-10.3351
-8.24809
-5.03804
0.167516
9.22335
26.3873
61.9202
139.219
287.56
-10.2819
-10.0707
-9.62982
-8.91945
-7.86975
-6.36598
-4.2203
-1.1194
3.47592
10.5278
21.8073
40.6023
72.7024
126.212
204.013
27.1584
11.0802
4.62213
1.27717
-0.750348
-2.09499
-3.03537
-3.71469
-4.21485
-4.58614
-4.86099
-5.06088
-5.20019
-5.28836
-5.33109
17.1691
10.5146
5.65084
2.4829
0.374333
-1.08513
-2.12963
-2.89537
-3.46522
-3.89182
-4.20978
-4.44234
-4.60515
-4.70852
-4.75872
11.8007
8.70526
5.50187
2.95292
1.04824
-0.363415
-1.41746
-2.21207
-2.81503
-3.2729
-3.61785
-3.87221
-4.05135
-4.16557
-4.22117
8.58192
6.97083
4.89837
2.97552
1.37976
0.109958
-0.88544
-1.66184
-2.26558
-2.73237
-3.0888
-3.35426
-3.5426
-3.66328
-3.7222
6.48186
5.55674
4.19094
2.77094
1.48492
0.392768
-0.505497
-1.23149
-1.81121
-2.26846
-2.62289
-2.88985
-3.08081
-3.20384
-3.26411
5.02418
4.44862
3.52111
2.47329
1.45542
0.540934
-0.245183
-0.90271
-1.44188
-1.87593
-2.2177
-2.4782
-2.66615
-2.78797
-2.84784
3.96615
3.58488
2.93481
2.15481
1.35412
0.599949
-0.0741666
-0.656118
-1.14552
-1.54747
-1.86894
-2.1169
-2.29739
-2.41508
-2.47314
3.17285
2.90778
2.4387
1.85068
1.22051
0.603363
0.0328478
-0.47379
-0.909892
-1.27488
-1.5712
-1.80244
-1.97222
-2.08359
-2.13872
2.5636
2.37232
2.02518
1.57581
1.07783
0.57439
0.0955024
-0.340439
-0.723639
-1.04997
-1.31864
-1.53064
-1.68759
-1.79114
-1.84257
2.08715
1.94507
1.68262
1.3347
0.938926
0.528362
0.128333
-0.243712
-0.576876
-0.865076
-1.10544
-1.29705
-1.44002
-1.53486
-1.58212
1.70936
1.60139
1.39941
1.1268
0.81029
0.475013
0.141729
-0.173982
-0.461331
-0.713396
-0.926088
-1.09724
-1.22586
-1.31162
-1.35448
1.40653
1.32299
1.16523
0.949366
0.694681
0.420277
0.142919
-0.123947
-0.370285
-0.58905
-0.775576
-0.926945
-1.04145
-1.11815
-1.15659
1.16171
1.09612
0.971379
0.798889
0.592758
0.367588
0.136823
-0.0881672
-0.298384
-0.487088