/*--------------------------------*- C++ -*----------------------------------*\
| =========                 |                                                 |
| \\      /  F ield         | OpenFOAM: The Open Source CFD Toolbox           |
|  \\    /   O peration     | Version:  5.x                                   |
|   \\  /    A nd           | Web:      www.OpenFOAM.org                      |
|    \\/     M anipulation  |                                                 |
\*---------------------------------------------------------------------------*/
FoamFile
{
    version     2.0;
    format      ascii;
    class       volScalarField;
    location    "5.7";
    object      T;
}
// * * * * * * * * * * * * * * * * * * * * * * * * * * * * * * * * * * * * * //

dimensions      [0 0 0 1 0 0 0];

internalField   nonuniform List<scalar> 
6300
(
10.6745
12.0272
13.3905
14.7715
16.1764
17.6114
19.0812
20.5899
22.14
23.7323
25.3656
27.0368
28.7402
30.468
32.2106
10.6709
12.0164
13.3728
14.7473
16.1464
17.5762
19.0421
20.5483
22.0975
23.6909
25.3275
27.0042
28.7153
30.4529
32.2067
10.6636
11.9947
13.3371
14.6983
16.0854
17.5049
18.9626
20.4634
22.0105
23.6059
25.2489
26.9367
28.6636
30.4209
32.1978
10.6525
11.9615
13.2825
14.6234
15.9919
17.3952
18.8399
20.3317
21.8752
23.4729
25.1253
26.8298
28.5809
30.3691
32.182
10.6373
11.9162
13.2079
14.5209
15.8634
17.2438
18.6697
20.1482
21.6852
23.2849
24.9491
26.6761
28.4605
30.2921
32.1561
10.6179
11.8581
13.112
14.3885
15.6971
17.0468
18.4468
19.906
21.4323
23.0322
24.7096
26.4647
28.2926
30.1821
32.1155
10.5939
11.7864
12.9932
14.2242
15.4893
16.7992
18.1646
19.5964
21.1055
22.7016
24.3921
26.1801
28.0626
30.0277
32.0536
10.5651
11.7003
12.8503
14.0255
15.2368
16.496
17.8156
19.2094
20.6916
22.2764
23.9766
25.8008
27.7496
29.8119
31.9608
10.5314
11.5992
12.6821
13.7906
14.9363
16.132
17.3923
18.7336
20.1746
21.7355
23.4369
25.2963
27.3228
29.5092
31.8228
10.4928
11.4831
12.4882
13.5184
14.5857
15.7034
16.8878
18.158
19.5375
21.054
22.7388
24.6242
26.7359
29.0788
31.6175
10.4493
11.3523
12.269
13.2092
14.1844
15.2081
16.2972
17.473
18.7633
20.2037
21.8398
23.7256
25.9173
28.4521
31.3063
10.4013
11.2079
12.0262
12.8649
13.7344
14.6472
15.6196
16.6734
17.8386
19.1577
20.6906
22.5207
24.7551
27.5056
30.8136
10.3496
11.0516
11.7628
12.4899
13.2411
14.0267
14.8605
15.7621
16.7599
17.8975
19.2441
20.9111
23.0764
26.0013
29.9592
10.2948
10.8862
11.4834
12.0906
12.7132
13.3577
14.0336
14.7544
15.541
16.4282
17.477
18.8029
20.638
23.4635
28.2066
10.2382
10.7151
11.194
11.6761
12.1631
12.6573
13.1617
13.6806
14.2215
14.7971
15.4326
16.1851
17.2087
19.0078
23.5618
33.8111
35.2608
36.6978
38.1151
39.5057
40.8633
42.1823
43.4576
44.6848
45.8604
46.9814
48.0454
49.0505
49.9952
50.8784
51.6994
52.4576
53.1529
53.7853
54.355
54.8625
55.3084
55.6936
56.0189
56.2856
56.4948
56.6479
56.7463
56.7914
56.7849
56.7281
56.6227
56.4702
56.2721
56.0298
55.7449
55.4186
55.0525
54.6478
54.2059
53.728
53.2155
52.6697
52.0917
51.4829
50.8444
50.1773
49.4828
48.7619
48.0155
47.2446
46.4501
45.6326
44.7931
43.9324
43.0513
42.1506
41.2311
40.2938
39.3395
38.3693
37.3841
36.3848
35.3724
34.3479
33.3124
32.2669
31.2126
30.1505
29.0822
28.009
26.9327
25.855
24.7779
23.7036
22.6345
21.573
20.5215
19.4828
18.4594
17.4538
16.4687
15.5064
14.5691
13.6589
12.7776
11.9267
11.1073
10.3202
9.56584
33.8183
35.2784
36.7257
38.1528
39.5525
40.9183
42.2445
43.5259
44.7584
45.9382
47.0627
48.1294
49.1366
50.0828
50.9671
51.7887
52.5473
53.2425
53.8746
54.4436
54.9502
55.3949
55.7787
56.1024
56.3673
56.5745
56.7256
56.8219
56.8648
56.8561
56.7971
56.6895
56.5349
56.3346
56.0903
55.8033
55.4751
55.107
54.7004
54.2566
53.7769
53.2625
52.7149
52.1352
51.5247
50.8845
50.2159
49.52
48.7977
48.05
47.2779
46.4821
45.6635
44.8229
43.9611
43.0787
42.1768
41.256
40.3174
39.3618
38.3902
37.4036
36.4029
35.3891
34.3633
33.3262
32.2791
31.223
30.1591
29.0887
28.0131
26.9342
25.8536
24.7734
23.6959
22.6232
21.558
20.5029
19.4604
18.4333
17.4241
16.4356
15.47
14.5298
13.6171
12.7337
11.8811
11.0606
10.273
9.51868
33.8324
35.3138
36.7821
38.2292
39.6474
41.0298
42.3704
43.6641
44.9068
46.095
47.2262
48.2982
49.3094
50.2587
51.145
51.968
52.727
53.4222
54.0534
54.6212
55.1258
55.5681
55.949
56.2695
56.5308
56.7341
56.8811
56.973
57.0116
56.9984
56.935
56.823
56.664
56.4595
56.211
55.9199
55.5878
55.2158
54.8054
54.3579
53.8745
53.3565
52.8053
52.222
51.6081
50.9647
50.2929
49.594
48.869
48.1187
47.3442
46.5461
45.7253
44.8824
44.0183
43.1336
42.2292
41.306
40.3647
39.4064
38.4321
37.4427
36.4393
35.4227
34.3939
33.354
32.3037
31.2442
30.1765
29.1019
28.0217
26.9375
25.8512
24.7648
23.6805
22.6008
21.5283
20.4656
19.4156
18.381
17.3645
16.369
15.3969
14.4508
13.5328
12.6451
11.7891
10.9664
10.1777
9.42353
33.8526
35.3673
36.8684
38.3465
39.7931
41.2007
42.563
43.875
45.1328
46.3332
47.4741
48.5537
49.5707
50.5241
51.4135
52.2381
52.9979
53.6928
54.3229
54.8885
55.3902
55.8288
56.2053
56.5208
56.7765
56.974
57.1146
57.2
57.2319
57.2119
57.1418
57.0231
56.8575
56.6466
56.3919
56.0948
55.7567
55.379
54.963
54.5098
54.0208
53.4973
52.9407
52.3521
51.733
51.0846
50.4082
49.7048
48.9757
48.2216
47.4435
46.642
45.8179
44.9717
44.1043
43.2161
42.3081
41.381
40.4358
39.4735
38.495
37.5015
36.4939
35.4731
34.4402
33.3959
32.3411
31.2766
30.2034
29.1226
28.0354
26.9435
25.8485
24.7526
23.6582
22.5677
21.4839
20.4098
19.3482
18.3021
17.2746
16.2683
15.2862
14.3309
13.4049
12.5103
11.6492
10.8229
10.0326
9.27866
33.8778
35.44
36.9873
38.5087
39.9943
41.436
42.8273
44.1633
45.4405
46.6564
47.8094
48.8983
49.9224
50.8811
51.774
52.6008
53.3614
54.0557
54.684
55.2467
55.7444
56.1779
56.5484
56.857
57.1052
57.2945
57.4265
57.503
57.5258
57.4966
57.4173
57.2896
57.1152
56.8957
56.6327
56.3276
55.9817
55.5964
55.1728
54.7122
54.2158
53.685
53.121
52.5252
51.8991
51.2439
50.5611
49.8519
49.1173
48.3582
47.5754
46.7696
45.9413
45.091
44.2192
43.3265
42.4136
41.4814
40.5308
39.5629
38.5789
37.5798
36.5667
35.5405
34.5022
33.4524
32.3917
31.321
30.2407
29.1519
28.0556
26.9533
25.8467
24.738
23.6297
22.5245
21.4254
20.3355
19.2581
18.1964
17.1535
16.1326
15.1367
14.1687
13.2314
12.3273
11.4587
10.6275
9.83482
9.08135
33.907
35.5335
37.143
38.7217
40.2581
41.7433
43.1705
44.5356
45.8357
47.0695
48.2362
49.3355
50.3675
51.3319
52.2288
53.0579
53.8192
54.5128
55.1387
55.6976
56.19
56.6169
56.9795
57.2792
57.5176
57.6964
57.8174
57.8824
57.8935
57.8525
57.7615
57.6222
57.4367
57.2064
56.933
56.618
56.2625
55.8678
55.435
54.9652
54.4595
53.9194
53.3461
52.7411
52.1059
51.4422
50.7513
50.0346
49.2932
48.528
47.7398
46.9289
46.0956
45.2404
44.3634
43.4651
42.5462
41.6075
40.65
39.675
38.6838
37.6776
36.6576
35.6249
34.5801
33.5238
32.4565
31.3784
30.2899
29.1915
28.084
26.9688
25.8475
24.7225
23.5963
22.472
21.3531
20.243
19.1452
18.0632
17.0006
15.9607
14.9467
13.962
13.0098
12.0929
11.2143
10.3763
9.58047
8.82769
33.9386
35.651
37.3423
38.9949
40.5951
42.1331
43.6027
45.0006
46.3257
47.5783
48.759
49.8689
50.9088
51.8792
52.7802
53.6117
54.3737
55.0662
55.6891
56.2431
56.7288
57.1474
57.5001
57.7887
58.0148
58.1805
58.2877
58.3384
58.335
58.2794
58.1739
58.0206
57.8214
57.5782
57.2924
56.9656
56.5988
56.1931
55.7494
55.2687
54.752
54.2005
53.6158
52.9994
52.353
51.6786
50.9777
50.2519
49.5025
48.7303
47.9358
47.1194
46.2809
45.4202
44.5375
43.6328
42.7066
41.7599
40.7938
39.8098
38.8096
37.7947
36.7664
35.7259
34.6739
33.6107
32.5362
31.4503
30.3528
29.2436
28.1232
26.9926
25.8534
24.7081
23.5597
22.4116
21.2679
20.1323
19.0091
17.9019
16.8147
15.751
14.7144
13.7085
12.7369
11.8033
10.9113
10.0641
9.26403
8.51226
33.9714
35.7983
37.5966
39.343
41.0211
42.6208
44.1372
45.5696
46.9195
48.1896
49.383
50.5024
51.5495
52.5254
53.4306
54.2647
55.0275
55.7186
56.3379
56.8859
57.3633
57.7716
58.1121
58.387
58.5981
58.7478
58.8381
58.8715
58.8504
58.7772
58.6542
58.484
58.2686
58.0101
57.71
57.3696
56.9901
56.572
56.1161
55.623
55.0934
54.5286
53.9301
53.2998
52.6397
51.9521
51.239
50.5024
49.7437
48.9637
48.1627
47.3407
46.4971
45.6312
44.7424
43.8305
42.8958
41.9394
40.9626
39.9673
38.9559
37.9302
36.8922
35.843
34.7833
33.7131
32.6319
31.5385
30.432
29.3114
28.1766
27.0281
25.8676
24.6978
23.5221
22.3448
21.1704
20.0038
18.8494
17.7116
16.5946
15.502
14.4377
13.4053
12.4091
11.4536
10.5436
9.68385
8.8779
8.1276
34.005
35.9865
37.9248
39.7888
41.5594
43.2276
44.7921
46.2566
47.6272
48.9105
50.1129
51.2389
52.2916
53.2727
54.1822
55.0195
55.7835
56.4733
57.0884
57.6291
58.0965
58.4921
58.8178
59.0759
59.2689
59.3993
59.4694
59.482
59.4397
59.3453
59.2016
59.0113
58.7769
58.5007
58.1843
57.8291
57.4357
57.0044
56.5354
56.0286
55.4846
54.9043
54.2893
53.642
52.965
52.2612
51.5333
50.7839
50.0146
49.2263
48.4191
47.5924
46.7447
45.8743
44.9798
44.0602
43.1158
42.1474
41.1571
40.1476
39.1219
38.083
37.0333
35.9745
34.9072
33.831
32.7443
31.6452
30.5309
29.3993
28.2492
27.0805
25.895
24.6955
23.4865
22.2733
21.0615
19.8571
18.6654
17.4913
16.3389
15.2122
14.1146
13.0499
12.0225
11.0381
10.1035
9.22592
8.41148
7.66335
34.0412
36.2363
38.3593
40.3685
42.2443
43.9829
45.5904
47.0781
48.4595
49.7473
50.9517
52.0799
53.1361
54.122
55.0369
55.8788
56.6454
57.3344
57.9449
58.477
58.932
59.312
59.6195
59.8575
60.0288
60.1362
60.1825
60.1704
60.103
59.9833
59.8148
59.6008
59.3443
59.0479
58.7135
58.3423
57.9346
57.4902
57.0079
56.4869
55.9269
55.3287
54.6941
54.026
53.3279
52.6038
51.8578
51.093
50.3118
49.5152
48.7028
47.8733
47.0239
46.1513
45.2523
44.3251
43.3692
42.3862
41.3786
40.3504
39.3062
38.2505
37.1869
36.1177
35.0434
33.9631
32.8743
31.773
30.6542
29.5134
28.3479
27.1568
25.9418
24.7065
23.4566
22.1991
20.9418
19.6919
18.4559
17.2392
16.0462
14.8802
13.7441
12.6405
11.5737
10.5507
9.58117
8.67691
7.84941
7.10463
34.0887
36.5895
38.9571
41.1397
43.1261
44.9261
46.5602
48.0519
49.4258
50.7033
51.8992
53.0236
54.081
55.0724
55.9954
56.8458
57.6177
58.3075
58.913
59.4347
59.8743
60.235
60.5203
60.734
60.8796
60.9601
60.9784
60.9374
60.8402
60.6905
60.4925
60.2504
59.9681
59.6487
59.2945
58.9068
58.4855
58.0293
57.5351
57.0001
56.4231
55.8043
55.1462
54.4521
53.7272
52.9771
52.2081
51.4248
50.6303
49.8257
49.0104
48.1819
47.3357
46.4655
45.5647
44.6303
43.6611
42.6595
41.6289
40.5757
39.5064
38.4287
37.348
36.2674
35.1875
34.1071
33.0217
31.9253
30.8086
29.6628
28.4829
27.2671
26.0174
24.7381
23.4373
22.1244
20.8109
19.5062
18.2183
16.9527
15.7141
14.5049
13.3264
12.178
11.0616
9.98613
8.9647
8.01719
7.16809
6.42916
34.177
37.1337
39.8206
42.1929
44.2756
46.1075
47.7343
49.1946
50.5302
51.7757
52.949
54.063
55.1197
56.1205
57.0577
57.9245
58.7074
59.4009
60.001
60.5096
60.9293
61.2656
61.5232
61.7075
61.8229
61.8725
61.8586
61.7841
61.6518
61.4664
61.2324
60.9568
60.644
60.2987
59.9227
59.5187
59.0856
58.6219
58.1201
57.5728
56.9783
56.3357
55.6492
54.9216
54.1618
53.3766
52.5782
51.7717
50.9627
50.1506
49.3362
48.5149
47.6816
46.8227
45.9248
44.9846
43.9992
42.9737
41.9113
40.8233
39.7179
38.6109
37.508
36.4157
35.332
34.2574
33.1846
32.1064
31.0044
29.8606
28.6693
27.4258
26.1352
24.8004
23.4351
22.0502
20.6672
19.2959
17.9484
16.6272
15.3396
14.085
12.8652
11.6691
10.4903
9.34364
8.24164
7.21566
6.32802
5.60168
34.4101
38.0658
41.1364
43.6623
45.7855
47.5832
49.1475
50.5161
51.7632
52.9511
54.0832
55.1839
56.238
57.2592
58.2203
59.123
59.9247
60.6279
61.2194
61.7111
62.1034
62.4081
62.6305
62.7789
62.8598
62.875
62.8248
62.713
62.5387
62.311
62.0309
61.7158
61.3654
60.9916
60.5901
60.1713
59.7286
59.2682
58.7697
58.2121
57.6018
56.9293
56.2101
55.4365
54.632
53.794
52.9589
52.1213
51.2986
50.4777
49.6711
48.8643
48.0634
47.2349
46.3452
45.4031
44.3941
43.3402
42.2299
41.095
39.9312
38.7864
37.6523
36.5506
35.463
34.4043
33.3549
32.3213
31.2597
30.1262
28.9304
27.6519
26.3161
24.9062
23.4607
21.9728
20.5062
19.051
17.6403
16.2528
14.9174
13.6147
12.3697
11.1351
9.87255
8.63666
7.40896
6.21477
5.25556
4.56301
35.2051
39.84
43.2359
45.7108
47.7635
49.3944
50.8415
52.0118
53.0806
54.2059
55.2619
56.3709
57.4025
58.4834
59.466
60.4657
61.2828
62.0144
62.5805
63.0545
63.4026
63.6681
63.8429
63.9467
63.9899
63.9705
63.8785
63.7306
63.5014
63.23
62.8786
62.5243
62.1195
61.7232
61.2815
60.8569
60.3961
59.9684
59.5032
58.9261
58.3139
57.589
56.8484
55.9948
55.1493
54.2062
53.3422
52.4486
51.6311
50.7832
50.0055
49.2041
48.4843
47.7346
46.8402
45.9173
44.853
43.7871
42.5831
41.4077
40.1165
38.9457
37.7494
36.6648
35.5514
34.5376
33.5016
32.576
31.6181
30.4812
29.31
27.9599
26.6033
25.063
23.5471
21.8643
20.3284
18.7419
17.2985
15.8032
14.4479
13.0609
11.8592
10.6413
9.21622
7.91777
6.52791
4.87544
3.79899
3.20953
38.4871
43.3975
46.6611
48.3665
50.3482
51.4693
52.9331
53.6529
54.3155
55.5594
56.3633
57.6683
58.4948
59.8483
60.6859
62.0704
62.7628
63.6383
64.0728
64.5782
64.8194
65.0575
65.1564
65.2004
65.2091
65.1693
65.0115
64.8643
64.5234
64.263
63.729
63.4046
62.8599
62.5191
61.9472
61.5933
61.015
60.7212
60.3968
59.6893
59.1873
58.2701
57.6482
56.5404
55.8062
54.5033
53.7674
52.665
52.0064
50.9869
50.3729
49.4256
48.9473
48.4416
47.3754
46.634
45.3136
44.4322
42.8941
41.8867
40.1276
39.1411
37.685
36.8198
35.496
34.7022
33.4888
32.8767
32.2337
30.8852
29.9468
28.2769
27.1547
25.1842
23.8734
21.5439
20.2232
18.2262
17.0314
15.1516
14.0239
12.2399
11.3718
10.4456
8.37739
7.33036
6.02491
2.70656
1.6411
1.35641
8.77188
7.95203
7.17693
6.44432
5.75144
5.0951
4.47184
3.87804
3.31002
2.76413
2.23676
1.72437
1.22353
0.730862
0.24308
8.72544
7.90716
7.1343
6.40449
5.71481
5.06194
4.4423
3.85218
3.28784
2.74557
2.22173
1.7128
1.21532
0.725968
0.241453
8.63179
7.81674
7.0485
6.32441
5.64127
4.99546
4.38317
3.80049
3.24354
2.70853
2.19177
1.68973
1.19899
0.716222
0.238214
8.4893
7.67939
6.91842
6.20329
5.5303
4.89538
4.29435
3.72299
3.17725
2.65318
2.14706
1.65535
1.17464
0.701708
0.233392
8.29547
7.49295
6.74238
6.03993
5.38115
4.76134
4.17577
3.61984
3.08922
2.57984
2.08792
1.60992
1.14251
0.682563
0.227033
8.0467
7.25444
6.51811
5.83279
5.19295
4.59299
4.02747
3.49131
2.97989
2.489
2.01482
1.55386
1.10292
0.658987
0.219204
7.73808
6.95987
6.24273
5.58005
4.9648
4.39012
3.84973
3.338
2.84999
2.38141
1.92845
1.48776
1.05629
0.63125
0.209999
7.36298
6.60412
5.91279
5.2798
4.69598
4.1529
3.64326
3.16089
2.70063
2.25815
1.8298
1.41241
1.00322
0.599711
0.199536
6.91248
6.18074
5.52439
4.93031
4.38634
3.88217
3.40947
2.96163
2.53343
2.12072
1.72014
1.32885
0.944462
0.564823
0.187968
6.37446
5.68186
5.07364
4.53062
4.03683
3.57992
3.15076
2.74267
2.3507
1.97115
1.60114
1.23838
0.880934
0.527141
0.17548
5.73238
5.0985
4.55758
4.08165
3.65035
3.24985
2.87094
2.50754
2.15551
1.81199
1.47487
1.14256
0.813743
0.487317
0.162286
4.96397
4.4221
3.97647
3.58797
3.23303
2.89812
2.57557
2.26098
1.95179
1.6464
1.34379
1.04322
0.744147
0.446091
0.148631
4.04164
3.64939
3.33816
3.06067
2.79562
2.53399
2.27219
2.009
1.74422
1.478
1.21062
0.942378
0.67352
0.404261
0.134778
2.94275
2.79557
2.66607
2.52087
2.35476
2.16998
1.97015
1.75859
1.53807
1.31074
1.07831
0.842132
0.603282
0.362648
0.120994
1.69994
1.92405
2.00962
2.00194
1.93253
1.821
1.67979
1.51712
1.33869
1.14855
0.949731
0.744545
0.534817
0.322051
0.10754
10.1857
10.5565
10.9256
11.2914
11.6523
12.0059
12.3489
12.6762
12.98
13.2468
13.4511
13.5368
13.3542
12.3977
8.55312
10.1384
10.4136
10.6837
10.9451
11.1929
11.421
11.6207
11.7793
11.877
11.8808
11.7319
11.3155
10.3873
8.39399
4.11824
10.0922
10.274
10.448
10.6082
10.7473
10.8558
10.9211
10.9247
10.839
10.6208
10.1984
9.44944
8.16016
5.97521
2.43381
10.0478
10.14
10.2219
10.2859
10.3227
10.3206
10.2642
10.1319
9.89308
9.50241
8.89173
7.95849
6.55488
4.49836
1.67034
10.0056
10.013
10.0082
9.98248
9.92513
9.82318
9.65989
9.41306
9.05252
8.53676
7.80897
6.79413
5.40295
3.55726
1.26285
9.96622
9.89433
9.80916
9.70096
9.55849
9.36827
9.11358
8.77315
8.31969
7.71829
6.9255
5.89108
4.5666
2.92773
1.01597
9.92982
9.7849
9.62606
9.4432
9.22498
8.95811
8.62676
8.21168
7.68956
7.03268
6.20977
5.18943
3.94854
2.48769
0.852533
9.89658
9.68513
9.45962
9.21
8.92521
8.59271
8.19806
7.72452
7.15298
6.46234
5.63109
4.64092
3.4832
2.16869
0.737638
9.86655
9.59511
9.3099
9.0012
8.65856
8.27045
7.8241
7.30539
6.69908
5.98961
5.16276
4.20873
3.12672
1.93061
0.65345
9.83967
9.51466
9.17648
8.81596
8.42346
7.98862
7.50038
6.94707
6.3168
5.59837
4.78273
3.86539
2.84945
1.74881
0.58991
9.81582
9.44335
9.05855
8.65293
8.21774
7.74384
7.22182
6.64216
5.99573
5.27461
4.4733
3.5905
2.631
1.60746
0.540895
9.7948
9.38061
8.95506
8.51042
8.03888
7.53248
6.98327
6.3836
5.72652
5.00651
4.22045
3.36885
2.45702
1.49597
0.502451
9.7764
9.32577
8.86481
8.38659
7.88421
7.35081
6.77976
6.1649
5.50099
4.78425
4.01311
3.18902
2.3172
1.40704
0.471907
9.7604
9.2781
8.78653
8.27954
7.75108
7.19529
6.60665
5.98025
5.31213
4.59976
3.84253
3.04234
2.204
1.33544
0.447392
9.74654
9.23686
8.71895
8.18739
7.63693
7.06257
6.45975
5.82455
5.154
4.44641
3.70178
2.92213
2.11178
1.27736
0.427554
9.73459
9.20134
8.66084
8.10836
7.53935
6.9496
6.33533
5.6934
5.02158
4.31877
3.58533
2.82323
2.03627
1.22997
0.411397
9.72433
9.17086
8.61105
8.04079
7.45619
6.85366
6.2301
5.583
4.91066
4.21241
3.48877
2.7416
1.97417
1.19111
0.398166
9.71555
9.14479
8.56851
7.98318
7.38546
6.77233
6.14121
5.49011
4.81773
4.12368
3.40855
2.67403
1.92293
1.15912
0.387284
9.70805
9.12254
8.53226
7.93417
7.32542
6.70347
6.0662
5.41198
4.73985
4.04958
3.34178
2.61796
1.88053
1.13268
0.378303
9.70166
9.1036
8.50144
7.89256
7.27454
6.64526
6.00295
5.3463
4.67457
3.98765
3.28614
2.57136
1.84534
1.11078
0.370868
9.69623
9.08752
8.47528
7.85728
7.23149
6.5961
5.94965
5.29108
4.61982
3.93585
3.2397
2.53254
1.8161
1.0926
0.364699
9.69163
9.07387
8.45311
7.82743
7.1951
6.55461
5.90476
5.24467
4.57391
3.89249
3.20092
2.50018
1.79174
1.07747
0.359569
9.68773
9.06232
8.43434
7.80218
7.16437
6.51964
5.86697
5.20567
4.5354
3.85619
3.16849
2.47316
1.77143
1.06487
0.355297
9.68443
9.05255
8.41849
7.78087
7.13845
6.49016
5.83517
5.1729
4.50309
3.82578
3.14137
2.45059
1.75448
1.05436
0.351735
9.68164
9.0443
8.4051
7.76288
7.11659
6.46534
5.80843
5.14538
4.47598
3.80029
3.11866
2.43171
1.74032
1.04558
0.348761
9.67929
9.03734
8.39381
7.74772
7.09819
6.44445
5.78594
5.12226
4.45324
3.77893
3.09965
2.41592
1.72847
1.03824
0.346276
9.67731
9.03147
8.38429
7.73495
7.08269
6.42689
5.76705
5.10285
4.43416
3.76103
3.08373
2.4027
1.71857
1.03211
0.344199
9.67563
9.02652
8.37628
7.7242
7.06966
6.41212
5.75117
5.08656
4.41815
3.74603
3.0704
2.39164
1.71028
1.02698
0.342462
9.67423
9.02236
8.36954
7.71517
7.05871
6.39972
5.73785
5.07289
4.40474
3.73346
3.05923
2.38238
1.70335
1.02269
0.34101
9.67305
9.01887
8.36388
7.70758
7.04952
6.38931
5.72668
5.06143
4.3935
3.72293
3.04989
2.37463
1.69755
1.0191
0.339795
9.67206
9.01594
8.35913
7.70122
7.04181
6.38059
5.71732
5.05184
4.3841
3.71413
3.04207
2.36816
1.69271
1.0161
0.338781
9.67123
9.01348
8.35516
7.69589
7.03536
6.37329
5.70949
5.04382
4.37624
3.70677
3.03554
2.36275
1.68866
1.0136
0.337934
9.67053
9.01143
8.35184
7.69144
7.02997
6.3672
5.70296
5.03713
4.36968
3.70064
3.0301
2.35825
1.68529
1.01151
0.337229
9.66996
9.00973
8.34907
7.68774
7.02549
6.36213
5.69752
5.03156
4.36423
3.69554
3.02558
2.3545
1.68249
1.00978
0.336643
9.66948
9.00831
8.34678
7.68467
7.02178
6.35794
5.69302
5.02696
4.35972
3.69132
3.02184
2.35141
1.68018
1.00835
0.336159
9.66908
9.00715
8.3449
7.68215
7.01872
6.35448
5.68932
5.02317
4.35601
3.68785
3.01877
2.34886
1.67827
1.00717
0.33576
9.66876
9.0062
8.34336
7.68009
7.01623
6.35167
5.6863
5.02008
4.35299
3.68503
3.01627
2.34679
1.67672
1.00622
0.335436
9.6685
9.00543
8.34213
7.67844
7.01423
6.34941
5.68388
5.01761
4.35056
3.68276
3.01426
2.34513
1.67548
1.00545
0.335176
9.6683
9.00484
8.34116
7.67714
7.01267
6.34764
5.68199
5.01567
4.34866
3.68098
3.01268
2.34382
1.67451
1.00485
0.334973
9.66815
9.00438
8.34043
7.67616
7.01148
6.3463
5.68055
5.0142
4.34722
3.67964
3.01149
2.34284
1.67377
1.00439
0.334819
9.66804
9.00406
8.33991
7.67547
7.01064
6.34535
5.67954
5.01316
4.34621
3.6787
3.01065
2.34215
1.67325
1.00407
0.33471
9.66798
9.00387
8.33959
7.67504
7.01013
6.34477
5.67892
5.01253
4.34559
3.67811
3.01014
2.34172
1.67293
1.00387
0.334644
9.66795
9.00379
8.33946
7.67487
7.00992
6.34454
5.67867
5.01227
4.34534
3.67788
3.00993
2.34155
1.6728
1.00379
0.334617
9.66796
9.00383
8.33952
7.67495
7.01002
6.34465
5.67878
5.01239
4.34545
3.67798
3.01002
2.34162
1.67286
1.00383
0.334629
9.66801
9.00398
8.33977
7.67528
7.01041
6.34509
5.67926
5.01288
4.34593
3.67843
3.01042
2.34195
1.67311
1.00398
0.33468
9.6681
9.00425
8.34021
7.67587
7.01113
6.3459
5.68012
5.01376
4.34679
3.67924
3.01114
2.34254
1.67355
1.00425
0.334773
9.66824
9.00465
8.34086
7.67674
7.01218
6.34708
5.68139
5.01506
4.34806
3.68043
3.01219
2.34342
1.6742
1.00466
0.334909
9.66842
9.00519
8.34173
7.67791
7.01359
6.34869
5.68311
5.01681
4.34978
3.68203
3.01361
2.34459
1.67508
1.0052
0.335093
9.66866
9.00589
8.34286
7.67942
7.01542
6.35076
5.68533
5.01908
4.352
3.68411
3.01545
2.34611
1.67622
1.0059
0.33533
9.66895
9.00677
8.34428
7.68132
7.01772
6.35335
5.68811
5.02193
4.35479
3.68671
3.01775
2.34802
1.67764
1.00679
0.335629
9.66932
9.00785
8.34603
7.68366
7.02056
6.35655
5.69154
5.02544
4.35822
3.68992
3.0206
2.35038
1.67941
1.00787
0.335997
9.66977
9.00916
8.34816
7.68652
7.02401
6.36046
5.69572
5.02972
4.36242
3.69384
3.02408
2.35325
1.68156
1.0092
0.336447
9.67031
9.01076
8.35074
7.68997
7.02819
6.36518
5.70079
5.0349
4.36749
3.69859
3.02828
2.35674
1.68416
1.01081
0.336992
9.67095
9.01267
8.35385
7.69413
7.03322
6.37087
5.70689
5.04115
4.37361
3.70431
3.03335
2.36093
1.6873
1.01275
0.337648
9.67173
9.01497
8.35757
7.69912
7.03926
6.37769
5.7142
5.04864
4.38095
3.71117
3.03944
2.36597
1.69107
1.01509
0.338437
9.67266
9.01772
8.36202
7.70508
7.04647
6.38586
5.72296
5.0576
4.38973
3.71939
3.04673
2.37201
1.69559
1.01788
0.339383
9.67377
9.021
8.36733
7.71219
7.05509
6.3956
5.73341
5.06832
4.40024
3.72922
3.05545
2.37924
1.70099
1.02122
0.340514
9.67509
9.02491
8.37365
7.72067
7.06536
6.40723
5.74589
5.0811
4.41277
3.74096
3.06587
2.38787
1.70745
1.02522
0.341868
9.67666
9.02955
8.38118
7.73076
7.07759
6.42107
5.76076
5.09635
4.42773
3.75497
3.07831
2.39819
1.71517
1.03
0.343485
9.67853
9.03508
8.39013
7.74277
7.09214
6.43756
5.77847
5.11452
4.44557
3.77169
3.09316
2.4105
1.7244
1.03571
0.345417
9.68074
9.04164
8.40077
7.75703
7.10945
6.45717
5.79955
5.13616
4.46683
3.79163
3.11089
2.42521
1.73541
1.04253
0.347727
9.68338
9.04942
8.41339
7.77398
7.13
6.48048
5.82463
5.16194
4.49217
3.8154
3.13204
2.44277
1.74858
1.05068
0.350487
9.68649
9.05866
8.42836
7.79408
7.15442
6.50819
5.85447
5.19262
4.52236
3.84377
3.15729
2.46375
1.76431
1.06043
0.353789
9.69019
9.06959
8.4461
7.81792
7.18339
6.5411
5.88994
5.22914
4.55834
3.8776
3.18744
2.48882
1.78313
1.0721
0.357741
9.69456
9.08253
8.46711
7.84616
7.21774
6.58017
5.93211
5.27261
4.60122
3.91797
3.22346
2.51881
1.80565
1.08607
0.362475
9.69972
9.09782
8.49195
7.87959
7.25845
6.62653
5.98221
5.32434
4.65232
3.96617
3.26653
2.5547
1.83264
1.10282
0.368154
9.70581
9.11587
8.52129
7.91912
7.30664
6.68149
6.04171
5.38589
4.71325
4.02373
3.31804
2.59771
1.86501
1.12293
0.374975
9.71299
9.13715
8.5559
7.96579
7.36364
6.74661
6.11235
5.45911
4.78589
4.0925
3.37973
2.64929
1.9039
1.14711
0.383181
9.72143
9.16218
8.59665
8.02083
7.43096
6.82369
6.19616
5.54621
4.87252
4.17475
3.45367
2.71127
1.9507
1.17625
0.393076
9.73133
9.19156
8.64455
8.08562
7.51038
6.91482
6.29553
5.64979
4.97587
4.27316
3.54242
2.78584
2.00715
1.21145
0.405038
9.74292
9.22598
8.70072
8.16173
7.60389
7.02245
6.41325
5.77294
5.0992
4.39105
3.6491
2.87578
2.07539
1.25409
0.419542
9.75645
9.26618
8.76641
8.25093
7.71377
7.14933
6.55258
5.91929
5.24641
4.53239
3.77757
2.9845
2.15816
1.30592
0.437194
9.77219
9.31298
8.843
8.35518
7.8426
7.29866
6.71726
6.09312
5.42219
4.70206
3.93259
3.11632
2.25892
1.3692
0.458777
9.79042
9.36724
8.93198
8.47662
7.9932
7.47398
6.9116
6.29945
5.63211
4.906
4.12008
3.27669
2.3821
1.44684
0.485313
9.81145
9.42988
9.03491
8.61752
8.16866
7.67926
7.1405
6.54409
5.88284
5.15144
4.34749
3.47261
2.53353
1.54273
0.518163
9.83557
9.50184
9.1534
8.78028
8.37224
7.91881
7.40942
6.83373
6.18225
5.44725
4.62413
3.71309
2.72087
1.66206
0.559176
9.86308
9.58399
9.28903
8.96728
8.60733
8.19719
7.72435
7.176
6.53965
5.80424
4.96182
4.00993
2.95444
1.81199
0.610928
9.89424
9.67715
9.44325
9.18079
8.87725
8.5191
8.0917
7.57934
6.96583
6.23553
5.37549
4.37869
3.24837
2.00263
0.677115
9.92924
9.78199
9.6173
9.42281
9.18507
8.88909
8.51801
8.05291
7.47307
6.75688
5.88412
4.84016
3.62245
2.24864
0.763242
9.96823
9.89893
9.81202
9.69486
9.53331
9.3112
9.00957
8.60614
8.07497
7.38692
6.5116
5.42227
4.10492
2.57212
0.8779
10.0112
10.0281
10.0277
9.99769
9.92359
9.78849
9.57179
9.24803
8.78579
8.14697
7.28767
6.16269
4.73697
3.00769
1.03531
10.0581
10.1691
10.2641
10.3311
10.3562
10.3224
10.2083
9.98605
9.61918
9.06007
8.2482
7.11193
5.5798
3.61205
1.26095
10.1086
10.3213
10.5199
10.6935
10.8296
10.9121
10.9199
10.8244
10.586
10.1486
9.43397
8.336
6.7251
4.4826
1.6052
10.1624
10.4834
10.7929
11.0821
11.3403
11.5536
11.7031
11.7621
11.6909
11.4297
10.8858
9.91621
8.30896
5.79401
2.18067
10.2187
10.6533
11.0799
11.4921
11.882
12.2393
12.5492
12.79
12.9277
12.907
12.6333
11.9391
10.5231
7.86814
3.27557
10.2768
10.8289
11.377
11.9175
12.4464
12.9578
13.4433
13.8894
14.2744
14.5598
14.6727
14.4632
13.5975
11.2878
5.73055
10.3358
11.0074
11.6791
12.351
13.0229
13.6944
14.3645
15.0312
15.6903
16.3324
16.9358
17.4428
17.6746
16.9625
12.2854
10.3948
11.1857
11.9812
12.7845
13.5996
14.4318
15.288
16.1782
17.1177
18.1317
19.2657
20.6133
22.4071
25.3905
32.6551
10.4527
11.361
12.2777
13.2096
14.1644
15.1525
16.1877
17.2908
18.4933
19.8476
21.4472
23.4737
26.3132
30.8452
39.0324
10.5088
11.5302
12.5638
13.6187
14.7061
15.8402
17.0404
18.3342
19.7633
21.393
23.332
25.7692
29.0437
33.7614
40.9155
0.698772
1.25213
1.49331
1.58281
1.58406
1.52828
1.43327
1.31021
1.16663
1.00781
0.83769
0.65924
0.474834
0.286431
0.0957276
0.374852
0.858058
1.12927
1.26304
1.30686
1.2894
1.22862
1.13636
1.02076
0.887719
0.741607
0.585819
0.423075
0.255645
0.0855097
0.235997
0.611194
0.860668
1.00572
1.07219
1.08059
1.04583
0.978687
0.887012
0.776688
0.652234
0.517221
0.374565
0.226733
0.0759048
0.16436
0.45163
0.664567
0.802962
0.877841
0.901722
0.885523
0.838039
0.766198
0.675461
0.570186
0.453925
0.329644
0.1999
0.0669807
0.121506
0.34368
0.520226
0.644303
0.718898
0.750682
0.746928
0.714296
0.658498
0.58432
0.495761
0.396193
0.288513
0.17527
0.0587793
0.0931211
0.267413
0.412314
0.519999
0.589676
0.624311
0.628379
0.606633
0.563555
0.50316
0.428975
0.34409
0.251242
0.152893
0.0513188
0.0730341
0.211553
0.330241
0.422085
0.484781
0.519162
0.527749
0.513776
0.480631
0.431571
0.369614
0.297514
0.217787
0.132755
0.0445959
0.0581888
0.169462
0.266808
0.344406
0.399544
0.431918
0.442778
0.434228
0.408753
0.368933
0.317291
0.25623
0.188015
0.114786
0.0385896
0.0468874
0.137041
0.217084
0.28232
0.330111
0.359611
0.371282
0.366428
0.346833
0.3145
0.271506
0.219912
0.161722
0.0988774
0.0332653
0.0381001
0.11164
0.177642
0.232344
0.273377
0.29968
0.311255
0.308862
0.293753
0.267467
0.231691
0.188171
0.138659
0.0848896
0.0285783
0.0311597
0.0914728
0.146043
0.19186
0.226867
0.249973
0.260926
0.260124
0.248431
0.22702
0.197251
0.16059
0.11855
0.0726663
0.0244781
0.0256122
0.0752925
0.120521
0.15888
0.188619
0.208704
0.218757
0.218945
0.209855
0.192375
0.167596
0.136741
0.101108
0.0620428
0.0209108
0.0211367
0.0622026
0.0997693
0.131884
0.157074
0.174399
0.183435
0.184206
0.177103
0.162796
0.142159
0.116208
0.0860497
0.0528535
0.0178224
0.0174994
0.0515419
0.0828021
0.109696
0.130988
0.145849
0.15385
0.154933
0.149351
0.137611
0.120412
0.0985943
0.0731001
0.044938
0.0151597
0.0145259
0.0428127
0.0688663
0.091395
0.109368
0.122061
0.129068
0.130286
0.125874
0.116215
0.10187
0.0835331
0.0620022
0.0381442
0.0128727
0.0120837
0.0356337
0.0573775
0.0762572
0.0914122
0.102219
0.108306
0.109547
0.10604
0.0980733
0.0860978
0.0706891
0.0525195
0.0323316
0.0109147
0.0100701
0.0297087
0.0478769
0.0637052
0.0764752
0.0856534
0.0909073
0.0921046
0.0893
0.0827143
0.0727091
0.0597614
0.0444379
0.0273721
0.00924312
0.00840478
0.0248044
0.0400007
0.0532764
0.0640316
0.0718121
0.0763247
0.0774401
0.0751852
0.0697288
0.061363
0.050483
0.0375658
0.0231505
0.00781951
0.00702403
0.0207355
0.0334577
0.0445973
0.0536529
0.0602392
0.0641004
0.0651153
0.0632927
0.0587628
0.0517622
0.0426186
0.0317335
0.0195646
0.00660972
0.00587694
0.0173533
0.0280133
0.0373648
0.0449885
0.050558
0.0538521
0.0547599
0.0532797
0.0495118
0.0436489
0.0359632
0.0267922
0.0165242
0.0055836
0.00492247
0.0145379
0.0234773
0.0313316
0.03775
0.0424563
0.0452602
0.0460624
0.0448546
0.041715
0.036801
0.0303389
0.0226125
0.0139507
0.00471476
0.00412737
0.0121916
0.0196946
0.0262954
0.0317
0.0356752
0.0380579
0.0387602
0.0377705
0.03515
0.0310277
0.0255922
0.0190821
0.0117758
0.00398027
0.0034645
0.010235
0.0165382
0.0220895
0.0266422
0.0299995
0.032022
0.0326327
0.0318183
0.0296274
0.026166
0.0215913
0.0161044
0.00994049
0.00336032
0.00291166
0.00860276
0.0139038
0.0185767
0.0224144
0.0252504
0.0269661
0.0274944
0.0268218
0.0249868
0.022077
0.0182239
0.0135965
0.00839416
0.00283787
0.00245062
0.00724126
0.0117055
0.0156438
0.0188818
0.021279
0.0227344
0.0231898
0.0226322
0.0210923
0.0186428
0.0153938
0.0114879
0.0070935
0.00239835
0.00206636
0.00610631
0.00987241
0.0131968
0.0159329
0.0179615
0.0191968
0.0195885
0.0191243
0.0178293
0.0157636
0.0130198
0.00971822
0.00600164
0.00202934
0.0017465
0.00516144
0.00834589
0.0111584
0.013475
0.0151949
0.0162446
0.0165813
0.0161934
0.0151011
0.013355
0.011033
0.00823666
0.0050873
0.00172028
0.00148084
0.00437658
0.00707758
0.00946417
0.0114313
0.0128933
0.0137876
0.014077
0.0137513
0.0128269
0.0113463
0.00937531
0.0070002
0.00432406
0.00146227
0.00126096
0.00372691
0.00602752
0.00806111
0.00973828
0.0109859
0.0117504
0.0119998
0.0117247
0.0109389
0.00967808
0.00799816
0.0059727
0.0036897
0.0012478
0.00107994
0.003192
0.00516283
0.00690547