/*--------------------------------*- C++ -*----------------------------------*\
| =========                 |                                                 |
| \\      /  F ield         | OpenFOAM: The Open Source CFD Toolbox           |
|  \\    /   O peration     | Version:  5.x                                   |
|   \\  /    A nd           | Web:      www.OpenFOAM.org                      |
|    \\/     M anipulation  |                                                 |
\*---------------------------------------------------------------------------*/
FoamFile
{
    version     2.0;
    format      ascii;
    class       volScalarField;
    location    "3.9";
    object      gradTy;
}
// * * * * * * * * * * * * * * * * * * * * * * * * * * * * * * * * * * * * * //

dimensions      [0 -1 0 1 0 0 0];

internalField   nonuniform List<scalar> 
3200
(
-1.35638e-10
1.01855e-10
-4.28732e-12
2.46911e-11
-1.63662e-11
2.11736e-11
-5.8104e-12
9.60684e-12
-5.66024e-12
2.64566e-12
5.50917e-12
-2.20808e-12
3.16692e-12
-1.81789e-12
2.26959e-12
-1.37309e-12
1.6826e-12
-1.03485e-12
1.2606e-12
-7.81835e-13
9.49571e-13
-5.9133e-13
7.17229e-13
-4.47198e-13
5.42257e-13
-3.37835e-13
4.09852e-13
-2.54743e-13
3.0939e-13
-1.91599e-13
2.33081e-13
-1.43643e-13
1.75114e-13
-1.07271e-13
1.31116e-13
-7.97333e-14
9.77669e-14
-5.89338e-14
7.25399e-14
-4.32683e-14
5.35038e-14
-3.15102e-14
3.91827e-14
-2.27225e-14
2.84476e-14
-1.61929e-14
2.04243e-14
-1.14293e-14
1.423e-14
-9.00841e-15
4.01134e-15
8.73316e-15
-3.06396e-15
4.74297e-15
-2.19473e-15
3.03476e-15
-1.368e-15
1.91714e-15
-8.16837e-16
1.17452e-15
-4.71258e-16
6.96566e-16
-2.63443e-16
4.00324e-16
-1.42977e-16
2.23342e-16
-7.52679e-17
1.21058e-16
-3.8112e-17
6.35832e-17
-1.80046e-17
3.22382e-17
-5.94719e-18
1.3942e-17
2.02349e-19
3.41127e-18
7.02169e-19
1.62844e-19
3.87684e-20
1.10026e-20
-9.70812e-11
6.75358e-11
7.18742e-13
1.70743e-11
-1.01346e-11
1.4374e-11
-3.16815e-12
6.49242e-12
-3.61665e-12
1.88739e-12
3.91857e-12
-1.28474e-12
2.13293e-12
-1.11981e-12
1.51685e-12
-8.51247e-13
1.12301e-12
-6.42725e-13
8.40923e-13
-4.86016e-13
6.33281e-13
-3.67748e-13
4.7828e-13
-2.78147e-13
3.61603e-13
-2.10107e-13
2.73332e-13
-1.58389e-13
2.06364e-13
-1.19081e-13
1.55497e-13
-8.92291e-14
1.16856e-13
-6.65908e-14
8.75226e-14
-4.94563e-14
6.52863e-14
-3.65191e-14
4.84623e-14
-2.67798e-14
3.5764e-14
-1.9474e-14
2.62083e-14
-1.40178e-14
1.90426e-14
-9.96824e-15
1.36815e-14
-7.03355e-15
9.48516e-15
-5.80316e-15
2.85908e-15
6.2186e-15
-1.73574e-15
3.21902e-15
-1.3131e-15
2.05093e-15
-8.15774e-16
1.29769e-15
-4.82828e-16
7.96699e-16
-2.75764e-16
4.73481e-16
-1.52528e-16
2.72651e-16
-8.18717e-17
1.52402e-16
-4.25843e-17
8.2772e-17
-2.12336e-17
4.35898e-17
-9.75298e-18
2.22453e-17
-2.75761e-18
9.77268e-18
6.95901e-19
2.47597e-18
6.15325e-19
1.46236e-19
3.49426e-20
9.92589e-21
-6.51124e-11
4.247e-11
2.39416e-12
1.1197e-11
-5.97437e-12
9.2542e-12
-1.6158e-12
4.16729e-12
-2.19881e-12
1.26702e-12
2.61651e-12
-7.06946e-13
1.36517e-12
-6.57801e-13
9.63861e-13
-5.03466e-13
7.12711e-13
-3.80851e-13
5.33434e-13
-2.88255e-13
4.01624e-13
-2.18205e-13
3.03294e-13
-1.65061e-13
2.29306e-13
-1.24673e-13
1.73342e-13
-9.39603e-14
1.3089e-13
-7.06133e-14
9.86444e-14
-5.28831e-14
7.41479e-14
-3.94396e-14
5.55508e-14
-2.92673e-14
4.14513e-14
-2.15898e-14
3.07817e-14
-1.58127e-14
2.27271e-14
-1.14817e-14
1.66642e-14
-8.24955e-15
1.21163e-14
-5.85346e-15
8.71041e-15
-4.12951e-15
6.01068e-15
-3.55746e-15
1.91774e-15
4.15566e-15
-9.24601e-16
2.074e-15
-7.47733e-16
1.316e-15
-4.63012e-16
8.33802e-16
-2.71369e-16
5.12848e-16
-1.53224e-16
3.05342e-16
-8.37075e-17
1.76132e-16
-4.43439e-17
9.86136e-17
-2.27276e-17
5.36517e-17
-1.11148e-17
2.83187e-17
-4.91788e-18
1.45307e-17
-1.07045e-18
6.46702e-18
7.54862e-19
1.68617e-18
4.72778e-19
1.15322e-19
2.76931e-20
7.87803e-21
-3.74501e-11
2.33068e-11
2.11131e-12
6.35598e-12
-3.11231e-12
5.17657e-12
-7.31071e-13
2.32688e-12
-1.17527e-12
7.30455e-13
1.50067e-12
-3.45552e-13
7.60721e-13
-3.41996e-13
5.34075e-13
-2.63334e-13
3.94529e-13
-1.99523e-13
2.95182e-13
-1.5113e-13
2.22204e-13
-1.14446e-13
1.6779e-13
-8.65823e-14
1.26857e-13
-6.53917e-14
9.59021e-14
-4.92721e-14
7.24222e-14
-3.70164e-14
5.4588e-14
-2.77094e-14
4.10392e-14
-2.06536e-14
3.07525e-14
-1.53159e-14
2.29529e-14
-1.12885e-14
1.70499e-14
-8.25934e-15
1.2593e-14
-5.98949e-15
9.23758e-15
-4.29662e-15
6.71995e-15
-3.04289e-15
4.8331e-15
-2.14662e-15
3.32295e-15
-1.91475e-15
1.1049e-15
2.38469e-15
-4.37198e-16
1.16135e-15
-3.78133e-16
7.34507e-16
-2.3349e-16
4.65835e-16
-1.35607e-16
2.86915e-16
-7.57383e-17
1.71056e-16
-4.08813e-17
9.87966e-17
-2.1374e-17
5.53822e-17
-1.07904e-17
3.01698e-17
-5.16921e-18
1.59509e-17
-2.19246e-18
8.21657e-18
-3.0969e-19
3.69087e-18
5.47845e-19
9.82051e-19
2.95966e-19
7.36251e-20
1.77558e-20
5.05988e-21
-1.22203e-11
7.41938e-12
8.08857e-13
2.06182e-12
-9.61947e-13
1.66565e-12
-2.05922e-13
7.48095e-13
-3.68704e-13
2.38774e-13
4.89041e-13
-1.02629e-13
2.44319e-13
-1.05612e-13
1.70998e-13
-8.16124e-14
1.26252e-13
-6.18949e-14
9.44421e-14
-4.69042e-14
7.10861e-14
-3.55267e-14
5.3676e-14
-2.6879e-14
4.05816e-14
-2.02996e-14
3.06799e-14
-1.52937e-14
2.31697e-14
-1.14874e-14
1.74653e-14
-8.59687e-15
1.31316e-14
-6.40568e-15
9.84116e-15
-4.74828e-15
7.34616e-15
-3.49798e-15
5.45776e-15
-2.55777e-15
4.03184e-15
-1.85346e-15
2.95822e-15
-1.32836e-15
2.15257e-15
-9.39709e-16
1.54851e-15
-6.62939e-16
1.06252e-15
-6.03133e-16
3.61026e-16
7.77311e-16
-1.26981e-16
3.73934e-16
-1.14838e-16
2.36074e-16
-7.07911e-17
1.49799e-16
-4.0881e-17
9.23305e-17
-2.26747e-17
5.50861e-17
-1.21439e-17
3.18375e-17
-6.29421e-18
1.78586e-17
-3.14514e-18
9.73511e-18
-1.48512e-18
5.15151e-18
-6.10527e-19
2.65902e-18
-5.05187e-20
1.20017e-18
1.97601e-19
3.22688e-19
1.00592e-19
2.52776e-20
6.10884e-21
1.74709e-21
1.22228e-11
-7.41885e-12
-8.08799e-13
-2.06183e-12
9.61905e-13
-1.66569e-12
2.05889e-13
-7.48121e-13
3.68679e-13
-2.38795e-13
-4.89055e-13
1.02626e-13
-2.44314e-13
1.05621e-13
-1.70988e-13
8.16227e-14
-1.26243e-13
6.19033e-14
-9.44347e-14
4.69105e-14
-7.10807e-14
3.55314e-14
-5.3672e-14
2.68824e-14
-4.05788e-14
2.0302e-14
-3.06779e-14
1.52953e-14
-2.31683e-14
1.14885e-14
-1.74644e-14
8.59759e-15
-1.3131e-14
6.40612e-15
-9.84082e-15
4.74854e-15
-7.34597e-15
3.4981e-15
-5.45768e-15
2.55781e-15
-4.03183e-15
1.85344e-15
-2.95825e-15
1.32832e-15
-2.15262e-15
9.3965e-16
-1.54858e-15
6.62865e-16
-1.0626e-15
6.03038e-16
-3.61125e-16
-7.77398e-16
1.26914e-16
-3.73983e-16
1.14801e-16
-2.36102e-16
7.07684e-17
-1.49818e-16
4.08659e-17
-9.23428e-17
2.26648e-17
-5.5094e-17
1.21376e-17
-3.18424e-17
6.29036e-18
-1.78615e-17
3.14284e-18
-9.73687e-18
1.48378e-18
-5.15253e-18
6.09762e-19
-2.65959e-18
5.01174e-20
-1.20045e-18
-1.97776e-19
-3.22794e-19
-1.00651e-19
-2.53093e-20
-6.12301e-21
-1.73711e-21
3.74518e-11
-2.33064e-11
-2.11123e-12
-6.35595e-12
3.11232e-12
-5.17657e-12
7.3107e-13
-2.32688e-12
1.17527e-12
-7.30458e-13
-1.50067e-12
3.45558e-13
-7.60711e-13
3.42009e-13
-5.34063e-13
2.63345e-13
-3.94519e-13
1.99532e-13
-2.95174e-13
1.51137e-13
-2.22198e-13
1.14451e-13
-1.67785e-13
8.6586e-14
-1.26854e-13
6.53944e-14
-9.58998e-14
4.9274e-14
-7.24206e-14
3.70178e-14
-5.45869e-14
2.77104e-14
-4.10384e-14
2.06542e-14
-3.0752e-14
1.53163e-14
-2.29526e-14
1.12888e-14
-1.70497e-14
8.25948e-15
-1.25929e-14
5.98957e-15
-9.23753e-15
4.29664e-15
-6.71994e-15
3.04289e-15
-4.83311e-15
2.1466e-15
-3.32299e-15
1.9147e-15
-1.10495e-15
-2.38474e-15
4.3716e-16
-1.16138e-15
3.78113e-16
-7.34523e-16
2.33477e-16
-4.65846e-16
1.35599e-16
-2.86922e-16
7.57325e-17
-1.71061e-16
4.08775e-17
-9.87996e-17
2.13717e-17
-5.5384e-17
1.0789e-17
-3.01709e-17
5.16836e-18
-1.59516e-17
2.19196e-18
-8.21693e-18
3.09427e-19
-3.69105e-18
-5.47962e-19
-9.82122e-19
-2.96006e-19
-7.3647e-20
-1.77659e-20
-5.05302e-21
6.51128e-11
-4.24698e-11
-2.39407e-12
-1.11969e-11
5.97441e-12
-9.25416e-12
1.61583e-12
-4.16726e-12
2.19883e-12
-1.267e-12
-2.61649e-12
7.0696e-13
-1.36516e-12
6.57812e-13
-9.63851e-13
5.03474e-13
-7.12703e-13
3.80858e-13
-5.33428e-13
2.8826e-13
-4.0162e-13
2.18209e-13
-3.03291e-13
1.65064e-13
-2.29303e-13
1.24675e-13
-1.7334e-13
9.39619e-14
-1.30888e-13
7.06144e-14
-9.86434e-14
5.28839e-14
-7.41472e-14
3.94402e-14
-5.55503e-14
2.92678e-14
-4.14509e-14
2.15901e-14
-3.07815e-14
1.58129e-14
-2.27269e-14
1.14818e-14
-1.66641e-14
8.24965e-15
-1.21162e-14
5.85352e-15
-8.71036e-15
4.12955e-15
-6.01065e-15
3.55748e-15
-1.91772e-15
-4.15566e-15
9.24608e-16
-2.074e-15
7.47737e-16
-1.31599e-15
4.63015e-16
-8.338e-16
2.7137e-16
-5.12847e-16
1.53224e-16
-3.05342e-16
8.37077e-17
-1.76132e-16
4.43439e-17
-9.86136e-17
2.27276e-17
-5.36517e-17
1.11148e-17
-2.83187e-17
4.91785e-18
-1.45307e-17
1.07042e-18
-6.46704e-18
-7.54876e-19
-1.68618e-18
-4.72784e-19
-1.15326e-19
-2.76954e-20
-7.87686e-21
9.70797e-11
-6.75361e-11
-7.18741e-13
-1.70743e-11
1.01347e-11
-1.43739e-11
3.16818e-12
-6.49239e-12
3.61668e-12
-1.88737e-12
-3.91855e-12
1.28475e-12
-2.13293e-12
1.11981e-12
-1.51685e-12
8.51244e-13
-1.12302e-12
6.42722e-13
-8.40925e-13
4.86014e-13
-6.33283e-13
3.67747e-13
-4.78281e-13
2.78146e-13
-3.61604e-13
2.10106e-13
-2.73332e-13
1.58389e-13
-2.06365e-13
1.19081e-13
-1.55497e-13
8.9229e-14
-1.16856e-13
6.65907e-14
-8.75226e-14
4.94563e-14
-6.52863e-14
3.65192e-14
-4.84622e-14
2.67799e-14
-3.5764e-14
1.94741e-14
-2.62082e-14
1.40179e-14
-1.90425e-14
9.96831e-15
-1.36814e-14
7.03362e-15
-9.48509e-15
5.80323e-15
-2.85901e-15
-6.21854e-15
1.73579e-15
-3.21899e-15
1.31312e-15
-2.05091e-15
8.15791e-16
-1.29768e-15
4.82839e-16
-7.96691e-16
2.75771e-16
-4.73476e-16
1.52532e-16
-2.72648e-16
8.18743e-17
-1.524e-16
4.25858e-17
-8.27709e-17
2.12345e-17
-4.35892e-17
9.75347e-18
-2.22449e-17
2.75786e-18
-9.77251e-18
-6.95792e-19
-2.47591e-18
-6.15289e-19
-1.46217e-19
-3.49343e-20
-9.93197e-21
1.35635e-10
-1.01856e-10
4.28709e-12
-2.46912e-11
1.63661e-11
-2.11736e-11
5.81037e-12
-9.60687e-12
5.66022e-12
-2.64567e-12
-5.50919e-12
2.20805e-12
-3.16695e-12
1.81786e-12
-2.26963e-12
1.37306e-12
-1.68262e-12
1.03483e-12
-1.26061e-12
7.81819e-13
-9.49586e-13
5.91318e-13
-7.17239e-13
4.47189e-13
-5.42265e-13
3.37828e-13
-4.09857e-13
2.54738e-13
-3.09394e-13
1.91595e-13
-2.33083e-13
1.43641e-13
-1.75116e-13
1.07269e-13
-1.31117e-13
7.97322e-14
-9.77679e-14
5.89331e-14
-7.25405e-14
4.32678e-14
-5.35042e-14
3.151e-14
-3.91829e-14
2.27224e-14
-2.84477e-14
1.61928e-14
-2.04244e-14
1.14293e-14
-1.423e-14
9.00846e-15
-4.01127e-15
-8.7331e-15
3.06401e-15
-4.74293e-15
2.19476e-15
-3.03474e-15
1.36801e-15
-1.91713e-15
8.16849e-16
-1.17451e-15
4.71266e-16
-6.96559e-16
2.63449e-16
-4.00319e-16
1.42981e-16
-2.2334e-16
7.52701e-17
-1.21056e-16
3.81134e-17
-6.35822e-17
1.80054e-17
-3.22376e-17
5.94763e-18
-1.39417e-17
-2.02152e-19
-3.41115e-18
-7.021e-19
-1.62805e-19
-3.87502e-20
-1.10146e-20
-2.65149e-06
2.09923e-06
3.60831e-07
1.4774e-07
2.90791e-08
1.17028e-08
2.3154e-09
9.33931e-10
1.6767e-10
8.14778e-11
2.88711e-11
8.62627e-13
6.31257e-12
-3.06305e-12
4.0033e-12
-2.78781e-12
3.22489e-12
-2.2999e-12
2.64522e-12
-1.86847e-12
2.15732e-12
-1.50811e-12
1.74792e-12
-1.21217e-12
1.40903e-12
-9.71417e-13
1.13161e-12
-7.76812e-13
9.06342e-13
-6.20201e-13
7.24469e-13
-4.94556e-13
5.78222e-13
-3.93976e-13
4.60958e-13
-3.13588e-13
3.67124e-13
-2.4942e-13
2.92153e-13
-1.98254e-13
2.32326e-13
-1.57502e-13
1.84637e-13
-1.25087e-13
1.46661e-13
-9.93735e-14
1.16347e-13
-7.95008e-14
9.01417e-14
-7.32031e-14
1.93695e-14
7.19568e-14
-3.70369e-14
4.74892e-14
-3.21241e-14
3.75469e-14
-2.62063e-14
3.02758e-14
-2.15104e-14
2.46527e-14
-1.78967e-14
2.03129e-14
-1.51389e-14
1.69928e-14
-1.30164e-14
1.45197e-14
-1.10635e-14
1.25056e-14
-8.78089e-15
1.03058e-14
-6.37375e-15
7.82306e-15
-4.46316e-15
6.11214e-15
-1.12315e-15
2.75446e-15
5.57948e-16
1.29343e-16
3.11208e-17
9.11926e-18
-1.89327e-06
1.41051e-06
3.2265e-07
1.21112e-07
2.67328e-08
9.67327e-09
2.13218e-09
7.71555e-10
1.58308e-10
6.64454e-11
2.36386e-11
1.93769e-12
4.48702e-12
-1.83723e-12
2.67164e-12
-1.75271e-12
2.13729e-12
-1.44967e-12
1.75306e-12
-1.17672e-12
1.43045e-12
-9.48857e-13
1.15949e-12
-7.62083e-13
9.34992e-13
-6.10383e-13
7.51083e-13
-4.87904e-13
6.01672e-13
-3.8942e-13
4.80999e-13
-3.10456e-13
3.8394e-13
-2.47272e-13
3.06102e-13
-1.96788e-13
2.43808e-13
-1.56499e-13
1.94032e-13
-1.24381e-13
1.54306e-13
-9.88043e-14
1.22636e-13
-7.84652e-14
9.74127e-14
-6.23426e-14
7.72468e-14
-5.00256e-14
5.93169e-14
-4.83712e-14
1.38232e-14
5.0443e-14
-2.24366e-14
3.16879e-14
-2.01446e-14
2.49128e-14
-1.64898e-14
2.00648e-14
-1.35596e-14
1.63198e-14
-1.13057e-14
1.34282e-14
-9.58759e-15
1.12162e-14
-8.26144e-15
9.5821e-15
-7.01393e-15
8.28014e-15
-5.52355e-15
6.86152e-15
-3.95991e-15
5.23188e-15
-2.7297e-15
4.1758e-15
-5.17853e-16
1.94728e-15
4.87164e-16
1.16091e-16
2.80503e-17
8.22443e-18
-1.26721e-06
8.97435e-07
2.49005e-07
9.01913e-08
2.12907e-08
7.26181e-09
1.70126e-09
5.79116e-10
1.28032e-10
4.94317e-11
1.7555e-11
2.03978e-12
3.01469e-12
-1.04599e-12
1.69624e-12
-1.05112e-12
1.34795e-12
-8.71775e-13
1.10554e-12
-7.07043e-13
9.02499e-13
-5.69588e-13
7.31837e-13
-4.57128e-13
5.90312e-13
-3.6593e-13
4.74302e-13
-2.92383e-13
3.8001e-13
-2.33294e-13
3.0383e-13
-1.85946e-13
2.42543e-13
-1.48075e-13
1.93386e-13
-1.17825e-13
1.5404e-13
-9.36906e-14
1.22598e-13
-7.44539e-14
9.75019e-14
-5.91381e-14
7.74935e-14
-4.69616e-14
6.15547e-14
-3.7317e-14
4.87927e-14
-3.00399e-14
3.71513e-14
-3.03541e-14
9.28282e-15
3.32942e-14
-1.29295e-14
2.01133e-14
-1.20509e-14
1.57282e-14
-9.89967e-15
1.26537e-14
-8.15527e-15
1.02816e-14
-6.81411e-15
8.44917e-15
-5.79285e-15
7.04752e-15
-5.00221e-15
6.01962e-15
-4.24199e-15
5.21684e-15
-3.31516e-15
4.34439e-15
-2.34745e-15
3.32619e-15
-1.59136e-15
2.70313e-15
-1.99102e-16
1.297e-15
3.72756e-16
9.14839e-17
2.22313e-17
6.52391e-18
-7.27758e-07
4.96871e-07
1.55765e-07
5.56693e-08
1.36516e-08
4.51067e-09
1.09246e-09
3.5971e-10
8.2816e-11
3.05348e-11
1.08118e-11
1.47995e-12
1.7424e-12
-5.27919e-13
9.39536e-13
-5.56177e-13
7.42652e-13
-4.62385e-13
6.09047e-13
-3.74759e-13
4.97364e-13
-3.01665e-13
4.03434e-13
-2.41954e-13
3.2549e-13
-1.93594e-13
2.61566e-13
-1.54632e-13
2.09592e-13
-1.23351e-13
1.6759e-13
-9.82968e-14
1.33794e-13
-7.8265e-14
1.06684e-13
-6.22689e-14
8.49823e-14
-4.95086e-14
6.76387e-14
-3.93396e-14
5.37949e-14
-3.12447e-14
4.27568e-14
-2.48102e-14
3.39626e-14
-1.97171e-14
2.69127e-14
-1.59161e-14
2.03549e-14
-1.6639e-14
5.35314e-15
1.89422e-14
-6.60398e-15
1.11374e-14
-6.36345e-15
8.67218e-15
-5.24352e-15
6.97109e-15
-4.32611e-15
5.65987e-15
-3.62103e-15
4.64665e-15
-3.08462e-15
3.87166e-15
-2.66825e-15
3.30644e-15
-2.26059e-15
2.87176e-15
-1.75559e-15
2.4004e-15
-1.23032e-15
1.84364e-15
-8.21872e-16
1.51809e-15
-5.64341e-17
7.43453e-16
2.32582e-16
5.83702e-17
1.42546e-17
4.18572e-18
-2.37298e-07
1.58927e-07
5.28807e-08
1.88214e-08
4.69612e-09
1.53012e-09
3.76038e-10
1.22001e-10
2.85919e-11
1.03278e-11
3.64995e-12
5.34957e-13
5.7055e-13
-1.6003e-13
3.00787e-13
-1.73518e-13
2.3706e-13
-1.4446e-13
1.94402e-13
-1.17039e-13
1.58783e-13
-9.41687e-14
1.28817e-13
-7.55022e-14
1.03942e-13
-6.03955e-14
8.35357e-14
-4.8231e-14
6.69411e-14
-3.84685e-14
5.35289e-14
-3.06518e-14
4.2736e-14
-2.44031e-14
3.40774e-14
-1.94141e-14
2.71462e-14
-1.54347e-14
2.16065e-14
-1.22638e-14
1.71846e-14
-9.7398e-15
1.36587e-14
-7.73377e-15
1.08494e-14
-6.14657e-15
8.59576e-15
-4.96984e-15
6.47715e-15
-5.29398e-15
1.75035e-15
6.1477e-15
-2.01704e-15
3.56498e-15
-1.98299e-15
2.76935e-15
-1.63694e-15
2.22509e-15
-1.35174e-15
1.80579e-15
-1.13259e-15
1.48172e-15
-9.65958e-16
1.23385e-15
-8.36423e-16
1.0536e-15
-7.08265e-16
9.16153e-16
-5.4808e-16
7.67306e-16
-3.81809e-16
5.90341e-16
-2.52828e-16
4.89473e-16
-8.83286e-18
2.42281e-16
7.8914e-17
2.0037e-17
4.90613e-18
1.43941e-18
2.37308e-07
-1.58929e-07
-5.28848e-08
-1.88245e-08
-4.69794e-09
-1.531e-09
-3.76409e-10
-1.22142e-10
-2.8641e-11
-1.03438e-11
-3.65491e-12
-5.36389e-13
-5.70912e-13
1.59981e-13
-3.00752e-13
1.73571e-13
-2.37006e-13
1.44509e-13
-1.94358e-13
1.17078e-13
-1.58748e-13
9.41996e-14
-1.28789e-13
7.55265e-14
-1.0392e-13
6.04146e-14
-8.35187e-14
4.82462e-14
-6.69276e-14
3.84805e-14
-5.35182e-14
3.06613e-14
-4.27275e-14
2.44107e-14
-3.40707e-14
1.94201e-14
-2.71408e-14
1.54395e-14
-2.16023e-14
1.22676e-14
-1.71812e-14
9.74281e-15
-1.3656e-14
7.73617e-15
-1.08473e-14
6.14847e-15
-8.5941e-15
4.97125e-15
-6.47602e-15
5.29484e-15
-1.7497e-15
-6.14712e-15
2.01762e-15
-3.5644e-15
1.98355e-15
-2.76883e-15
1.6374e-15
-2.22469e-15
1.35208e-15
-1.8055e-15
1.13283e-15
-1.48153e-15
9.661e-16
-1.23376e-15
8.36477e-16
-1.05359e-15
7.08246e-16
-9.162e-16
5.4801e-16
-7.67392e-16
3.81714e-16
-5.90439e-16
2.52734e-16
-4.89555e-16
8.76893e-18
-2.42325e-16
-7.89402e-17
-2.00498e-17
-4.91164e-18
-1.44656e-18
7.27765e-07
-4.96872e-07
-1.55768e-07
-5.56713e-08
-1.36528e-08
-4.51126e-09
-1.09271e-09
-3.59804e-10
-8.28491e-11
-3.05456e-11
-1.08151e-11
-1.48089e-12
-1.74263e-12
5.279e-13
-9.39499e-13
5.56225e-13
-7.42605e-13
4.62428e-13
-6.09009e-13
3.74793e-13
-4.97334e-13
3.01692e-13
-4.0341e-13
2.41975e-13
-3.25471e-13
1.93611e-13
-2.61551e-13
1.54645e-13
-2.0958e-13
1.23361e-13
-1.67581e-13
9.83052e-14
-1.33787e-13
7.82717e-14
-1.06678e-13
6.22741e-14
-8.49776e-14
4.95128e-14
-6.76349e-14
3.93429e-14
-5.37919e-14
3.12473e-14
-4.27544e-14
2.48123e-14
-3.39607e-14
1.97187e-14
-2.69112e-14
1.59174e-14
-2.03539e-14
1.66399e-14
-5.35248e-15
-1.89417e-14
6.60454e-15
-1.11369e-14
6.36396e-15
-8.67172e-15
5.24393e-15
-6.97073e-15
4.32643e-15
-5.6596e-15
3.62125e-15
-4.64647e-15
3.08476e-15
-3.87156e-15
2.66833e-15
-3.3064e-15
2.2606e-15
-2.87177e-15
1.75556e-15
-2.40045e-15
1.23026e-15
-1.8437e-15
8.21814e-16
-1.51814e-15
5.63923e-17
-7.43482e-16
-2.32599e-16
-5.83786e-17
-1.42581e-17
-4.19059e-18
1.26722e-06
-8.97435e-07
-2.49005e-07
-9.01915e-08
-2.12909e-08
-7.26188e-09
-1.70129e-09
-5.79128e-10
-1.28037e-10
-4.94331e-11
-1.75554e-11
-2.03988e-12
-3.0147e-12
1.04601e-12
-1.69621e-12
1.05115e-12
-1.34792e-12
8.71796e-13
-1.10552e-12
7.0706e-13
-9.02484e-13
5.69602e-13
-7.31825e-13
4.57139e-13
-5.90302e-13
3.65939e-13
-4.74294e-13
2.9239e-13
-3.80004e-13
2.333e-13
-3.03825e-13
1.8595e-13
-2.4254e-13
1.48078e-13
-1.93383e-13
1.17828e-13
-1.54038e-13
9.36928e-14
-1.22596e-13
7.44556e-14
-9.75004e-14
5.91395e-14
-7.74922e-14
4.69627e-14
-6.15537e-14
3.73179e-14
-4.87919e-14
3.00406e-14
-3.71507e-14
3.03546e-14
-9.28239e-15
-3.32938e-14
1.29298e-14
-2.0113e-14
1.20512e-14
-1.57279e-14
9.89989e-15
-1.26535e-14
8.15544e-15
-1.02814e-14
6.81424e-15
-8.44906e-15
5.79295e-15
-7.04744e-15
5.00228e-15
-6.01957e-15
4.24203e-15
-5.21681e-15
3.31519e-15
-4.34438e-15
2.34746e-15
-3.32619e-15
1.59136e-15
-2.70313e-15
1.99098e-16
-1.29701e-15
-3.72758e-16
-9.14847e-17
-2.22315e-17
-6.52465e-18
1.89326e-06
-1.41051e-06
-3.22647e-07
-1.2111e-07
-2.67317e-08
-9.67273e-09
-2.13195e-09
-7.71468e-10
-1.58277e-10
-6.64355e-11
-2.36355e-11
-1.93679e-12
-4.48678e-12
1.83727e-12
-2.67165e-12
1.75269e-12
-2.13732e-12
1.44965e-12
-1.75308e-12
1.1767e-12
-1.43046e-12
9.48843e-13
-1.15951e-12
7.62072e-13
-9.35001e-13
6.10375e-13
-7.51091e-13
4.87897e-13
-6.01678e-13
3.89414e-13
-4.81004e-13
3.10452e-13
-3.83944e-13
2.47268e-13
-3.06105e-13
1.96785e-13
-2.4381e-13
1.56497e-13
-1.94034e-13
1.24379e-13
-1.54307e-13
9.88029e-14
-1.22638e-13
7.84641e-14
-9.74137e-14
6.23418e-14
-7.72476e-14
5.0025e-14
-5.93174e-14
4.83709e-14
-1.38234e-14
-5.04432e-14
2.24364e-14
-3.16881e-14
2.01444e-14
-2.4913e-14
1.64896e-14
-2.00649e-14
1.35594e-14
-1.632e-14
1.13056e-14
-1.34283e-14
9.58754e-15
-1.12162e-14
8.26143e-15
-9.58209e-15
7.01396e-15
-8.28009e-15
5.52361e-15
-6.86146e-15
3.95997e-15
-5.23181e-15
2.72976e-15
-4.17575e-15
5.17893e-16
-1.94726e-15
-4.87147e-16
-1.16083e-16
-2.80468e-17
-8.22006e-18
2.65148e-06
-2.09923e-06
-3.60827e-07
-1.47737e-07
-2.9077e-08
-1.17018e-08
-2.31498e-09
-9.3377e-10
-1.67614e-10
-8.14594e-11
-2.88655e-11
-8.61045e-13
-6.31222e-12
3.06306e-12
-4.00339e-12
2.7877e-12
-3.22499e-12
2.29981e-12
-2.6453e-12
1.86839e-12
-2.15738e-12
1.50805e-12
-1.74797e-12
1.21212e-12
-1.40907e-12
9.71381e-13
-1.13164e-12
7.76783e-13
-9.06368e-13
6.20178e-13
-7.24489e-13
4.94538e-13
-5.78238e-13
3.93961e-13
-4.60971e-13
3.13577e-13
-3.67134e-13
2.49411e-13
-2.92162e-13
1.98247e-13
-2.32333e-13
1.57496e-13
-1.84642e-13
1.25083e-13
-1.46665e-13
9.93698e-14
-1.16351e-13
7.94981e-14
-9.0144e-14
7.32013e-14
-1.9371e-14
-7.19582e-14
3.70357e-14
-4.74904e-14
3.2123e-14
-3.75479e-14
2.62054e-14
-3.02766e-14
2.15097e-14
-2.46533e-14
1.78962e-14
-2.03133e-14
1.51386e-14
-1.69931e-14
1.30162e-14
-1.45198e-14
1.10635e-14
-1.25056e-14
8.78091e-15
-1.03058e-14
6.37383e-15
-7.82297e-15
4.46326e-15
-6.11205e-15
1.12321e-15
-2.75441e-15
-5.57919e-16
-1.29329e-16
-3.11151e-17
-9.11089e-18
-2.65255e-06
2.10006e-06
3.60934e-07
1.47839e-07
2.90953e-08
1.17127e-08
2.31731e-09
9.34732e-10
1.67971e-10
8.15526e-11
2.87557e-11
9.5566e-13
6.21016e-12
-2.98394e-12
3.91484e-12
-2.72177e-12
3.15018e-12
-2.24537e-12
2.58303e-12
-1.8238e-12
2.10608e-12
-1.47175e-12
1.70603e-12
-1.18271e-12
1.37498e-12
-9.47643e-13
1.10405e-12
-7.57678e-13
8.84119e-13
-6.04838e-13
7.06596e-13
-4.82246e-13
5.6388e-13
-3.84129e-13
4.49472e-13
-3.05725e-13
3.57942e-13
-2.4315e-13
2.84824e-13
-1.93262e-13
2.26485e-13
-1.53532e-13
1.79987e-13
-1.21933e-13
1.42965e-13
-9.6868e-14
1.13415e-13
-7.74979e-14
8.78701e-14
-7.13614e-14
1.88794e-14
7.01473e-14
-3.61089e-14
4.62974e-14
-3.13212e-14
3.66069e-14
-2.55538e-14
2.95203e-14
-2.09776e-14
2.404e-14
-1.74569e-14
1.98111e-14
-1.47716e-14
1.65769e-14
-1.27067e-14
1.41693e-14
-1.08091e-14
1.22123e-14
-8.58596e-15
1.00724e-14
-6.2355e-15
7.6497e-15
-4.37151e-15
5.98349e-15
-1.10011e-15
2.6971e-15
5.46327e-16
1.26649e-16
3.04727e-17
8.92938e-18
-1.89402e-06
1.41106e-06
3.2275e-07
1.21188e-07
2.67481e-08
9.68112e-09
2.13393e-09
7.72218e-10
1.58554e-10
6.65065e-11
2.35626e-11
1.99696e-12
4.4195e-12
-1.787e-12
2.6132e-12
-1.71092e-12
2.08787e-12
-1.41522e-12
1.71189e-12
-1.14854e-12
1.3965e-12
-9.25949e-13
1.13172e-12
-7.4354e-13
9.12412e-13
-5.95427e-13
7.32805e-13
-4.75873e-13
5.86927e-13
-3.79764e-13
4.69138e-13
-3.02722e-13
3.74421e-13
-2.41087e-13
2.98477e-13
-1.91851e-13
2.37712e-13
-1.52563e-13
1.89165e-13
-1.21248e-13
1.50427e-13
-9.6313e-14
1.19549e-13
-7.64862e-14
9.49578e-14
-6.07707e-14
7.52996e-14
-4.87653e-14
5.78221e-14
-4.71544e-14
1.34735e-14
4.91743e-14
-2.18747e-14
3.08925e-14
-1.96413e-14
2.4289e-14
-1.60795e-14
1.95638e-14
-1.3224e-14
1.59141e-14
-1.10282e-14
1.30962e-14
-9.35532e-15
1.09413e-14
-8.0654e-15
9.35034e-15
-6.8533e-15
8.08538e-15
-5.40158e-15
6.70578e-15
-3.87446e-15
5.11561e-15
-2.67414e-15
4.0878e-15
-5.07366e-16
1.90672e-15
4.77016e-16
1.13673e-16
2.74661e-17
8.05318e-18
-1.26772e-06
8.97787e-07
2.49085e-07
9.02448e-08
2.1303e-08
7.26751e-09
1.70265e-09
5.79613e-10
1.28216e-10
4.94772e-11
1.75076e-11
2.07581e-12
2.97232e-12
-1.01558e-12
1.65949e-12
-1.02589e-12
1.31684e-12
-8.51013e-13
1.07959e-12
-6.90087e-13
8.81097e-13
-5.55817e-13
7.14322e-13
-4.45991e-13
5.76064e-13
-3.56952e-13
4.62766e-13
-2.85165e-13
3.70702e-13
-2.27504e-13
2.96341e-13
-1.81309e-13
2.36532e-13
-1.44368e-13
1.8857e-13
-1.14867e-13
1.5019e-13
-9.13331e-14
1.19524e-13
-7.25776e-14
9.50512e-14
-5.76466e-14
7.55425e-14
-4.5777e-14
6.00036e-14
-3.6376e-14
4.75628e-14
-2.92831e-14
3.6215e-14
-2.95906e-14
9.04801e-15
3.24567e-14
-1.26058e-14
1.96084e-14
-1.17499e-14
1.53342e-14
-9.65342e-15
1.23377e-14
-7.95357e-15
1.00258e-14
-6.64703e-15
8.24012e-15
-5.65274e-15
6.87456e-15
-4.88383e-15
5.87372e-15
-4.14526e-15
5.09385e-15
-3.24234e-15
4.24559e-15
-2.29706e-15
3.2521e-15
-1.55927e-15
2.6461e-15
-1.9518e-16
1.26998e-15
3.64991e-16
8.95784e-17
2.17683e-17
6.38807e-18
-7.28049e-07
4.97065e-07
1.55817e-07
5.57013e-08
1.36595e-08
4.51415e-09
1.09334e-09
3.60018e-10
8.29288e-11
3.05629e-11
1.0786e-11
1.49923e-12
1.71914e-12
-5.11694e-13
9.19338e-13
-5.42745e-13
7.25536e-13
-4.51353e-13
5.94764e-13
-3.6576e-13
4.85576e-13
-2.94363e-13
3.93784e-13
-2.36053e-13
3.17638e-13
-1.8884e-13
2.55207e-13
-1.50811e-13
2.0446e-13
-1.20286e-13
1.63461e-13
-9.5844e-14
1.3048e-13
-7.63048e-14
1.04028e-13
-6.07047e-14
8.28583e-14
-4.82623e-14
6.59428e-14
-3.83479e-14
5.24429e-14
-3.04564e-14
4.16804e-14
-2.41842e-14
3.31068e-14
-1.92198e-14
2.62343e-14
-1.55151e-14
1.98419e-14
-1.62206e-14
5.21774e-15
1.84658e-14
-6.43874e-15
1.08578e-14
-6.20457e-15
8.45495e-15
-5.11313e-15
6.79697e-15
-4.21918e-15
5.51902e-15
-3.53232e-15
4.53162e-15
-3.01011e-15
3.77655e-15
-2.60524e-15
3.22617e-15
-2.20922e-15
2.80393e-15
-1.71719e-15
2.34573e-15
-1.20403e-15
1.80249e-15
-8.05437e-16
1.48603e-15
-5.5398e-17
7.27957e-16
2.27737e-16
5.71544e-17
1.39577e-17
4.09857e-18
-2.37393e-07
1.58989e-07
5.28984e-08
1.8832e-08
4.69884e-09
1.53128e-09
3.76342e-10
1.22106e-10
2.863e-11
1.03373e-11
3.64177e-12
5.41011e-13
5.6314e-13
-1.54945e-13
2.94348e-13
-1.69313e-13
2.316e-13
-1.4101e-13
1.89845e-13
-1.14226e-13
1.55021e-13
-9.18877e-14
1.25736e-13
-7.36595e-14
1.01435e-13
-5.89113e-14
8.15052e-14
-4.70386e-14
6.53024e-14
-3.75125e-14
5.22102e-14
-2.98866e-14
4.16773e-14
-2.37917e-14
3.32292e-14
-1.89263e-14
2.64678e-14
-1.50461e-14
2.10649e-14
-1.19546e-14
1.67528e-14
-9.49406e-15
1.33149e-14
-7.53863e-15
1.0576e-14
-5.99156e-15
8.37909e-15
-4.84464e-15
6.3139e-15
-5.16085e-15
1.70608e-15
5.99305e-15
-1.96658e-15
3.47547e-15
-1.93349e-15
2.69998e-15
-1.59624e-15
2.16951e-15
-1.31833e-15
1.76085e-15
-1.10485e-15
1.44503e-15
-9.42644e-16
1.20353e-15
-8.16695e-16
1.02801e-15
-6.92202e-16
8.94493e-16
-5.36123e-16
7.49816e-16
-3.73671e-16
5.77154e-16
-2.47797e-16
4.79134e-16
-8.69605e-18
2.3723e-16
7.727e-17
1.96197e-17
4.80395e-18
1.40944e-18
2.37402e-07
-1.58991e-07
-5.29026e-08
-1.88351e-08
-4.70066e-09
-1.53216e-09
-3.76713e-10
-1.22246e-10
-2.86792e-11
-1.03534e-11
-3.64674e-12
-5.42448e-13
-5.63504e-13
1.54893e-13
-2.94315e-13
1.69365e-13
-2.31548e-13
1.41058e-13
-1.89801e-13
1.14265e-13
-1.54987e-13
9.19178e-14
-1.2571e-13
7.36832e-14
-1.01414e-13
5.893e-14
-8.14886e-14
4.70534e-14
-6.52892e-14
3.75242e-14
-5.21998e-14
2.98959e-14
-4.16691e-14
2.37991e-14
-3.32226e-14
1.89321e-14
-2.64626e-14
1.50507e-14
-2.10607e-14
1.19583e-14
-1.67495e-14
9.497e-15
-1.33123e-14
7.54098e-15
-1.05739e-14
5.99342e-15
-8.37746e-15
4.84601e-15
-6.31279e-15
5.16168e-15
-1.70544e-15
-5.99248e-15
1.96715e-15
-3.4749e-15
1.93404e-15
-2.69947e-15
1.5967e-15
-2.16911e-15
1.31867e-15
-1.76056e-15
1.10509e-15
-1.44485e-15
9.42784e-16
-1.20343e-15
8.16748e-16
-1.02799e-15
6.92184e-16
-8.94539e-16
5.36055e-16
-7.499e-16
3.73579e-16
-5.77249e-16
2.47705e-16
-4.79214e-16
8.63344e-18
-2.37273e-16
-7.72957e-17
-1.96322e-17
-4.80935e-18
-1.41644e-18
7.28055e-07
-4.97066e-07
-1.5582e-07
-5.57033e-08
-1.36607e-08
-4.51474e-09
-1.09359e-09
-3.60113e-10
-8.29619e-11
-3.05737e-11
-1.07893e-11
-1.50018e-12
-1.71937e-12
5.11674e-13
-9.19303e-13
5.42791e-13
-7.2549e-13
4.51395e-13
-5.94727e-13
3.65793e-13
-4.85546e-13
2.94389e-13
-3.9376e-13
2.36073e-13
-3.17619e-13
1.88856e-13
-2.55192e-13
1.50824e-13
-2.04448e-13
1.20297e-13
-1.63452e-13
9.58522e-14
-1.30472e-13
7.63113e-14
-1.04022e-13
6.07099e-14
-8.28537e-14
4.82664e-14
-6.59392e-14
3.83512e-14
-5.244e-14
3.0459e-14
-4.16781e-14
2.41863e-14
-3.31049e-14
1.92215e-14
-2.62328e-14
1.55164e-14
-1.98409e-14
1.62214e-14
-5.21711e-15
-1.84652e-14
6.43928e-15
-1.08573e-14
6.20507e-15
-8.4545e-15
5.11354e-15
-6.79662e-15
4.21949e-15
-5.51876e-15
3.53254e-15
-4.53144e-15
3.01025e-15
-3.77645e-15
2.60531e-15
-3.22613e-15
2.20923e-15
-2.80394e-15
1.71716e-15
-2.34578e-15
1.20397e-15
-1.80255e-15
8.05379e-16
-1.48608e-15
5.53571e-17
-7.27986e-16
-2.27754e-16
-5.71626e-17
-1.39612e-17
-4.10333e-18
1.26772e-06
-8.97787e-07
-2.49086e-07
-9.0245e-08
-2.13032e-08
-7.26758e-09
-1.70268e-09
-5.79625e-10
-1.2822e-10
-4.94786e-11
-1.7508e-11
-2.07591e-12
-2.97232e-12
1.0156e-12
-1.65947e-12
1.02591e-12
-1.31681e-12
8.51034e-13
-1.07958e-12
6.90104e-13
-8.81082e-13
5.55831e-13
-7.1431e-13
4.46002e-13
-5.76055e-13
3.56961e-13
-4.62758e-13
2.85172e-13
-3.70696e-13
2.27509e-13
-2.96337e-13
1.81313e-13
-2.36529e-13
1.44372e-13
-1.88567e-13
1.1487e-13
-1.50187e-13
9.13352e-14
-1.19522e-13
7.25793e-14
-9.50497e-14
5.7648e-14
-7.55413e-14
4.5778e-14
-6.00026e-14
3.63769e-14
-4.7562e-14
2.92838e-14
-3.62144e-14
2.95911e-14
-9.04759e-15
-3.24563e-14
1.26062e-14
-1.96081e-14
1.17502e-14
-1.5334e-14
9.65363e-15
-1.23375e-14
7.95373e-15
-1.00257e-14
6.64716e-15
-8.24001e-15
5.65284e-15
-6.87448e-15
4.88389e-15
-5.87367e-15
4.1453e-15
-5.09382e-15
3.24236e-15
-4.24558e-15
2.29707e-15
-3.25209e-15
1.55927e-15
-2.64611e-15
1.95176e-16
-1.26998e-15
-3.64993e-16
-8.95791e-17
-2.17685e-17
-6.38879e-18
1.89402e-06
-1.41106e-06
-3.22748e-07
-1.21186e-07
-2.6747e-08
-9.68058e-09
-2.1337e-09
-7.72131e-10
-1.58524e-10
-6.64966e-11
-2.35596e-11
-1.99607e-12
-4.41926e-12
1.78705e-12
-2.61321e-12
1.71089e-12
-2.0879e-12
1.4152e-12
-1.71191e-12
1.14852e-12
-1.39652e-12
9.25935e-13
-1.13174e-12
7.4353e-13
-9.12421e-13
5.95418e-13
-7.32812e-13
4.75866e-13
-5.86933e-13
3.79759e-13
-4.69143e-13
3.02718e-13
-3.74425e-13
2.41084e-13
-2.9848e-13
1.91848e-13
-2.37714e-13
1.52561e-13
-1.89167e-13
1.21246e-13
-1.50428e-13
9.63117e-14
-1.1955e-13
7.64851e-14
-9.49587e-14
6.07699e-14
-7.53003e-14
4.87647e-14
-5.78225e-14
4.71541e-14
-1.34737e-14
-4.91745e-14
2.18745e-14
-3.08927e-14
1.96411e-14
-2.42892e-14
1.60793e-14
-1.9564e-14
1.32238e-14
-1.59142e-14
1.10281e-14
-1.30963e-14
9.35527e-15
-1.09413e-14
8.06539e-15
-9.35032e-15
6.85333e-15
-8.08534e-15
5.40164e-15
-6.70572e-15
3.87452e-15
-5.11555e-15
2.67419e-15
-4.08775e-15
5.07405e-16
-1.90669e-15
-4.77e-16
-1.13665e-16
-2.74626e-17
-8.0489e-18
2.65254e-06
-2.10005e-06
-3.60929e-07
-1.47836e-07
-2.90933e-08
-1.17117e-08
-2.31689e-09
-9.34571e-10
-1.67914e-10
-8.15342e-11
-2.87501e-11
-9.54073e-13
-6.2098e-12
2.98395e-12
-3.91492e-12
2.72167e-12
-3.15028e-12
2.24528e-12
-2.58311e-12
1.82373e-12
-2.10614e-12
1.4717e-12
-1.70608e-12
1.18267e-12
-1.37501e-12
9.47608e-13
-1.10408e-12
7.5765e-13
-8.84144e-13
6.04816e-13
-7.06615e-13
4.82229e-13