/*--------------------------------*- C++ -*----------------------------------*\
| =========                 |                                                 |
| \\      /  F ield         | OpenFOAM: The Open Source CFD Toolbox           |
|  \\    /   O peration     | Version:  5.x                                   |
|   \\  /    A nd           | Web:      www.OpenFOAM.org                      |
|    \\/     M anipulation  |                                                 |
\*---------------------------------------------------------------------------*/
FoamFile
{
    version     2.0;
    format      ascii;
    class       volScalarField;
    location    "3.9";
    object      gradTx;
}
// * * * * * * * * * * * * * * * * * * * * * * * * * * * * * * * * * * * * * //

dimensions      [0 -1 0 1 0 0 0];

internalField   nonuniform List<scalar> 
3200
(
2.92517e-10
-1.12697e-10
-3.06753e-11
-2.66512e-11
-2.36433e-11
-2.28133e-11
-1.15345e-11
-1.08208e-11
-7.88649e-12
-1.18388e-11
-5.32444e-12
-3.75068e-12
-3.59262e-12
-2.70668e-12
-2.62616e-12
-2.01038e-12
-1.9546e-12
-1.5075e-12
-1.46679e-12
-1.13604e-12
-1.10578e-12
-8.58179e-13
-8.35467e-13
-6.48768e-13
-6.31613e-13
-4.90233e-13
-4.77231e-13
-3.69927e-13
-3.60055e-13
-2.78544e-13
-2.71047e-13
-2.09139e-13
-2.03447e-13
-1.56473e-13
-1.52157e-13
-1.16569e-13
-1.13302e-13
-8.63969e-14
-8.39297e-14
-6.36419e-14
-6.1784e-14
-4.65347e-14
-4.51405e-14
-3.37231e-14
-3.26815e-14
-2.41751e-14
-2.34032e-14
-1.71142e-14
-1.65878e-14
-1.22599e-14
-1.85274e-14
-8.36269e-15
-5.50809e-15
-5.22521e-15
-3.52285e-15
-3.37058e-15
-2.21644e-15
-2.11583e-15
-1.35207e-15
-1.28646e-15
-7.98687e-16
-7.57348e-16
-4.57355e-16
-4.32242e-16
-2.54276e-16
-2.39534e-16
-1.37291e-16
-1.28893e-16
-7.1699e-17
-6.70278e-17
-3.56746e-17
-3.30613e-17
-1.48665e-17
-1.33933e-17
-3.548e-18
-2.88432e-18
-1.87854e-19
-3.44388e-20
-7.79521e-21
1.78355e-18
2.89268e-10
-1.01332e-10
-3.68317e-11
-2.78387e-11
-2.39514e-11
-2.19667e-11
-1.24799e-11
-1.08502e-11
-8.44486e-12
-1.09312e-11
-5.711e-12
-3.95658e-12
-3.56816e-12
-2.7803e-12
-2.59239e-12
-2.05788e-12
-1.9286e-12
-1.54157e-12
-1.44728e-12
-1.16113e-12
-1.09108e-12
-8.76915e-13
-8.24332e-13
-6.62873e-13
-6.23161e-13
-5.00905e-13
-4.70807e-13
-3.78023e-13
-3.55173e-13
-2.84695e-13
-2.67339e-13
-2.13811e-13
-2.00635e-13
-1.60019e-13
-1.50028e-13
-1.19257e-13
-1.11695e-13
-8.84307e-14
-8.27195e-14
-6.51769e-14
-6.08759e-14
-4.76897e-14
-4.44621e-14
-3.4589e-14
-3.21777e-14
-2.48227e-14
-2.30372e-14
-1.76184e-14
-1.64217e-14
-1.30699e-14
-1.70819e-14
-8.924e-15
-5.85567e-15
-5.16667e-15
-3.66266e-15
-3.30794e-15
-2.30713e-15
-2.07398e-15
-1.41237e-15
-1.26034e-15
-8.37552e-16
-7.41738e-16
-4.81481e-16
-4.23252e-16
-2.68709e-16
-2.34513e-16
-1.45642e-16
-1.26153e-16
-7.63958e-17
-6.55506e-17
-3.82343e-17
-3.21671e-17
-1.63616e-17
-1.29457e-17
-4.41742e-18
-2.87499e-18
-4.61831e-19
-9.82413e-20
-2.2573e-20
1.7787e-18
2.86608e-10
-9.31373e-11
-4.07676e-11
-2.88219e-11
-2.41834e-11
-2.14201e-11
-1.31108e-11
-1.09105e-11
-8.8075e-12
-1.03317e-11
-5.95887e-12
-4.10781e-12
-3.55964e-12
-2.82989e-12
-2.57245e-12
-2.08915e-12
-1.9129e-12
-1.56392e-12
-1.43544e-12
-1.17757e-12
-1.08213e-12
-8.8918e-13
-8.17547e-13
-6.72103e-13
-6.18005e-13
-5.07887e-13
-4.66888e-13
-3.8332e-13
-3.52194e-13
-2.88718e-13
-2.65076e-13
-2.16868e-13
-1.9892e-13
-1.6234e-13
-1.4873e-13
-1.21016e-13
-1.10715e-13
-8.97617e-14
-8.19818e-14
-6.61816e-14
-6.03228e-14
-4.84459e-14
-4.40493e-14
-3.51562e-14
-3.18715e-14
-2.52473e-14
-2.28163e-14
-1.79535e-14
-1.63417e-14
-1.35851e-14
-1.61231e-14
-9.28165e-15
-6.10801e-15
-5.14068e-15
-3.75647e-15
-3.27112e-15
-2.36709e-15
-2.04924e-15
-1.45227e-15
-1.24504e-15
-8.63331e-16
-7.327e-16
-4.97521e-16
-4.18111e-16
-2.78326e-16
-2.31676e-16
-1.51217e-16
-1.24622e-16
-7.95354e-17
-6.47317e-17
-3.99435e-17
-3.16622e-17
-1.7361e-17
-1.27026e-17
-5.00734e-18
-2.90044e-18
-6.53802e-19
-1.50515e-19
-3.50572e-20
1.77458e-18
2.8474e-10
-8.7831e-11
-4.30863e-11
-2.95125e-11
-2.434e-11
-2.1095e-11
-1.34973e-11
-1.09668e-11
-9.02492e-12
-9.96809e-12
-6.10579e-12
-4.20685e-12
-3.55833e-12
-2.86056e-12
-2.56152e-12
-2.10811e-12
-1.90408e-12
-1.57743e-12
-1.42876e-12
-1.18749e-12
-1.07707e-12
-8.96581e-13
-8.13703e-13
-6.77671e-13
-6.15083e-13
-5.12098e-13
-4.64665e-13
-3.86514e-13
-3.50504e-13
-2.91144e-13
-2.63793e-13
-2.18711e-13
-1.97947e-13
-1.63739e-13
-1.47994e-13
-1.22077e-13
-1.10159e-13
-9.05647e-14
-8.15641e-14
-6.67878e-14
-6.00097e-14
-4.89022e-14
-4.38157e-14
-3.54986e-14
-3.16985e-14
-2.55039e-14
-2.26924e-14
-1.81583e-14
-1.63073e-14
-1.38885e-14
-1.55393e-14
-9.49247e-15
-6.272e-15
-5.1313e-15
-3.81426e-15
-3.251e-15
-2.40356e-15
-2.03565e-15
-1.47656e-15
-1.23671e-15
-8.79053e-16
-7.27835e-16
-5.07323e-16
-4.1538e-16
-2.84213e-16
-2.30189e-16
-1.54635e-16
-1.2383e-16
-8.14624e-17
-6.43112e-17
-4.09919e-17
-3.13976e-17
-1.79744e-17
-1.25807e-17
-5.37359e-18
-2.93141e-18
-7.76001e-19
-1.87258e-19
-4.40619e-20
1.77159e-18
2.83779e-10
-8.5225e-11
-4.41577e-11
-2.98666e-11
-2.44192e-11
-2.09438e-11
-1.36808e-11
-1.09994e-11
-9.12678e-12
-9.79654e-12
-6.17407e-12
-4.2558e-12
-3.55892e-12
-2.87522e-12
-2.55672e-12
-2.11705e-12
-1.90014e-12
-1.58379e-12
-1.42577e-12
-1.19216e-12
-1.07479e-12
-9.00063e-13
-8.11974e-13
-6.80289e-13
-6.13767e-13
-5.14078e-13
-4.63664e-13
-3.88016e-13
-3.49743e-13
-2.92284e-13
-2.63215e-13
-2.19577e-13
-1.97508e-13
-1.64397e-13
-1.47662e-13
-1.22576e-13
-1.09909e-13
-9.09423e-14
-8.1376e-14
-6.7073e-14
-5.98689e-14
-4.9117e-14
-4.37107e-14
-3.56598e-14
-3.16208e-14
-2.56247e-14
-2.2637e-14
-1.82555e-14
-1.62953e-14
-1.40287e-14
-1.52632e-14
-9.59007e-15
-6.35268e-15
-5.12887e-15
-3.84183e-15
-3.24219e-15
-2.42082e-15
-2.02967e-15
-1.48805e-15
-1.23307e-15
-8.86502e-16
-7.25729e-16
-5.11973e-16
-4.1421e-16
-2.87008e-16
-2.2956e-16
-1.56259e-16
-1.23498e-16
-8.23792e-17
-6.41363e-17
-4.14904e-17
-3.12857e-17
-1.82662e-17
-1.25311e-17
-5.5491e-18
-2.95081e-18
-8.35487e-19
-2.06157e-19
-4.87702e-20
1.77002e-18
2.8378e-10
-8.52251e-11
-4.41578e-11
-2.98666e-11
-2.44192e-11
-2.09438e-11
-1.36808e-11
-1.09994e-11
-9.12678e-12
-9.79654e-12
-6.17407e-12
-4.2558e-12
-3.55892e-12
-2.87522e-12
-2.55672e-12
-2.11705e-12
-1.90014e-12
-1.58379e-12
-1.42577e-12
-1.19216e-12
-1.07479e-12
-9.00063e-13
-8.11974e-13
-6.8029e-13
-6.13767e-13
-5.14078e-13
-4.63664e-13
-3.88016e-13
-3.49743e-13
-2.92284e-13
-2.63215e-13
-2.19577e-13
-1.97508e-13
-1.64397e-13
-1.47662e-13
-1.22576e-13
-1.09909e-13
-9.09423e-14
-8.1376e-14
-6.7073e-14
-5.98689e-14
-4.9117e-14
-4.37107e-14
-3.56598e-14
-3.16208e-14
-2.56247e-14
-2.2637e-14
-1.82555e-14
-1.62954e-14
-1.40287e-14
-1.52632e-14
-9.59007e-15
-6.35268e-15
-5.12887e-15
-3.84183e-15
-3.24219e-15
-2.42082e-15
-2.02967e-15
-1.48805e-15
-1.23307e-15
-8.86502e-16
-7.25729e-16
-5.11973e-16
-4.1421e-16
-2.87008e-16
-2.2956e-16
-1.56259e-16
-1.23498e-16
-8.23791e-17
-6.41363e-17
-4.14904e-17
-3.12856e-17
-1.82661e-17
-1.25311e-17
-5.54909e-18
-2.95081e-18
-8.35483e-19
-2.06155e-19
-4.8768e-20
1.77002e-18
2.8474e-10
-8.78313e-11
-4.30863e-11
-2.95125e-11
-2.434e-11
-2.1095e-11
-1.34973e-11
-1.09668e-11
-9.02492e-12
-9.96809e-12
-6.10579e-12
-4.20685e-12
-3.55833e-12
-2.86056e-12
-2.56152e-12
-2.10811e-12
-1.90408e-12
-1.57743e-12
-1.42876e-12
-1.18749e-12
-1.07707e-12
-8.96581e-13
-8.13704e-13
-6.77671e-13
-6.15083e-13
-5.12098e-13
-4.64665e-13
-3.86514e-13
-3.50504e-13
-2.91144e-13
-2.63793e-13
-2.18711e-13
-1.97947e-13
-1.63739e-13
-1.47994e-13
-1.22077e-13
-1.10159e-13
-9.05647e-14
-8.15641e-14
-6.67878e-14
-6.00098e-14
-4.89023e-14
-4.38157e-14
-3.54986e-14
-3.16985e-14
-2.55039e-14
-2.26924e-14
-1.81583e-14
-1.63073e-14
-1.38885e-14
-1.55393e-14
-9.49246e-15
-6.272e-15
-5.13129e-15
-3.81426e-15
-3.25099e-15
-2.40356e-15
-2.03565e-15
-1.47656e-15
-1.23671e-15
-8.79053e-16
-7.27834e-16
-5.07323e-16
-4.15379e-16
-2.84212e-16
-2.30189e-16
-1.54635e-16
-1.2383e-16
-8.14623e-17
-6.43111e-17
-4.09918e-17
-3.13976e-17
-1.79743e-17
-1.25806e-17
-5.37357e-18
-2.93139e-18
-7.7599e-19
-1.87252e-19
-4.40558e-20
1.77159e-18
2.86609e-10
-9.31377e-11
-4.07677e-11
-2.88219e-11
-2.41834e-11
-2.14201e-11
-1.31108e-11
-1.09105e-11
-8.8075e-12
-1.03317e-11
-5.95887e-12
-4.10781e-12
-3.55963e-12
-2.82989e-12
-2.57245e-12
-2.08915e-12
-1.9129e-12
-1.56392e-12
-1.43544e-12
-1.17757e-12
-1.08213e-12
-8.8918e-13
-8.17547e-13
-6.72103e-13
-6.18005e-13
-5.07887e-13
-4.66888e-13
-3.8332e-13
-3.52194e-13
-2.88718e-13
-2.65076e-13
-2.16868e-13
-1.9892e-13
-1.6234e-13
-1.4873e-13
-1.21016e-13
-1.10715e-13
-8.97618e-14
-8.19819e-14
-6.61816e-14
-6.03229e-14
-4.84459e-14
-4.40493e-14
-3.51562e-14
-3.18715e-14
-2.52473e-14
-2.28163e-14
-1.79535e-14
-1.63417e-14
-1.35851e-14
-1.61231e-14
-9.28165e-15
-6.108e-15
-5.14068e-15
-3.75646e-15
-3.27111e-15
-2.36708e-15
-2.04924e-15
-1.45227e-15
-1.24504e-15
-8.6333e-16
-7.327e-16
-4.97521e-16
-4.18111e-16
-2.78325e-16
-2.31676e-16
-1.51217e-16
-1.24622e-16
-7.95353e-17
-6.47316e-17
-3.99435e-17
-3.16622e-17
-1.7361e-17
-1.27025e-17
-5.00731e-18
-2.90042e-18
-6.53788e-19
-1.50507e-19
-3.50492e-20
1.77458e-18
2.89269e-10
-1.01333e-10
-3.68318e-11
-2.78388e-11
-2.39515e-11
-2.19667e-11
-1.24799e-11
-1.08502e-11
-8.44487e-12
-1.09312e-11
-5.711e-12
-3.95658e-12
-3.56816e-12
-2.7803e-12
-2.59239e-12
-2.05788e-12
-1.9286e-12
-1.54157e-12
-1.44728e-12
-1.16113e-12
-1.09108e-12
-8.76915e-13
-8.24333e-13
-6.62873e-13
-6.23161e-13
-5.00905e-13
-4.70808e-13
-3.78024e-13
-3.55174e-13
-2.84695e-13
-2.67339e-13
-2.13811e-13
-2.00635e-13
-1.60019e-13
-1.50028e-13
-1.19257e-13
-1.11695e-13
-8.84308e-14
-8.27195e-14
-6.51769e-14
-6.0876e-14
-4.76897e-14
-4.44622e-14
-3.45891e-14
-3.21778e-14
-2.48227e-14
-2.30372e-14
-1.76184e-14
-1.64217e-14
-1.30699e-14
-1.70819e-14
-8.924e-15
-5.85567e-15
-5.16667e-15
-3.66266e-15
-3.30794e-15
-2.30712e-15
-2.07398e-15
-1.41237e-15
-1.26034e-15
-8.37552e-16
-7.41738e-16
-4.81481e-16
-4.23252e-16
-2.68709e-16
-2.34512e-16
-1.45642e-16
-1.26153e-16
-7.63957e-17
-6.55505e-17
-3.82342e-17
-3.21671e-17
-1.63616e-17
-1.29457e-17
-4.4174e-18
-2.87497e-18
-4.6182e-19
-9.82341e-20
-2.2566e-20
1.7787e-18
2.92517e-10
-1.12697e-10
-3.06753e-11
-2.66512e-11
-2.36433e-11
-2.28133e-11
-1.15345e-11
-1.08208e-11
-7.88649e-12
-1.18388e-11
-5.32444e-12
-3.75068e-12
-3.59262e-12
-2.70668e-12
-2.62616e-12
-2.01038e-12
-1.9546e-12
-1.5075e-12
-1.46679e-12
-1.13604e-12
-1.10578e-12
-8.5818e-13
-8.35467e-13
-6.48768e-13
-6.31613e-13
-4.90233e-13
-4.77231e-13
-3.69927e-13
-3.60056e-13
-2.78544e-13
-2.71047e-13
-2.09139e-13
-2.03447e-13
-1.56473e-13
-1.52157e-13
-1.16569e-13
-1.13302e-13
-8.6397e-14
-8.39297e-14
-6.3642e-14
-6.1784e-14
-4.65347e-14
-4.51405e-14
-3.37231e-14
-3.26815e-14
-2.41751e-14
-2.34032e-14
-1.71142e-14
-1.65878e-14
-1.22599e-14
-1.85274e-14
-8.36269e-15
-5.50809e-15
-5.22521e-15
-3.52285e-15
-3.37058e-15
-2.21644e-15
-2.11583e-15
-1.35207e-15
-1.28646e-15
-7.98687e-16
-7.57347e-16
-4.57355e-16
-4.32242e-16
-2.54276e-16
-2.39534e-16
-1.37291e-16
-1.28892e-16
-7.16989e-17
-6.70278e-17
-3.56746e-17
-3.30613e-17
-1.48665e-17
-1.33933e-17
-3.54799e-18
-2.88432e-18
-1.87849e-19
-3.44359e-20
-7.79224e-21
1.78356e-18
2.46561e-06
-2.19874e-06
-1.73934e-07
-7.40717e-08
-1.16374e-08
-5.6226e-09
-9.24637e-10
-4.5242e-10
-9.07241e-11
-6.21256e-11
-1.50258e-11
-7.23765e-12
-6.2342e-12
-4.84006e-12
-4.69209e-12
-3.91648e-12
-3.84061e-12
-3.20921e-12
-3.14822e-12
-2.61412e-12
-2.56292e-12
-2.11606e-12
-2.07348e-12
-1.70463e-12
-1.66965e-12
-1.36834e-12
-1.33985e-12
-1.09555e-12
-1.0725e-12
-8.75465e-13
-8.56907e-13
-6.98585e-13
-6.8369e-13
-5.56811e-13
-5.44884e-13
-4.43397e-13
-4.33862e-13
-3.52802e-13
-3.4519e-13
-2.80523e-13
-2.74454e-13
-2.22923e-13
-2.18089e-13
-1.77077e-13
-1.73233e-13
-1.40646e-13
-1.37614e-13
-1.1185e-13
-1.0983e-13
-9.201e-14
-1.49041e-13
-7.33205e-14
-5.72542e-14
-5.55578e-14
-4.54921e-14
-4.45398e-14
-3.67699e-14
-3.6048e-14
-3.00245e-14
-2.94671e-14
-2.48255e-14
-2.43972e-14
-2.08451e-14
-2.05168e-14
-1.77977e-14
-1.75309e-14
-1.51665e-14
-1.49073e-14
-1.23175e-14
-1.20392e-14
-9.27368e-15
-9.00883e-15
-6.72638e-15
-6.42116e-15
-2.82583e-15
-2.52038e-15
-1.53662e-16
-2.73925e-17
-6.17322e-18
-4.45861e-16
2.41251e-06
-1.94013e-06
-3.30584e-07
-1.06498e-07
-2.41126e-08
-8.27256e-09
-1.91697e-09
-6.6497e-10
-1.69303e-10
-7.63739e-11
-2.23006e-11
-9.35764e-12
-6.63453e-12
-5.04605e-12
-4.67711e-12
-3.98032e-12
-3.80292e-12
-3.25577e-12
-3.11454e-12
-2.65325e-12
-2.53479e-12
-2.14891e-12
-2.05041e-12
-1.73184e-12
-1.6509e-12
-1.39062e-12
-1.3247e-12
-1.11365e-12
-1.06032e-12
-8.90082e-13
-8.47137e-13
-7.10341e-13
-6.75871e-13
-5.66238e-13
-5.38635e-13
-4.50941e-13
-4.28875e-13
-3.5883e-13
-3.41215e-13
-2.85334e-13
-2.71287e-13
-2.26757e-13
-2.15571e-13
-1.80131e-13
-1.71236e-13
-1.43086e-13
-1.36081e-13
-1.13996e-13
-1.09516e-13
-9.75901e-14
-1.3718e-13
-7.77679e-14
-5.94135e-14
-5.52338e-14
-4.6304e-14
-4.40843e-14
-3.7356e-14
-3.56844e-14
-3.04774e-14
-2.91874e-14
-2.51752e-14
-2.41839e-14
-2.11126e-14
-2.03523e-14
-1.79959e-14
-1.73775e-14
-1.53258e-14
-1.47256e-14
-1.24912e-14
-1.18482e-14
-9.47193e-15
-8.85812e-15
-6.85792e-15
-6.15295e-15
-3.0958e-15
-2.39349e-15
-3.71362e-16
-7.7973e-17
-1.78715e-17
-4.49783e-16
2.36906e-06
-1.75556e-06
-4.31813e-07
-1.33255e-07
-3.39251e-08
-1.05427e-08
-2.70498e-09
-8.47194e-10
-2.31746e-10
-8.90594e-11
-2.79274e-11
-1.1068e-11
-6.98918e-12
-5.20314e-12
-4.67519e-12
-4.02335e-12
-3.78e-12
-3.28606e-12
-3.09363e-12
-2.67864e-12
-2.51735e-12
-2.17025e-12
-2.03613e-12
-1.74953e-12
-1.63931e-12
-1.40512e-12
-1.31535e-12
-1.12543e-12
-1.0528e-12
-8.996e-13
-8.41114e-13
-7.17997e-13
-6.71053e-13
-5.72379e-13
-5.34787e-13
-4.55856e-13
-4.25804e-13
-3.62758e-13
-3.38767e-13
-2.88468e-13
-2.69338e-13
-2.29257e-13
-2.14021e-13
-1.82122e-13
-1.70009e-13
-1.4468e-13
-1.35151e-13
-1.15436e-13
-1.09499e-13
-1.01109e-13
-1.29278e-13
-8.05724e-14
-6.10053e-14
-5.50994e-14
-4.68471e-14
-4.38088e-14
-3.77395e-14
-3.5462e-14
-3.07734e-14
-2.90163e-14
-2.54038e-14
-2.40536e-14
-2.12875e-14
-2.02516e-14
-1.81245e-14
-1.72814e-14
-1.54269e-14
-1.46092e-14
-1.26012e-14
-1.17264e-14
-9.59961e-15
-8.76279e-15
-6.9376e-15
-5.97879e-15
-3.27154e-15
-2.31938e-15
-5.199e-16
-1.19215e-16
-2.77465e-17
-4.53116e-16
2.33856e-06
-1.63689e-06
-4.92032e-07
-1.52041e-07
-4.06984e-08
-1.21905e-08
-3.25351e-09
-9.79616e-10
-2.7524e-10
-9.84694e-11
-3.1779e-11
-1.22657e-11
-7.25168e-12
-5.30974e-12
-4.67814e-12
-4.04998e-12
-3.76705e-12
-3.30425e-12
-3.08159e-12
-2.69385e-12
-2.5073e-12
-2.18304e-12
-2.02792e-12
-1.76015e-12
-1.63266e-12
-1.41382e-12
-1.30999e-12
-1.13251e-12
-1.0485e-12
-9.05318e-13
-8.37667e-13
-7.22598e-13
-6.68296e-13
-5.7607e-13
-5.32586e-13
-4.5881e-13
-4.24048e-13
-3.65118e-13
-3.37367e-13
-2.90353e-13
-2.68224e-13
-2.30759e-13
-2.13135e-13
-1.83319e-13
-1.69308e-13
-1.45639e-13
-1.34626e-13
-1.16324e-13
-1.09579e-13
-1.03164e-13
-1.2445e-13
-8.22104e-14
-6.20497e-14
-5.50581e-14
-4.7181e-14
-4.3654e-14
-3.79709e-14
-3.53355e-14
-3.09518e-14
-2.89191e-14
-2.55416e-14
-2.39797e-14
-2.13929e-14
-2.01942e-14
-1.82015e-14
-1.72255e-14
-1.54864e-14
-1.45403e-14
-1.26657e-14
-1.16546e-14
-9.67557e-15
-8.7069e-15
-6.98253e-15
-5.8745e-15
-3.37702e-15
-2.27912e-15
-6.12466e-16
-1.48078e-16
-3.48635e-17
-4.55535e-16
2.32288e-06
-1.57885e-06
-5.20053e-07
-1.61678e-07
-4.41568e-08
-1.30546e-08
-3.53517e-09
-1.04912e-09
-2.97581e-10
-1.0346e-10
-3.37384e-11
-1.28818e-11
-7.39076e-12
-5.36371e-12
-4.68084e-12
-4.06272e-12
-3.76124e-12
-3.31278e-12
-3.0761e-12
-2.70098e-12
-2.50273e-12
-2.18903e-12
-2.02419e-12
-1.76512e-12
-1.62964e-12
-1.4179e-12
-1.30756e-12
-1.13582e-12
-1.04655e-12
-9.08e-13
-8.36103e-13
-7.24756e-13
-6.67047e-13
-5.77801e-13
-5.31588e-13
-4.60196e-13
-4.23252e-13
-3.66226e-13
-3.36733e-13
-2.91237e-13
-2.67719e-13
-2.31464e-13
-2.12734e-13
-1.8388e-13
-1.6899e-13
-1.46089e-13
-1.34391e-13
-1.16748e-13
-1.09643e-13
-1.04109e-13
-1.22162e-13
-8.29639e-14
-6.25662e-14
-5.50513e-14
-4.73401e-14
-4.35848e-14
-3.80797e-14
-3.52785e-14
-3.10357e-14
-2.88753e-14
-2.56065e-14
-2.39463e-14
-2.14425e-14
-2.01683e-14
-1.82375e-14
-1.71998e-14
-1.55138e-14
-1.45082e-14
-1.26955e-14
-1.16214e-14
-9.71097e-15
-8.6811e-15
-7.00271e-15
-5.82571e-15
-3.42646e-15
-2.26158e-15
-6.56916e-16
-1.62881e-16
-3.85834e-17
-4.56804e-16
2.32289e-06
-1.57885e-06
-5.20054e-07
-1.61678e-07
-4.41567e-08
-1.30545e-08
-3.53513e-09
-1.0491e-09
-2.97574e-10
-1.03458e-10
-3.37376e-11
-1.28816e-11
-7.39068e-12
-5.36369e-12
-4.68084e-12
-4.06272e-12
-3.76124e-12
-3.31278e-12
-3.0761e-12
-2.70098e-12
-2.50273e-12
-2.18903e-12
-2.02419e-12
-1.76512e-12
-1.62964e-12
-1.4179e-12
-1.30756e-12
-1.13582e-12
-1.04655e-12
-9.08e-13
-8.36104e-13
-7.24757e-13
-6.67047e-13
-5.77801e-13
-5.31588e-13
-4.60196e-13
-4.23252e-13
-3.66226e-13
-3.36733e-13
-2.91237e-13
-2.67719e-13
-2.31464e-13
-2.12734e-13
-1.8388e-13
-1.6899e-13
-1.4609e-13
-1.34391e-13
-1.16748e-13
-1.09644e-13
-1.04109e-13
-1.22162e-13
-8.29639e-14
-6.25662e-14
-5.50513e-14
-4.73401e-14
-4.35848e-14
-3.80797e-14
-3.52785e-14
-3.10357e-14
-2.88753e-14
-2.56065e-14
-2.39463e-14
-2.14425e-14
-2.01683e-14
-1.82375e-14
-1.71998e-14
-1.55138e-14
-1.45082e-14
-1.26955e-14
-1.16214e-14
-9.71097e-15
-8.6811e-15
-7.00271e-15
-5.8257e-15
-3.42646e-15
-2.26157e-15
-6.56915e-16
-1.6288e-16
-3.85831e-17
-4.56804e-16
2.33856e-06
-1.63689e-06
-4.92033e-07
-1.52041e-07
-4.06981e-08
-1.21902e-08
-3.2534e-09
-9.79569e-10
-2.75221e-10
-9.8463e-11
-3.17769e-11
-1.2265e-11
-7.25148e-12
-5.30968e-12
-4.67812e-12
-4.04997e-12
-3.76705e-12
-3.30425e-12
-3.08159e-12
-2.69385e-12
-2.5073e-12
-2.18304e-12
-2.02792e-12
-1.76015e-12
-1.63266e-12
-1.41382e-12
-1.31e-12
-1.13251e-12
-1.0485e-12
-9.05318e-13
-8.37667e-13
-7.22598e-13
-6.68297e-13
-5.7607e-13
-5.32586e-13
-4.5881e-13
-4.24048e-13
-3.65119e-13
-3.37367e-13
-2.90353e-13
-2.68224e-13
-2.30759e-13
-2.13135e-13
-1.83319e-13
-1.69308e-13
-1.45639e-13
-1.34626e-13
-1.16324e-13
-1.09579e-13
-1.03164e-13
-1.2445e-13
-8.22104e-14
-6.20497e-14
-5.50581e-14
-4.7181e-14
-4.3654e-14
-3.79709e-14
-3.53356e-14
-3.09518e-14
-2.89192e-14
-2.55417e-14
-2.39797e-14
-2.13929e-14
-2.01942e-14
-1.82015e-14
-1.72255e-14
-1.54864e-14
-1.45403e-14
-1.26657e-14
-1.16546e-14
-9.67558e-15
-8.7069e-15
-6.98253e-15
-5.8745e-15
-3.37702e-15
-2.27912e-15
-6.12462e-16
-1.48075e-16
-3.48627e-17
-4.55533e-16
2.36906e-06
-1.75556e-06
-4.31813e-07
-1.33255e-07
-3.39247e-08
-1.05425e-08
-2.70484e-09
-8.47133e-10
-2.31722e-10
-8.9051e-11
-2.79246e-11
-1.10671e-11
-6.98892e-12
-5.20306e-12
-4.67517e-12
-4.02334e-12
-3.78e-12
-3.28606e-12
-3.09363e-12
-2.67864e-12
-2.51735e-12
-2.17025e-12
-2.03613e-12
-1.74953e-12
-1.63931e-12
-1.40512e-12
-1.31536e-12
-1.12543e-12
-1.0528e-12
-8.99601e-13
-8.41115e-13
-7.17998e-13
-6.71053e-13
-5.72379e-13
-5.34787e-13
-4.55856e-13
-4.25805e-13
-3.62758e-13
-3.38767e-13
-2.88469e-13
-2.69339e-13
-2.29257e-13
-2.14021e-13
-1.82122e-13
-1.70009e-13
-1.4468e-13
-1.35151e-13
-1.15436e-13
-1.09499e-13
-1.01109e-13
-1.29278e-13
-8.05725e-14
-6.10053e-14
-5.50994e-14
-4.68471e-14
-4.38088e-14
-3.77395e-14
-3.5462e-14
-3.07735e-14
-2.90164e-14
-2.54038e-14
-2.40536e-14
-2.12875e-14
-2.02516e-14
-1.81245e-14
-1.72814e-14
-1.54269e-14
-1.46093e-14
-1.26012e-14
-1.17264e-14
-9.59962e-15
-8.76279e-15
-6.9376e-15
-5.97879e-15
-3.27153e-15
-2.31937e-15
-5.19894e-16
-1.19211e-16
-2.77455e-17
-4.53114e-16
2.41252e-06
-1.94013e-06
-3.30584e-07
-1.06498e-07
-2.41122e-08
-8.27233e-09
-1.91685e-09
-6.64917e-10
-1.69282e-10
-7.63667e-11
-2.22982e-11
-9.35689e-12
-6.6343e-12
-5.04598e-12
-4.6771e-12
-3.98032e-12
-3.80292e-12
-3.25577e-12
-3.11454e-12
-2.65325e-12
-2.53479e-12
-2.14891e-12
-2.05041e-12
-1.73184e-12
-1.6509e-12
-1.39062e-12
-1.32471e-12
-1.11365e-12
-1.06032e-12
-8.90083e-13
-8.47137e-13
-7.10341e-13
-6.75871e-13
-5.66238e-13
-5.38636e-13
-4.50941e-13
-4.28876e-13
-3.5883e-13
-3.41215e-13
-2.85334e-13
-2.71288e-13
-2.26758e-13
-2.15571e-13
-1.80131e-13
-1.71237e-13
-1.43086e-13
-1.36081e-13
-1.13996e-13
-1.09516e-13
-9.75902e-14
-1.3718e-13
-7.7768e-14
-5.94135e-14
-5.52338e-14
-4.6304e-14
-4.40843e-14
-3.7356e-14
-3.56844e-14
-3.04774e-14
-2.91874e-14
-2.51752e-14
-2.41839e-14
-2.11126e-14
-2.03524e-14
-1.79959e-14
-1.73775e-14
-1.53258e-14
-1.47257e-14
-1.24912e-14
-1.18482e-14
-9.47194e-15
-8.85812e-15
-6.85792e-15
-6.15295e-15
-3.09579e-15
-2.39349e-15
-3.71357e-16
-7.79697e-17
-1.78707e-17
-4.49781e-16
2.46561e-06
-2.19874e-06
-1.73934e-07
-7.40716e-08
-1.16372e-08
-5.62251e-09
-9.24589e-10
-4.52399e-10
-9.07159e-11
-6.21227e-11
-1.50249e-11
-7.23735e-12
-6.23411e-12
-4.84004e-12
-4.69209e-12
-3.91648e-12
-3.84061e-12
-3.20921e-12
-3.14822e-12
-2.61412e-12
-2.56292e-12
-2.11606e-12
-2.07348e-12
-1.70463e-12
-1.66965e-12
-1.36834e-12
-1.33985e-12
-1.09555e-12
-1.0725e-12
-8.75466e-13
-8.56907e-13
-6.98586e-13
-6.8369e-13
-5.56812e-13
-5.44884e-13
-4.43397e-13
-4.33862e-13
-3.52802e-13
-3.45191e-13
-2.80523e-13
-2.74454e-13
-2.22923e-13
-2.18089e-13
-1.77077e-13
-1.73233e-13
-1.40646e-13
-1.37614e-13
-1.1185e-13
-1.0983e-13
-9.20101e-14
-1.49041e-13
-7.33205e-14
-5.72542e-14
-5.55578e-14
-4.54921e-14
-4.45398e-14
-3.67699e-14
-3.6048e-14
-3.00245e-14
-2.94671e-14
-2.48255e-14
-2.43973e-14
-2.08451e-14
-2.05168e-14
-1.77977e-14
-1.75309e-14
-1.51665e-14
-1.49073e-14
-1.23175e-14
-1.20392e-14
-9.27369e-15
-9.00884e-15
-6.72638e-15
-6.42116e-15
-2.82583e-15
-2.52038e-15
-1.5366e-16
-2.73912e-17
-6.17294e-18
-4.45861e-16
2.46669e-06
-2.19962e-06
-1.74044e-07
-7.41424e-08
-1.16477e-08
-5.62869e-09
-9.25429e-10
-4.52787e-10
-9.06557e-11
-6.19028e-11
-1.48859e-11
-7.11202e-12
-6.11018e-12
-4.73201e-12
-4.58567e-12
-3.82548e-12
-3.75113e-12
-3.13361e-12
-3.07397e-12
-2.55192e-12
-2.50188e-12
-2.06526e-12
-2.02367e-12
-1.66337e-12
-1.62921e-12
-1.33497e-12
-1.30716e-12
-1.06865e-12
-1.04615e-12
-8.53844e-13
-8.35732e-13
-6.81242e-13
-6.66708e-13
-5.42926e-13
-5.31291e-13
-4.323e-13
-4.23e-13
-3.43947e-13
-3.36524e-13
-2.73468e-13
-2.67549e-13
-2.17308e-13
-2.12595e-13
-1.72614e-13
-1.68867e-13
-1.37101e-13
-1.34145e-13
-1.09032e-13
-1.07063e-13
-8.96941e-14
-1.45292e-13
-7.14777e-14
-5.58179e-14
-5.41644e-14
-4.43538e-14
-4.34256e-14
-3.5853e-14
-3.51495e-14
-2.92793e-14
-2.87361e-14
-2.42136e-14
-2.37964e-14
-2.03367e-14
-2.00171e-14
-1.73708e-14
-1.71113e-14
-1.4813e-14
-1.45609e-14
-1.20397e-14
-1.17685e-14
-9.06971e-15
-8.81129e-15
-6.58486e-15
-6.28648e-15
-2.76698e-15
-2.46795e-15
-1.50462e-16
-2.68219e-17
-6.04464e-18
-4.36395e-16
2.41357e-06
-1.94091e-06
-3.30752e-07
-1.06578e-07
-2.41307e-08
-8.2801e-09
-1.91858e-09
-6.65498e-10
-1.69301e-10
-7.6188e-11
-2.21602e-11
-9.23097e-12
-6.51162e-12
-4.93689e-12
-4.57173e-12
-3.88822e-12
-3.71435e-12
-3.17916e-12
-3.04105e-12
-2.59017e-12
-2.4744e-12
-2.09736e-12
-2.00113e-12
-1.68995e-12
-1.6109e-12
-1.35673e-12
-1.29237e-12
-1.08632e-12
-1.03427e-12
-8.68111e-13
-8.26199e-13
-6.92714e-13
-6.59081e-13
-5.52124e-13
-5.25197e-13
-4.39658e-13
-4.18137e-13
-3.49826e-13
-3.32648e-13
-2.78158e-13
-2.64462e-13
-2.21047e-13
-2.1014e-13
-1.75591e-13
-1.6692e-13
-1.3948e-13
-1.32651e-13
-1.11124e-13
-1.06757e-13
-9.51337e-14
-1.33729e-13
-7.58133e-14
-5.79227e-14
-5.38487e-14
-4.51451e-14
-4.29817e-14
-3.64242e-14
-3.47951e-14
-2.97207e-14
-2.84636e-14
-2.45543e-14
-2.35886e-14
-2.05973e-14
-1.98571e-14
-1.75638e-14
-1.69623e-14
-1.49678e-14
-1.43839e-14
-1.22087e-14
-1.15819e-14
-9.26316e-15
-8.66424e-15
-6.71291e-15
-6.02376e-15
-3.0312e-15
-2.34367e-15
-3.63628e-16
-7.63489e-17
-1.74993e-17
-4.40236e-16
2.37009e-06
-1.75626e-06
-4.32019e-07
-1.33343e-07
-3.3949e-08
-1.05515e-08
-2.70721e-09
-8.47861e-10
-2.31798e-10
-8.89011e-11
-2.77878e-11
-1.09406e-11
-6.86698e-12
-5.09327e-12
-4.57046e-12
-3.93054e-12
-3.69199e-12
-3.2088e-12
-3.02063e-12
-2.61499e-12
-2.45736e-12
-2.11821e-12
-1.98718e-12
-1.70724e-12
-1.59958e-12
-1.37089e-12
-1.28324e-12
-1.09783e-12
-1.02693e-12
-8.77401e-13
-8.20324e-13
-7.00185e-13
-6.54381e-13
-5.58115e-13
-5.21443e-13
-4.44453e-13
-4.15143e-13
-3.53657e-13
-3.30261e-13
-2.81215e-13
-2.62562e-13
-2.23484e-13
-2.0863e-13
-1.77532e-13
-1.65723e-13
-1.41033e-13
-1.31744e-13
-1.12528e-13
-1.0674e-13
-9.85638e-14
-1.26026e-13
-7.85473e-14
-5.94743e-14
-5.37177e-14
-4.56745e-14
-4.27133e-14
-3.6798e-14
-3.45784e-14
-3.00092e-14
-2.8297e-14
-2.47771e-14
-2.34618e-14
-2.07677e-14
-1.97591e-14
-1.7689e-14
-1.68689e-14
-1.5066e-14
-1.42705e-14
-1.23157e-14
-1.1463e-14
-9.38775e-15
-8.57123e-15
-6.79042e-15
-5.85313e-15
-3.2032e-15
-2.27107e-15
-5.09071e-16
-1.16732e-16
-2.71685e-17
-4.43499e-16
2.33958e-06
-1.63755e-06
-4.9226e-07
-1.52134e-07
-4.07262e-08
-1.22002e-08
-3.25616e-09
-9.80384e-10
-2.75329e-10
-9.83296e-11
-3.16405e-11
-1.2138e-11
-7.12989e-12
-5.19945e-12
-4.57379e-12
-3.95675e-12
-3.67938e-12
-3.22661e-12
-3.00887e-12
-2.62987e-12
-2.44755e-12
-2.13071e-12
-1.97917e-12
-1.71761e-12
-1.59309e-12
-1.37939e-12
-1.27801e-12
-1.10474e-12
-1.02273e-12
-8.82983e-13
-8.1696e-13
-7.04675e-13
-6.51693e-13
-5.61716e-13
-5.19297e-13
-4.47335e-13
-4.1343e-13
-3.55959e-13
-3.28897e-13
-2.83053e-13
-2.61476e-13
-2.24949e-13
-2.07766e-13
-1.78699e-13
-1.6504e-13
-1.41968e-13
-1.31233e-13
-1.13393e-13
-1.06818e-13
-1.00567e-13
-1.2132e-13
-8.01441e-14
-6.04924e-14
-5.36775e-14
-4.6e-14
-4.25624e-14
-3.70235e-14
-3.44552e-14
-3.01831e-14
-2.82023e-14
-2.49114e-14
-2.33898e-14
-2.08704e-14
-1.97033e-14
-1.7764e-14
-1.68146e-14
-1.51238e-14
-1.42034e-14
-1.23784e-14
-1.13929e-14
-9.46186e-15
-8.51669e-15
-6.83411e-15
-5.75094e-15
-3.30643e-15
-2.23164e-15
-5.99708e-16
-1.44994e-16
-3.41374e-17
-4.45867e-16
2.3239e-06
-1.57949e-06
-5.20292e-07
-1.61774e-07
-4.41864e-08
-1.30648e-08
-3.53803e-09
-1.04994e-09
-2.97689e-10
-1.0333e-10
-3.36005e-11
-1.2754e-11
-7.26916e-12
-5.25323e-12
-4.57667e-12
-3.9693e-12
-3.67372e-12
-3.23496e-12
-3.00351e-12
-2.63683e-12
-2.44308e-12
-2.13657e-12
-1.97552e-12
-1.72247e-12
-1.59014e-12
-1.38338e-12
-1.27564e-12
-1.10798e-12
-1.02083e-12
-8.85601e-13
-8.15435e-13
-7.06782e-13
-6.50474e-13
-5.63406e-13
-5.18323e-13
-4.48687e-13
-4.12654e-13
-3.5704e-13
-3.28278e-13
-2.83915e-13
-2.60984e-13
-2.25636e-13
-2.07375e-13
-1.79246e-13
-1.64731e-13
-1.42407e-13
-1.31003e-13
-1.13806e-13
-1.06882e-13
-1.01489e-13
-1.19089e-13
-8.08786e-14
-6.09959e-14
-5.36709e-14
-4.61551e-14
-4.2495e-14
-3.71296e-14
-3.43996e-14
-3.02648e-14
-2.81596e-14
-2.49746e-14
-2.33573e-14
-2.09187e-14
-1.96781e-14
-1.77991e-14
-1.67897e-14
-1.51505e-14
-1.41721e-14
-1.24073e-14
-1.13604e-14
-9.49639e-15
-8.49151e-15
-6.85371e-15
-5.70312e-15
-3.35481e-15
-2.21445e-15
-6.43232e-16
-1.59488e-16
-3.77797e-17
-4.4711e-16
2.3239e-06
-1.57949e-06
-5.20292e-07
-1.61774e-07
-4.41863e-08
-1.30647e-08
-3.53799e-09
-1.04993e-09
-2.97682e-10
-1.03327e-10
-3.35997e-11
-1.27538e-11
-7.26909e-12
-5.25321e-12
-4.57666e-12
-3.9693e-12
-3.67372e-12
-3.23496e-12
-3.00351e-12
-2.63683e-12
-2.44308e-12
-2.13657e-12
-1.97552e-12
-1.72247e-12
-1.59014e-12
-1.38338e-12
-1.27564e-12
-1.10798e-12
-1.02083e-12
-8.85601e-13
-8.15435e-13
-7.06782e-13
-6.50474e-13
-5.63406e-13
-5.18324e-13
-4.48687e-13
-4.12654e-13
-3.5704e-13
-3.28278e-13
-2.83915e-13
-2.60984e-13
-2.25636e-13
-2.07375e-13
-1.79246e-13
-1.64731e-13
-1.42407e-13
-1.31003e-13
-1.13806e-13
-1.06882e-13
-1.01489e-13
-1.19089e-13
-8.08786e-14
-6.09959e-14
-5.36709e-14
-4.61551e-14
-4.2495e-14
-3.71296e-14
-3.43996e-14
-3.02648e-14
-2.81596e-14
-2.49746e-14
-2.33573e-14
-2.09187e-14
-1.96781e-14
-1.77991e-14
-1.67897e-14
-1.51505e-14
-1.41721e-14
-1.24073e-14
-1.13604e-14
-9.49639e-15
-8.49151e-15
-6.85371e-15
-5.70312e-15
-3.35481e-15
-2.21444e-15
-6.4323e-16
-1.59487e-16
-3.77794e-17
-4.4711e-16
2.33958e-06
-1.63755e-06
-4.92261e-07
-1.52134e-07
-4.07259e-08
-1.22e-08
-3.25605e-09
-9.80337e-10
-2.7531e-10
-9.83232e-11
-3.16384e-11
-1.21374e-11
-7.12969e-12
-5.19939e-12
-4.57377e-12
-3.95675e-12
-3.67938e-12
-3.22661e-12
-3.00887e-12
-2.62987e-12
-2.44755e-12
-2.13072e-12
-1.97917e-12
-1.71761e-12
-1.59309e-12
-1.37939e-12
-1.27801e-12
-1.10474e-12
-1.02273e-12
-8.82983e-13
-8.16961e-13
-7.04676e-13
-6.51693e-13
-5.61716e-13
-5.19297e-13
-4.47335e-13
-4.13431e-13
-3.55959e-13
-3.28897e-13
-2.83053e-13
-2.61476e-13
-2.24949e-13
-2.07767e-13
-1.78699e-13
-1.6504e-13
-1.41968e-13
-1.31233e-13
-1.13393e-13
-1.06818e-13
-1.00567e-13
-1.2132e-13
-8.01441e-14
-6.04924e-14
-5.36775e-14
-4.6e-14
-4.25624e-14
-3.70235e-14
-3.44552e-14
-3.01831e-14
-2.82023e-14
-2.49115e-14
-2.33898e-14
-2.08704e-14
-1.97033e-14
-1.7764e-14
-1.68146e-14
-1.51238e-14
-1.42034e-14
-1.23784e-14
-1.13929e-14
-9.46186e-15
-8.51669e-15
-6.8341e-15
-5.75094e-15
-3.30642e-15
-2.23163e-15
-5.99703e-16
-1.44991e-16
-3.41366e-17
-4.45865e-16
2.3701e-06
-1.75626e-06
-4.32019e-07
-1.33342e-07
-3.39486e-08
-1.05513e-08
-2.70707e-09
-8.478e-10
-2.31774e-10
-8.88927e-11
-2.7785e-11
-1.09398e-11
-6.86672e-12
-5.0932e-12
-4.57044e-12
-3.93054e-12
-3.69199e-12
-3.20881e-12
-3.02063e-12
-2.61499e-12
-2.45736e-12
-2.11821e-12
-1.98719e-12
-1.70724e-12
-1.59958e-12
-1.37089e-12
-1.28325e-12
-1.09783e-12
-1.02693e-12
-8.77402e-13
-8.20324e-13
-7.00186e-13
-6.54382e-13
-5.58116e-13
-5.21444e-13
-4.44453e-13
-4.15143e-13
-3.53657e-13
-3.30261e-13
-2.81215e-13
-2.62563e-13
-2.23484e-13
-2.0863e-13
-1.77532e-13
-1.65724e-13
-1.41033e-13
-1.31744e-13
-1.12528e-13
-1.06741e-13
-9.85639e-14
-1.26026e-13
-7.85474e-14
-5.94743e-14
-5.37177e-14
-4.56745e-14
-4.27133e-14
-3.6798e-14
-3.45784e-14
-3.00092e-14
-2.8297e-14
-2.47771e-14
-2.34618e-14
-2.07677e-14
-1.97591e-14
-1.7689e-14
-1.68689e-14
-1.5066e-14
-1.42706e-14
-1.23157e-14
-1.1463e-14
-9.38775e-15
-8.57123e-15
-6.79042e-15
-5.85313e-15
-3.20319e-15
-2.27107e-15
-5.09065e-16
-1.16728e-16
-2.71675e-17
-4.43497e-16
2.41357e-06
-1.94091e-06
-3.30752e-07
-1.06577e-07
-2.41304e-08
-8.27987e-09
-1.91846e-09
-6.65445e-10
-1.69281e-10
-7.61808e-11
-2.21578e-11
-9.23022e-12
-6.51139e-12
-4.93682e-12
-4.57171e-12
-3.88822e-12
-3.71435e-12
-3.17916e-12
-3.04106e-12
-2.59017e-12
-2.47441e-12
-2.09736e-12
-2.00113e-12
-1.68996e-12
-1.6109e-12