/*--------------------------------*- C++ -*----------------------------------*\
| =========                 |                                                 |
| \\      /  F ield         | OpenFOAM: The Open Source CFD Toolbox           |
|  \\    /   O peration     | Version:  5.x                                   |
|   \\  /    A nd           | Web:      www.OpenFOAM.org                      |
|    \\/     M anipulation  |                                                 |
\*---------------------------------------------------------------------------*/
FoamFile
{
    version     2.0;
    format      ascii;
    class       volScalarField;
    location    "2.3";
    object      gradTx;
}
// * * * * * * * * * * * * * * * * * * * * * * * * * * * * * * * * * * * * * //

dimensions      [0 -1 0 1 0 0 0];

internalField   nonuniform List<scalar> 
6300
(
253.38
254.362
256.296
259.118
262.73
266.992
271.722
276.685
281.601
286.142
289.943
292.624
293.811
293.175
290.46
252.38
253.393
255.39
258.311
262.062
266.508
271.47
276.716
281.96
286.865
291.048
294.102
295.62
295.239
292.674
250.351
251.423
253.543
256.657
260.681
265.492
270.917
276.731
282.642
288.293
293.266
297.099
299.315
299.474
297.226
247.232
248.389
250.684
254.076
258.497
263.842
269.959
276.631
283.565
290.382
296.609
301.696
305.052
306.103
304.38
242.94
244.2
246.71
250.448
255.371
261.405
268.428
276.251
284.59
293.044
301.075
308.01
313.077
315.491
314.577
237.371
238.743
241.492
245.618
251.117
257.96
266.08
275.337
285.482
296.111
306.619
316.173
323.741
328.191
328.502
230.412
231.895
234.879
239.399
245.5
253.222
262.577
273.517
285.872
299.281
313.097
326.306
337.504
345.013
347.2
221.954
223.527
226.712
231.583
238.246
246.833
257.473
270.262
285.189
302.025
320.163
338.43
354.938
367.135
372.289
211.906
213.533
216.843
221.957
229.053
238.372
250.202
264.852
282.579
303.446
327.079
352.293
376.658
396.281
406.356
200.217
201.837
205.155
210.332
217.621
227.382
240.093
256.346
276.807
302.08
332.393
366.979
403.096
434.947
453.757
186.892
188.428
191.593
196.579
203.7
213.425
226.423
243.613
266.204
295.653
333.407
380.109
433.769
486.623
522.355
172.015
173.377
176.196
180.675
187.158
196.179
208.544
225.462
248.721
280.896
325.448
386.251
465.218
555.387
627.754
155.762
156.854
159.123
162.754
168.065
175.572
186.094
200.951
222.303
253.737
301.211
374.199
485.426
641.912
805.057
138.405
139.141
140.675
143.137
146.762
151.934
159.293
169.928
185.783
210.516
251.435
323.875
460.335
721.727
1147.07
120.298
120.619
121.284
122.347
123.899
126.097
129.2
133.669
140.367
151.09
170.113
209.504
310.268
637.52
1951.31
286.105
280.421
273.216
264.597
254.714
243.754
231.921
219.429
206.483
193.277
179.983
166.748
153.693
140.916
128.489
116.464
104.872
93.7311
83.0446
72.8063
63.0025
53.6139
44.6176
35.9885
27.7007
19.7282
12.0456
4.62882
-2.54518
-9.49773
-16.2486
-22.8157
-29.2155
-35.4622
-41.5685
-47.5447
-53.3994
-59.139
-64.768
-70.2897
-75.7059
-81.018
-86.227
-91.3347
-96.3432
-101.256
-106.077
-110.811
-115.463
-120.039
-124.542
-128.974
-133.337
-137.628
-141.844
-145.98
-150.028
-153.984
-157.838
-161.585
-165.219
-168.734
-172.126
-175.386
-178.506
-181.475
-184.275
-186.886
-189.282
-191.431
-193.297
-194.841
-196.024
-196.806
-197.148
-197.017
-196.385
-195.228
-193.532
-191.289
-188.501
-185.178
-181.339
-177.014
-172.243
-167.078
-161.581
-155.824
-149.886
-143.851
288.351
282.6
275.246
266.411
256.262
245.008
232.871
220.083
206.862
193.41
179.905
166.495
153.303
140.423
127.924
115.852
104.237
93.091
82.4137
72.1955
62.4195
53.0638
44.1032
35.5111
27.2602
19.3236
11.6754
4.29088
-2.85306
-9.77791
-16.5035
-23.048
-29.4277
-35.6571
-41.749
-47.7138
-53.5598
-59.2933
-64.9185
-70.4379
-75.8527
-81.1635
-86.3707
-91.4754
-96.4796
-101.387
-106.201
-110.928
-115.573
-120.144
-124.643
-129.075
-133.44
-137.736
-141.96
-146.105
-150.164
-154.129
-157.993
-161.749
-165.391
-168.914
-172.315
-175.588
-178.725
-181.717
-184.548
-187.197
-189.638
-191.838
-193.76
-195.363
-196.603
-197.439
-197.83
-197.74
-197.14
-196.005
-194.319
-192.075
-189.272
-185.921
-182.039
-177.655
-172.81
-167.556
-161.956
-156.085
-150.025
-143.867
292.973
287.075
279.404
270.109
259.4
247.528
234.76
221.361
207.576
193.625
179.695
165.938
152.475
139.392
126.754
114.597
102.941
91.7899
81.1362
70.9626
61.246
51.959
43.0725
34.5563
26.3806
18.5167
10.9377
3.6181
-3.46553
-10.3349
-17.0098
-23.5088
-29.8482
-36.043
-42.106
-48.0478
-53.8768
-59.5988
-65.2171
-70.7329
-76.1461
-81.4554
-86.6598
-91.7591
-96.7546
-101.65
-106.449
-111.161
-115.792
-120.35
-124.842
-129.272
-133.642
-137.949
-142.19
-146.355
-150.435
-154.421
-158.304
-162.077
-165.733
-169.271
-172.689
-175.985
-179.155
-182.192
-185.083
-187.809
-190.342
-192.647
-194.684
-196.406
-197.764
-198.712
-199.203
-199.199
-198.664
-197.574
-195.911
-193.664
-190.834
-187.427
-183.461
-178.961
-173.967
-168.532
-162.721
-156.615
-150.307
-143.895
300.239
294.096
285.893
275.836
264.209
251.338
237.56
223.196
208.532
193.815
179.242
164.968
151.107
137.735
124.902
112.633
100.931
89.7877
79.1823
69.0868
59.4686
50.2926
41.5231
33.1252
25.0654
17.3128
9.8388
2.61725
-4.37557
-11.1614
-17.7602
-24.1905
-30.4691
-36.6114
-42.6308
-48.5385
-54.3428
-60.0489
-65.659
-71.1723
-76.5859
-81.8958
-87.098
-92.1903
-97.1727
-102.049
-106.824
-111.509
-116.115
-120.651
-125.13
-129.556
-133.934
-138.26
-142.528
-146.727
-150.843
-154.863
-158.776
-162.572
-166.247
-169.802
-173.24
-176.564
-179.777
-182.877
-185.857
-188.699
-191.374
-193.844
-196.061
-197.972
-199.518
-200.642
-201.292
-201.42
-200.989
-199.969
-198.342
-196.095
-193.226
-189.74
-185.65
-180.978
-175.761
-170.048
-163.911
-157.438
-150.736
-143.924
310.606
304.074
295.043
283.818
270.804
256.452
241.205
225.464
209.572
193.803
178.368
163.414
149.043
135.314
122.254
109.865
98.132
87.0259
76.5092
66.5388
57.0694
48.0555
39.4531
31.221
23.3214
15.7206
8.38848
1.29853
-5.57291
-12.2472
-18.744
-25.0819
-31.2784
-37.3496
-43.3102
-49.1723
-54.9449
-60.6328
-66.2364
-71.7519
-77.1722
-82.4885
-87.6925
-92.778
-97.743
-102.591
-107.329
-111.972
-116.536
-121.037
-125.492
-129.911
-134.3
-138.655
-142.967
-147.218
-151.39
-155.461
-159.415
-163.241
-166.936
-170.504
-173.955
-177.303
-180.561
-183.737
-186.831
-189.829
-192.701
-195.405
-197.881
-200.063
-201.878
-203.256
-204.132
-204.448
-204.162
-203.241
-201.664
-199.421
-196.506
-192.922
-188.676
-183.781
-178.266
-172.176
-165.584
-158.59
-151.324
-143.935
324.78
317.642
307.344
294.368
279.323
262.854
245.56
227.953
210.439
193.321
176.808
161.032
146.068
131.943
118.652
106.168
94.4457
83.4316
73.0655
63.2854
54.0301
45.2412
36.8646
28.852
21.1607
13.7543
6.60161
-0.32344
-7.04346
-13.5786
-19.9476
-26.1688
-32.2604
-38.2403
-44.1252
-49.9297
-55.6642
-61.3338
-66.9369
-72.4653
-77.9054
-83.2408
-88.4557
-93.5378
-98.4812
-103.289
-107.971
-112.549
-117.046
-121.49
-125.905
-130.31
-134.714
-139.114
-143.493
-147.826
-152.081
-156.227
-160.239
-164.1
-167.808
-171.374
-174.819
-178.172
-181.463
-184.717
-187.944
-191.139
-194.273
-197.293
-200.125
-202.682
-204.869
-206.595
-207.776
-208.344
-208.248
-207.456
-205.947
-203.713
-200.751
-197.059
-192.634
-187.478
-181.598
-175.028
-167.835
-160.134
-152.089
-143.899
343.847
335.745
323.493
307.888
289.888
270.441
250.366
230.31
210.743
191.976
174.196
157.495
141.898
127.385
113.906
101.39
89.7576
78.922
68.7958
59.294
50.3363
41.8494
33.7678
26.0351
18.6039
11.4355
4.4993
-2.22918
-8.76964
-15.1393
-21.3549
-27.434
-33.3958
-39.2609
-45.0502
-50.7825
-56.4724
-62.1266
-67.7417
-73.303
-78.7869
-84.1648
-89.4086
-94.4958
-99.4143
-104.165
-108.765
-113.241
-117.634
-121.984
-126.332
-130.71
-135.135
-139.602
-144.086
-148.546
-152.931
-157.189
-161.28
-165.18
-168.886
-172.419
-175.816
-179.132
-182.421
-185.734
-189.104
-192.539
-196.01
-199.451
-202.766
-205.833
-208.525
-210.718
-212.303
-213.196
-213.339
-212.702
-211.273
-209.054
-206.047
-202.25
-197.647
-192.214
-185.926
-178.777
-170.817
-162.174
-153.063
-143.768
369.499
359.811
344.459
324.845
302.531
278.927
255.143
231.967
209.9
189.22
170.043
152.382
136.184
121.357
107.79
95.3605
83.9423
73.4111
63.6472
54.5388
45.9839
37.8922
30.1858
22.8002
15.6835
8.79653
2.11067
-4.39384
-10.7309
-16.9121
-22.9498
-28.8599
-34.6631
-40.3844
-46.0514
-51.6915
-57.3276
-62.9721
-68.6208
-74.2497
-79.819
-85.2803
-90.5858
-95.6961
-100.588
-105.26
-109.735
-114.055
-118.282
-122.481
-126.717
-131.045
-135.495
-140.066
-144.716
-149.377
-153.963
-158.392
-162.598
-166.54
-170.216
-173.658
-176.933
-180.13
-183.345
-186.669
-190.172
-193.887
-197.789
-201.793
-205.762
-209.525
-212.901
-215.717
-217.828
-219.127
-219.553
-219.087
-217.738
-215.53
-212.482
-208.599
-203.855
-198.184
-191.49
-183.693
-174.784
-164.887
-154.301
-143.463
404.468
392.015
371.545
345.681
317.028
287.667
259.042
232.026
207.065
184.307
163.722
145.181
128.514
113.536
100.059
87.897
76.8727
66.818
57.5771
49.0082
40.9854
33.3999
26.1608
19.1953
12.4485
5.88257
-0.525688
-6.78737
-12.9057
-18.8817
-24.7195
-30.4318
-36.0414
-41.58
-47.086
-52.6017
-58.1669
-63.8085
-69.5256
-75.2801
-81.0049
-86.6191
-92.0431
-97.2102
-102.078
-106.639
-110.926
-115.006
-118.971
-122.925
-126.972
-131.204
-135.684
-140.416
-145.332
-150.315
-155.222
-159.918
-164.295
-168.286
-171.883
-175.139
-178.164
-181.103
-184.113
-187.347
-190.937
-194.965
-199.421
-204.187
-209.056
-213.775
-218.082
-221.732
-224.522
-226.315
-227.052
-226.743
-225.442
-223.214
-220.119
-216.189
-211.398
-205.625
-198.644
-190.211
-180.171
-168.592
-155.901
-142.835
453.407
435.742
406.38
370.521
332.536
295.351
260.628
229.133
201.065
176.28
154.471
135.299
118.434
103.579
90.4584
78.8205
68.4318
59.0777
50.563
42.7137
35.3783
28.4287
21.7603
15.2927
8.96918
2.75605
-3.35988
-9.37525
-15.2748
-21.0406
-26.6615
-32.1443
-37.5155
-42.8168
-48.1019
-53.4364
-58.8927
-64.5334
-70.3745
-76.3516
-82.3487
-88.2312
-93.8701
-99.1549
-104.011
-108.415
-112.415
-116.122
-119.677
-123.236
-126.96
-131.009
-135.511
-140.5
-145.855
-151.363
-156.786
-161.906
-166.549
-170.602
-174.04
-176.952
-179.521
-181.976
-184.558
-187.512
-191.074
-195.426
-200.609
-206.433
-212.566
-218.619
-224.21
-228.985
-232.653
-235.024
-236.055
-235.829
-234.48
-232.147
-228.957
-225.017
-220.356
-214.805
-207.89
-199.042
-187.775
-173.899
-158.038
-141.592
524.859
496.293
450.553
398.404
346.881
299.489
257.572
221.313
190.353
163.981
141.444
122.116
105.487
91.1504
78.7512
67.9737
58.5295
50.1559
42.6169
35.7034
29.2378
23.0728
17.0895
11.1993
5.34633
-0.496539
-6.32638
-12.1186
-17.8263
-23.3993
-28.7947
-34.0109
-39.0843
-44.0719
-49.0428
-54.0926
-59.3503
-64.9678
-71.0261
-77.3933
-83.857
-90.1939
-96.207
-101.718
-106.594
-110.772
-114.328
-117.457
-120.379
-123.311
-126.482
-130.162
-134.639
-140.059
-146.159
-152.534
-158.786
-164.584
-169.654
-173.802
-176.958
-179.262
-181.044
-182.665
-184.468
-186.804
-190.073
-194.692
-200.873
-208.236
-216.191
-224.13
-231.513
-237.832
-242.651
-245.664
-246.87
-246.531
-244.935
-242.313
-238.876
-234.881
-230.598
-225.948
-219.917
-211.357
-199.135
-182.065
-161.018
-139.069
636.084
581.547
503.935
425.37
355.259
295.733
246.364
205.871
173.045
146.177
123.822
105.072
89.2706
75.9644
64.7431
55.2417
47.1198
40.0656
33.8017
28.0779
22.6921
17.4803
12.3071
7.07246
1.72699
-3.75194
-9.33319
-14.9712
-20.5612
-26.0043
-31.1778
-36.0763
-40.7712
-45.3463
-49.8664
-54.4462
-59.2878
-64.7657
-71.2321
-78.2954
-85.5482
-92.6234
-99.2678
-105.197
-110.183
-114.028
-116.858
-119.091
-121.068
-123.043
-125.272
-128.168
-132.41
-138.641
-146.068
-153.885
-161.44
-168.313
-174.086
-178.435
-181.102
-182.324
-182.802
-183.092
-183.612
-184.754
-187.127
-191.712
-199.434
-209.189
-219.837
-230.441
-240.35
-248.84
-255.248
-258.904
-259.91
-259.044
-256.867
-253.653
-249.6
-245.158
-241.368
-239.079
-235.583
-228.947
-217.476
-195.956
-165.295
-133.609
826.291
699.988
558.666
440.151
348.391
277.351
222.384
179.398
147.175
121.895
101.035
83.8163
69.4963
57.8149
48.2984
40.5631
34.2109
28.8725
24.2408
19.9941
15.9212
11.8544
7.63303
3.12274
-1.68435
-6.84589
-12.2455
-17.8821
-23.4981
-28.9897
-33.9505
-38.4295
-42.6263
-46.6965
-50.6014
-54.4212
-58.3078
-63.1395
-70.5784
-78.925
-87.4957
-95.6745
-103.36
-110.034
-115.417
-118.746
-120.249
-121.097
-121.763
-122.409
-123.106
-124.236
-127.32
-135.501
-145.42
-155.613
-165.079
-173.626
-180.573
-185.491
-187.331
-186.457
-184.831
-183.189
-181.86
-180.932
-180.998
-184.213
-195.071
-208.855
-223.548
-237.753
-251.23
-262.846
-271.809
-275.961
-275.643
-273.446
-270.292
-266.199
-260.884
-254.493
-249.978
-253.948
-255.771
-253.497
-250.287
-223.009
-171.049
-120.716
1196.35
839.999
580.519
416.379
311.679
235.822
181.159
137.438
111.326
91.2748
73.0366
58.4256
45.9666
36.5958
29.339
23.9425
19.8893
16.705
14.1651
11.6945
9.17144
6.47665
3.39673
-0.380624
-4.56814
-9.58215
-14.8038
-20.8111
-26.6046
-32.7315
-37.4106
-41.1842
-44.6599
-48.2824
-51.4572
-54.299
-55.9666
-57.759
-68.6184
-79.2329
-90.0091
-99.4375
-108.912
-116.734
-123.612
-126.096
-124.585
-123.369
-122.489
-121.706
-120.318
-117.491
-114.892
-129.862
-144.377
-158.39
-170.045
-181.244
-189.983
-196.982
-197.469
-191.675
-186.885
-182.839
-179.529
-175.683
-170.333
-165.71
-186.494
-207.213
-227.962
-246.113
-264.791
-280.673
-295.296
-299.456
-294.084
-289.224
-285.068
-280.505
-273.717
-261.129
-246.367
-271.906
-281.859
-279.396
-317.753
-285.604
-174.46
-87.6747
2035.1
840.457
465.048
306.997
233.426
163.778
124.188
70.1375
66.7727
58.0751
39.8549
29.9827
18.043
12.3908
7.76215
5.44744
4.37093
3.65835
4.03138
3.50588
2.69846
1.67762
0.18405
-3.27587
-6.2458
-12.0052
-16.2184
-24.0378
-29.2224
-38.5515
-42.1693
-44.3644
-46.4802
-50.5117
-52.7921
-55.868
-53.4461
-39.3228
-67.0125
-79.3103
-94.4655
-103.137
-116.845
-124.799
-138.137
-139.204
-128.499
-125.16
-123.076
-121.876
-119.604
-110.422
-77.1645
-124.882
-144.058
-164.565
-175.669
-192.408
-201.901
-217.854
-216.651
-195.451
-187.868
-181.429
-177.973
-172.601
-158.62
-110.622
-178.01
-205.528
-236.117
-253.714
-282.378
-300.312
-333.852
-336.677
-311.785
-303.99
-300.429
-298.017
-294.899
-270.892
-184.724
-312.309
-325.823
-246.513
-486.747
-461.952
-142.794
0.0281871
-137.202
-130.06
-123.162
-116.619
-110.521
-104.93
-99.8904
-95.4258
-91.5453
-88.2479
-85.5256
-83.3675
-81.7616
-80.6975
-80.1675
-137.088
-129.816
-122.806
-116.176
-110.012
-104.379
-99.3153
-94.8414
-90.9621
-87.6725
-84.9614
-82.8151
-81.2197
-80.1633
-79.6374
-136.848
-129.307
-122.072
-115.264
-108.973
-103.258
-98.1505
-93.6622
-89.7892
-86.5185
-83.8323
-81.7116
-80.1385
-79.0985
-78.5812
-136.452
-128.494
-120.911
-113.835
-107.358
-101.529
-96.3666
-91.8676
-88.0138
-84.7799
-82.1377
-80.0603
-78.5243
-77.5109
-77.0075
-135.856
-127.305
-119.241
-111.809
-105.095
-99.1327
-93.9192
-89.4275
-85.6186
-82.4493
-79.878
-77.8676
-76.3871
-75.4133
-74.9304
-134.981
-125.631
-116.938
-109.064
-102.079
-95.9879
-90.75
-86.3045
-82.5834
-79.5206
-77.0574
-75.1446
-73.7433
-72.8247
-72.3701
-133.708
-123.298
-113.817
-105.429
-98.171
-91.9893
-86.7881
-82.4571
-78.8898
-75.9922
-73.6863
-71.9101
-70.6166
-69.7721
-69.3551
-131.836
-120.038
-109.6
-100.666
-93.1856
-87.01
-81.9559
-77.8459
-74.5263
-71.872
-69.7854
-68.1928
-67.0407
-66.2919
-65.9231
-129.023
-115.418
-103.881
-94.4477
-86.8955
-80.9091
-76.1793
-72.4442
-69.4975
-67.184
-65.3902
-64.0349
-63.0613
-62.4315
-62.1221
-124.65
-108.73
-96.056
-86.3489
-79.0396
-73.5512
-69.4081
-66.254
-63.8353
-61.9762
-60.5566
-59.4952
-58.7382
-58.2506
-58.0116
-117.527
-98.7955
-85.2645
-75.852
-69.3626
-64.848
-61.6476
-59.3282
-57.6134
-56.3288
-55.3644
-54.6511
-54.1455
-53.8209
-53.662
-105.244
-83.6604
-70.3543
-62.4319
-57.7107
-54.8304
-53.006
-51.7977
-50.9613
-50.3611
-49.9212
-49.5993
-49.3716
-49.2253
-49.1536
-82.7161
-60.2471
-50.0603
-45.8104
-44.2176
-43.7569
-43.7481
-43.8951
-44.0729
-44.2329
-44.3599
-44.453
-44.5163
-44.5551
-44.5733
-39.0454
-24.5515
-23.8292
-26.5318
-29.5924
-32.2312
-34.3345
-35.9617
-37.2023
-38.1376
-38.8325
-39.3364
-39.6856
-39.9052
-40.0112
48.7228
24.9159
5.82675
-6.89514
-15.3887
-21.2411
-25.3969
-28.4147
-30.637
-32.2826
-33.4959
-34.3746
-34.9844
-35.369
-35.555
103.396
103.314
103.135
102.829
102.34
101.57
100.352
98.3757
95.0332
88.9934
76.8807
48.386
-34.9342
-344.059
-1745.61
88.0807
87.6417
86.7175
85.2062
82.9275
79.5779
74.6446
67.231
55.6853
36.7512
3.49182
-60.0208
-191.949
-477.76
-1018.23
73.0634
72.2999
70.701
68.1097
64.2522
58.6785
50.6527
38.949
21.4621
-5.54717
-48.8912
-120.922
-242.096
-434.597
-666.116
58.5705
57.5323
55.3679
51.8868
46.763
39.476
29.209
14.6774
-6.15314
-36.5046
-81.3521
-147.694
-242.707
-364.32
-474.752
44.793
43.5415
40.9441
36.7996
30.771
22.3382
10.7222
-5.22425
-27.1605
-57.3989
-98.8869
-154.547
-224.839
-301.797
-360.056
31.8798
30.4804
27.5902
23.0163
16.4444
7.40676
-4.76104
-20.9688
-42.4034
-70.4824
-106.582
-151.234
-202.331
-252.252
-285.803
19.9339
18.4505
15.4015
10.6167
3.82639
-5.35469
-17.4424
-33.0859
-53.0319
-77.9946
-108.339
-143.442
-180.633
-214.065
-234.84
9.01434
7.50396
4.41464
-0.393244
-7.13429
-16.1007
-27.6574
-42.2177
-60.1769
-81.7675
-106.792
-134.197
-161.539
-184.662
-198.296
-0.859861
-2.3494
-5.38178
-10.0634
-16.5519
-25.05
-35.7888
-48.9912
-64.8005
-83.1541
-103.589
-124.993
-145.37
-161.843
-171.213
-9.70275
-11.1343
-14.0356
-18.4811
-24.576
-32.445
-42.2108
-53.9558
-67.6578
-83.0939
-99.7126
-116.501
-131.908
-143.953
-150.633
-17.5542
-18.9011
-21.6194
-25.7554
-31.3696
-38.5239
-47.2595
-57.5622
-69.3113
-82.2117
-95.7165
-108.965
-120.779
-129.783
-134.687
-24.4727
-25.7177
-28.2209
-32.005
-37.0952
-43.5058
-51.2206
-60.1645
-70.1654
-80.9092
-91.8971
-102.423
-111.599
-118.459
-122.145
-30.5287
-31.6627
-33.9346
-37.3493
-41.9051
-47.5828
-54.3287
-62.0331
-70.5034
-79.4365
-88.3974
-96.8172
-104.026
-109.335
-112.159
-35.7989
-36.819
-38.8563
-41.9024
-45.9371
-50.9187
-56.7717
-63.37
-70.5199
-77.9439
-85.2723
-92.0506
-97.7714
-101.935
-104.133
-40.3623
-41.2703
-43.0788
-45.7703
-49.3123
-53.6503
-58.6974
-64.3239
-70.3459
-76.5173
-82.5284
-88.0172
-92.5964
-95.8985
-97.6309
-44.2963
-45.0975
-46.6892
-49.0484
-52.1358
-55.89
-60.2211
-65.0032
-70.068
-75.2014
-80.1464
-84.6143
-88.3073
-90.9505
-92.3307
-47.6751
-48.3767
-49.7676
-51.8218
-54.4968
-57.7295
-61.4319
-65.4863
-69.7422
-74.0159
-78.0951
-81.7489
-84.746
-86.8785
-87.9877
-50.5675
-51.1781
-52.3862
-54.1648
-56.4711
-59.2434
-62.3985
-65.8294
-69.4038
-72.9653
-76.3387
-79.3387
-81.7844
-83.5161
-84.4141
-53.0367
-53.5652
-54.6092
-56.142
-58.1223
-60.4917
-63.1739
-66.073
-69.0742
-72.045
-74.841
-77.3129
-79.3178
-80.7318
-81.4633
-55.1396
-55.5949
-56.4932
-57.8091
-59.5036
-61.5231
-63.7987
-66.2459
-68.7655
-71.246
-73.568
-75.6109
-77.2609
-78.4209
-79.0197
-56.9268
-57.3176
-58.0878
-59.2137
-60.6595
-62.3769
-64.3045
-66.3684
-68.4838
-70.5567
-72.4886
-74.1813
-75.5438
-76.4991
-76.9914
-58.4429
-58.7774
-59.4357
-60.3964
-61.6272
-63.085
-64.7156
-66.4553
-68.2315
-69.9652
-71.5751
-72.9808
-74.109
-74.8983
-75.3046
-59.7272
-60.0127
-60.5739
-61.3918
-62.4376
-63.6731
-65.0512
-66.5169
-68.0085
-69.4597
-70.803
-71.9726
-72.9092
-73.5632
-73.8994
-60.8137
-61.0567
-61.5342
-62.2293
-63.1164
-64.1622
-65.3261
-66.5606
-67.8134
-69.029
-70.1513
-71.1262
-71.9052
-72.4484
-72.7274
-61.7316
-61.9382
-62.3438
-62.9335
-63.6851
-64.5696
-65.5519
-66.5915
-67.6441
-68.6631
-69.6017
-70.4155
-71.0647
-71.5169
-71.7489
-62.5063
-62.6816
-63.0257
-63.5255
-64.1617
-64.9092
-65.738
-66.6134
-67.4981
-68.3528
-69.1387
-69.819
-70.3609
-70.7379
-70.9313
-63.1594
-63.308
-63.5996
-64.0228
-64.561
-65.1925
-65.8916
-66.6289
-67.3728
-68.0903
-68.749
-69.3184
-69.7714
-70.0864
-70.2478
-63.7094
-63.8354
-64.0823
-64.4405
-64.8956
-65.429
-66.0188
-66.6399
-67.2657
-67.8685
-68.4212
-68.8984
-69.2777
-69.5412
-69.6762
-64.1722
-64.2788
-64.4879
-64.791
-65.1758
-65.6264
-66.1241
-66.6477
-67.1746
-67.6815
-68.1458
-68.5463
-68.8643
-69.0851
-69.1982
-64.5609
-64.6513
-64.8283
-65.0849
-65.4104
-65.7912
-66.2115
-66.6532
-67.0973
-67.5241
-67.9147
-68.2513
-68.5184
-68.7038
-68.7987
-64.887
-64.9636
-65.1136
-65.331
-65.6065
-65.9287
-66.284
-66.6572
-67.0319
-67.3919
-67.721
-68.0044
-68.2292
-68.3851
-68.4649
-65.16
-65.225
-65.3523
-65.5366
-65.7703
-66.0433
-66.3442
-66.6599
-66.9768
-67.281
-67.5589
-67.7981
-67.9877
-68.1192
-68.1865
-65.3879
-65.4432
-65.5515
-65.7082
-65.9067
-66.1386
-66.394
-66.6619
-66.9306
-67.1883
-67.4237
-67.6262
-67.7866
-67.8979
-67.9548
-65.5775
-65.6247
-65.717
-65.8507
-66.02
-66.2176
-66.4352
-66.6633
-66.892
-67.1112
-67.3113
-67.4834
-67.6197
-67.7141
-67.7625
-65.7343
-65.7748
-65.854
-65.9685
-66.1135
-66.2828
-66.4691
-66.6643
-66.8599
-67.0473
-67.2183
-67.3653
-67.4818
-67.5624
-67.6037
-65.8632
-65.8981
-65.9664
-66.0652
-66.1903
-66.3362
-66.4968
-66.665
-66.8334
-66.9948
-67.142
-67.2685
-67.3686
-67.438
-67.4735
-65.9678
-65.9982
-66.0577
-66.1437
-66.2525
-66.3796
-66.5192
-66.6655
-66.8119
-66.9522
-67.08
-67.1899
-67.2769
-67.3371
-67.3679
-66.0514
-66.0781
-66.1305
-66.2063
-66.3022
-66.4141
-66.5371
-66.6658
-66.7947
-66.9181
-67.0306
-67.1272
-67.2037
-67.2566
-67.2837
-66.1163
-66.1403
-66.1872
-66.255
-66.3409
-66.4409
-66.5509
-66.666
-66.7813
-66.8916
-66.9921
-67.0784
-67.1467
-67.194
-67.2182
-66.1647
-66.1866
-66.2294
-66.2913
-66.3696
-66.4609
-66.5612
-66.6662
-66.7713
-66.8718
-66.9635
-67.0421
-67.1044
-67.1475
-67.1695
-66.1979
-66.2183
-66.2583
-66.3162
-66.3893
-66.4746
-66.5683
-66.6663
-66.7644
-66.8583
-66.9438
-67.0172
-67.0753
-67.1156
-67.1361
-66.2169
-66.2365
-66.2749
-66.3304
-66.4006
-66.4824
-66.5723
-66.6664
-66.7605
-66.8505
-66.9326
-67.003
-67.0587
-67.0973
-67.117
-66.2224
-66.2417
-66.2797
-66.3345
-66.4038
-66.4847
-66.5735
-66.6664
-66.7594
-66.8483
-66.9293
-66.9989
-67.0539
-67.092
-67.1115
-66.2143
-66.2341
-66.2727
-66.3285
-66.3991
-66.4814
-66.5718
-66.6664
-66.761
-66.8516
-66.9341
-67.0049
-67.0609
-67.0997
-67.1195
-66.1927
-66.2133
-66.2538
-66.3123
-66.3862
-66.4725
-66.5672
-66.6664
-66.7655
-66.8604
-66.9469
-67.0211
-67.0798
-67.1205
-67.1413
-66.1566
-66.1789
-66.2224
-66.2853
-66.3649
-66.4577
-66.5596
-66.6663
-66.773
-66.8752
-66.9682
-67.0481
-67.1113
-67.1551
-67.1774
-66.1052
-66.1297
-66.1776
-66.2468
-66.3344
-66.4365
-66.5487
-66.6662
-66.7837
-66.8962
-66.9986
-67.0866
-67.1563
-67.2045
-67.2291
-66.0368
-66.0642
-66.1179
-66.1956
-66.2938
-66.4084
-66.5342
-66.666
-66.7979
-66.9241
-67.0391
-67.1379
-67.2161
-67.2702
-67.2978
-65.9494
-65.9806
-66.0417
-66.1301
-66.2419
-66.3723
-66.5157
-66.6658
-66.816
-66.9598
-67.0909
-67.2034
-67.2925
-67.3542
-67.3858
-65.8403
-65.8762
-65.9466
-66.0484
-66.1771
-66.3273
-66.4925
-66.6654
-66.8385
-67.0043
-67.1554
-67.2852
-67.388
-67.4592
-67.4956
-65.7063
-65.748
-65.8297
-65.9479
-66.0975
-66.272
-66.4639
-66.6649
-66.8662
-67.059
-67.2348
-67.3858
-67.5054
-67.5882
-67.6306
-65.5434
-65.5921
-65.6876
-65.8257
-66.0005
-66.2046
-66.429
-66.6641
-66.8997
-67.1254
-67.3312
-67.5081
-67.6483
-67.7453
-67.7949
-65.3466
-65.4039
-65.5159
-65.6781
-65.8833
-66.123
-66.3867
-66.6631
-66.9401
-67.2056
-67.4478
-67.656
-67.821
-67.9352
-67.9937
-65.1102
-65.1776
-65.3096
-65.5005
-65.7423
-66.0248
-66.3357
-66.6616
-66.9885
-67.3018
-67.5879
-67.8339
-68.0288
-68.1638
-68.2329
-64.8271
-64.9066
-65.0623
-65.2877
-65.5732
-65.9068
-66.2742
-66.6596
-67.0462
-67.4171
-67.7558
-68.0471
-68.2781
-68.4382
-68.5201
-64.4889
-64.5828
-64.7668
-65.0331
-65.3708
-65.7654
-66.2003
-66.6567
-67.1148
-67.5546
-67.9564
-68.3023
-68.5765
-68.7667
-68.864
-64.0856
-64.1966
-64.4142
-64.7292
-65.1288
-65.5961
-66.1114
-66.6526
-67.1962
-67.7184
-68.1958
-68.607
-68.9333
-69.1595
-69.2754
-63.6053
-63.7366
-63.9939
-64.3668
-64.8399
-65.3935
-66.0045
-66.6468
-67.2924
-67.9131
-68.4811
-68.9707
-69.3593
-69.6289
-69.767
-63.034
-63.1893
-63.4937
-63.9349
-64.4951
-65.1513
-65.876
-66.6386
-67.406
-68.1445
-68.8208
-69.4043
-69.8678
-70.1895
-70.3543
-62.3551
-62.5386
-62.8985
-63.4206
-64.0838
-64.8615
-65.7213
-66.627
-67.5396
-68.4188
-69.225
-69.9211
-70.4745
-70.8589
-71.0559
-61.549
-61.7658
-62.1911
-62.8083
-63.5933
-64.5147
-65.5347
-66.6107
-67.6963
-68.7437
-69.7054
-70.5367
-71.1983
-71.6582
-71.8939
-60.5926
-60.8484
-61.3505
-62.0798
-63.0083
-64.0995
-65.3094
-66.5876
-67.8796
-69.128
-70.2761
-71.27
-72.0618
-72.6128
-72.8954
-59.459
-59.7605
-60.3525
-61.2133
-62.3106
-63.6021
-65.0366
-66.5551
-68.0929
-69.5819
-70.9537
-72.1433
-73.0924
-73.7534
-74.0927
-58.1164
-58.4711
-59.1682
-60.1829
-61.4782
-63.0056
-64.7056
-66.5092
-68.3401
-70.1169
-71.7576
-73.1832
-74.3225
-75.1171
-75.5252
-56.528
-56.9446
-57.7639
-58.958
-60.485
-62.2895
-64.3028
-66.4445
-68.6246
-70.7463
-72.7106
-74.4215
-75.7916
-76.7485
-77.2406
-54.6508
-55.139
-56.0999
-57.5024
-59.2996
-61.4286
-63.8109
-66.3531
-68.9495
-71.4847
-73.8393
-75.896
-77.547
-78.7023
-79.297
-52.4355
-53.0059
-54.1298
-55.7732
-57.8842
-60.3922
-63.2081
-66.2243
-69.3167
-72.3482
-75.1745
-77.6516
-79.6459
-81.0446
-81.7655
-49.8248
-50.4891
-51.7998
-53.7201
-56.1935
-59.1423
-62.4663
-66.0425
-69.726
-73.3539
-76.7516
-79.7418
-82.1577
-83.8566
-84.7338
-46.7539
-47.5246
-49.0473
-51.2836
-54.1734
-57.6324
-61.5498
-65.7861
-70.1737
-74.5192
-78.611
-82.2301
-85.1665
-87.2383
-88.3101
-43.149
-44.039
-45.8004
-48.3942
-51.7587
-55.8048
-60.4121
-65.4248
-70.6503
-75.8602
-80.7978
-85.1914
-88.7747
-91.3129
-92.6295
-38.9275
-39.9497
-41.9766
-44.9709
-48.8716
-53.5882
-58.9931
-64.9159
-71.1375
-77.3898
-83.3617
-88.7142
-93.1073
-96.2344
-97.8615
-33.9979
-35.1644
-37.4824
-40.9194
-45.4192
-50.8942
-57.215
-64.1995
-71.6031
-79.1135
-86.3544
-92.902
-98.3175
-102.196
-104.222
-28.2603
-29.5813
-32.2131
-36.1314
-41.2908
-47.6139
-54.9767
-63.1923
-71.9941
-81.0236
-89.8275
-97.8743
-104.593
-109.441
-111.986
-21.6076
-23.0903
-26.0525
-30.4834
-36.3559
-43.6126
-52.1467
-61.778
-72.2268
-83.0893
-93.8251
-103.767
-112.166
-118.284
-121.515
-13.9281
-15.5746
-18.8744
-23.8364
-30.4616
-38.7257
-48.5557
-59.7964
-72.1717
-85.242
-98.3724
-110.728
-121.32
-129.128
-133.285
-5.10851
-6.91384
-10.5448
-16.0372
-23.4312
-32.7531
-43.9859
-57.0273
-71.6334
-87.3517
-103.456
-118.91
-132.405
-142.505
-147.937
4.96104
3.01105
-0.926097
-6.92044
-15.0647
-25.4555
-38.1615
-53.1721
-70.3225
-89.1921
-108.989
-128.451
-145.842
-159.118
-166.357
16.3803
14.3117
10.1172
3.68573
-5.14109
-16.5526
-30.7382
-47.8317
-67.8172
-90.3872
-114.751
-139.428
-162.132
-179.918
-189.798
29.2312
27.0835
22.7095
15.9511
6.5738
-5.72601
-21.2976
-40.4837
-63.5171
-90.3355
-120.292
-151.77
-181.832
-206.203
-220.093
43.5675
41.3959
36.952
30.0304
20.3139
7.36913
-9.34933
-30.4656
-56.5886
-88.1034
-124.772
-165.091
-205.477
-239.757
-260.025
59.4053
57.2798
52.9091
46.0447
36.2909
23.0807
5.64969
-16.9724
-45.9165
-82.291
-126.715
-178.359
-233.353
-283.031
-314.022
76.7115
74.7154
70.591
64.0589
54.6624
41.7181
24.2495
0.907976
-30.0856
-70.8875
-123.642
-189.294
-264.913
-339.268
-389.524
95.3953
93.6206
89.9367
84.0548
75.4905
63.4913
46.9225
24.0982
-7.44581
-51.1838
-111.608
-193.301
-297.338
-412.226
-499.907
115.302
113.842
110.8
105.905
98.6957
88.4302
73.9329
53.338
23.6581
-19.8935
-84.8031
-181.783
-322.213
-504.056
-671.155
136.211
135.153
132.938
129.352
124.014
116.299
105.169
88.8792
64.389
26.2255
-35.7253
-140.085
-318.312
-606.098
-958.408
157.843
157.255
156.018
154.003
150.972
146.527
139.979
130.105
114.607
88.8577
42.8021
-47.0863
-238.314
-663.302
-1490.27
179.87
179.793
179.627
179.346
178.901
178.202
177.085
175.224
171.932
165.583
151.764
116.287
4.02851
-441.318
-2596.32
201.937
202.379
203.301
204.789
206.991
210.153
214.691
221.322
231.366
247.482
275.754
332.971
477.677
967.95
3169.5
223.681
224.615
226.567
229.72
234.396
241.132
250.826
265.03
286.567
320.922
379.624
488.875
711.316
1188.77
2096.23
244.759
246.127
248.981
253.576
260.353
270.038
283.809
303.626
332.845
377.432
448.363
566.14
767.817
1110.91
1653.49
163.002
65.9362
27.1748
7.22921
-4.78978
-12.722
-18.2473
-22.2258
-25.1474
-27.3116
-28.9109
-30.0725
-30.8813
-31.3928
-31.6406
102.871
62.7385
33.5155
14.565
2.00756
-6.64869
-12.8217
-17.3336
-20.6827
-23.1848
-25.0466
-26.4065
-27.3577
-27.9611
-28.254
70.6098
51.9647
32.7225
17.461
6.09577
-2.29985
-8.54972
-13.2488
-16.8063
-19.5026
-21.5308
-23.0244
-24.0754
-24.745
-25.0709
51.2965
41.6056
29.1651
17.6513
8.12173
0.558879
-5.35467
-9.9566
-13.5279
-16.2844
-18.3861
-19.9497
-21.058
-21.7677
-22.1141
38.7129
33.1557
24.9641
16.4638
8.78188
2.27226
-3.07047
-7.38011
-10.8154
-13.5208
-15.6152
-17.191
-18.3173
-19.0426
-19.3977
29.9884
26.5354
20.9774
14.7078
8.62795
3.17531
-1.50369
-5.41081
-8.60974
-11.1816
-13.2043
-14.7446
-15.8551
-16.5745
-16.928
23.6617
21.3769
17.4847
12.8202
8.03843
3.54109
-0.472933
-3.93328
-6.83954
-9.22365
-11.1285
-12.5966
-13.6644
-14.3605
-14.7037
18.9216
17.3347
14.5284
11.0138
7.2514
3.57125
0.173326
-2.84055
-5.43192
-7.59853
-9.35597
-10.7264
-11.732
-12.3914
-12.7177
15.2835
14.1394
12.064
9.37952
6.40724
3.4054
0.552885
-2.0412
-4.31927
-6.25755
-7.85219
-9.10959
-10.04
-10.6537
-10.9584
12.4399
11.5906
10.0226
7.94507
5.5836
3.13586
0.752978
-1.46132
-3.44259
-5.15519
-6.58259
-7.71982
-8.56796
-9.13044
-9.41067
10.186
9.54107
8.33492
6.70781
4.81985
2.82128
0.835997
-1.04325
-2.75248
-4.25087
-5.5145
-6.53081
-7.29428
-7.8032
-8.05752
8.37998
7.88122
6.93959
5.6517
4.13291
2.49745
0.84538
-0.743239
-2.20879
-3.50959
-4.61814
-5.51737
-6.19736
-6.65276
-6.88097
6.92031
6.52892
5.7847
4.75591
3.52699
2.18517
0.810697
-0.528692
-1.77951
-2.9018
-3.86713
-4.65618
-5.2564
-5.66008
-5.86289
5.73242
5.42164
4.82742
3.99911
2.99945
1.89556
0.751649
-0.375653
-1.43948
-2.40301
-3.23854
-3.92612
-4.45192
-4.8069
-4.98564
4.76036
4.51118
4.0327
3.3613
2.5443
1.63374
0.681068
-0.266693
-1.16911
-1.99309
-2.7127
-3.30839
-3.76606