/*--------------------------------*- C++ -*----------------------------------*\
| =========                 |                                                 |
| \\      /  F ield         | OpenFOAM: The Open Source CFD Toolbox           |
|  \\    /   O peration     | Version:  5.x                                   |
|   \\  /    A nd           | Web:      www.OpenFOAM.org                      |
|    \\/     M anipulation  |                                                 |
\*---------------------------------------------------------------------------*/
FoamFile
{
    version     2.0;
    format      ascii;
    class       volScalarField;
    location    "2.3";
    object      gradTy;
}
// * * * * * * * * * * * * * * * * * * * * * * * * * * * * * * * * * * * * * //

dimensions      [0 -1 0 1 0 0 0];

internalField   nonuniform List<scalar> 
6300
(
1126.31
1379.45
1634.07
1891.13
2151.5
2415.92
2685
2959.11
3238.4
3522.68
3811.41
4103.67
4398.13
4693.1
4986.55
-0.76269
-2.26589
-3.70119
-5.0187
-6.16209
-7.06731
-7.6628
-7.87178
-7.61747
-6.83168
-5.4666
-3.50864
-0.991487
1.99552
5.30827
-1.29582
-3.85213
-6.29984
-8.55827
-10.535
-12.1232
-13.2009
-13.6343
-13.2859
-12.029
-9.76876
-6.46804
-2.17399
2.96343
8.68988
-1.86424
-5.5468
-9.08762
-12.3794
-15.2965
-17.6896
-19.3833
-20.1787
-19.8631
-18.2304
-15.1123
-10.422
-4.2014
3.34026
11.8152
-2.47858
-7.38308
-12.1242
-16.5749
-20.5816
-23.955
-26.4637
-27.8339
-27.7577
-25.9174
-22.0289
-15.9079
-7.55188
2.7813
14.5362
-3.1455
-9.38259
-15.4509
-21.2141
-26.4997
-31.0846
-34.6824
-36.9353
-37.4166
-35.6534
-31.1794
-23.6309
-12.883
0.795872
16.6386
-3.86617
-11.5505
-19.0822
-26.3303
-33.1177
-39.2006
-44.2454
-47.8077
-49.3199
-48.1003
-43.4058
-34.5556
-21.1488
-3.35897
17.7958
-4.63474
-13.8708
-22.9967
-31.9062
-40.4392
-48.3536
-55.2897
-60.7293
-63.9544
-64.0224
-59.7892
-50.0401
-33.8026
-10.8864
17.4654
-5.43663
-16.3005
-27.1269
-37.8574
-48.3779
-58.4833
-67.8289
-75.8637
-81.7451
-84.2456
-81.6897
-72.0161
-53.1408
-23.8581
14.6703
-6.24764
-18.7672
-31.3518
-44.0171
-56.7298
-69.3706
-81.6765
-93.1493
-102.915
-109.524
-110.708
-103.196
-82.8921
-46.0847
7.45062
-7.0341
-21.1679
-35.4945
-50.1276
-65.1511
-80.5898
-96.3541
-112.139
-127.238
-140.225
-148.423
-147.169
-129.151
-85.0473
-8.71035
-7.75465
-23.3747
-39.329
-55.8452
-73.1543
-91.4798
-111.007
-131.809
-153.67
-175.71
-195.585
-207.906
-201.495
-156.249
-46.2061
-8.36402
-25.2463
-42.5997
-60.7673
-80.1374
-101.163
-124.382
-150.414
-179.915
-213.352
-250.295
-287.366
-312.671
-292.248
-146.33
-8.81876
-26.6454
-45.0539
-64.4839
-85.4606
-108.649
-134.935
-165.543
-202.217
-247.479
-304.864
-378.577
-469.559
-553.735
-473.952
-9.08395
-27.4611
-46.4844
-66.6502
-88.5669
-113.033
-141.161
-174.596
-215.922
-269.467
-343.09
-452.497
-633.226
-979.148
-1788.25
5252.09
5489.4
5721.28
5946.45
6163.78
6372.27
6571.08
6759.59
6937.34
7104.05
7259.58
7403.95
7537.28
7659.78
7771.73
7873.46
7965.33
8047.72
8121.02
8185.6
8241.85
8290.12
8330.75
8364.05
8390.33
8409.85
8422.87
8429.62
8430.31
8425.12
8414.25
8397.83
8376.03
8348.96
8316.76
8279.53
8237.38
8190.4
8138.68
8082.33
8021.41
7956.03
7886.26
7812.2
7733.92
7651.51
7565.05
7474.61
7380.27
7282.08
7180.11
7074.43
6965.07
6852.11
6735.6
6615.61
6492.2
6365.45
6235.44
6102.26
5965.99
5826.75
5684.62
5539.71
5392.14
5242.02
5089.48
4934.67
4777.75
4618.9
4458.36
4296.35
4133.19
3969.17
3804.65
3640.02
3475.68
3312.08
3149.66
2988.87
2830.19
2674.06
2520.94
2371.24
2225.38
2083.7
1946.52
1814.09
1686.59
1564.16
8.47335
11.3187
14.0188
16.475
18.6117
20.3797
21.7571
22.7458
23.367
23.6561
23.6565
23.4159
22.9821
22.4004
21.7123
20.954
20.1562
19.3444
18.5386
17.7541
17.0021
16.2903
15.6231
15.0027
14.4295
13.9026
13.42
12.9793
12.5778
12.2124
11.8801
11.578
11.3026
11.0507
10.8186
10.6028
10.3994
10.2049
10.0162
9.83074
9.64686
9.46393
9.28233
9.10328
8.92864
8.76044
8.60048
8.44989
8.30882
8.17619
8.04974
7.92618
7.8016
7.67195
7.53359
7.38376
7.22089
7.04471
6.85597
6.65606
6.44638
6.2276
5.99901
5.75798
5.49972
5.21727
4.90191
4.54384
4.13312
3.6607
3.11944
2.50495
1.81608
1.05515
0.227772
-0.657565
-1.59006
-2.55719
-3.54522
-4.53944
-5.5243
-6.48325
-7.39856
-8.25124
-9.02126
-9.68824
-10.2328
-10.6382
-10.8923
-10.9891
14.1713
19.0946
23.7519
27.9666
31.6061
34.5885
36.8814
38.4957
39.4756
39.8879
39.813
39.3359
38.5405
37.5052
36.3005
34.9875
33.6176
32.2324
30.8648
29.5396
28.2743
27.0805
25.965
24.9304
23.9767
23.1015
22.3011
21.571
20.9064
20.3022
19.7534
19.2549
18.8014
18.3871
18.0062
17.6523
17.3189
16.9998
16.6892
16.3827
16.0772
15.7717
15.4669
15.1656
14.8712
14.588
14.3195
14.0683
13.8349
13.6174
13.4118
13.2121
13.0109
12.8006
12.5743
12.3271
12.0561
11.7612
11.4445
11.1091
10.7586
10.3951
10.0184
9.62433
9.20498
8.74812
8.23813
7.65718
6.98705
6.21104
5.31596
4.2936
3.1418
1.86463
0.472124
-1.02068
-2.59482
-4.22869
-5.89888
-7.58082
-9.24874
-10.8754
-12.4312
-13.8844
-15.2002
-16.3428
-17.277
-17.972
-18.405
-18.5645
19.9519
27.2492
34.1178
40.2817
45.542
49.7854
52.9787
55.1556
56.398
56.8191
56.5469
55.7131
54.4435
52.8536
51.0447
49.1036
47.1017
45.0963
43.1317
41.2405
39.4452
37.7601
36.1923
34.7439
33.4129
32.1946
31.0828
30.0703
29.1498
28.3141
27.5562
26.869
26.2452
25.6771
25.1564
24.6736
24.2193
23.7836
23.3576
22.9341
22.5085
22.0791
21.6475
21.2185
20.7984
20.3948
20.0143
19.6616
19.3382
19.0417
18.7658
18.5004
18.2334
17.9523
17.6454
17.3046
16.9258
16.5093
16.0598
15.584
15.0895
14.5818
14.0625
13.527
12.9641
12.3554
11.6764
10.8988
9.99332
8.93275
7.69562
6.26856
4.64793
2.84011
0.860794
-1.26673
-3.51368
-5.84794
-8.23572
-10.6424
-13.0327
-15.3693
-17.6119
-19.7152
-21.6286
-23.2973
-24.6656
-25.6831
-26.3114
-26.5311
25.8732
36.0174
45.4943
53.8936
60.9376
66.4891
70.5346
73.156
74.499
74.7449
74.0872
72.7159
70.807
68.5169
65.98
63.3083
60.5925
57.9038
55.2958
52.8065
50.4613
48.2744
46.2517
44.3923
42.6907
41.1384
39.7252
38.4407
37.2747
36.2175
35.2604
34.3947
33.6118
32.9019
32.2544
31.6566
31.095
30.5554
30.0243
29.4905
28.9468
28.3909
27.8259
27.2595
26.703
26.1691
25.6697
25.2133
24.8034
24.4371
24.1048
23.7912
23.4768
23.1411
22.7656
22.3371
21.8496
21.3052
20.7127
20.0858
19.4391
18.7851
18.1296
17.4692
16.7892
16.0636
15.2565
14.3246
13.2227
11.9085
10.3486
8.52211
6.42344
4.06241
1.46274
-1.34095
-4.30696
-7.39025
-10.5454
-13.7279
-16.894
-19.9989
-22.9932
-25.8195
-28.4095
-30.6844
-32.5595
-33.9545
-34.8064
-35.0821
32.0205
45.7379
58.413
69.4464
78.4714
85.3496
90.1285
92.9842
94.1674
93.9601
92.6445
90.4837
87.7117
84.5294
81.1043
77.5727
74.042
70.5941
67.2887
64.1662
61.2513
58.5553
56.0795
53.8176
51.7579
49.8863
48.1871
46.6453
45.2473
43.9813
42.8372
41.8056
40.8772
40.0411
39.2844
38.5911
37.9426
37.3183
36.6978
36.0639
35.4052
34.7183
34.0083
33.2882
32.5768
31.8954
31.2645
30.6993
30.2068
29.7843
29.4178
29.0837
28.7514
28.3876
27.9624
27.4547
26.8557
26.1704
25.4155
24.6159
23.7995
22.9905
22.2037
21.4392
20.6796
19.8892
19.0158
17.9949
16.7573
15.238
13.3851
11.1673
8.57644
5.62804
2.35818
-1.18173
-4.93161
-8.82937
-12.8158
-16.8371
-20.8437
-24.7879
-28.6165
-32.2641
-35.6444
-38.6471
-41.1448
-43.0081
-44.1312
-44.457
38.5416
56.9481
73.6828
87.8767
99.0808
107.217
112.474
115.202
115.819
114.753
112.401
109.116
105.193
100.879
96.3718
91.8275
87.3658
83.0747
79.0153
75.2261
71.7264
68.5209
65.6023
62.9552
60.5591
58.3909
56.4277
54.6485
53.0357
51.5756
50.2577
49.0737
48.0151
47.0714
46.2283
45.4663
44.7601
44.0801
43.3948
42.6769
41.9079
41.0822
40.2083
39.3072
38.4097
37.5515
36.7668
36.0822
35.5114
35.0522
34.6852
34.3748
34.0723
33.7234
33.2787
32.7041
31.9865
31.1361
30.1827
29.1704
28.149
27.164
26.2456
25.402
24.6141
23.834
22.987
21.977
20.6974
19.0471
16.9468
14.3492
11.2439
7.65613
3.64206
-0.720593
-5.34374
-10.1412
-15.0366
-19.9676
-24.8839
-29.7433
-34.5009
-39.0941
-43.4229
-47.3375
-50.6437
-53.1278
-54.6041
-54.9705
45.7024
70.55
92.5934
110.593
124.088
133.209
138.443
140.439
139.873
137.374
133.483
128.646
123.221
117.492
111.68
105.953
100.436
95.216
90.3495
85.8671
81.778
78.0746
74.7368
71.7355
69.0369
66.606
64.4095
62.4185
60.611
58.9718
57.4923
56.168
54.9941
53.9633
53.0616
52.2667
51.5456
50.8547
50.144
49.368
48.4964
47.5197
46.4512
45.3243
44.1892
43.1043
42.1274
41.3034
40.6571
40.1889
39.8728
39.6558
39.4611
39.1981
38.7829
38.1598
37.3093
36.2505
35.0348
33.7381
32.4464
31.2412
30.1797
29.2846
28.5369
27.8747
27.1926
26.347
25.1708
23.5038
21.224
18.2617
14.6055
10.2976
5.42736
0.115137
-5.50539
-11.3123
-17.2067
-23.1195
-29.0066
-34.8457
-40.6224
-46.3051
-51.798
-56.9041
-61.3265
-64.6991
-66.675
-67.0638
54.0317
88.172
117.308
139.773
155.371
164.777
169.058
169.348
166.696
161.986
155.913
149.009
141.676
134.218
126.861
119.775
113.078
106.849
101.133
95.9457
91.279
87.1077
83.3928
80.0864
77.1365
74.4911
72.1028
69.9323
67.9516
66.1458
64.5112
63.0527
61.7741
60.6757
59.7472
58.9669
58.2931
57.6627
56.992
56.2012
55.2404
54.0931
52.7813
51.3561
49.8989
48.504
47.27
46.2702
45.5481
45.1077
44.9188
44.9055
44.9491
44.8924
44.5872
43.9433
42.9321
41.591
40.0036
38.2983
36.6192
35.1112
33.8738
32.9546
32.3359
31.9439
31.6332
31.1926
30.3502
28.8425
26.4835
23.1727
18.9051
13.7484
7.84861
1.39437
-5.39916
-12.3577
-19.3509
-26.309
-33.1984
-40.0383
-46.8796
-53.7894
-60.7304
-67.4553
-73.5212
-78.2815
-81.0316
-81.3962
64.7088
112.981
151.607
178.821
195.543
203.699
205.395
202.474
196.467
188.547
179.528
169.983
160.308
150.794
141.653
133.037
125.05
117.751
111.165
105.284
100.078
95.4947
91.4717
87.9353
84.8084
82.0168
79.4925
77.1829
75.0498
73.0824
71.2852
69.6865
68.3027
67.1507
66.2261
65.5201
64.9837
64.5339
64.0176
63.2834
62.2566
60.9066
59.2776
57.4367
55.5212
53.6737
52.0771
50.8384
50.0344
49.6652
49.713
50.0737
50.5821
50.9448
50.8793
50.256
49.0299
47.2862
45.1419
42.8206
40.545
38.5913
37.1091
36.1914
35.8079
35.8955
36.2603
36.616
36.4874
35.4064
33.1132
29.4611
24.4845
18.2686
11.0678
3.16173
-5.05581
-13.3535
-21.5458
-29.5977
-37.4618
-45.2291
-53.0385
-61.2288
-69.974
-78.9556
-87.5959
-94.7587
-98.8229
-99.023
80.811
151.658
202.315
232.954
248.023
251.89
248.341
240.004
228.956
216.654
203.87
191.113
178.682
166.81
155.67
145.38
136.021
127.62
120.177
113.652
107.981
103.081
98.8571
95.203
92.007
89.1678
86.5837
84.19
81.9203
79.7847
77.7839
76.0211
74.5072
73.308
72.3993
71.8377
71.5578
71.5084
71.3643
70.7938
69.7445
68.1276
66.0843
63.6295
61.0495
58.486
56.3721
54.7836
53.8974
53.6242
54.0584
55.0307
56.4262
57.615
57.9756
57.4372
55.8739
53.5585
50.5352
47.2772
44.0072
41.3922
39.5313
38.6585
38.6011
39.4471
40.8997
42.7362
43.9952
43.715
41.699
37.6559
31.8478
24.2061
15.302
5.37677
-4.59784
-14.5017
-23.9438
-33.1574
-41.8652
-50.3597
-58.6492
-67.8695
-78.8778
-90.9475
-103.798
-115.698
-122.179
-121.746
112.065
219.376
281.81
309.471
316.599
310.729
298.15
281.406
263.22
245.424
228.149
211.749
196.232
181.757
168.453
156.379
145.61
136.114
127.874
120.8
114.783
109.703
105.434
101.823
98.704
95.9639
93.4129
91.0313
88.61
86.3048
83.9513
82.0083
80.2691
79.0567
78.0819
77.7579
77.8081
78.6266
79.3316
78.9997
78.0552
75.9675
73.4881
70.0065
66.5577
62.6537
59.9129
57.7198
56.8792
56.5663
57.6304
59.3795
62.5687
65.4786
66.3669
66.0948
63.8012
60.8502
56.2664
51.7509
46.5258
43.1066
40.5298
39.9509
40.0926
42.1245
44.9856
49.6872
53.7186
54.5224
53.2032
48.3914
41.8507
31.9608
21.0058
7.6622
-4.24246
-16.3156
-26.6712
-37.4462
-46.5762
-55.786
-62.9201
-71.9358
-86.2533
-101.815
-121.37
-144.441
-155.49
-152.801
195.955
351.677
411.331
415.496
403.839
379.18
353.913
324.842
296.886
273.409
251.135
231.088
212.262
195.002
179.455
165.498
153.373
142.806
133.906
126.442
120.253
115.175
111.083
107.75
104.872
102.504
100.014
97.9449
95.147
92.9088
89.541
87.7148
85.2844
84.4742
82.8377
83.1485
82.9604
85.9163
88.7993
88.0944
88.018
84.3769
82.3396
76.3402
72.7247
65.1492
62.6675
58.71
59.103
57.5265
60.2171
61.6553
69.1142
76.254
76.4298
77.6637
72.6754
70.493
61.8992
57.2458
46.4434
43.6073
38.6504
40.2048
38.8613
43.6067
46.4204
57.6021
68.0887
68.3862
69.7355
61.6157
56.6756
41.2484
30.1482
7.87473
-3.64523
-20.6037
-28.7954
-44.1046
-51.1727
-64.2018
-64.4819
-68.3678
-91.8379
-106.931
-133.879
-190.495
-208.586
-198.133
503.647
622.264
620.704
544.249
509.743
448.445
415.099
366.614
324.049
299.613
270.866
248.629
226.005
205.752
188.151
171.971
158.888
147.105
137.876
130.264
124.136
119.245
115.656
113.037
110.323
109.236
106.024
105.925
100.894
101.155
92.9261
94.306
87.9804
91.0944
84.801
89.2688
83.5954
93.3202
103.443
96.2918
103.121
90.4835
96.9024
79.2462
84.5987
60.3133
67.5504
53.4383
64.1647
52.344
64.6089
55.2624
76.1203
97.0585
84.97
98.1931
77.5096
89.3683
61.8577
71.5952
34.8889
47.1613
27.3937
44.6308
28.8609
47.8694
35.804
66.5171
97.1298
80.7344
99.9023
70.2603
86.6009
44.3038
55.379
-7.39886
4.78241
-37.517
-20.6715
-62.6311
-47.1863
-90.9769
-60.8521
-36.5988
-109.486
-94.9757
-103.666
-292.026
-302.785
-268.48
1920.22
1065.82
937.849
612.523
654.166
477.399
498.032
399.81
325.052
331.976
281.176
266.695
236.298
212.666
194.787
173.994
162.542
147.747
139.542
131.973
126.265
121.466
118.854
118.482
113.454
119.046
107.572
121.026
99.0402
121.643
82.4913
112.009
77.0974
111.274
71.2799
110.003
62.0662
100.161
142.968
84.3646
146.265
69.1541
146.139
49.0238
139.155
10.0874
103.178
12.4005
101.696
12.4788
100.122
5.37549
83.0115
165.422
57.0619
167.548
35.4833
164.935
8.17835
152.823
-47.1962
96.8521
-37.1512
96.5854
-31.2219
96.8774
-36.4148
75.5755
193.862
41.8705
200.354
12.6888
200.963
-29.4978
186.957
-130.615
91.6611
-139.6
72.1308
-163.821
42.0983
-224.191
-48.7677
135.052
-252.987
-49.6114
185.271
-649.302
-461.874
-384.923
1435.1
1301.6
1175.22
1055.63
942.425
835.101
733.116
635.895
542.849
453.388
366.929
282.901
200.746
119.92
39.8854
-10.9236
-10.6402
-10.1709
-9.55031
-8.81562
-8.00284
-7.1435
-6.26298
-5.37997
-4.50689
-3.65062
-2.81359
-1.99474
-1.19054
-0.395767
-18.4413
-17.9397
-17.1197
-16.044
-14.7796
-13.39
-11.9296
-10.4413
-8.95579
-7.49296
-6.06313
-4.66919
-3.30836
-1.97381
-0.656018
-26.3262
-25.5576
-24.3241
-22.7262
-20.8688
-18.848
-16.7437
-14.6167
-12.509
-10.446
-8.43974
-6.49169
-4.5957
-2.7403
-0.910516
-34.756
-33.6405
-31.8928
-29.668
-27.1214
-24.3894
-21.5804
-18.7728
-16.0174
-13.3423
-10.7581
-8.26211
-5.84246
-3.48115
-1.15626
-43.9455
-42.3557
-39.9386
-36.9316
-33.5592
-30.0077
-26.4158
-22.8766
-19.4454
-16.1479
-12.9883
-9.95616
-7.03087
-4.18559
-1.38965
-54.167
-51.8981
-48.5744
-44.5604
-40.1762
-35.6666
-31.1983
-26.8724
-22.7397
-18.8154
-15.0911
-11.5433
-8.13927
-4.84069
-1.60637
-65.7809
-62.4954
-57.9004
-52.5594
-46.9187
-41.2839
-35.8385
-30.6751
-25.8256
-21.2828
-17.0173
-12.9868
-9.14216
-5.43152
-1.80154
-79.2806
-74.4023
-67.9722
-60.8579
-53.6553
-46.7119
-40.1965
-34.1641
-28.6045
-23.473
-18.7087
-14.2442
-10.0111
-5.94169
-1.96978
-95.3506
-87.8609
-78.7281
-69.2448
-60.1324
-51.7119
-44.0713
-37.1801
-30.9553
-25.2961
-20.1001
-15.2703
-10.7163
-6.35438
-2.10566
-114.904
-102.962
-89.8346
-77.2608
-65.9176
-55.9318
-47.1968
-39.5298
-32.7405
-26.6558
-21.1254
-16.0204
-11.2294
-6.65385
-2.20416
-138.935
-119.25
-100.387
-84.046
-70.3452
-58.901
-49.2541
-41.0016
-33.8211
-27.4611
-21.7252
-16.4566
-11.527
-6.82747
-2.26126
-167.525
-134.716
-108.416
-88.1912
-72.5162
-60.0729
-49.917
-41.4014
-34.081
-27.6424
-21.8575
-16.5537
-11.5947
-6.86773
-2.27465
-195.534
-143.673
-110.371
-87.786
-71.4553
-58.9572
-48.9395
-40.6059
-33.4591
-27.17
-21.5088
-16.306
-11.4303
-6.77407
-2.24425
-195.824
-134.072
-101.607
-81.127
-66.5616
-55.3609
-46.2779
-38.6237
-31.9794
-26.0697
-20.7015
-15.7313
-11.0465
-6.55395
-2.17253
-9.15124
-27.6659
-46.836
-67.1661
-89.2757
-113.98
-142.423
-176.3
-218.299
-272.973
-348.731
-462.748
-654.585
-1027.75
-1885.84
-9.04975
-27.3495
-46.2665
-66.2706
-87.93
-111.976
-139.4
-171.615
-210.712
-259.9
-324.161
-410.827
-527.33
-659.421
-635.975
-8.80888
-26.6034
-44.9401
-64.2228
-84.9235
-107.62
-133.046
-162.143
-196.11
-236.349
-284.017
-338.162
-389.225
-399.072
-253.097
-8.44496
-25.4796
-42.9551
-61.1879
-80.5273
-101.365
-124.136
-149.282
-177.144
-207.629
-239.366
-267.624
-279.716
-246.915
-120.356
-7.9802
-24.0486
-40.4425
-57.382
-75.0871
-93.7643
-113.57
-134.528
-156.346
-178.029
-197.119
-208.305
-201.367
-159.853
-66.8849
-7.44013
-22.3908
-37.5493
-53.0419
-68.9687
-85.3755
-102.2
-119.173
-135.634
-150.219
-160.349
-161.562
-147.023
-108.515
-41.7444
-6.8509
-20.5876
-34.4226
-48.3983
-62.5141
-76.6926
-90.723
-104.168
-116.222
-125.496
-129.764
-125.748
-109.319
-76.7975
-28.2117
-6.23716
-18.7154
-31.197
-43.6553
-56.0131
-68.1093
-79.6475
-90.1249
-98.7338
-104.247
-104.925
-98.5472
-82.7868
-56.2318
-20.1204
-5.62049
-16.84
-27.9864
-38.9803
-49.6918
-59.9103
-69.305
-77.3745
-83.3907
-86.3516
-84.9824
-77.8566
-63.747
-42.2998
-14.8957
-5.01849
-15.0147
-24.8805
-34.4999
-43.7109
-52.2811
-59.8796
-66.046
-70.1648
-71.459
-69.0339
-62.0115
-49.7998
-32.5026
-11.3282
-4.44452
-13.2795
-21.9447
-30.3018
-38.1734
-45.3249
-51.4463
-56.1366
-58.8968
-59.1457
-56.2751
-49.7671
-39.3819
-25.3963
-8.78927
-3.90793
-11.6614
-19.2218
-26.4396
-33.1344
-39.0822
-44.005
-47.5653
-49.3702
-48.9958
-46.0399
-40.2128
-31.4626
-20.1093
-6.92461
-3.41443
-10.177
-16.7359
-22.9395
-28.6128
-33.5497
-37.5083
-40.211
-41.3549
-40.6365
-37.7966
-32.6867
-25.3495
-16.0931
-5.52114
-2.9668
-8.83349
-14.496
-19.8065
-24.6012
-28.6952
-31.8822
-33.9376
-34.6311
-33.7486
-31.128
-26.7058
-20.568
-12.9899
-4.44402
-2.56548
-7.63139
-12.4997
-17.0309
-21.0749
-24.4693
-27.0404
-28.6087
-29.0003
-28.0663
-25.7092
-21.9152
-16.7857
-10.5582
-3.6043
-2.20923
-6.56613
-10.7369
-14.5927
-17.9988
-20.8141
-22.8939
-24.0955
-24.2887
-23.371
-21.2872
-18.0511
-13.7652
-8.63058
-2.94124
-1.8956
-5.62983
-9.1923
-12.4662
-15.332
-17.6686
-19.3561
-20.2815
-20.3476
-19.4845
-17.6643
-14.9152
-11.3335
-7.08772
-2.41219
-1.62146
-4.81251
-7.84768
-10.6224
-13.032
-14.973
-16.3465
-17.0633
-17.0507
-16.2617
-14.6856
-12.3568
-9.36242
-5.84295
-1.98641
-1.38327
-4.10322
-6.68354
-9.03172
-11.0567
-12.6707
-13.7923
-14.3509
-14.2921
-13.5849
-12.2289
-10.2601
-7.75551
-4.83199
-1.64128
-1.17735
-3.49069
-5.6803
-7.66504
-9.36626
-10.7098
-11.6285
-12.0665
-11.983
-11.358
-10.197
-8.53513
-6.43914
-4.00635
-1.35987
-1.00011
-2.96393
-4.81907
-6.49488
-7.92381
-9.04324
-9.79804
-10.1436
-10.0494
-9.50278
-8.51251
-7.1112
-5.35635
-3.32891
-1.12927
-0.848093
-2.51249
-4.08213
-5.49587
-6.6959
-7.62952
-8.25129
-8.52561
-8.42947
-7.95523
-7.11304
-5.93244
-4.4626
-2.77089
-0.939524
-0.718111
-2.12675
-3.45326
-4.64501
-5.65269
-6.43199
-6.94543
-7.16449
-7.07172
-6.66281
-5.94825
-4.95426
-3.72271
-2.30972
-0.782846
-0.60725
-1.79794
-2.91782
-3.92175
-4.76781
-5.41877
-5.84368
-6.01958
-5.93318
-5.58233
-4.97721
-4.14082
-3.10866
-1.92751
-0.65309
-0.512893
-1.51822
-2.46276
-3.30794
-4.0182
-4.56228
-4.91458
-5.05655
-4.97799
-4.67817
-4.16655
-3.46313
-2.59793
-1.60999
-0.545357
-0.432719
-1.28065
-2.07658
-2.78767
-3.38381
-3.83875
-4.1313
-4.24642
-4.17623
-3.92086
-3.48891
-2.8976
-2.17233
-1.34564
-0.455712
-0.364685
-1.07912
-1.74923
-2.34711
-2.8473
-3.22781
-3.47105
-3.56478
-3.50289
-3.28598
-2.92176
-2.42498
-1.81705
-1.12516
-0.380971
-0.307006
-0.908316
-1.47195
-1.97427
-2.39377
-2.71204
-2.91446
-2.99105
-2.93702
-2.75325
-2.44652
-2.02943
-1.52
-0.940926
-0.318542
-0.258135
-0.763633
-1.2372
-1.65883
-2.01044
-2.27658
-2.44513
-2.50789
-2.46111
-2.30578
-2.04781
-1.69791
-1.27123
-0.786732
-0.266306
-0.216733
-0.641088
-1.03845
-1.39195
-1.68638
-1.9088
-2.04914
-2.10069
-2.06046
-1.92948
-1.71285
-1.41963
-1.06256
-0.65745
-0.22252
-0.181646
-0.537257
-0.870118
-1.16603
-1.41223
-1.59792
-1.71472
-1.75712
-1.72274
-1.61257
-1.43098
-1.18564
-0.887193
-0.548846
-0.185745
-0.151885
-0.449199
-0.727401
-0.97458
-1.18005
-1.3348
-1.43189
-1.46678
-1.43757
-1.34518
-1.19333
-0.988468
-0.739494
-0.457407
-0.154788
-0.126598
-0.374393
-0.606193
-0.812046
-0.983037
-1.11167
-1.19219
-1.22088
-1.19622
-1.11902
-0.992441
-0.82188
-0.614757
-0.380205
-0.128654
-0.105058
-0.310676
-0.502977
-0.673683
-0.815392
-0.921892
-0.988439
-1.01197
-0.991286
-0.927094
-0.822049
-0.680645
-0.509039
-0.31479
-0.106514
-0.0866376
-0.256192
-0.414735
-0.555427
-0.672159
-0.759818
-0.814508
-0.833733
-0.816522
-0.763497
-0.676868
-0.56035
-0.419023
-0.259102
-0.087667
-0.0707969
-0.209343
-0.338871
-0.453783
-0.549085
-0.620604
-0.665168
-0.680755
-0.666591
-0.623203
-0.552411
-0.45726
-0.341899
-0.211398
-0.0715239
-0.0570694
-0.168747
-0.273141
-0.365735
-0.442502
-0.500081
-0.535922
-0.548406
-0.536923
-0.501911
-0.444844
-0.368184
-0.275274
-0.170194
-0.0575813
-0.0450486
-0.1332
-0.215595
-0.288663
-0.349225
-0.39463
-0.422871
-0.432677
-0.423572
-0.395911
-0.350864
-0.290377
-0.217087
-0.134213
-0.0454069
-0.0343773
-0.101645
-0.164516
-0.220262
-0.266459
-0.301082
-0.322605
-0.33006
-0.323089
-0.301968
-0.267591
-0.221447
-0.165547
-0.102345
-0.0346249
-0.0247368
-0.0731398
-0.118377
-0.158484
-0.191717
-0.21662
-0.232094
-0.237446
-0.23242
-0.217216
-0.19248
-0.159282
-0.119071
-0.0736113
-0.0249035
-0.0158386
-0.0468305
-0.0757948
-0.101475
-0.122753
-0.138697
-0.148604
-0.15203
-0.148811
-0.139076
-0.123237
-0.101982
-0.076236
-0.0471299
-0.0159445
-0.00741599
-0.0219276
-0.0354913
-0.0475193
-0.0574884
-0.064962
-0.0696098
-0.0712227
-0.0697229
-0.0651686
-0.0577528
-0.0477958
-0.035732
-0.0220909
-0.00747376
0.000784204
0.00231728
0.00374608
0.00500672
0.00604342
0.00681109
0.00727723
0.00742319
0.00724471
0.00675168
0.00596741
0.00492725
0.00367691
0.00227036
0.000767617
0.00900856
0.0266334
0.0430984
0.0576858
0.0697591
0.0787902
0.084383
0.0862907
0.0844271
0.0788708
0.0698623
0.0577938
0.0431924
0.0266973
0.00903115
0.0175045
0.0517526
0.0837506
0.112106
0.135581
0.15315
0.16404
0.167769
0.164166
0.15338
0.135876
0.112414
0.084019
0.0519348
0.017569
0.0265275
0.0784304
0.126926
0.169905
0.205494
0.232135
0.248657
0.254327
0.248881
0.232543
0.206016
0.170451
0.127401
0.0787528
0.0266415
0.0363487
0.107469
0.173924
0.232826
0.281607
0.318132
0.340795
0.348585
0.341141
0.318766
0.282418
0.233674
0.174663
0.10797
0.036526
0.0472628
0.139739
0.226157
0.30276
0.366211
0.413735
0.443237
0.453401
0.443749
0.414671
0.367409
0.304012
0.227247
0.14048
0.0475246
0.0595966
0.176209
0.285189
0.381806
0.461853
0.521826
0.55908
0.571947
0.559819
0.523176
0.463581
0.383613
0.286763
0.177277
0.0599744
0.0737185
0.217968
0.35279
0.472336
0.571406
0.645661
0.691822
0.707816
0.692876
0.647587
0.573871
0.474915
0.355035
0.219492
0.0742576
0.0900493
0.266261
0.430975
0.577057
0.698154
0.788964
0.84547
0.865122
0.846966
0.791698
0.701653
0.580716
0.434161
0.268424
0.0908143
0.109073
0.322523
0.522072
0.699092
0.845892
0.956041
1.02466
1.04863
1.02677
0.95991
0.850844
0.704271
0.526581
0.325583
0.110156
0.131353
0.388417
0.62878
0.842071
1.01903
1.1519
1.23478
1.2639
1.23778
1.15737
1.02603
0.849391
0.635155
0.392743
0.132884
0.157544
0.465884
0.754251
1.01023
1.22272
1.3824
1.48217
1.51744
1.4864
1.39013
1.2326
1.02057
0.763255
0.471995
0.159706
0.188411
0.557192
0.902168
1.20853
1.463
1.65443
1.77426
1.81694
1.78023
1.66534
1.47696
1.22312
0.914882
0.565821
0.191463
0.22485
0.664996
1.07685
1.44278
1.74697
1.97607
2.11981
2.17147
2.12824
1.99147
1.76668
1.46339
1.0948
0.677178
0.22916
0.267911
0.792406
1.28335
1.71982
2.08297
2.35687
2.52919
2.59175
2.54108
2.37861
2.11079
1.74891
1.30869
0.809605
0.273994
0.31882
0.943064
1.52762
2.04766
2.48082
2.80808
3.01461
3.09052
3.03141
2.83877
2.5201
2.08874
1.56339
0.967343
0.327408
0.379012
1.12123
1.81658
2.43572
2.95207
3.34295
3.59056
3.68285
3.61427
3.38627
3.00751
2.4937
1.86708
1.1555
0.391136
0.45016
1.33187
2.15837
2.89499
3.51026
3.97712
4.27415
4.38667
4.30761
4.03826
3.58852
2.97684
2.22965
1.38025
0.467275
0.534207
1.58076
2.56243
3.43837
4.1713
4.72897
5.08561
5.22324
5.13284
4.81527
4.28176
3.5539
2.66306
1.64906
0.558369
0.633403
1.8746
3.03977
4.08085
4.95378
5.62014
6.04886
6.21785
6.11552
5.74195
5.1097
4.24394
3.18182
1.97103
0.667515
0.750341
2.22113
3.6031
4.83986
5.87941
6.67598
7.19209
7.4005
7.28617
6.8479
6.09948
5.07007
3.80363
2.35727
0.798502
0.88799
2.62921
4.26703
5.73552
6.9734
7.92619
8.54856
8.80681
8.68132
8.16882
7.28403
6.06049
4.55014
2.82142
0.955994
1.04972
3.10893
5.04829
6.79097
8.26493
9.40536
10.1574
10.4791
10.3447
9.74775
8.70336
7.24972
5.448
3.38035
1.14576
1.23934
3.67167
5.96583
8.03261
9.78758
11.1537
12.0644
12.4673
12.3287
11.6368
10.4063
8.68021
6.53022
4.05498
1.37497
1.46106
4.33015
7.04089
9.49028
11.5797
13.2176
14.3232
14.831
14.696
13.8992
12.4529
10.4045
7.83789
4.87157
1.65266
1.71951
5.09833
8.29702
11.1973
13.6846
15.6503
16.9963
17.6402
17.522
16.6118
14.9168
12.488
9.42267
5.86326
1.99027
2.01967
5.99129
9.75983
13.1906
16.1508
18.5123
20.1559
20.9775
20.897
19.8683
17.8895
15.0128
11.35
7.07237
2.40243
2.36675
7.0249
11.4566
15.5098
19.0319
21.8719
23.885
24.9399
24.9293
23.7833
21.4845
18.0825
13.7036
8.55351
2.90814
2.76599
8.21533
13.4155
18.1968
22.3854
25.8043
28.2781
29.6407
29.7484
28.4974
25.8445
21.8295
16.5918
10.3781
3.53238
3.22245
9.57826
15.6645
21.2944
26.2719
30.3914
33.4411
35.2112
35.5094
34.1832
31.1489
26.4242
20.1569
12.641
4.30851
3.74058
11.1278
18.2295
24.8437
30.7527
35.7197
39.4906
41.8017
42.3964
41.0533
37.6254
32.0885
24.5879
15.4704
5.28198
4.32373
12.8749
21.1318
28.8813
35.8858
41.8764
46.5515
49.5816
50.6265
49.3685
45.5644
39.1147
30.1402
19.0425
6.51596
4.9735
14.8255
24.3853
33.4346
41.7207
48.9442
54.752
58.7371
60.4529
59.4491
55.338
47.892
37.1654
23.6057
8.10058
5.68895
16.978
27.9917
38.516
48.2909
56.9922
64.2151
69.4652
72.1643
71.6843
67.4242
58.9448
46.1558
29.5186
10.1681
6.46573
19.3209
31.9363
44.1154
55.6038
66.0635
75.0445
81.9608
86.0793
86.5402
82.4367
72.9868
57.816
37.3139
12.9196
7.2951
21.8291
36.1821
50.1917
63.628
76.1579
87.3034
96.3946
102.529
104.561
101.157
90.9975
73.1752
47.8099
16.6736
8.16309
24.4615
40.6642
56.6633
72.2778
87.2093
100.984
112.876
121.823
126.35
124.564
114.324
93.768
62.3106
21.962
9.04986
27.1591
45.2854
63.3987
81.3976
99.0593
115.966
131.396
144.179
152.517
153.833
144.808
121.926
82.982
29.7319
9.92947
29.8433
49.9128
70.21
90.7471
111.428
131.966
151.747
169.614
183.55
190.273
184.907
161.229
113.583
41.8151
10.7704
32.4175
54.3794
76.8505
99.9915
123.89
148.484
173.417
197.769
219.582
235.098
237.711
217.167
160.93
62.1333
11.537
34.7713
58.4892
83.0216
108.704
135.862
164.759
195.482
227.675
259.974
288.867
306.581
297.88
237.821
100.136
12.1916
36.7871
62.0302
88.3891
116.386
146.617
179.755
216.513
257.492
302.715
350.384
393.775
414.242
368.606
181.595
12.6982
38.3512
64.7929
92.6139
122.511
155.346
192.227
234.601
284.347
343.739
414.849
496.866
576.485
597.545
385.39
13.0258
39.3654
66.594
95.3918
126.587
161.256
200.872
247.554
304.485
376.606
471.714
601.593
779.361
988.402
977.097
13.1526
39.76
67.3015
96.4991
128.245
163.721
204.597
253.376
314.056
393.487
504.405
673.029
960.474
1532.22
2917.98
13.069
39.5036
66.8553
95.8314
127.304
162.426
202.82
250.916
310.587
388.477
496.994
661.909
944.1
1510.65
2900.21
12.7786
38.608
65.2771
93.4244
123.821
157.459
195.683
240.401
294.448
362.176
450.389
569.307
730.192
917.475
901.745
12.2983
37.1272
62.6687
89.4496
118.08
149.299
184.022
223.393
268.791
321.628
382.433
447.524
497.911
465.22
144.728
-124.326
-100.875
-83.4141
-69.9774
-59.2028
-50.2581
-42.6213
-35.9478
-29.9991
-24.6016
-19.624
-14.9626
-10.5317
-6.25809
-2.07601
-46.5623
-64.308
-63.3281
-57.6508
-51.0499
-44.5881
-38.5434
-32.951
-27.7709
-22.9417
-18.4001
-14.0856
-9.94236
-5.91851
-1.96508
-21.1444
-40.7449
-46.504
-45.9654
-42.8003
-38.6284
-34.1512
-29.668
-25.2988
-21.0822
-17.0183
-13.0896
-9.27011
-5.53001
-1.83798
-11.4823
-26.794
-34.0531
-36.1041
-35.2498
-32.8807
-29.7633
-26.3056
-22.7209
-19.1166
-15.5427
-12.0179
-8.54269
-5.10813
-1.69972
-7.1348
-18.4349
-25.219
-28.2602
-28.7512
-27.6527
-25.6115
-23.0315
-20.1565
-17.1297
-14.0331
-10.9116
-7.78704
-4.66809
-1.55521
-4.84941
-13.212
-18.984
-22.1872
-23.3563
-23.0794
-21.8337
-19.9623
-17.6975
-15.1913
-12.5409
-9.80725
-7.02753
-4.22382
-1.409
-3.49194
-9.78817
-14.5328
-17.5269
-18.9656
-19.1788
-18.4905
-17.1663
-15.4061
-13.353
-11.1065
-8.73494
-6.28467
-3.78727
-1.265
-2.612
-7.44185
-11.2971
-13.9467
-15.4259
-15.9041
-15.5887
-14.6732
-13.3182
-11.6488
-9.75888
-7.71728
-5.57452
-3.36797
-1.12638
-2.00577
-5.77231
-8.8987
-11.1793
-12.5812
-13.1807
-13.1037
-12.4851
-11.4486
-10.0979
-8.51657
-6.76987
-4.90867
-2.973
-0.995495
-1.56968
-4.5473
-7.08762
-9.02221
-10.2937
-10.9271
-10.9946
-10.5873
-9.79708
-8.70719
-7.38907
-5.90196
-4.29454
-2.60709
-0.873974
-1.24589
-3.62598
-5.69718
-7.32557
-8.44923
-9.06639
-9.21532
-8.95551
-8.35363
-7.47495
-6.37891
-5.1176
-3.73597
-2.27288
-0.762753
-0.999682
-2.91915
-4.61426
-5.97941
-6.95653
-7.53085
-7.71986
-7.56121
-7.10239
-6.39364
-5.48351
-4.4168
-3.23395
-1.97135
-0.66221
-0.808956
-2.36811
-3.76046
-4.90271
-5.74356
-6.26286
-6.46583
-6.37534
-6.02473
-5.45217
-4.69683
-3.79665
-2.78732
-1.70212
-0.57228
-0.659032
-1.93291
-3.08033
-4.03532
-4.75386
-5.21454
-5.41558
-5.3701
-5.10118
-4.63761
-4.01073
-3.25229
-2.39337
-1.46388
-0.492575
-0.539789
-1.58553
-2.53382
-3.33212
-3.94323
-4.34653
-4.53652
-4.52002
-4.3128
-3.93648
-3.41597
-2.7777
-2.04844
-1.25468
-0.422482
-0.444043
-1.30583
-2.09148
-2.7589
-3.27692
-3.62664
-3.80084
-3.80237
-3.64185
-3.33546
-2.90299
-2.36631
-1.74828
-1.07217
-0.361254
-0.366562
-1.07898
-1.73125
-2.28941
-2.72748
-3.02862
-3.18508
-3.19725
-3.07219
-2.822
-2.46239
-2.01139
-1.48847
-0.913834
-0.308074
-0.303457
-0.893907
-1.43637
-1.90333
-2.27313
-2.53107
-2.66952
-2.68744
-2.58941
-2.38452
-2.08523
-1.70643
-1.26456
-0.777108
-0.262107
-0.251786
-0.742152
-1.19393
-1.58471
-1.89646
-2.11649
-2.23766
-2.25814
-2.18084
-2.01258
-1.7633
-1.44525
-1.07232
-0.659511