/*--------------------------------*- C++ -*----------------------------------*\
| =========                 |                                                 |
| \\      /  F ield         | OpenFOAM: The Open Source CFD Toolbox           |
|  \\    /   O peration     | Version:  5.x                                   |
|   \\  /    A nd           | Web:      www.OpenFOAM.org                      |
|    \\/     M anipulation  |                                                 |
\*---------------------------------------------------------------------------*/
FoamFile
{
    version     2.0;
    format      ascii;
    class       volScalarField;
    location    "2.3";
    object      T;
}
// * * * * * * * * * * * * * * * * * * * * * * * * * * * * * * * * * * * * * //

dimensions      [0 0 0 1 0 0 0];

internalField   nonuniform List<scalar> 
6300
(
11.2657
13.8019
16.3529
18.9278
21.5353
24.1824
26.8751
29.6169
32.4088
35.2489
38.1316
41.0478
43.9841
46.924
49.8476
11.2606
13.787
16.3285
18.8948
21.4947
24.136
26.8249
29.5654
32.3592
35.2046
38.0965
41.0256
43.9785
46.938
49.8833
11.2504
13.7566
16.2789
18.8275
21.412
24.0411
26.7218
29.4594
32.2565
35.1123
38.0223
40.9776
43.9643
46.9639
49.9538
11.2347
13.7099
16.2025
18.7236
21.284
23.8935
26.5609
29.2927
32.0935
34.964
37.9011
40.8962
43.935
46.9972
50.0571
11.2131
13.6457
16.0971
18.5799
21.1061
23.6873
26.3342
29.0559
31.8592
34.7477
37.7201
40.7692
43.8803
47.0307
50.1901
11.1851
13.5623
15.96
18.3921
20.8724
23.4144
26.0316
28.736
31.5383
34.4457
37.4605
40.5781
43.784
47.0529
50.3478
11.1502
13.458
15.7881
18.1556
20.5761
23.0656
25.6405
28.3172
31.1109
34.0346
37.0965
40.2965
43.6226
47.0466
50.5229
11.1078
13.3313
15.5784
17.8655
20.21
22.6304
25.1467
27.7799
30.5519
33.4837
36.5924
39.8869
43.361
46.9857
50.7037
11.0575
13.1806
15.3282
17.5175
19.7673
22.0985
24.5347
27.1026
29.8318
32.7541
35.9007
39.2957
42.9466
46.8289
50.8722
10.9991
13.0053
15.0358
17.1084
19.2425
21.4608
23.7901
26.2626
28.917
31.7988
34.9586
38.4466
42.2982
46.5085
50.9971
10.9326
12.8053
14.7011
16.6371
18.6327
20.7111
22.9012
25.2396
27.7735
30.5637
33.6865
37.2318
41.2887
45.9072
51.0212
10.8584
12.5819
14.3259
16.1058
17.9394
19.849
21.863
24.0198
26.3723
28.9943
31.9902
35.5032
39.7152
44.8076
50.8229
10.7775
12.3378
13.9146
15.5202
17.1696
18.8815
20.6811
22.6034
24.7001
27.0495
29.7748
33.0737
37.2588
42.7822
50.0971
10.6911
12.077
13.4739
14.8905
16.3367
17.8257
19.3754
21.0116
22.7739
24.7272
26.9843
29.7559
33.4618
38.9626
47.8963
10.6011
11.8049
13.0135
14.2306
15.4604
16.7085
17.9823
19.2925
20.6557
22.0999
23.6775
25.5022
27.8676
31.7075
40.618
52.4927
54.8565
57.1664
59.4101
61.5764
63.6553
65.6389
67.5207
69.2961
70.9621
72.5174
73.9618
75.2965
76.5234
77.6451
78.6648
79.5862
80.4127
81.1483
81.7968
82.3618
82.8468
83.2553
83.5905
83.8551
84.0521
84.184
84.2529
84.2611
84.2105
84.1028
83.9397
83.7225
83.4527
83.1315
82.7599
82.3391
81.8699
81.3534
80.7905
80.1819
79.5287
78.8316
78.0916
77.3094
76.4859
75.6218
74.7179
73.775
72.7935
71.7743
70.7178
69.6247
68.4956
67.3309
66.1315
64.8979
63.631
62.3316
61.0004
59.6385
58.2467
56.8262
55.378
53.9031
52.4029
50.8786
49.3316
47.7638
46.1769
44.5733
42.9553
41.3259
39.6882
38.0458
36.4024
34.7622
33.1294
31.5084
29.9038
28.3202
26.7621
25.2339
23.7398
22.2837
20.8691
19.4991
18.1761
16.902
15.678
52.5491
54.9315
57.2591
59.5189
61.6993
63.79
65.7827
67.6712
69.4508
71.1189
72.6743
74.1173
75.4492
76.6723
77.7896
78.8044
79.7205
80.5417
81.272
81.9152
82.4752
82.9556
83.3596
83.6906
83.9515
84.145
84.2735
84.3395
84.3451
84.292
84.1821
84.0169
83.798
83.5265
83.2037
82.8307
82.4084
81.938
81.4202
80.856
80.2463
79.5918
78.8935
78.1523
77.3689
76.5443
75.6792
74.7743
73.8304
72.8481
71.828
70.7707
69.6767
68.5467
67.3811
66.1807
64.946
63.678
62.3772
61.0447
59.6814
58.2882
56.8662
55.4163
53.9397
52.4376
50.9111
49.3618
47.7911
46.2011
44.5938
42.9718
41.3378
39.6951
38.0471
36.3979
34.7515
33.1122
31.4847
29.8736
28.2835
26.7191
25.1848
23.6851
22.2239
20.8049
19.4313
18.1056
16.8299
15.6052
52.6622
55.0829
57.4468
59.7396
61.9486
64.0629
66.0741
67.9756
69.7634
71.4352
72.9905
74.4301
75.7561
76.9714
78.0793
79.0839
79.9893
80.7996
81.5191
82.1519
82.7018
83.1726
83.5678
83.8905
84.1437
84.3302
84.4524
84.5125
84.5127
84.4547
84.3404
84.1712
83.9486
83.6738
83.3479
82.972
82.5471
82.074
81.5538
80.9871
80.3749
79.718
79.0173
78.2737
77.488
76.6611
75.7938
74.8869
73.9411
72.9571
71.9353
70.8764
69.7808
68.649
67.4816
66.2792
65.0424
63.7719
62.4687
61.1335
59.7674
58.3713
56.9462
55.4931
54.0131
52.5072
50.9766
49.4225
47.8464
46.2501
44.6357
43.0054
41.3622
39.7093
38.0504
36.3893
34.7304
33.0782
31.4375
29.813
28.2097
26.6325
25.086
23.5748
22.1033
20.6753
19.2944
17.9633
16.6842
15.4582
52.8325
55.3134
57.7341
60.0783
62.3314
64.4817
66.5204
68.4411
70.2403
71.9166
73.4705
74.904
76.22
77.4224
78.5156
79.5041
80.3928
81.1863
81.8893
82.506
83.0407
83.4972
83.8789
84.1892
84.431
84.607
84.7196
84.771
84.7632
84.698
84.5772
84.402
84.174
83.8942
83.5638
83.1837
82.7548
82.278
81.754
81.1837
80.5678
79.9072
79.2029
78.4556
77.6664
76.8361
75.9656
75.0557
74.1071
73.1204
72.0962
71.0349
69.9369
68.8027
67.6326
66.4272
65.1872
63.9132
62.6061
61.2669
59.8966
58.4961
57.0665
55.6088
54.1238
52.6125
51.0759
49.5149
47.9309
46.3253
44.7002
43.0577
41.4006
39.7324
38.0566
36.3775
34.6996
33.0277
31.3668
29.722
28.0985
26.5015
24.9362
23.4074
21.9199
20.478
19.0857
17.7462
16.4618
15.2339
53.0612
55.6279
58.1291
60.5452
62.8594
65.0587
67.1336
69.0787
70.8914
72.5716
74.1214
75.5444
76.845
78.0284
79.1002
80.066
80.9313
81.7015
82.3817
82.9767
83.4907
83.9278
84.2916
84.5854
84.812
84.9741
85.074
85.1139
85.0957
85.021
84.8915
84.7086
84.4735
84.1873
83.851
83.4655
83.0315
82.5497
82.0209
81.4458
80.8251
80.1596
79.4502
78.698
77.9039
77.069
76.1941
75.2802
74.3279
73.3379
72.3106
71.2464
70.1454
69.008
67.8345
66.6253
65.3809
64.1021
62.7899
61.4452
60.0692
58.6629
57.2275
55.7637
54.2724
52.7543
51.2101
49.6405
48.0463
46.4288
44.7896
43.1308
41.4552
39.7661
38.0676
36.364
34.6601
32.9613
31.2728
29.6002
27.9491
26.3251
24.7337
23.1805
21.6707
20.2094
18.8011
17.4497
16.1579
14.9276
53.35
56.0337
58.644
61.1561
63.5502
65.8115
67.9311
69.9042
71.7303
73.4115
74.9523
76.3583
77.6362
78.7928
79.8352
80.7703
81.6047
82.3444
82.9952
83.5622
84.0499
84.4627
84.804
85.0771
85.2848
85.4298
85.5141
85.5398
85.5087
85.4224
85.2824
85.0899
84.8462
84.5523
84.2089
83.8168
83.3767
82.8891
82.3545
81.7735
81.1467
80.4751
79.7594
79.0008
78.2004
77.3594
76.479
75.5599
74.6031
73.6092
72.5783
71.5107
70.4065
69.2655
68.0879
66.874
65.6242
64.3393
63.0204
61.6686
60.2854
58.8718
57.4291
55.9582
54.4596
52.9338
51.381
49.8014
48.1953
46.5635
44.9071
43.2281
41.5291
39.8136
38.0858
36.3507
34.6134
32.8799
31.1559
29.4474
27.7606
26.1016
24.4763
22.891
21.3517
19.8644
18.4346
17.0671
15.7656
14.5323
53.7016
56.5426
59.2974
61.9342
64.4289
66.7656
68.9362
70.9384
72.7747
74.4508
75.9743
77.3541
78.5992
79.719
80.7223
81.6175
82.4122
83.1134
83.7275
84.26
84.7157
85.0989
85.4132
85.6617
85.8472
85.9718
86.0377
86.0468
86.0006
85.9006
85.7483
85.5447
85.291
84.9881
84.6367
84.2373
83.7903
83.2961
82.7549
82.1671
81.5332
80.8539
80.1304
79.3638
78.5555
77.7069
76.8194
75.8941
74.932
73.9336
72.899
71.8281
70.7205
69.5758
68.3938
67.1744
65.918
64.6255
63.2982
61.9375
60.5452
59.1227
57.6715
56.1925
54.686
53.1521
51.5904
50.0004
48.3815
46.7336
45.0573
43.3541
41.6267
39.8787
38.1147
36.3403
34.5615
32.7847
31.0165
29.2634
27.5322
25.8293
24.1614
22.5352
20.9578
19.4364
17.9782
16.5895
15.2753
14.0384
54.1208
57.1727
60.1177
62.9137
65.5318
67.9559
70.1805
72.2082
74.0467
75.7066
77.2003
78.5406
79.74
80.8104
81.7626
82.6069
83.352
84.0059
84.5755
85.0667
85.4845
85.8331
86.116
86.3362
86.496
86.5976
86.6426
86.6328
86.5694
86.4539
86.2875
86.0714
85.8065
85.4937
85.1335
84.7262
84.2719
83.7707
83.2224
82.627
81.9849
81.2967
80.5636
79.7869
78.9686
78.1105
77.2143
76.2816
75.3134
74.3102
73.272
72.1982
71.0879
69.94
68.7535
67.5281
66.2639
64.962
63.624
62.252
60.8484
59.4151
57.9541
56.4662
54.9519
53.4105
51.8407
50.2409
48.6093
46.9445
45.2461
43.5151
41.754
39.9667
38.1587
36.3363
34.5066
32.677
30.8551
29.0481
27.263
25.5067
23.7863
22.1091
20.4832
18.9176
17.4217
16.0045
14.6736
13.4329
54.6157
57.9536
61.1493
64.146
66.9106
69.4298
71.7051
73.7472
75.5722
77.1983
78.644
79.927
81.0637
82.0689
82.9559
83.7365
84.4209
85.0177
85.5345
85.9774
86.3513
86.6604
86.908
87.0965
87.2279
87.3039
87.3259
87.2952
87.2128
87.0801
86.8981
86.6681
86.3909
86.0674
85.6979
85.2826
84.8212
84.3132
83.7578
83.1544
82.5031
81.8043
81.0594
80.2703
79.4393
78.569
77.6619
76.7202
75.7452
74.7374
73.6964
72.6212
71.5097
70.3598
69.1694
67.9376
66.6642
65.3505
63.9989
62.6123
61.1941
59.7476
58.2751
56.7782
55.2567
53.7096
52.1343
50.5273
48.8849
47.2036
45.4818
43.7194
41.9188
40.0847
38.2233
36.3426
34.4514
32.5584
30.6723
28.8011
26.9521
25.1324
23.3489
21.6091
19.9219
18.2984
16.7517
15.2955
13.9418
12.6972
55.2015
58.9361
62.4638
65.7091
68.6392
71.2514
73.5617
75.5952
77.3806
78.9463
80.3186
81.5208
82.5735
83.4947
84.2999
85.0024
85.6135
86.1429
86.5982
86.9856
87.3101
87.5752
87.7839
87.9379
88.0387
88.0874
88.0847
88.0314
87.9284
87.7768
87.5778
87.3325
87.042
86.7072
86.3284
85.9055
85.4378
84.924
84.3622
83.751
83.0897
82.3786
81.6192
80.8141
79.9666
79.0806
78.1597
77.207
76.2243
75.2124
74.1704
73.0964
71.9869
70.8378
69.6452
68.4069
67.1225
65.7938
64.4241
63.018
61.5807
60.1173
58.6315
57.1253
55.5986
54.0494
52.4734
50.8648
49.2163
47.5213
45.7757
43.9785
42.1321
40.2417
38.3157
36.3641
34.3986
32.4299
30.4681
28.5219
26.599
24.7059
22.8487
21.0333
19.2686
17.5685
15.9513
14.4389
13.0529
11.8049
55.9099
60.2132
64.1814
67.7225
70.8215
73.5038
75.813
77.7967
79.5015
80.9692
82.2345
83.3266
84.2698
85.0847
85.789
86.3973
86.9219
87.3728
87.7578
88.083
88.3529
88.5703
88.7374
88.8552
88.9241
88.9443
88.9158
88.8388
88.7138
88.5417
88.3238
88.0618
87.757
87.4104
87.0224
86.593
86.1209
85.6039
85.0381
84.4201
83.7482
83.0225
82.245
81.419
80.5497
79.6425
78.7035
77.737
76.7459
75.7307
74.6907
73.6226
72.5213
71.3787
70.187
68.9427
67.6448
66.2962
64.9017
63.4687
62.005
60.5194
59.0173
57.502
55.9729
54.4275
52.8595
51.2596
49.6146
47.9118
46.144
44.3086
42.4085
40.45
38.4447
36.4059
34.3503
32.2914
30.2414
28.2091
26.2029
24.2278
22.2882
20.3845
18.5224
16.7193
14.9998
13.4003
11.9653
10.7167
56.8177
61.9693
66.5101
70.3682
73.5996
76.2892
78.5285
80.3953
81.9597
83.2794
84.396
85.3431
86.1472
86.8309
87.4133
87.91
88.334
88.6953
89.0017
89.2586
89.4697
89.6369
89.761
89.842
89.8789
89.8708
89.8164
89.7152
89.5668
89.3725
89.1334
88.8529
88.5322
88.1734
87.7764
87.3423
86.8689
86.3541
85.7895
85.1669
84.4846
83.7411
82.9409
82.0867
81.1876
80.2503
79.2871
78.3026
77.3023
76.2848
75.2516
74.197
73.1154
71.9901
70.8048
69.5557
68.24
66.865
65.4348
63.9636
62.4609
60.9452
59.4222
57.8985
56.3706
54.8383
53.2914
51.7195
50.0962
48.3956
46.6097
44.7317
42.769
40.7258
38.6217
36.4717
34.3066
32.1399
29.9892
27.8587
25.7617
23.6987
21.6757
19.6759
17.6911
15.7496
13.8753
12.125
10.6094
9.37003
58.1512
64.6008
69.8176
73.9119
77.1535
79.7184
81.776
83.4248
84.7659
85.8777
86.7975
87.5616
88.1945
88.7199
89.158
89.5249
89.8341
90.095
90.3153
90.499
90.6485
90.7644
90.8461
90.8916
90.8981
90.8635
90.784
90.6595
90.486
90.2678
90.0029
89.702
89.3624
88.9915
88.5841
88.1482
87.6771
87.1764
86.6247
86.0001
85.3093
84.5418
83.7147
82.8191
81.8808
80.8955
79.9017
78.8914
77.8835
76.862
75.8433
74.8102
73.7727
72.6882
71.5144
70.2646
68.9208
67.5133
66.027
64.5037
62.9355
61.3815
59.8279
58.301
56.7748
55.27
53.7592
52.2534
50.689
49.0022
47.2081
45.2764
43.2455
41.0892
38.8648
36.5591
34.2654
31.965
29.708
27.4602
25.2713
23.1121
21.0298
18.9458
16.7973
14.683
12.5724
10.5115
8.85553
7.6607
60.7368
69.0028
74.7368
78.6781
81.6764
83.8728
85.6068
86.8921
87.8974
88.7476
89.4187
89.9648
90.3924
90.7309
91.0024
91.2199
91.4014
91.5514
91.6798
91.7875
91.8747
91.9404
91.9827
91.997
91.9763
91.9208
91.8166
91.6741
91.4698
91.2307
90.9242
90.6072
90.2378
89.8628
89.4331
89.0052
88.5282
88.0725
87.5655
86.9288
86.245
85.4287
84.5877
83.6135
82.6421
81.5533
80.5405
79.4768
78.4843
77.4354
76.4559
75.4301
74.4977
73.5152
72.3334
71.1089
69.6935
68.2749
66.6728
65.1085
63.3897
61.8173
60.1952
58.7026
57.1478
55.7104
54.2198
52.8716
51.458
49.7633
48.0044
45.964
43.9025
41.5508
39.2247
36.6292
34.2337
31.7278
29.4133
26.9766
24.7382
22.4147
20.3861
18.3086
15.8543
13.6109
11.1977
8.31505
6.43764
5.40738
68.2241
77.046
82.2317
84.7968
87.3483
88.6873
90.078
90.7571
91.2469
91.8699
92.2148
92.5342
92.7145
92.8349
92.9211
92.9643
93.0118
93.0371
93.0728
93.1043
93.1313
93.1493
93.1592
93.1524
93.1046
93.0483
92.9045
92.778
92.5039
92.2909
91.8614
91.5881
91.122
90.8134
90.2801
89.9336
89.349
89.0428
88.6936
87.9259
87.3718
86.3515
85.6528
84.4041
83.5728
82.1018
81.2527
79.9601
79.1667
77.9089
77.1355
75.9155
75.2951
74.6294
73.2137
72.2284
70.471
69.3006
67.2642
65.9356
63.6333
62.3248
60.3758
59.1936
57.352
56.2274
54.4753
53.5837
52.6316
50.6169
49.2061
46.6816
44.9776
41.9753
39.9723
36.4111
34.3611
31.2147
29.2945
26.2076
24.3276
21.2926
19.8127
18.2138
14.6076
12.7834
10.499
4.67099
2.79984
2.29109
14.3871
13.0513
11.7859
10.588
9.45355
8.37763
7.35495
6.37982
5.44643
4.54892
3.68148
2.83841
2.01413
1.20317
0.400176
14.3148
12.9808
11.7185
10.5246
9.39495
8.32439
7.30738
6.33808
5.41055
4.51884
3.6571
2.81961
2.0008
1.19522
0.397531
14.1687
12.8385
11.5825
10.397
9.27724
8.21758
7.21208
6.25456
5.33883
4.45878
3.60846
2.78213
1.97423
1.17936
0.392261
13.946
12.622
11.3761
10.2037
9.09936
8.05659
7.06878
6.12926
5.23143
4.36898
3.53584
2.72623
1.93463
1.15574
0.384411
13.6421
12.3273
11.096
9.94251
8.85986
7.84062
6.8772
5.96223
5.08865
4.24986
3.43967
2.6523
1.88232
1.12456
0.374051
13.2508
11.9492
10.7382
9.61039
8.55693
7.5688
6.63718
5.7538
4.91109
4.10213
3.32067
2.56098
1.81778
1.08612
0.361285
12.7632
11.4802
10.2973
9.20388
8.18868
7.24046
6.34889
5.5047
4.69975
3.9269
3.1799
2.45318
1.7417
1.04085
0.346258
12.1675
10.9112
9.76673
8.71918
7.75341
6.85547
6.01321
5.21635
4.45629
3.72582
3.01885
2.33012
1.65499
0.989303
0.329158
11.4476
10.2303
9.13926
8.15269
7.2503
6.41478
5.63212
4.8912
4.18324
3.50125
2.83956
2.19344
1.55886
0.932215
0.310227
10.5819
9.42314
8.40728
7.50202
6.6803
5.92123
5.20928
4.53307
3.8842
3.25636
2.64468
2.04523
1.45477
0.87047
0.289762
9.5406
8.47309
7.56469
6.7678
6.04765
5.38055
4.75069
4.14759
3.56413
2.99533
2.43755
1.88804
1.34453
0.805127
0.268114
8.2838
7.36389
6.61059
5.95681
5.36195
4.80259
4.26535
3.74247
3.22939
2.72325
2.22217
1.72482
1.23019
0.737393
0.245679
6.7619
6.08808
5.55696
5.08688
4.64075
4.20252
3.76561
3.32756
2.88771
2.4461
2.00305
1.5589
1.11399
0.668578
0.222889
4.9333
4.66957
4.44227
4.19298
3.91163
3.60114
3.26701
2.91445
2.54777
2.1704
1.78502
1.39375
0.998291
0.600038
0.200186
2.85123
3.21462
3.34955
3.33116
3.21164
3.02338
2.78682
2.51544
2.21853
1.9027
1.57287
1.23278
0.885384
0.533096
0.178004
10.5171
11.5508
12.5834
13.6135
14.6399
15.6603
16.6714
17.6674
18.6389
19.5681
20.4187
21.1057
21.3865
20.407
14.5053
10.4409
11.3207
12.1938
13.055
13.8979
14.7136
15.4895
16.2065
16.8341
17.3202
17.5691
17.39
16.3687
13.551
6.81348
10.3663
11.095
11.8122
12.509
13.1744
13.7941
14.348
14.8071
15.127
15.2364
15.016
14.2586
12.5976
9.41664
3.90567
10.2941
10.8773
11.4448
11.9846
12.4825
12.9199
13.272
13.5041
13.5656
13.381
12.8355
11.754
9.88161
6.89984
2.5952
10.2255
10.6704
11.0963
11.4892
11.8323
12.1047
12.2791
12.3191
12.1746
11.7759
11.0266
9.79816
7.93568
5.30139
1.89973
10.1611
10.4765
10.7707
11.0283
11.2311
11.3572
11.3792
11.2619
10.9598
10.4139
9.55017
8.28223
6.52548
4.23561
1.48045
10.1015
10.2972
10.4705
10.6052
10.6828
10.6817
10.5757
10.3329
9.91403
9.27225
8.35414
7.10546
5.4853
3.4928
1.20399
10.0469
10.1333
10.197
10.2216
10.1892
10.079
9.86714
9.52581
9.02279
8.32227
7.38744
6.18643
4.7035
2.95566
1.01026
9.99755
9.98526
9.95056
9.87762
9.74929
9.54658
9.24829
8.83081
8.26847
7.5348
6.60538
5.46301
4.10552
2.55561
0.868654
9.95326
9.85268
9.73058
9.57197
9.36096
9.08045
8.71206
8.23623
7.63294
6.88308
5.97106
4.88882
3.64105
2.25066
0.761996
9.9139
9.73501
9.53588
9.30262
9.02077
8.67523
8.2503
7.73004
7.09905
6.34381
5.45482
4.42948
3.27552
2.0139
0.679851
9.87919
9.63136
9.36483
9.06694
8.72473
8.32504
7.85462
7.30062
6.65133
5.89732
5.03314
4.05937
2.98468
1.82739
0.615508
9.84877
9.54065
9.21552
8.86196
8.46853
8.02386
7.51688
6.93729
6.27622
5.52722
4.68749
3.75927
2.75114
1.67874
0.564441
9.82228
9.46174
9.0859
8.68461
8.24785
7.76587
7.22948
6.63044
5.96208
5.22004
4.4032
3.5146
2.56219
1.55917
0.523489
9.79933
9.39343
8.97392
8.53185
8.05851
7.54561
6.98551
6.37166
5.69903
4.96474
4.16869
3.31417
2.40834
1.46224
0.490374
9.77952
9.33455
8.87757
8.40077
7.89661
7.35805
6.77881
6.15363
5.47874
4.75227
3.97471
3.14934
2.28243
1.3832
0.463417
9.76251
9.28399
8.79497
8.28864
7.75854
7.19871
6.60394
5.97007
5.29422
4.57522
3.8139
3.01332
2.17892
1.3184
0.441353
9.74793
9.24072
8.72437
8.193
7.64107
7.06358
6.4562
5.8156
5.13962
4.42753
3.68031
2.90076
2.09354
1.26507
0.423214
9.73548
9.20378
8.66418
8.1116
7.54134
6.94916
6.3315
5.68568
5.01004
4.30419
3.56914
2.80737
2.02288
1.22102
0.408247
9.72488
9.17233
8.61298
8.04247
7.45679
6.8524
6.22633
5.57642
4.90141
4.20111
3.4765
2.72975
1.96428
1.18454
0.395859
9.71586
9.14561
8.56951
7.98385
7.38523
6.77066
6.13769
5.48457
4.81033
4.11489
3.39919
2.66512
1.91556
1.15425
0.385582
9.70821
9.12293
8.53266
7.93422
7.32473
6.70168
6.06303
5.40736
4.73393
4.04273
3.33462
2.61123
1.875
1.12905
0.377038
9.70172
9.10373
8.50147
7.89225
7.27363
6.6435
6.00017
5.34248
4.66983
3.98231
3.28064
2.56625
1.84119
1.10807
0.369923
9.69624
9.08749
8.4751
7.8568
7.23052
6.59448
5.94727
5.28796
4.61606
3.93169
3.23548
2.52866
1.81296
1.09056
0.363991
9.6916
9.07377
8.45284
7.82689
7.19417
6.55319
5.90278
5.24215
4.57095
3.88927
3.19769
2.49723
1.78938
1.07594
0.359038
9.68769
9.06218
8.43406
7.80167
7.16355
6.51844
5.86536
5.20368
4.5331
3.85372
3.16604
2.47094
1.76966
1.06372
0.354901
9.68439
9.05242
8.41823
7.78043
7.13777
6.48921
5.83392
5.17138
4.50134
3.82392
3.13954
2.44894
1.75317
1.05351
0.351443
9.68161
9.0442
8.4049
7.76255
7.11609
6.46464
5.80751
5.14427
4.47472
3.79895
3.11734
2.43053
1.73938
1.04497
0.348552
9.67927
9.03728
8.3937
7.74752
7.09788
6.44401
5.78535
5.12153
4.45239
3.77803
3.09876
2.41512
1.72784
1.03783
0.346134
9.67731
9.03147
8.38428
7.73491
7.08259
6.4267
5.76676
5.10247
4.4337
3.76052
3.08321
2.40223
1.71819
1.03186
0.344113
9.67566
9.0266
8.37639
7.72433
7.06977
6.4122
5.7512
5.08651
4.41805
3.74588
3.07022
2.39146
1.71013
1.02687
0.342426
9.67428
9.02252
8.36978
7.71547
7.05905
6.40007
5.73818
5.07318
4.40498
3.73365
3.05936
2.38247
1.7034
1.02271
0.341018
9.67313
9.01911
8.36427
7.70808
7.0501
6.38995
5.72733
5.06207
4.39409
3.72346
3.05033
2.37498
1.6978
1.01925
0.339846
9.67217
9.01628
8.35968
7.70194
7.04267
6.38154
5.71831
5.05283
4.38505
3.715
3.04282
2.36877
1.69316
1.01638
0.338873
9.67138
9.01393
8.35588
7.69685
7.03651
6.37458
5.71086
5.0452
4.37757
3.708
3.03663
2.36364
1.68932
1.014
0.338071
9.67073
9.01201
8.35277
7.69268
7.03146
6.36887
5.70474
5.03894
4.37144
3.70227
3.03154
2.35943
1.68617
1.01206
0.337412
9.6702
9.01044
8.35024
7.68929
7.02736
6.36424
5.69977
5.03386
4.36646
3.69762
3.02742
2.35602
1.68362
1.01048
0.336878
9.66978
9.0092
8.34821
7.68658
7.02409
6.36054
5.69581
5.0298
4.36249
3.69391
3.02413
2.35329
1.68158
1.00922
0.336453
9.66945
9.00822
8.34664
7.68448
7.02154
6.35766
5.69272
5.02664
4.3594
3.69102
3.02157
2.35118
1.68
1.00824
0.336122
9.6692
9.0075
8.34547
7.68291
7.01965
6.35552
5.69043
5.0243
4.35711
3.68887
3.01967
2.3496
1.67883
1.00752
0.335876
9.66904
9.00701
8.34467
7.68184
7.01835
6.35405
5.68885
5.02269
4.35553
3.6874
3.01836
2.34852
1.67802
1.00702
0.335707
9.66894
9.00672
8.34421
7.68122
7.0176
6.35321
5.68795
5.02176
4.35462
3.68655
3.01761
2.3479
1.67756
1.00673
0.33561
9.66891
9.00664
8.34408
7.68105
7.01739
6.35297
5.68769
5.0215
4.35437
3.68631
3.0174
2.34773
1.67742
1.00665
0.335582
9.66895
9.00676
8.34427
7.68131
7.0177
6.35332
5.68807
5.02189
4.35475
3.68667
3.01771
2.34799
1.67762
1.00677
0.335623
9.66906
9.00708
8.3448
7.68201
7.01855
6.35428
5.6891
5.02294
4.35577
3.68763
3.01856
2.34869
1.67814
1.00709
0.335733
9.66924
9.00762
8.34567
7.68317
7.01996
6.35588
5.69081
5.02468
4.35748
3.68922
3.01998
2.34986
1.67902
1.00763
0.335915
9.6695
9.00839
8.34691
7.68484
7.02198
6.35815
5.69325
5.02718
4.35992
3.6915
3.022
2.35153
1.68027
1.00841
0.336177
9.66985
9.00941
8.34857
7.68705
7.02465
6.36118
5.69649
5.03049
4.36317
3.69454
3.02469
2.35375
1.68193
1.00943
0.336524
9.67029
9.01072
8.35068
7.68989
7.02808
6.36505
5.70063
5.03473
4.36732
3.69841
3.02812
2.3566
1.68405
1.01075
0.336969
9.67084
9.01235
8.35332
7.69342
7.03235
6.36988
5.70581
5.04003
4.3725
3.70326
3.03241
2.36015
1.68671
1.01239
0.337524
9.67152
9.01435
8.35656
7.69776
7.0376
6.37581
5.71216
5.04653
4.37887
3.70921
3.03769
2.36451
1.68997
1.0144
0.338206
9.67234
9.01679
8.3605
7.70304
7.04399
6.38303
5.7199
5.05445
4.38661
3.71645
3.04411
2.36983
1.69394
1.01686
0.339037
9.67334
9.01973
8.36526
7.70941
7.0517
6.39174
5.72924
5.06401
4.39598
3.72521
3.05187
2.37625
1.69875
1.01983
0.340042
9.67453
9.02326
8.37098
7.71707
7.06097
6.40222
5.74048
5.07551
4.40724
3.73574
3.06121
2.38398
1.70453
1.02341
0.341252
9.67596
9.02749
8.37783
7.72625
7.07208
6.41478
5.75394
5.0893
4.42075
3.74837
3.07241
2.39326
1.71147
1.0277
0.342704
9.67767
9.03255
8.38602
7.73721
7.08536
6.4298
5.77005
5.10579
4.43691
3.7635
3.08582
2.40437
1.71978
1.03284
0.344443
9.67971
9.03858
8.39578
7.75029
7.1012
6.44772
5.78927
5.12549
4.45622
3.78157
3.10186
2.41765
1.72971
1.03898
0.346523
9.68214
9.04575
8.40741
7.76588
7.12007
6.46908
5.8122
5.14899
4.47927
3.80314
3.121
2.43352
1.74159
1.04633
0.34901
9.68503
9.05429
8.42124
7.78442
7.14254
6.49452
5.83952
5.177
4.50675
3.82888
3.14386
2.45246
1.75577
1.05511
0.35198
9.68846
9.06444
8.43768
7.80647
7.16927
6.52479
5.87204
5.21037
4.5395
3.85958
3.17113
2.47508
1.77271
1.06559
0.355529
9.69253
9.07649
8.45721
7.83267
7.20105
6.5608
5.91075
5.25011
4.57854
3.89618
3.20367
2.50208
1.79293
1.07811
0.359768
9.69736
9.09079
8.48039
7.86378
7.23879
6.60361
5.9568
5.29742
4.62505
3.93983
3.24249
2.53431
1.81709
1.09307
0.364835
9.70309
9.10774
8.50788
7.90069
7.28361
6.65447
6.01157
5.35374
4.68046
3.99188
3.28883
2.57281
1.84596
1.11096
0.370893
9.70987
9.12781
8.54044
7.94444
7.33678
6.71488
6.07667
5.42076
4.74649
4.05396
3.34415
2.61881
1.88048
1.13236
0.378143
9.71789
9.15156
8.57899
7.99628
7.39983
6.78658
6.15404
5.50052
4.82515
4.12803
3.41023
2.67382
1.9218
1.15798
0.386827
9.72736
9.17962
8.62458
8.05762
7.47453
6.87163
6.24596
5.59542
4.9189
4.21643
3.4892
2.73964
1.97128
1.1887
0.397239
9.73854
9.21275
8.67842
8.13015
7.56296
6.97247
6.35512
5.70831
5.03063
4.32198
3.58367
2.81849
2.03063
1.22557
0.409743
9.75171
9.25179
8.74193
8.2158
7.66753
7.09193
6.48468
5.8426
5.16383
4.44808
3.69675
2.91305
2.10192
1.26989
0.424783
9.7672
9.29772
8.81671
8.31678
7.79104
7.23331
6.63839
6.00231
5.32266
4.59884
3.83228
3.02662
2.18768
1.32329
0.442914
9.78537
9.35165
8.90459
8.43564
7.93671
7.40046
6.82061
6.19222
5.51212
4.77922
3.99491
3.16326
2.29108
1.38777
0.464824
9.80665
9.4148
9.00765
8.57527
8.10823
7.59784
7.03647
6.41798
5.73815
4.99523
4.19036
3.32799
2.41607
1.46585
0.491383
9.83147
9.48857
9.12818
8.73892
8.3098
7.83054
7.29191
6.68624
6.00792
5.25417
4.42565
3.52708
2.56761
1.56073
0.523697
9.86035
9.57444
9.26873
8.93018
8.5461
8.10436
7.59382
7.00483
6.32998
5.56495
4.70951
3.7684
2.75202
1.67653
0.563191
9.89382
9.67403
9.43201
9.15298
8.82234
8.42586
7.95009
7.38293
6.71453
5.93839
5.05274
4.06189
2.97741
1.81857
0.61173
9.93241
9.78902
9.62092
9.41154
9.14419
8.8023
8.36968
7.83119
7.17375
6.38776
5.46891
4.42031
3.25436
1.99391
0.671791
9.97671
9.92112
9.83843
9.71023
9.51769
9.2416
8.86262
8.36188
7.72208
6.92921
5.97504
4.86009
3.59683
2.212
0.74674
10.0272
10.072
10.0875
10.0535
9.94904
9.75217
9.43993
8.98894
8.37649
7.58249
6.59265
5.40272
4.02362
2.48588
0.841259
10.0845
10.2431
10.3707
10.4455
10.4444
10.3427
10.1134
9.7279
9.15673
8.37155
7.34899
6.07654
4.56043
2.8339
0.962066
10.1488
10.4358
10.6905
10.89
11.0095
11.0215
10.895
10.5955
10.0853
9.32518
8.2786
6.91935
5.24321
3.28271
1.11915
10.2205
10.6508
11.0484
11.3899
11.649
11.7961
11.7964
11.6092
11.1871
10.4774
9.42505
7.98194
6.12323
3.87241
1.3281
10.2996
10.8885
11.4452
11.9466
12.3661
12.6725
12.8277
12.7855
12.4883
11.8671
10.8425
9.33282
7.2753
4.66575
1.61468
10.386
11.1482
11.8803
12.56
13.1615
13.6533
13.9959
14.1383
14.014
13.5366
12.5963
11.0637
8.81039
5.76547
2.02502
10.4792
11.4288
12.3516
13.2275
14.0327
14.7373
15.3025
15.6757
15.7845
15.5268
14.7608
13.2947
10.8948
7.34791
2.65024
10.5783
11.7277
12.8551
13.9437
14.9732
15.9176
16.7418
17.3963
17.8086
17.8695
17.4107
16.1734
13.7751
9.72915
3.69394
10.6823
12.0419
13.3854
14.7006
15.9724
17.1809
18.2984
19.2843
20.076
20.5721
20.6005
19.8576
17.7988
13.4913
5.67682
10.7899
12.3669
13.935
15.4873
17.0151
18.5067
19.9456
21.3063
22.5477
23.5985
24.3249
24.4545
23.3831
19.6882
10.1171
10.8994
12.698
14.4953
16.2905
18.0822
19.8685
21.6463
23.4102
25.1507
26.8489
28.4624
29.8841
30.7881
29.9647
21.9618
11.0091
13.0296
15.0567
17.0956
19.1525
21.2354
23.3556
25.5292
27.782
30.1566
32.7316
35.6716
39.391
45.2252
58.75
11.1173
13.3564
15.6096
17.8877
20.204
22.5756
25.0266
27.5921
30.3272
33.3235
36.7456
40.9159
46.5231
55.1423
70.2985
11.2221
13.6731
16.1447
18.6527
21.2162
23.8597
26.6169
29.5359
32.6895
36.1928
40.2381
45.1601
51.5609
60.5164
73.7791
1.16969
2.09034
2.48842
2.63384
2.633
2.53804
2.37856
2.1731
1.93405
1.67015
1.38781
1.09193
0.786363
0.474304
0.158508
0.626256
1.43116
1.88103
2.10147
2.17233
2.14162
2.03935
1.88519
1.69268
1.47153
1.22898
0.970603
0.700853
0.42345
0.141631
0.393655
1.01854
1.43295
1.67299
1.78217
1.79491
1.73617
1.62391
1.4712
1.28779
1.08115
0.85717
0.620657
0.375662
0.125756
0.273849
0.75208
1.10596
1.33538
1.45899
1.49782
1.47016
1.39072
1.27103
1.12016
0.945345
0.752442
0.546351
0.331283
0.110998
0.202283
0.571975
0.865398
1.07126
1.19467
1.24689
1.24012
1.18548
1.09252
0.969176
0.8221
0.656872
0.478279
0.290526
0.0974279
0.154936
0.444832
0.685644
0.864379
0.979801
1.03694
1.04331
1.00686
0.935091
0.83467
0.711459
0.570583
0.416567
0.253482
0.0850779
0.12146
0.351774
0.548999
0.701469
0.805402
0.862237
0.876223
0.852779
0.797558
0.715988
0.613085
0.493418
0.361154
0.220129
0.0739445
0.0967366
0.281695
0.443431
0.572264
0.663708
0.717292
0.735133
0.720759
0.678322
0.61212
0.526351
0.425001
0.311823
0.19036
0.0639945
0.0779263
0.227743
0.360713
0.469024
0.548304
0.597168
0.616412
0.608226
0.575588
0.521841
0.450437
0.364797
0.268245
0.163997
0.0551716
0.0633071
0.18549
0.29512
0.385942
0.454021
0.497614
0.516738
0.512673
0.487512
0.443822
0.384408
0.31217
0.230012
0.14081
0.0474029
0.051765
0.151955
0.242586
0.318653
0.376743
0.41505
0.433168
0.43177
0.412303
0.376721
0.327286
0.266431
0.196669
0.120545
0.0406054
0.0425422
0.125057
0.200167
0.263849
0.313201
0.346507
0.36315
0.363415
0.348285
0.319239
0.278093
0.226876
0.167746
0.102929
0.0346904
0.0351036
0.103303
0.165682
0.218997
0.2608
0.289536
0.304504
0.30575
0.29393
0.27016
0.235894
0.192817
0.14277
0.0876893
0.0295685
0.0290596
0.0855889
0.137492
0.182137
0.217475
0.242126
0.255386
0.257159
0.247873
0.22837
0.199813
0.163599
0.12129
0.0745604
0.0251524
0.0241198
0.0710874
0.114343
0.151741
0.181569
0.202627
0.214244
0.216249
0.20891
0.192866
0.169048
0.138613
0.102881
0.0632913
0.0213589
0.0200631
0.0591633
0.095262
0.126602
0.151754
0.169684
0.179777
0.181826
0.175993
0.162762
0.14288
0.117304
0.0871497
0.0536491
0.018111
0.016719
0.0493236
0.0794852
0.10576
0.126954
0.142183
0.150897
0.152876
0.148213
0.137275
0.120665
0.0991741
0.0737426
0.0454217
0.015338
0.0139538
0.0411803
0.0664078
0.0884451
0.106296
0.119207
0.126693
0.128538
0.12479
0.115728
0.10184
0.0837806
0.0623419
0.0384185
0.0129765
0.0116614
0.0344252
0.0555456
0.0740375
0.0890685
0.0999988
0.106405
0.108085
0.105056
0.0975335
0.0859113
0.0707336
0.0526665
0.0324699
0.0109696
0.00975734
0.0288111
0.0465089
0.0620333
0.0746884
0.0839323
0.0893982
0.0909025
0.0884424
0.0821854
0.0724517
0.0596931
0.0444699
0.0274267
0.00926753
0.00817332
0.0241387
0.0389813
0.0520216
0.0626771
0.0704894
0.0751428
0.0764727
0.0744655
0.0692516
0.0610925
0.050364
0.0375373
0.0231583
0.00782648
0.00685409
0.0202458
0.0327053
0.0436661
0.05264
0.05924
0.0631953
0.0643602
0.0627154
0.0583631
0.0515175
0.0424919
0.0316825
0.0195515
0.00660847
0.00575459
0.0170004
0.0274699
0.0366902
0.0442516
0.0498271
0.0531854
0.0541989
0.0528454
0.0492058
0.0434564
0.0358584
0.0267455
0.0165087
0.00558063
0.00483795
0.0142941
0.0231021
0.0308661
0.0372422
0.0419539
0.0448039
0.0456811
0.044563
0.0415137
0.0366789
0.030277
0.022589
0.0139458
0.00471475
0.00407393
0.0120379
0.0194592
0.0260059
0.0313886
0.0353734
0.0377923
0.038549
0.0376216
0.0350616
0.0309895
0.0255886
0.0190958
0.0117912
0.00398666
0.0034376
0.0101584
0.0164237
0.0219541
0.0265056
0.0298803
0.0319349
0.0325863
0.031814
0.0296594
0.0262229
0.0216585
0.0161662
0.0099837
0.00337579
0.00290847
0.00859538
0.0138984
0.018582
0.0224398
0.0253038
0.0270519
0.0276124
0.0269663
0.0251473
0.0222395
0.0183726
0.0137161
0.0084716
0.00286468
0.00246962
0.00729887
0.0118033
0.0157835
0.0190641
0.0215023
0.0229936
0.0234762
0.0229329
0.0213914
0.0189222
0.0156351
0.0116742
0.00721119
0.0024386
0.00210714
0.00622789
0.0100724
0.0134706
0.0162733
0.0183582
0.0196358
0.0200524
0.0195928
0.0182797
0.0161728
0.0133655
0.00998085
0.00616577
0.00208517
0.00180962
0.00534876
0.00865124
0.0115714
0.0139809
0.0157749
0.0168757
0.0172372
0.0168453
0.0157192
0.0139097
0.0114969
0.00858639
0.00530474