/*--------------------------------*- C++ -*----------------------------------*\
| =========                 |                                                 |
| \\      /  F ield         | OpenFOAM: The Open Source CFD Toolbox           |
|  \\    /   O peration     | Version:  5.x                                   |
|   \\  /    A nd           | Web:      www.OpenFOAM.org                      |
|    \\/     M anipulation  |                                                 |
\*---------------------------------------------------------------------------*/
FoamFile
{
    version     2.0;
    format      ascii;
    class       volScalarField;
    location    "1.7";
    object      gradTx;
}
// * * * * * * * * * * * * * * * * * * * * * * * * * * * * * * * * * * * * * //

dimensions      [0 -1 0 1 0 0 0];

internalField   nonuniform List<scalar> 
6300
(
423.439
424.862
427.658
431.722
436.888
442.926
449.531
456.317
462.817
468.485
472.715
474.869
474.318
470.493
462.945
421.983
423.457
426.358
430.586
435.983
442.325
449.315
456.568
463.611
469.884
474.752
477.535
477.55
474.175
466.91
419.02
420.594
423.699
428.247
434.098
441.043
448.8
456.992
465.139
472.651
478.836
482.928
484.132
481.705
475.039
414.453
416.167
419.564
424.575
431.084
438.916
447.816
457.426
467.265
476.706
484.975
491.167
494.304
493.431
487.748
408.139
410.027
413.784
419.371
426.714
435.687
446.086
457.596
469.752
481.897
493.152
502.422
508.444
509.924
505.735
399.908
401.985
406.142
412.379
420.682
430.998
443.211
457.086
472.215
487.939
503.277
516.883
527.085
532.042
530.076
389.569
391.833
396.39
403.292
412.603
424.382
438.639
455.287
474.046
494.329
515.094
534.711
550.927
561.042
562.408
376.937
379.36
384.264
391.764
402.028
415.254
431.645
451.343
474.319
500.202
528.019
555.898
580.829
598.746
605.261
361.855
364.376
369.511
377.445
388.46
402.931
421.313
444.086
471.652
504.105
540.845
579.992
617.702
647.805
662.664
344.223
346.752
351.933
360.017
371.407
386.669
406.557
432.006
464.064
503.684
551.225
605.483
662.138
712.059
741.391
324.038
326.451
331.423
339.258
350.454
365.753
386.213
413.286
448.883
495.306
554.848
628.536
713.264
796.852
853.661
301.415
303.568
308.027
315.113
325.373
339.65
359.227
386.015
422.843
473.777
544.29
640.506
765.485
908.375
1023.73
276.615
278.358
281.979
287.773
296.249
308.225
325.004
348.678
382.667
432.638
507.994
623.674
799.749
1047.38
1306.24
250.053
251.248
253.736
257.73
263.604
271.974
283.862
301.004
326.482
366.084
431.342
546.412
762.413
1175.11
1846.03
222.276
222.827
223.968
225.789
228.442
232.185
237.446
244.971
256.151
273.852
304.852
368.19
528.346
1044.54
3109.12
452.665
440.183
424.899
406.952
386.564
364.014
339.621
313.726
286.671
258.788
230.389
201.763
173.169
144.839
116.98
89.7712
63.3713
37.9179
13.5303
-9.68822
-31.6494
-52.2785
-71.5134
-89.3047
-105.616
-120.426
-133.726
-145.528
-155.859
-164.765
-172.311
-178.578
-183.66
-187.665
-190.706
-192.898
-194.357
-195.196
-195.518
-195.42
-194.99
-194.305
-193.434
-192.439
-191.373
-190.286
-189.219
-188.211
-187.293
-186.494
-185.834
-185.33
-184.992
-184.825
-184.83
-185.001
-185.33
-185.807
-186.42
-187.155
-187.997
-188.933
-189.947
-191.023
-192.141
-193.279
-194.41
-195.504
-196.525
-197.432
-198.182
-198.729
-199.023
-199.019
-198.671
-197.94
-196.789
-195.19
-193.121
-190.569
-187.529
-184.003
-180.008
-175.565
-170.712
-165.494
-159.969
-154.205
-148.276
-142.264
456.725
444.174
428.687
410.425
389.634
366.623
341.742
315.354
287.822
259.489
230.678
201.68
172.753
144.131
116.014
88.5807
61.9859
36.3642
11.8321
-11.5096
-33.5744
-54.2885
-73.5902
-91.4294
-107.768
-122.583
-135.866
-147.623
-157.884
-166.694
-174.12
-180.247
-185.175
-189.014
-191.886
-193.91
-195.208
-195.895
-196.078
-195.855
-195.313
-194.528
-193.57
-192.498
-191.364
-190.216
-189.097
-188.044
-187.088
-186.259
-185.577
-185.06
-184.716
-184.552
-184.564
-184.749
-185.095
-185.591
-186.225
-186.981
-187.846
-188.805
-189.845
-190.949
-192.1
-193.277
-194.453
-195.6
-196.68
-197.651
-198.469
-199.085
-199.447
-199.508
-199.22
-198.54
-197.431
-195.864
-193.815
-191.27
-188.224
-184.679
-180.649
-176.156
-171.236
-165.935
-160.313
-154.44
-148.396
-142.266
465.053
452.349
436.428
417.495
395.855
371.884
345.989
318.589
290.082
260.841
231.2
201.455
171.867
142.661
114.034
86.157
59.1771
33.2227
8.40478
-15.1807
-37.4511
-58.335
-77.771
-95.708
-112.105
-126.934
-140.182
-151.852
-161.971
-170.586
-177.768
-183.609
-188.218
-191.719
-194.244
-195.926
-196.895
-197.276
-197.179
-196.705
-195.94
-194.959
-193.828
-192.603
-191.334
-190.067
-188.842
-187.698
-186.667
-185.778
-185.053
-184.509
-184.155
-183.996
-184.027
-184.239
-184.621
-185.158
-185.833
-186.633
-187.541
-188.546
-189.635
-190.794
-192.01
-193.263
-194.531
-195.783
-196.982
-198.084
-199.041
-199.798
-200.301
-200.495
-200.328
-199.753
-198.73
-197.227
-195.219
-192.691
-189.636
-186.053
-181.954
-177.361
-172.306
-166.838
-161.018
-154.922
-148.639
-142.265
478.082
465.113
448.463
428.418
405.39
379.868
352.363
323.373
293.359
262.727
231.83
200.968
170.394
140.326
110.946
82.4148
54.8686
28.4256
3.18792
-20.7564
-43.3309
-64.4681
-84.108
-102.197
-118.689
-133.547
-146.748
-158.291
-168.196
-176.511
-183.314
-188.707
-192.817
-195.789
-197.773
-198.924
-199.387
-199.299
-198.779
-197.928
-196.832
-195.563
-194.178
-192.729
-191.261
-189.816
-188.434
-187.153
-186.007
-185.026
-184.236
-183.653
-183.287
-183.139
-183.202
-183.462
-183.903
-184.503
-185.245
-186.109
-187.081
-188.151
-189.308
-190.546
-191.854
-193.219
-194.621
-196.032
-197.414
-198.719
-199.893
-200.873
-201.595
-201.997
-202.018
-201.606
-200.717
-199.314
-197.371
-194.871
-191.803
-188.168
-183.97
-179.228
-173.971
-168.246
-162.119
-155.673
-149.012
-142.252
496.538
483.136
465.342
443.59
418.474
390.664
360.831
329.591
297.483
264.955
232.372
200.027
168.159
136.964
106.606
77.2272
48.9479
21.8734
-3.90676
-28.3157
-51.2867
-72.7592
-92.6756
-110.979
-127.613
-142.527
-155.684
-167.065
-176.682
-184.584
-190.854
-195.615
-199.019
-201.239
-202.461
-202.867
-202.63
-201.901
-200.81
-199.46
-197.932
-196.288
-194.577
-192.839
-191.113
-189.435
-187.843
-186.377
-185.074
-183.968
-183.089
-182.455
-182.076
-181.951
-182.067
-182.403
-182.932
-183.626
-184.46
-185.412
-186.466
-187.614
-188.853
-190.183
-191.604
-193.111
-194.689
-196.315
-197.949
-199.538
-201.017
-202.312
-203.346
-204.042
-204.329
-204.145
-203.44
-202.175
-200.323
-197.864
-194.788
-191.09
-186.769
-181.835
-176.309
-170.234
-163.676
-156.733
-149.529
-142.211
521.548
507.436
487.876
463.561
435.391
404.33
371.278
337.016
302.169
267.22
232.529
198.361
164.919
132.362
100.826
70.4269
41.2676
13.4363
-12.9925
-37.9576
-61.4072
-83.293
-103.563
-122.156
-139
-154.022
-167.153
-178.351
-187.61
-194.971
-200.531
-204.437
-206.882
-208.084
-208.279
-207.692
-206.533
-204.978
-203.167
-201.202
-199.153
-197.066
-194.971
-192.892
-190.855
-188.89
-187.034
-185.329
-183.821
-182.552
-181.556
-180.86
-180.474
-180.391
-180.592
-181.042
-181.702
-182.529
-183.488
-184.55
-185.699
-186.931
-188.253
-189.678
-191.22
-192.888
-194.68
-196.577
-198.54
-200.507
-202.399
-204.122
-205.579
-206.671
-207.313
-207.43
-206.965
-205.879
-204.145
-201.745
-198.669
-194.906
-190.449
-185.292
-179.438
-172.916
-165.789
-158.167
-150.211
-142.116
554.829
539.534
517.212
489.033
456.427
420.813
383.424
345.235
306.957
269.072
231.891
195.61
160.364
126.254
93.3734
61.81
31.6467
2.956
-24.205
-49.7958
-73.7885
-96.157
-116.863
-135.843
-153
-168.218
-181.382
-192.401
-201.236
-207.916
-212.549
-215.322
-216.487
-216.335
-215.173
-213.294
-210.958
-208.375
-205.697
-203.017
-200.384
-197.81
-195.297
-192.841
-190.45
-188.147
-185.967
-183.963
-182.19
-180.707
-179.562
-178.791
-178.406
-178.398
-178.733
-179.358
-180.209
-181.224
-182.349
-183.546
-184.797
-186.105
-187.493
-188.993
-190.644
-192.477
-194.511
-196.737
-199.118
-201.579
-204.018
-206.312
-208.33
-209.946
-211.049
-211.549
-211.384
-210.515
-208.923
-206.598
-203.535
-199.722
-195.137
-189.75
-183.53
-176.469
-168.612
-160.083
-151.093
-141.923
599.048
581.704
554.934
520.831
481.745
439.8
396.67
353.534
311.131
269.864
229.909
191.326
154.129
118.335
83.9853
51.1412
19.8734
-9.75489
-37.7016
-63.9531
-88.52
-111.42
-132.649
-152.146
-169.776
-185.353
-198.673
-209.565
-217.929
-223.767
-227.2
-228.475
-227.936
-225.987
-223.045
-219.499
-215.684
-211.856
-208.176
-204.716
-201.477
-198.419
-195.491
-192.651
-189.877
-187.182
-184.608
-182.223
-180.106
-178.341
-177
-176.134
-175.768
-175.887
-176.434
-177.325
-178.46
-179.742
-181.09
-182.448
-183.797
-185.152
-186.557
-188.08
-189.794
-191.769
-194.055
-196.668
-199.573
-202.677
-205.841
-208.894
-211.657
-213.957
-215.649
-216.624
-216.814
-216.191
-214.754
-212.514
-209.48
-205.647
-200.981
-195.408
-188.832
-181.167
-172.403
-162.661
-152.236
-141.558
658.491
637.397
603.162
559.755
511.128
460.442
409.873
360.723
313.618
268.712
225.903
184.997
145.824
108.291
72.3857
38.1623
5.70267
-24.9189
-53.6658
-80.5564
-105.665
-129.098
-150.931
-171.129
-189.495
-205.714
-219.43
-230.335
-238.22
-243.032
-244.909
-244.186
-241.361
-237.014
-231.727
-226.033
-220.372
-215.064
-210.281
-206.04
-202.254
-198.789
-195.51
-192.315
-189.145
-186
-182.937
-180.056
-177.48
-175.331
-173.719
-172.729
-172.406
-172.732
-173.616
-174.919
-176.48
-178.147
-179.797
-181.349
-182.776
-184.112
-185.441
-186.881
-188.559
-190.604
-193.121
-196.171
-199.734
-203.685
-207.819
-211.891
-215.644
-218.841
-221.281
-222.826
-223.412
-223.037
-221.74
-219.571
-216.575
-212.773
-208.128
-202.513
-195.701
-187.448
-177.6
-166.224
-153.742
-140.882
740.441
711.961
664.545
606.14
543.426
480.866
420.982
364.915
312.881
264.489
219.101
176.118
135.108
95.8523
58.3165
22.5996
-11.1544
-42.8166
-72.3311
-99.7463
-125.239
-149.086
-171.563
-192.74
-212.29
-229.651
-244.204
-255.412
-262.888
-266.473
-266.305
-262.865
-256.919
-249.331
-240.936
-232.458
-224.492
-217.459
-211.546
-206.652
-202.514
-198.835
-195.358
-191.893
-188.331
-184.657
-180.962
-177.413
-174.202
-171.514
-169.512
-168.336
-168.083
-168.747
-170.174
-172.121
-174.328
-176.561
-178.631
-180.415
-181.873
-183.069
-184.156
-185.327
-186.789
-188.75
-191.412
-194.931
-199.33
-204.422
-209.884
-215.343
-220.431
-224.81
-228.198
-230.409
-231.391
-231.21
-229.981
-227.819
-224.832
-221.11
-216.672
-211.34
-204.645
-196.025
-184.999
-171.382
-155.79
-139.608
858.234
813.739
741.7
658.674
575.448
497.384
426.546
363.244
306.848
255.883
208.781
164.342
121.809
80.8817
41.5754
4.1617
-31.0675
-63.8448
-94.0505
-121.728
-147.196
-171.051
-194.067
-216.679
-238.215
-257.6
-273.758
-285.815
-293.105
-295.261
-292.349
-285.087
-274.775
-262.746
-250.197
-238.082
-227.205
-218.18
-211.285
-206.119
-202.057
-198.538
-195.138
-191.562
-187.629
-183.302
-178.735
-174.244
-170.139
-166.678
-164.085
-162.588
-162.413
-163.643
-165.963
-168.929
-172.121
-175.192
-177.863
-179.937
-181.334
-182.172
-182.739
-183.347
-184.293
-185.881
-188.464
-192.417
-197.925
-204.624
-211.949
-219.325
-226.238
-232.205
-236.81
-239.76
-241.043
-240.893
-239.564
-237.254
-234.149
-230.48
-226.503
-222.13
-216.361
-208.067
-196.13
-179.382
-158.689
-137.087
1038.79
955.124
834.62
711.437
599.976
503.434
421.199
351.568
292.932
241.653
194.564
149.756
106.135
63.5129
22.0472
-17.4807
-54.5654
-88.624
-119.451
-146.924
-171.497
-194.236
-217.154
-242.159
-267.216
-290.167
-309.173
-323.032
-330.654
-331.281
-324.583
-311.628
-295.026
-276.833
-258.756
-241.85
-227.177
-215.763
-208.468
-203.929
-200.756
-198.008
-195.115
-191.689
-187.444
-182.244
-176.354
-170.48
-165.108
-160.56
-157.048
-154.907
-154.697
-156.947
-160.799
-165.396
-170.069
-174.386
-177.94
-180.421
-181.59
-181.656
-181.254
-180.872
-180.866
-181.573
-183.536
-187.659
-194.803
-203.92
-213.938
-223.971
-233.406
-241.56
-247.806
-251.509
-252.76
-252.274
-250.558
-247.837
-244.276
-240.294
-236.903
-234.931
-231.715
-225.357
-214.187
-193.066
-162.895
-131.689
1343.18
1149.49
931.334
747.264
602.962
488.826
397.646
324.002
268.362
221.324
176.996
133.392
88.9519
44.4057
-0.343028
-42.7097
-82.4833
-118.111
-149.729
-176.327
-198.465
-217.172
-237.236
-267.549
-299.223
-328.376
-351.948
-369.168
-378.205
-377.768
-365.742
-343.331
-317.482
-290.67
-265.545
-242.328
-222.383
-207.346
-201.617
-199.707
-198.778
-197.625
-195.801
-192.938
-188.583
-182.134
-173.905
-165.953
-158.859
-152.918
-148.011
-144.42
-143.418
-147.925
-154.544
-161.736
-168.517
-174.662
-179.552
-182.783
-183.423
-181.806
-179.731
-177.851
-176.406
-175.452
-175.492
-178.549
-188.836
-201.916
-215.903
-229.476
-242.42
-253.66
-262.462
-266.791
-266.977
-265.429
-263.001
-259.628
-255.013
-249.256
-245.262
-249.525
-251.596
-249.576
-246.577
-219.781
-168.592
-118.982
1928.2
1379.03
978.896
725.763
562.448
441.106
348.782
270.455
231.343
197.025
158.313
118.154
71.8393
25.505
-26.2488
-71.7553
-116.447
-153.435
-187.292
-212.194
-230.401
-238.171
-242.561
-290.967
-334.833
-374.578
-403.811
-427.017
-439.31
-440.85
-421.754
-379.883
-341.223
-301.98
-269.496
-238.007
-210.443
-185.455
-189.193
-194.003
-197.056
-198.141
-197.921
-196.275
-192.681
-184.54
-171.01
-160.152
-150.915
-143.757
-137.052
-130.182
-124.187
-135.841
-147.448
-158.652
-167.868
-176.734
-183.541
-188.865
-188.498
-182.609
-177.922
-174.196
-171.236
-167.897
-163.102
-159.023
-178.847
-198.605
-218.463
-235.886
-253.889
-269.27
-283.562
-288.041
-283.691
-279.851
-276.807
-273.207
-267.397
-255.68
-241.733
-267.277
-277.368
-275.206
-313.237
-281.624
-172.015
-86.4195
3240.98
1393.86
814.711
574.859
461.433
351.545
279.71
160.386
187.359
178.984
141.637
111.695
54.6594
14.3077
-61.2555
-102.076
-161.593
-193.35
-237.812
-257.75
-277.4
-264.055
-184.508
-320.908
-376.35
-435.869
-464.287
-500.493
-515.796
-533.527
-510.439
-411.689
-365.686
-303.447
-271.911
-227.946
-194.713
-122.128
-175.152
-190.755
-198.097
-200.463
-202.028
-202.354
-203.266
-194.651
-164.223
-151.977
-139.946
-133.917
-126.305
-114.666
-79.5245
-123.811
-140.917
-158.417
-167.71
-181.758
-189.657
-203.136
-201.515
-181.676
-174.724
-169.432
-166.611
-162.437
-149.676
-105.076
-168.952
-195.15
-224.529
-241.463
-269.135
-286.449
-318.794
-322.007
-299.672
-293.13
-291.416
-289.972
-288.289
-265.318
-181.34
-307.284
-320.785
-242.96
-480.187
-455.784
-140.86
0.0587119
-135.653
-128.561
-121.719
-115.235
-109.194
-103.66
-98.6729
-94.2562
-90.4182
-87.1574
-84.4658
-82.3322
-80.7447
-79.6928
-79.1689
-135.529
-128.31
-121.36
-114.791
-108.688
-103.112
-98.1025
-93.6772
-89.8408
-86.5881
-83.9078
-81.7859
-80.2089
-79.1647
-78.6449
-135.268
-127.79
-120.621
-113.88
-107.654
-101.999
-96.9474
-92.509
-88.6797
-85.4463
-82.791
-80.6948
-79.1401
-78.1122
-77.6009
-134.844
-126.961
-119.455
-112.454
-106.047
-100.283
-95.179
-90.7315
-86.9224
-83.7262
-81.115
-79.0621
-77.5442
-76.5429
-76.0455
-134.214
-125.756
-117.781
-110.434
-103.798
-97.9058
-92.7539
-88.3156
-84.5522
-81.4209
-78.8805
-76.8943
-75.4317
-74.4697
-73.9925
-133.304
-124.066
-115.48
-107.703
-100.805
-94.7883
-89.6152
-85.2247
-81.5496
-78.5246
-76.0918
-74.2026
-72.8186
-71.9114
-71.4624
-131.997
-121.726
-112.369
-104.092
-96.929
-90.8276
-85.6937
-81.4184
-77.8967
-75.0361
-72.7595
-71.0058
-69.7286
-68.8948
-68.483
-130.1
-118.471
-108.179
-99.3687
-91.9911
-85.8994
-80.9134
-76.8583
-73.5827
-70.9634
-68.9041
-67.3322
-66.1951
-65.456
-65.0919
-127.28
-113.877
-102.508
-93.2118
-85.7674
-79.8655
-75.202
-71.5187
-68.6125
-66.3306
-64.5611
-63.224
-62.2635
-61.642
-61.3367
-122.928
-107.25
-94.7657
-85.2027
-78.0012
-72.5932
-68.5104
-65.4019
-63.0179
-61.1852
-59.7856
-58.7392
-57.9927
-57.5118
-57.2762
-115.876
-97.4284
-84.102
-74.8321
-68.4415
-63.9958
-60.8444
-58.5605
-56.8719
-55.6068
-54.657
-53.9543
-53.4562
-53.1364
-52.9799
-103.748
-82.4863
-69.3819
-61.5824
-56.9368
-54.1042
-52.311
-51.1239
-50.3025
-49.713
-49.2811
-48.9649
-48.7413
-48.5975
-48.5271
-81.5274
-59.3872
-49.357
-45.1791
-43.6191
-43.1733
-43.1714
-43.3216
-43.501
-43.6618
-43.7893
-43.8828
-43.9465
-43.9854
-44.0037
-38.4615
-24.1786
-23.48
-26.1581
-29.1872
-31.7985
-33.8798
-35.4901
-36.718
-37.6438
-38.3317
-38.8306
-39.1763
-39.3938
-39.4987
48.1049
24.6142
5.77343
-6.78603
-15.1732
-20.9536
-25.0592
-28.0411
-30.2372
-31.8636
-33.063
-33.9316
-34.5344
-34.9147
-35.0986
196.294
196.217
196.043
195.73
195.197
194.305
192.807
190.242
185.687
177.099
159.244
116.051
-12.6081
-494.533
-2687.77
172.717
172.082
170.743
168.545
165.212
160.279
152.957
141.859
124.42
95.567
44.4619
-53.8204
-259.061
-705.26
-1550.7
149.57
148.427
146.031
142.139
136.329
127.903
115.72
97.8709
71.0734
29.4837
-37.5606
-149.416
-338.173
-638.708
-1000.69
127.208
125.634
122.349
117.058
109.254
98.1287
82.4091
60.0907
27.9936
-18.9257
-88.4637
-191.604
-339.651
-529.461
-702.018
105.931
104.021
100.052
93.7135
84.4791
71.5383
53.6752
29.0962
-4.79683
-51.6299
-116.03
-202.601
-312.117
-432.18
-523.152
85.9746
83.8293
79.396
72.3739
62.2723
48.3607
29.6002
4.56641
-28.6023
-72.1347
-128.201
-197.657
-277.246
-355.088
-407.444
67.5015
65.221
60.5316
53.1674
42.7063
28.5456
9.87728
-14.317
-45.2111
-83.9337
-131.073
-185.671
-243.581
-295.684
-328.08
50.6066
48.2801
43.5199
36.1071
25.7055
11.8569
-6.01172
-28.5505
-56.3837
-89.8859
-128.762
-171.381
-213.94
-249.957
-271.204
35.3225
33.0248
28.3458
21.1185
11.0951
-2.04306
-18.6602
-39.1093
-63.6202
-92.1042
-123.85
-157.129
-188.835
-214.481
-229.075
21.6297
19.4191
14.9377
8.06833
-1.35494
-13.5293
-28.6497
-46.8489
-68.098
-92.0561
-117.871
-143.967
-167.932
-186.675
-197.073
9.46843
7.38681
3.18464
-3.21118
-11.8969
-22.9714
-36.5023
-52.4713
-70.6948
-90.7179
-111.693
-132.282
-150.652
-164.658
-172.288
-1.25048
-3.17596
-7.0479
-12.903
-20.7819
-30.7093
-42.6628
-56.5286
-72.042
-88.7175
-105.781
-122.136
-136.4
-147.065
-152.798
-10.635
-12.3896
-15.9057
-21.1916
-28.2462
-37.0414
-47.4961
-59.442
-72.5819
-86.4465
-100.361
-113.44
-124.643
-132.895
-137.285
-18.8033
-20.3824
-23.5366
-28.2537
-34.5032
-42.2221
-51.2945
-61.5264
-72.6184
-84.1402
-95.518
-106.046
-114.933
-121.403
-124.819
-25.8771
-27.2832
-30.084
-34.2531
-39.741
-46.4638
-54.2882
-63.0138
-72.356
-81.9332
-91.2648
-99.7881
-106.901
-112.031
-114.722
-31.976
-33.217
-35.6828
-39.3381
-44.1224
-49.9414
-56.6565
-64.073
-71.9301
-79.8961
-87.5719
-94.5088
-100.244
-104.349
-106.493
-37.2147
-38.3017
-40.4568
-43.6401
-47.7861
-52.7975
-58.5382
-64.8262
-71.4284
-78.0601
-84.3912
-90.0632
-94.7168
-98.0282
-99.7509
-41.6996
-42.6457
-44.5179
-47.2747
-50.8496
-55.1476
-60.0401
-65.3613
-70.9061
-76.4322
-81.6674
-86.324
-90.1207
-92.8093
-94.2037
-45.5285
-46.3476
-47.9657
-50.3418
-53.4116
-57.0853
-61.2446
-65.7411
-70.3966
-75.006
-79.3448
-83.1812
-86.2932
-88.4882
-89.6238
-48.7896
-49.4954
-50.8878
-52.9277
-55.5548
-58.6861
-62.215
-66.0106
-69.919
-73.7674
-77.3705
-80.5408
-83.1016
-84.902
-85.8315
-51.5612
-52.1671
-53.361
-55.1065
-57.3483
-60.0113
-63.0005
-66.2017
-69.483
-72.6989
-75.6964
-78.323
-80.4373
-81.9199
-82.684
-53.9126
-54.4311
-55.4517
-56.9412
-58.8496
-61.1101
-63.639
-66.3372
-69.0922
-71.7819
-74.2794
-76.4605
-78.2112
-79.436
-80.0665
-55.9044
-56.3469
-57.2171
-58.4853
-60.1068
-62.0227
-64.1599
-66.4332
-68.7467
-70.998
-73.0819
-74.8966
-76.3497
-77.3645
-77.8863
-57.5894
-57.9662
-58.7066
-59.7843
-61.1599
-62.7817
-64.5866
-66.5012
-68.4445
-70.3301
-72.0711
-73.5835
-74.7921
-75.635
-76.0679
-59.013
-59.3333
-59.9623
-60.8766
-62.0421
-63.4138
-64.9371
-66.5495
-68.1821
-69.7626
-71.2187
-72.4811
-73.4883
-74.1897
-74.5497
-60.2145
-60.4864
-61.0199
-61.7949
-62.7814
-63.9407
-65.2259
-66.5836
-67.9557
-69.2815
-70.5006
-71.5558
-72.3964
-72.9813
-73.2813
-61.2275
-61.458
-61.9102
-62.5664
-63.4009
-64.3802
-65.4644
-66.6078
-67.7615
-68.8744
-69.8961
-70.7792
-71.482
-71.9705
-72.2209
-62.0807
-62.276
-62.6589
-63.2143
-63.9199
-64.7471
-65.6617
-66.625
-67.5955
-68.5305
-69.3877
-70.1278
-70.7161
-71.1248
-71.3342
-62.7983
-62.9638
-63.288
-63.7579
-64.3546
-65.0534
-65.8252
-66.6371
-67.4542
-68.2404
-68.9605
-69.5816
-70.0749
-70.4174
-70.5928
-63.4013
-63.5414
-63.816
-64.2138
-64.7184
-65.3091
-65.9608
-66.6458
-67.3344
-67.9963
-68.602
-69.1239
-69.5383
-69.8257
-69.9729
-63.9071
-64.0259
-64.2585
-64.5955
-65.0227
-65.5224
-66.0733
-66.6518
-67.233
-67.7912
-68.3015
-68.741
-69.0896
-69.3314
-69.4552
-64.3305
-64.4313
-64.6287
-64.9145
-65.2767
-65.7001
-66.1666
-66.6562
-67.1476
-67.6192
-68.0501
-68.421
-68.7151
-68.919
-69.0233
-64.6841
-64.7698
-64.9376
-65.1806
-65.4884
-65.8479
-66.2439
-66.6592
-67.0758
-67.4755
-67.8404
-68.1543
-68.4031
-68.5756
-68.6638
-64.9782
-65.0513
-65.1945
-65.4017
-65.6641
-65.9705
-66.3078
-66.6614
-67.0159
-67.3558
-67.666
-67.9328
-68.1441
-68.2906
-68.3655
-65.2215
-65.2842
-65.4069
-65.5845
-65.8093
-66.0717
-66.3604
-66.6629
-66.9661
-67.2567
-67.5218
-67.7496
-67.9301
-68.0552
-68.1191
-65.4214
-65.4755
-65.5814
-65.7345
-65.9283
-66.1546
-66.4034
-66.664
-66.9251
-67.1752
-67.4033
-67.5994
-67.7546
-67.8621
-67.9171
-65.5838
-65.6309
-65.723
-65.8563
-66.025
-66.2218
-66.4382
-66.6648
-66.8917
-67.109
-67.3072
-67.4774
-67.6122
-67.7055
-67.7533
-65.7135
-65.755
-65.8362
-65.9536
-66.1021
-66.2754
-66.4659
-66.6653
-66.865
-67.0561
-67.2304
-67.38
-67.4985
-67.5806
-67.6225
-65.8144
-65.8515
-65.9242
-66.0292
-66.1621
-66.3171
-66.4874
-66.6657
-66.8441
-67.0149
-67.1706
-67.3043
-67.4101
-67.4834
-67.5208
-65.8896
-65.9235
-65.9898
-66.0856
-66.2068
-66.3481
-66.5034
-66.6659
-66.8286
-66.9843
-67.1261
-67.2479
-67.3443
-67.411
-67.4451
-65.9413
-65.9729
-66.0348
-66.1243
-66.2375
-66.3694
-66.5144
-66.6661
-66.8179
-66.9632
-67.0955
-67.2091
-67.2991
-67.3613
-67.3931
-65.9711
-66.0014
-66.0608
-66.1466
-66.2551
-66.3817
-66.5207
-66.6662
-66.8118
-66.951
-67.0779
-67.1868
-67.273
-67.3327
-67.3632
-65.9798
-66.0097
-66.0684
-66.1531
-66.2603
-66.3853
-66.5226
-66.6663
-66.81
-66.9475
-67.0727
-67.1803
-67.2654
-67.3243
-67.3544
-65.9677
-65.9982
-66.0579
-66.1441
-66.2532
-66.3804
-66.5201
-66.6663
-66.8125
-66.9524
-67.0799
-67.1893
-67.2759
-67.3358
-67.3664
-65.9345
-65.9664
-66.0289
-66.1192
-66.2335
-66.3667
-66.5131
-66.6662
-66.8194
-66.966
-67.0995
-67.2142
-67.3049
-67.3677
-67.3998
-65.8791
-65.9134
-65.9806
-66.0778
-66.2007
-66.3439
-66.5014
-66.6661
-66.8309
-66.9886
-67.1323
-67.2557
-67.3533
-67.4208
-67.4554
-65.7999
-65.8376
-65.9116
-66.0185
-66.1537
-66.3114
-66.4846
-66.6659
-66.8473
-67.021
-67.1792
-67.315
-67.4225
-67.4969
-67.535
-65.6944
-65.7368
-65.8197
-65.9395
-66.0911
-66.2679
-66.4623
-66.6656
-66.8692
-67.064
-67.2416
-67.394
-67.5147
-67.5982
-67.6409
-65.5596
-65.6078
-65.7021
-65.8385
-66.0111
-66.2124
-66.4336
-66.6652
-66.8971
-67.119
-67.3213
-67.4951
-67.6326
-67.7278
-67.7765
-65.3913
-65.4468
-65.5554
-65.7125
-65.9112
-66.143
-66.3978
-66.6647
-66.9319
-67.1877
-67.4209
-67.6213
-67.7799
-67.8897
-67.9459
-65.1846
-65.249
-65.3751
-65.5575
-65.7882
-66.0575
-66.3537
-66.6639
-66.9745
-67.272
-67.5434
-67.7765
-67.961
-68.0889
-68.1542
-64.9331
-65.0084
-65.1557
-65.3688
-65.6386
-65.9535
-66.2999
-66.6627
-67.0263
-67.3746
-67.6923
-67.9653
-68.1815
-68.3313
-68.4079
-64.6294
-64.7178
-64.8907
-65.1409
-65.4577
-65.8276
-66.2346
-66.6611
-67.0886
-67.4983
-67.8722
-68.1936
-68.4482
-68.6245
-68.7147
-64.2645
-64.3685
-64.5721
-64.8668
-65.24
-65.6759
-66.1557
-66.6588
-67.1633
-67.647
-68.0885
-68.4682
-68.769
-68.9775
-69.0842
-63.8274
-63.9501
-64.1904
-64.5382
-64.9788
-65.4937
-66.0608
-66.6556
-67.2524
-67.8248
-68.3477
-68.7975
-69.154
-69.4011
-69.5276
-63.3051
-63.4501
-63.734
-64.1451
-64.6662
-65.2753
-65.9465
-66.6511
-67.3583
-68.0372
-68.6575
-69.1915
-69.6149
-69.9085
-70.0587
-62.6823
-62.8537
-63.1894
-63.6758
-64.2925
-65.0138
-65.8092
-66.6447
-67.4839
-68.2901
-69.0273
-69.6622
-70.1659
-70.5153
-70.6941
-61.9405
-62.1432
-62.5404
-63.1159
-63.8462
-64.7009
-65.6441
-66.6356
-67.6325
-68.5909
-69.4679
-70.2239
-70.824
-71.2404
-71.4536
-61.0581
-61.2978
-61.7677
-62.4488
-63.3136
-64.3265
-65.4454
-66.6228
-67.8078
-68.9481
-69.9927
-70.8937
-71.6095
-72.1065
-72.361
-60.0094
-60.2928
-60.8483
-61.6542
-62.6781
-63.8787
-65.2062
-66.6048
-68.014
-69.3718
-70.6169
-71.6921
-72.5469
-73.1407
-73.445
-58.7642
-59.0988
-59.7553
-60.7083
-61.9202
-63.3427
-64.9178
-66.5793
-68.256
-69.8737
-71.3591
-72.6433
-73.6654
-74.3759
-74.7401
-57.2867
-57.6816
-58.4567
-59.5826
-61.0162
-62.701
-64.5693
-66.5434
-68.5388
-70.4673
-72.2409
-73.7764
-74.9999
-75.8513
-76.288
-55.5353
-56.0007
-56.9147
-58.2436
-59.9377
-61.932
-64.1473
-66.4926
-68.868
-71.1683
-73.2879
-75.126
-76.5927
-77.6144
-78.1388
-53.461
-54.0086
-55.0847
-56.6512
-58.6511
-61.0097
-63.6351
-66.421
-69.2493
-71.9947
-74.5301
-76.7333
-78.4943
-79.7225
-80.3534
-51.0067
-51.6498
-52.9146
-54.758
-57.1157
-59.9021
-63.0116
-66.3199
-69.6882
-72.9668
-76.0028
-78.6474
-80.7655
-82.2451
-83.0058
-48.1063
-48.8598
-50.343
-52.508
-55.2828
-58.5705
-62.2499
-66.1773
-70.1891
-74.1073
-77.747
-80.9268
-83.4797
-85.2663
-86.1861
-44.6832
-45.5635
-47.2983
-49.8351
-53.0941
-56.967
-61.3163
-65.9761
-70.7549
-75.4408
-79.8104
-83.641
-86.7256
-88.8891
-90.0044
-40.6494
-41.6745
-43.6972
-46.6611
-50.4795
-55.033
-60.1671
-65.6923
-71.3852
-76.9938
-82.2478
-86.8729
-90.6105
-93.2392
-94.5966
-35.9044
-37.0935
-39.443
-42.8942
-47.355
-52.696
-58.7466
-65.2922
-72.0737
-78.7927
-85.1213
-90.7206
-95.2648
-98.4713
-100.131
-30.3346
-31.7074
-34.4246
-38.427
-43.6198
-49.8667
-56.9827
-64.7281
-72.8056
-80.8624
-88.5009
-95.3002
-100.847
-104.777
-106.816
-23.8125
-25.3888
-28.5147
-33.1338
-39.1532
-46.4343
-54.7818
-63.9335
-73.5517
-83.222
-92.4627
-100.749
-107.551
-112.395
-114.916
-16.1971
-17.9951
-21.5689
-26.8692
-33.8113
-42.2618
-52.023
-62.8151
-74.2614
-85.8795
-97.0868
-107.226
-115.615
-121.625
-124.765
-7.3344
-9.36974
-13.4254
-19.4657
-27.4228
-37.1799
-48.5485
-61.2424
-74.8515
-88.8218
-102.452
-114.917
-125.33
-132.846
-136.793
2.94001
0.657
-3.90521
-10.7323
-19.7854
-30.9798
-44.1543
-59.0344
-75.1904
-91.9997
-108.625
-124.031
-137.055
-146.545
-151.559
14.7978
12.2646
7.186
-0.454595
-10.6625
-23.4055
-38.5762
-55.9404
-75.0754
-95.3043
-115.644
-134.799
-151.231
-163.351
-169.804
28.4126
25.6375
20.0543
11.6041
0.219439
-14.1467
-31.4756
-51.6169
-74.2006
-98.531
-123.485
-147.455
-168.401
-184.088
-192.528
43.9517
40.958
34.911
25.6983
13.17
-2.8317
-22.4228
-45.5979
-72.1124
-101.324
-132.008
-162.209
-189.219
-209.854
-221.111
61.5666
58.3958
51.9634
42.0924
28.5303
10.9742
-10.8822
-37.2603
-68.1513
-103.092
-140.865
-179.175
-214.462
-242.129
-257.506
81.3799
78.095
71.4004
61.0467
46.6618
27.7641
3.79705
-25.7896
-61.3778
-102.893
-149.347
-198.238
-244.992
-282.934
-304.574
103.47
100.158
93.3747
82.7968
67.9242
48.072
22.3769
-10.1522
-50.4888
-99.2622
-156.133
-218.783
-281.637
-335.054
-366.663
127.856
124.627
117.98
107.525
92.6411
72.4343
45.7002
10.9055
-33.7416
-90.0077
-158.905
-239.181
-324.83
-402.311
-450.693
154.479
151.463
145.224
135.325
121.05
101.326
74.618
38.8027
-8.92672
-71.9817
-153.771
-255.845
-373.687
-489.765
-568.312
183.191
180.532
175.005
166.159
153.237
135.063
109.856
74.9706
26.5287
-40.9458
-134.55
-261.554
-423.76
-603.269
-740.464
213.742
211.586
207.084
199.817
189.067
173.677
151.811
120.548
75.1979
8.23442
-92.1344
-242.811
-461.806
-746.142
-1007.87
245.782
244.263
241.075
235.886
228.112
216.782
200.286
175.901
138.871
80.6098
-14.7826
-176.619
-454.467
-904.695
-1457.01
278.868
278.091
276.449
273.743
269.618
263.466
254.232
240.028
217.282
178.765
108.709
-29.86
-327.408
-992.332
-2289.65
312.485
312.511
312.552
312.576
312.524
312.279
311.619
310.078
306.636
298.815
279.773
227.299
54.7799
-640.781
-4023.15
346.073
346.912
348.657
351.452
355.551
361.372
369.605
381.435
399.019
426.647
474.044
567.813
800.184
1576.62
5041.33
379.068
380.673
384.021
389.412
397.372
408.776
425.079
448.782
484.414
540.737
636.095
812.053
1167.74
1927.11
3365.38
410.936
413.213
417.955
425.575
436.789
452.765
475.399
507.831
555.426
627.703
742.15
931.454
1254.91
1806.08
2688.53
160.847
65.0784
26.8311
7.14699
-4.71671
-12.5479
-18.0038
-21.933
-24.8187
-26.9566
-28.5366
-29.6843
-30.4834
-30.9888
-31.2337
101.515
61.9185
33.0834
14.3825
1.98882
-6.55576
-12.65
-17.1049
-20.4121
-22.8831
-24.7219
-26.0652
-27.0047
-27.6008
-27.8902
69.6818
51.2851
32.2981
17.2379
6.02135
-2.26529
-8.43471
-13.0738
-16.5862
-19.2486
-21.2514
-22.7265
-23.7644
-24.4258
-24.7476
50.6237
41.0616
28.7859
17.4239
8.01925
0.554885
-5.28218
-9.82497
-13.3507
-16.0722
-18.1474
-19.6912
-20.7856
-21.4865
-21.8285
38.2059
32.7225
24.6392
16.2508
8.66968
2.24498
-3.02844
-7.28248
-10.6737
-13.3446
-15.4123
-16.9682
-18.0802
-18.7963
-19.147
29.5961
26.1889
20.7042
14.5172
8.51702
3.13556
-1.48262
-5.33919
-8.49692
-11.0358
-13.0327
-14.5533
-15.6497
-16.3599
-16.7089
23.3525
21.0979
17.257
12.6537
7.93469
3.4961
-0.465701
-3.8812
-6.74992
-9.10335
-10.9838
-12.433
-13.4873
-14.1744
-14.5133
18.6745
17.1086
14.3392
10.8707
7.1576
3.52552
0.171839
-2.80291
-5.36076
-7.49942
-9.23425
-10.5871
-11.5798
-12.2308
-12.5529
15.084
13.9549
11.9069
9.2576
6.32423
3.3616
0.546236
-2.01415
-4.26271
-6.17593
-7.75001
-8.99123
-9.90969
-10.5155
-10.8163
12.2776
11.4395
9.89204
7.84176
5.51118
3.09541
0.743568
-1.44194
-3.39752
-5.08796
-6.49692
-7.61949
-8.45671
-9.01195
-9.28857
10.0532
9.41672
8.22638
6.62058
4.7573
2.78481
0.825395
-1.02941
-2.71647
-4.19545
-5.44273
-6.44592
-7.19954
-7.7019
-7.95294
8.27076
7.77854
6.84924
5.57819
4.07925
2.46513
0.834579
-0.733381
-2.1799
-3.46384
-4.55804
-5.44565
-6.11686
-6.56638
-6.79164
6.83016
6.4439
5.70941
4.69407
3.48119
2.15687
0.800294
-0.521678
-1.75625
-2.86399
-3.81682
-4.59566
-5.18812
-5.58659
-5.78678
5.6578
5.35107
4.76462
3.94713
2.96051
1.871
0.741979
-0.370668
-1.42068
-2.37171
-3.19642
-3.8751
-4.3941
-4.74449
-4.92093
4.69844
4.45251
3.98027
3.31763
2.51128