/*--------------------------------*- C++ -*----------------------------------*\
| =========                 |                                                 |
| \\      /  F ield         | OpenFOAM: The Open Source CFD Toolbox           |
|  \\    /   O peration     | Version:  5.x                                   |
|   \\  /    A nd           | Web:      www.OpenFOAM.org                      |
|    \\/     M anipulation  |                                                 |
\*---------------------------------------------------------------------------*/
FoamFile
{
    version     2.0;
    format      ascii;
    class       volScalarField;
    location    "13.5";
    object      gradTy;
}
// * * * * * * * * * * * * * * * * * * * * * * * * * * * * * * * * * * * * * //

dimensions      [0 -1 0 1 0 0 0];

internalField   nonuniform List<scalar> 
6300
(
1004.89
1014.82
1025.2
1036.33
1048.5
1061.96
1076.95
1093.69
1112.33
1132.98
1155.68
1180.39
1206.99
1235.3
1265.04
-0.227851
-0.680261
-1.12247
-1.54662
-1.94339
-2.30157
-2.60793
-2.8475
-3.00428
-3.06276
-3.00993
-2.83796
-2.5468
-2.14616
-1.6559
-0.383419
-1.14513
-1.89087
-2.60818
-3.28192
-3.89357
-4.42081
-4.83778
-5.11628
-5.22808
-5.14867
-4.86205
-4.366
-3.67622
-2.82776
-0.544121
-1.62595
-2.68771
-3.71328
-4.68252
-5.56994
-6.34389
-6.96649
-7.39492
-7.58456
-7.49455
-7.09552
-6.37887
-5.36493
-4.10679
-0.711227
-2.12682
-3.52073
-4.8747
-6.1649
-7.35976
-8.41831
-9.28935
-9.91229
-10.2207
-10.1494
-9.64659
-8.689
-7.29781
-5.54828
-0.885182
-2.64938
-4.39363
-6.09985
-7.74256
-9.28582
-10.6801
-11.8602
-12.7442
-13.2363
-13.2357
-12.6523
-11.4326
-9.58893
-7.22314
-1.06531
-3.19186
-5.30456
-7.38847
-9.41964
-11.3607
-13.1562
-14.7271
-15.9677
-16.7447
-16.9046
-16.2944
-14.8001
-12.4021
-9.23005
-1.24948
-3.74816
-6.24423
-8.72976
-11.1867
-13.5812
-15.8566
-17.9243
-19.6548
-20.8699
-21.3434
-20.8204
-19.0713
-15.9893
-11.7173
-1.43392
-4.30705
-7.1944
-10.0996
-13.0161
-15.9208
-18.7645
-21.4585
-23.8571
-25.7366
-26.7784
-26.5726
-24.6751
-20.7664
-14.9295
-1.61304
-4.85167
-8.1267
-11.458
-14.8571
-18.3212
-21.8219
-25.2881
-28.5783
-31.4407
-33.4609
-34.0162
-32.2899
-27.4718
-19.3184
-1.77961
-5.35985
-9.00271
-12.7483
-16.6331
-20.6849
-24.9137
-29.2933
-33.7272
-37.9867
-41.6082
-43.7412
-42.9965
-37.5126
-25.8505
-1.92516
-5.80535
-9.77589
-13.8995
-18.2419
-22.8714
-27.8544
-33.2441
-39.0501
-45.1706
-51.2435
-56.3438
-58.4418
-53.7315
-37.0144
-2.04084
-6.16045
-10.3959
-14.8317
-19.5636
-24.704
-30.3883
-36.7783
-44.0582
-52.4016
-61.8512
-71.9483
-80.695
-81.9569
-60.7095
-2.11857
-6.39961
-10.8156
-15.4677
-20.4764
-25.9927
-32.2163
-39.4222
-48.0024
-58.5261
-71.8108
-88.9027
-110.433
-132.691
-127.48
-2.1524
-6.50381
-10.9989
-15.7472
-20.8814
-26.5738
-33.0616
-40.6916
-50.0025
-61.8893
-77.9624
-101.418
-139.441
-210.891
-375.305
1293.3
1319.53
1346.05
1372.66
1399.12
1425.23
1450.81
1475.7
1499.75
1522.84
1544.88
1565.79
1585.51
1603.98
1621.18
1637.07
1651.63
1664.85
1676.74
1687.28
1696.47
1704.34
1710.88
1716.11
1720.04
1722.7
1724.1
1724.26
1723.21
1720.96
1717.54
1712.97
1707.27
1700.47
1692.58
1683.63
1673.65
1662.64
1650.64
1637.66
1623.73
1608.86
1593.09
1576.42
1558.89
1540.52
1521.33
1501.33
1480.56
1459.03
1436.75
1413.74
1390.03
1365.61
1340.52
1314.76
1288.36
1261.33
1233.7
1205.49
1176.72
1147.42
1117.61
1087.33
1056.59
1025.44
993.895
961.995
929.778
897.283
864.56
831.66
798.644
765.578
732.534
699.592
666.833
634.344
602.213
570.527
539.376
508.841
479.006
449.943
421.722
394.401
368.03
342.646
318.275
294.928
-1.15036
-0.669338
-0.18617
0.281588
0.719591
1.11752
1.46926
1.77251
2.02809
2.23904
2.40976
2.54529
2.65067
2.73061
2.78925
2.83004
2.85582
2.8689
2.8711
2.86394
2.84868
2.82641
2.7981
2.76466
2.72689
2.68559
2.64147
2.59524
2.54758
2.4991
2.45035
2.40181
2.35382
2.30657
2.26009
2.21425
2.16877
2.1233
2.07747
2.03098
1.98367
1.93557
1.88698
1.83836
1.79036
1.74367
1.69893
1.65662
1.61695
1.57979
1.54466
1.5108
1.4772
1.44277
1.40649
1.36752
1.32532
1.2797
1.2308
1.17899
1.12475
1.06848
1.01035
0.950119
0.887082
0.820018
0.747271
0.666888
0.576831
0.475218
0.360568
0.23201
0.0894218
-0.0665075
-0.234308
-0.411833
-0.596412
-0.785029
-0.974487
-1.16153
-1.34292
-1.51545
-1.6759
-1.82107
-1.94775
-2.0528
-2.13336
-2.1871
-2.21249
-2.20909
-1.95166
-1.11925
-0.286015
0.51646
1.26295
1.93597
2.52591
3.03008
3.45122
3.79579
4.07233
4.29013
4.45826
4.5849
4.67705
4.74048
4.77979
4.79862
4.79988
4.78591
4.75871
4.72003
4.67144
4.61437
4.55019
4.48017
4.40552
4.32741
4.24698
4.16528
4.0833
4.00185
3.92155
3.84275
3.76551
3.68954
3.61431
3.53912
3.46322
3.38598
3.30705
3.22647
3.14472
3.06268
2.98157
2.90273
2.82742
2.75658
2.69066
2.62949
2.5722
2.51735
2.46309
2.40735
2.34821
2.28411
2.21409
2.13786
2.05577
1.96868
1.87765
1.78362
1.68711
1.58788
1.48477
1.37564
1.25751
1.12679
0.979695
0.8127
0.623008
0.40894
0.170201
-0.0920191
-0.375105
-0.675232
-0.987669
-1.30713
-1.62809
-1.94501
-2.25246
-2.54511
-2.81767
-3.06476
-3.28087
-3.4605
-3.59848
-3.69046
-3.7335
-3.72665
-2.8046
-1.57014
-0.341361
0.832179
1.91234
2.87433
3.70636
4.40752
4.98494
5.45082
5.8198
6.10685
6.32594
6.48919
6.60658
6.68603
6.73362
6.75404
6.75095
6.72731
6.68568
6.62834
6.55737
6.47475
6.38231
6.28182
6.17496
6.06335
5.94862
5.83231
5.71589
5.60065
5.48754
5.37714
5.26951
5.16418
5.06022
4.95638
4.85131
4.74383
4.63324
4.51947
4.40326
4.28607
4.16992
4.05712
3.94985
3.84984
3.75794
3.67396
3.59658
3.52344
3.45145
3.37718
3.29741
3.20958
3.11214
3.00477
2.88828
2.76437
2.63516
2.50265
2.36809
2.23152
2.09139
1.9445
1.78614
1.61053
1.41146
1.18311
0.920785
0.621625
0.285012
-0.0872684
-0.491156
-0.920702
-1.36862
-1.82689
-2.28733
-2.74195
-3.18313
-3.60355
-3.99598
-4.3529
-4.66637
-4.92806
-5.12972
-5.26415
-5.32626
-5.31415
-3.73052
-2.01287
-0.317191
1.28235
2.73186
3.99985
5.07529
5.96317
6.67931
7.24548
7.68531
8.02152
8.2741
8.45958
8.59083
8.67751
8.72665
8.7434
8.73168
8.69472
8.63539
8.55636
8.4602
8.34936
8.22616
8.09278
7.95134
7.80393
7.65264
7.49962
7.34694
7.1965
7.04978
6.90769
6.77033
6.63699
6.50611
6.37557
6.24301
6.10633
5.96413
5.81614
5.66337
5.5081
5.3536
5.20367
5.06201
4.93156
4.81396
4.70909
4.61501
4.52803
4.44322
4.35507
4.25837
4.14901
4.02464
3.88495
3.73161
3.56781
3.39757
3.22475
3.0521
2.8804
2.70788
2.53
2.33973
2.12815
1.88552
1.60255
1.27172
0.888357
0.451297
-0.0368889
-0.570146
-1.13961
-1.73454
-2.34342
-2.95484
-3.55813
-4.14357
-4.70222
-5.2253
-5.70352
-6.12636
-6.48194
-6.7577
-6.94191
-7.02581
-7.00574
-4.75009
-2.42385
-0.154451
1.9487
3.81287
5.40278
6.71446
7.76631
8.5899
9.22231
9.70032
10.0569
10.3192
10.5083
10.6396
10.7234
10.7667
10.7741
10.7491
10.6947
10.6138
10.5094
10.3845
10.2421
10.085
9.91572
9.73672
9.55047
9.35957
9.16683
8.97517
8.78738
8.60577
8.43181
8.2658
8.10664
7.95191
7.79806
7.64106
7.47716
7.30378
7.1201
6.92749
6.72942
6.5311
6.33871
6.1584
5.99519
5.85201
5.72908
5.62357
5.52986
5.44016
5.34564
5.23789
5.1104
4.95954
4.78514
4.59032
4.38086
4.16401
3.94692
3.73506
3.53077
3.33235
3.13363
2.92429
2.69077
2.41792
2.09115
1.69855
1.23265
0.691439
0.0786255
-0.596775
-1.3216
-2.08016
-2.85608
-3.63384
-4.3998
-5.14241
-5.85189
-6.51904
-7.13369
-7.683
-8.1506
-8.51736
-8.76394
-8.87492
-8.84318
-5.88201
-2.753
0.247642
2.95911
5.28873
7.20619
8.72764
9.89798
10.7757
11.4214
11.8902
12.2279
12.4697
12.6405
12.7566
12.8275
12.8583
12.8514
12.8089
12.7328
12.626
12.4919
12.3341
12.1562
11.9614
11.7527
11.5326
11.3037
11.0692
10.8325
10.5979
10.3694
10.1508
9.94457
9.75145
9.57002
9.39652
9.22518
9.04913
8.86176
8.65832
8.43701
8.19956
7.95121
7.70017
7.45646
7.23027
7.03006
6.86104
6.72408
6.61526
6.52604
6.44416
6.35535
6.24597
6.10553
5.92845
5.71482
5.47021
5.20467
4.93088
4.66166
4.40721
4.17282
3.95735
3.75267
3.54377
3.31011
3.02808
2.67464
2.23104
1.68551
1.03478
0.284367
-0.552131
-1.4549
-2.40065
-3.36595
-4.32973
-5.27493
-6.18882
-7.06235
-7.88824
-8.65781
-9.35715
-9.96433
-10.4499
-10.7811
-10.9294
-10.8808
-7.13682
-2.8974
1.06599
4.51916
7.35781
9.57948
11.2459
12.4505
13.295
13.8746
14.2683
14.5366
14.7218
14.8509
14.9382
14.9891
15.0035
14.9796
14.9164
14.8147
14.6772
14.5081
14.3121
14.0939
13.8574
13.6055
13.3405
13.0647
12.7814
12.4949
12.2112
11.9368
11.6776
11.438
11.2198
11.0215
10.8376
10.6587
10.4731
10.2691
10.0382
9.77678
9.48695
9.17648
8.85832
8.54863
8.26437
8.01968
7.82358
7.67821
7.5784
7.51136
7.45781
7.39438
7.29846
7.15313
6.9497
6.68884
6.37995
6.04008
5.69089
5.35489
5.05023
4.78736
4.56661
4.37756
4.19869
3.99891
3.74089
3.38777
2.91011
2.28967
1.52152
0.613919
-0.412196
-1.52641
-2.69311
-3.87808
-5.05242
-6.19518
-7.29335
-8.34143
-9.33848
-10.283
-11.1639
-11.9531
-12.6048
-13.0613
-13.2673
-13.1943
-8.50029
-2.64457
2.61871
6.96374
10.3149
12.7518
14.4287
15.5205
16.1951
16.5946
16.8261
16.9638
17.0538
17.1206
17.1714
17.2023
17.2029
17.1635
17.0784
16.947
16.7728
16.5618
16.321
16.057
15.7746
15.4763
15.1629
14.8356
14.4969
14.1524
13.8103
13.4812
13.175
12.8996
12.6587
12.4515
12.2703
12.1009
11.9225
11.7142
11.4611
11.1566
10.8031
10.4119
10.0034
9.60332
9.24063
8.9385
8.71224
8.56595
8.49355
8.47646
8.48494
8.47945
8.42135
8.28367
8.05294
7.7313
7.33361
6.88826
6.43126
6.00234
5.63244
5.34065
5.12963
4.9872
4.88315
4.77105
4.59012
4.27971
3.79429
3.10609
2.20862
1.11372
-0.145793
-1.52269
-2.95959
-4.40583
-5.82083
-7.17988
-8.4702
-9.69416
-10.8644
-11.9999
-13.103
-14.1396
-15.0409
-15.7021
-16.0071
-15.896
-9.87983
-1.53893
5.49324
10.839
14.5883
17.0181
18.4538
19.1911
19.4908
19.5562
19.5182
19.4593
19.4186
19.4127
19.4325
19.4587
19.4591
19.4127
19.3064
19.1406
18.9208
18.6579
18.3628
18.0461
17.7143
17.368
17.0048
16.6223
16.2204
15.8057
15.39
14.9922
14.6277
14.311
14.0485
13.8433
13.6857
13.5557
13.4147
13.2231
12.9579
12.6062
12.1733
11.6721
11.1358
10.6038
10.1293
9.7477
9.48537
9.3469
9.3287
9.4044
9.53181
9.63994
9.6585
9.54788
9.28678
8.88298
8.3556
7.7529
7.13093
6.56454
6.1019
5.77737
5.59362
5.54134
5.57894
5.64208
5.62555
5.42346
4.97027
4.22369
3.17984
1.8504
0.289525
-1.43268
-3.21272
-4.97863
-6.66986
-8.26359
-9.74259
-11.1242
-12.4405
-13.7634
-15.1377
-16.5207
-17.8228
-18.8558
-19.3459
-19.166
-10.9145
1.45113
10.7959
17.0128
20.7615
22.7161
23.4847
23.4922
23.1245
22.6671
22.2409
21.9294
21.7337
21.6683
21.6852
21.753
21.7833
21.7489
21.6208
21.4127
21.1315
20.8012
20.4367
20.0577
19.6755
19.2852
18.8755
18.4379
17.963
17.4616
16.9448
16.4562
16.0125
15.6452
15.3568
15.1676
15.0624
15.027
14.9807
14.839
14.5801
14.1739
13.6427
12.9837
12.2629
11.5225
10.8852
10.3861
10.0811
9.95561
10.0295
10.2588
10.6073
10.9303
11.0825
11.0296
10.7269
10.2135
9.48688
8.6461
7.75138
6.97812
6.37328
6.01212
5.86903
5.96678
6.23862
6.62847
6.92886
6.92941
6.56938
5.76994
4.56293
2.92095
0.957782
-1.25877
-3.48557
-5.65836
-7.65868
-9.51194
-11.1547
-12.6477
-14.0064
-15.4525
-17.1593
-19.0177
-20.9916
-22.7907
-23.6491
-23.3121
-10.2033
8.79125
20.6031
26.7402
29.5178
30.121
29.6106
28.333
26.8866
25.7322
24.798
24.2317
23.8606
23.8048
23.8639
24.1005
24.1999
24.2192
24.0496
23.7893
23.4124
22.9928
22.5306
22.073
21.6479
21.2294
20.7855
20.3063
19.7434
19.1386
18.4587
17.8546
17.2867
16.865
16.5219
16.37
16.3382
16.5135
16.6832
16.6231
16.4141
15.9207
15.2955
14.3837
13.4175
12.2923
11.4416
10.7444
10.4177
10.2767
10.5061
10.941
11.7191
12.4661
12.8014
12.8707
12.4701
11.8504
10.7822
9.61654
8.19653
7.14877
6.2934
5.93249
5.79726
6.1412
6.72803
7.74337
8.66362
8.95427
8.80092
7.90281
6.57208
4.45378
1.99067
-1.07031
-3.83638
-6.58657
-8.85936
-11.0635
-12.7824
-14.3646
-15.4464
-16.7662
-18.9624
-21.3484
-24.4122
-28.0798
-29.6735
-28.8922
-1.74606
26.4741
38.5815
41.3054
41.405
39.129
36.8408
33.4161
30.2279
28.4794
26.8248
26.2525
25.533
25.775
25.7865
26.645
26.7314
26.9609
26.6082
26.3335
25.7542
25.2454
24.6172
24.041
23.6103
23.2095
22.7461
22.2947
21.5836
20.9234
19.8626
19.2007
18.35
17.971
17.411
17.3993
17.315
18.0078
18.7163
18.6213
18.6569
17.8572
17.3607
15.8617
14.8008
12.6664
11.7768
10.5689
10.4866
10.0643
10.6864
11.1289
12.8754
14.5943
14.9031
15.3881
14.5285
14.1327
12.2176
10.953
8.10539
7.04215
5.50125
5.52766
5.03527
5.96564
6.60017
8.99499
11.3048
11.6183
12.1047
10.6584
9.71512
6.48298
3.88436
-1.3066
-4.21015
-8.20226
-10.1589
-13.3138
-14.607
-16.8017
-16.5438
-16.8178
-20.4921
-22.7028
-26.9631
-36.355
-39.1176
-36.9424
43.2624
67.3581
70.0708
59.6488
56.7121
48.1542
45.7072
38.1586
31.4957
31.0915
27.2928
28.4852
25.8207
28.0772
26.4893
30.3013
29.0568
30.5408
29.0547
29.316
27.9947
27.6696
26.6291
25.7996
25.5295
25.2799
24.6896
24.657
23.3506
23.2852
20.6924
20.8186
18.7342
19.3379
17.5109
18.5331
17.1732
19.4794
21.9068
20.4315
22.103
19.3571
20.8696
16.7091
17.7301
11.2482
12.5705
8.77286
11.0455
8.34818
11.1255
9.43921
14.0716
18.7532
16.7512
19.8417
15.9195
18.6031
12.7166
14.5692
5.44503
7.62362
2.45248
5.87016
2.22479
6.21633
3.93774
10.3692
16.8206
14.0334
18.1917
12.6899
16.1542
7.6001
9.51123
-4.83648
-3.01611
-12.7487
-9.73241
-18.2448
-15.133
-22.7702
-16.875
-11.9725
-24.129
-21.1054
-22.1239
-54.1758
-55.6716
-49.3792
277.09
139.033
120.473
67.2122
80.1124
48.3785
61.9187
41.6244
23.7502
38.5907
20.5729
36.2707
19.0214
35.9144
19.4155
41.2378
27.452
38.3968
28.9838
34.5764
28.7996
31.123
28.3363
26.7515
27.4185
27.8398
25.829
28.8526
23.3295
29.2855
17.606
25.6187
15.2468
24.204
13.5074
23.0961
11.7514
20.7758
30.7163
17.7096
31.9091
14.7241
32.5468
10.0945
31.463
-1.40871
20.7361
-1.76494
18.7607
-1.25206
17.9917
-1.34988
15.1961
32.5361
11.2656
34.3929
7.79736
35.4138
2.0706
33.9914
-13.4917
18.7882
-12.9646
16.383
-11.5832
15.4956
-11.2676
11.7144
35.6396
6.4465
38.1888
1.80993
39.8993
-6.35309
38.5505
-31.6486
14.8141
-35.6537
7.29538
-39.9148
-0.18044
-48.2251
-15.7766
17.4377
-49.6252
-13.6874
27.4038
-115.997
-83.4401
-70.166
270.372
245.034
221.096
198.486
177.115
156.881
137.676
119.385
101.892
85.0846
68.8491
53.0763
37.6598
22.4956
7.48185
-2.17448
-2.09932
-1.99205
-1.85918
-1.7076
-1.5438
-1.3734
-1.2008
-1.0292
-0.860632
-0.696138
-0.535946
-0.379673
-0.22649
-0.0752721
-3.66562
-3.5345
-3.3485
-3.11943
-2.85959
-2.58039
-2.29146
-2.00024
-1.71198
-1.42988
-1.15546
-0.8889
-0.629361
-0.375302
-0.124706
-5.22124
-5.02449
-4.74795
-4.41039
-4.03089
-3.62666
-3.21176
-2.79672
-2.38858
-1.99144
-1.60692
-1.23482
-0.873563
-0.520647
-0.172956
-6.87216
-6.59419
-6.20836
-5.74325
-5.22689
-4.68355
-4.13218
-3.58624
-3.05417
-2.54034
-2.04594
-1.56987
-1.10942
-0.660759
-0.219426
-8.65521
-8.27165
-7.74794
-7.12725
-6.44979
-5.74839
-5.04713
-4.36184
-3.70148
-3.06977
-2.4666
-1.8893
-1.33345
-0.793539
-0.263414
-10.6166
-10.0891
-9.38438
-8.56793
-7.69653
-6.81301
-5.94605
-5.11246
-4.32011
-3.5706
-2.86137
-2.18727
-1.54153
-0.916522
-0.304101
-12.8172
-12.0838
-11.1324
-10.0634
-8.95529
-7.86097
-6.81151
-5.82177
-4.89585
-4.03111
-3.22099
-2.45683
-1.72887
-1.02691
-0.340565
-15.3397
-14.2962
-12.9979
-11.5979
-10.2001
-8.86399
-7.61714
-6.46719
-5.41034
-4.43693
-3.53462
-2.69015
-1.89019
-1.12165
-0.371817
-18.2986
-16.7634
-14.9651
-13.1301
-11.3832
-9.77761
-8.3258
-7.01942
-5.84133
-4.7716
-3.79037
-2.87894
-2.02005
-1.19769
-0.396861
-21.8459
-19.4936
-16.9686
-14.5742
-12.4247
-10.5374
-8.8889
-7.44328
-6.16388
-5.01771
-3.97626
-3.01516
-2.11334
-1.25219
-0.414792
-26.1457
-22.3962
-18.8412
-15.7731
-13.2038
-11.0582
-9.24906
-7.70081
-6.35313
-5.15902
-4.08177
-3.09208
-2.16593
-1.28291
-0.424905
-31.1984
-25.1043
-20.2267
-16.4729
-13.5592
-11.2423
-9.34821
-7.75769
-6.38871
-5.18343
-4.09965
-3.1054
-2.17538
-1.28861
-0.426814
-36.0785
-26.5957
-20.488
-16.3324
-13.3177
-11.0035
-9.14366
-7.59293
-6.26053
-5.08626
-4.02795
-3.05446
-2.14154
-1.26932
-0.42055
-35.9311
-24.7117
-18.7968
-15.0508
-12.3755
-10.3103
-8.62985
-7.20975
-5.97413
-4.87306
-3.87138
-2.9429
-2.067
-1.22655
-0.406614
-2.14426
-6.47863
-10.9544
-15.6793
-20.7843
-26.4394
-32.8793
-40.4487
-49.6856
-61.4928
-77.5183
-101.097
-139.843
-213.535
-379.808
-2.10174
-6.34744
-10.723
-15.3264
-20.2744
-25.7153
-31.8472
-38.9472
-47.4203
-57.8767
-71.246
-88.853
-111.89
-136.936
-129.003
-2.02989
-6.12602
-10.3334
-14.734
-19.4221
-24.5113
-30.1424
-36.492
-43.7772
-52.2374
-62.0305
-72.838
-82.5414
-83.2394
-51.8578
-1.9328
-5.8273
-9.80959
-13.9418
-18.2912
-22.9309
-27.9385
-33.3869
-39.318
-45.6721
-52.1099
-57.5892
-59.4463
-51.8194
-24.9444
-1.81563
-5.46757
-9.18159
-12.9988
-16.9585
-21.0949
-25.4283
-29.9463
-34.5649
-39.0484
-42.8544
-44.8552
-42.9368
-33.7659
-14.0125
-1.68407
-5.06471
-8.48191
-11.9566
-15.503
-19.1221
-22.7897
-26.4357
-29.9053
-32.8952
-34.8524
-34.8426
-31.4634
-23.0613
-8.82468
-1.54383
-4.63642
-7.74225
-10.8646
-13.997
-17.1153
-20.1661
-23.0473
-25.5785
-27.4589
-28.2161
-27.1698
-23.4778
-16.4083
-6.00676
-1.40016
-4.19891
-6.99105
-9.76565
-12.5006
-15.1553
-17.6602
-19.9018
-21.7035
-22.8023
-22.8321
-21.3342
-17.8375
-12.0691
-4.30824
-1.25758
-3.76594
-6.252
-8.69416
-11.0599
-13.2992
-15.3369
-17.0619
-18.3165
-18.8878
-18.5089
-16.8864
-13.7746
-9.1135
-3.20385
-1.11971
-3.34845
-5.54337
-7.67571
-9.70683
-11.5832
-13.2307
-14.5484
-15.404
-15.6331
-15.0492
-13.4728
-10.7877
-7.02484
-2.44531
-0.989239
-2.95443
-4.87818
-6.72751
-8.46119
-10.0261
-11.3534
-12.3558
-12.9264
-12.9428
-12.2787
-10.8289
-8.54901
-5.50331
-1.90279
-0.867991
-2.58916
-4.26462
-5.85956
-7.33272
-8.63383
-9.70163
-10.4629
-10.8337
-10.725
-10.0536
-8.76157
-6.84209
-4.36704
-1.50267
-0.757021
-2.25563
-3.70695
-5.07616
-6.32367
-7.40356
-8.2627
-8.84105
-9.07404
-8.89797
-8.25956
-7.12985
-5.52095
-3.50109
-1.20043
-0.656763
-1.95492
-3.20626
-4.37723
-5.43098
-6.32654
-7.0187
-7.459
-7.59835
-7.39191
-6.8066
-5.83086
-4.48516
-2.83012
-0.967767
-0.567171
-1.68671
-2.76137
-3.75968
-4.6481
-5.39072
-5.94957
-6.2859
-6.36273
-6.1489
-5.62474
-4.78876
-3.66417
-2.3031
-0.785917
-0.487855
-1.44966
-2.36948
-3.21841
-3.96644
-4.58248
-5.03491
-5.29297
-5.32891
-5.12136
-4.65938
-3.94703
-3.00738
-1.88447
-0.642017
-0.418188
-1.24176
-2.0268
-2.74719
-3.37642
-3.88781
-4.25521
-4.45423
-4.46416
-4.27048
-3.86784
-3.26314
-2.47784
-1.54883
-0.526989
-0.357408
-1.06062
-1.729
-2.33926
-2.86821
-3.29312
-3.59241
-3.74679
-3.74078
-3.56467
-3.21661
-2.70464
-2.04807
-1.27766
-0.434274
-0.304682
-0.903663
-1.47154
-1.98777
-2.43223
-2.78563
-3.03021
-3.15069
-3.1355
-2.97824
-2.67917
-2.24655
-1.69734
-1.05716
-0.359026
-0.259164
-0.768297
-1.24994
-1.68612
-2.05947
-2.3537
-2.55418
-2.64879
-2.62886
-2.49026
-2.23447
-1.8694
-1.40978
-0.876907
-0.297606
-0.220029
-0.652015
-1.05991
-1.42808
-1.74164
-1.98685
-2.15166
-2.22642
-2.2046
-2.08365
-1.86565
-1.5579
-1.17307
-0.728886
-0.247233
-0.186498
-0.552459
-0.89745
-1.20797
-1.47128
-1.67581
-1.81165
-1.87109
-1.84919
-1.74442
-1.55914
-1.29992
-0.977582
-0.606879
-0.205754
-0.157853
-0.467462
-0.758924
-1.02063
-1.24172
-1.41247
-1.5247
-1.57223
-1.5513
-1.46108
-1.30396
-1.08576
-0.815672
-0.505995
-0.171486
-0.13344
-0.395064
-0.641061
-0.86148
-1.0471
-1.18975
-1.28268
-1.32089
-1.30153
-1.2242
-1.0912
-0.907614
-0.681251
-0.422351
-0.143093
-0.112676
-0.333517
-0.540955
-0.726495
-0.882317
-1.00157
-1.07864
-1.10952
-1.092
-1.02597
-0.913558
-0.759173
-0.569419
-0.352841
-0.119512
-0.0950445
-0.281275
-0.456051
-0.612142
-0.742927
-0.842655
-0.906687
-0.93175
-0.916149
-0.859944
-0.765059
-0.63529
-0.476213
-0.294961
-0.099886
-0.0800917
-0.236986
-0.384121
-0.515357
-0.625101
-0.708526
-0.761787
-0.782214
-0.76849
-0.720775
-0.640779
-0.531754
-0.398402
-0.246679
-0.0835208
-0.0674227
-0.199472
-0.32323
-0.433495
-0.525547
-0.595341
-0.639683
-0.65639
-0.644431
-0.604018
-0.536653
-0.445109
-0.333345
-0.206338
-0.0698514
-0.0566949
-0.167714
-0.271708
-0.364277
-0.441447
-0.499827
-0.536764
-0.550469
-0.540128
-0.505974
-0.449314
-0.372504
-0.278873
-0.172577
-0.0584152
-0.047613
-0.140834
-0.228117
-0.305751
-0.370392
-0.419202
-0.449975
-0.461242
-0.452358
-0.423556
-0.375964
-0.311578
-0.233192
-0.144279
-0.0488314
-0.0399227
-0.118078
-0.191226
-0.256245
-0.310327
-0.3511
-0.376729
-0.386006
-0.378417
-0.354184
-0.314274
-0.260372
-0.19482
-0.120517
-0.0407857
-0.0334061
-0.0987969
-0.159979
-0.214332
-0.259503
-0.293513
-0.314837
-0.32248
-0.316032
-0.295697
-0.262299
-0.217255
-0.162525
-0.100525
-0.0340173
-0.0278763
-0.0824381
-0.133475
-0.178793
-0.216429
-0.244733
-0.262442
-0.268737
-0.263289
-0.24628
-0.218408
-0.180863
-0.135277
-0.0836616
-0.0283091
-0.0231733
-0.0685267
-0.11094
-0.148587
-0.179833
-0.20331
-0.217973
-0.223148
-0.218572
-0.204405
-0.181234
-0.150052
-0.112216
-0.0693928
-0.0234797
-0.01916
-0.0566565
-0.0917159
-0.122825
-0.148632
-0.168007
-0.180089
-0.184329
-0.180513
-0.168781
-0.149623
-0.123861
-0.0926186
-0.0572691
-0.0193767
-0.0157185
-0.0464782
-0.0752343
-0.100743
-0.121896
-0.137767
-0.147652
-0.151103
-0.147951
-0.138314
-0.122596
-0.101476
-0.0758721
-0.0469111
-0.0158716
-0.0127471
-0.0376911
-0.0610073
-0.0816861
-0.0988279
-0.111682
-0.119681
-0.122462
-0.119892
-0.112068
-0.0993213
-0.0822021
-0.0614567
-0.0379961
-0.012855
-0.0101577
-0.0300341
-0.0486115
-0.0650846
-0.0787364
-0.0889694
-0.0953315
-0.0975368
-0.0954794
-0.0892396
-0.0790823
-0.0654462
-0.0489264
-0.0302478
-0.0102333
-0.00787322
-0.0232789
-0.0376767
-0.0504419
-0.0610187
-0.0689441
-0.0738685
-0.0755711
-0.073971
-0.0691314
-0.0612584
-0.0506926
-0.037895
-0.0234271
-0.00792563
-0.00582528
-0.0172235
-0.0278755
-0.0373186
-0.0451417
-0.0510024
-0.0546422
-0.0558984
-0.0547117
-0.0511293
-0.0453041
-0.0374885
-0.0280234
-0.0173239
-0.00586079
-0.00395253
-0.0116863
-0.0189135
-0.0253202
-0.0306273
-0.0346026
-0.0370709
-0.037922
-0.0371157
-0.0346844
-0.0307319
-0.0254296
-0.0190087
-0.0117509
-0.00397539
-0.00219868
-0.00650079
-0.0105211
-0.0140851
-0.0170376
-0.0192492
-0.0206225
-0.0210962
-0.0206479
-0.0192955
-0.0170969
-0.0141472
-0.0105752
-0.00653747
-0.00221166
-0.000510983
-0.00151092
-0.00244566
-0.00327475
-0.00396215
-0.00447776
-0.00479874
-0.00491058
-0.00480781
-0.00449434
-0.00398337
-0.00329693
-0.00246497
-0.00152402
-0.00051562
0.00116142
0.00343369
0.00555647
0.00743725
0.00899395
0.0101585
0.0108798
0.011126
0.0108859
0.0101697
0.00900832
0.00745227
0.00556955
0.00344257
0.00116456
0.00286891
0.00848209
0.0137266
0.0183742
0.0222223
0.0251025
0.0268882
0.0275002
0.0269103
0.0251429
0.022274
0.0184283
0.0137736
0.00851402
0.00288021
0.00466296
0.0137864
0.0223111
0.0298663
0.0361226
0.0408063
0.0437114
0.0447087
0.0437521
0.0408807
0.0362178
0.0299658
0.0223978
0.0138452
0.00468376
0.00659756
0.0195064
0.0315688
0.0422602
0.0511147
0.057745
0.0618591
0.0632739
0.0619233
0.0578623
0.0512648
0.0424171
0.0317054
0.0195992
0.00663037
0.00873089
0.0258142
0.0417782
0.0559293
0.0676511
0.0764306
0.081881
0.0837589
0.0819763
0.0766049
0.0678741
0.0561626
0.0419813
0.0259521
0.00877965
0.011127
0.0328991
0.0532462
0.0712851
0.0862302
0.0974275
0.104383
0.106785
0.104521
0.0976797
0.086553
0.0716226
0.0535401
0.0330986
0.0111975
0.0138575
0.0409734
0.0663168
0.0887889
0.107411
0.121369
0.130046
0.133052
0.130243
0.12173
0.107873
0.0892712
0.0667368
0.0412585
0.0139584
0.0170041
0.0502783
0.081381
0.108965
0.131831
0.148978
0.159646
0.163356
0.159926
0.149489
0.132486
0.10965
0.0819775
0.0506831
0.0171473
0.0206602
0.0610907
0.0988879
0.132417
0.160222
0.181083
0.194078
0.198616
0.194475
0.181808
0.161149
0.133387
0.0997325
0.061664
0.020863
0.0249343
0.0737315
0.119358
0.159844
0.193432
0.218651
0.23438
0.239903
0.234941
0.219676
0.194744
0.161215
0.120552
0.074542
0.025221
0.0299523
0.0885735
0.143397
0.19206
0.232454
0.262808
0.281769
0.288468
0.282561
0.264255
0.234307
0.193998
0.145084
0.0897186
0.0303573
0.0358612
0.106053
0.171712
0.230018
0.278446
0.314873
0.337671
0.345786
0.33879
0.316917
0.281062
0.232754
0.174094
0.10767
0.0364332
0.0428331
0.126678
0.205132
0.274833
0.33277
0.376401
0.403768
0.413594
0.405348
0.379287
0.336464
0.278696
0.208496
0.128962
0.0436408
0.0510692
0.151047
0.244627
0.327817
0.397027
0.449219
0.482044
0.49395
0.484274
0.453294
0.402242
0.333271
0.249377
0.154271
0.0522095
0.0608051
0.179859
0.291337
0.390506
0.473098
0.535485
0.574843
0.58929
0.577992
0.541238
0.480461
0.398206
0.298043
0.18441
0.062415
0.0723159
0.213929
0.346594
0.464705
0.563196
0.637738
0.684938
0.702503
0.689383
0.64586
0.57359
0.475576
0.35606
0.220355
0.0745889
0.0859226
0.254211
0.411954
0.552527
0.669921
0.758975
0.815607
0.837021
0.821881
0.77044
0.684595
0.567873
0.425319
0.263283
0.0891317
0.101999
0.301816
0.489233
0.656441
0.796322
0.902722
0.970727
0.996917
0.979584
0.918905
0.817036
0.678106
0.508102
0.314624
0.106529
0.120976
0.35803
0.580544
0.779329
0.945966
1.07312
1.15488
1.18703
1.16738
1.09597
0.975207
0.809913
0.607183
0.376114
0.127373
0.143353
0.42434
0.688328
0.924535
1.12302
1.27505
1.37347
1.41311
1.39112
1.30729
1.1643
0.967713
0.725938
0.449873
0.152386
0.169702
0.50245
0.815399
1.09593
1.33233
1.51419
1.63287
1.68197
1.65778
1.5597
1.39059
1.15689
0.868502
0.538504
0.182458
0.200673
0.594307
0.964977
1.29797
1.5795
1.7972
1.94059
2.00172
1.97573
1.86142
1.66174
1.38402
1.03996
0.64522
0.218687
0.236998
0.702106
1.14071
1.53573
1.87099
2.13178
2.30542
2.38196
2.355
2.22242
1.98708
1.65722
1.24659
0.774014
0.262443
0.279495
0.828304
1.34671
1.81497
2.21419
2.52688
2.73765
2.83406
2.8076
2.65477
2.37802
1.98649
1.49624
0.92988
0.315442
0.32906
0.975606
1.58753
2.14214
2.61746
2.99274
3.24929
3.37146
3.34794
3.17315
2.84867
2.38431
1.79873
1.11912
0.37986
0.386661
1.14694
1.86814
2.52437
3.09017
3.54103
3.85422
4.01001
3.9933
3.79547
3.41642
2.86628
2.16651
1.34979
0.458478
0.453314
1.34541
2.19385
2.96937
3.64268
4.1849
4.56842
4.76833
4.7644
4.54361
4.10296
3.45215
2.61549
1.63225
0.554902
0.530054
1.57419
2.57019
3.48534
4.2862
4.93894
5.4101
5.66818
5.68607
5.4444
4.93541
4.16706
3.16624
1.98004
0.673865
0.617883
1.83638
3.00266
4.08063
5.03256
5.81905
6.39971
6.73476
6.78796
6.53078
5.94793
5.04337
3.84572
2.41113
0.821683
0.717699
2.13482
3.49643
4.76342
5.89377
6.84206
7.55983
7.99704
8.10533
7.84328
7.18381
6.12317
4.68971
2.94973
1.00694
0.830205
2.47178
4.0559
5.54107
6.88135
8.02511
8.91473
9.48768
9.67983
9.4317
8.69824
7.46184
5.74653
3.62916
1.24156
0.955783
2.84864
4.68403
6.4193
8.00536
9.38459
10.4895
11.2427
11.56
11.3571
10.5619
9.13304
7.08252
4.49621
1.54252
1.09435
3.26537
5.38167
7.4011
9.27294
10.9345
12.3083
13.3003
13.8014
13.6937
12.8655
11.2359
8.79053
5.61837
1.93468
1.24518
3.72009
6.14654
8.48533
10.6865
12.6843
14.3922
15.6988
16.4654
16.5307
15.7254
13.9053
11.0032
7.09573
2.45578
1.40675
4.20842
6.97225
9.66511
12.2411
14.6351
16.7548
18.4722
19.6164
19.972
19.2901
17.3259
13.9139
9.08171
3.16549
1.57653
4.72299
7.84719
10.9259
13.9221
16.7764
19.3966
21.6434
23.315
24.1337
23.745
21.7518
17.8109
11.8204
4.16319
1.7509
5.25297
8.75366
12.2441
15.7015
19.0802
22.2976
25.2139
27.6059
29.1335
29.3142
27.53
23.131
15.7166
5.62553
1.92505
5.78388
9.6672
13.585
17.5355
21.496
25.4074
29.1485
32.4967
35.0686
36.2476
35.124
30.5449
21.4713
7.89342
2.09312
6.29776
10.5568
14.903
19.3623
23.9458
28.6352
33.3559
37.9262
41.9709
44.7797
45.1173
41.0798
30.354
11.6952
2.24838
6.77383
11.3857
16.1425
21.1029
26.3218
31.8412
37.6673
43.7206
49.7312
55.0276
58.1486
56.259
44.7453
18.7828
2.38372
7.18985
12.1139
17.2405
22.6637
28.489
34.8341
41.8207
49.5444
57.9871
66.7857
74.6591
78.1212
69.1703
33.9279
2.49218
7.52395
12.7013
18.1326
23.9451
30.295
37.3813
45.4621
54.8685
65.9954
79.1857
94.2324
108.603
111.853
71.7209
2.5677
7.75692
13.1122
18.7598
24.8531
31.5894
39.2377
48.1824
58.9975
72.5702
90.296
114.275
146.807
184.661
181.256
2.60581
7.87457
13.3199
19.0775
25.3144
32.2503
40.1935
49.6037
61.2109
76.2605
97.0635
128.376
181.313
286.12
540.17
2.60423
7.86958
13.3106
19.0623
25.2902
32.2115
40.1304
49.4988
61.0334
75.9548
96.5322
127.459
179.798
283.936
538.235
2.56312
7.74251
13.0856
18.7164
24.7842
31.4797
39.0603
47.8894
58.5033
71.7207
88.8134
111.671
142.31
177.472
172.937
2.4851
7.50173
12.6606
18.0669
23.8421
30.1332
37.1228
45.0403
54.1648
64.795
77.0902
90.48
101.68
98.5742
44.6776
-22.7797
-18.566
-15.4076
-12.9622
-10.9907
-9.34638
-7.93702
-6.7015
-5.59724
-4.59321
-3.66575
-2.79605
-1.96859
-1.16997
-0.38815
-8.54493
-11.8424
-11.6954
-10.6727
-9.46972
-8.28464
-7.17103
-6.13714
-5.17676
-4.27946
-3.43408
-2.6299
-1.85685
-1.10555
-0.367102
-3.88808
-7.51074
-8.59104
-8.50837
-7.93621
-7.1732
-6.34962
-5.52167
-4.71242
-3.9296
-3.17379
-2.44209
-1.72999
-1.03221
-0.343101
-2.11555
-4.94453
-6.29427
-6.68387
-6.53516
-6.10376
-5.53117
-4.89319
-4.22967
-3.56096
-2.89671
-2.24065
-1.59318
-0.952825
-0.317079
-1.31672
-3.40551
-4.66422
-5.23313
-5.33038
-5.13233
-4.75809
-4.2824
-3.7505
-3.1892
-2.61393
-2.03323
-1.45141
-0.870232
-0.289951
-0.896105
-2.44291
-3.51315
-4.10988
-4.33061
-4.2832
-4.05542
-3.71059
-3.29172
-2.8271
-2.33489
-1.82657
-1.30919
-0.787008
-0.262556
-0.645901
-1.81124
-2.69089
-3.2477
-3.51703
-3.55929
-3.43401
-3.19017
-2.86469
-2.48412
-2.06703
-1.62618
-1.17029
-0.705352
-0.235616
-0.483511
-1.37796
-2.09279
-2.58513
-2.8611
-2.95169
-2.8949
-2.72641
-2.47589
-2.16649
-1.81565
-1.43622
-1.03767
-0.627021
-0.209714
-0.371518
-1.06939
-1.64918
-2.07278
-2.3339
-2.4464
-2.43335
-2.3196
-2.12795
-1.87762
-1.5841
-1.25953
-0.913437
-0.553307
-0.185284
-0.290886
-0.842815
-1.31401
-1.67327
-1.90987
-2.02827
-2.0417
-1.96687
-1.82075
-1.61874
-1.37408
-1.09779
-0.798942
-0.485071
-0.16262
-0.230978
-0.672301
-1.05655
-1.35893
-1.56791
-1.68304
-1.71131
-1.66364
-1.55234
-1.38946
-1.18602
-0.951702
-0.694871
-0.422789
-0.141891
-0.185394
-0.541413
-0.855951
-1.10945
-1.2911
-1.39811
-1.43364
-1.40459
-1.31973
-1.18833
-1.01939
-0.821238
-0.601387
-0.366626
-0.123162
-0.150065
-0.439328
-0.697729
-0.909838
-1.06612
-1.1628
-1.20079
-1.18429
-1.11943
-1.01326
-0.873049
-0.705833
-0.518251
-0.316503
-0.106418
-0.122283
-0.358671
-0.571648
-0.748991
-0.882523
-0.968244
-1.00579
-0.997556
-0.947794
-0.861824
-0.745449
-0.604565