/*--------------------------------*- C++ -*----------------------------------*\
| =========                 |                                                 |
| \\      /  F ield         | OpenFOAM: The Open Source CFD Toolbox           |
|  \\    /   O peration     | Version:  5.x                                   |
|   \\  /    A nd           | Web:      www.OpenFOAM.org                      |
|    \\/     M anipulation  |                                                 |
\*---------------------------------------------------------------------------*/
FoamFile
{
    version     2.0;
    format      ascii;
    class       volScalarField;
    location    "13.5";
    object      T;
}
// * * * * * * * * * * * * * * * * * * * * * * * * * * * * * * * * * * * * * //

dimensions      [0 0 0 1 0 0 0];

internalField   nonuniform List<scalar> 
6300
(
10.0496
10.1504
10.2557
10.3685
10.4914
10.6272
10.7782
10.9463
11.1332
11.3399
11.5667
11.8132
12.0783
12.36
12.6558
10.0481
10.1459
10.2483
10.3582
10.4785
10.612
10.7609
10.9275
11.1134
11.3197
11.5469
11.7945
12.0616
12.3459
12.6449
10.0451
10.1368
10.2333
10.3375
10.4525
10.5811
10.726
10.8894
11.0732
11.2787
11.5065
11.7564
12.0274
12.3171
12.6227
10.0405
10.123
10.2105
10.306
10.4129
10.5341
10.6725
10.8308
11.0111
11.2152
11.4439
11.6973
11.9742
12.2724
12.5884
10.0342
10.1043
10.1795
10.2633
10.3589
10.4698
10.5991
10.75
10.9253
11.127
11.3566
11.6145
11.8998
12.2098
12.5406
10.0262
10.0805
10.1401
10.2085
10.2896
10.3869
10.5041
10.645
10.8129
11.0108
11.2409
11.5044
11.8005
12.1265
12.4774
10.0165
10.0513
10.0917
10.1413
10.204
10.284
10.3855
10.5128
10.6704
10.8622
11.0919
11.3615
11.6711
12.018
12.3961
10.0049
10.0166
10.034
10.0608
10.1012
10.1597
10.241
10.3504
10.4935
10.6759
10.9028
11.1785
11.5045
11.8784
12.2928
9.99151
9.97636
9.96677
9.96666
9.98029
10.0124
10.0684
10.1544
10.2773
10.4448
10.665
10.9451
11.2897
11.6983
12.1617
9.97625
9.93051
9.89008
9.85878
9.84088
9.84126
9.86572
9.92127
10.0164
10.1611
10.3673
10.647
11.011
11.4631
11.9942
9.95925
9.87933
9.80424
9.7375
9.68315
9.64599
9.63195
9.64859
9.70571
9.81603
9.9958
10.2648
10.6439
11.1488
11.7754
9.94066
9.82331
9.71002
9.60382
9.50822
9.42756
9.36745
9.3354
9.34182
9.4014
9.5351
9.77221
10.151
10.7128
11.4772
9.92075
9.76322
9.60872
9.45951
9.31831
9.18856
9.07486
8.98371
8.92471
8.91261
8.97093
9.13788
9.47507
10.0742
11.0351
9.89984
9.7001
9.5021
9.30718
9.11694
8.93348
8.75968
8.59984
8.46065
8.35337
8.29808
8.33324
8.53712
9.07369
10.263
9.87837
9.63523
9.39241
9.15016
8.90878
8.6687
8.43053
8.19527
7.96466
7.74209
7.53472
7.35982
7.26642
7.42038
8.48548
12.9368
13.1975
13.4612
13.7257
13.9888
14.2487
14.5033
14.7511
14.9908
15.221
15.4408
15.6495
15.8463
16.0308
16.2025
16.3612
16.5068
16.639
16.7578
16.8632
16.9553
17.034
17.0995
17.1519
17.1914
17.2181
17.2322
17.234
17.2236
17.2012
17.1672
17.1216
17.0648
16.997
16.9183
16.829
16.7292
16.6194
16.4995
16.3698
16.2307
16.0822
15.9246
15.7581
15.5829
15.3994
15.2076
15.0078
14.8002
14.585
14.3624
14.1324
13.8954
13.6513
13.4005
13.1431
12.8792
12.6091
12.3329
12.0509
11.7634
11.4706
11.1727
10.8701
10.563
10.2517
9.93647
9.61775
9.29587
8.97127
8.64442
8.31585
7.98616
7.65602
7.32614
6.9973
6.67032
6.34606
6.02537
5.70914
5.39822
5.09345
4.79562
4.50547
4.22368
3.95082
3.68737
3.43371
3.19008
2.9566
12.9292
13.1931
13.4599
13.7275
13.9935
14.256
14.5129
14.7628
15.0042
15.2358
15.4568
15.6664
15.8639
16.0489
16.221
16.3801
16.5258
16.6581
16.7769
16.8823
16.9742
17.0528
17.1181
17.1703
17.2095
17.236
17.2498
17.2513
17.2406
17.2179
17.1835
17.1377
17.0805
17.0123
16.9333
16.8437
16.7437
16.6335
16.5133
16.3834
16.2439
16.0951
15.9371
15.7703
15.5949
15.411
15.2189
15.0189
14.811
14.5956
14.3727
14.1425
13.9052
13.6609
13.4099
13.1522
12.888
12.6176
12.3411
12.0588
11.7709
11.4777
11.1795
10.8764
10.5689
10.2571
9.94143
9.62216
9.29968
8.9744
8.64678
8.31735
7.98672
7.65554
7.32455
6.99454
6.66634
6.34082
6.01888
5.70141
5.38929
5.08338
4.7845
4.49339
4.21076
3.93721
3.67323
3.41921
3.17542
2.94196
12.9138
13.1841
13.4575
13.7313
14.0032
14.271
14.5327
14.7866
15.0313
15.2658
15.489
15.7004
15.8993
16.0854
16.2583
16.4178
16.5639
16.6964
16.8152
16.9205
17.0122
17.0905
17.1554
17.2072
17.2459
17.2718
17.285
17.2859
17.2745
17.2512
17.2162
17.1697
17.1119
17.0431
16.9635
16.8732
16.7726
16.6618
16.541
16.4105
16.2703
16.1209
15.9623
15.7948
15.6187
15.4342
15.2416
15.0409
14.8326
14.6166
14.3932
14.1626
13.9249
13.6802
13.4286
13.1704
12.9057
12.6347
12.3575
12.0745
11.7859
11.492
11.1929
10.8891
10.5807
10.2681
9.95141
9.63108
9.30741
8.98077
8.65163
8.32049
7.98795
7.65469
7.32145
6.98907
6.6584
6.33036
6.00588
5.68591
5.37136
5.06314
4.7621
4.46905
4.18472
3.90976
3.6447
3.38996
3.14583
2.91242
12.8902
13.1707
13.4542
13.7378
14.0188
14.2947
14.5635
14.8234
15.0732
15.3117
15.5382
15.7522
15.953
16.1406
16.3146
16.4749
16.6214
16.7541
16.8729
16.978
17.0694
17.1472
17.2115
17.2626
17.3005
17.3256
17.3379
17.3378
17.3255
17.3012
17.2652
17.2177
17.159
17.0892
17.0086
16.9175
16.816
16.7043
16.5826
16.4511
16.31
16.1596
16
15.8316
15.6545
15.4691
15.2755
15.074
14.8648
14.6481
14.4241
14.1928
13.9545
13.7091
13.4568
13.1979
12.9323
12.6603
12.3822
12.0982
11.8085
11.5134
11.2132
10.9082
10.5986
10.2846
9.96658
9.6447
9.31928
8.99065
8.65924
8.32553
7.99012
7.6537
7.31705
6.98103
6.64658
6.31468
5.98632
5.66251
5.34424
5.03248
4.72814
4.4321
4.14515
3.868
3.60126
3.34541
3.10075
2.86743
12.8577
13.1527
13.4506
13.748
14.0415
14.3285
14.6068
14.8747
15.131
15.3748
15.6054
15.8225
16.0258
16.2151
16.3904
16.5516
16.6986
16.8315
16.9503
17.0551
17.1459
17.2231
17.2866
17.3367
17.3735
17.3974
17.4085
17.4072
17.3935
17.3679
17.3305
17.2817
17.2217
17.1506
17.0689
16.9765
16.8738
16.7609
16.6381
16.5053
16.363
16.2113
16.0504
15.8806
15.7021
15.5154
15.3206
15.1179
14.9077
14.6901
14.4652
14.2331
13.9939
13.7477
13.4946
13.2346
12.9679
12.6947
12.4153
12.1298
11.8386
11.542
11.2403
10.9337
10.6225
10.307
9.98714
9.66329
9.33564
9.00444
8.67004
8.33292
7.99365
7.65294
7.31163
6.97065
6.63102
6.29382
5.96013
5.63107
5.3077
4.99107
4.68218
4.38199
4.0914
3.8112
3.54211
3.28468
3.0393
2.80613
12.8156
13.1304
13.4478
13.7634
14.0734
14.3747
14.665
14.9427
15.2068
15.4566
15.6919
15.9126
16.1185
16.3098
16.4864
16.6484
16.7959
16.9289
17.0476
17.1519
17.2421
17.3183
17.3807
17.4296
17.4651
17.4874
17.497
17.4939
17.4786
17.4512
17.4121
17.3616
17.3
17.2274
17.1441
17.0503
16.9461
16.8318
16.7075
16.5732
16.4293
16.2759
16.1133
15.9418
15.7616
15.5731
15.3767
15.1726
14.9611
14.7423
14.5164
14.2834
14.0433
13.7962
13.542
13.2808
13.0128
12.738
12.4569
12.1695
11.8764
11.5779
11.2743
10.9658
10.6527
10.3352
10.0134
9.68726
9.35699
9.0227
8.68467
8.3433
7.99915
7.65296
7.30564
6.95824
6.61189
6.26781
5.92723
5.59135
5.26137
4.93844
4.62364
4.31803
4.02262
3.73836
3.46611
3.20657
2.96023
2.72731
12.7627
13.1042
13.4475
13.7869
14.1177
14.4365
14.7411
15.0301
15.3028
15.5592
15.7994
16.0237
16.2322
16.4253
16.6032
16.766
16.9139
17.0469
17.1652
17.2689
17.3582
17.4333
17.4943
17.5415
17.5752
17.5957
17.6033
17.5982
17.5807
17.5512
17.51
17.4574
17.3938
17.3193
17.2342
17.1387
17.0329
16.9169
16.7909
16.6549
16.5091
16.3537
16.1889
16.0152
15.8328
15.6422
15.4437
15.2378
15.0248
14.8047
14.5776
14.3437
14.1027
13.8546
13.5993
13.3368
13.0671
12.7905
12.5071
12.2174
11.9219
11.621
11.315
11.0044
10.6892
10.3696
10.0456
9.71711
9.384
9.04626
8.70401
8.35757
8.00748
7.65451
7.29969
6.94422
6.58942
6.2367
5.88746
5.54307
5.20485
4.87403
4.5518
4.23932
3.93774
3.64819
3.37176
3.1094
2.8618
2.62927
12.6979
13.0754
13.4528
13.8226
14.1792
14.5188
14.8395
15.1406
15.4223
15.6851
15.9298
16.1571
16.3679
16.5626
16.7415
16.905
17.0531
17.186
17.3037
17.4066
17.4946
17.5682
17.6274
17.6727
17.7043
17.7225
17.7276
17.72
17.6999
17.6679
17.6241
17.569
17.503
17.4262
17.3391
17.2417
17.1341
17.0163
16.8884
16.7505
16.6025
16.4447
16.2773
16.1008
15.9156
15.7223
15.5213
15.3132
15.0983
14.8768
14.6487
14.4139
14.1722
13.9233
13.6669
13.403
13.1314
12.8523
12.5663
12.2736
11.975
11.6711
11.3624
11.0493
10.7319
10.4103
10.0842
9.75346
9.41755
9.0762
8.72929
8.37701
8.01984
7.65865
7.2946
6.92914
6.56388
6.20049
5.84063
5.48585
5.1376
4.79719
4.46587
4.14487
3.83548
3.53907
3.25711
2.99095
2.74164
2.5097
12.62
13.0463
13.4689
13.8773
14.2649
14.6281
14.966
15.2791
15.5687
15.8367
16.0848
16.3144
16.5266
16.7223
16.902
17.0658
17.214
17.3465
17.4636
17.5652
17.6518
17.7234
17.7805
17.8234
17.8524
17.8678
17.8701
17.8595
17.8363
17.8011
17.7542
17.6962
17.6273
17.548
17.4586
17.3591
17.2496
17.1301
17.0003
16.8603
16.7098
16.5492
16.3787
16.1987
16.0099
15.8131
15.609
15.3982
15.1812
14.9582
14.7292
14.4939
14.2519
14.0025
13.7453
13.4799
13.2061
12.9242
12.6347
12.3382
12.0357
11.7281
11.416
11.1001
10.7805
10.4572
10.1296
9.79709
9.45881
9.11401
8.76222
8.40337
8.03791
7.66679
7.29145
6.91369
6.53556
6.15914
5.78641
5.41917
5.05898
4.7072
4.36503
4.03366
3.71446
3.40913
3.11966
2.84818
2.59646
2.36538
12.5279
13.0225
13.5052
13.9619
14.3855
14.7738
15.1281
15.451
15.7462
16.017
16.2663
16.4964
16.709
16.905
17.085
17.249
17.3971
17.5292
17.6453
17.7455
17.8301
17.8994
17.9538
17.9938
18.0198
18.032
18.0309
18.0167
17.9899
17.9509
17.9003
17.8386
17.7665
17.6842
17.5923
17.4907
17.3795
17.2583
17.1269
16.9848
16.8317
16.6678
16.4934
16.309
16.1157
15.9143
15.7061
15.492
15.2726
15.0481
14.8186
14.5834
14.3419
14.0929
13.8354
13.5686
13.2924
13.007
12.7129
12.4114
12.1037
11.7912
11.4751
11.1561
10.8345
10.51
10.1819
9.84888
9.50935
9.16179
8.80518
8.43913
8.06401
7.68092
7.29168
6.89869
6.50469
6.11238
5.72421
5.34225
4.96819
4.60331
4.24858
3.90487
3.57342
3.25628
2.95629
2.6769
2.4215
2.19177
12.4224
13.0155
13.5787
14.0941
14.5567
14.9685
15.3351
15.6629
15.9585
16.2279
16.4752
16.7036
16.915
17.1106
17.2906
17.455
17.6032
17.7348
17.8497
17.9481
18.0302
18.0966
18.1478
18.1843
18.2067
18.2152
18.2102
18.1919
18.1607
18.1172
18.062
17.996
17.9199
17.8343
17.7395
17.636
17.5233
17.4012
17.2686
17.1247
16.969
16.8013
16.6221
16.4321
16.2326
16.0252
15.8116
15.5932
15.3709
15.1452
14.9158
14.682
14.4425
14.1953
13.9385
13.6708
13.3919
13.1019
12.8018
12.4933
12.1783
11.8594
11.5381
11.2156
10.8924
10.568
10.2412
9.90993
9.57132
9.22248
8.86162
8.48784
8.1015
7.7038
7.29724
6.88504
6.4713
6.05956
5.65301
5.2539
4.86413
4.48472
4.11622
3.75839
3.4117
3.07871
2.76321
2.47106
2.20954
1.98206
12.3097
13.0515
13.7211
14.3022
14.8007
15.2282
15.5978
15.9209
16.2087
16.4703
16.7111
16.935
17.1437
17.3384
17.5187
17.6841
17.8328
17.9642
18.0777
18.1738
18.2527
18.3154
18.3626
18.395
18.4133
18.4177
18.4084
18.3855
18.3491
18.3001
18.2392
18.1678
18.0867
17.9971
17.8994
17.794
17.6807
17.5589
17.4265
17.2815
17.1233
16.9513
16.7662
16.5687
16.3609
16.1448
15.9238
15.6997
15.4742
15.2472
15.0192
14.7886
14.5541
14.3115
14.057
13.7892
13.507
13.2112
12.9027
12.5843
12.2587
11.9307
11.6025
11.2763
10.9519
10.6294
10.3067
9.98145
9.64793
9.30038
8.93657
8.55453
8.15527
7.73934
7.31084
6.87351
6.43498
5.99921
5.57104
5.15201
4.7451
4.35035
3.96846
3.59582
3.23023
2.87593
2.53646
2.22109
1.94852
1.72553
12.2183
13.1913
13.9908
14.6289
15.147
15.5709
15.9273
16.2296
16.4963
16.7425
16.9711
17.1882
17.3922
17.5867
17.7679
17.937
18.0872
18.2192
18.3307
18.4238
18.4984
18.5564
18.5984
18.6258
18.6396
18.6398
18.6259
18.598
18.5556
18.5
18.4312
18.3531
18.2656
18.1716
18.07
17.9634
17.8501
17.7315
17.6023
17.4572
17.2973
17.1197
16.928
16.7198
16.501
16.2711
16.0404
15.8081
15.5793
15.3507
15.1259
14.9008
14.6769
14.4446
14.1945
13.9283
13.6413
13.3389
13.0174
12.6856
12.3423
12.0023
11.6639
11.3343
11.0083
10.6908
10.3757
10.0648
9.7446
9.40157
9.03764
8.6459
8.23295
7.79288
7.33705
6.86363
6.39458
5.92783
5.47583
5.03263
4.60848
4.19742
3.80729
3.42307
3.03246
2.65175
2.27496
1.90947
1.61607
1.40422
12.2747
13.581
14.4927
15.1283
15.6288
16.0107
16.3346
16.5892
16.8132
17.0399
17.2476
17.4601
17.6543
17.8539
18.0344
18.217
18.3674
18.5034
18.6099
18.7004
18.7678
18.8203
18.8549
18.8758
18.8855
18.8819
18.8633
18.8313
18.7808
18.7186
18.6365
18.5518
18.4537
18.3566
18.2476
18.142
18.027
17.919
17.8008
17.654
17.4965
17.3084
17.1134
16.8859
16.6569
16.3981
16.1594
15.9111
15.6839
15.4485
15.2329
15.0112
14.8116
14.6034
14.3551
14.097
13.7975
13.4939
13.147
12.8034
12.4208
12.0716
11.7125
11.3869
11.0526
10.7487
10.4387
10.1614
9.87402
9.53274
9.17866
8.7677
8.34957
7.869
7.38853
6.84738
6.35077
5.83516
5.36786
4.88574
4.45296
4.01432
3.63758
3.25947
2.82039
2.42187
1.9972
1.49399
1.16617
0.986684
13.0836
14.5385
15.3922
15.8219
16.2813
16.534
16.8415
16.9927
17.1262
17.3643
17.517
17.7579
17.9086
18.1482
18.2977
18.543
18.6683
18.83
18.9118
19.0102
19.0583
19.1098
19.131
19.1418
19.1502
19.1454
19.1197
19.0912
19.0226
18.9657
18.8451
18.7695
18.6403
18.5583
18.4202
18.334
18.1936
18.1211
18.0404
17.8658
17.7393
17.5069
17.3454
17.054
16.8556
16.496
16.2919
15.9835
15.8002
15.5177
15.3484
15.0896
14.9583
14.8197
14.5295
14.3251
13.9596
13.711
13.2718
12.977
12.4512
12.1548
11.713
11.4517
11.0528
10.8152
10.4545
10.2722
10.081
9.68224
9.40147
8.89969
8.55603
7.94488
7.52728
6.7669
6.33425
5.67286
5.28118
4.66773
4.30582
3.74202
3.46979
3.18362
2.54988
2.22964
1.83249
0.825949
0.502635
0.416637
2.71093
2.4573
2.21757
1.99104
1.77683
1.57395
1.38134
1.19785
1.02236
0.853719
0.690816
0.532554
0.377867
0.225713
0.0750702
2.69651
2.44338
2.20435
1.97868
1.76547
1.56368
1.37219
1.18984
1.01549
0.847973
0.686166
0.528973
0.375329
0.224199
0.0745669
2.66744
2.41532
2.17773
1.95385
1.74268
1.54308
1.35387
1.17383
1.00177
0.836507
0.676893
0.521835
0.370273
0.221183
0.0735647
2.6232
2.37269
2.13738
1.91629
1.70828
1.51207
1.32636
1.14984
0.981251
0.819375
0.663057
0.511195
0.362742
0.216693
0.0720728
2.56301
2.31483
2.08277
1.86564
1.66206
1.47054
1.28963
1.1179
0.954002
0.796678
0.644755
0.497139
0.352802
0.21077
0.0701056
2.48576
2.2408
2.01321
1.80143
1.60374
1.4184
1.24371
1.07811
0.920167
0.768569
0.622138
0.479797
0.340554
0.203477
0.0676843
2.38991
2.14939
1.92781
1.7231
1.53306
1.35558
1.18869
1.03066
0.879972
0.735282
0.595423
0.459353
0.326133
0.194899
0.0648373
2.27342
2.03902
1.82552
1.63007
1.44981
1.28214
1.12479
0.975865
0.833765
0.697157
0.56491
0.436052
0.309723
0.185147
0.0616022
2.13356
1.90772
1.70516
1.52183
1.35396
1.19836
1.05246
0.914228
0.782055
0.65466
0.531003
0.410216
0.291556
0.174361
0.058026
1.96663
1.7531
1.56556
1.39811
1.24581
1.10486
0.972449
0.846521
0.725558
0.608418
0.494218
0.382249
0.271919
0.162714
0.0541659
1.76759
1.57245
1.40586
1.25923
1.12629
1.0028
0.885944
0.77384
0.665229
0.559228
0.455195
0.352637
0.251155
0.150407
0.0500888
1.52971
1.36322
1.22619
1.10663
0.997315
0.89411
0.794671
0.697656
0.602281
0.508064
0.414693
0.321946
0.229652
0.13767
0.0458701
1.24468
1.12452
1.02904
0.943767
0.862216
0.781641
0.700963
0.619824
0.538166
0.456048
0.37356
0.290796
0.207836
0.124749
0.0415907
0.905745
0.861137
0.821659
0.777171
0.72613
0.669264
0.607706
0.542502
0.474506
0.404395
0.3327
0.259838
0.186145
0.111898
0.0373338
0.523111
0.59261
0.619279
0.617118
0.595861
0.56157
0.518089
0.467965
0.412956
0.354323
0.293001
0.229707
0.165005
0.0993628
0.0331797
9.85859
9.57546
9.29132
9.0054
8.71677
8.42423
8.12612
7.82011
7.50261
7.16779
6.80515
6.39278
5.87482
5.06957
3.23427
9.84084
9.52182
9.20064
8.87568
8.54492
8.20582
7.85487
7.48702
7.09456
6.665
6.17642
5.58697
4.80919
3.64776
1.67796
9.82357
9.46967
9.1126
8.74996
8.37887
7.99564
7.59534
7.17099
6.71227
6.20318
5.61772
4.9119
4.00998
2.7873
1.08423
9.80701
9.41972
9.02842
8.63011
8.22122
7.7973
7.3525
6.87882
6.36494
5.79438
5.14258
4.373
3.4335
2.26044
0.813665
9.79135
9.37255
8.94911
8.5176
8.07401
7.61346
7.1297
6.61454
6.05697
5.44198
4.74922
3.95208
3.01921
1.92364
0.668487
9.77675
9.32859
8.87539
8.41346
7.93858
7.44572
6.92869
6.37971
5.78886
5.14357
4.42834
3.62541
2.71789
1.69767
0.580123
9.76328
9.28813
8.80774
8.31832
7.81563
7.29476
6.74987
6.17395
5.55855
4.89373
4.16835
3.37137
2.49482
1.53929
0.521409
9.75102
9.25132
8.74636
8.23239
7.7053
7.16046
6.59259
5.99559
5.36255
4.68592
3.95807
3.17258
2.32659
1.4242
0.480011
9.73995
9.21815
8.69122
8.15556
7.60729
7.04217
6.45553
5.84225
5.19682
4.51369
3.78781
3.0158
2.19753
1.33814
0.449605
9.73006
9.18855
8.64216
8.08748
7.52097
6.93881
6.33697
5.71122
5.05728
4.37113
3.64959
2.89114
2.09701
1.27231
0.426613
9.72129
9.16235
8.59883
8.02763
7.4455
6.84911
6.23502
5.59978
4.94009
4.25314
3.53699
2.79125
2.01773
1.22106
0.40885
9.71357
9.13931
8.56085
7.97536
7.37995
6.77171
6.14775
5.50529
4.84184
4.15541
3.44494
2.71066
1.95453
1.18059
0.3949
9.70682
9.11919
8.52776
7.92997
7.32329
6.70522
6.07333
5.42539
4.75953
4.07439
3.36943
2.64523
1.9037
1.14827
0.383805
9.70095
9.10172
8.49907
7.89076
7.27455
6.64832
6.01004
5.35794
4.6906
4.00711
3.30728
2.59183
1.86252
1.12224
0.374893
9.69587
9.08661
8.47432
7.85702
7.23278
6.59978
5.95635
5.30108
4.63289
3.95119
3.25599
2.54805
1.82895
1.1011
0.367676
9.6915
9.07361
8.45305
7.82809
7.19708
6.55847
5.91088
5.25318
4.58456
3.90463
3.21354
2.51202
1.80145
1.08385
0.361794
9.68774
9.06245
8.43483
7.80338
7.16667
6.5234
5.87243
5.21286
4.54407
3.86583
3.17833
2.48226
1.77882
1.0697
0.356975
9.68453
9.05291
8.41927
7.78231
7.14081
6.49367
5.83996
5.17894
4.51015
3.83346
3.14908
2.45763
1.76015
1.05804
0.353011
9.68179
9.04477
8.40601
7.76439
7.11887
6.46852
5.81256
5.15041
4.48173
3.80642
3.12472
2.43719
1.74469
1.0484
0.349738
9.67945
9.03785
8.39474
7.74918
7.10027
6.44725
5.78946
5.12643
4.4579
3.78382
3.10442
2.42019
1.73186
1.04042
0.347027
9.67747
9.03197
8.38518
7.73629
7.08454
6.42929
5.76999
5.10627
4.43791
3.76492
3.08748
2.40603
1.72119
1.03379
0.344777
9.67578
9.02698
8.37708
7.72538
7.07125
6.41413
5.7536
5.08932
4.42115
3.74909
3.07333
2.39422
1.71231
1.02827
0.342907
9.67436
9.02276
8.37022
7.71615
7.06002
6.40136
5.7398
5.07508
4.40709
3.73584
3.0615
2.38436
1.7049
1.02367
0.341348
9.67315
9.01919
8.36443
7.70837
7.05055
6.39059
5.72818
5.06312
4.3953
3.72474
3.0516
2.37613
1.69871
1.01984
0.340048
9.67213
9.01618
8.35954
7.7018
7.04257
6.38153
5.71842
5.05307
4.3854
3.71544
3.04331
2.36924
1.69354
1.01663
0.338963
9.67128
9.01363
8.35541
7.69626
7.03585
6.3739
5.71021
5.04463
4.3771
3.70764
3.03637
2.36347
1.68922
1.01396
0.338057
9.67055
9.01149
8.35194
7.69159
7.03019
6.36748
5.70331
5.03754
4.37013
3.70111
3.03056
2.35865
1.68561
1.01172
0.337299
9.66994
9.00968
8.34901
7.68767
7.02543
6.36209
5.69751
5.03159
4.36429
3.69563
3.02569
2.35461
1.68258
1.00984
0.336665
9.66943
9.00816
8.34655
7.68437
7.02143
6.35756
5.69265
5.0266
4.35939
3.69104
3.02161
2.35123
1.68005
1.00828
0.336134
9.669
9.00689
8.34448
7.6816
7.01807
6.35376
5.68856
5.02242
4.35529
3.6872
3.0182
2.3484
1.67794
1.00697
0.335691
9.66863
9.00582
8.34275
7.67927
7.01525
6.35057
5.68515
5.01891
4.35185
3.68398
3.01535
2.34604
1.67617
1.00587
0.335321
9.66833
9.00492
8.34129
7.67733
7.0129
6.34791
5.68229
5.01598
4.34898
3.68129
3.01296
2.34406
1.67469
1.00496
0.335011
9.66808
9.00417
8.34008
7.6757
7.01093
6.34568
5.6799
5.01354
4.34659
3.67905
3.01098
2.34242
1.67346
1.0042
0.334754
9.66787
9.00354
8.33907
7.67435
7.00929
6.34383
5.67791
5.0115
4.34459
3.67719
3.00932
2.34105
1.67243
1.00357
0.334539
9.66769
9.00303
8.33823
7.67322
7.00793
6.34229
5.67627
5.00982
4.34294
3.67565
3.00796
2.33992
1.67159
1.00304
0.334362
9.66755
9.0026
8.33754
7.6723
7.00681
6.34103
5.67491
5.00843
4.34158
3.67438
3.00683
2.33898
1.67089
1.00261
0.334217
9.66743
9.00225
8.33698
7.67155
7.0059
6.34
5.6738
5.0073
4.34048
3.67334
3.00591
2.33822
1.67032
1.00226
0.334098
9.66733
9.00197
8.33652
7.67094
7.00517
6.33917
5.67292
5.00639
4.33959
3.67251
3.00517
2.33761
1.66987
1.00198
0.334002
9.66726
9.00175
8.33617
7.67046
7.00459
6.33851
5.67222
5.00567
4.33889
3.67185
3.00459
2.33713
1.66951
1.00176
0.333927
9.6672
9.00158
8.3359
7.6701
7.00415
6.33802
5.67168
5.00513
4.33835
3.67136
3.00415
2.33677
1.66923
1.00159
0.33387
9.66716
9.00146
8.3357
7.66984
7.00384
6.33766
5.67131
5.00474
4.33797
3.671
3.00384
2.33651
1.66904
1.00147
0.333829
9.66714
9.00139
8.33558
7.66968
7.00364
6.33744
5.67107
5.0045
4.33773
3.67078
3.00364
2.33635
1.66892
1.00139
0.333804
9.66713
9.00136
8.33553
7.6696
7.00355
6.33734
5.67096
5.00439
4.33763
3.67068
3.00355
2.33627
1.66886
1.00136
0.333793
9.66713
9.00136
8.33554
7.66962
7.00357
6.33737
5.67099
5.00442
4.33765
3.6707
3.00357
2.33629
1.66888
1.00137
0.333795
9.66714
9.00141
8.33562
7.66973
7.0037
6.33751
5.67114
5.00458
4.33781
3.67085
3.0037
2.3364
1.66896
1.00142
0.333812
9.66718
9.00151
8.33577
7.66993
7.00394
6.33779
5.67143
5.00488
4.3381
3.67112
3.00395
2.3366
1.66911
1.00151
0.333843
9.66722
9.00164
8.33599
7.67023
7.0043
6.33819
5.67187
5.00532
4.33854
3.67153
3.00431
2.3369
1.66933
1.00165
0.33389
9.66729
9.00183
8.3363
7.67063
7.00479
6.33875
5.67247
5.00593
4.33913
3.67209
3.0048
2.3373
1.66963
1.00183
0.333954
9.66737
9.00207
8.33669
7.67116
7.00543
6.33947
5.67324
5.00672
4.33991
3.67281
3.00544
2.33783
1.67003
1.00208
0.334036
9.66747
9.00238
8.33718
7.67182
7.00623
6.34037
5.67421
5.00771
4.34088
3.67371
3.00624
2.3385
1.67053
1.00239
0.33414
9.6676
9.00276
8.33779
7.67264
7.00722
6.34149
5.6754
5.00894
4.34208
3.67484
3.00724
2.33932
1.67114
1.00277
0.334269
9.66775
9.00322
8.33854
7.67364
7.00843
6.34286
5.67687
5.01043
4.34354
3.67621
3.00845
2.34033
1.67189
1.00323
0.334426
9.66794
9.00377
8.33944
7.67484
7.00989
6.34451
5.67864
5.01225
4.34532
3.67787
3.00992
2.34154
1.6728
1.00379
0.334617
9.66817
9.00445
8.34053
7.6763
7.01165
6.3465
5.68077
5.01443
4.34746
3.67987
3.0117
2.34301
1.6739
1.00447
0.334847
9.66844
9.00525
8.34183
7.67805
7.01377
6.34889
5.68333
5.01705
4.35003
3.68227
3.01383
2.34478
1.67522
1.00529
0.335123
9.66877
9.00621
8.34339
7.68013
7.01629
6.35175
5.6864
5.02019
4.3531
3.68515
3.01638
2.34689
1.6768
1.00627
0.335454
9.66916
9.00736
8.34525
7.68263
7.01931
6.35516
5.69006
5.02395
4.35678
3.68859
3.01944
2.34942
1.6787
1.00744
0.33585
9.66962
9.00873
8.34747
7.6856
7.02291
6.35923
5.69443
5.02843
4.36118
3.6927
3.02309
2.35245
1.68096
1.00884
0.336324
9.67017
9.01036
8.35011
7.68913
7.0272
6.36409
5.69964
5.03377
4.36642
3.69761
3.02744
2.35606
1.68366
1.01051
0.33689
9.67082
9.0123
8.35324
7.69334
7.0323
6.36986
5.70585
5.04013
4.37267
3.70347
3.03264
2.36037
1.68689
1.01251
0.337567
9.6716
9.0146
8.35697
7.69834
7.03836
6.37674
5.71324
5.04772
4.38011
3.71045
3.03885
2.36552
1.69075
1.0149
0.338376
9.67252
9.01733
8.3614
7.70428
7.04557
6.38491
5.72203
5.05675
4.38899
3.71878
3.04626
2.37167
1.69536
1.01775
0.339343
9.67362
9.02056
8.36665
7.71133
7.05413
6.39462
5.73249
5.0675
4.39957
3.72872
3.05511
2.37902
1.70087
1.02117
0.340499
9.67491
9.0244
8.37287
7.71969
7.06429
6.40616
5.74492
5.0803
4.41218
3.74057
3.06567
2.3878
1.70746
1.02525
0.341882
9.67645
9.02894
8.38024
7.7296
7.07633
6.41986
5.7597
5.09554
4.4272
3.75471
3.07828
2.3983
1.71535
1.03014
0.34354
9.67826
9.0343
8.38895
7.74132
7.09061
6.43611
5.77726
5.11366
4.44511
3.7716
3.09336
2.41087
1.72479
1.03601
0.345527
9.6804
9.04064
8.39925
7.75519
7.10752
6.45539
5.79812
5.13523
4.46645
3.79175
3.1114
2.42592
1.73612
1.04304
0.347914
9.68292
9.04811
8.4114
7.77157
7.12751
6.47823
5.82289
5.1609
4.4919
3.81584
3.133
2.44398
1.74973
1.0515
0.350785
9.68588
9.0569
8.42571
7.7909
7.15114
6.50527
5.85228
5.19143
4.52225
3.84464
3.15888
2.46566
1.7661
1.0617
0.354245
9.68936
9.06722
8.44253
7.81365
7.17902
6.53724
5.88713
5.22773
4.55845
3.8791
3.18994
2.49175
1.78584
1.074
0.358426
9.69344
9.07932
8.46227
7.84038
7.21185
6.57501
5.92842
5.2709
4.60166
3.92037
3.22726
2.5232
1.80969
1.0889
0.363493
9.69819
9.09346
8.48537
7.87174
7.25045
6.61956
5.9773
5.3222
4.65322
3.96984
3.27219
2.5612
1.83861
1.107
0.369657
9.70373
9.10993
8.51232
7.9084
7.29573
6.672
6.03508
5.38314
4.71479
4.02921
3.32639
2.60725
1.87379
1.12909
0.377188
9.71016
9.12904
8.54364
7.95113
7.34868
6.73359
6.10329
5.45549
4.78831
4.10056
3.39192
2.66325
1.91677
1.15616
0.386439
9.71757
9.15113
8.57992
8.00075
7.41042
6.80575
6.18366
5.54127
4.87612
4.18641
3.47136
2.73162
1.96957
1.18957
0.397881
9.72609
9.17652
8.62171
8.05811
7.48211
6.89
6.27812
5.64286
4.98098
4.28985
3.56796
2.81547
2.03481
1.2311
0.412148
9.73581
9.20555
8.66961
8.1241
7.56497
6.98799
6.3888
5.76294
5.10614
4.41464
3.68579
2.91888
2.11607
1.28321
0.430125
9.74684
9.23852
8.72415
8.19954
7.66021
7.10141
6.51799
5.90451
5.2554
4.56536
3.83005
3.04722
2.2182
1.34936
0.453078
9.75926
9.27569
8.78581
8.28518
7.76899
7.23191
6.66805
6.07081
5.43308
4.7475
4.00729
3.20765
2.34797
1.43457
0.482883
9.77311
9.31724
8.85494
8.38164
7.89225
7.38102
6.84127
6.26523
5.64399
4.96758
4.2258
3.40975
2.51505
1.54637
0.522464
9.78844
9.36324
8.93171
8.48925
8.03068
7.54992
7.03967
6.49105
5.89318
5.23306
4.49586
3.66648
2.73349
1.69652
0.576642
9.8052
9.41363
9.01606
8.60805
8.18451
7.73928
7.26472
6.75104
6.1856
5.55206
4.82992
3.99515
3.02413
1.90423
0.654021
9.82332
9.4682
9.10765
8.73763
8.35338
7.94901
7.51693
7.04698
6.52528
5.93258
5.24219
4.41844
3.41815
2.20241
0.771562
9.84267
9.52653
9.20582
8.87709
8.53622
8.17798
7.79541
7.37883
6.91427
6.38091
5.74705
4.9643
3.96178
2.64998
0.967067
9.86305
9.58803
9.30955
9.02498
8.73111
8.42383
8.09749
7.74399
7.35103
6.89903
6.35528
5.66275
4.72017
3.35525
1.33703
9.88421
9.65193
9.41751
9.1793
8.93531
8.6829
8.41843
8.13653
7.82875
7.48084
7.06681
6.53484
5.77183
4.5142
2.16242
9.90585
9.71731
9.52809
9.33764
9.14533
8.95032
8.75146
8.54703
8.33432
8.10853
7.86022
7.56733
7.16695
6.43294
4.35796
9.92764
9.78317
9.63951
9.49726
9.35721
9.2204
9.08832
8.96326
8.84893
8.75185
8.68454
8.67444
8.79372
9.28287
11.1653
9.94925
9.84847
9.74993
9.65535
9.56683
9.48718
9.42029
9.37201
9.35154
9.37445
9.46909
9.69165
10.1636
11.1652
13.3286
9.97036
9.91222
9.8576
9.8092
9.77028
9.74506
9.73933
9.76142
9.82399
9.94719
10.1648
10.5356
11.1656
12.2407
14.0475
0.215123
0.385712
0.460186
0.487901
0.48839
0.471267
0.442024
0.404112
0.359851
0.310883
0.258416
0.203373
0.146488
0.0883666
0.029533
0.11545
0.264366
0.348023
0.389334
0.402913
0.397588
0.378891
0.350469
0.314841
0.27382
0.228761
0.180712
0.130512
0.0788637
0.026379
0.0727076
0.188338
0.265263
0.310023
0.330561
0.33319
0.322507
0.301826
0.273572
0.239559
0.201181
0.159542
0.115541
0.0699407
0.0234147
0.0506484
0.139187
0.204839
0.247528
0.270643
0.278034
0.273064
0.258441
0.2363
0.208327
0.175865
0.14001
0.101679
0.0616602
0.0206607
0.0374483
0.10593
0.160359
0.198625
0.221642
0.231461
0.230321
0.220273
0.203078
0.18021
0.152903
0.122198
0.0889878
0.0540603
0.01813
0.0287031
0.082429
0.127102
0.160309
0.181803
0.192495
0.193762
0.187067
0.173792
0.155174
0.132299
0.106123
0.0774887
0.0471563
0.0158282
0.0225132
0.0652143
0.101806
0.130127
0.149465
0.160074
0.16273
0.15843
0.148216
0.133091
0.113988
0.0917548
0.0671679
0.0409435
0.0137541
0.017938
0.0522416
0.0822539
0.106181
0.123186
0.133174
0.136529
0.133898
0.126047
0.113772
0.0978489
0.0790201
0.0579838
0.0354005
0.0119012
0.0144547
0.0422484
0.0669266
0.0870414
0.10178
0.110879
0.114482
0.11299
0.106951
0.0969832
0.0837272
0.0678178
0.0498734
0.0304932
0.0102589
0.0117461
0.0344185
0.0547677
0.0716346
0.0842879
0.0924007
0.0959729
0.0952379
0.0905813
0.0824778
0.0714473
0.0580279
0.0427598
0.0261787
0.00881316
0.00960661
0.0282015
0.0450265
0.0591535
0.0699484
0.0770747
0.0804538
0.0802085
0.0766049
0.0700043
0.0608259
0.0495213
0.0365578
0.0224087
0.00754852
0.00789645
0.0232134
0.0371584
0.0489858
0.0581561
0.0643501
0.0674511
0.0675105
0.064709
0.0593202
0.0516803
0.0421662
0.0311787
0.0191322
0.00644832
0.00651671
0.019178
0.0307606
0.0406627
0.0484301
0.0537729
0.0565599
0.0567986
0.0546094
0.0501987
0.043836
0.035834
0.0265346
0.0162982
0.00549582
0.00539536
0.0158913
0.0255296
0.0338218
0.0403874
0.0449701
0.0474378
0.0477724
0.046052
0.0424325
0.0371295
0.0304023
0.0225411
0.0138571
0.00467469
0.00447866
0.0132001
0.0212331
0.0281795
0.0337214
0.0376355
0.0397967
0.0401727
0.0388128
0.035835
0.0314118
0.0257579
0.0191188
0.0117621
0.00396943
0.00372572
0.0109868
0.0176911
0.0235124
0.0281854
0.0315178
0.0333951
0.0337782
0.032697
0.0302409
0.0265485
0.0217973
0.0161947
0.00996971
0.00336565
0.00310494
0.00916015
0.0147621
0.0196426
0.0235802
0.0264104
0.0280307
0.0284001
0.0275356
0.0255051
0.0224202
0.0184278
0.0137028
0.00844043
0.0028502
0.00259152
0.00764819
0.0123338
0.0164274
0.0197438
0.022143
0.0235347
0.0238788
0.0231837
0.0215013
0.0189218
0.0155669
0.0115838
0.00713875
0.00241125
0.00216586
0.00639379
0.0103167
0.0137517
0.0165441
0.0185751
0.0197659
0.020079
0.0195171
0.0181204
0.0159617
0.0131422
0.00978562
0.00603313
0.00203824
0.00181224
0.00535115
0.00863835
0.0115221
0.013873
0.0155906
0.0166065
0.0168865
0.0164302
0.0152683
0.0134604
0.0110904
0.00826223
0.00509577
0.00172188
0.00151802
0.00448328
0.0072401
0.0096623
0.0116417
0.0130931
0.0139579
0.0142054
0.013833
0.0128648
0.0113494
0.00935652
0.00697372
0.00430243
0.00145404
0.00127295
0.0037601
0.00607416
0.00810997
0.00977689
0.011003
0.0117379
0.0119546
0.0116494
0.0108412
0.00956981
0.00789337
0.00588549
0.00363202
0.00122764
0.00106866
0.00315709
0.00510139
0.00681375
0.00821813
0.00925376
0.00987767
0.0100661
0.00981495
0.00913915
0.00807144
0.00666032
0.00496776
0.00306638
0.00103657
0.000898312
0.00265414
0.00428965
0.00573135
0.00691538
0.0077904
0.00831976
0.00848281
0.00827533
0.00770921
0.00681146
0.00562267
0.00419499
0.00258989
0.000875583
0.000756285
0.00223472
0.00361245
0.00482784
0.00582715
0.006567
0.00701616
0.00715675
0.00698468
0.00650948
0.00575354
0.00475085
0.0035454
0.00218921
0.000740187
0.000637956
0.00188522
0.00304796
0.00407433
0.00491906
0.00554541
0.00592679
0.00604776
0.00590449
0.00550466
0.00486691
0.0040198
0.00300046
0.00185299
0.000626552
0.00053951
0.00159442
0.00257812
0.00344694
0.00416257
0.00469388
0.0050182
0.00512221
0.0050024
0.00466502
0.00412563
0.00340831
0.00254448
0.00157158
0.000531433
0.000457807
0.00135303
0.00218806