/*--------------------------------*- C++ -*----------------------------------*\
| =========                 |                                                 |
| \\      /  F ield         | OpenFOAM: The Open Source CFD Toolbox           |
|  \\    /   O peration     | Version:  5.x                                   |
|   \\  /    A nd           | Web:      www.OpenFOAM.org                      |
|    \\/     M anipulation  |                                                 |
\*---------------------------------------------------------------------------*/
FoamFile
{
    version     2.0;
    format      ascii;
    class       volScalarField;
    location    "9.4";
    object      gradTx;
}
// * * * * * * * * * * * * * * * * * * * * * * * * * * * * * * * * * * * * * //

dimensions      [0 -1 0 1 0 0 0];

internalField   nonuniform List<scalar> 
6300
(
51.6696
52.1084
52.9777
54.2603
55.9292
57.9451
60.2556
62.7927
65.472
68.1933
70.8421
73.295
75.4266
77.119
78.2721
51.2295
51.6765
52.5629
53.8728
55.5806
57.6491
60.0275
62.6489
65.4286
68.2641
71.0364
73.6147
75.8642
77.6566
78.8824
50.3409
50.8037
51.7231
53.0858
54.8697
57.0418
59.555
62.3451
65.3277
68.3964
71.423
74.2616
76.7572
78.7588
80.1363
48.988
49.473
50.4388
51.8762
53.7693
56.0918
58.804
61.8473
65.1392
68.5692
71.9959
75.2499
78.1425
80.4836
82.1058
47.1489
47.66
48.6813
50.2096
52.2378
54.7508
57.7205
61.0992
64.8112
68.7436
72.74
76.5979
80.0776
82.9255
84.9111
44.7973
45.3356
46.4153
48.0418
50.2202
52.9515
56.2265
60.0165
64.261
68.8526
73.6209
78.3223
82.643
86.228
88.7398
41.906
42.4683
43.6013
45.3207
47.6482
50.6071
54.216
58.4777
63.3623
68.7831
74.5671
80.4256
85.9424
90.6019
93.8806
38.4511
39.0291
40.1993
41.9903
44.4435
47.6113
51.5512
56.3144
61.9258
68.3491
75.437
82.8688
90.0975
96.3549
100.783
34.417
34.9963
36.1754
37.9963
40.5229
43.8422
48.0616
53.3016
59.6757
67.2488
75.9615
85.5135
95.2221
103.935
110.173
29.8024
30.3624
31.5086
33.2952
35.8085
39.1715
43.55
49.1533
56.2254
65.0073
75.6448
87.9999
101.341
113.987
123.281
24.6265
25.1412
26.2002
27.8664
30.2429
33.4842
37.8122
43.5349
51.0637
60.9086
73.6089
89.4989
108.151
127.388
142.342
18.935
19.3745
20.2834
21.7262
23.8114
26.7092
30.6783
36.1092
43.5843
53.9531
68.3816
88.2332
114.376
145.071
171.824
12.8029
13.1372
13.8317
14.9424
16.5664
18.8616
22.0816
26.638
33.2099
42.9364
57.7293
80.6746
116.045
166.693
221.839
6.33543
6.53897
6.96288
7.64434
8.64919
10.0881
12.1475
15.1501
19.6798
26.8518
38.9231
60.6887
102.436
183.813
319.282
-0.336433
-0.280556
-0.164406
0.02199
0.29703
0.693296
1.26921
2.13403
3.50617
5.86655
10.421
20.7199
49.1937
146.841
550.942
78.8172
78.8165
78.3588
77.4549
76.1294
74.4175
72.3613
70.0059
67.3966
64.5761
61.5835
58.4531
55.2144
51.8924
48.508
45.0792
41.621
38.1466
34.6677
31.1948
27.7374
24.3042
20.9028
17.5404
14.2232
10.9564
7.74467
4.5917
1.50043
-1.52695
-4.48893
-7.3846
-10.2135
-12.9757
-15.6711
-18.3001
-20.8626
-23.3585
-25.7873
-28.1486
-30.4415
-32.6655
-34.82
-36.9052
-38.9217
-40.871
-42.7551
-44.5766
-46.3385
-48.0439
-49.6955
-51.2956
-52.8454
-54.3454
-55.795
-57.1927
-58.5366
-59.8244
-61.0537
-62.2226
-63.3293
-64.3727
-65.3518
-66.2656
-67.1124
-67.8898
-68.594
-69.2193
-69.7583
-70.2018
-70.5389
-70.7576
-70.8456
-70.7908
-70.5818
-70.2089
-69.6647
-68.9442
-68.0451
-66.968
-65.7167
-64.2978
-62.7211
-60.9992
-59.148
-57.1866
-55.1368
-53.0229
-50.8712
-48.709
79.466
79.4731
78.9998
78.0603
76.6841
74.9118
72.7906
70.3702
67.6992
64.8226
61.7806
58.6078
55.3332
51.9809
48.5711
45.1204
41.6433
38.1522
34.6583
31.1718
27.702
24.2575
20.8462
17.4749
14.15
10.8767
7.6597
4.50254
1.40817
-1.62133
-4.58456
-7.48078
-10.3098
-13.0717
-15.7669
-18.3957
-20.9584
-23.4548
-25.8845
-28.2467
-30.5405
-32.765
-34.9194
-37.0036
-39.0181
-40.9644
-42.8446
-44.6617
-46.4193
-48.1206
-49.7691
-51.3672
-52.9164
-54.4172
-55.8687
-57.2694
-58.6166
-59.9076
-61.1398
-62.311
-63.4195
-64.4643
-65.4449
-66.3609
-67.2113
-67.9942
-68.7064
-69.3424
-69.8948
-70.3538
-70.708
-70.9447
-71.0502
-71.0116
-70.8164
-70.4545
-69.9175
-69.2002
-68.3001
-67.2178
-65.9569
-64.5241
-62.9289
-61.1842
-59.3058
-57.313
-55.2281
-53.0764
-50.8855
-48.6842
80.7989
80.8197
80.3104
79.2929
77.8075
75.9068
73.6491
71.0938
68.2962
65.3058
62.1648
58.9077
55.5625
52.1512
48.6918
45.1988
41.6848
38.1609
34.6373
31.1238
27.6294
24.1625
20.7311
17.3421
14.0019
10.7157
7.48809
4.32267
1.22222
-1.81133
-4.77683
-7.67386
-10.5026
-13.2638
-15.9581
-18.5865
-21.1494
-23.6469
-26.0785
-28.443
-30.7391
-32.965
-35.1195
-37.2019
-39.2123
-41.1522
-43.0243
-44.8322
-46.5802
-48.2729
-49.9145
-51.5083
-53.0563
-54.5589
-56.015
-57.422
-58.7764
-60.0745
-61.3129
-62.4887
-63.6003
-64.6473
-65.63
-66.5494
-67.406
-68.1994
-68.9273
-69.5848
-70.1643
-70.6555
-71.0454
-71.3191
-71.4613
-71.4563
-71.2902
-70.9507
-70.4287
-69.7181
-68.8162
-67.7235
-66.4435
-64.9829
-63.3511
-61.5606
-59.6273
-57.5708
-55.4144
-53.1854
-50.9139
-48.632
82.8924
82.9281
82.351
81.1976
79.5275
77.4141
74.9349
72.1646
69.1693
66.0046
62.7147
59.3334
55.8856
52.3898
48.8597
45.3064
41.7395
38.1681
34.6011
31.0476
27.5163
24.0159
20.5543
17.1387
13.7755
10.4699
7.22657
4.04894
0.939673
-2.09951
-5.06782
-7.96534
-10.7929
-13.552
-16.2443
-18.8714
-21.4344
-23.9337
-26.3687
-28.7377
-31.0383
-33.2676
-35.4231
-37.5032
-39.5075
-41.4373
-43.2959
-45.0882
-46.8201
-48.498
-50.1279
-51.7146
-53.2608
-54.767
-56.2311
-57.6494
-59.0164
-60.3267
-61.575
-62.7577
-63.8732
-64.9216
-65.9053
-66.8272
-67.6907
-68.4979
-69.2483
-69.9382
-70.56
-71.1019
-71.5486
-71.882
-72.0829
-72.1321
-72.0122
-71.7086
-71.2103
-70.5104
-69.6059
-68.4976
-67.1891
-65.687
-64.0006
-62.1415
-60.1253
-57.9714
-55.7045
-53.3546
-50.9563
-48.5474
85.8742
85.9173
85.22
83.8446
81.8843
79.4464
76.6386
73.5578
70.2849
66.8822
63.395
59.8534
56.2767
52.6765
49.06
45.4326
41.7999
38.1681
34.5447
30.9384
27.3581
23.8127
20.3106
16.8594
13.4654
10.1342
6.87004
3.67647
0.555966
-2.48996
-5.4609
-8.35761
-11.1819
-13.9364
-16.6242
-19.2484
-21.811
-24.313
-26.7538
-29.1307
-31.4396
-33.676
-35.835
-37.9133
-39.9093
-41.8243
-43.6625
-45.4305
-47.1371
-48.7916
-50.403
-51.9785
-53.5221
-55.0346
-56.5125
-57.9496
-59.3374
-60.667
-61.9306
-63.1227
-64.2415
-65.2883
-66.2682
-67.1881
-68.0556
-68.8769
-69.6551
-70.3885
-71.0695
-71.6843
-72.2137
-72.6345
-72.9216
-73.0501
-72.9976
-72.7456
-72.281
-71.5961
-70.6881
-69.5586
-68.2122
-66.6557
-64.8974
-62.9478
-60.8204
-58.5337
-56.1132
-53.5925
-51.0131
-48.4221
89.9449
89.9708
89.0637
87.3325
84.9271
82.0101
78.7338
75.2263
71.5858
67.8804
64.1521
60.4227
56.7005
52.9855
49.2747
45.5656
41.8579
38.155
34.4631
30.7911
27.1489
23.5464
19.9932
16.497
13.0647
9.70142
6.41156
3.19847
0.0646288
-2.98855
-5.96101
-8.85425
-11.6714
-14.4169
-17.0959
-19.7138
-22.2746
-24.7805
-27.2306
-29.621
-31.9453
-34.1953
-36.3628
-38.4413
-40.4273
-42.3215
-44.1295
-45.8608
-47.5283
-49.1465
-50.7291
-52.2873
-53.8277
-55.351
-56.8519
-58.3199
-59.7412
-61.1014
-62.388
-63.5925
-64.7122
-65.7505
-66.7165
-67.6234
-68.4857
-69.3168
-70.1254
-70.9133
-71.6732
-72.3885
-73.034
-73.5784
-73.9875
-74.2276
-74.2688
-74.0875
-73.6678
-73.0017
-72.0881
-70.9309
-69.5368
-67.9136
-66.0686
-64.0091
-61.7439
-59.2878
-56.6651
-53.9138
-51.0858
-48.2432
95.4143
95.3661
94.0926
91.7894
88.7051
85.0898
81.1604
77.085
72.9789
68.9102
64.9094
60.9806
57.1126
53.2872
49.4861
45.6955
41.9083
38.125
34.3521
30.6001
26.8816
23.2089
19.5928
16.0423
12.5639
9.16259
5.8422
2.60607
-0.543086
-3.60356
-6.5753
-9.46055
-12.2641
-14.9929
-17.6556
-20.2612
-22.8172
-25.3279
-27.793
-30.2065
-32.5576
-34.833
-37.0183
-39.102
-41.0768
-42.9425
-44.7062
-46.3822
-47.99
-49.5519
-51.0897
-52.6211
-54.1571
-55.699
-57.2379
-58.7565
-60.2321
-61.641
-62.9627
-64.1836
-65.2991
-66.3156
-67.2489
-68.1217
-68.9599
-69.788
-70.6244
-71.477
-72.34
-73.1921
-73.9987
-74.7159
-75.2955
-75.6903
-75.8594
-75.7716
-75.4082
-74.7625
-73.8377
-72.6431
-71.1903
-69.4898
-67.5477
-65.3652
-62.9415
-60.2807
-57.4013
-54.3448
-51.1788
-47.9911
102.769
102.524
100.602
97.3692
93.2462
88.6199
83.796
78.9866
74.317
69.8411
65.5615
61.4498
57.4623
53.5529
49.6814
45.8193
41.9521
38.0792
34.2101
30.3604
26.5478
22.789
19.0977
15.4833
11.9518
8.50683
5.1512
1.88816
-1.27872
-4.34649
-7.31426
-10.1846
-12.9643
-15.664
-18.2976
-20.88
-23.4247
-25.9409
-28.4294
-30.8812
-33.2789
-35.5997
-37.8199
-39.9189
-41.8831
-43.7099
-45.4087
-47.0011
-48.5172
-49.9915
-51.4586
-52.9476
-54.4772
-56.0504
-57.6524
-59.2542
-60.8181
-62.3052
-63.6818
-64.9251
-66.0276
-66.9995
-67.8673
-68.6688
-69.4476
-70.2461
-71.0988
-72.0249
-73.0213
-74.0599
-75.091
-76.0504
-76.8683
-77.4769
-77.8185
-77.8513
-77.5539
-76.9242
-75.9746
-74.7257
-73.1994
-71.4129
-69.3719
-67.0678
-64.4795
-61.5873
-58.3917
-54.9325
-51.3021
-47.6348
112.802
112.094
108.999
104.229
98.5098
92.4328
86.409
80.6855
75.3749
70.4879
65.9709
61.7388
57.6983
53.7628
49.8622
45.9493
42.0033
38.027
34.0392
30.0664
26.1358
22.2715
18.491
14.8044
11.2148
7.72201
4.32654
1.03153
-2.15726
-5.23357
-8.19362
-11.0393
-13.7796
-16.4305
-19.0132
-21.5526
-24.0733
-26.5936
-29.1183
-31.6337
-34.1105
-36.511
-38.7957
-40.9292
-42.8869
-44.6608
-46.264
-47.7294
-49.1038
-50.4408
-51.7951
-53.2149
-54.7339
-56.3594
-58.0665
-59.8054
-61.5136
-63.1276
-64.592
-65.8684
-66.9432
-67.8324
-68.5799
-69.2474
-69.9057
-70.625
-71.4665
-72.4702
-73.6405
-74.9374
-76.2852
-77.5875
-78.7411
-79.6468
-80.2208
-80.4052
-80.1768
-79.545
-78.5411
-77.2064
-75.5822
-73.7009
-71.574
-69.1783
-66.4538
-63.3299
-59.7605
-55.7661
-51.4774
-47.1214
126.877
125.098
119.805
112.452
104.287
96.1666
88.5873
81.7879
75.8213
70.6006
65.9687
61.7506
57.7818
53.9214
50.0596
46.1259
42.097
37.9904
33.8459
29.7106
25.6277
21.6326
17.7487
13.9853
10.3379
6.79665
3.3569
0.0217095
-3.19799
-6.28823
-9.23776
-12.0457
-14.7238
-17.2949
-19.7911
-22.2522
-24.7221
-27.2397
-29.8205
-32.4412
-35.0515
-37.5887
-39.9886
-42.1922
-44.1547
-45.8569
-47.317
-48.5881
-49.7434
-50.8648
-52.0362
-53.3387
-54.8363
-56.5499
-58.4339
-60.3999
-62.3438
-64.1642
-65.7717
-67.101
-68.1247
-68.8685
-69.4063
-69.8383
-70.2747
-70.8267
-71.5993
-72.6744
-74.0762
-75.7402
-77.5434
-79.3375
-80.9696
-82.2932
-83.1825
-83.552
-83.3791
-82.7004
-81.5828
-80.1024
-78.3336
-76.3414
-74.1619
-71.7609
-69.0022
-65.7128
-61.7401
-57.0224
-51.7489
-46.3504
147.515
143.162
133.577
121.84
110.001
99.1186
89.6405
81.6894
75.1916
69.864
65.3694
61.4019
57.7082
54.081
50.3592
46.4389
42.3014
38.0073
33.6387
29.2786
24.9925
20.833
16.832
12.999
9.30745
5.72485
2.23637
-1.15467
-4.42532
-7.54562
-10.4859
-13.2392
-15.822
-18.2671
-20.6194
-22.9389
-25.3023
-27.7943
-30.4649
-33.2634
-36.0975
-38.8637
-41.4639
-43.8017
-45.7967
-47.4012
-48.6414
-49.6128
-50.4312
-51.2158
-52.088
-53.1808
-54.6268
-56.4944
-58.6824
-61.0252
-63.351
-65.5065
-67.3511
-68.7724
-69.7084
-70.1999
-70.3838
-70.4217
-70.4763
-70.7093
-71.2954
-72.407
-74.133
-76.3412
-78.8136
-81.3192
-83.6408
-85.5634
-86.8914
-87.4785
-87.3085
-86.4861
-85.1453
-83.4126
-81.4053
-79.2502
-77.0676
-74.8572
-72.3135
-69.0783
-64.7916
-59.0778
-52.1995
-45.1053
179.856
168.754
150.446
131.374
114.337
100.047
88.4938
79.4967
72.8757
67.9265
64.0098
60.6578
57.5374
54.3758
50.9435
47.0635
42.7304
38.1307
33.4185
28.7395
24.1741
19.8048
15.6731
11.8085
8.11981
4.51723
0.975291
-2.50459
-5.86931
-9.06237
-12.0031
-14.6783
-17.1182
-19.373
-21.4949
-23.5622
-25.6969
-28.0914
-30.9248
-34.0342
-37.2408
-40.3771
-43.3165
-45.9044
-48.0006
-49.4695
-50.3525
-50.857
-51.167
-51.4401
-51.8214
-52.5137
-53.8092
-55.9766
-58.7071
-61.6741
-64.6025
-67.2955
-69.5388
-71.1417
-71.9309
-71.9734
-71.5705
-70.98
-70.4199
-70.0823
-70.2338
-71.2538
-73.4942
-76.5604
-80.0349
-83.5643
-86.8853
-89.6883
-91.666
-92.494
-92.1756
-91.0171
-89.2709
-87.1168
-84.6884
-82.1973
-80.0122
-78.4321
-76.6195
-73.9567
-69.8972
-62.8091
-52.9603
-42.8592
235.641
204.723
168.41
137.975
114.712
97.0343
83.664
73.8806
68.1507
64.501
61.8356
59.5791
57.4247
55.0592
52.1713
48.3395
43.5422
38.4153
33.1494
28.0362
23.0726
18.4336
14.1291
10.3641
6.80782
3.22194
-0.375416
-4.02056
-7.56065
-10.9425
-13.9029
-16.4562
-18.681
-20.6703
-22.4487
-24.0885
-25.717
-27.7561
-30.9872
-34.6644
-38.4849
-42.1735
-45.6748
-48.7145
-51.1071
-52.3807
-52.6078
-52.3808
-51.9551
-51.5079
-51.1062
-50.9772
-51.7354
-54.647
-58.3902
-62.3775
-66.1919
-69.731
-72.6475
-74.6818
-75.2272
-74.3871
-73.0262
-71.4931
-70.042
-68.7498
-67.9201
-68.342
-71.6647
-76.1905
-81.1759
-86.1078
-90.8745
-95
-98.0944
-99.1584
-98.2509
-96.3928
-93.9823
-91.2144
-88.0604
-84.7022
-82.084
-82.3403
-82.1486
-80.845
-79.3626
-70.5148
-54.0833
-38.1999
345.2
248.458
177.909
134.247
107.041
87.8175
73.6675
62.4262
60.429
59.6568
59.0712
58.3521
57.615
56.4936
54.757
51.005
44.8276
38.899
32.6595
27.1168
21.5031
16.5803
11.8078
8.61859
5.53818
1.94293
-1.65754
-5.68797
-9.47994
-13.4297
-16.3889
-18.7071
-20.5827
-22.271
-23.602
-24.6311
-25.1453
-25.7043
-30.4068
-35.088
-39.9186
-44.239
-48.6973
-52.4559
-55.8243
-56.7982
-55.5166
-54.1898
-52.7737
-51.5096
-49.9975
-48.1623
-46.5599
-52.1191
-57.721
-63.329
-68.1765
-73.0622
-77.0254
-80.3647
-80.5177
-77.5497
-74.7286
-71.8872
-69.434
-66.7501
-63.8029
-61.2522
-68.1013
-75.1577
-82.3923
-88.8879
-95.7853
-101.795
-107.445
-108.66
-105.694
-102.562
-99.2067
-95.8666
-91.7249
-86.1399
-80.0154
-86.8921
-89.2773
-87.9896
-99.4329
-89.1399
-54.4162
-27.1544
595.557
254.471
148.687
106.818
87.876
71.2928
59.481
37.6592
50.9421
54.5425
56.4978
57.15
58.3573
58.8127
60.2436
57.162
45.7535
39.8295
31.1656
26.2986
18.9383
14.5099
7.20637
6.71604
5.00961
0.671175
-2.32073
-7.6989
-11.1722
-17.3432
-19.7979
-21.5953
-22.7542
-24.3861
-25.1897
-25.9149
-24.5089
-17.6855
-29.8565
-35.2962
-42.0863
-46.1055
-52.7269
-56.7584
-63.9891
-64.4627
-58.4897
-56.1268
-53.3727
-51.8675
-49.3533
-45.0115
-31.0711
-49.5288
-57.0423
-65.3747
-70.1048
-77.7206
-82.3007
-90.6344
-90.301
-80.4994
-76.4589
-71.721
-69.157
-65.1287
-59.1134
-40.6257
-64.2383
-73.867
-84.6713
-91.0877
-101.973
-109.107
-123.178
-124.183
-113.371
-109.053
-104.407
-101.671
-97.4663
-88.353
-59.2237
-97.9101
-101.694
-76.8
-150.802
-142.943
-44.0031
1.05386
-46.3522
-43.8425
-41.4381
-39.1726
-37.0723
-35.1557
-33.4343
-31.9139
-30.5958
-29.4778
-28.5564
-27.8268
-27.2844
-26.9252
-26.7464
-46.2864
-43.7365
-41.2984
-39.0068
-36.8879
-34.9598
-33.2328
-31.7112
-30.3949
-29.2809
-28.3641
-27.6391
-27.1007
-26.7444
-26.5671
-46.1501
-43.5178
-41.0114
-38.6674
-36.5123
-34.5622
-32.8251
-31.3025
-29.9914
-28.8861
-27.9794
-27.2644
-26.7344
-26.3842
-26.21
-45.9333
-43.1725
-40.5611
-38.1387
-35.9309
-33.951
-32.2024
-30.6819
-29.3817
-28.292
-27.4027
-26.7041
-26.1878
-25.8474
-25.6783
-45.619
-42.6771
-39.9212
-37.3946
-35.1209
-33.1077
-31.3512
-29.8403
-28.5608
-27.4972
-26.6349
-25.961
-25.465
-25.1388
-24.9771
-45.1807
-41.9948
-39.0514
-36.397
-34.0499
-32.0073
-30.2537
-28.767
-27.5235
-26.5005
-25.6781
-25.0396
-24.572
-24.2654
-24.1137
-44.5765
-41.0694
-37.892
-35.0916
-32.6736
-30.6173
-28.8887
-27.45
-26.2651
-25.3028
-24.537
-23.947
-23.5173
-23.2368
-23.0982
-43.7398
-39.8134
-36.3551
-33.403
-30.9352
-28.8992
-27.2334
-25.8785
-24.7839
-23.9082
-23.2195
-22.6937
-22.3131
-22.0657
-21.9438
-42.5582
-38.0885
-34.3115
-31.2296
-28.7643
-26.8106
-25.2665
-24.0465
-23.0832
-22.3262
-21.7388
-21.2946
-20.9754
-20.7687
-20.6672
-40.8321
-35.67
-31.5722
-28.4388
-26.0814
-24.3117
-22.9753
-21.9572
-21.1757
-20.5743
-20.1145
-19.7703
-19.5246
-19.3662
-19.2886
-38.1836
-32.1867
-27.8679
-24.8716
-22.8104
-21.379
-20.3654
-19.631
-19.0878
-18.6804
-18.3741
-18.1473
-17.9862
-17.8827
-17.832
-33.8519
-27.025
-22.8408
-20.3687
-18.9093
-18.0283
-17.4759
-17.1133
-16.8637
-16.6851
-16.5541
-16.4581
-16.3899
-16.3461
-16.3245
-26.2352
-19.22
-16.1013
-14.8527
-14.4295
-14.3485
-14.3965
-14.4822
-14.5685
-14.6418
-14.6989
-14.7406
-14.7692
-14.7868
-14.7952
-11.8948
-7.51811
-7.49123
-8.51111
-9.60711
-10.5394
-11.279
-11.8503
-12.2859
-12.6144
-12.8587
-13.0361
-13.1591
-13.2365
-13.2739
16.4816
8.53368
2.16569
-2.09326
-4.94827
-6.9229
-8.32968
-9.35404
-10.1101
-10.671
-11.0853
-11.3857
-11.5944
-11.7261
-11.7898
-6.50428
-6.58778
-6.76288
-7.04715
-7.47096
-8.08402
-8.9681
-10.2632
-12.2264
-15.382
-20.9726
-32.5795
-63.0223
-167.969
-626.16
-12.0539
-12.2585
-12.6862
-13.3772
-14.4018
-15.8757
-17.9898
-21.0699
-25.7011
-33.0084
-45.3346
-67.9531
-113.298
-208.85
-386.141
-17.462
-17.7748
-18.427
-19.4761
-21.0211
-23.2231
-26.3411
-30.8
-37.3179
-47.15
-62.5491
-87.5438
-128.709
-192.967
-269.238
-22.6532
-23.0559
-23.8927
-25.2308
-27.1846
-29.9347
-33.7614
-39.1006
-46.6335
-57.4258
-73.1003
-95.9054
-128.08
-168.741
-205.3
-27.5651
-28.036
-29.0105
-30.5584
-32.7954
-35.8989
-40.1319
-45.8779
-53.6859
-64.311
-78.6996
-97.7605
-121.559
-147.362
-166.748
-32.1504
-32.6666
-33.7305
-35.4077
-37.8047
-41.0789
-45.4518
-51.2237
-58.7821
-68.5827
-81.0537
-96.3256
-113.645
-130.437
-141.659
-36.3774
-36.9173
-38.0249
-39.7573
-42.2051
-45.4961
-49.8003
-55.329
-62.3214
-71
-81.4625
-93.4685
-106.097
-117.381
-124.362
-40.2298
-40.7741
-41.8855
-43.6105
-46.02
-49.21
-53.2987
-58.4179
-64.6899
-72.1785
-80.7993
-90.1788
-99.4819
-107.312
-111.913
-43.7045
-44.2372
-45.3202
-46.9884
-49.2931
-52.2997
-56.0814
-60.7064
-66.2136
-72.5706
-79.6092
-86.942
-93.8897
-99.4848
-102.659
-46.8094
-47.3184
-48.3488
-49.9245
-52.079
-54.8514
-58.2785
-62.3822
-67.1472
-72.4896
-78.2145
-83.9725
-89.2364
-93.3385
-95.6091
-49.561
-50.0377
-50.9989
-52.4588
-54.436
-56.9483
-60.0059
-63.5987
-67.6798
-72.1428
-76.7968
-81.346
-85.3898
-88.464
-90.1356
-51.9818
-52.4208
-53.3027
-54.634
-56.4213
-58.6668
-61.3616
-64.4761
-67.9471
-71.6634
-75.4519
-79.0702
-82.2163
-84.5632
-85.8228
-54.0978
-54.4964
-55.2946
-56.4927
-58.0886
-60.0734
-62.426
-65.1059
-68.044
-71.1339
-74.225
-77.1223
-79.5976
-81.4174
-82.3844
-55.937
-56.2948
-57.0088
-58.0753
-59.4859
-61.2245
-63.2632
-65.5563
-68.0354
-70.6035
-73.1327
-75.4673
-77.4341
-78.8636
-79.6175
-57.5279
-57.8457
-58.4783
-59.419
-60.6554
-62.1674
-63.9236
-65.8777
-67.9651
-70.1
-72.1756
-74.0675
-75.6437
-76.7789
-77.3741
-58.8982
-59.1782
-59.7341
-60.5574
-61.6336
-62.9407
-64.4465
-66.1065
-67.8617
-69.6378
-71.3459
-72.8871
-74.1593
-75.0691
-75.5439
-60.0742
-60.319
-60.8041
-61.5201
-62.4516
-63.5761
-64.8625
-66.2692
-67.7439
-69.2226
-70.6322
-71.8932
-72.9266
-73.6613
-74.0433
-61.0803
-61.2931
-61.7139
-62.3332
-63.1356
-64.0992
-65.1948
-66.3848
-67.6231
-68.8555
-70.0215
-71.0575
-71.9013
-72.4984
-72.8079
-61.9387
-62.1226
-62.4859
-63.0192
-63.7076
-64.5307
-65.4616
-66.4668
-67.5064
-68.5345
-69.5012
-70.3551
-71.0472
-71.5351
-71.7874
-62.6693
-62.8277
-63.14
-63.5974
-64.1861
-64.8872
-65.6767
-66.525
-67.3977
-68.2562
-69.0592
-69.7651
-70.3349
-70.7354
-70.9421
-63.29
-63.4258
-63.6934
-64.0845
-64.5865
-65.1825
-65.851
-66.5663
-67.2989
-68.0163
-68.6845
-69.2696
-69.7403
-70.0702
-70.2402
-63.8164
-63.9325
-64.1611
-64.4946
-64.9218
-65.4274
-65.9927
-66.5955
-67.2106
-67.8106
-68.3675
-68.8535
-69.2433
-69.516
-69.6564
-64.2621
-64.3612
-64.556
-64.8398
-65.2025
-65.6309
-66.1085
-66.6163
-67.1327
-67.635
-68.0996
-68.5041
-68.8278
-69.0538
-69.17
-64.639
-64.7234
-64.889
-65.1301
-65.4376
-65.8002
-66.2034
-66.631
-67.0647
-67.4854
-67.8736
-68.2107
-68.48
-68.6678
-68.7642
-64.9575
-65.0291
-65.1697
-65.3742
-65.6347
-65.9411
-66.2814
-66.6414
-67.0057
-67.3583
-67.683
-67.9644
-68.1889
-68.3452
-68.4254
-65.2261
-65.2869
-65.4062
-65.5793
-65.7998
-66.0587
-66.3457
-66.6487
-66.9549
-67.2506
-67.5225
-67.7577
-67.9451
-68.0754
-68.1423
-65.4526
-65.5041
-65.6052
-65.7517
-65.9381
-66.1568
-66.3988
-66.654
-66.9113
-67.1596
-67.3874
-67.5842
-67.7409
-67.8497
-67.9055
-65.6434
-65.687
-65.7725
-65.8965
-66.054
-66.2387
-66.4428
-66.6577
-66.8741
-67.0826
-67.2737
-67.4387
-67.5698
-67.6609
-67.7076
-65.8038
-65.8408
-65.9131
-66.018
-66.1511
-66.3071
-66.4792
-66.6603
-66.8425
-67.0178
-67.1782
-67.3167
-67.4266
-67.5029
-67.542
-65.9387
-65.9699
-66.0312
-66.1199
-66.2324
-66.3641
-66.5095
-66.6622
-66.8156
-66.9631
-67.0981
-67.2144
-67.3067
-67.3707
-67.4035
-66.0518
-66.0783
-66.1301
-66.2052
-66.3005
-66.4118
-66.5346
-66.6635
-66.7929
-66.9172
-67.0309
-67.1288
-67.2064
-67.2602
-67.2878
-66.1465
-66.169
-66.213
-66.2766
-66.3573
-66.4515
-66.5554
-66.6644
-66.7738
-66.8788
-66.9747
-67.0572
-67.1226
-67.168
-67.1912
-66.2257
-66.2448
-66.2821
-66.3362
-66.4046
-66.4846
-66.5727
-66.6651
-66.7577
-66.8466
-66.9277
-66.9975
-67.0528
-67.0912
-67.1108
-66.2916
-66.3079
-66.3397
-66.3857
-66.444
-66.5121
-66.587
-66.6655
-66.7443
-66.8197
-66.8886
-66.9479
-66.9948
-67.0273
-67.0439
-66.3463
-66.3602
-66.3874
-66.4268
-66.4766
-66.5348
-66.5988
-66.6659
-66.7331
-66.7975
-66.8562
-66.9068
-66.9468
-66.9745
-66.9886
-66.3913
-66.4032
-66.4266
-66.4605
-66.5034
-66.5534
-66.6085
-66.6661
-66.7238
-66.7791
-66.8296
-66.8729
-66.9073
-66.931
-66.9432
-66.4279
-66.4383
-66.4586
-66.488
-66.5252
-66.5686
-66.6163
-66.6663
-66.7163
-66.7642
-66.8079
-66.8454
-66.8751
-66.8957
-66.9062
-66.4574
-66.4665
-66.4844
-66.5101
-66.5427
-66.5808
-66.6226
-66.6664
-66.7102
-66.7522
-66.7904
-66.8233
-66.8493
-66.8673
-66.8765
-66.4806
-66.4887
-66.5045
-66.5275
-66.5565
-66.5903
-66.6275
-66.6665
-66.7054
-66.7427
-66.7767
-66.8059
-66.829
-66.845
-66.8532
-66.4981
-66.5054
-66.5198
-66.5406
-66.5669
-66.5976
-66.6313
-66.6665
-66.7018
-66.7356
-66.7663
-66.7928
-66.8137
-66.8281
-66.8355
-66.5105
-66.5173
-66.5307
-66.5499
-66.5743
-66.6027
-66.6339
-66.6665
-66.6992
-66.7305
-66.759
-66.7834
-66.8028
-66.8162
-66.823
-66.5182
-66.5247
-66.5374
-66.5557
-66.5788
-66.6059
-66.6355
-66.6666
-66.6976
-66.7274
-66.7544
-66.7777
-66.7961
-66.8088
-66.8153
-66.5214
-66.5278
-66.5402
-66.5581
-66.5807
-66.6072
-66.6362
-66.6666
-66.697
-66.726
-66.7525
-66.7753
-66.7933
-66.8057
-66.8121
-66.5202
-66.5266
-66.5391
-66.5572
-66.58
-66.6067
-66.636
-66.6666
-66.6972
-66.7265
-66.7532
-66.7762
-66.7943
-66.8069
-66.8133
-66.5146
-66.5212
-66.5342
-66.553
-66.5767
-66.6044
-66.6348
-66.6666
-66.6984
-66.7288
-66.7566
-66.7804
-66.7992
-66.8123
-66.8189
-66.5044
-66.5114
-66.5253
-66.5453
-66.5706
-66.6002
-66.6326
-66.6666
-66.7005
-66.733
-66.7626
-66.7881
-66.8082
-66.8221
-66.8292
-66.4892
-66.4969
-66.5121
-66.534
-66.5616
-66.5939
-66.6294
-66.6665
-66.7037
-66.7392
-66.7716
-66.7994
-66.8214
-66.8366
-66.8444
-66.4687
-66.4773
-66.4942
-66.5186
-66.5495
-66.5855
-66.625
-66.6665
-66.7079
-66.7476
-66.7837
-66.8148
-66.8394
-66.8564
-66.8651
-66.4422
-66.4519
-66.4711
-66.4987
-66.5337
-66.5745
-66.6194
-66.6664
-66.7134
-66.7584
-66.7994
-66.8347
-66.8626
-66.8819
-66.8917
-66.4089
-66.4201
-66.442
-66.4738
-66.5139
-66.5608
-66.6123
-66.6663
-66.7203
-66.772
-66.8191
-66.8596
-66.8917
-66.9139
-66.9253
-66.3678
-66.3808
-66.4062
-66.443
-66.4895
-66.5438
-66.6036
-66.6661
-66.7288
-66.7888
-66.8435
-66.8905
-66.9277
-66.9535
-66.9667
-66.3177
-66.3328
-66.3625
-66.4054
-66.4597
-66.5231
-66.5928
-66.6659
-66.7391
-66.8092
-66.8731
-66.9281
-66.9716
-67.0018
-67.0172
-66.257
-66.2748
-66.3096
-66.3599
-66.4236
-66.498
-66.5798
-66.6656
-66.7515
-66.8339
-66.9091
-66.9737
-67.0249
-67.0603
-67.0785
-66.1841
-66.205
-66.2459
-66.3051
-66.3801
-66.4676
-66.564
-66.6651
-66.7665
-66.8636
-66.9523
-67.0286
-67.089
-67.1309
-67.1523
-66.0966
-66.1212
-66.1695
-66.2393
-66.3278
-66.4312
-66.545
-66.6645
-66.7843
-66.8992
-67.0042
-67.0945
-67.166
-67.2157
-67.241
-65.992
-66.0211
-66.0781
-66.1606
-66.2652
-66.3875
-66.5222
-66.6636
-66.8055
-66.9417
-67.0662
-67.1734
-67.2583
-67.3172
-67.3474
-65.8672
-65.9016
-65.969
-66.0666
-66.1903
-66.3351
-66.4947
-66.6623
-66.8307
-66.9924
-67.1403
-67.2677
-67.3687
-67.4388
-67.4746
-65.7185
-65.7592
-65.8389
-65.9544
-66.1009
-66.2724
-66.4616
-66.6605
-66.8605
-67.0527
-67.2286
-67.3802
-67.5006
-67.5841
-67.6268
-65.5416
-65.5897
-65.684
-65.8207
-65.9942
-66.1974
-66.4218
-66.658
-66.8956
-67.1243
-67.3338
-67.5145
-67.658
-67.7576
-67.8087
-65.3314
-65.3882
-65.4997
-65.6614
-65.8668
-66.1076
-66.3739
-66.6544
-66.937
-67.2093
-67.459
-67.6745
-67.8459
-67.965
-68.026
-65.0816
-65.1487
-65.2805
-65.4717
-65.7148
-66.0002
-66.3161
-66.6494
-66.9856
-67.31
-67.6078
-67.8653
-68.0702
-68.2126
-68.2856
-64.7852
-64.8645
-65.02
-65.2459
-65.5335
-65.8715
-66.2463
-66.6422
-67.0424
-67.4291
-67.7847
-68.0925
-68.3378
-68.5084
-68.5959
-64.4338
-64.5272
-64.7106
-64.9773
-65.3173
-65.7174
-66.1618
-66.6322
-67.1086
-67.5698
-67.9947
-68.3632
-68.6572
-68.8619
-68.967
-64.0176
-64.1275
-64.3435
-64.6579
-65.0592
-65.5325
-66.0592
-66.618
-67.1852
-67.7357
-68.244
-68.6856
-69.0385
-69.2846
-69.4111
-63.525
-63.6541
-63.908
-64.2781
-64.7513
-65.3105
-65.9343
-66.598
-67.2735
-67.9309
-68.5395
-69.0695
-69.494
-69.7905
-69.9429
-62.9428
-63.0941
-63.3919
-63.8267
-64.3837
-65.0435
-65.7819
-66.5697
-67.3743
-68.1599
-68.8895
-69.5268
-70.0383
-70.3963
-70.5805
-62.2556
-62.4324
-62.7808
-63.2903
-63.9447
-64.7221
-65.595
-66.5299
-67.4883
-68.4278
-69.3037
-70.0713
-70.6893
-71.1227
-71.3461
-61.4455
-61.6515
-62.0579
-62.6534
-63.4203
-64.3345
-65.365
-66.4736
-67.6154
-68.7399
-69.793
-70.7197
-71.4684
-71.9949
-72.2667
-60.4925
-60.7316
-61.2038
-61.8974
-62.7935
-63.8662
-65.0808
-66.3943
-67.7546
-69.1017
-70.37
-71.4918
-72.4019
-73.0439
-73.3761
-59.3736
-59.6497
-60.1961
-61.0007
-62.0443
-63.2992
-64.7281
-66.2825
-67.9028
-69.5181
-71.0488
-72.4107
-73.5214
-74.3081
-74.7161
-58.0629
-58.3801
-59.0091
-59.9381
-61.1483
-62.6115
-64.2881
-66.1251
-68.0545
-69.9932
-71.8447
-73.504
-74.8658
-75.8351
-76.3394
-56.5321
-56.8942
-57.6137
-58.6804
-60.0768
-61.7757
-63.7367
-65.9034
-68.1997
-70.5289
-72.7741
-74.804
-76.4827
-77.6849
-78.3128
-54.75
-55.1602
-55.9773
-57.1937
-58.7953
-60.7578
-63.0427
-65.5917
-68.3222
-71.1227
-73.8528
-76.3477
-78.4306
-79.9334
-80.7221
-52.6831
-53.1436
-54.0636
-55.4396
-57.2631
-59.5161
-62.1651
-65.1541
-68.396
-71.7655
-75.0949
-78.1774
-80.7812
-82.6776
-83.679
-50.2965
-50.8081
-51.8334
-53.375
-55.4329
-57.9994
-61.0515
-64.5408
-68.3811
-72.436
-76.5084
-80.3394
-83.623
-86.0431
-87.3312
-47.5549
-48.1161
-49.2448
-50.9518
-53.2495
-56.1456
-59.6344
-63.6837
-68.2173
-73.0944
-78.0895
-82.8814
-87.0643
-90.1945
-91.8778
-44.4236
-45.0301
-46.2546
-48.1187
-50.6507
-53.8803
-57.8282
-62.4903
-67.8149
-73.6707
-79.8115
-85.8463
-91.2366
-95.3504
-97.5931
-40.8714
-41.5152
-42.8206
-44.8218
-47.5676
-51.1163
-55.5259
-60.837
-67.0435
-74.0489
-81.607
-89.2585
-96.2951
-101.805
-104.866
-36.8722
-37.5412
-38.9035
-41.008
-43.9272
-47.7546
-52.5978
-58.5618
-65.7174
-74.0434
-83.3374
-93.0975
-102.413
-109.962
-114.263
-32.4088
-33.0859
-34.4713
-36.6288
-39.6562
-43.6876
-48.8913
-55.4593
-63.5785
-73.3656
-84.744
-97.2449
-109.758
-120.373
-126.647
-27.4754
-28.139
-29.5034
-31.6456
-34.6882
-38.8068
-44.2375
-51.2797
-60.2814
-71.5826
-85.3708
-101.384
-118.42
-133.798
-143.387
-22.0815
-22.7058
-23.9955
-26.0374
-28.9733
-33.015
-38.4648
-45.7393
-55.3874
-68.0726
-84.4525
-104.811
-128.234
-151.244
-166.785
-16.2545
-16.8109
-17.9657
-19.8088
-22.4908
-26.2457
-31.425
-38.5509
-48.3844
-61.9969
-80.7709
-106.111
-138.334
-173.875
-200.975
-10.0416
-10.5009
-11.4583
-12.9979
-15.2637
-18.4873
-23.0339
-29.4823
-38.7572
-52.3369
-72.5295
-102.631
-146.13
-202.366
-253.984
-3.51024
-3.84553
-4.54711
-5.68297
-7.372
-9.81063
-13.3224
-18.4513
-26.1407
-38.085
-57.407
-89.8457
-145.08
-234.064
-342.836
3.25344
3.0637
2.66515
2.01555
1.03984
-0.389122
-2.48847
-5.64258
-10.5701
-18.7099
-33.1759
-61.2305
-120.591
-252.018
-507.222
10.1483
10.1173
10.0512
9.93997
9.7659
9.49739
9.07742
8.39706
7.2308
5.05785
0.491285
-10.8749
-46.0559
-184.015
-848.828
17.0639
17.1948
17.4678
17.9075
18.5569
19.4885
20.8234
22.7734
25.7299
30.4871
38.8799
56.0184
99.8531
249.858
927.237
23.8879
24.1729
24.7681
25.7285
27.1514
29.1986
32.1416
36.4497
42.9777
53.3906
71.1943
104.371
172.031
317.497
594.379
30.5133
30.935
31.8139
33.2278
35.3115
38.2859
42.5108
48.5832
57.5265
71.1606
92.8319
128.777
190.173
293.872
453.818
53.4745
21.7995
9.08453
2.50288
-1.4846
-4.12818
-5.97653
-7.31155
-8.29437
-9.02392
-9.56393
-9.95667
-10.2304
-10.4036
-10.4876
33.8007
20.6923
11.1151
4.87964
0.730936
-2.13973
-4.19371
-5.69924
-6.81948
-7.65803
-8.28301
-8.7401
-9.0601
-9.26326
-9.36192
23.2295
17.1326
10.8248
5.80723
2.05894
-0.718391
-2.7917
-4.35444
-5.54011
-6.44038
-7.11858
-7.61864
-7.97082
-8.19536
-8.30467
16.892
13.7192
9.63851
5.85327
2.71265
0.214053
-1.74423
-3.27143
-4.45887
-5.37687
-6.07777
-6.59977
-6.97009
-7.20738
-7.32323
12.7577
10.936
8.24691
5.45159
2.92046
0.771279
-0.996102
-2.42434
-3.56469
-4.46405
-5.16113
-5.68615
-6.06167
-6.30363
-6.42215
9.88826
8.75503
6.92901
4.86638
2.86301
1.06335
-0.483478
-1.77714
-2.83782
-3.69165
-4.36391
-4.87628
-5.24594
-5.48553
-5.60329
7.80569
7.05507
5.77533
4.23996
2.66404
1.17984
-0.146663
-1.2917
-2.25456
-3.0453
-3.67768
-4.16544
-4.52046
-4.75196
-4.86615
6.24429
5.72247
4.79909
3.64166
2.40135
1.18681
0.0641327
-0.932764
-1.79081
-2.50889
-3.09184
-3.54673
-3.88072
-4.0998
-4.20825
5.04518
4.66865
3.98534
3.10086
2.12074
1.12997
0.187579
-0.670241
-1.42423
-2.06628
-2.59489
-3.01195
-3.32071
-3.52442
-3.62561
4.1075
3.82783
3.31124
2.62644
1.84751
1.03951
0.252292
-0.479813
-1.13537
-1.70243
-2.17536
-2.55234
-2.83361
-3.0202
-3.11318
3.36399
3.15147
2.75391
2.21736
1.59444
0.934607
0.27873
-0.342534
-0.907961
-1.40394
-1.82243
-2.15917
-2.41223
-2.58096
-2.66529
2.76802
2.60358
2.29307
1.86822
1.36698
0.826948
0.281127
-0.244028
-0.728766
-1.15923
-1.52625
-1.82408
-2.04937
-2.20029
-2.27592
2.2862
2.15711
1.9116
1.57212
1.16644
0.723301
0.269168
-0.173585
-0.587252
-0.958575
-1.27809
-1.53935
-1.73814
-1.87187
-1.93906
1.894
1.79146
1.59536
1.32196
0.991894
0.627281
0.249303
-0.123338
-0.475135
-0.793882
-1.07038
-1.29798
-1.47208
-1.58963
-1.64883
1.57298