# vtk DataFile Version 2.0
generated by CFD-lab course output (written by Tobias Neckel) 
ASCII

DATASET STRUCTURED_GRID
DIMENSIONS  142 42 1 
POINTS 5964 float

0.000000 0.250000 0
0.024648 0.250000 0
0.049296 0.250000 0
0.073944 0.250000 0
0.098592 0.250000 0
0.123239 0.250000 0
0.147887 0.250000 0
0.172535 0.250000 0
0.197183 0.250000 0
0.221831 0.250000 0
0.246479 0.250000 0
0.271127 0.250000 0
0.295775 0.250000 0
0.320423 0.250000 0
0.345070 0.250000 0
0.369718 0.250000 0
0.394366 0.250000 0
0.419014 0.250000 0
0.443662 0.250000 0
0.468310 0.250000 0
0.492958 0.250000 0
0.517606 0.250000 0
0.542254 0.250000 0
0.566901 0.250000 0
0.591549 0.250000 0
0.616197 0.250000 0
0.640845 0.250000 0
0.665493 0.250000 0
0.690141 0.250000 0
0.714789 0.250000 0
0.739437 0.250000 0
0.764085 0.250000 0
0.788732 0.250000 0
0.813380 0.250000 0
0.838028 0.250000 0
0.862676 0.250000 0
0.887324 0.250000 0
0.911972 0.250000 0
0.936620 0.250000 0
0.961268 0.250000 0
0.985915 0.250000 0
1.010563 0.250000 0
1.035211 0.250000 0
1.059859 0.250000 0
1.084507 0.250000 0
1.109155 0.250000 0
1.133803 0.250000 0
1.158451 0.250000 0
1.183099 0.250000 0
1.207746 0.250000 0
1.232394 0.250000 0
1.257042 0.250000 0
1.281690 0.250000 0
1.306338 0.250000 0
1.330986 0.250000 0
1.355634 0.250000 0
1.380282 0.250000 0
1.404930 0.250000 0
1.429577 0.250000 0
1.454225 0.250000 0
1.478873 0.250000 0
1.503521 0.250000 0
1.528169 0.250000 0
1.552817 0.250000 0
1.577465 0.250000 0
1.602113 0.250000 0
1.626761 0.250000 0
1.651408 0.250000 0
1.676056 0.250000 0
1.700704 0.250000 0
1.725352 0.250000 0
1.750000 0.250000 0
1.774648 0.250000 0
1.799296 0.250000 0
1.823944 0.250000 0
1.848592 0.250000 0
1.873239 0.250000 0
1.897887 0.250000 0
1.922535 0.250000 0
1.947183 0.250000 0
1.971831 0.250000 0
1.996479 0.250000 0
2.021127 0.250000 0
2.045775 0.250000 0
2.070423 0.250000 0
2.095070 0.250000 0
2.119718 0.250000 0
2.144366 0.250000 0
2.169014 0.250000 0
2.193662 0.250000 0
2.218310 0.250000 0
2.242958 0.250000 0
2.267606 0.250000 0
2.292254 0.250000 0
2.316901 0.250000 0
2.341549 0.250000 0
2.366197 0.250000 0
2.390845 0.250000 0
2.415493 0.250000 0
2.440141 0.250000 0
2.464789 0.250000 0
2.489437 0.250000 0
2.514085 0.250000 0
2.538732 0.250000 0
2.563380 0.250000 0
2.588028 0.250000 0
2.612676 0.250000 0
2.637324 0.250000 0
2.661972 0.250000 0
2.686620 0.250000 0
2.711268 0.250000 0
2.735915 0.250000 0
2.760563 0.250000 0
2.785211 0.250000 0
2.809859 0.250000 0
2.834507 0.250000 0
2.859155 0.250000 0
2.883803 0.250000 0
2.908451 0.250000 0
2.933099 0.250000 0
2.957746 0.250000 0
2.982394 0.250000 0
3.007042 0.250000 0
3.031690 0.250000 0
3.056338 0.250000 0
3.080986 0.250000 0
3.105634 0.250000 0
3.130282 0.250000 0
3.154930 0.250000 0
3.179577 0.250000 0
3.204225 0.250000 0
3.228873 0.250000 0
3.253521 0.250000 0
3.278169 0.250000 0
3.302817 0.250000 0
3.327465 0.250000 0
3.352113 0.250000 0
3.376761 0.250000 0
3.401408 0.250000 0
3.426056 0.250000 0
3.450704 0.250000 0
3.475352 0.250000 0
0.000000 0.261905 0
0.024648 0.261905 0
0.049296 0.261905 0
0.073944 0.261905 0
0.098592 0.261905 0
0.123239 0.261905 0
0.147887 0.261905 0
0.172535 0.261905 0
0.197183 0.261905 0
0.221831 0.261905 0
0.246479 0.261905 0
0.271127 0.261905 0
0.295775 0.261905 0
0.320423 0.261905 0
0.345070 0.261905 0
0.369718 0.261905 0
0.394366 0.261905 0
0.419014 0.261905 0
0.443662 0.261905 0
0.468310 0.261905 0
0.492958 0.261905 0
0.517606 0.261905 0
0.542254 0.261905 0
0.566901 0.261905 0
0.591549 0.261905 0
0.616197 0.261905 0
0.640845 0.261905 0
0.665493 0.261905 0
0.690141 0.261905 0
0.714789 0.261905 0
0.739437 0.261905 0
0.764085 0.261905 0
0.788732 0.261905 0
0.813380 0.261905 0
0.838028 0.261905 0
0.862676 0.261905 0
0.887324 0.261905 0
0.911972 0.261905 0
0.936620 0.261905 0
0.961268 0.261905 0
0.985915 0.261905 0
1.010563 0.261905 0
1.035211 0.261905 0
1.059859 0.261905 0
1.084507 0.261905 0
1.109155 0.261905 0
1.133803 0.261905 0
1.158451 0.261905 0
1.183099 0.261905 0
1.207746 0.261905 0
1.232394 0.261905 0
1.257042 0.261905 0
1.281690 0.261905 0
1.306338 0.261905 0
1.330986 0.261905 0
1.355634 0.261905 0
1.380282 0.261905 0
1.404930 0.261905 0
1.429577 0.261905 0
1.454225 0.261905 0
1.478873 0.261905 0
1.503521 0.261905 0
1.528169 0.261905 0
1.552817 0.261905 0
1.577465 0.261905 0
1.602113 0.261905 0
1.626761 0.261905 0
1.651408 0.261905 0
1.676056 0.261905 0
1.700704 0.261905 0
1.725352 0.261905 0
1.750000 0.261905 0
1.774648 0.261905 0
1.799296 0.261905 0
1.823944 0.261905 0
1.848592 0.261905 0
1.873239 0.261905 0
1.897887 0.261905 0
1.922535 0.261905 0
1.947183 0.261905 0
1.971831 0.261905 0
1.996479 0.261905 0
2.021127 0.261905 0
2.045775 0.261905 0
2.070423 0.261905 0
2.095070 0.261905 0
2.119718 0.261905 0
2.144366 0.261905 0
2.169014 0.261905 0
2.193662 0.261905 0
2.218310 0.261905 0
2.242958 0.261905 0
2.267606 0.261905 0
2.292254 0.261905 0
2.316901 0.261905 0
2.341549 0.261905 0
2.366197 0.261905 0
2.390845 0.261905 0
2.415493 0.261905 0
2.440141 0.261905 0
2.464789 0.261905 0
2.489437 0.261905 0
2.514085 0.261905 0
2.538732 0.261905 0
2.563380 0.261905 0
2.588028 0.261905 0
2.612676 0.261905 0
2.637324 0.261905 0
2.661972 0.261905 0
2.686620 0.261905 0
2.711268 0.261905 0
2.735915 0.261905 0
2.760563 0.261905 0
2.785211 0.261905 0
2.809859 0.261905 0
2.834507 0.261905 0
2.859155 0.261905 0
2.883803 0.261905 0
2.908451 0.261905 0
2.933099 0.261905 0
2.957746 0.261905 0
2.982394 0.261905 0
3.007042 0.261905 0
3.031690 0.261905 0
3.056338 0.261905 0
3.080986 0.261905 0
3.105634 0.261905 0
3.130282 0.261905 0
3.154930 0.261905 0
3.179577 0.261905 0
3.204225 0.261905 0
3.228873 0.261905 0
3.253521 0.261905 0
3.278169 0.261905 0
3.302817 0.261905 0
3.327465 0.261905 0
3.352113 0.261905 0
3.376761 0.261905 0
3.401408 0.261905 0
3.426056 0.261905 0
3.450704 0.261905 0
3.475352 0.261905 0
0.000000 0.273810 0
0.024648 0.273810 0
0.049296 0.273810 0
0.073944 0.273810 0
0.098592 0.273810 0
0.123239 0.273810 0
0.147887 0.273810 0
0.172535 0.273810 0
0.197183 0.273810 0
0.221831 0.273810 0
0.246479 0.273810 0
0.271127 0.273810 0
0.295775 0.273810 0
0.320423 0.273810 0
0.345070 0.273810 0
0.369718 0.273810 0
0.394366 0.273810 0
0.419014 0.273810 0
0.443662 0.273810 0
0.468310 0.273810 0
0.492958 0.273810 0
0.517606 0.273810 0
0.542254 0.273810 0
0.566901 0.273810 0
0.591549 0.273810 0
0.616197 0.273810 0
0.640845 0.273810 0
0.665493 0.273810 0
0.690141 0.273810 0
0.714789 0.273810 0
0.739437 0.273810 0
0.764085 0.273810 0
0.788732 0.273810 0
0.813380 0.273810 0
0.838028 0.273810 0
0.862676 0.273810 0
0.887324 0.273810 0
0.911972 0.273810 0
0.936620 0.273810 0
0.961268 0.273810 0
0.985915 0.273810 0
1.010563 0.273810 0
1.035211 0.273810 0
1.059859 0.273810 0
1.084507 0.273810 0
1.109155 0.273810 0
1.133803 0.273810 0
1.158451 0.273810 0
1.183099 0.273810 0
1.207746 0.273810 0
1.232394 0.273810 0
1.257042 0.273810 0
1.281690 0.273810 0
1.306338 0.273810 0
1.330986 0.273810 0
1.355634 0.273810 0
1.380282 0.273810 0
1.404930 0.273810 0
1.429577 0.273810 0
1.454225 0.273810 0
1.478873 0.273810 0
1.503521 0.273810 0
1.528169 0.273810 0
1.552817 0.273810 0
1.577465 0.273810 0
1.602113 0.273810 0
1.626761 0.273810 0
1.651408 0.273810 0
1.676056 0.273810 0
1.700704 0.273810 0
1.725352 0.273810 0
1.750000 0.273810 0
1.774648 0.273810 0
1.799296 0.273810 0
1.823944 0.273810 0
1.848592 0.273810 0
1.873239 0.273810 0
1.897887 0.273810 0
1.922535 0.273810 0
1.947183 0.273810 0
1.971831 0.273810 0
1.996479 0.273810 0
2.021127 0.273810 0
2.045775 0.273810 0
2.070423 0.273810 0
2.095070 0.273810 0
2.119718 0.273810 0
2.144366 0.273810 0
2.169014 0.273810 0
2.193662 0.273810 0
2.218310 0.273810 0
2.242958 0.273810 0
2.267606 0.273810 0
2.292254 0.273810 0
2.316901 0.273810 0
2.341549 0.273810 0
2.366197 0.273810 0
2.390845 0.273810 0
2.415493 0.273810 0
2.440141 0.273810 0
2.464789 0.273810 0
2.489437 0.273810 0
2.514085 0.273810 0
2.538732 0.273810 0
2.563380 0.273810 0
2.588028 0.273810 0
2.612676 0.273810 0
2.637324 0.273810 0
2.661972 0.273810 0
2.686620 0.273810 0
2.711268 0.273810 0
2.735915 0.273810 0
2.760563 0.273810 0
2.785211 0.273810 0
2.809859 0.273810 0
2.834507 0.273810 0
2.859155 0.273810 0
2.883803 0.273810 0
2.908451 0.273810 0
2.933099 0.273810 0
2.957746 0.273810 0
2.982394 0.273810 0
3.007042 0.273810 0
3.031690 0.273810 0
3.056338 0.273810 0
3.080986 0.273810 0
3.105634 0.273810 0
3.130282 0.273810 0
3.154930 0.273810 0
3.179577 0.273810 0
3.204225 0.273810 0
3.228873 0.273810 0
3.253521 0.273810 0
3.278169 0.273810 0
3.302817 0.273810 0
3.327465 0.273810 0
3.352113 0.273810 0
3.376761 0.273810 0
3.401408 0.273810 0
3.426056 0.273810 0
3.450704 0.273810 0
3.475352 0.273810 0
0.000000 0.285714 0
0.024648 0.285714 0
0.049296 0.285714 0
0.073944 0.285714 0
0.098592 0.285714 0
0.123239 0.285714 0
0.147887 0.285714 0
0.172535 0.285714 0
0.197183 0.285714 0
0.221831 0.285714 0
0.246479 0.285714 0
0.271127 0.285714 0
0.295775 0.285714 0
0.320423 0.285714 0
0.345070 0.285714 0
0.369718 0.285714 0
0.394366 0.285714 0
0.419014 0.285714 0
0.443662 0.285714 0
0.468310 0.285714 0
0.492958 0.285714 0
0.517606 0.285714 0
0.542254 0.285714 0
0.566901 0.285714 0
0.591549 0.285714 0
0.616197 0.285714 0
0.640845 0.285714 0
0.665493 0.285714 0
0.690141 0.285714 0
0.714789 0.285714 0
0.739437 0.285714 0
0.764085 0.285714 0
0.788732 0.285714 0
0.813380 0.285714 0
0.838028 0.285714 0
0.862676 0.285714 0
0.887324 0.285714 0
0.911972 0.285714 0
0.936620 0.285714 0
0.961268 0.285714 0
0.985915 0.285714 0
1.010563 0.285714 0
1.035211 0.285714 0
1.059859 0.285714 0
1.084507 0.285714 0
1.109155 0.285714 0
1.133803 0.285714 0
1.158451 0.285714 0
1.183099 0.285714 0
1.207746 0.285714 0
1.232394 0.285714 0
1.257042 0.285714 0
1.281690 0.285714 0
1.306338 0.285714 0
1.330986 0.285714 0
1.355634 0.285714 0
1.380282 0.285714 0
1.404930 0.285714 0
1.429577 0.285714 0
1.454225 0.285714 0
1.478873 0.285714 0
1.503521 0.285714 0
1.528169 0.285714 0
1.552817 0.285714 0
1.577465 0.285714 0
[...]
POINT_DATA 5964 

VECTORS velocity float
1.000000 0.000000 0
0.999860 0.000000 0
0.999572 0.000000 0
0.999117 0.000000 0
0.998475 0.000000 0
0.997629 0.000000 0
0.996569 0.000000 0
0.995282 0.000000 0
0.993740 0.000000 0
0.991884 0.000000 0
0.989621 0.000000 0
0.986799 0.000000 0
0.983186 0.000000 0
0.978403 0.000000 0
0.971812 0.000000 0
0.962173 0.000000 0
0.947151 0.000000 0
0.918662 0.000000 0
0.865622 0.000000 0
-0.000026 0.000000 0
-0.000029 0.000000 0
-0.000038 0.000000 0
-0.000056 0.000000 0
-0.000077 0.000000 0
-0.000096 0.000000 0
-0.000107 0.000000 0
-0.000111 0.000000 0
-0.000111 0.000000 0
-0.000110 0.000000 0
-0.000108 0.000000 0
-0.000106 0.000000 0
-0.000105 0.000000 0
-0.000104 0.000000 0
-0.000104 0.000000 0
-0.000104 0.000000 0
-0.000103 0.000000 0
-0.000103 0.000000 0
-0.000103 0.000000 0
-0.000103 0.000000 0
-0.000103 0.000000 0
-0.000103 0.000000 0
-0.000103 0.000000 0
-0.000103 0.000000 0
-0.000102 0.000000 0
-0.000102 0.000000 0
-0.000102 0.000000 0
-0.000102 0.000000 0
-0.000102 0.000000 0
-0.000102 0.000000 0
-0.000102 0.000000 0
-0.000102 0.000000 0
-0.000102 0.000000 0
-0.000102 0.000000 0
-0.000102 0.000000 0
-0.000102 0.000000 0
-0.000102 0.000000 0
-0.000102 0.000000 0
-0.000102 0.000000 0
-0.000102 0.000000 0
-0.000102 0.000000 0
-0.000102 0.000000 0
-0.000102 0.000000 0
-0.000102 0.000000 0
-0.000102 0.000000 0
-0.000102 0.000000 0
-0.000102 0.000000 0
-0.000102 0.000000 0
-0.000102 0.000000 0
-0.000102 0.000000 0
-0.000102 0.000000 0
-0.000102 0.000000 0
-0.000102 0.000000 0
-0.000102 0.000000 0
-0.000102 0.000000 0
-0.000102 0.000000 0
-0.000102 0.000000 0
-0.000102 0.000000 0
-0.000102 0.000000 0
-0.000102 0.000000 0
-0.000102 0.000000 0
-0.000102 0.000000 0
-0.000102 0.000000 0
-0.000102 0.000000 0
-0.000102 0.000000 0
-0.000102 0.000000 0
-0.000102 0.000000 0
-0.000102 0.000000 0
-0.000102 0.000000 0
-0.000102 0.000000 0
-0.000102 0.000000 0
-0.000102 0.000000 0
-0.000102 0.000000 0
-0.000102 0.000000 0
-0.000102 0.000000 0
-0.000102 0.000000 0
-0.000102 0.000000 0
-0.000102 0.000000 0
-0.000102 0.000000 0
-0.000102 0.000000 0
-0.000102 0.000000 0
-0.000102 0.000000 0
-0.000102 0.000000 0
-0.000102 0.000000 0
-0.000102 0.000000 0
-0.000102 0.000000 0
-0.000102 0.000000 0
-0.000102 0.000000 0
-0.000102 0.000000 0
-0.000102 0.000000 0
-0.000102 0.000000 0
-0.000102 0.000000 0
-0.000102 0.000000 0
-0.000102 0.000000 0
-0.000102 0.000000 0
-0.000102 0.000000 0
-0.000102 0.000000 0
-0.000101 0.000000 0
-0.000101 0.000000 0
-0.000101 0.000000 0
-0.000101 0.000000 0
-0.000101 0.000000 0
-0.000101 0.000000 0
-0.000101 0.000000 0
-0.000100 0.000000 0
-0.000100 0.000000 0
-0.000100 0.000000 0
-0.000099 0.000000 0
-0.000099 0.000000 0
-0.000098 0.000000 0
-0.000097 0.000000 0
-0.000096 0.000000 0
-0.000095 0.000000 0
-0.000093 0.000000 0
-0.000091 0.000000 0
-0.000088 0.000000 0
-0.000084 0.000000 0
-0.000079 0.000000 0
-0.000072 0.000000 0
-0.000059 0.000000 0
-0.000043 0.000000 0
0.000001 0.000000 0
0.497467 0.000000 0
1.000000 0.000034 0
0.999861 0.000103 0
0.999574 0.000179 0
0.999121 0.000265 0
0.998483 0.000359 0
0.997643 0.000460 0
0.996592 0.000567 0
0.995315 0.000683 0
0.993785 0.000821 0
0.991946 0.000995 0
0.989704 0.001228 0
0.986914 0.001555 0
0.983348 0.002028 0
0.978644 0.002747 0
0.972195 0.003921 0
0.962865 0.005957 0
0.948548 0.010509 0
0.923079 0.019692 0
0.878380 0.077242 0
0.736977 0.110297 0
0.603891 0.071938 0
0.508130 0.039276 0
0.448115 0.019308 0
0.414691 0.008575 0
0.398508 0.003216 0
0.392081 0.000770 0
0.390322 -0.000156 0
0.390333 -0.000359 0
0.390755 -0.000301 0
0.391097 -0.000196 0
0.391274 -0.000112 0
0.391324 -0.000058 0
0.391299 -0.000027 0
0.391239 -0.000010 0
0.391166 -0.000002 0
0.391093 0.000003 0
0.391024 0.000004 0
0.390963 0.000005 0
0.390909 0.000005 0
0.390863 0.000005 0
0.390823 0.000004 0
0.390789 0.000004 0
0.390761 0.000003 0
0.390737 0.000003 0
0.390716 0.000002 0
0.390699 0.000002 0
0.390685 0.000002 0
0.390673 0.000001 0
0.390663 0.000001 0
0.390655 0.000001 0
0.390648 0.000001 0
0.390643 0.000000 0
0.390638 0.000000 0
0.390635 0.000000 0
0.390632 0.000000 0
0.390629 0.000000 0
0.390628 -0.000000 0
0.390626 -0.000000 0
0.390625 -0.000000 0
0.390625 -0.000000 0
0.390624 -0.000000 0
0.390624 -0.000000 0
0.390624 -0.000000 0
0.390625 -0.000000 0
0.390625 -0.000000 0
0.390626 -0.000000 0
0.390627 -0.000000 0
0.390628 -0.000000 0
0.390629 -0.000000 0
0.390630 -0.000000 0
0.390632 -0.000001 0
0.390633 -0.000001 0
0.390635 -0.000001 0
0.390636 -0.000001 0
0.390638 -0.000001 0
0.390640 -0.000001 0
0.390642 -0.000001 0
0.390644 -0.000001 0
0.390647 -0.000001 0
0.390649 -0.000001 0
0.390652 -0.000001 0
0.390655 -0.000001 0
0.390658 -0.000001 0
0.390661 -0.000001 0
0.390664 -0.000001 0
0.390668 -0.000001 0
0.390672 -0.000001 0
0.390677 -0.000001 0
0.390681 -0.000002 0
0.390686 -0.000002 0
0.390692 -0.000002 0
0.390698 -0.000002 0
0.390705 -0.000002 0
0.390713 -0.000003 0
0.390721 -0.000003 0
0.390731 -0.000003 0
0.390741 -0.000004 0
0.390753 -0.000004 0
0.390767 -0.000005 0
0.390782 -0.000006 0
0.390800 -0.000006 0
0.390820 -0.000007 0
0.390844 -0.000008 0
0.390870 -0.000010 0
0.390901 -0.000011 0
0.390937 -0.000013 0
0.390978 -0.000015 0
0.391027 -0.000018 0
0.391083 -0.000021 0
0.391149 -0.000024 0
0.391225 -0.000028 0
0.391315 -0.000033 0
0.391421 -0.000039 0
0.391545 -0.000046 0
0.391692 -0.000054 0
0.391864 -0.000064 0
0.392068 -0.000076 0
0.392310 -0.000090 0
0.392596 -0.000107 0
0.392937 -0.000128 0
0.393343 -0.000153 0
0.393828 -0.000184 0
0.394411 -0.000221 0
0.395113 -0.000268 0
0.395961 -0.000325 0
0.396993 -0.000398 0
0.398256 -0.000490 0
0.399812 -0.000609 0
0.401747 -0.000765 0
0.404178 -0.000972 0
0.407270 -0.001255 0
0.411266 -0.001650 0
0.416523 -0.002221 0
0.423604 -0.003078 0
0.433421 -0.004433 0
0.447542 -0.006728 0
0.468879 -0.010976 0
0.503212 -0.020267 0
0.564416 -0.040524 0
0.679835 -0.154939 0
0.995393 -0.255576 0
0.995392 -0.127777 0
1.000000 0.000067 0
0.999863 0.000206 0
0.999579 0.000357 0
0.999134 0.000527 0
0.998507 0.000714 0
0.997683 0.000913 0
0.996654 0.001124 0
0.995406 0.001356 0
0.993913 0.001627 0
0.992121 0.001971 0
0.989944 0.002430 0
0.987246 0.003070 0
0.983819 0.003994 0
0.979345 0.005387 0
0.973306 0.007621 0
0.964827 0.011421 0
0.952391 0.019217 0
0.933499 0.033891 0
0.905167 0.089886 0
0.915131 0.132576 0
0.876463 0.110532 0
0.820398 0.075239 0
0.770237 0.045130 0
0.734933 0.023959 0
0.714112 0.010920 0
0.703602 0.003954 0
0.699006 0.000844 0
0.697242 -0.000209 0
0.696597 -0.000369 0
0.696276 -0.000251 0
0.696000 -0.000109 0
0.695709 -0.000013 0
0.695411 0.000041 0
0.695128 0.000064 0
0.694871 0.000071 0
0.694645 0.000069 0
0.694450 0.000063 0
0.694284 0.000055 0
0.694142 0.000048 0
0.694023 0.000041 0
0.693922 0.000035 0
0.693838 0.000030 0
0.693767 0.000025 0
0.693707 0.000021 0
0.693657 0.000018 0
0.693615 0.000015 0
0.693579 0.000013 0
0.693550 0.000010 0
0.693525 0.000009 0
0.693505 0.000007 0
0.693488 0.000006 0
0.693474 0.000005 0
0.693462 0.000004 0
0.693452 0.000003 0
0.693444 0.000002 0
0.693438 0.000002 0
0.693433 0.000001 0
0.693429 0.000001 0
0.693426 0.000001 0
0.693423 0.000000 0
0.693421 0.000000 0
0.693420 -0.000000 0
0.693420 -0.000000 0
0.693419 -0.000001 0
0.693420 -0.000001 0
0.693420 -0.000001 0
0.693421 -0.000001 0
0.693422 -0.000001 0
0.693423 -0.000001 0
0.693425 -0.000001 0
0.693427 -0.000001 0
0.693429 -0.000002 0
0.693431 -0.000002 0
0.693433 -0.000002 0
0.693435 -0.000002 0
0.693438 -0.000002 0
0.693441 -0.000002 0
0.693444 -0.000002 0
0.693447 -0.000002 0
0.693451 -0.000003 0
0.693454 -0.000003 0
0.693458 -0.000003 0
0.693463 -0.000003 0
0.693467 -0.000003 0
0.693472 -0.000004 0
0.693477 -0.000004 0
0.693483 -0.000004 0
0.693489 -0.000004 0
0.693495 -0.000005 0
0.693502 -0.000005 0
0.693510 -0.000006 0
0.693518 -0.000006 0
0.693528 -0.000007 0
0.693538 -0.000008 0
0.693550 -0.000009 0
0.693563 -0.000010 0
0.693577 -0.000011 0
0.693594 -0.000012 0
0.693612 -0.000014 0
0.693633 -0.000016 0
0.693657 -0.000018 0
0.693685 -0.000021 0
0.693716 -0.000024 0
0.693753 -0.000028 0
0.693794 -0.000032 0
0.693843 -0.000037 0
0.693899 -0.000043 0
0.693965 -0.000051 0
0.694041 -0.000059 0
0.694130 -0.000069 0
0.694235 -0.000081 0
0.694357 -0.000095 0
0.694500 -0.000111 0
0.694669 -0.000131 0
0.694867 -0.000154 0
0.695101 -0.000182 0
0.695377 -0.000215 0
0.695703 -0.000255 0
0.696090 -0.000303 0
0.696550 -0.000361 0
0.697098 -0.000431 0
0.697751 -0.000516 0
0.698534 -0.000620 0
0.699474 -0.000749 0
0.700609 -0.000908 0
0.701985 -0.001108 0
0.703663 -0.001361 0
0.705721 -0.001686 0
0.708267 -0.002109 0
0.711445 -0.002668 0
0.715457 -0.003423 0
0.720590 -0.004469 0
0.727263 -0.005959 0
0.736109 -0.008161 0
0.748117 -0.011562 0
0.764889 -0.017126 0
0.789129 -0.026888 0
0.825468 -0.046144 0
0.881601 -0.085307 0
0.969944 -0.208159 0
0.996425 -0.304763 0
0.996425 -0.152351 0
1.000000 0.000100 0
0.999866 0.000306 0
0.999589 0.000531 0
0.999154 0.000783 0
0.998543 0.001060 0
0.997744 0.001355 0
0.996747 0.001667 0
0.995541 0.002007 0
0.994102 0.002407 0
0.992383 0.002912 0
0.990304 0.003583 0
0.987747 0.004513 0
0.984536 0.005844 0
0.980411 0.007825 0
0.974987 0.010933 0
0.967710 0.016058 0
0.957794 0.025641 0
0.945469 0.042500 0
0.931218 0.086113 0
0.967881 0.124161 0
0.981024 0.117693 0
0.969601 0.090582 0
0.948083 0.060586 0
0.927123 0.035683 0
0.911225 0.018348 0
0.900838 0.008066 0
0.894667 0.002916 0
0.891143 0.000805 0
0.889079 0.000166 0
0.887760 0.000092 0
0.886808 0.000162 0
0.886053 0.000226 0
0.885426 0.000253 0
0.884898 0.000251 0
0.884453 0.000232 0
0.884079 0.000206 0
0.883766 0.000179 0
0.883503 0.000154 0
0.883283 0.000131 0
0.883098 0.000111 0
0.882944 0.000094 0
0.882815 0.000079 0
0.882706 0.000066 0
0.882616 0.000056 0
0.882540 0.000047 0
0.882476 0.000039 0
0.882423 0.000033 0
0.882378 0.000027 0
0.882340 0.000023 0
0.882309 0.000019 0
0.882283 0.000016 0
0.882261 0.000013 0
0.882243 0.000011 0
0.882228 0.000009 0
0.882216 0.000007 0
0.882206 0.000006 0
0.882197 0.000004 0
0.882191 0.000003 0
0.882185 0.000003 0
0.882181 0.000002 0
0.882177 0.000001 0
0.882175 0.000001 0
0.882173 0.000000 0
0.882171 -0.000000 0
0.882171 -0.000001 0
0.882170 -0.000001 0
0.882170 -0.000001 0
0.882171 -0.000002 0
0.882171 -0.000002 0
0.882172 -0.000002 0
0.882173 -0.000002 0
0.882175 -0.000003 0
0.882177 -0.000003 0
0.882178 -0.000003 0
0.882180 -0.000003 0
0.882183 -0.000003 0
0.882185 -0.000004 0
0.882188 -0.000004 0
0.882190 -0.000004 0
0.882193 -0.000004 0
0.882196 -0.000005 0
0.882200 -0.000005 0
0.882204 -0.000005 0
0.882208 -0.000006 0
0.882212 -0.000006 0
0.882216 -0.000006 0
0.882221 -0.000007 0
0.882227 -0.000008 0
0.882233 -0.000008 0
0.882239 -0.000009 0
0.882246 -0.000010 0
0.882254 -0.000011 0
0.882263 -0.000012 0
0.882273 -0.000013 0
0.882284 -0.000015 0
0.882296 -0.000017 0
0.882310 -0.000019 0
0.882326 -0.000021 0
0.882344 -0.000024 0
0.882365 -0.000027 0
0.882388 -0.000031 0
0.882416 -0.000036 0
0.882447 -0.000041 0
0.882483 -0.000048 0
0.882526 -0.000055 0
0.882574 -0.000064 0
0.882631 -0.000074 0
0.882698 -0.000086 0
0.882775 -0.000101 0
0.882866 -0.000118 0
0.882972 -0.000138 0
0.883097 -0.000162 0
0.883243 -0.000190 0
0.883416 -0.000223 0
0.883618 -0.000263 0
0.883858 -0.000311 0
0.884140 -0.000367 0
0.884475 -0.000435 0
0.884871 -0.000517 0
0.885341 -0.000615 0
0.885900 -0.000733 0
0.886567 -0.000877 0
0.887364 -0.001054 0
0.888320 -0.001270 0
0.889470 -0.001538 0
0.890859 -0.001872 0
0.892546 -0.002294 0
0.894606 -0.002833 0
0.897137 -0.003529 0
0.900272 -0.004445 0
0.904191 -0.005672 0
0.909144 -0.007352 0
0.915480 -0.009716 0
0.923707 -0.013150 0
0.934561 -0.018333 0
0.949121 -0.026536 0
0.968912 -0.040235 0
0.995794 -0.064930 0
1.029755 -0.110305 0
1.064931 -0.210398 0
0.997487 -0.281086 0
0.997487 -0.140497 0
1.000000 0.000132 0
0.999870 0.000404 0
0.999601 0.000701 0
0.999180 0.001032 0
0.998591 0.001395 0
0.997822 0.001781 0
0.996865 0.002188 0
0.995712 0.002633 0
0.994341 0.003153 0
0.992712 0.003805 0
0.990758 0.004669 0
0.988382 0.005856 0
0.985443 0.007537 0
0.981755 0.009999 0
0.977075 0.013755 0
0.971157 0.019725 0
0.963873 0.029959 0
0.956826 0.046727 0
0.952528 0.079061 0
0.986046 0.108520 0
1.015792 0.109701 0
1.028522 0.091149 0
1.027828 0.065646 0
1.020353 0.041762 0
1.011077 0.023616 0
1.002725 0.011951 0
0.996287 0.005527 0
0.991729 0.002490 0
0.988610 0.001265 0
0.986458 0.000846 0
0.984917 0.000715 0
0.983762 0.000655 0
0.982862 0.000599 0
0.982141 0.000534 0
0.981553 0.000466 0
0.981070 0.000401 0
0.980670 0.000341 0
0.980339 0.000289 0
0.980063 0.000244 0
0.979833 0.000205 0
0.979642 0.000172 0
0.979482 0.000145 0
0.979348 0.000121 0
0.979236 0.000102 0
0.979142 0.000085 0
0.979063 0.000071 0
0.978997 0.000060 0
0.978942 0.000050 0
0.978896 0.000042 0
0.978857 0.000035 0
0.978825 0.000029 0
0.978798 0.000024 0
0.978775 0.000020 0
0.978757 0.000016 0
0.978741 0.000013 0
0.978728 0.000011 0
0.978717 0.000009 0
0.978708 0.000007 0
0.978700 0.000005 0
0.978694 0.000004 0
0.978689 0.000003 0
0.978685 0.000002 0
0.978682 0.000001 0
0.978680 0.000000 0
0.978678 -0.000000 0
0.978677 -0.000001 0
0.978676 -0.000001 0
0.978675 -0.000002 0
0.978675 -0.000002 0
0.978675 -0.000002 0
0.978675 -0.000003 0
0.978676 -0.000003 0
0.978676 -0.000003 0
0.978677 -0.000004 0
0.978678 -0.000004 0
0.978679 -0.000004 0
0.978681 -0.000005 0
0.978682 -0.000005 0
0.978684 -0.000005 0
0.978686 -0.000006 0
0.978688 -0.000006 0
0.978690 -0.000006 0
0.978693 -0.000007 0
0.978695 -0.000007 0
0.978698 -0.000008 0
0.978702 -0.000008 0
0.978705 -0.000009 0
0.978709 -0.000010 0
0.978714 -0.000011 0
0.978719 -0.000012 0
0.978724 -0.000013 0
0.978730 -0.000014 0
0.978737 -0.000016 0
0.978745 -0.000018 0
0.978755 -0.000020 0
0.978765 -0.000023 0
0.978777 -0.000025 0
0.978790 -0.000029 0
0.978806 -0.000033 0
0.978824 -0.000038 0
0.978845 -0.000043 0
0.978870 -0.000049 0
0.978898 -0.000057 0
0.978931 -0.000066 0
0.978970 -0.000076 0
0.979015 -0.000089 0
0.979068 -0.000103 0
0.979129 -0.000120 0
0.979201 -0.000140 0
0.979286 -0.000164 0
0.979386 -0.000192 0
0.979503 -0.000226 0
0.979641 -0.000265 0
0.979803 -0.000312 0
0.979995 -0.000368 0
0.980221 -0.000434 0
0.980488 -0.000513 0
0.980804 -0.000608 0
0.981179 -0.000721 0
0.981623 -0.000858 0
0.982151 -0.001023 0
0.982780 -0.001223 0
0.983530 -0.001467 0
0.984428 -0.001766 0
0.985505 -0.002135 0
0.986802 -0.002594 0
0.988368 -0.003171 0
0.990271 -0.003904 0
0.992592 -0.004846 0
0.995442 -0.006075 0
0.998964 -0.007708 0
1.003350 -0.009922 0
1.008856 -0.012994 0
1.015821 -0.017377 0
1.024687 -0.023837 0
1.035971 -0.033718 0
1.050088 -0.049431 0
1.066685 -0.075531 0
1.081557 -0.118700 0
1.081856 -0.192573 0
0.998324 -0.239575 0
0.998323 -0.119737 0
1.000000 0.000163 0
0.999875 0.000499 0
0.999617 0.000864 0
0.999214 0.001271 0
0.998650 0.001716 0
0.997916 0.002189 0
0.997006 0.002686 0
0.995914 0.003226 0
0.994623 0.003856 0
0.993101 0.004642 0
0.991294 0.005675 0
0.989127 0.007080 0
0.986502 0.009045 0
0.983303 0.011867 0
0.979424 0.016051 0
0.974869 0.022434 0
0.969981 0.032562 0
0.966796 0.047980 0
0.968554 0.072000 0
0.994771 0.093605 0
1.025086 0.097178 0
1.046154 0.084768 0
1.055673 0.064532 0
1.056367 0.043774 0
1.052065 0.026862 0
1.045976 0.015210 0
1.040103 0.008227 0
1.035309 0.004512 0
1.031715 0.002712 0
1.029110 0.001876 0
1.027220 0.001464 0
1.025818 0.001219 0
1.024747 0.001037 0
1.023905 0.000883 0
1.023231 0.000749 0
1.022683 0.000632 0
1.022234 0.000532 0
1.021863 0.000447 0
1.021556 0.000375 0
1.021301 0.000314 0
1.021089 0.000264 0
1.020912 0.000221 0
1.020764 0.000185 0
1.020640 0.000155 0
1.020536 0.000130 0
1.020450 0.000109 0
1.020377 0.000091 0
1.020316 0.000076 0
1.020265 0.000064 0
1.020222 0.000053 0
1.020186 0.000044 0
1.020156 0.000037 0
1.020131 0.000031 0
1.020110 0.000025 0
1.020092 0.000021 0
1.020077 0.000017 0
1.020065 0.000014 0
1.020054 0.000011 0
1.020046 0.000009 0
1.020038 0.000007 0
1.020032 0.000005 0
1.020027 0.000004 0
1.020023 0.000003 0
1.020020 0.000002 0
1.020017 0.000001 0
1.020015 0.000000 0
1.020013 -0.000001 0
1.020012 -0.000001 0
1.020011 -0.000002 0
1.020010 -0.000002 0
1.020010 -0.000003 0
1.020009 -0.000003 0
1.020009 -0.000004 0
1.020009 -0.000004 0
1.020010 -0.000004 0
1.020010 -0.000005 0
1.020010 -0.000005 0
1.020011 -0.000005 0
1.020012 -0.000006 0
1.020013 -0.000006 0
1.020014 -0.000007 0
1.020015 -0.000007 0
1.020017 -0.000008 0
1.020018 -0.000008 0
1.020020 -0.000009 0
1.020022 -0.000010 0
1.020024 -0.000011 0
1.020027 -0.000012 0
1.020030 -0.000013 0
1.020034 -0.000014 0
1.020038 -0.000016 0
1.020043 -0.000017 0
1.020048 -0.000019 0
1.020055 -0.000022 0
1.020062 -0.000024 0
1.020071 -0.000027 0
1.020081 -0.000031 0
1.020092 -0.000035 0
1.020106 -0.000040 0
1.020122 -0.000046 0
1.020140 -0.000053 0
1.020162 -0.000061 0
1.020187 -0.000071 0
1.020217 -0.000082 0
1.020252 -0.000095 0
1.020293 -0.000111 0
1.020341 -0.000129 0
1.020398 -0.000151 0
1.020465 -0.000177 0
1.020543 -0.000207 0
1.020635 -0.000243 0
1.020744 -0.000285 0
1.020872 -0.000335 0
1.021024 -0.000394 0
1.021202 -0.000465 0
1.021413 -0.000549 0
1.021663 -0.000649 0
1.021958 -0.000769 0
1.022307 -0.000912 0
1.022721 -0.001084 0
1.023213 -0.001292 0
1.023798 -0.001544 0
1.024494 -0.001850 0
1.025326 -0.002224 0
1.026320 -0.002684 0
1.027512 -0.003255 0
1.028946 -0.003970 0
1.030675 -0.004873 0
1.032770 -0.006027 0
1.035316 -0.007523 0
1.038423 -0.009491 0
1.042229 -0.012130 0
1.046902 -0.015740 0
1.052637 -0.020796 0
1.059624 -0.028065 0
1.067943 -0.038805 0
1.077247 -0.055070 0
1.085916 -0.080130 0
1.088460 -0.117633 0
1.072279 -0.170197 0
0.998909 -0.200391 0
0.998907 -0.100148 0
1.000000 0.000192 0
0.999881 0.000589 0
0.999637 0.001020 0
0.999254 0.001499 0
0.998719 0.002022 0
0.998026 0.002575 0
0.997170 0.003155 0
0.996148 0.003784 0
0.994947 0.004511 0
0.993545 0.005413 0
0.991902 0.006589 0
0.989966 0.008171 0
0.987679 0.010350 0
0.984993 0.013417 0
0.981912 0.017829 0
0.978622 0.024286 0
0.975739 0.033858 0
0.975234 0.047416 0
0.980192 0.065549 0
1.000592 0.081216 0
1.026549 0.084883 0
1.048005 0.076376 0
1.060840 0.060714 0
1.065435 0.043504 0
1.064283 0.028635 0
1.060207 0.017729 0
1.055365 0.010679 0
1.050956 0.006541 0
1.047411 0.004259 0
1.044724 0.003017 0
1.042726 0.002305 0
1.041231 0.001850 0
1.040089 0.001522 0
1.039197 0.001266 0
1.038487 0.001056 0
1.037913 0.000882 0
1.037444 0.000737 0
1.037059 0.000616 0
1.036740 0.000515 0
1.036476 0.000431 0
1.036256 0.000360 0
1.036072 0.000302 0
1.035919 0.000253 0
1.035791 0.000212 0
1.035684 0.000177 0
1.035594 0.000148 0
1.035519 0.000124 0
1.035456 0.000104 0
1.035403 0.000087 0
1.035359 0.000073 0
1.035322 0.000061 0
1.035290 0.000051 0
1.035264 0.000042 0
1.035242 0.000035 0
1.035223 0.000029 0
1.035208 0.000024 0
1.035195 0.000020 0
1.035184 0.000016 0
1.035174 0.000013 0
1.035167 0.000010 0
1.035160 0.000008 0
1.035155 0.000006 0
1.035150 0.000005 0
1.035146 0.000003 0
1.035143 0.000002 0
1.035141 0.000001 0
1.035138 0.000000 0
1.035137 -0.000001 0
1.035135 -0.000001 0
1.035134 -0.000002 0
1.035133 -0.000002 0
1.035132 -0.000003 0
1.035132 -0.000003 0
1.035131 -0.000004 0
1.035131 -0.000004 0
1.035131 -0.000005 0
1.035131 -0.000005 0
1.035131 -0.000006 0
1.035131 -0.000006 0
1.035131 -0.000007 0
1.035132 -0.000007 0
1.035132 -0.000008 0
1.035133 -0.000008 0
1.035134 -0.000009 0
1.035135 -0.000010 0
1.035137 -0.000011 0
1.035138 -0.000012 0
1.035140 -0.000013 0
1.035143 -0.000014 0
1.035145 -0.000016 0
1.035149 -0.000017 0
1.035152 -0.000019 0
1.035157 -0.000022 0
1.035162 -0.000025 0
1.035169 -0.000028 0
1.035176 -0.000032 0
1.035185 -0.000036 0
1.035195 -0.000041 0
1.035207 -0.000047 0
1.035221 -0.000054 0
1.035238 -0.000062 0
1.035258 -0.000072 0
1.035281 -0.000084 0
1.035308 -0.000097 0
1.035340 -0.000113 0
1.035378 -0.000132 0
1.035423 -0.000154 0
1.035476 -0.000180 0
1.035538 -0.000210 0
1.035611 -0.000247 0
1.035698 -0.000289 0
1.035800 -0.000340 0
1.035920 -0.000400 0
1.036062 -0.000471 0
1.036229 -0.000556 0
1.036427 -0.000656 0