# vtk DataFile Version 2.0
generated by CFD-lab course output (written by Tobias Neckel) 
ASCII

DATASET STRUCTURED_GRID
DIMENSIONS  142 42 1 
POINTS 5964 float

0.000000 0.250000 0
0.024648 0.250000 0
0.049296 0.250000 0
0.073944 0.250000 0
0.098592 0.250000 0
0.123239 0.250000 0
0.147887 0.250000 0
0.172535 0.250000 0
0.197183 0.250000 0
0.221831 0.250000 0
0.246479 0.250000 0
0.271127 0.250000 0
0.295775 0.250000 0
0.320423 0.250000 0
0.345070 0.250000 0
0.369718 0.250000 0
0.394366 0.250000 0
0.419014 0.250000 0
0.443662 0.250000 0
0.468310 0.250000 0
0.492958 0.250000 0
0.517606 0.250000 0
0.542254 0.250000 0
0.566901 0.250000 0
0.591549 0.250000 0
0.616197 0.250000 0
0.640845 0.250000 0
0.665493 0.250000 0
0.690141 0.250000 0
0.714789 0.250000 0
0.739437 0.250000 0
0.764085 0.250000 0
0.788732 0.250000 0
0.813380 0.250000 0
0.838028 0.250000 0
0.862676 0.250000 0
0.887324 0.250000 0
0.911972 0.250000 0
0.936620 0.250000 0
0.961268 0.250000 0
0.985915 0.250000 0
1.010563 0.250000 0
1.035211 0.250000 0
1.059859 0.250000 0
1.084507 0.250000 0
1.109155 0.250000 0
1.133803 0.250000 0
1.158451 0.250000 0
1.183099 0.250000 0
1.207746 0.250000 0
1.232394 0.250000 0
1.257042 0.250000 0
1.281690 0.250000 0
1.306338 0.250000 0
1.330986 0.250000 0
1.355634 0.250000 0
1.380282 0.250000 0
1.404930 0.250000 0
1.429577 0.250000 0
1.454225 0.250000 0
1.478873 0.250000 0
1.503521 0.250000 0
1.528169 0.250000 0
1.552817 0.250000 0
1.577465 0.250000 0
1.602113 0.250000 0
1.626761 0.250000 0
1.651408 0.250000 0
1.676056 0.250000 0
1.700704 0.250000 0
1.725352 0.250000 0
1.750000 0.250000 0
1.774648 0.250000 0
1.799296 0.250000 0
1.823944 0.250000 0
1.848592 0.250000 0
1.873239 0.250000 0
1.897887 0.250000 0
1.922535 0.250000 0
1.947183 0.250000 0
1.971831 0.250000 0
1.996479 0.250000 0
2.021127 0.250000 0
2.045775 0.250000 0
2.070423 0.250000 0
2.095070 0.250000 0
2.119718 0.250000 0
2.144366 0.250000 0
2.169014 0.250000 0
2.193662 0.250000 0
2.218310 0.250000 0
2.242958 0.250000 0
2.267606 0.250000 0
2.292254 0.250000 0
2.316901 0.250000 0
2.341549 0.250000 0
2.366197 0.250000 0
2.390845 0.250000 0
2.415493 0.250000 0
2.440141 0.250000 0
2.464789 0.250000 0
2.489437 0.250000 0
2.514085 0.250000 0
2.538732 0.250000 0
2.563380 0.250000 0
2.588028 0.250000 0
2.612676 0.250000 0
2.637324 0.250000 0
2.661972 0.250000 0
2.686620 0.250000 0
2.711268 0.250000 0
2.735915 0.250000 0
2.760563 0.250000 0
2.785211 0.250000 0
2.809859 0.250000 0
2.834507 0.250000 0
2.859155 0.250000 0
2.883803 0.250000 0
2.908451 0.250000 0
2.933099 0.250000 0
2.957746 0.250000 0
2.982394 0.250000 0
3.007042 0.250000 0
3.031690 0.250000 0
3.056338 0.250000 0
3.080986 0.250000 0
3.105634 0.250000 0
3.130282 0.250000 0
3.154930 0.250000 0
3.179577 0.250000 0
3.204225 0.250000 0
3.228873 0.250000 0
3.253521 0.250000 0
3.278169 0.250000 0
3.302817 0.250000 0
3.327465 0.250000 0
3.352113 0.250000 0
3.376761 0.250000 0
3.401408 0.250000 0
3.426056 0.250000 0
3.450704 0.250000 0
3.475352 0.250000 0
0.000000 0.261905 0
0.024648 0.261905 0
0.049296 0.261905 0
0.073944 0.261905 0
0.098592 0.261905 0
0.123239 0.261905 0
0.147887 0.261905 0
0.172535 0.261905 0
0.197183 0.261905 0
0.221831 0.261905 0
0.246479 0.261905 0
0.271127 0.261905 0
0.295775 0.261905 0
0.320423 0.261905 0
0.345070 0.261905 0
0.369718 0.261905 0
0.394366 0.261905 0
0.419014 0.261905 0
0.443662 0.261905 0
0.468310 0.261905 0
0.492958 0.261905 0
0.517606 0.261905 0
0.542254 0.261905 0
0.566901 0.261905 0
0.591549 0.261905 0
0.616197 0.261905 0
0.640845 0.261905 0
0.665493 0.261905 0
0.690141 0.261905 0
0.714789 0.261905 0
0.739437 0.261905 0
0.764085 0.261905 0
0.788732 0.261905 0
0.813380 0.261905 0
0.838028 0.261905 0
0.862676 0.261905 0
0.887324 0.261905 0
0.911972 0.261905 0
0.936620 0.261905 0
0.961268 0.261905 0
0.985915 0.261905 0
1.010563 0.261905 0
1.035211 0.261905 0
1.059859 0.261905 0
1.084507 0.261905 0
1.109155 0.261905 0
1.133803 0.261905 0
1.158451 0.261905 0
1.183099 0.261905 0
1.207746 0.261905 0
1.232394 0.261905 0
1.257042 0.261905 0
1.281690 0.261905 0
1.306338 0.261905 0
1.330986 0.261905 0
1.355634 0.261905 0
1.380282 0.261905 0
1.404930 0.261905 0
1.429577 0.261905 0
1.454225 0.261905 0
1.478873 0.261905 0
1.503521 0.261905 0
1.528169 0.261905 0
1.552817 0.261905 0
1.577465 0.261905 0
1.602113 0.261905 0
1.626761 0.261905 0
1.651408 0.261905 0
1.676056 0.261905 0
1.700704 0.261905 0
1.725352 0.261905 0
1.750000 0.261905 0
1.774648 0.261905 0
1.799296 0.261905 0
1.823944 0.261905 0
1.848592 0.261905 0
1.873239 0.261905 0
1.897887 0.261905 0
1.922535 0.261905 0
1.947183 0.261905 0
1.971831 0.261905 0
1.996479 0.261905 0
2.021127 0.261905 0
2.045775 0.261905 0
2.070423 0.261905 0
2.095070 0.261905 0
2.119718 0.261905 0
2.144366 0.261905 0
2.169014 0.261905 0
2.193662 0.261905 0
2.218310 0.261905 0
2.242958 0.261905 0
2.267606 0.261905 0
2.292254 0.261905 0
2.316901 0.261905 0
2.341549 0.261905 0
2.366197 0.261905 0
2.390845 0.261905 0
2.415493 0.261905 0
2.440141 0.261905 0
2.464789 0.261905 0
2.489437 0.261905 0
2.514085 0.261905 0
2.538732 0.261905 0
2.563380 0.261905 0
2.588028 0.261905 0
2.612676 0.261905 0
2.637324 0.261905 0
2.661972 0.261905 0
2.686620 0.261905 0
2.711268 0.261905 0
2.735915 0.261905 0
2.760563 0.261905 0
2.785211 0.261905 0
2.809859 0.261905 0
2.834507 0.261905 0
2.859155 0.261905 0
2.883803 0.261905 0
2.908451 0.261905 0
2.933099 0.261905 0
2.957746 0.261905 0
2.982394 0.261905 0
3.007042 0.261905 0
3.031690 0.261905 0
3.056338 0.261905 0
3.080986 0.261905 0
3.105634 0.261905 0
3.130282 0.261905 0
3.154930 0.261905 0
3.179577 0.261905 0
3.204225 0.261905 0
3.228873 0.261905 0
3.253521 0.261905 0
3.278169 0.261905 0
3.302817 0.261905 0
3.327465 0.261905 0
3.352113 0.261905 0
3.376761 0.261905 0
3.401408 0.261905 0
3.426056 0.261905 0
3.450704 0.261905 0
3.475352 0.261905 0
0.000000 0.273810 0
0.024648 0.273810 0
0.049296 0.273810 0
0.073944 0.273810 0
0.098592 0.273810 0
0.123239 0.273810 0
0.147887 0.273810 0
0.172535 0.273810 0
0.197183 0.273810 0
0.221831 0.273810 0
0.246479 0.273810 0
0.271127 0.273810 0
0.295775 0.273810 0
0.320423 0.273810 0
0.345070 0.273810 0
0.369718 0.273810 0
0.394366 0.273810 0
0.419014 0.273810 0
0.443662 0.273810 0
0.468310 0.273810 0
0.492958 0.273810 0
0.517606 0.273810 0
0.542254 0.273810 0
0.566901 0.273810 0
0.591549 0.273810 0
0.616197 0.273810 0
0.640845 0.273810 0
0.665493 0.273810 0
0.690141 0.273810 0
0.714789 0.273810 0
0.739437 0.273810 0
0.764085 0.273810 0
0.788732 0.273810 0
0.813380 0.273810 0
0.838028 0.273810 0
0.862676 0.273810 0
0.887324 0.273810 0
0.911972 0.273810 0
0.936620 0.273810 0
0.961268 0.273810 0
0.985915 0.273810 0
1.010563 0.273810 0
1.035211 0.273810 0
1.059859 0.273810 0
1.084507 0.273810 0
1.109155 0.273810 0
1.133803 0.273810 0
1.158451 0.273810 0
1.183099 0.273810 0
1.207746 0.273810 0
1.232394 0.273810 0
1.257042 0.273810 0
1.281690 0.273810 0
1.306338 0.273810 0
1.330986 0.273810 0
1.355634 0.273810 0
1.380282 0.273810 0
1.404930 0.273810 0
1.429577 0.273810 0
1.454225 0.273810 0
1.478873 0.273810 0
1.503521 0.273810 0
1.528169 0.273810 0
1.552817 0.273810 0
1.577465 0.273810 0
1.602113 0.273810 0
1.626761 0.273810 0
1.651408 0.273810 0
1.676056 0.273810 0
1.700704 0.273810 0
1.725352 0.273810 0
1.750000 0.273810 0
1.774648 0.273810 0
1.799296 0.273810 0
1.823944 0.273810 0
1.848592 0.273810 0
1.873239 0.273810 0
1.897887 0.273810 0
1.922535 0.273810 0
1.947183 0.273810 0
1.971831 0.273810 0
1.996479 0.273810 0
2.021127 0.273810 0
2.045775 0.273810 0
2.070423 0.273810 0
2.095070 0.273810 0
2.119718 0.273810 0
2.144366 0.273810 0
2.169014 0.273810 0
2.193662 0.273810 0
2.218310 0.273810 0
2.242958 0.273810 0
2.267606 0.273810 0
2.292254 0.273810 0
2.316901 0.273810 0
2.341549 0.273810 0
2.366197 0.273810 0
2.390845 0.273810 0
2.415493 0.273810 0
2.440141 0.273810 0
2.464789 0.273810 0
2.489437 0.273810 0
2.514085 0.273810 0
2.538732 0.273810 0
2.563380 0.273810 0
2.588028 0.273810 0
2.612676 0.273810 0
2.637324 0.273810 0
2.661972 0.273810 0
2.686620 0.273810 0
2.711268 0.273810 0
2.735915 0.273810 0
2.760563 0.273810 0
2.785211 0.273810 0
2.809859 0.273810 0
2.834507 0.273810 0
2.859155 0.273810 0
2.883803 0.273810 0
2.908451 0.273810 0
2.933099 0.273810 0
2.957746 0.273810 0
2.982394 0.273810 0
3.007042 0.273810 0
3.031690 0.273810 0
3.056338 0.273810 0
3.080986 0.273810 0
3.105634 0.273810 0
3.130282 0.273810 0
3.154930 0.273810 0
3.179577 0.273810 0
3.204225 0.273810 0
3.228873 0.273810 0
3.253521 0.273810 0
3.278169 0.273810 0
3.302817 0.273810 0
3.327465 0.273810 0
3.352113 0.273810 0
3.376761 0.273810 0
3.401408 0.273810 0
3.426056 0.273810 0
3.450704 0.273810 0
3.475352 0.273810 0
0.000000 0.285714 0
0.024648 0.285714 0
0.049296 0.285714 0
0.073944 0.285714 0
0.098592 0.285714 0
0.123239 0.285714 0
0.147887 0.285714 0
0.172535 0.285714 0
0.197183 0.285714 0
0.221831 0.285714 0
0.246479 0.285714 0
0.271127 0.285714 0
0.295775 0.285714 0
0.320423 0.285714 0
0.345070 0.285714 0
0.369718 0.285714 0
0.394366 0.285714 0
0.419014 0.285714 0
0.443662 0.285714 0
0.468310 0.285714 0
0.492958 0.285714 0
0.517606 0.285714 0
0.542254 0.285714 0
0.566901 0.285714 0
0.591549 0.285714 0
0.616197 0.285714 0
0.640845 0.285714 0
0.665493 0.285714 0
0.690141 0.285714 0
0.714789 0.285714 0
0.739437 0.285714 0
0.764085 0.285714 0
0.788732 0.285714 0
0.813380 0.285714 0
0.838028 0.285714 0
0.862676 0.285714 0
0.887324 0.285714 0
0.911972 0.285714 0
0.936620 0.285714 0
0.961268 0.285714 0
0.985915 0.285714 0
1.010563 0.285714 0
1.035211 0.285714 0
1.059859 0.285714 0
1.084507 0.285714 0
1.109155 0.285714 0
1.133803 0.285714 0
1.158451 0.285714 0
1.183099 0.285714 0
1.207746 0.285714 0
1.232394 0.285714 0
1.257042 0.285714 0
1.281690 0.285714 0
1.306338 0.285714 0
1.330986 0.285714 0
1.355634 0.285714 0
1.380282 0.285714 0
1.404930 0.285714 0
1.429577 0.285714 0
1.454225 0.285714 0
1.478873 0.285714 0
1.503521 0.285714 0
1.528169 0.285714 0
1.552817 0.285714 0
1.577465 0.285714 0
[...]
POINT_DATA 5964 

VECTORS velocity float
1.000000 0.000000 0
0.999854 0.000000 0
0.999556 0.000000 0
0.999097 0.000000 0
0.998458 0.000000 0
0.997615 0.000000 0
0.996532 0.000000 0
0.995162 0.000000 0
0.993440 0.000000 0
0.991275 0.000000 0
0.988543 0.000000 0
0.985062 0.000000 0
0.980561 0.000000 0
0.974614 0.000000 0
0.966517 0.000000 0
0.954933 0.000000 0
0.937383 0.000000 0
0.905760 0.000000 0
0.847693 0.000000 0
0.000000 0.000000 0
0.000000 0.000000 0
0.000000 0.000000 0
-0.000000 0.000000 0
-0.000000 0.000000 0
-0.000000 0.000000 0
0.000000 0.000000 0
0.000000 0.000000 0
-0.000000 0.000000 0
-0.000000 0.000000 0
-0.000000 0.000000 0
0.000000 0.000000 0
0.000000 0.000000 0
-0.000000 0.000000 0
-0.000000 0.000000 0
0.000000 0.000000 0
0.000000 0.000000 0
-0.000000 0.000000 0
-0.000000 0.000000 0
-0.000000 0.000000 0
0.000000 0.000000 0
0.000000 0.000000 0
-0.000000 0.000000 0
-0.000000 0.000000 0
-0.000000 0.000000 0
0.000000 0.000000 0
0.000000 0.000000 0
-0.000000 0.000000 0
-0.000000 0.000000 0
-0.000000 0.000000 0
0.000000 0.000000 0
0.000000 0.000000 0
-0.000000 0.000000 0
-0.000000 0.000000 0
-0.000000 0.000000 0
0.000000 0.000000 0
-0.000000 0.000000 0
-0.000000 0.000000 0
-0.000000 0.000000 0
-0.000000 0.000000 0
0.000000 0.000000 0
-0.000000 0.000000 0
-0.000000 0.000000 0
-0.000000 0.000000 0
-0.000000 0.000000 0
0.000000 0.000000 0
0.000000 0.000000 0
-0.000000 0.000000 0
-0.000000 0.000000 0
-0.000000 0.000000 0
-0.000000 0.000000 0
0.000000 0.000000 0
-0.000000 0.000000 0
-0.000000 0.000000 0
-0.000000 0.000000 0
-0.000000 0.000000 0
-0.000000 0.000000 0
-0.000000 0.000000 0
-0.000000 0.000000 0
-0.000000 0.000000 0
-0.000000 0.000000 0
-0.000000 0.000000 0
-0.000000 0.000000 0
-0.000000 0.000000 0
-0.000000 0.000000 0
-0.000000 0.000000 0
-0.000000 0.000000 0
-0.000000 0.000000 0
-0.000000 0.000000 0
-0.000000 0.000000 0
-0.000000 0.000000 0
-0.000000 0.000000 0
-0.000000 0.000000 0
-0.000000 0.000000 0
-0.000000 0.000000 0
-0.000000 0.000000 0
-0.000000 0.000000 0
-0.000000 0.000000 0
-0.000000 0.000000 0
-0.000000 0.000000 0
-0.000000 0.000000 0
-0.000000 0.000000 0
-0.000000 0.000000 0
-0.000000 0.000000 0
-0.000000 0.000000 0
-0.000000 0.000000 0
-0.000000 0.000000 0
-0.000000 0.000000 0
-0.000000 0.000000 0
-0.000000 0.000000 0
-0.000000 0.000000 0
-0.000000 0.000000 0
-0.000000 0.000000 0
-0.000000 0.000000 0
-0.000000 0.000000 0
-0.000000 0.000000 0
-0.000000 0.000000 0
-0.000000 0.000000 0
-0.000000 0.000000 0
-0.000000 0.000000 0
-0.000000 0.000000 0
-0.000000 0.000000 0
-0.000000 0.000000 0
-0.000000 0.000000 0
-0.000000 0.000000 0
-0.000000 0.000000 0
-0.000000 0.000000 0
-0.000000 0.000000 0
-0.000000 0.000000 0
-0.000000 0.000000 0
-0.000000 0.000000 0
-0.000000 0.000000 0
-0.000000 0.000000 0
-0.000000 0.000000 0
-0.000000 0.000000 0
-0.000000 0.000000 0
-0.000000 0.000000 0
-0.000000 0.000000 0
-0.000000 0.000000 0
-0.000000 0.000000 0
0.000000 0.000000 0
-0.000000 0.000000 0
0.496410 0.000000 0
1.000000 0.000035 0
0.999854 0.000107 0
0.999558 0.000183 0
0.999101 0.000265 0
0.998465 0.000358 0
0.997626 0.000465 0
0.996549 0.000592 0
0.995186 0.000747 0
0.993475 0.000939 0
0.991325 0.001182 0
0.988614 0.001500 0
0.985165 0.001928 0
0.980713 0.002523 0
0.974850 0.003392 0
0.966903 0.004753 0
0.955641 0.007036 0
0.938825 0.011875 0
0.910180 0.021660 0
0.860874 0.078853 0
0.714886 0.110956 0
0.576504 0.072745 0
0.473017 0.041074 0
0.401066 0.022638 0
0.351163 0.013309 0
0.315499 0.008679 0
0.288994 0.006202 0
0.268554 0.004718 0
0.252294 0.003739 0
0.239027 0.003050 0
0.227980 0.002542 0
0.218624 0.002156 0
0.210590 0.001855 0
0.203608 0.001615 0
0.197480 0.001420 0
0.192052 0.001260 0
0.187208 0.001127 0
0.182854 0.001015 0
0.178917 0.000919 0
0.175337 0.000838 0
0.172064 0.000767 0
0.169059 0.000706 0
0.166287 0.000652 0
0.163720 0.000605 0
0.161335 0.000564 0
0.159110 0.000526 0
0.157028 0.000493 0
0.155075 0.000464 0
0.153237 0.000437 0
0.151503 0.000413 0
0.149864 0.000391 0
0.148310 0.000372 0
0.146834 0.000353 0
0.145429 0.000337 0
0.144089 0.000322 0
0.142810 0.000308 0
0.141586 0.000295 0
0.140414 0.000283 0
0.139289 0.000272 0
0.138208 0.000261 0
0.137168 0.000252 0
0.136167 0.000242 0
0.135202 0.000234 0
0.134270 0.000226 0
0.133371 0.000219 0
0.132501 0.000211 0
0.131659 0.000205 0
0.130844 0.000198 0
0.130054 0.000192 0
0.129288 0.000187 0
0.128545 0.000181 0
0.127823 0.000176 0
0.127122 0.000171 0
0.126441 0.000166 0
0.125778 0.000162 0
0.125134 0.000157 0
0.124507 0.000153 0
0.123896 0.000149 0
0.123302 0.000145 0
0.122723 0.000142 0
0.122159 0.000138 0
0.121610 0.000134 0
0.121075 0.000131 0
0.120554 0.000127 0
0.120046 0.000124 0
0.119552 0.000121 0
0.119070 0.000117 0
0.118602 0.000114 0
0.118146 0.000111 0
0.117703 0.000108 0
0.117273 0.000104 0
0.116857 0.000101 0
0.116453 0.000098 0
0.116063 0.000094 0
0.115686 0.000090 0
0.115324 0.000087 0
0.114977 0.000083 0
0.114645 0.000078 0
0.114330 0.000074 0
0.114033 0.000069 0
0.113754 0.000064 0
0.113496 0.000058 0
0.113260 0.000052 0
0.113048 0.000045 0
0.112863 0.000037 0
0.112707 0.000029 0
0.112583 0.000020 0
0.112496 0.000009 0
0.112451 -0.000004 0
0.112453 -0.000018 0
0.112510 -0.000033 0
0.112627 -0.000050 0
0.112810 -0.000069 0
0.113068 -0.000091 0
0.113413 -0.000117 0
0.113856 -0.000146 0
0.114413 -0.000180 0
0.115101 -0.000219 0
0.115939 -0.000265 0
0.116953 -0.000318 0
0.118170 -0.000379 0
0.119625 -0.000452 0
0.121358 -0.000538 0
0.123418 -0.000639 0
0.125866 -0.000761 0
0.128778 -0.000907 0
0.132244 -0.001085 0
0.136384 -0.001304 0
0.141347 -0.001575 0
0.147328 -0.001917 0
0.154584 -0.002356 0
0.163463 -0.002927 0
0.174442 -0.003691 0
0.188199 -0.004740 0
0.205728 -0.006232 0
0.228537 -0.008451 0
0.259035 -0.011954 0
0.301337 -0.017903 0
0.362772 -0.029694 0
0.459982 -0.052075 0
0.617951 -0.166962 0
0.993128 -0.267477 0
0.993128 -0.133739 0
1.000000 0.000070 0
0.999856 0.000213 0
0.999564 0.000364 0
0.999113 0.000528 0
0.998486 0.000712 0
0.997659 0.000926 0
0.996599 0.001178 0
0.995259 0.001485 0
0.993579 0.001865 0
0.991473 0.002348 0
0.988825 0.002975 0
0.985469 0.003816 0
0.981163 0.004982 0
0.975541 0.006670 0
0.968025 0.009278 0
0.957649 0.013561 0
0.942785 0.021957 0
0.920694 0.037650 0
0.888370 0.094326 0
0.890999 0.137349 0
0.842149 0.116821 0
0.771618 0.084735 0
0.701222 0.058855 0
0.639920 0.041328 0
0.589257 0.030027 0
0.547923 0.022674 0
0.514040 0.017726 0
0.485953 0.014261 0
0.462370 0.011743 0
0.442322 0.009855 0
0.425082 0.008399 0
0.410105 0.007253 0
0.396971 0.006332 0
0.385359 0.005582 0
0.375016 0.004961 0
0.365741 0.004443 0
0.357374 0.004004 0
0.349783 0.003631 0
0.342863 0.003310 0
0.336524 0.003032 0
0.330692 0.002790 0
0.325306 0.002579 0
0.320313 0.002392 0
0.315668 0.002227 0
0.311333 0.002080 0
0.307276 0.001949 0
0.303467 0.001831 0
0.299883 0.001725 0
0.296501 0.001629 0
0.293302 0.001543 0
0.290271 0.001464 0
0.287392 0.001391 0
0.284652 0.001325 0
0.282041 0.001265 0
0.279547 0.001209 0
0.277162 0.001157 0
0.274877 0.001110 0
0.272686 0.001065 0
0.270582 0.001024 0
0.268558 0.000986 0
0.266609 0.000950 0
0.264731 0.000916 0
0.262919 0.000884 0
0.261170 0.000855 0
0.259479 0.000827 0
0.257842 0.000800 0
0.256258 0.000775 0
0.254724 0.000751 0
0.253236 0.000729 0
0.251792 0.000708 0
0.250391 0.000687 0
0.249029 0.000668 0
0.247706 0.000649 0
0.246420 0.000631 0
0.245169 0.000614 0
0.243952 0.000598 0
0.242767 0.000582 0
0.241613 0.000567 0
0.240489 0.000552 0
0.239394 0.000538 0
0.238328 0.000524 0
0.237288 0.000510 0
0.236276 0.000497 0
0.235289 0.000484 0
0.234327 0.000471 0
0.233391 0.000459 0
0.232479 0.000446 0
0.231592 0.000434 0
0.230729 0.000422 0
0.229891 0.000409 0
0.229076 0.000396 0
0.228287 0.000384 0
0.227522 0.000370 0
0.226784 0.000357 0
0.226071 0.000343 0
0.225387 0.000328 0
0.224730 0.000312 0
0.224104 0.000296 0
0.223510 0.000278 0
0.222950 0.000259 0
0.222426 0.000239 0
0.221942 0.000216 0
0.221501 0.000192 0
0.221106 0.000165 0
0.220764 0.000135 0
0.220479 0.000102 0
0.220257 0.000064 0
0.220108 0.000021 0
0.220039 -0.000029 0
0.220066 -0.000084 0
0.220198 -0.000145 0
0.220447 -0.000213 0
0.220828 -0.000291 0
0.221358 -0.000381 0
0.222059 -0.000483 0
0.222956 -0.000601 0
0.224077 -0.000737 0
0.225456 -0.000895 0
0.227134 -0.001078 0
0.229157 -0.001290 0
0.231581 -0.001539 0
0.234473 -0.001832 0
0.237913 -0.002178 0
0.241999 -0.002589 0
0.246849 -0.003081 0
0.252609 -0.003674 0
0.259463 -0.004397 0
0.267638 -0.005286 0
0.277430 -0.006393 0
0.289216 -0.007793 0
0.303497 -0.009591 0
0.320943 -0.011948 0
0.342473 -0.015111 0
0.369379 -0.019483 0
0.403527 -0.025747 0
0.447695 -0.035162 0
0.506195 -0.050104 0
0.585668 -0.076624 0
0.697376 -0.123250 0
0.855318 -0.257506 0
0.993825 -0.362416 0
0.993825 -0.181208 0
1.000000 0.000105 0
0.999859 0.000318 0
0.999574 0.000542 0
0.999133 0.000786 0
0.998521 0.001060 0
0.997714 0.001377 0
0.996681 0.001752 0
0.995379 0.002205 0
0.993750 0.002767 0
0.991715 0.003479 0
0.989168 0.004400 0
0.985962 0.005628 0
0.981887 0.007318 0
0.976642 0.009737 0
0.969782 0.013395 0
0.960673 0.019226 0
0.948431 0.029724 0
0.933028 0.047942 0
0.915086 0.093196 0
0.945330 0.133281 0
0.948626 0.130405 0
0.922939 0.109141 0
0.881981 0.086247 0
0.836589 0.067387 0
0.792539 0.053113 0
0.752206 0.042531 0
0.716223 0.034649 0
0.684455 0.028696 0
0.656485 0.024123 0
0.631828 0.020552 0
0.610017 0.017717 0
0.590640 0.015433 0
0.573343 0.013567 0
0.557826 0.012025 0
0.543839 0.010736 0
0.531172 0.009648 0
0.519650 0.008722 0
0.509125 0.007928 0
0.499472 0.007242 0
0.490585 0.006646 0
0.482375 0.006124 0
0.474764 0.005665 0
0.467686 0.005260 0
0.461084 0.004900 0
0.454909 0.004580 0
0.449117 0.004293 0
0.443671 0.004035 0
0.438537 0.003802 0
0.433688 0.003592 0
0.429097 0.003400 0
0.424742 0.003226 0
0.420603 0.003067 0
0.416661 0.002921 0
0.412902 0.002787 0
0.409311 0.002664 0
0.405875 0.002550 0
0.402583 0.002444 0
0.399424 0.002346 0
0.396389 0.002255 0
0.393471 0.002170 0
0.390660 0.002091 0
0.387951 0.002016 0
0.385337 0.001946 0
0.382813 0.001880 0
0.380373 0.001819 0
0.378011 0.001760 0
0.375725 0.001705 0
0.373510 0.001652 0
0.371362 0.001603 0
0.369279 0.001555 0
0.367255 0.001510 0
0.365290 0.001467 0
0.363380 0.001427 0
0.361523 0.001387 0
0.359716 0.001350 0
0.357957 0.001314 0
0.356245 0.001279 0
0.354578 0.001245 0
0.352954 0.001213 0
0.351371 0.001182 0
0.349829 0.001151 0
0.348326 0.001122 0
0.346861 0.001093 0
0.345432 0.001065 0
0.344040 0.001037 0
0.342684 0.001010 0
0.341362 0.000983 0
0.340075 0.000956 0
0.338822 0.000930 0
0.337604 0.000903 0
0.336419 0.000876 0
0.335269 0.000848 0
0.334154 0.000820 0
0.333074 0.000791 0
0.332031 0.000761 0
0.331025 0.000730 0
0.330059 0.000698 0
0.329133 0.000663 0
0.328251 0.000627 0
0.327414 0.000587 0
0.326626 0.000545 0
0.325891 0.000499 0
0.325213 0.000449 0
0.324597 0.000393 0
0.324049 0.000332 0
0.323576 0.000264 0
0.323186 0.000188 0
0.322889 0.000102 0
0.322695 0.000003 0
0.322621 -0.000110 0
0.322685 -0.000234 0
0.322902 -0.000374 0
0.323289 -0.000532 0
0.323869 -0.000712 0
0.324668 -0.000918 0
0.325717 -0.001155 0
0.327052 -0.001427 0
0.328715 -0.001741 0
0.330755 -0.002105 0
0.333229 -0.002527 0
0.336206 -0.003020 0
0.339767 -0.003596 0
0.344007 -0.004274 0
0.349042 -0.005077 0
0.355012 -0.006032 0
0.362087 -0.007178 0
0.370474 -0.008563 0
0.380432 -0.010253 0
0.392285 -0.012339 0
0.406443 -0.014946 0
0.423431 -0.018251 0
0.443934 -0.022516 0
0.468859 -0.028134 0
0.499419 -0.035721 0
0.537270 -0.046277 0
0.584683 -0.061542 0
0.644770 -0.084543 0
0.721455 -0.122033 0
0.818288 -0.182314 0
0.934559 -0.310145 0
0.994596 -0.401273 0
0.994596 -0.200637 0
1.000000 0.000138 0
0.999864 0.000419 0
0.999587 0.000715 0
0.999160 0.001037 0
0.998568 0.001398 0
0.997789 0.001814 0
0.996794 0.002306 0
0.995543 0.002901 0
0.993983 0.003635 0
0.992045 0.004560 0
0.989634 0.005754 0
0.986627 0.007333 0
0.982854 0.009484 0
0.978089 0.012517 0
0.972036 0.016991 0
0.964382 0.023874 0
0.954906 0.035310 0
0.945019 0.053755 0
0.937268 0.088384 0
0.965707 0.121150 0
0.987884 0.127636 0
0.990071 0.116924 0
0.975766 0.100561 0
0.951736 0.084528 0
0.923218 0.070783 0
0.893429 0.059534 0
0.864150 0.050450 0
0.836292 0.043114 0
0.810267 0.037162 0
0.786201 0.032298 0
0.764073 0.028292 0
0.743777 0.024966 0
0.725176 0.022181 0
0.708119 0.019832 0
0.692457 0.017835 0
0.678050 0.016126 0
0.664768 0.014653 0
0.652495 0.013377 0
0.641128 0.012265 0
0.630573 0.011290 0
0.620748 0.010432 0
0.611581 0.009673 0
0.603007 0.008999 0
0.594969 0.008398 0
0.587417 0.007860 0
0.580306 0.007377 0
0.573596 0.006941 0
0.567252 0.006547 0
0.561243 0.006189 0
0.555540 0.005863 0
0.550119 0.005566 0
0.544956 0.005294 0
0.540031 0.005045 0
0.535327 0.004815 0
0.530827 0.004603 0
0.526516 0.004407 0
0.522380 0.004225 0
0.518409 0.004057 0
0.514590 0.003899 0
0.510913 0.003753 0
0.507371 0.003616 0
0.503953 0.003487 0
0.500654 0.003366 0
0.497465 0.003253 0
0.494381 0.003146 0
0.491396 0.003045 0
0.488504 0.002949 0
0.485701 0.002859 0
0.482981 0.002773 0
0.480342 0.002691 0
0.477778 0.002614 0
0.475286 0.002539 0
0.472864 0.002469 0
0.470508 0.002401 0
0.468214 0.002336 0
0.465982 0.002274 0
0.463807 0.002214 0
0.461689 0.002156 0
0.459624 0.002101 0
0.457612 0.002047 0
0.455650 0.001995 0
0.453736 0.001944 0
0.451871 0.001895 0
0.450051 0.001846 0
0.448276 0.001799 0
0.446546 0.001752 0
0.444859 0.001706 0
0.443215 0.001661 0
0.441613 0.001615 0
0.440054 0.001570 0
0.438536 0.001524 0
0.437061 0.001478 0
0.435629 0.001430 0
0.434239 0.001382 0
0.432894 0.001332 0
0.431595 0.001280 0
0.430343 0.001226 0
0.429139 0.001169 0
0.427988 0.001109 0
0.426890 0.001044 0
0.425851 0.000974 0
0.424873 0.000899 0
0.423963 0.000817 0
0.423125 0.000727 0
0.422366 0.000628 0
0.421695 0.000518 0
0.421119 0.000396 0
0.420650 0.000258 0
0.420300 0.000101 0
0.420080 -0.000079 0
0.420018 -0.000280 0
0.420130 -0.000505 0
0.420437 -0.000758 0
0.420963 -0.001047 0
0.421738 -0.001376 0
0.422795 -0.001753 0
0.424174 -0.002185 0
0.425920 -0.002683 0
0.428086 -0.003258 0
0.430736 -0.003923 0
0.433942 -0.004697 0
0.437791 -0.005600 0
0.442384 -0.006658 0
0.447842 -0.007904 0
0.454310 -0.009381 0
0.461962 -0.011142 0
0.471007 -0.013257 0
0.481703 -0.015820 0
0.494363 -0.018956 0
0.509378 -0.022836 0
0.527235 -0.027699 0
0.548548 -0.033889 0
0.574097 -0.041910 0
0.604876 -0.052525 0
0.642150 -0.066929 0
0.687480 -0.087084 0
0.742652 -0.116164 0
0.809159 -0.160432 0
0.885776 -0.226178 0
0.965322 -0.342662 0
0.995323 -0.420410 0
0.995323 -0.210205 0
1.000000 0.000170 0
0.999869 0.000517 0
0.999604 0.000882 0
0.999195 0.001278 0
0.998628 0.001722 0
0.997884 0.002234 0
0.996936 0.002837 0
0.995748 0.003563 0
0.994274 0.004457 0
0.992454 0.005579 0
0.990209 0.007017 0
0.987440 0.008903 0
0.984022 0.011442 0
0.979805 0.014962 0
0.974637 0.020015 0
0.968468 0.027500 0
0.961560 0.039076 0
0.955831 0.056461 0
0.954476 0.083204 0
0.976671 0.108834 0
1.001710 0.118637 0
1.016358 0.114993 0
1.018677 0.104763 0
1.011391 0.092767 0
0.997797 0.081275 0
0.980475 0.071061 0
0.961200 0.062246 0
0.941142 0.054721 0
0.921050 0.048317 0
0.901397 0.042863 0
0.882463 0.038207 0
0.864406 0.034219 0
0.847300 0.030789 0
0.831164 0.027828 0
0.815984 0.025259 0
0.801724 0.023022 0
0.788337 0.021065 0
0.775768 0.019346 0
0.763963 0.017831 0
0.752867 0.016489 0
0.742426 0.015297 0
0.732589 0.014234 0
0.723310 0.013284 0
0.714545 0.012430 0
0.706253 0.011662 0
0.698398 0.010968 0
0.690945 0.010339 0
0.683863 0.009768 0
0.677125 0.009248 0
0.670705 0.008773 0
0.664579 0.008339 0
0.658725 0.007939 0
0.653125 0.007572 0
0.647761 0.007233 0
0.642617 0.006920 0
0.637677 0.006630 0
0.632928 0.006360 0
0.628359 0.006109 0
0.623957 0.005875 0
0.619713 0.005657 0
0.615617 0.005452 0
0.611661 0.005260 0
0.607835 0.005080 0
0.604134 0.004910 0
0.600550 0.004750 0
0.597077 0.004599 0
0.593709 0.004456 0
0.590440 0.004320 0
0.587267 0.004191 0
0.584185 0.004069 0
0.581188 0.003952 0
0.578274 0.003841 0
0.575438 0.003735 0
0.572677 0.003633 0
0.569989 0.003536 0
0.567370 0.003442 0
0.564817 0.003352 0
0.562328 0.003266 0
0.559901 0.003182 0
0.557534 0.003101 0
0.555224 0.003023 0
0.552971 0.002947 0
0.550771 0.002873 0
0.548625 0.002801 0
0.546530 0.002730 0
0.544486 0.002661 0
0.542492 0.002592 0
0.540546 0.002524 0
0.538649 0.002456 0
0.536800 0.002389 0
0.534998 0.002321 0
0.533245 0.002253 0
0.531540 0.002183 0
0.529884 0.002112 0
0.528278 0.002039 0
0.526723 0.001963 0
0.525221 0.001884 0
0.523773 0.001801 0
0.522383 0.001713 0
0.521052 0.001619 0
0.519786 0.001519 0
0.518588 0.001411 0
0.517463 0.001293 0
0.516417 0.001164 0
0.515457 0.001023 0
0.514592 0.000867 0
0.513830 0.000692 0
0.513183 0.000497 0
0.512663 0.000278 0
0.512282 0.000027 0
0.512059 -0.000258 0
0.512024 -0.000576 0
0.512195 -0.000934 0
0.512600 -0.001340 0
0.513267 -0.001803 0
0.514231 -0.002331 0
0.515533 -0.002936 0
0.517219 -0.003631 0
0.519343 -0.004431 0
0.521969 -0.005356 0
0.525170 -0.006427 0
0.529032 -0.007673 0
0.533656 -0.009129 0
0.539160 -0.010837 0
0.545685 -0.012852 0
0.553397 -0.015242 0
0.562493 -0.018098 0
0.573213 -0.021534 0
0.585841 -0.025706 0
0.600725 -0.030822 0
0.618284 -0.037170 0
0.639031 -0.045150 0
0.663586 -0.055341 0
0.692693 -0.068590 0
0.727214 -0.086174 0
0.768056 -0.110083 0
0.815926 -0.143313 0
0.870641 -0.191161 0
0.928735 -0.257740 0
0.981852 -0.363056 0
0.995985 -0.430253 0
0.995985 -0.215127 0
1.000000 0.000201 0
0.999876 0.000611 0
0.999624 0.001041 0
0.999236 0.001508 0
0.998699 0.002031 0
0.997996 0.002631 0
0.997104 0.003338 0
0.995990 0.004186 0
0.994616 0.005226 0
0.992932 0.006524 0
0.990877 0.008175 0
0.988376 0.010321 0
0.985348 0.013171 0
0.981715 0.017050 0
0.977446 0.022466 0
0.972684 0.030190 0
0.967981 0.041413 0
0.965254 0.057176 0
0.967534 0.078318 0
0.984749 0.098336 0
1.007163 0.108468 0
1.025317 0.108730 0
1.035732 0.102960 0
1.038731 0.094612 0
1.035895 0.085716 0
1.028851 0.077211 0
1.018912 0.069447 0
1.007069 0.062506 0
0.994050 0.056359 0
0.980383 0.050936 0
0.966451 0.046159 0
0.952529 0.041949 0
0.938808 0.038237 0
0.925418 0.034957 0
0.912445 0.032054 0
0.899940 0.029479 0
0.887933 0.027190 0
0.876432 0.025149 0
0.865437 0.023326 0
0.854937 0.021693 0
0.844917 0.020226 0
0.835357 0.018906 0
0.826235 0.017714 0
0.817530 0.016637 0
0.809218 0.015659 0
0.801277 0.014770 0
0.793685 0.013961 0
0.786422 0.013221 0
0.779467 0.012544 0
0.772801 0.011923 0
0.766406 0.011352 0
0.760267 0.010826 0
0.754367 0.010340 0
0.748693 0.009891 0
0.743230 0.009474 0
0.737966 0.009086 0
0.732889 0.008726 0
0.727989 0.008390 0
0.723256 0.008075 0
0.718681 0.007781 0
0.714254 0.007505 0
0.709968 0.007246 0
0.705816 0.007002 0
0.701790 0.006772 0
0.697884 0.006554 0
0.694093 0.006349 0
0.690411 0.006154 0
0.686832 0.005970 0
0.683351 0.005794 0
0.679966 0.005628 0
0.676670 0.005468 0
0.673461 0.005317 0
0.670334 0.005172 0
0.667287 0.005033 0
0.664316 0.004900 0
0.661418 0.004772 0
0.658591 0.004649 0
0.655832 0.004531 0
0.653138 0.004416 0
0.650508 0.004306 0
0.647940 0.004199 0
0.645432 0.004095 0
0.642982 0.003993 0
0.640588 0.003895 0
0.638250 0.003798 0
0.635966 0.003703 0
0.633735 0.003609 0
0.631557 0.003517 0
0.629430 0.003425 0
0.627355 0.003333 0
0.625331 0.003241 0
0.623359 0.003148 0
0.621438 0.003054 0
0.619570 0.002958 0
0.617754 0.002859 0
0.615993 0.002757 0
0.614288 0.002651 0
0.612640 0.002540 0
0.611053 0.002423 0
0.609530 0.002298 0
0.608073 0.002165 0
0.606687 0.002021 0
0.605378 0.001866 0
0.604152 0.001696 0
0.603014 0.001510 0
0.601974 0.001304 0
0.601041 0.001076 0
0.600225 0.000822 0
0.599539 0.000536 0
0.598998 0.000213 0
0.598611 -0.000156 0
0.598412 -0.000571 0
0.598422 -0.001037 0
0.598668 -0.001564 0
0.599178 -0.002164 0
0.599988 -0.002847 0
0.601136 -0.003628 0
0.602669 -0.004523 0
0.604639 -0.005552 0
0.607107 -0.006738 0
0.610144 -0.008108 0
0.613833 -0.009698 0
0.618269 -0.011550 0
0.623563 -0.013714 0
0.629846 -0.016257 0
0.637270 -0.019260 0
0.646015 -0.022829 0
0.656292 -0.027097 0
0.668350 -0.032244 0
0.682482 -0.038506 0
0.699033 -0.046201 0