# vtk DataFile Version 2.0
generated by CFD-lab course output (written by Tobias Neckel) 
ASCII

DATASET STRUCTURED_GRID
DIMENSIONS  142 42 1 
POINTS 5964 float

0.000000 0.250000 0
0.024648 0.250000 0
0.049296 0.250000 0
0.073944 0.250000 0
0.098592 0.250000 0
0.123239 0.250000 0
0.147887 0.250000 0
0.172535 0.250000 0
0.197183 0.250000 0
0.221831 0.250000 0
0.246479 0.250000 0
0.271127 0.250000 0
0.295775 0.250000 0
0.320423 0.250000 0
0.345070 0.250000 0
0.369718 0.250000 0
0.394366 0.250000 0
0.419014 0.250000 0
0.443662 0.250000 0
0.468310 0.250000 0
0.492958 0.250000 0
0.517606 0.250000 0
0.542254 0.250000 0
0.566901 0.250000 0
0.591549 0.250000 0
0.616197 0.250000 0
0.640845 0.250000 0
0.665493 0.250000 0
0.690141 0.250000 0
0.714789 0.250000 0
0.739437 0.250000 0
0.764085 0.250000 0
0.788732 0.250000 0
0.813380 0.250000 0
0.838028 0.250000 0
0.862676 0.250000 0
0.887324 0.250000 0
0.911972 0.250000 0
0.936620 0.250000 0
0.961268 0.250000 0
0.985915 0.250000 0
1.010563 0.250000 0
1.035211 0.250000 0
1.059859 0.250000 0
1.084507 0.250000 0
1.109155 0.250000 0
1.133803 0.250000 0
1.158451 0.250000 0
1.183099 0.250000 0
1.207746 0.250000 0
1.232394 0.250000 0
1.257042 0.250000 0
1.281690 0.250000 0
1.306338 0.250000 0
1.330986 0.250000 0
1.355634 0.250000 0
1.380282 0.250000 0
1.404930 0.250000 0
1.429577 0.250000 0
1.454225 0.250000 0
1.478873 0.250000 0
1.503521 0.250000 0
1.528169 0.250000 0
1.552817 0.250000 0
1.577465 0.250000 0
1.602113 0.250000 0
1.626761 0.250000 0
1.651408 0.250000 0
1.676056 0.250000 0
1.700704 0.250000 0
1.725352 0.250000 0
1.750000 0.250000 0
1.774648 0.250000 0
1.799296 0.250000 0
1.823944 0.250000 0
1.848592 0.250000 0
1.873239 0.250000 0
1.897887 0.250000 0
1.922535 0.250000 0
1.947183 0.250000 0
1.971831 0.250000 0
1.996479 0.250000 0
2.021127 0.250000 0
2.045775 0.250000 0
2.070423 0.250000 0
2.095070 0.250000 0
2.119718 0.250000 0
2.144366 0.250000 0
2.169014 0.250000 0
2.193662 0.250000 0
2.218310 0.250000 0
2.242958 0.250000 0
2.267606 0.250000 0
2.292254 0.250000 0
2.316901 0.250000 0
2.341549 0.250000 0
2.366197 0.250000 0
2.390845 0.250000 0
2.415493 0.250000 0
2.440141 0.250000 0
2.464789 0.250000 0
2.489437 0.250000 0
2.514085 0.250000 0
2.538732 0.250000 0
2.563380 0.250000 0
2.588028 0.250000 0
2.612676 0.250000 0
2.637324 0.250000 0
2.661972 0.250000 0
2.686620 0.250000 0
2.711268 0.250000 0
2.735915 0.250000 0
2.760563 0.250000 0
2.785211 0.250000 0
2.809859 0.250000 0
2.834507 0.250000 0
2.859155 0.250000 0
2.883803 0.250000 0
2.908451 0.250000 0
2.933099 0.250000 0
2.957746 0.250000 0
2.982394 0.250000 0
3.007042 0.250000 0
3.031690 0.250000 0
3.056338 0.250000 0
3.080986 0.250000 0
3.105634 0.250000 0
3.130282 0.250000 0
3.154930 0.250000 0
3.179577 0.250000 0
3.204225 0.250000 0
3.228873 0.250000 0
3.253521 0.250000 0
3.278169 0.250000 0
3.302817 0.250000 0
3.327465 0.250000 0
3.352113 0.250000 0
3.376761 0.250000 0
3.401408 0.250000 0
3.426056 0.250000 0
3.450704 0.250000 0
3.475352 0.250000 0
0.000000 0.261905 0
0.024648 0.261905 0
0.049296 0.261905 0
0.073944 0.261905 0
0.098592 0.261905 0
0.123239 0.261905 0
0.147887 0.261905 0
0.172535 0.261905 0
0.197183 0.261905 0
0.221831 0.261905 0
0.246479 0.261905 0
0.271127 0.261905 0
0.295775 0.261905 0
0.320423 0.261905 0
0.345070 0.261905 0
0.369718 0.261905 0
0.394366 0.261905 0
0.419014 0.261905 0
0.443662 0.261905 0
0.468310 0.261905 0
0.492958 0.261905 0
0.517606 0.261905 0
0.542254 0.261905 0
0.566901 0.261905 0
0.591549 0.261905 0
0.616197 0.261905 0
0.640845 0.261905 0
0.665493 0.261905 0
0.690141 0.261905 0
0.714789 0.261905 0
0.739437 0.261905 0
0.764085 0.261905 0
0.788732 0.261905 0
0.813380 0.261905 0
0.838028 0.261905 0
0.862676 0.261905 0
0.887324 0.261905 0
0.911972 0.261905 0
0.936620 0.261905 0
0.961268 0.261905 0
0.985915 0.261905 0
1.010563 0.261905 0
1.035211 0.261905 0
1.059859 0.261905 0
1.084507 0.261905 0
1.109155 0.261905 0
1.133803 0.261905 0
1.158451 0.261905 0
1.183099 0.261905 0
1.207746 0.261905 0
1.232394 0.261905 0
1.257042 0.261905 0
1.281690 0.261905 0
1.306338 0.261905 0
1.330986 0.261905 0
1.355634 0.261905 0
1.380282 0.261905 0
1.404930 0.261905 0
1.429577 0.261905 0
1.454225 0.261905 0
1.478873 0.261905 0
1.503521 0.261905 0
1.528169 0.261905 0
1.552817 0.261905 0
1.577465 0.261905 0
1.602113 0.261905 0
1.626761 0.261905 0
1.651408 0.261905 0
1.676056 0.261905 0
1.700704 0.261905 0
1.725352 0.261905 0
1.750000 0.261905 0
1.774648 0.261905 0
1.799296 0.261905 0
1.823944 0.261905 0
1.848592 0.261905 0
1.873239 0.261905 0
1.897887 0.261905 0
1.922535 0.261905 0
1.947183 0.261905 0
1.971831 0.261905 0
1.996479 0.261905 0
2.021127 0.261905 0
2.045775 0.261905 0
2.070423 0.261905 0
2.095070 0.261905 0
2.119718 0.261905 0
2.144366 0.261905 0
2.169014 0.261905 0
2.193662 0.261905 0
2.218310 0.261905 0
2.242958 0.261905 0
2.267606 0.261905 0
2.292254 0.261905 0
2.316901 0.261905 0
2.341549 0.261905 0
2.366197 0.261905 0
2.390845 0.261905 0
2.415493 0.261905 0
2.440141 0.261905 0
2.464789 0.261905 0
2.489437 0.261905 0
2.514085 0.261905 0
2.538732 0.261905 0
2.563380 0.261905 0
2.588028 0.261905 0
2.612676 0.261905 0
2.637324 0.261905 0
2.661972 0.261905 0
2.686620 0.261905 0
2.711268 0.261905 0
2.735915 0.261905 0
2.760563 0.261905 0
2.785211 0.261905 0
2.809859 0.261905 0
2.834507 0.261905 0
2.859155 0.261905 0
2.883803 0.261905 0
2.908451 0.261905 0
2.933099 0.261905 0
2.957746 0.261905 0
2.982394 0.261905 0
3.007042 0.261905 0
3.031690 0.261905 0
3.056338 0.261905 0
3.080986 0.261905 0
3.105634 0.261905 0
3.130282 0.261905 0
3.154930 0.261905 0
3.179577 0.261905 0
3.204225 0.261905 0
3.228873 0.261905 0
3.253521 0.261905 0
3.278169 0.261905 0
3.302817 0.261905 0
3.327465 0.261905 0
3.352113 0.261905 0
3.376761 0.261905 0
3.401408 0.261905 0
3.426056 0.261905 0
3.450704 0.261905 0
3.475352 0.261905 0
0.000000 0.273810 0
0.024648 0.273810 0
0.049296 0.273810 0
0.073944 0.273810 0
0.098592 0.273810 0
0.123239 0.273810 0
0.147887 0.273810 0
0.172535 0.273810 0
0.197183 0.273810 0
0.221831 0.273810 0
0.246479 0.273810 0
0.271127 0.273810 0
0.295775 0.273810 0
0.320423 0.273810 0
0.345070 0.273810 0
0.369718 0.273810 0
0.394366 0.273810 0
0.419014 0.273810 0
0.443662 0.273810 0
0.468310 0.273810 0
0.492958 0.273810 0
0.517606 0.273810 0
0.542254 0.273810 0
0.566901 0.273810 0
0.591549 0.273810 0
0.616197 0.273810 0
0.640845 0.273810 0
0.665493 0.273810 0
0.690141 0.273810 0
0.714789 0.273810 0
0.739437 0.273810 0
0.764085 0.273810 0
0.788732 0.273810 0
0.813380 0.273810 0
0.838028 0.273810 0
0.862676 0.273810 0
0.887324 0.273810 0
0.911972 0.273810 0
0.936620 0.273810 0
0.961268 0.273810 0
0.985915 0.273810 0
1.010563 0.273810 0
1.035211 0.273810 0
1.059859 0.273810 0
1.084507 0.273810 0
1.109155 0.273810 0
1.133803 0.273810 0
1.158451 0.273810 0
1.183099 0.273810 0
1.207746 0.273810 0
1.232394 0.273810 0
1.257042 0.273810 0
1.281690 0.273810 0
1.306338 0.273810 0
1.330986 0.273810 0
1.355634 0.273810 0
1.380282 0.273810 0
1.404930 0.273810 0
1.429577 0.273810 0
1.454225 0.273810 0
1.478873 0.273810 0
1.503521 0.273810 0
1.528169 0.273810 0
1.552817 0.273810 0
1.577465 0.273810 0
1.602113 0.273810 0
1.626761 0.273810 0
1.651408 0.273810 0
1.676056 0.273810 0
1.700704 0.273810 0
1.725352 0.273810 0
1.750000 0.273810 0
1.774648 0.273810 0
1.799296 0.273810 0
1.823944 0.273810 0
1.848592 0.273810 0
1.873239 0.273810 0
1.897887 0.273810 0
1.922535 0.273810 0
1.947183 0.273810 0
1.971831 0.273810 0
1.996479 0.273810 0
2.021127 0.273810 0
2.045775 0.273810 0
2.070423 0.273810 0
2.095070 0.273810 0
2.119718 0.273810 0
2.144366 0.273810 0
2.169014 0.273810 0
2.193662 0.273810 0
2.218310 0.273810 0
2.242958 0.273810 0
2.267606 0.273810 0
2.292254 0.273810 0
2.316901 0.273810 0
2.341549 0.273810 0
2.366197 0.273810 0
2.390845 0.273810 0
2.415493 0.273810 0
2.440141 0.273810 0
2.464789 0.273810 0
2.489437 0.273810 0
2.514085 0.273810 0
2.538732 0.273810 0
2.563380 0.273810 0
2.588028 0.273810 0
2.612676 0.273810 0
2.637324 0.273810 0
2.661972 0.273810 0
2.686620 0.273810 0
2.711268 0.273810 0
2.735915 0.273810 0
2.760563 0.273810 0
2.785211 0.273810 0
2.809859 0.273810 0
2.834507 0.273810 0
2.859155 0.273810 0
2.883803 0.273810 0
2.908451 0.273810 0
2.933099 0.273810 0
2.957746 0.273810 0
2.982394 0.273810 0
3.007042 0.273810 0
3.031690 0.273810 0
3.056338 0.273810 0
3.080986 0.273810 0
3.105634 0.273810 0
3.130282 0.273810 0
3.154930 0.273810 0
3.179577 0.273810 0
3.204225 0.273810 0
3.228873 0.273810 0
3.253521 0.273810 0
3.278169 0.273810 0
3.302817 0.273810 0
3.327465 0.273810 0
3.352113 0.273810 0
3.376761 0.273810 0
3.401408 0.273810 0
3.426056 0.273810 0
3.450704 0.273810 0
3.475352 0.273810 0
0.000000 0.285714 0
0.024648 0.285714 0
0.049296 0.285714 0
0.073944 0.285714 0
0.098592 0.285714 0
0.123239 0.285714 0
0.147887 0.285714 0
0.172535 0.285714 0
0.197183 0.285714 0
0.221831 0.285714 0
0.246479 0.285714 0
0.271127 0.285714 0
0.295775 0.285714 0
0.320423 0.285714 0
0.345070 0.285714 0
0.369718 0.285714 0
0.394366 0.285714 0
0.419014 0.285714 0
0.443662 0.285714 0
0.468310 0.285714 0
0.492958 0.285714 0
0.517606 0.285714 0
0.542254 0.285714 0
0.566901 0.285714 0
0.591549 0.285714 0
0.616197 0.285714 0
0.640845 0.285714 0
0.665493 0.285714 0
0.690141 0.285714 0
0.714789 0.285714 0
0.739437 0.285714 0
0.764085 0.285714 0
0.788732 0.285714 0
0.813380 0.285714 0
0.838028 0.285714 0
0.862676 0.285714 0
0.887324 0.285714 0
0.911972 0.285714 0
0.936620 0.285714 0
0.961268 0.285714 0
0.985915 0.285714 0
1.010563 0.285714 0
1.035211 0.285714 0
1.059859 0.285714 0
1.084507 0.285714 0
1.109155 0.285714 0
1.133803 0.285714 0
1.158451 0.285714 0
1.183099 0.285714 0
1.207746 0.285714 0
1.232394 0.285714 0
1.257042 0.285714 0
1.281690 0.285714 0
1.306338 0.285714 0
1.330986 0.285714 0
1.355634 0.285714 0
1.380282 0.285714 0
1.404930 0.285714 0
1.429577 0.285714 0
1.454225 0.285714 0
1.478873 0.285714 0
1.503521 0.285714 0
1.528169 0.285714 0
1.552817 0.285714 0
1.577465 0.285714 0
[...]
POINT_DATA 5964 

VECTORS velocity float
1.000000 0.000000 0
0.999854 0.000000 0
0.999556 0.000000 0
0.999097 0.000000 0
0.998458 0.000000 0
0.997615 0.000000 0
0.996532 0.000000 0
0.995162 0.000000 0
0.993440 0.000000 0
0.991275 0.000000 0
0.988543 0.000000 0
0.985062 0.000000 0
0.980561 0.000000 0
0.974614 0.000000 0
0.966517 0.000000 0
0.954934 0.000000 0
0.937383 0.000000 0
0.905760 0.000000 0
0.847693 0.000000 0
-0.000000 0.000000 0
-0.000000 0.000000 0
-0.000000 0.000000 0
-0.000000 0.000000 0
-0.000000 0.000000 0
-0.000000 0.000000 0
-0.000000 0.000000 0
-0.000000 0.000000 0
-0.000000 0.000000 0
-0.000000 0.000000 0
-0.000000 0.000000 0
-0.000000 0.000000 0
-0.000000 0.000000 0
-0.000000 0.000000 0
-0.000000 0.000000 0
-0.000000 0.000000 0
-0.000000 0.000000 0
-0.000000 0.000000 0
-0.000000 0.000000 0
-0.000000 0.000000 0
-0.000000 0.000000 0
-0.000000 0.000000 0
-0.000000 0.000000 0
-0.000000 0.000000 0
-0.000000 0.000000 0
-0.000000 0.000000 0
-0.000000 0.000000 0
-0.000000 0.000000 0
-0.000000 0.000000 0
-0.000000 0.000000 0
-0.000000 0.000000 0
-0.000000 0.000000 0
-0.000000 0.000000 0
-0.000000 0.000000 0
-0.000000 0.000000 0
-0.000000 0.000000 0
-0.000000 0.000000 0
-0.000000 0.000000 0
-0.000000 0.000000 0
-0.000000 0.000000 0
-0.000000 0.000000 0
-0.000000 0.000000 0
-0.000000 0.000000 0
-0.000000 0.000000 0
-0.000000 0.000000 0
-0.000000 0.000000 0
-0.000000 0.000000 0
-0.000000 0.000000 0
-0.000000 0.000000 0
-0.000000 0.000000 0
-0.000000 0.000000 0
-0.000000 0.000000 0
-0.000000 0.000000 0
-0.000000 0.000000 0
-0.000000 0.000000 0
-0.000000 0.000000 0
-0.000000 0.000000 0
-0.000000 0.000000 0
-0.000000 0.000000 0
-0.000000 0.000000 0
-0.000000 0.000000 0
-0.000000 0.000000 0
-0.000000 0.000000 0
-0.000000 0.000000 0
-0.000000 0.000000 0
-0.000000 0.000000 0
-0.000000 0.000000 0
-0.000000 0.000000 0
-0.000000 0.000000 0
-0.000000 0.000000 0
-0.000000 0.000000 0
-0.000000 0.000000 0
-0.000000 0.000000 0
-0.000000 0.000000 0
-0.000000 0.000000 0
-0.000000 0.000000 0
-0.000000 0.000000 0
-0.000000 0.000000 0
-0.000000 0.000000 0
-0.000000 0.000000 0
-0.000000 0.000000 0
-0.000000 0.000000 0
-0.000000 0.000000 0
-0.000000 0.000000 0
-0.000000 0.000000 0
-0.000000 0.000000 0
-0.000000 0.000000 0
-0.000000 0.000000 0
-0.000000 0.000000 0
-0.000000 0.000000 0
-0.000000 0.000000 0
-0.000000 0.000000 0
-0.000000 0.000000 0
-0.000000 0.000000 0
-0.000000 0.000000 0
-0.000000 0.000000 0
-0.000000 0.000000 0
-0.000000 0.000000 0
-0.000000 0.000000 0
-0.000000 0.000000 0
-0.000000 0.000000 0
-0.000000 0.000000 0
-0.000000 0.000000 0
-0.000000 0.000000 0
-0.000000 0.000000 0
-0.000000 0.000000 0
-0.000000 0.000000 0
-0.000000 0.000000 0
-0.000000 0.000000 0
-0.000000 0.000000 0
-0.000000 0.000000 0
-0.000000 0.000000 0
-0.000000 0.000000 0
-0.000000 0.000000 0
-0.000000 0.000000 0
-0.000000 0.000000 0
-0.000000 0.000000 0
-0.000000 0.000000 0
-0.000000 0.000000 0
-0.000000 0.000000 0
0.000000 0.000000 0
-0.000000 0.000000 0
0.496444 0.000000 0
1.000000 0.000035 0
0.999854 0.000107 0
0.999558 0.000183 0
0.999101 0.000265 0
0.998465 0.000358 0
0.997626 0.000465 0
0.996549 0.000592 0
0.995186 0.000747 0
0.993475 0.000939 0
0.991325 0.001182 0
0.988614 0.001500 0
0.985165 0.001928 0
0.980713 0.002523 0
0.974850 0.003392 0
0.966903 0.004753 0
0.955641 0.007036 0
0.938825 0.011875 0
0.910180 0.021660 0
0.860874 0.078853 0
0.714887 0.110956 0
0.576504 0.072745 0
0.473017 0.041074 0
0.401066 0.022638 0
0.351163 0.013309 0
0.315500 0.008679 0
0.288995 0.006202 0
0.268555 0.004718 0
0.252294 0.003739 0
0.239028 0.003050 0
0.227980 0.002542 0
0.218625 0.002156 0
0.210591 0.001855 0
0.203609 0.001615 0
0.197480 0.001420 0
0.192053 0.001260 0
0.187209 0.001127 0
0.182855 0.001015 0
0.178918 0.000919 0
0.175338 0.000838 0
0.172066 0.000767 0
0.169060 0.000706 0
0.166289 0.000652 0
0.163722 0.000605 0
0.161337 0.000563 0
0.159112 0.000526 0
0.157031 0.000493 0
0.155078 0.000464 0
0.153241 0.000437 0
0.151507 0.000413 0
0.149868 0.000391 0
0.148314 0.000371 0
0.146839 0.000353 0
0.145434 0.000337 0
0.144096 0.000322 0
0.142817 0.000307 0
0.141594 0.000295 0
0.140422 0.000283 0
0.139298 0.000271 0
0.138218 0.000261 0
0.137180 0.000251 0
0.136180 0.000242 0
0.135216 0.000234 0
0.134285 0.000226 0
0.133387 0.000218 0
0.132519 0.000211 0
0.131679 0.000204 0
0.130866 0.000198 0
0.130078 0.000192 0
0.129314 0.000186 0
0.128573 0.000181 0
0.127854 0.000175 0
0.127156 0.000170 0
0.126478 0.000166 0
0.125818 0.000161 0
0.125177 0.000157 0
0.124554 0.000152 0
0.123948 0.000148 0
0.123358 0.000144 0
0.122784 0.000140 0
0.122225 0.000137 0
0.121681 0.000133 0
0.121152 0.000129 0
0.120637 0.000126 0
0.120136 0.000123 0
0.119649 0.000119 0
0.119175 0.000116 0
0.118715 0.000112 0
0.118268 0.000109 0
0.117834 0.000106 0
0.117414 0.000102 0
0.117008 0.000099 0
0.116616 0.000095 0
0.116238 0.000091 0
0.115874 0.000088 0
0.115526 0.000084 0
0.115193 0.000079 0
0.114877 0.000075 0
0.114578 0.000070 0
0.114298 0.000065 0
0.114038 0.000060 0
0.113799 0.000054 0
0.113584 0.000047 0
0.113394 0.000040 0
0.113232 0.000033 0
0.113100 0.000024 0
0.113003 0.000014 0
0.112944 0.000003 0
0.112929 -0.000010 0
0.112964 -0.000024 0
0.113054 -0.000039 0
0.113204 -0.000057 0
0.113423 -0.000077 0
0.113719 -0.000099 0
0.114104 -0.000126 0
0.114591 -0.000156 0
0.115195 -0.000190 0
0.115932 -0.000230 0
0.116824 -0.000276 0
0.117894 -0.000330 0
0.119171 -0.000393 0
0.120688 -0.000467 0
0.122487 -0.000553 0
0.124617 -0.000656 0
0.127138 -0.000779 0
0.130124 -0.000926 0
0.133668 -0.001105 0
0.137885 -0.001324 0
0.142925 -0.001596 0
0.148981 -0.001937 0
0.156306 -0.002374 0
0.165243 -0.002943 0
0.176267 -0.003702 0
0.190046 -0.004743 0
0.207562 -0.006224 0
0.230312 -0.008425 0
0.260686 -0.011903 0
0.302776 -0.017819 0
0.363895 -0.029571 0
0.460677 -0.051936 0
0.618215 -0.166947 0
0.993197 -0.267580 0
0.993197 -0.133790 0
1.000000 0.000070 0
0.999856 0.000213 0
0.999564 0.000364 0
0.999113 0.000528 0
0.998486 0.000712 0
0.997659 0.000926 0
0.996599 0.001178 0
0.995259 0.001485 0
0.993579 0.001865 0
0.991473 0.002348 0
0.988825 0.002975 0
0.985469 0.003816 0
0.981163 0.004982 0
0.975541 0.006670 0
0.968025 0.009278 0
0.957649 0.013561 0
0.942785 0.021957 0
0.920695 0.037650 0
0.888370 0.094326 0
0.890999 0.137349 0
0.842149 0.116821 0
0.771618 0.084735 0
0.701222 0.058855 0
0.639920 0.041328 0
0.589258 0.030027 0
0.547924 0.022674 0
0.514041 0.017726 0
0.485953 0.014261 0
0.462370 0.011743 0
0.442322 0.009855 0
0.425083 0.008399 0
0.410106 0.007252 0
0.396972 0.006332 0
0.385360 0.005582 0
0.375017 0.004961 0
0.365743 0.004442 0
0.357376 0.004004 0
0.349785 0.003631 0
0.342865 0.003310 0
0.336526 0.003032 0
0.330695 0.002790 0
0.325309 0.002578 0
0.320316 0.002392 0
0.315672 0.002227 0
0.311338 0.002080 0
0.307281 0.001948 0
0.303473 0.001831 0
0.299889 0.001725 0
0.296508 0.001629 0
0.293310 0.001542 0
0.290280 0.001463 0
0.287402 0.001391 0
0.284663 0.001325 0
0.282053 0.001264 0
0.279561 0.001208 0
0.277177 0.001157 0
0.274894 0.001109 0
0.272705 0.001065 0
0.270602 0.001023 0
0.268580 0.000985 0
0.266634 0.000949 0
0.264758 0.000915 0
0.262949 0.000883 0
0.261203 0.000853 0
0.259515 0.000825 0
0.257882 0.000798 0
0.256302 0.000773 0
0.254771 0.000749 0
0.253288 0.000727 0
0.251849 0.000705 0
0.250453 0.000685 0
0.249097 0.000665 0
0.247781 0.000646 0
0.246501 0.000628 0
0.245257 0.000611 0
0.244048 0.000594 0
0.242871 0.000578 0
0.241727 0.000562 0
0.240613 0.000547 0
0.239528 0.000533 0
0.238473 0.000518 0
0.237446 0.000504 0
0.236447 0.000491 0
0.235474 0.000477 0
0.234528 0.000464 0
0.233608 0.000451 0
0.232714 0.000438 0
0.231846 0.000425 0
0.231003 0.000412 0
0.230186 0.000399 0
0.229395 0.000386 0
0.228630 0.000372 0
0.227892 0.000358 0
0.227181 0.000344 0
0.226499 0.000329 0
0.225845 0.000313 0
0.225223 0.000297 0
0.224633 0.000279 0
0.224077 0.000261 0
0.223557 0.000241 0
0.223076 0.000219 0
0.222638 0.000196 0
0.222245 0.000170 0
0.221902 0.000142 0
0.221614 0.000111 0
0.221386 0.000076 0
0.221226 0.000036 0
0.221142 -0.000010 0
0.221146 -0.000060 0
0.221248 -0.000116 0
0.221457 -0.000178 0
0.221787 -0.000249 0
0.222253 -0.000329 0
0.222874 -0.000421 0
0.223671 -0.000527 0
0.224669 -0.000648 0
0.225897 -0.000787 0
0.227389 -0.000947 0
0.229185 -0.001133 0
0.231332 -0.001350 0
0.233885 -0.001602 0
0.236911 -0.001898 0
0.240490 -0.002246 0
0.244718 -0.002660 0
0.249713 -0.003154 0
0.255618 -0.003749 0
0.262615 -0.004471 0
0.270930 -0.005359 0
0.280852 -0.006463 0
0.292755 -0.007855 0
0.307132 -0.009641 0
0.324644 -0.011979 0
0.346199 -0.015116 0
0.373072 -0.019448 0
0.407111 -0.025658 0
0.451071 -0.035000 0
0.509237 -0.049850 0
0.588231 -0.076265 0
0.699286 -0.122835 0
0.856477 -0.257204 0
0.993899 -0.362227 0
0.993899 -0.181114 0
1.000000 0.000105 0
0.999859 0.000318 0
0.999574 0.000542 0
0.999133 0.000786 0
0.998521 0.001060 0
0.997714 0.001377 0
0.996681 0.001752 0
0.995379 0.002205 0
0.993750 0.002767 0
0.991715 0.003479 0
0.989168 0.004400 0
0.985962 0.005628 0
0.981887 0.007318 0
0.976642 0.009737 0
0.969782 0.013395 0
0.960673 0.019226 0
0.948431 0.029724 0
0.933028 0.047942 0
0.915086 0.093196 0
0.945330 0.133281 0
0.948626 0.130405 0
0.922939 0.109141 0
0.881981 0.086247 0
0.836590 0.067387 0
0.792539 0.053113 0
0.752207 0.042531 0
0.716223 0.034649 0
0.684456 0.028696 0
0.656486 0.024123 0
0.631829 0.020552 0
0.610018 0.017717 0
0.590641 0.015432 0
0.573344 0.013567 0
0.557827 0.012024 0
0.543841 0.010736 0
0.531174 0.009648 0
0.519652 0.008722 0
0.509127 0.007928 0
0.499475 0.007242 0
0.490588 0.006645 0
0.482378 0.006124 0
0.474768 0.005665 0
0.467691 0.005260 0
0.461089 0.004900 0
0.454915 0.004579 0
0.449124 0.004292 0
0.443678 0.004034 0
0.438546 0.003801 0
0.433698 0.003591 0
0.429108 0.003399 0
0.424754 0.003225 0
0.420616 0.003066 0
0.416677 0.002920 0
0.412919 0.002786 0
0.409330 0.002663 0
0.405896 0.002548 0
0.402606 0.002443 0
0.399450 0.002344 0
0.396418 0.002253 0
0.393502 0.002168 0
0.390695 0.002088 0
0.387990 0.002013 0
0.385380 0.001943 0
0.382859 0.001877 0
0.380424 0.001815 0
0.378068 0.001756 0
0.375787 0.001700 0
0.373578 0.001648 0
0.371437 0.001598 0
0.369360 0.001550 0
0.367345 0.001504 0
0.365388 0.001461 0
0.363487 0.001420 0
0.361640 0.001380 0
0.359844 0.001342 0
0.358097 0.001305 0
0.356398 0.001269 0
0.354744 0.001235 0
0.353135 0.001202 0
0.351568 0.001170 0
0.350043 0.001139 0
0.348559 0.001108 0
0.347114 0.001078 0
0.345707 0.001049 0
0.344338 0.001020 0
0.343007 0.000992 0
0.341712 0.000964 0
0.340454 0.000935 0
0.339232 0.000907 0
0.338046 0.000879 0
0.336897 0.000850 0
0.335785 0.000821 0
0.334710 0.000791 0
0.333674 0.000761 0
0.332676 0.000729 0
0.331720 0.000696 0
0.330806 0.000661 0
0.329936 0.000624 0
0.329113 0.000585 0
0.328340 0.000543 0
0.327619 0.000498 0
0.326955 0.000449 0
0.326352 0.000396 0
0.325816 0.000337 0
0.325353 0.000273 0
0.324971 0.000201 0
0.324677 0.000121 0
0.324481 0.000029 0
0.324397 -0.000075 0
0.324443 -0.000190 0
0.324630 -0.000317 0
0.324975 -0.000461 0
0.325497 -0.000624 0
0.326219 -0.000810 0
0.327167 -0.001022 0
0.328372 -0.001265 0
0.329871 -0.001544 0
0.331705 -0.001865 0
0.333923 -0.002235 0
0.336582 -0.002663 0
0.339750 -0.003162 0
0.343507 -0.003744 0
0.347947 -0.004427 0
0.353184 -0.005233 0
0.359357 -0.006191 0
0.366631 -0.007337 0
0.375212 -0.008719 0
0.385354 -0.010404 0
0.397375 -0.012478 0
0.411678 -0.015067 0
0.428780 -0.018345 0
0.449355 -0.022571 0
0.474294 -0.028134 0
0.504795 -0.035644 0
0.542493 -0.046098 0
0.589633 -0.061229 0
0.649301 -0.084066 0
0.725388 -0.121364 0
0.821387 -0.181497 0
0.936564 -0.309243 0
0.994676 -0.400327 0
0.994676 -0.200164 0
1.000000 0.000138 0
0.999864 0.000419 0
0.999587 0.000715 0
0.999160 0.001037 0
0.998568 0.001398 0
0.997789 0.001814 0
0.996794 0.002306 0
0.995543 0.002901 0
0.993983 0.003635 0
0.992045 0.004560 0
0.989634 0.005754 0
0.986627 0.007333 0
0.982854 0.009484 0
0.978089 0.012517 0
0.972036 0.016991 0
0.964382 0.023874 0
0.954906 0.035310 0
0.945019 0.053755 0
0.937268 0.088384 0
0.965707 0.121150 0
0.987884 0.127636 0
0.990071 0.116924 0
0.975766 0.100561 0
0.951737 0.084528 0
0.923218 0.070783 0
0.893429 0.059534 0
0.864150 0.050449 0
0.836293 0.043114 0
0.810267 0.037162 0
0.786202 0.032298 0
0.764074 0.028292 0
0.743779 0.024966 0
0.725178 0.022181 0
0.708121 0.019832 0
0.692459 0.017834 0
0.678052 0.016125 0
0.664771 0.014653 0
0.652498 0.013376 0
0.641131 0.012264 0
0.630577 0.011289 0
0.620752 0.010431 0
0.611586 0.009672 0
0.603012 0.008998 0
0.594975 0.008397 0
0.587424 0.007859 0
0.580314 0.007376 0
0.573605 0.006940 0
0.567263 0.006545 0
0.561255 0.006187 0
0.555553 0.005862 0
0.550133 0.005565 0
0.544972 0.005292 0
0.540049 0.005043 0
0.535347 0.004813 0
0.530849 0.004601 0
0.526541 0.004404 0
0.522408 0.004222 0
0.518439 0.004053 0
0.514624 0.003896 0
0.510951 0.003749 0
0.507412 0.003611 0
0.504000 0.003482 0
0.500705 0.003361 0
0.497522 0.003247 0
0.494444 0.003139 0
0.491465 0.003038 0
0.488580 0.002942 0
0.485784 0.002851 0
0.483073 0.002764 0
0.480442 0.002682 0
0.477888 0.002603 0
0.475407 0.002528 0
0.472997 0.002456 0
0.470653 0.002388 0
0.468374 0.002322 0
0.466156 0.002258 0
0.463998 0.002197 0
0.461897 0.002138 0
0.459851 0.002081 0
0.457859 0.002026 0
0.455919 0.001972 0
0.454030 0.001919 0
0.452190 0.001868 0
0.450398 0.001818 0
0.448654 0.001768 0
0.446956 0.001720 0
0.445303 0.001671 0
0.443697 0.001623 0
0.442135 0.001575 0
0.440619 0.001527 0
0.439148 0.001478 0
0.437722 0.001428 0
0.436343 0.001378 0
0.435010 0.001326 0
0.433726 0.001272 0
0.432491 0.001217 0
0.431308 0.001158 0
0.430179 0.001097 0
0.429106 0.001032 0
0.428092 0.000963 0
0.427142 0.000888 0
0.426259 0.000808 0
0.425449 0.000720 0
0.424718 0.000624 0
0.424072 0.000519 0
0.423521 0.000402 0
0.423072 0.000272 0
0.422738 0.000125 0
0.422529 -0.000042 0
0.422467 -0.000229 0
0.422569 -0.000435 0
0.422853 -0.000667 0
0.423340 -0.000930 0
0.424054 -0.001228 0
0.425026 -0.001567 0
0.426288 -0.001954 0
0.427881 -0.002396 0
0.429849 -0.002905 0
0.432245 -0.003489 0
0.435131 -0.004164 0
0.438579 -0.004946 0
0.442674 -0.005857 0
0.447515 -0.006921 0
0.453222 -0.008171 0
0.459936 -0.009649 0
0.467826 -0.011407 0
0.477100 -0.013515 0
0.488007 -0.016064 0
0.500855 -0.019177 0
0.516027 -0.023023 0
0.533999 -0.027839 0
0.555374 -0.033962 0
0.580916 -0.041893 0
0.611603 -0.052388 0
0.648677 -0.066634 0
0.693673 -0.086587 0
0.748344 -0.115418 0
0.814139 -0.159381 0
0.889744 -0.224831 0
0.967879 -0.340901 0
0.995410 -0.418362 0
0.995410 -0.209181 0
1.000000 0.000170 0
0.999869 0.000517 0
0.999604 0.000882 0
0.999195 0.001278 0
0.998628 0.001722 0
0.997884 0.002234 0
0.996936 0.002837 0
0.995748 0.003563 0
0.994274 0.004457 0
0.992454 0.005579 0
0.990209 0.007017 0
0.987440 0.008903 0
0.984022 0.011442 0
0.979805 0.014962 0
0.974637 0.020015 0
0.968468 0.027500 0
0.961560 0.039076 0
0.955831 0.056461 0
0.954477 0.083204 0
0.976671 0.108834 0
1.001710 0.118637 0
1.016359 0.114993 0
1.018677 0.104763 0
1.011392 0.092767 0
0.997798 0.081275 0
0.980475 0.071061 0
0.961201 0.062245 0
0.941142 0.054721 0
0.921051 0.048317 0
0.901397 0.042863 0
0.882464 0.038207 0
0.864407 0.034219 0
0.847301 0.030789 0
0.831166 0.027827 0
0.815986 0.025259 0
0.801726 0.023021 0
0.788339 0.021064 0
0.775771 0.019346 0
0.763967 0.017830 0
0.752871 0.016488 0
0.742430 0.015296 0
0.732594 0.014233 0
0.723316 0.013282 0
0.714551 0.012429 0
0.706260 0.011660 0
0.698406 0.010966 0
0.690954 0.010338 0
0.683874 0.009766 0
0.677137 0.009246 0
0.670718 0.008771 0
0.664594 0.008336 0
0.658742 0.007936 0
0.653145 0.007569 0
0.647783 0.007230 0
0.642641 0.006916 0
0.637704 0.006625 0
0.632958 0.006356 0
0.628392 0.006104 0
0.623994 0.005870 0
0.619754 0.005651 0
0.615663 0.005446 0
0.611711 0.005253 0
0.607891 0.005072 0
0.604196 0.004901 0
0.600618 0.004740 0
0.597152 0.004588 0
0.593792 0.004444 0
0.590533 0.004308 0
0.587369 0.004178 0
0.584297 0.004054 0
0.581311 0.003936 0
0.578409 0.003824 0
0.575587 0.003716 0
0.572841 0.003613 0
0.570168 0.003514 0
0.567566 0.003418 0
0.565032 0.003327 0
0.562564 0.003238 0
0.560159 0.003152 0
0.557815 0.003069 0
0.555531 0.002988 0
0.553305 0.002909 0
0.551136 0.002833 0
0.549022 0.002757 0
0.546963 0.002683 0
0.544957 0.002610 0
0.543003 0.002538 0
0.541101 0.002466 0
0.539251 0.002394 0
0.537453 0.002322 0
0.535707 0.002249 0
0.534012 0.002176 0
0.532370 0.002101 0
0.530781 0.002024 0
0.529247 0.001945 0
0.527769 0.001863 0
0.526350 0.001778 0
0.524990 0.001688 0
0.523693 0.001593 0
0.522463 0.001492 0
0.521304 0.001383 0
0.520219 0.001267 0
0.519215 0.001140 0
0.518297 0.001002 0
0.517473 0.000851 0
0.516752 0.000684 0
0.516143 0.000499 0
0.515657 0.000291 0
0.515305 0.000056 0
0.515105 -0.000209 0
0.515082 -0.000504 0
0.515252 -0.000833 0
0.515640 -0.001205 0
0.516269 -0.001625 0
0.517170 -0.002101 0
0.518378 -0.002644 0
0.519933 -0.003264 0
0.521880 -0.003972 0
0.524272 -0.004786 0
0.527173 -0.005723 0
0.530653 -0.006805 0
0.534796 -0.008060 0
0.539702 -0.009521 0
0.545485 -0.011232 0
0.552282 -0.013244 0
0.560255 -0.015627 0
0.569597 -0.018466 0
0.580539 -0.021877 0
0.593360 -0.026012 0
0.608398 -0.031075 0
0.626061 -0.037349 0
0.646848 -0.045232 0
0.671366 -0.055292 0
0.700340 -0.068372 0
0.734608 -0.085737 0
0.775052 -0.109368 0
0.822339 -0.142250 0
0.876233 -0.189659 0
0.933165 -0.255753 0
0.984641 -0.360279 0
0.996077 -0.426921 0
0.996077 -0.213460 0
1.000000 0.000201 0
0.999876 0.000611 0
0.999624 0.001041 0
0.999236 0.001508 0
0.998699 0.002031 0
0.997996 0.002631 0
0.997104 0.003338 0
0.995990 0.004186 0
0.994616 0.005226 0
0.992932 0.006524 0
0.990877 0.008175 0
0.988376 0.010321 0
0.985348 0.013171 0
0.981715 0.017050 0
0.977446 0.022466 0
0.972684 0.030190 0
0.967981 0.041413 0
0.965254 0.057176 0
0.967534 0.078318 0
0.984749 0.098336 0
1.007163 0.108468 0
1.025317 0.108730 0
1.035732 0.102960 0
1.038731 0.094612 0
1.035896 0.085716 0
1.028851 0.077210 0
1.018913 0.069447 0
1.007070 0.062506 0
0.994050 0.056358 0
0.980383 0.050936 0
0.966452 0.046158 0
0.952530 0.041949 0
0.938809 0.038236 0
0.925420 0.034957 0
0.912447 0.032054 0
0.899942 0.029478 0
0.887935 0.027189 0
0.876435 0.025148 0
0.865440 0.023325 0
0.854940 0.021692 0
0.844921 0.020225 0
0.835361 0.018905 0
0.826241 0.017713 0
0.817536 0.016635 0
0.809225 0.015657 0
0.801285 0.014768 0
0.793695 0.013958 0
0.786432 0.013219 0
0.779478 0.012542 0
0.772814 0.011920 0
0.766421 0.011349 0
0.760284 0.010822 0
0.754386 0.010336 0
0.748714 0.009886 0
0.743254 0.009469 0
0.737992 0.009081 0
0.732919 0.008720 0
0.728023 0.008383 0
0.723294 0.008068 0
0.718722 0.007773 0
0.714300 0.007496 0
0.710020 0.007236 0
0.705873 0.006991 0
0.701854 0.006760 0
0.697955 0.006541 0
0.694171 0.006335 0
0.690497 0.006139 0
0.686927 0.005953 0
0.683457 0.005776 0
0.680082 0.005607 0
0.676798 0.005447 0
0.673602 0.005293 0
0.670490 0.005146 0
0.667458 0.005005 0
0.664504 0.004869 0
0.661624 0.004739 0
0.658817 0.004613 0
0.656080 0.004492 0
0.653410 0.004375 0
0.650806 0.004261 0
0.648266 0.004150 0
0.645788 0.004042 0
0.643370 0.003937 0
0.641012 0.003834 0
0.638712 0.003732 0
0.636469 0.003632 0
0.634283 0.003533 0
0.632153 0.003435 0
0.630078 0.003337 0
0.628059 0.003239 0
0.626095 0.003140 0
0.624187 0.003040 0
0.622336 0.002938 0
0.620541 0.002834 0
0.618806 0.002727 0
0.617130 0.002616 0
0.615516 0.002501 0
0.613966 0.002380 0
0.612483 0.002252 0
0.611071 0.002117 0
0.609733 0.001972 0
0.608473 0.001817 0
0.607299 0.001648 0
0.606215 0.001466 0
0.605229 0.001265 0
0.604349 0.001045 0
0.603586 0.000801 0
0.602950 0.000530 0
0.602454 0.000224 0
0.602107 -0.000120 0
0.601939 -0.000506 0
0.601968 -0.000937 0
0.602218 -0.001421 0
0.602712 -0.001967 0
0.603482 -0.002585 0
0.604560 -0.003288 0
0.605986 -0.004088 0
0.607804 -0.005001 0
0.610065 -0.006046 0
0.612831 -0.007246 0
0.616169 -0.008629 0
0.620158 -0.010227 0
0.624893 -0.012083 0
0.630480 -0.014247 0
0.637046 -0.016782 0
0.644738 -0.019770 0
0.653731 -0.023312 0
0.664227 -0.027541 0
0.676468 -0.032632 0
0.690738 -0.038817 0