# vtk DataFile Version 2.0
generated by CFD-lab course output (written by Tobias Neckel) 
ASCII

DATASET STRUCTURED_GRID
DIMENSIONS  142 42 1 
POINTS 5964 float

0.000000 0.250000 0
0.024648 0.250000 0
0.049296 0.250000 0
0.073944 0.250000 0
0.098592 0.250000 0
0.123239 0.250000 0
0.147887 0.250000 0
0.172535 0.250000 0
0.197183 0.250000 0
0.221831 0.250000 0
0.246479 0.250000 0
0.271127 0.250000 0
0.295775 0.250000 0
0.320423 0.250000 0
0.345070 0.250000 0
0.369718 0.250000 0
0.394366 0.250000 0
0.419014 0.250000 0
0.443662 0.250000 0
0.468310 0.250000 0
0.492958 0.250000 0
0.517606 0.250000 0
0.542254 0.250000 0
0.566901 0.250000 0
0.591549 0.250000 0
0.616197 0.250000 0
0.640845 0.250000 0
0.665493 0.250000 0
0.690141 0.250000 0
0.714789 0.250000 0
0.739437 0.250000 0
0.764085 0.250000 0
0.788732 0.250000 0
0.813380 0.250000 0
0.838028 0.250000 0
0.862676 0.250000 0
0.887324 0.250000 0
0.911972 0.250000 0
0.936620 0.250000 0
0.961268 0.250000 0
0.985915 0.250000 0
1.010563 0.250000 0
1.035211 0.250000 0
1.059859 0.250000 0
1.084507 0.250000 0
1.109155 0.250000 0
1.133803 0.250000 0
1.158451 0.250000 0
1.183099 0.250000 0
1.207746 0.250000 0
1.232394 0.250000 0
1.257042 0.250000 0
1.281690 0.250000 0
1.306338 0.250000 0
1.330986 0.250000 0
1.355634 0.250000 0
1.380282 0.250000 0
1.404930 0.250000 0
1.429577 0.250000 0
1.454225 0.250000 0
1.478873 0.250000 0
1.503521 0.250000 0
1.528169 0.250000 0
1.552817 0.250000 0
1.577465 0.250000 0
1.602113 0.250000 0
1.626761 0.250000 0
1.651408 0.250000 0
1.676056 0.250000 0
1.700704 0.250000 0
1.725352 0.250000 0
1.750000 0.250000 0
1.774648 0.250000 0
1.799296 0.250000 0
1.823944 0.250000 0
1.848592 0.250000 0
1.873239 0.250000 0
1.897887 0.250000 0
1.922535 0.250000 0
1.947183 0.250000 0
1.971831 0.250000 0
1.996479 0.250000 0
2.021127 0.250000 0
2.045775 0.250000 0
2.070423 0.250000 0
2.095070 0.250000 0
2.119718 0.250000 0
2.144366 0.250000 0
2.169014 0.250000 0
2.193662 0.250000 0
2.218310 0.250000 0
2.242958 0.250000 0
2.267606 0.250000 0
2.292254 0.250000 0
2.316901 0.250000 0
2.341549 0.250000 0
2.366197 0.250000 0
2.390845 0.250000 0
2.415493 0.250000 0
2.440141 0.250000 0
2.464789 0.250000 0
2.489437 0.250000 0
2.514085 0.250000 0
2.538732 0.250000 0
2.563380 0.250000 0
2.588028 0.250000 0
2.612676 0.250000 0
2.637324 0.250000 0
2.661972 0.250000 0
2.686620 0.250000 0
2.711268 0.250000 0
2.735915 0.250000 0
2.760563 0.250000 0
2.785211 0.250000 0
2.809859 0.250000 0
2.834507 0.250000 0
2.859155 0.250000 0
2.883803 0.250000 0
2.908451 0.250000 0
2.933099 0.250000 0
2.957746 0.250000 0
2.982394 0.250000 0
3.007042 0.250000 0
3.031690 0.250000 0
3.056338 0.250000 0
3.080986 0.250000 0
3.105634 0.250000 0
3.130282 0.250000 0
3.154930 0.250000 0
3.179577 0.250000 0
3.204225 0.250000 0
3.228873 0.250000 0
3.253521 0.250000 0
3.278169 0.250000 0
3.302817 0.250000 0
3.327465 0.250000 0
3.352113 0.250000 0
3.376761 0.250000 0
3.401408 0.250000 0
3.426056 0.250000 0
3.450704 0.250000 0
3.475352 0.250000 0
0.000000 0.261905 0
0.024648 0.261905 0
0.049296 0.261905 0
0.073944 0.261905 0
0.098592 0.261905 0
0.123239 0.261905 0
0.147887 0.261905 0
0.172535 0.261905 0
0.197183 0.261905 0
0.221831 0.261905 0
0.246479 0.261905 0
0.271127 0.261905 0
0.295775 0.261905 0
0.320423 0.261905 0
0.345070 0.261905 0
0.369718 0.261905 0
0.394366 0.261905 0
0.419014 0.261905 0
0.443662 0.261905 0
0.468310 0.261905 0
0.492958 0.261905 0
0.517606 0.261905 0
0.542254 0.261905 0
0.566901 0.261905 0
0.591549 0.261905 0
0.616197 0.261905 0
0.640845 0.261905 0
0.665493 0.261905 0
0.690141 0.261905 0
0.714789 0.261905 0
0.739437 0.261905 0
0.764085 0.261905 0
0.788732 0.261905 0
0.813380 0.261905 0
0.838028 0.261905 0
0.862676 0.261905 0
0.887324 0.261905 0
0.911972 0.261905 0
0.936620 0.261905 0
0.961268 0.261905 0
0.985915 0.261905 0
1.010563 0.261905 0
1.035211 0.261905 0
1.059859 0.261905 0
1.084507 0.261905 0
1.109155 0.261905 0
1.133803 0.261905 0
1.158451 0.261905 0
1.183099 0.261905 0
1.207746 0.261905 0
1.232394 0.261905 0
1.257042 0.261905 0
1.281690 0.261905 0
1.306338 0.261905 0
1.330986 0.261905 0
1.355634 0.261905 0
1.380282 0.261905 0
1.404930 0.261905 0
1.429577 0.261905 0
1.454225 0.261905 0
1.478873 0.261905 0
1.503521 0.261905 0
1.528169 0.261905 0
1.552817 0.261905 0
1.577465 0.261905 0
1.602113 0.261905 0
1.626761 0.261905 0
1.651408 0.261905 0
1.676056 0.261905 0
1.700704 0.261905 0
1.725352 0.261905 0
1.750000 0.261905 0
1.774648 0.261905 0
1.799296 0.261905 0
1.823944 0.261905 0
1.848592 0.261905 0
1.873239 0.261905 0
1.897887 0.261905 0
1.922535 0.261905 0
1.947183 0.261905 0
1.971831 0.261905 0
1.996479 0.261905 0
2.021127 0.261905 0
2.045775 0.261905 0
2.070423 0.261905 0
2.095070 0.261905 0
2.119718 0.261905 0
2.144366 0.261905 0
2.169014 0.261905 0
2.193662 0.261905 0
2.218310 0.261905 0
2.242958 0.261905 0
2.267606 0.261905 0
2.292254 0.261905 0
2.316901 0.261905 0
2.341549 0.261905 0
2.366197 0.261905 0
2.390845 0.261905 0
2.415493 0.261905 0
2.440141 0.261905 0
2.464789 0.261905 0
2.489437 0.261905 0
2.514085 0.261905 0
2.538732 0.261905 0
2.563380 0.261905 0
2.588028 0.261905 0
2.612676 0.261905 0
2.637324 0.261905 0
2.661972 0.261905 0
2.686620 0.261905 0
2.711268 0.261905 0
2.735915 0.261905 0
2.760563 0.261905 0
2.785211 0.261905 0
2.809859 0.261905 0
2.834507 0.261905 0
2.859155 0.261905 0
2.883803 0.261905 0
2.908451 0.261905 0
2.933099 0.261905 0
2.957746 0.261905 0
2.982394 0.261905 0
3.007042 0.261905 0
3.031690 0.261905 0
3.056338 0.261905 0
3.080986 0.261905 0
3.105634 0.261905 0
3.130282 0.261905 0
3.154930 0.261905 0
3.179577 0.261905 0
3.204225 0.261905 0
3.228873 0.261905 0
3.253521 0.261905 0
3.278169 0.261905 0
3.302817 0.261905 0
3.327465 0.261905 0
3.352113 0.261905 0
3.376761 0.261905 0
3.401408 0.261905 0
3.426056 0.261905 0
3.450704 0.261905 0
3.475352 0.261905 0
0.000000 0.273810 0
0.024648 0.273810 0
0.049296 0.273810 0
0.073944 0.273810 0
0.098592 0.273810 0
0.123239 0.273810 0
0.147887 0.273810 0
0.172535 0.273810 0
0.197183 0.273810 0
0.221831 0.273810 0
0.246479 0.273810 0
0.271127 0.273810 0
0.295775 0.273810 0
0.320423 0.273810 0
0.345070 0.273810 0
0.369718 0.273810 0
0.394366 0.273810 0
0.419014 0.273810 0
0.443662 0.273810 0
0.468310 0.273810 0
0.492958 0.273810 0
0.517606 0.273810 0
0.542254 0.273810 0
0.566901 0.273810 0
0.591549 0.273810 0
0.616197 0.273810 0
0.640845 0.273810 0
0.665493 0.273810 0
0.690141 0.273810 0
0.714789 0.273810 0
0.739437 0.273810 0
0.764085 0.273810 0
0.788732 0.273810 0
0.813380 0.273810 0
0.838028 0.273810 0
0.862676 0.273810 0
0.887324 0.273810 0
0.911972 0.273810 0
0.936620 0.273810 0
0.961268 0.273810 0
0.985915 0.273810 0
1.010563 0.273810 0
1.035211 0.273810 0
1.059859 0.273810 0
1.084507 0.273810 0
1.109155 0.273810 0
1.133803 0.273810 0
1.158451 0.273810 0
1.183099 0.273810 0
1.207746 0.273810 0
1.232394 0.273810 0
1.257042 0.273810 0
1.281690 0.273810 0
1.306338 0.273810 0
1.330986 0.273810 0
1.355634 0.273810 0
1.380282 0.273810 0
1.404930 0.273810 0
1.429577 0.273810 0
1.454225 0.273810 0
1.478873 0.273810 0
1.503521 0.273810 0
1.528169 0.273810 0
1.552817 0.273810 0
1.577465 0.273810 0
1.602113 0.273810 0
1.626761 0.273810 0
1.651408 0.273810 0
1.676056 0.273810 0
1.700704 0.273810 0
1.725352 0.273810 0
1.750000 0.273810 0
1.774648 0.273810 0
1.799296 0.273810 0
1.823944 0.273810 0
1.848592 0.273810 0
1.873239 0.273810 0
1.897887 0.273810 0
1.922535 0.273810 0
1.947183 0.273810 0
1.971831 0.273810 0
1.996479 0.273810 0
2.021127 0.273810 0
2.045775 0.273810 0
2.070423 0.273810 0
2.095070 0.273810 0
2.119718 0.273810 0
2.144366 0.273810 0
2.169014 0.273810 0
2.193662 0.273810 0
2.218310 0.273810 0
2.242958 0.273810 0
2.267606 0.273810 0
2.292254 0.273810 0
2.316901 0.273810 0
2.341549 0.273810 0
2.366197 0.273810 0
2.390845 0.273810 0
2.415493 0.273810 0
2.440141 0.273810 0
2.464789 0.273810 0
2.489437 0.273810 0
2.514085 0.273810 0
2.538732 0.273810 0
2.563380 0.273810 0
2.588028 0.273810 0
2.612676 0.273810 0
2.637324 0.273810 0
2.661972 0.273810 0
2.686620 0.273810 0
2.711268 0.273810 0
2.735915 0.273810 0
2.760563 0.273810 0
2.785211 0.273810 0
2.809859 0.273810 0
2.834507 0.273810 0
2.859155 0.273810 0
2.883803 0.273810 0
2.908451 0.273810 0
2.933099 0.273810 0
2.957746 0.273810 0
2.982394 0.273810 0
3.007042 0.273810 0
3.031690 0.273810 0
3.056338 0.273810 0
3.080986 0.273810 0
3.105634 0.273810 0
3.130282 0.273810 0
3.154930 0.273810 0
3.179577 0.273810 0
3.204225 0.273810 0
3.228873 0.273810 0
3.253521 0.273810 0
3.278169 0.273810 0
3.302817 0.273810 0
3.327465 0.273810 0
3.352113 0.273810 0
3.376761 0.273810 0
3.401408 0.273810 0
3.426056 0.273810 0
3.450704 0.273810 0
3.475352 0.273810 0
0.000000 0.285714 0
0.024648 0.285714 0
0.049296 0.285714 0
0.073944 0.285714 0
0.098592 0.285714 0
0.123239 0.285714 0
0.147887 0.285714 0
0.172535 0.285714 0
0.197183 0.285714 0
0.221831 0.285714 0
0.246479 0.285714 0
0.271127 0.285714 0
0.295775 0.285714 0
0.320423 0.285714 0
0.345070 0.285714 0
0.369718 0.285714 0
0.394366 0.285714 0
0.419014 0.285714 0
0.443662 0.285714 0
0.468310 0.285714 0
0.492958 0.285714 0
0.517606 0.285714 0
0.542254 0.285714 0
0.566901 0.285714 0
0.591549 0.285714 0
0.616197 0.285714 0
0.640845 0.285714 0
0.665493 0.285714 0
0.690141 0.285714 0
0.714789 0.285714 0
0.739437 0.285714 0
0.764085 0.285714 0
0.788732 0.285714 0
0.813380 0.285714 0
0.838028 0.285714 0
0.862676 0.285714 0
0.887324 0.285714 0
0.911972 0.285714 0
0.936620 0.285714 0
0.961268 0.285714 0
0.985915 0.285714 0
1.010563 0.285714 0
1.035211 0.285714 0
1.059859 0.285714 0
1.084507 0.285714 0
1.109155 0.285714 0
1.133803 0.285714 0
1.158451 0.285714 0
1.183099 0.285714 0
1.207746 0.285714 0
1.232394 0.285714 0
1.257042 0.285714 0
1.281690 0.285714 0
1.306338 0.285714 0
1.330986 0.285714 0
1.355634 0.285714 0
1.380282 0.285714 0
1.404930 0.285714 0
1.429577 0.285714 0
1.454225 0.285714 0
1.478873 0.285714 0
1.503521 0.285714 0
1.528169 0.285714 0
1.552817 0.285714 0
1.577465 0.285714 0
[...]
POINT_DATA 5964 

VECTORS velocity float
1.000000 0.000000 0
0.999858 0.000000 0
0.999570 0.000000 0
0.999126 0.000000 0
0.998508 0.000000 0
0.997694 0.000000 0
0.996648 0.000000 0
0.995326 0.000000 0
0.993663 0.000000 0
0.991571 0.000000 0
0.988926 0.000000 0
0.985549 0.000000 0
0.981172 0.000000 0
0.975377 0.000000 0
0.967470 0.000000 0
0.956135 0.000000 0
0.938920 0.000000 0
0.907728 0.000000 0
0.850354 0.000000 0
-0.000002 0.000000 0
-0.000003 0.000000 0
-0.000003 0.000000 0
-0.000003 0.000000 0
-0.000004 0.000000 0
-0.000004 0.000000 0
-0.000005 0.000000 0
-0.000006 0.000000 0
-0.000007 0.000000 0
-0.000009 0.000000 0
-0.000012 0.000000 0
-0.000015 0.000000 0
-0.000018 0.000000 0
-0.000021 0.000000 0
-0.000023 0.000000 0
-0.000024 0.000000 0
-0.000025 0.000000 0
-0.000024 0.000000 0
-0.000024 0.000000 0
-0.000023 0.000000 0
-0.000023 0.000000 0
-0.000022 0.000000 0
-0.000022 0.000000 0
-0.000022 0.000000 0
-0.000022 0.000000 0
-0.000021 0.000000 0
-0.000021 0.000000 0
-0.000021 0.000000 0
-0.000021 0.000000 0
-0.000021 0.000000 0
-0.000021 0.000000 0
-0.000021 0.000000 0
-0.000021 0.000000 0
-0.000021 0.000000 0
-0.000021 0.000000 0
-0.000021 0.000000 0
-0.000021 0.000000 0
-0.000021 0.000000 0
-0.000021 0.000000 0
-0.000021 0.000000 0
-0.000021 0.000000 0
-0.000021 0.000000 0
-0.000021 0.000000 0
-0.000021 0.000000 0
-0.000021 0.000000 0
-0.000021 0.000000 0
-0.000021 0.000000 0
-0.000021 0.000000 0
-0.000021 0.000000 0
-0.000021 0.000000 0
-0.000021 0.000000 0
-0.000021 0.000000 0
-0.000021 0.000000 0
-0.000021 0.000000 0
-0.000021 0.000000 0
-0.000021 0.000000 0
-0.000021 0.000000 0
-0.000021 0.000000 0
-0.000021 0.000000 0
-0.000021 0.000000 0
-0.000021 0.000000 0
-0.000021 0.000000 0
-0.000021 0.000000 0
-0.000021 0.000000 0
-0.000021 0.000000 0
-0.000021 0.000000 0
-0.000021 0.000000 0
-0.000021 0.000000 0
-0.000021 0.000000 0
-0.000021 0.000000 0
-0.000021 0.000000 0
-0.000021 0.000000 0
-0.000021 0.000000 0
-0.000021 0.000000 0
-0.000021 0.000000 0
-0.000021 0.000000 0
-0.000021 0.000000 0
-0.000021 0.000000 0
-0.000021 0.000000 0
-0.000021 0.000000 0
-0.000021 0.000000 0
-0.000021 0.000000 0
-0.000021 0.000000 0
-0.000021 0.000000 0
-0.000021 0.000000 0
-0.000021 0.000000 0
-0.000021 0.000000 0
-0.000021 0.000000 0
-0.000021 0.000000 0
-0.000021 0.000000 0
-0.000021 0.000000 0
-0.000021 0.000000 0
-0.000021 0.000000 0
-0.000021 0.000000 0
-0.000021 0.000000 0
-0.000021 0.000000 0
-0.000021 0.000000 0
-0.000021 0.000000 0
-0.000021 0.000000 0
-0.000020 0.000000 0
-0.000020 0.000000 0
-0.000020 0.000000 0
-0.000020 0.000000 0
-0.000020 0.000000 0
-0.000020 0.000000 0
-0.000020 0.000000 0
-0.000020 0.000000 0
-0.000019 0.000000 0
-0.000019 0.000000 0
-0.000019 0.000000 0
-0.000018 0.000000 0
-0.000018 0.000000 0
-0.000017 0.000000 0
-0.000017 0.000000 0
-0.000016 0.000000 0
-0.000015 0.000000 0
-0.000014 0.000000 0
-0.000013 0.000000 0
-0.000011 0.000000 0
-0.000008 0.000000 0
-0.000004 0.000000 0
-0.000000 0.000000 0
0.497247 0.000000 0
1.000000 0.000034 0
0.999859 0.000104 0
0.999572 0.000177 0
0.999130 0.000256 0
0.998515 0.000346 0
0.997705 0.000449 0
0.996665 0.000572 0
0.995350 0.000721 0
0.993697 0.000907 0
0.991619 0.001144 0
0.988995 0.001454 0
0.985649 0.001872 0
0.981322 0.002456 0
0.975609 0.003309 0
0.967852 0.004647 0
0.956837 0.006895 0
0.940353 0.011690 0
0.912146 0.021389 0
0.863483 0.078629 0
0.718155 0.110859 0
0.580504 0.072652 0
0.477885 0.040934 0
0.406994 0.022422 0
0.358382 0.013011 0
0.324270 0.008307 0
0.299614 0.005754 0
0.281395 0.004174 0
0.267849 0.003059 0
0.257943 0.002185 0
0.251031 0.001456 0
0.246625 0.000839 0
0.244272 0.000334 0
0.243510 -0.000040 0
0.243858 -0.000271 0
0.244812 -0.000381 0
0.246008 -0.000406 0
0.247205 -0.000376 0
0.248268 -0.000320 0
0.249143 -0.000256 0
0.249828 -0.000198 0
0.250346 -0.000148 0
0.250731 -0.000110 0
0.251016 -0.000082 0
0.251227 -0.000061 0
0.251386 -0.000047 0
0.251508 -0.000036 0
0.251604 -0.000029 0
0.251681 -0.000023 0
0.251743 -0.000019 0
0.251794 -0.000016 0
0.251837 -0.000013 0
0.251872 -0.000011 0
0.251902 -0.000009 0
0.251927 -0.000008 0
0.251949 -0.000006 0
0.251967 -0.000005 0
0.251982 -0.000005 0
0.251995 -0.000004 0
0.252006 -0.000003 0
0.252015 -0.000003 0
0.252023 -0.000002 0
0.252030 -0.000002 0
0.252036 -0.000002 0
0.252041 -0.000001 0
0.252045 -0.000001 0
0.252049 -0.000001 0
0.252052 -0.000001 0
0.252055 -0.000001 0
0.252057 -0.000001 0
0.252060 -0.000001 0
0.252062 -0.000001 0
0.252064 -0.000001 0
0.252065 -0.000001 0
0.252067 -0.000000 0
0.252069 -0.000000 0
0.252070 -0.000000 0
0.252072 -0.000000 0
0.252074 -0.000001 0
0.252075 -0.000001 0
0.252077 -0.000001 0
0.252079 -0.000001 0
0.252082 -0.000001 0
0.252084 -0.000001 0
0.252087 -0.000001 0
0.252090 -0.000001 0
0.252094 -0.000001 0
0.252098 -0.000001 0
0.252103 -0.000002 0
0.252108 -0.000002 0
0.252114 -0.000002 0
0.252121 -0.000002 0
0.252129 -0.000003 0
0.252139 -0.000003 0
0.252150 -0.000004 0
0.252162 -0.000004 0
0.252177 -0.000005 0
0.252194 -0.000006 0
0.252214 -0.000007 0
0.252237 -0.000008 0
0.252265 -0.000009 0
0.252296 -0.000011 0
0.252333 -0.000013 0
0.252376 -0.000015 0
0.252426 -0.000017 0
0.252485 -0.000020 0
0.252554 -0.000023 0
0.252634 -0.000027 0
0.252728 -0.000032 0
0.252838 -0.000037 0
0.252967 -0.000044 0
0.253118 -0.000052 0
0.253295 -0.000060 0
0.253503 -0.000071 0
0.253748 -0.000083 0
0.254035 -0.000098 0
0.254372 -0.000115 0
0.254770 -0.000136 0
0.255239 -0.000160 0
0.255793 -0.000190 0
0.256448 -0.000224 0
0.257223 -0.000266 0
0.258145 -0.000317 0
0.259241 -0.000378 0
0.260551 -0.000453 0
0.262120 -0.000544 0
0.264008 -0.000658 0
0.266290 -0.000799 0
0.269066 -0.000978 0
0.272464 -0.001206 0
0.276660 -0.001503 0
0.281893 -0.001898 0
0.288501 -0.002434 0
0.296974 -0.003184 0
0.308052 -0.004278 0
0.322904 -0.005955 0
0.343484 -0.008715 0
0.373319 -0.013675 0
0.419158 -0.024237 0
0.497088 -0.046019 0
0.635073 -0.164357 0
0.994861 -0.268251 0
0.994862 -0.134124 0
1.000000 0.000068 0
0.999861 0.000207 0
0.999578 0.000352 0
0.999141 0.000511 0
0.998536 0.000688 0
0.997737 0.000894 0
0.996714 0.001137 0
0.995421 0.001433 0
0.993798 0.001802 0
0.991764 0.002271 0
0.989201 0.002883 0
0.985948 0.003706 0
0.981764 0.004849 0
0.976291 0.006506 0
0.968962 0.009067 0
0.958829 0.013282 0
0.944290 0.021586 0
0.922644 0.037128 0
0.890893 0.093696 0
0.894588 0.136677 0
0.847146 0.116049 0
0.778364 0.083804 0
0.710086 0.057719 0
0.651317 0.039955 0
0.603680 0.028385 0
0.565967 0.020708 0
0.536446 0.015342 0
0.513654 0.011327 0
0.496508 0.008123 0
0.484188 0.005467 0
0.475980 0.003265 0
0.471161 0.001504 0
0.468966 0.000200 0
0.468669 -0.000629 0
0.469533 -0.001039 0
0.470946 -0.001156 0
0.472496 -0.001092 0
0.473938 -0.000936 0
0.475159 -0.000753 0
0.476131 -0.000581 0
0.476873 -0.000436 0
0.477426 -0.000323 0
0.477834 -0.000239 0
0.478136 -0.000179 0
0.478362 -0.000136 0
0.478534 -0.000105 0
0.478668 -0.000083 0
0.478775 -0.000067 0
0.478861 -0.000055 0
0.478932 -0.000045 0
0.478991 -0.000038 0
0.479041 -0.000032 0
0.479082 -0.000027 0
0.479117 -0.000022 0
0.479147 -0.000019 0
0.479172 -0.000016 0
0.479193 -0.000014 0
0.479211 -0.000012 0
0.479227 -0.000010 0
0.479240 -0.000008 0
0.479251 -0.000007 0
0.479261 -0.000006 0
0.479269 -0.000005 0
0.479276 -0.000004 0
0.479283 -0.000004 0
0.479288 -0.000003 0
0.479293 -0.000003 0
0.479297 -0.000003 0
0.479301 -0.000002 0
0.479304 -0.000002 0
0.479307 -0.000002 0
0.479310 -0.000002 0
0.479313 -0.000002 0
0.479315 -0.000002 0
0.479318 -0.000002 0
0.479320 -0.000002 0
0.479323 -0.000002 0
0.479325 -0.000002 0
0.479328 -0.000002 0
0.479331 -0.000002 0
0.479334 -0.000002 0
0.479338 -0.000002 0
0.479342 -0.000003 0
0.479346 -0.000003 0
0.479351 -0.000003 0
0.479356 -0.000004 0
0.479362 -0.000004 0
0.479369 -0.000005 0
0.479377 -0.000006 0
0.479387 -0.000006 0
0.479397 -0.000007 0
0.479410 -0.000009 0
0.479424 -0.000010 0
0.479440 -0.000011 0
0.479459 -0.000013 0
0.479481 -0.000015 0
0.479507 -0.000018 0
0.479537 -0.000021 0
0.479571 -0.000024 0
0.479612 -0.000028 0
0.479659 -0.000033 0
0.479714 -0.000039 0
0.479778 -0.000045 0
0.479853 -0.000053 0
0.479940 -0.000062 0
0.480042 -0.000072 0
0.480162 -0.000084 0
0.480302 -0.000099 0
0.480466 -0.000115 0
0.480658 -0.000135 0
0.480883 -0.000159 0
0.481147 -0.000186 0
0.481457 -0.000218 0
0.481820 -0.000257 0
0.482248 -0.000302 0
0.482751 -0.000355 0
0.483343 -0.000419 0
0.484040 -0.000494 0
0.484864 -0.000584 0
0.485837 -0.000691 0
0.486990 -0.000820 0
0.488357 -0.000975 0
0.489984 -0.001162 0
0.491923 -0.001390 0
0.494243 -0.001670 0
0.497028 -0.002014 0
0.500388 -0.002443 0
0.504461 -0.002982 0
0.509429 -0.003668 0
0.515534 -0.004554 0
0.523101 -0.005719 0
0.532581 -0.007284 0
0.544611 -0.009443 0
0.560121 -0.012524 0
0.580515 -0.017113 0
0.607989 -0.024350 0
0.646143 -0.036550 0
0.700919 -0.059780 0
0.782510 -0.104286 0
0.906093 -0.240421 0
0.995738 -0.347541 0
0.995739 -0.173766 0
1.000000 0.000102 0
0.999864 0.000308 0
0.999587 0.000524 0
0.999161 0.000760 0
0.998569 0.001024 0
0.997791 0.001329 0
0.996794 0.001691 0
0.995537 0.002129 0
0.993965 0.002673 0
0.992000 0.003364 0
0.989538 0.004264 0
0.986431 0.005465 0
0.982476 0.007121 0
0.977376 0.009492 0
0.970699 0.013081 0
0.961827 0.018811 0
0.949899 0.029168 0
0.934932 0.047179 0
0.917539 0.092179 0
0.948744 0.131989 0
0.953463 0.128787 0
0.929697 0.107133 0
0.891209 0.083785 0
0.848906 0.064404 0
0.808657 0.049531 0
0.772965 0.038227 0
0.742621 0.029440 0
0.717680 0.022349 0
0.697912 0.016417 0
0.682951 0.011370 0
0.672318 0.007131 0
0.665408 0.003721 0
0.661490 0.001163 0
0.659807 -0.000544 0
0.659706 -0.001481 0
0.660512 -0.001837 0
0.661722 -0.001821 0
0.663005 -0.001606 0
0.664175 -0.001315 0
0.665150 -0.001025 0
0.665917 -0.000774 0
0.666499 -0.000575 0
0.666931 -0.000425 0
0.667249 -0.000316 0
0.667486 -0.000239 0
0.667664 -0.000184 0
0.667800 -0.000145 0
0.667907 -0.000116 0
0.667993 -0.000095 0
0.668063 -0.000078 0
0.668121 -0.000065 0
0.668169 -0.000055 0
0.668210 -0.000046 0
0.668245 -0.000039 0
0.668274 -0.000033 0
0.668299 -0.000028 0
0.668320 -0.000024 0
0.668338 -0.000020 0
0.668354 -0.000017 0
0.668367 -0.000015 0
0.668378 -0.000013 0
0.668388 -0.000011 0
0.668397 -0.000009 0
0.668404 -0.000008 0
0.668411 -0.000007 0
0.668416 -0.000006 0
0.668421 -0.000005 0
0.668426 -0.000005 0
0.668430 -0.000004 0
0.668433 -0.000004 0
0.668437 -0.000003 0
0.668440 -0.000003 0
0.668443 -0.000003 0
0.668445 -0.000003 0
0.668448 -0.000003 0
0.668451 -0.000003 0
0.668454 -0.000003 0
0.668457 -0.000003 0
0.668460 -0.000003 0
0.668463 -0.000004 0
0.668467 -0.000004 0
0.668471 -0.000004 0
0.668475 -0.000005 0
0.668480 -0.000005 0
0.668485 -0.000006 0
0.668491 -0.000007 0
0.668498 -0.000008 0
0.668506 -0.000009 0
0.668515 -0.000010 0
0.668525 -0.000012 0
0.668537 -0.000013 0
0.668550 -0.000016 0
0.668566 -0.000018 0
0.668584 -0.000021 0
0.668605 -0.000024 0
0.668629 -0.000028 0
0.668658 -0.000033 0
0.668690 -0.000038 0
0.668729 -0.000044 0
0.668773 -0.000051 0
0.668825 -0.000060 0
0.668886 -0.000070 0
0.668956 -0.000082 0
0.669039 -0.000096 0
0.669135 -0.000112 0
0.669248 -0.000131 0
0.669379 -0.000153 0
0.669534 -0.000179 0
0.669714 -0.000209 0
0.669925 -0.000245 0
0.670173 -0.000288 0
0.670464 -0.000338 0
0.670804 -0.000396 0
0.671204 -0.000465 0
0.671674 -0.000547 0
0.672227 -0.000644 0
0.672877 -0.000759 0
0.673643 -0.000895 0
0.674546 -0.001057 0
0.675613 -0.001251 0
0.676875 -0.001484 0
0.678370 -0.001763 0
0.680145 -0.002100 0
0.682258 -0.002510 0
0.684781 -0.003010 0
0.687801 -0.003626 0
0.691432 -0.004389 0
0.695816 -0.005344 0
0.701137 -0.006554 0
0.707636 -0.008107 0
0.715631 -0.010131 0
0.725550 -0.012823 0
0.737982 -0.016486 0
0.753744 -0.021619 0
0.774000 -0.029075 0
0.800411 -0.040413 0
0.835316 -0.058559 0
0.881700 -0.090102 0
0.941248 -0.145117 0
1.011245 -0.267345 0
0.996746 -0.354830 0
0.996747 -0.177406 0
1.000000 0.000134 0
0.999868 0.000406 0
0.999600 0.000692 0
0.999187 0.001002 0
0.998616 0.001350 0
0.997864 0.001751 0
0.996904 0.002226 0
0.995697 0.002800 0
0.994193 0.003510 0
0.992322 0.004409 0
0.989993 0.005573 0
0.987083 0.007117 0
0.983425 0.009223 0
0.978801 0.012194 0
0.972924 0.016577 0
0.965498 0.023328 0
0.956323 0.034576 0
0.946849 0.052758 0
0.939633 0.087025 0
0.968875 0.119325 0
0.992249 0.125248 0
0.996124 0.113872 0
0.984085 0.096741 0
0.963004 0.079827 0
0.938234 0.065064 0
0.913130 0.052604 0
0.889621 0.042044 0
0.868771 0.032921 0
0.851119 0.024897 0
0.836868 0.017828 0
0.825967 0.011738 0
0.818162 0.006734 0
0.813023 0.002905 0
0.809998 0.000233 0
0.808600 -0.001379 0
0.808333 -0.002130 0
0.808733 -0.002296 0
0.809446 -0.002121 0
0.810238 -0.001789 0
0.810973 -0.001423 0
0.811592 -0.001088 0
0.812081 -0.000813 0
0.812453 -0.000602 0
0.812729 -0.000447 0
0.812933 -0.000336 0
0.813084 -0.000257 0
0.813197 -0.000201 0
0.813285 -0.000160 0
0.813354 -0.000130 0
0.813409 -0.000107 0
0.813455 -0.000089 0
0.813492 -0.000075 0
0.813524 -0.000063 0
0.813551 -0.000053 0
0.813574 -0.000045 0
0.813594 -0.000038 0
0.813611 -0.000033 0
0.813626 -0.000028 0
0.813638 -0.000024 0
0.813649 -0.000020 0
0.813659 -0.000017 0
0.813667 -0.000015 0
0.813674 -0.000013 0
0.813680 -0.000011 0
0.813686 -0.000010 0
0.813691 -0.000008 0
0.813695 -0.000007 0
0.813699 -0.000007 0
0.813703 -0.000006 0
0.813706 -0.000005 0
0.813709 -0.000005 0
0.813712 -0.000005 0
0.813715 -0.000004 0
0.813717 -0.000004 0
0.813720 -0.000004 0
0.813722 -0.000004 0
0.813725 -0.000004 0
0.813728 -0.000005 0
0.813731 -0.000005 0
0.813734 -0.000005 0
0.813738 -0.000006 0
0.813741 -0.000006 0
0.813745 -0.000007 0
0.813750 -0.000008 0
0.813755 -0.000009 0
0.813761 -0.000010 0
0.813768 -0.000011 0
0.813775 -0.000013 0
0.813784 -0.000015 0
0.813794 -0.000017 0
0.813805 -0.000020 0
0.813819 -0.000023 0
0.813834 -0.000026 0
0.813852 -0.000030 0
0.813872 -0.000035 0
0.813896 -0.000041 0
0.813923 -0.000047 0
0.813955 -0.000055 0
0.813992 -0.000064 0
0.814036 -0.000075 0
0.814086 -0.000087 0
0.814145 -0.000102 0
0.814214 -0.000119 0
0.814294 -0.000139 0
0.814388 -0.000162 0
0.814498 -0.000190 0
0.814626 -0.000222 0
0.814776 -0.000260 0
0.814952 -0.000305 0
0.815158 -0.000357 0
0.815399 -0.000419 0
0.815682 -0.000491 0
0.816013 -0.000576 0
0.816402 -0.000677 0
0.816859 -0.000796 0
0.817395 -0.000936 0
0.818027 -0.001103 0
0.818769 -0.001300 0
0.819645 -0.001535 0
0.820677 -0.001816 0
0.821896 -0.002151 0
0.823339 -0.002554 0
0.825048 -0.003040 0
0.827078 -0.003629 0
0.829494 -0.004347 0
0.832378 -0.005227 0
0.835831 -0.006314 0
0.839980 -0.007670 0
0.844986 -0.009377 0
0.851057 -0.011555 0
0.858457 -0.014372 0
0.867535 -0.018079 0
0.878745 -0.023060 0
0.892682 -0.029921 0
0.910115 -0.039653 0
0.931982 -0.053965 0
0.959224 -0.075813 0
0.992131 -0.110944 0
1.027054 -0.166854 0
1.052851 -0.267226 0
0.997667 -0.333518 0
0.997667 -0.166745 0
1.000000 0.000165 0
0.999873 0.000501 0
0.999616 0.000853 0
0.999221 0.001235 0
0.998674 0.001663 0
0.997956 0.002156 0
0.997042 0.002737 0
0.995897 0.003438 0
0.994477 0.004303 0
0.992721 0.005393 0
0.990555 0.006794 0
0.987879 0.008637 0
0.984571 0.011121 0
0.980489 0.014564 0
0.975488 0.019506 0
0.969534 0.026830 0
0.962911 0.038175 0
0.957566 0.055240 0
0.956719 0.081541 0
0.979599 0.106576 0
1.005597 0.115626 0
1.021585 0.111076 0
1.025731 0.099781 0
1.020876 0.086550 0
1.010441 0.073619 0
0.997137 0.061707 0
0.982867 0.050865 0
0.968905 0.040945 0
0.956077 0.031826 0
0.944884 0.023519 0
0.935586 0.016166 0
0.928252 0.009973 0
0.922794 0.005106 0
0.918990 0.001592 0
0.916536 -0.000676 0
0.915188 -0.001901 0
0.914630 -0.002359 0
0.914572 -0.002333 0
0.914783 -0.002053 0
0.915104 -0.001679 0
0.915437 -0.001309 0
0.915731 -0.000990 0
0.915970 -0.000738 0
0.916153 -0.000548 0
0.916289 -0.000410 0
0.916389 -0.000312 0
0.916461 -0.000242 0
0.916516 -0.000192 0
0.916557 -0.000155 0
0.916590 -0.000127 0
0.916616 -0.000105 0
0.916638 -0.000088 0
0.916656 -0.000074 0
0.916672 -0.000063 0
0.916686 -0.000054 0
0.916698 -0.000046 0
0.916708 -0.000039 0
0.916717 -0.000033 0
0.916725 -0.000029 0
0.916732 -0.000024 0
0.916739 -0.000021 0
0.916744 -0.000018 0
0.916749 -0.000016 0
0.916754 -0.000014 0
0.916758 -0.000012 0
0.916762 -0.000010 0
0.916765 -0.000009 0
0.916768 -0.000008 0
0.916771 -0.000007 0
0.916773 -0.000007 0
0.916775 -0.000006 0
0.916778 -0.000006 0
0.916780 -0.000006 0
0.916782 -0.000005 0
0.916784 -0.000005 0
0.916787 -0.000005 0
0.916789 -0.000006 0
0.916791 -0.000006 0
0.916794 -0.000006 0
0.916797 -0.000007 0
0.916800 -0.000007 0
0.916803 -0.000008 0
0.916807 -0.000009 0
0.916811 -0.000010 0
0.916815 -0.000011 0
0.916821 -0.000013 0
0.916827 -0.000015 0
0.916834 -0.000017 0
0.916841 -0.000019 0
0.916850 -0.000022 0
0.916861 -0.000025 0
0.916873 -0.000029 0
0.916887 -0.000034 0
0.916903 -0.000039 0
0.916921 -0.000045 0
0.916943 -0.000053 0
0.916968 -0.000061 0
0.916997 -0.000071 0
0.917031 -0.000083 0
0.917071 -0.000097 0
0.917117 -0.000113 0
0.917171 -0.000132 0
0.917234 -0.000154 0
0.917308 -0.000180 0
0.917394 -0.000210 0
0.917495 -0.000246 0
0.917612 -0.000287 0
0.917750 -0.000336 0
0.917911 -0.000394 0
0.918100 -0.000461 0
0.918321 -0.000541 0
0.918580 -0.000634 0
0.918883 -0.000744 0
0.919240 -0.000874 0
0.919657 -0.001027 0
0.920148 -0.001208 0
0.920724 -0.001422 0
0.921402 -0.001677 0
0.922200 -0.001979 0
0.923139 -0.002339 0
0.924247 -0.002769 0
0.925555 -0.003285 0
0.927101 -0.003906 0
0.928932 -0.004657 0
0.931104 -0.005570 0
0.933687 -0.006686 0
0.936764 -0.008060 0
0.940440 -0.009766 0
0.944845 -0.011904 0
0.950141 -0.014613 0
0.956527 -0.018090 0
0.964253 -0.022621 0
0.973624 -0.028631 0
0.984999 -0.036771 0
0.998759 -0.048057 0
1.015197 -0.064133 0
1.034151 -0.087611 0
1.054130 -0.122863 0
1.069212 -0.174444 0
1.066779 -0.253151 0
0.998417 -0.301508 0
0.998417 -0.150737 0
1.000000 0.000195 0
0.999880 0.000591 0
0.999636 0.001007 0
0.999261 0.001457 0
0.998743 0.001961 0
0.998065 0.002539 0
0.997205 0.003220 0
0.996133 0.004039 0
0.994810 0.005044 0
0.993188 0.006303 0
0.991207 0.007912 0
0.988794 0.010007 0
0.985870 0.012792 0
0.982364 0.016581 0
0.978252 0.021868 0
0.973691 0.029403 0
0.969252 0.040357 0
0.966876 0.055748 0
0.969621 0.076383 0
0.987435 0.095718 0
1.010625 0.104969 0
1.029811 0.104148 0
1.041603 0.097083 0
1.046426 0.087212 0
1.045972 0.076529 0
1.041973 0.065922 0
1.035835 0.055680 0
1.028609 0.045860 0
1.021050 0.036499 0
1.013691 0.027725 0
1.006902 0.019771 0
1.000933 0.012913 0
0.995935 0.007378 0
0.991964 0.003255 0
0.988960 0.000457 0
0.986833 -0.001209 0
0.985458 -0.001998 0
0.984658 -0.002195 0
0.984254 -0.002046 0
0.984098 -0.001738 0
0.984078 -0.001391 0
0.984119 -0.001071 0
0.984178 -0.000806 0
0.984234 -0.000601 0
0.984279 -0.000449 0
0.984311 -0.000340 0
0.984332 -0.000262 0
0.984347 -0.000207 0
0.984356 -0.000166 0
0.984362 -0.000136 0
0.984367 -0.000112 0
0.984371 -0.000094 0
0.984374 -0.000079 0
0.984378 -0.000067 0
0.984381 -0.000057 0
0.984384 -0.000049 0
0.984388 -0.000042 0
0.984391 -0.000036 0
0.984394 -0.000031 0
0.984397 -0.000027 0
0.984400 -0.000023 0
0.984402 -0.000020 0
0.984405 -0.000017 0
0.984407 -0.000015 0
0.984410 -0.000013 0
0.984412 -0.000012 0
0.984414 -0.000010 0
0.984416 -0.000009 0
0.984417 -0.000009 0
0.984419 -0.000008 0
0.984421 -0.000007 0
0.984422 -0.000007 0
0.984424 -0.000007 0
0.984426 -0.000006 0
0.984427 -0.000006 0
0.984429 -0.000006 0
0.984431 -0.000007 0
0.984433 -0.000007 0
0.984435 -0.000007 0
0.984437 -0.000008 0
0.984440 -0.000009 0
0.984442 -0.000010 0
0.984446 -0.000011 0
0.984449 -0.000012 0
0.984453 -0.000014 0
0.984458 -0.000015 0
0.984463 -0.000018 0
0.984469 -0.000020 0
0.984475 -0.000023 0
0.984483 -0.000026 0
0.984492 -0.000030 0
0.984503 -0.000035 0
0.984515 -0.000041 0
0.984529 -0.000047 0
0.984546 -0.000055 0
0.984565 -0.000063 0
0.984587 -0.000074 0
0.984613 -0.000086 0
0.984643 -0.000100 0
0.984679 -0.000116 0
0.984720 -0.000136 0
0.984768 -0.000158 0
0.984824 -0.000185 0
0.984890 -0.000216 0
0.984967 -0.000253 0
0.985056 -0.000295 0
0.985161 -0.000346 0
0.985284 -0.000404 0