# vtk DataFile Version 2.0
generated by CFD-lab course output (written by Tobias Neckel) 
ASCII

DATASET STRUCTURED_GRID
DIMENSIONS  142 42 1 
POINTS 5964 float

0.000000 0.250000 0
0.024648 0.250000 0
0.049296 0.250000 0
0.073944 0.250000 0
0.098592 0.250000 0
0.123239 0.250000 0
0.147887 0.250000 0
0.172535 0.250000 0
0.197183 0.250000 0
0.221831 0.250000 0
0.246479 0.250000 0
0.271127 0.250000 0
0.295775 0.250000 0
0.320423 0.250000 0
0.345070 0.250000 0
0.369718 0.250000 0
0.394366 0.250000 0
0.419014 0.250000 0
0.443662 0.250000 0
0.468310 0.250000 0
0.492958 0.250000 0
0.517606 0.250000 0
0.542254 0.250000 0
0.566901 0.250000 0
0.591549 0.250000 0
0.616197 0.250000 0
0.640845 0.250000 0
0.665493 0.250000 0
0.690141 0.250000 0
0.714789 0.250000 0
0.739437 0.250000 0
0.764085 0.250000 0
0.788732 0.250000 0
0.813380 0.250000 0
0.838028 0.250000 0
0.862676 0.250000 0
0.887324 0.250000 0
0.911972 0.250000 0
0.936620 0.250000 0
0.961268 0.250000 0
0.985915 0.250000 0
1.010563 0.250000 0
1.035211 0.250000 0
1.059859 0.250000 0
1.084507 0.250000 0
1.109155 0.250000 0
1.133803 0.250000 0
1.158451 0.250000 0
1.183099 0.250000 0
1.207746 0.250000 0
1.232394 0.250000 0
1.257042 0.250000 0
1.281690 0.250000 0
1.306338 0.250000 0
1.330986 0.250000 0
1.355634 0.250000 0
1.380282 0.250000 0
1.404930 0.250000 0
1.429577 0.250000 0
1.454225 0.250000 0
1.478873 0.250000 0
1.503521 0.250000 0
1.528169 0.250000 0
1.552817 0.250000 0
1.577465 0.250000 0
1.602113 0.250000 0
1.626761 0.250000 0
1.651408 0.250000 0
1.676056 0.250000 0
1.700704 0.250000 0
1.725352 0.250000 0
1.750000 0.250000 0
1.774648 0.250000 0
1.799296 0.250000 0
1.823944 0.250000 0
1.848592 0.250000 0
1.873239 0.250000 0
1.897887 0.250000 0
1.922535 0.250000 0
1.947183 0.250000 0
1.971831 0.250000 0
1.996479 0.250000 0
2.021127 0.250000 0
2.045775 0.250000 0
2.070423 0.250000 0
2.095070 0.250000 0
2.119718 0.250000 0
2.144366 0.250000 0
2.169014 0.250000 0
2.193662 0.250000 0
2.218310 0.250000 0
2.242958 0.250000 0
2.267606 0.250000 0
2.292254 0.250000 0
2.316901 0.250000 0
2.341549 0.250000 0
2.366197 0.250000 0
2.390845 0.250000 0
2.415493 0.250000 0
2.440141 0.250000 0
2.464789 0.250000 0
2.489437 0.250000 0
2.514085 0.250000 0
2.538732 0.250000 0
2.563380 0.250000 0
2.588028 0.250000 0
2.612676 0.250000 0
2.637324 0.250000 0
2.661972 0.250000 0
2.686620 0.250000 0
2.711268 0.250000 0
2.735915 0.250000 0
2.760563 0.250000 0
2.785211 0.250000 0
2.809859 0.250000 0
2.834507 0.250000 0
2.859155 0.250000 0
2.883803 0.250000 0
2.908451 0.250000 0
2.933099 0.250000 0
2.957746 0.250000 0
2.982394 0.250000 0
3.007042 0.250000 0
3.031690 0.250000 0
3.056338 0.250000 0
3.080986 0.250000 0
3.105634 0.250000 0
3.130282 0.250000 0
3.154930 0.250000 0
3.179577 0.250000 0
3.204225 0.250000 0
3.228873 0.250000 0
3.253521 0.250000 0
3.278169 0.250000 0
3.302817 0.250000 0
3.327465 0.250000 0
3.352113 0.250000 0
3.376761 0.250000 0
3.401408 0.250000 0
3.426056 0.250000 0
3.450704 0.250000 0
3.475352 0.250000 0
0.000000 0.261905 0
0.024648 0.261905 0
0.049296 0.261905 0
0.073944 0.261905 0
0.098592 0.261905 0
0.123239 0.261905 0
0.147887 0.261905 0
0.172535 0.261905 0
0.197183 0.261905 0
0.221831 0.261905 0
0.246479 0.261905 0
0.271127 0.261905 0
0.295775 0.261905 0
0.320423 0.261905 0
0.345070 0.261905 0
0.369718 0.261905 0
0.394366 0.261905 0
0.419014 0.261905 0
0.443662 0.261905 0
0.468310 0.261905 0
0.492958 0.261905 0
0.517606 0.261905 0
0.542254 0.261905 0
0.566901 0.261905 0
0.591549 0.261905 0
0.616197 0.261905 0
0.640845 0.261905 0
0.665493 0.261905 0
0.690141 0.261905 0
0.714789 0.261905 0
0.739437 0.261905 0
0.764085 0.261905 0
0.788732 0.261905 0
0.813380 0.261905 0
0.838028 0.261905 0
0.862676 0.261905 0
0.887324 0.261905 0
0.911972 0.261905 0
0.936620 0.261905 0
0.961268 0.261905 0
0.985915 0.261905 0
1.010563 0.261905 0
1.035211 0.261905 0
1.059859 0.261905 0
1.084507 0.261905 0
1.109155 0.261905 0
1.133803 0.261905 0
1.158451 0.261905 0
1.183099 0.261905 0
1.207746 0.261905 0
1.232394 0.261905 0
1.257042 0.261905 0
1.281690 0.261905 0
1.306338 0.261905 0
1.330986 0.261905 0
1.355634 0.261905 0
1.380282 0.261905 0
1.404930 0.261905 0
1.429577 0.261905 0
1.454225 0.261905 0
1.478873 0.261905 0
1.503521 0.261905 0
1.528169 0.261905 0
1.552817 0.261905 0
1.577465 0.261905 0
1.602113 0.261905 0
1.626761 0.261905 0
1.651408 0.261905 0
1.676056 0.261905 0
1.700704 0.261905 0
1.725352 0.261905 0
1.750000 0.261905 0
1.774648 0.261905 0
1.799296 0.261905 0
1.823944 0.261905 0
1.848592 0.261905 0
1.873239 0.261905 0
1.897887 0.261905 0
1.922535 0.261905 0
1.947183 0.261905 0
1.971831 0.261905 0
1.996479 0.261905 0
2.021127 0.261905 0
2.045775 0.261905 0
2.070423 0.261905 0
2.095070 0.261905 0
2.119718 0.261905 0
2.144366 0.261905 0
2.169014 0.261905 0
2.193662 0.261905 0
2.218310 0.261905 0
2.242958 0.261905 0
2.267606 0.261905 0
2.292254 0.261905 0
2.316901 0.261905 0
2.341549 0.261905 0
2.366197 0.261905 0
2.390845 0.261905 0
2.415493 0.261905 0
2.440141 0.261905 0
2.464789 0.261905 0
2.489437 0.261905 0
2.514085 0.261905 0
2.538732 0.261905 0
2.563380 0.261905 0
2.588028 0.261905 0
2.612676 0.261905 0
2.637324 0.261905 0
2.661972 0.261905 0
2.686620 0.261905 0
2.711268 0.261905 0
2.735915 0.261905 0
2.760563 0.261905 0
2.785211 0.261905 0
2.809859 0.261905 0
2.834507 0.261905 0
2.859155 0.261905 0
2.883803 0.261905 0
2.908451 0.261905 0
2.933099 0.261905 0
2.957746 0.261905 0
2.982394 0.261905 0
3.007042 0.261905 0
3.031690 0.261905 0
3.056338 0.261905 0
3.080986 0.261905 0
3.105634 0.261905 0
3.130282 0.261905 0
3.154930 0.261905 0
3.179577 0.261905 0
3.204225 0.261905 0
3.228873 0.261905 0
3.253521 0.261905 0
3.278169 0.261905 0
3.302817 0.261905 0
3.327465 0.261905 0
3.352113 0.261905 0
3.376761 0.261905 0
3.401408 0.261905 0
3.426056 0.261905 0
3.450704 0.261905 0
3.475352 0.261905 0
0.000000 0.273810 0
0.024648 0.273810 0
0.049296 0.273810 0
0.073944 0.273810 0
0.098592 0.273810 0
0.123239 0.273810 0
0.147887 0.273810 0
0.172535 0.273810 0
0.197183 0.273810 0
0.221831 0.273810 0
0.246479 0.273810 0
0.271127 0.273810 0
0.295775 0.273810 0
0.320423 0.273810 0
0.345070 0.273810 0
0.369718 0.273810 0
0.394366 0.273810 0
0.419014 0.273810 0
0.443662 0.273810 0
0.468310 0.273810 0
0.492958 0.273810 0
0.517606 0.273810 0
0.542254 0.273810 0
0.566901 0.273810 0
0.591549 0.273810 0
0.616197 0.273810 0
0.640845 0.273810 0
0.665493 0.273810 0
0.690141 0.273810 0
0.714789 0.273810 0
0.739437 0.273810 0
0.764085 0.273810 0
0.788732 0.273810 0
0.813380 0.273810 0
0.838028 0.273810 0
0.862676 0.273810 0
0.887324 0.273810 0
0.911972 0.273810 0
0.936620 0.273810 0
0.961268 0.273810 0
0.985915 0.273810 0
1.010563 0.273810 0
1.035211 0.273810 0
1.059859 0.273810 0
1.084507 0.273810 0
1.109155 0.273810 0
1.133803 0.273810 0
1.158451 0.273810 0
1.183099 0.273810 0
1.207746 0.273810 0
1.232394 0.273810 0
1.257042 0.273810 0
1.281690 0.273810 0
1.306338 0.273810 0
1.330986 0.273810 0
1.355634 0.273810 0
1.380282 0.273810 0
1.404930 0.273810 0
1.429577 0.273810 0
1.454225 0.273810 0
1.478873 0.273810 0
1.503521 0.273810 0
1.528169 0.273810 0
1.552817 0.273810 0
1.577465 0.273810 0
1.602113 0.273810 0
1.626761 0.273810 0
1.651408 0.273810 0
1.676056 0.273810 0
1.700704 0.273810 0
1.725352 0.273810 0
1.750000 0.273810 0
1.774648 0.273810 0
1.799296 0.273810 0
1.823944 0.273810 0
1.848592 0.273810 0
1.873239 0.273810 0
1.897887 0.273810 0
1.922535 0.273810 0
1.947183 0.273810 0
1.971831 0.273810 0
1.996479 0.273810 0
2.021127 0.273810 0
2.045775 0.273810 0
2.070423 0.273810 0
2.095070 0.273810 0
2.119718 0.273810 0
2.144366 0.273810 0
2.169014 0.273810 0
2.193662 0.273810 0
2.218310 0.273810 0
2.242958 0.273810 0
2.267606 0.273810 0
2.292254 0.273810 0
2.316901 0.273810 0
2.341549 0.273810 0
2.366197 0.273810 0
2.390845 0.273810 0
2.415493 0.273810 0
2.440141 0.273810 0
2.464789 0.273810 0
2.489437 0.273810 0
2.514085 0.273810 0
2.538732 0.273810 0
2.563380 0.273810 0
2.588028 0.273810 0
2.612676 0.273810 0
2.637324 0.273810 0
2.661972 0.273810 0
2.686620 0.273810 0
2.711268 0.273810 0
2.735915 0.273810 0
2.760563 0.273810 0
2.785211 0.273810 0
2.809859 0.273810 0
2.834507 0.273810 0
2.859155 0.273810 0
2.883803 0.273810 0
2.908451 0.273810 0
2.933099 0.273810 0
2.957746 0.273810 0
2.982394 0.273810 0
3.007042 0.273810 0
3.031690 0.273810 0
3.056338 0.273810 0
3.080986 0.273810 0
3.105634 0.273810 0
3.130282 0.273810 0
3.154930 0.273810 0
3.179577 0.273810 0
3.204225 0.273810 0
3.228873 0.273810 0
3.253521 0.273810 0
3.278169 0.273810 0
3.302817 0.273810 0
3.327465 0.273810 0
3.352113 0.273810 0
3.376761 0.273810 0
3.401408 0.273810 0
3.426056 0.273810 0
3.450704 0.273810 0
3.475352 0.273810 0
0.000000 0.285714 0
0.024648 0.285714 0
0.049296 0.285714 0
0.073944 0.285714 0
0.098592 0.285714 0
0.123239 0.285714 0
0.147887 0.285714 0
0.172535 0.285714 0
0.197183 0.285714 0
0.221831 0.285714 0
0.246479 0.285714 0
0.271127 0.285714 0
0.295775 0.285714 0
0.320423 0.285714 0
0.345070 0.285714 0
0.369718 0.285714 0
0.394366 0.285714 0
0.419014 0.285714 0
0.443662 0.285714 0
0.468310 0.285714 0
0.492958 0.285714 0
0.517606 0.285714 0
0.542254 0.285714 0
0.566901 0.285714 0
0.591549 0.285714 0
0.616197 0.285714 0
0.640845 0.285714 0
0.665493 0.285714 0
0.690141 0.285714 0
0.714789 0.285714 0
0.739437 0.285714 0
0.764085 0.285714 0
0.788732 0.285714 0
0.813380 0.285714 0
0.838028 0.285714 0
0.862676 0.285714 0
0.887324 0.285714 0
0.911972 0.285714 0
0.936620 0.285714 0
0.961268 0.285714 0
0.985915 0.285714 0
1.010563 0.285714 0
1.035211 0.285714 0
1.059859 0.285714 0
1.084507 0.285714 0
1.109155 0.285714 0
1.133803 0.285714 0
1.158451 0.285714 0
1.183099 0.285714 0
1.207746 0.285714 0
1.232394 0.285714 0
1.257042 0.285714 0
1.281690 0.285714 0
1.306338 0.285714 0
1.330986 0.285714 0
1.355634 0.285714 0
1.380282 0.285714 0
1.404930 0.285714 0
1.429577 0.285714 0
1.454225 0.285714 0
1.478873 0.285714 0
1.503521 0.285714 0
1.528169 0.285714 0
1.552817 0.285714 0
1.577465 0.285714 0
[...]
POINT_DATA 5964 

VECTORS velocity float
1.000000 0.000000 0
0.999859 0.000000 0
0.999559 0.000000 0
0.999083 0.000000 0
0.998424 0.000000 0
0.997586 0.000000 0
0.996573 0.000000 0
0.995378 0.000000 0
0.993966 0.000000 0
0.992275 0.000000 0
0.990208 0.000000 0
0.987619 0.000000 0
0.984284 0.000000 0
0.979844 0.000000 0
0.973681 0.000000 0
0.964604 0.000000 0
0.950310 0.000000 0
0.922864 0.000000 0
0.871519 0.000000 0
-0.000036 0.000000 0
-0.000048 0.000000 0
-0.000073 0.000000 0
-0.000107 0.000000 0
-0.000135 0.000000 0
-0.000152 0.000000 0
-0.000158 0.000000 0
-0.000157 0.000000 0
-0.000155 0.000000 0
-0.000153 0.000000 0
-0.000151 0.000000 0
-0.000150 0.000000 0
-0.000149 0.000000 0
-0.000148 0.000000 0
-0.000148 0.000000 0
-0.000147 0.000000 0
-0.000147 0.000000 0
-0.000147 0.000000 0
-0.000147 0.000000 0
-0.000146 0.000000 0
-0.000146 0.000000 0
-0.000146 0.000000 0
-0.000146 0.000000 0
-0.000146 0.000000 0
-0.000146 0.000000 0
-0.000146 0.000000 0
-0.000145 0.000000 0
-0.000145 0.000000 0
-0.000145 0.000000 0
-0.000145 0.000000 0
-0.000145 0.000000 0
-0.000145 0.000000 0
-0.000145 0.000000 0
-0.000145 0.000000 0
-0.000145 0.000000 0
-0.000145 0.000000 0
-0.000145 0.000000 0
-0.000145 0.000000 0
-0.000144 0.000000 0
-0.000144 0.000000 0
-0.000144 0.000000 0
-0.000144 0.000000 0
-0.000144 0.000000 0
-0.000144 0.000000 0
-0.000144 0.000000 0
-0.000144 0.000000 0
-0.000144 0.000000 0
-0.000144 0.000000 0
-0.000144 0.000000 0
-0.000144 0.000000 0
-0.000144 0.000000 0
-0.000144 0.000000 0
-0.000144 0.000000 0
-0.000143 0.000000 0
-0.000143 0.000000 0
-0.000143 0.000000 0
-0.000143 0.000000 0
-0.000143 0.000000 0
-0.000143 0.000000 0
-0.000143 0.000000 0
-0.000143 0.000000 0
-0.000143 0.000000 0
-0.000143 0.000000 0
-0.000143 0.000000 0
-0.000143 0.000000 0
-0.000143 0.000000 0
-0.000143 0.000000 0
-0.000143 0.000000 0
-0.000143 0.000000 0
-0.000143 0.000000 0
-0.000143 0.000000 0
-0.000143 0.000000 0
-0.000142 0.000000 0
-0.000142 0.000000 0
-0.000142 0.000000 0
-0.000142 0.000000 0
-0.000142 0.000000 0
-0.000142 0.000000 0
-0.000142 0.000000 0
-0.000142 0.000000 0
-0.000142 0.000000 0
-0.000142 0.000000 0
-0.000142 0.000000 0
-0.000142 0.000000 0
-0.000142 0.000000 0
-0.000142 0.000000 0
-0.000142 0.000000 0
-0.000142 0.000000 0
-0.000142 0.000000 0
-0.000142 0.000000 0
-0.000142 0.000000 0
-0.000142 0.000000 0
-0.000142 0.000000 0
-0.000142 0.000000 0
-0.000142 0.000000 0
-0.000141 0.000000 0
-0.000141 0.000000 0
-0.000141 0.000000 0
-0.000141 0.000000 0
-0.000141 0.000000 0
-0.000141 0.000000 0
-0.000141 0.000000 0
-0.000141 0.000000 0
-0.000140 0.000000 0
-0.000140 0.000000 0
-0.000140 0.000000 0
-0.000139 0.000000 0
-0.000139 0.000000 0
-0.000138 0.000000 0
-0.000137 0.000000 0
-0.000137 0.000000 0
-0.000135 0.000000 0
-0.000134 0.000000 0
-0.000132 0.000000 0
-0.000129 0.000000 0
-0.000126 0.000000 0
-0.000121 0.000000 0
-0.000114 0.000000 0
-0.000103 0.000000 0
-0.000086 0.000000 0
-0.000062 0.000000 0
0.000008 0.000000 0
0.497522 0.000000 0
1.000000 0.000035 0
0.999859 0.000108 0
0.999561 0.000189 0
0.999090 0.000276 0
0.998437 0.000364 0
0.997606 0.000449 0
0.996604 0.000535 0
0.995420 0.000632 0
0.994022 0.000752 0
0.992348 0.000910 0
0.990304 0.001127 0
0.987746 0.001433 0
0.984458 0.001880 0
0.980094 0.002563 0
0.974071 0.003683 0
0.965296 0.005648 0
0.951696 0.010084 0
0.927268 0.019033 0
0.884083 0.076686 0
0.744318 0.109836 0
0.614319 0.070818 0
0.524435 0.037228 0
0.472468 0.016811 0
0.446894 0.006425 0
0.436329 0.001880 0
0.432815 0.000225 0
0.431966 -0.000197 0
0.431845 -0.000193 0
0.431794 -0.000107 0
0.431670 -0.000039 0
0.431490 0.000000 0
0.431290 0.000019 0
0.431095 0.000027 0
0.430918 0.000029 0
0.430762 0.000027 0
0.430627 0.000025 0
0.430512 0.000022 0
0.430415 0.000020 0
0.430332 0.000017 0
0.430262 0.000015 0
0.430203 0.000013 0
0.430154 0.000011 0
0.430113 0.000009 0
0.430078 0.000008 0
0.430048 0.000007 0
0.430024 0.000006 0
0.430004 0.000005 0
0.429987 0.000005 0
0.429973 0.000004 0
0.429961 0.000004 0
0.429951 0.000003 0
0.429943 0.000003 0
0.429937 0.000003 0
0.429932 0.000002 0
0.429928 0.000002 0
0.429925 0.000002 0
0.429922 0.000002 0
0.429920 0.000002 0
0.429919 0.000001 0
0.429919 0.000001 0
0.429918 0.000001 0
0.429918 0.000001 0
0.429919 0.000001 0
0.429920 0.000001 0
0.429921 0.000001 0
0.429922 0.000001 0
0.429923 0.000001 0
0.429925 0.000001 0
0.429927 0.000001 0
0.429929 0.000001 0
0.429931 0.000000 0
0.429933 0.000000 0
0.429936 0.000000 0
0.429938 0.000000 0
0.429941 0.000000 0
0.429944 0.000000 0
0.429947 0.000000 0
0.429950 0.000000 0
0.429954 -0.000000 0
0.429957 -0.000000 0
0.429961 -0.000000 0
0.429965 -0.000000 0
0.429969 -0.000000 0
0.429973 -0.000000 0
0.429978 -0.000001 0
0.429983 -0.000001 0
0.429988 -0.000001 0
0.429993 -0.000001 0
0.429999 -0.000001 0
0.430005 -0.000001 0
0.430012 -0.000001 0
0.430019 -0.000002 0
0.430027 -0.000002 0
0.430035 -0.000002 0
0.430044 -0.000002 0
0.430055 -0.000003 0
0.430066 -0.000003 0
0.430078 -0.000004 0
0.430092 -0.000004 0
0.430108 -0.000005 0
0.430125 -0.000006 0
0.430145 -0.000007 0
0.430167 -0.000008 0
0.430192 -0.000009 0
0.430221 -0.000010 0
0.430255 -0.000012 0
0.430293 -0.000014 0
0.430337 -0.000016 0
0.430389 -0.000019 0
0.430448 -0.000022 0
0.430517 -0.000026 0
0.430598 -0.000030 0
0.430693 -0.000035 0
0.430803 -0.000042 0
0.430934 -0.000049 0
0.431087 -0.000058 0
0.431267 -0.000068 0
0.431480 -0.000081 0
0.431733 -0.000097 0
0.432033 -0.000115 0
0.432390 -0.000137 0
0.432817 -0.000165 0
0.433328 -0.000198 0
0.433944 -0.000240 0
0.434688 -0.000292 0
0.435592 -0.000357 0
0.436698 -0.000439 0
0.438061 -0.000546 0
0.439756 -0.000686 0
0.441886 -0.000874 0
0.444598 -0.001129 0
0.448106 -0.001489 0
0.452733 -0.002011 0
0.458986 -0.002800 0
0.467696 -0.004059 0
0.480308 -0.006210 0
0.499527 -0.010236 0
0.530808 -0.019115 0
0.587264 -0.038817 0
0.695722 -0.151213 0
0.995546 -0.250098 0
0.995531 -0.125032 0
1.000000 0.000069 0
0.999861 0.000214 0
0.999568 0.000374 0
0.999105 0.000545 0
0.998468 0.000719 0
0.997659 0.000887 0
0.996682 0.001058 0
0.995529 0.001249 0
0.994169 0.001486 0
0.992544 0.001798 0
0.990564 0.002225 0
0.988098 0.002826 0
0.984946 0.003698 0
0.980806 0.005019 0
0.975183 0.007150 0
0.967239 0.010809 0
0.955495 0.018369 0
0.937603 0.032659 0
0.910508 0.088366 0
0.923017 0.130296 0
0.889084 0.106204 0
0.840808 0.068515 0
0.800459 0.037454 0
0.774516 0.017457 0
0.760569 0.006802 0
0.753924 0.002109 0
0.750865 0.000471 0
0.749323 0.000085 0
0.748349 0.000087 0
0.747590 0.000149 0
0.746942 0.000186 0
0.746382 0.000193 0
0.745903 0.000182 0
0.745497 0.000163 0
0.745154 0.000142 0
0.744867 0.000123 0
0.744626 0.000105 0
0.744425 0.000089 0
0.744256 0.000076 0
0.744114 0.000064 0
0.743995 0.000054 0
0.743896 0.000046 0
0.743813 0.000039 0
0.743743 0.000033 0
0.743684 0.000028 0
0.743635 0.000024 0
0.743594 0.000020 0
0.743560 0.000017 0
0.743531 0.000014 0
0.743508 0.000012 0
0.743488 0.000010 0
0.743472 0.000009 0
0.743458 0.000007 0
0.743447 0.000006 0
0.743438 0.000005 0
0.743431 0.000004 0
0.743425 0.000004 0
0.743421 0.000003 0
0.743418 0.000003 0
0.743415 0.000002 0
0.743414 0.000002 0
0.743413 0.000001 0
0.743412 0.000001 0
0.743413 0.000001 0
0.743413 0.000001 0
0.743415 0.000000 0
0.743416 0.000000 0
0.743418 -0.000000 0
0.743420 -0.000000 0
0.743422 -0.000001 0
0.743425 -0.000001 0
0.743428 -0.000001 0
0.743431 -0.000001 0
0.743434 -0.000001 0
0.743437 -0.000001 0
0.743441 -0.000002 0
0.743445 -0.000002 0
0.743449 -0.000002 0
0.743453 -0.000002 0
0.743458 -0.000002 0
0.743463 -0.000002 0
0.743468 -0.000003 0
0.743473 -0.000003 0
0.743478 -0.000003 0
0.743484 -0.000003 0
0.743490 -0.000004 0
0.743497 -0.000004 0
0.743504 -0.000004 0
0.743511 -0.000005 0
0.743519 -0.000005 0
0.743528 -0.000006 0
0.743537 -0.000006 0
0.743547 -0.000007 0
0.743558 -0.000008 0
0.743570 -0.000008 0
0.743583 -0.000009 0
0.743597 -0.000010 0
0.743613 -0.000012 0
0.743631 -0.000013 0
0.743651 -0.000015 0
0.743674 -0.000017 0
0.743700 -0.000019 0
0.743729 -0.000022 0
0.743762 -0.000026 0
0.743800 -0.000029 0
0.743844 -0.000034 0
0.743894 -0.000039 0
0.743953 -0.000046 0
0.744020 -0.000053 0
0.744099 -0.000062 0
0.744190 -0.000072 0
0.744297 -0.000084 0
0.744422 -0.000099 0
0.744568 -0.000116 0
0.744740 -0.000136 0
0.744942 -0.000161 0
0.745181 -0.000190 0
0.745463 -0.000225 0
0.745796 -0.000267 0
0.746192 -0.000317 0
0.746662 -0.000378 0
0.747224 -0.000453 0
0.747895 -0.000544 0
0.748702 -0.000656 0
0.749674 -0.000796 0
0.750853 -0.000971 0
0.752289 -0.001192 0
0.754051 -0.001477 0
0.756230 -0.001847 0
0.758951 -0.002339 0
0.762387 -0.003004 0
0.766786 -0.003929 0
0.772514 -0.005255 0
0.780126 -0.007227 0
0.790495 -0.010298 0
0.805049 -0.015374 0
0.826223 -0.024391 0
0.858230 -0.042376 0
0.908012 -0.079653 0
0.986932 -0.197197 0
0.996614 -0.289536 0
0.996599 -0.144723 0
1.000000 0.000103 0
0.999864 0.000318 0
0.999578 0.000555 0
0.999128 0.000808 0
0.998510 0.001063 0
0.997729 0.001312 0
0.996786 0.001564 0
0.995676 0.001846 0
0.994370 0.002194 0
0.992814 0.002652 0
0.990929 0.003275 0
0.988598 0.004147 0
0.985654 0.005403 0
0.981852 0.007280 0
0.976824 0.010237 0
0.970048 0.015158 0
0.960782 0.024399 0
0.949343 0.040762 0
0.936171 0.083732 0
0.974939 0.120185 0
0.991767 0.110525 0
0.985644 0.080034 0
0.970204 0.048830 0
0.954948 0.025692 0
0.943510 0.011827 0
0.936019 0.004913 0
0.931369 0.002027 0
0.928438 0.001024 0
0.926468 0.000731 0
0.925037 0.000641 0
0.923935 0.000584 0
0.923054 0.000522 0
0.922339 0.000456 0
0.921751 0.000391 0
0.921267 0.000332 0
0.920866 0.000281 0
0.920534 0.000237 0
0.920257 0.000199 0
0.920027 0.000168 0
0.919835 0.000141 0
0.919674 0.000119 0
0.919540 0.000100 0
0.919428 0.000084 0
0.919334 0.000071 0
0.919255 0.000060 0
0.919189 0.000050 0
0.919134 0.000042 0
0.919088 0.000036 0
0.919049 0.000030 0
0.919017 0.000025 0
0.918990 0.000021 0
0.918968 0.000018 0
0.918950 0.000015 0
0.918934 0.000012 0
0.918922 0.000010 0
0.918912 0.000009 0
0.918903 0.000007 0
0.918897 0.000006 0
0.918891 0.000005 0
0.918887 0.000004 0
0.918884 0.000003 0
0.918882 0.000002 0
0.918881 0.000002 0
0.918880 0.000001 0
0.918880 0.000000 0
0.918880 0.000000 0
0.918880 -0.000000 0
0.918881 -0.000001 0
0.918883 -0.000001 0
0.918884 -0.000001 0
0.918886 -0.000002 0
0.918888 -0.000002 0
0.918890 -0.000002 0
0.918893 -0.000003 0
0.918896 -0.000003 0
0.918899 -0.000003 0
0.918902 -0.000003 0
0.918905 -0.000004 0
0.918908 -0.000004 0
0.918912 -0.000004 0
0.918916 -0.000004 0
0.918920 -0.000005 0
0.918924 -0.000005 0
0.918928 -0.000006 0
0.918933 -0.000006 0
0.918938 -0.000006 0
0.918943 -0.000007 0
0.918949 -0.000008 0
0.918955 -0.000008 0
0.918962 -0.000009 0
0.918969 -0.000010 0
0.918977 -0.000011 0
0.918986 -0.000012 0
0.918995 -0.000013 0
0.919006 -0.000014 0
0.919017 -0.000016 0
0.919030 -0.000018 0
0.919045 -0.000020 0
0.919061 -0.000022 0
0.919080 -0.000025 0
0.919101 -0.000029 0
0.919126 -0.000033 0
0.919153 -0.000037 0
0.919185 -0.000043 0
0.919222 -0.000049 0
0.919265 -0.000057 0
0.919314 -0.000066 0
0.919372 -0.000077 0
0.919439 -0.000089 0
0.919517 -0.000104 0
0.919608 -0.000121 0
0.919715 -0.000142 0
0.919840 -0.000166 0
0.919987 -0.000195 0
0.920161 -0.000230 0
0.920365 -0.000271 0
0.920606 -0.000320 0
0.920890 -0.000378 0
0.921227 -0.000449 0
0.921628 -0.000533 0
0.922103 -0.000636 0
0.922670 -0.000760 0
0.923348 -0.000912 0
0.924160 -0.001099 0
0.925137 -0.001331 0
0.926317 -0.001619 0
0.927750 -0.001984 0
0.929499 -0.002450 0
0.931649 -0.003053 0
0.934312 -0.003847 0
0.937644 -0.004914 0
0.941857 -0.006380 0
0.947254 -0.008454 0
0.954272 -0.011484 0
0.963554 -0.016097 0
0.976040 -0.023467 0
0.993060 -0.035922 0
1.016198 -0.058619 0
1.045129 -0.100979 0
1.073277 -0.194007 0
0.997668 -0.259363 0
0.997653 -0.129621 0
1.000000 0.000136 0
0.999868 0.000419 0
0.999591 0.000730 0
0.999157 0.001062 0
0.998562 0.001395 0
0.997811 0.001721 0
0.996908 0.002050 0
0.995848 0.002417 0
0.994605 0.002869 0
0.993135 0.003460 0
0.991368 0.004262 0
0.989207 0.005374 0
0.986522 0.006957 0
0.983137 0.009285 0
0.978825 0.012851 0
0.973363 0.018559 0
0.966666 0.028371 0
0.960356 0.044546 0
0.957000 0.076004 0
0.992015 0.103444 0
1.023678 0.101034 0
1.038224 0.078931 0
1.038956 0.052281 0
1.032729 0.030351 0
1.024781 0.015945 0
1.017786 0.007974 0
1.012510 0.004133 0
1.008778 0.002453 0
1.006157 0.001730 0
1.004270 0.001373 0
1.002859 0.001144 0
1.001767 0.000964 0
1.000901 0.000812 0
1.000202 0.000681 0
0.999633 0.000570 0
0.999166 0.000477 0
0.998780 0.000399 0
0.998461 0.000334 0
0.998196 0.000280 0
0.997975 0.000235 0
0.997791 0.000197 0
0.997637 0.000166 0
0.997508 0.000139 0
0.997401 0.000117 0
0.997310 0.000098 0
0.997235 0.000083 0
0.997172 0.000069 0
0.997119 0.000058 0
0.997074 0.000049 0
0.997037 0.000041 0
0.997006 0.000035 0
0.996980 0.000029 0
0.996959 0.000024 0
0.996941 0.000020 0
0.996926 0.000017 0
0.996913 0.000014 0
0.996903 0.000011 0
0.996895 0.000009 0
0.996888 0.000008 0
0.996883 0.000006 0
0.996878 0.000005 0
0.996875 0.000004 0
0.996872 0.000003 0
0.996870 0.000002 0
0.996869 0.000001 0
0.996868 0.000000 0
0.996868 -0.000000 0
0.996868 -0.000001 0
0.996868 -0.000001 0
0.996868 -0.000002 0
0.996869 -0.000002 0
0.996870 -0.000003 0
0.996871 -0.000003 0
0.996872 -0.000003 0
0.996874 -0.000004 0
0.996875 -0.000004 0
0.996877 -0.000004 0
0.996879 -0.000005 0
0.996881 -0.000005 0
0.996883 -0.000005 0
0.996885 -0.000006 0
0.996888 -0.000006 0
0.996890 -0.000007 0
0.996893 -0.000007 0
0.996896 -0.000008 0
0.996900 -0.000008 0
0.996903 -0.000009 0
0.996907 -0.000010 0
0.996911 -0.000011 0
0.996916 -0.000012 0
0.996921 -0.000013 0
0.996927 -0.000014 0
0.996933 -0.000015 0
0.996941 -0.000017 0
0.996949 -0.000019 0
0.996958 -0.000021 0
0.996968 -0.000024 0
0.996980 -0.000027 0
0.996994 -0.000030 0
0.997010 -0.000034 0
0.997028 -0.000039 0
0.997049 -0.000044 0
0.997074 -0.000051 0
0.997102 -0.000059 0
0.997135 -0.000068 0
0.997174 -0.000078 0
0.997219 -0.000091 0
0.997272 -0.000105 0
0.997333 -0.000123 0
0.997406 -0.000143 0
0.997491 -0.000167 0
0.997591 -0.000196 0
0.997708 -0.000230 0
0.997847 -0.000270 0
0.998010 -0.000318 0
0.998203 -0.000375 0
0.998431 -0.000443 0
0.998701 -0.000525 0
0.999020 -0.000623 0
0.999400 -0.000740 0
0.999850 -0.000882 0
1.000387 -0.001054 0
1.001028 -0.001263 0
1.001795 -0.001520 0
1.002715 -0.001838 0
1.003823 -0.002233 0
1.005162 -0.002729 0
1.006789 -0.003360 0
1.008775 -0.004172 0
1.011216 -0.005234 0
1.014235 -0.006648 0
1.017999 -0.008571 0
1.022730 -0.011252 0
1.028726 -0.015099 0
1.036370 -0.020812 0
1.046110 -0.029626 0
1.058285 -0.043787 0
1.072464 -0.067525 0
1.084546 -0.107221 0
1.081663 -0.174274 0
0.998466 -0.216463 0
0.998450 -0.108169 0
1.000000 0.000167 0
0.999873 0.000517 0
0.999607 0.000899 0
0.999191 0.001305 0
0.998622 0.001714 0
0.997906 0.002111 0
0.997049 0.002513 0
0.996046 0.002959 0
0.994877 0.003505 0
0.993505 0.004216 0
0.991874 0.005173 0
0.989910 0.006488 0
0.987522 0.008335 0
0.984602 0.010998 0
0.981056 0.014958 0
0.976904 0.021031 0
0.972526 0.030682 0
0.969926 0.045432 0
0.972447 0.068441 0
0.999637 0.087981 0
1.030475 0.088206 0
1.050883 0.072655 0
1.058767 0.051485 0
1.057874 0.032539 0
1.052869 0.019044 0
1.047055 0.010840 0
1.042012 0.006378 0
1.038141 0.004093 0
1.035304 0.002908 0
1.033229 0.002235 0
1.031680 0.001794 0
1.030491 0.001468 0
1.029557 0.001212 0
1.028809 0.001004 0
1.028203 0.000833 0
1.027707 0.000693 0
1.027299 0.000578 0
1.026962 0.000482 0
1.026682 0.000403 0
1.026450 0.000337 0
1.026256 0.000282 0
1.026094 0.000237 0
1.025958 0.000199 0
1.025845 0.000167 0
1.025750 0.000140 0
1.025671 0.000118 0
1.025604 0.000099 0
1.025548 0.000083 0
1.025501 0.000070 0
1.025462 0.000059 0
1.025429 0.000049 0
1.025401 0.000041 0
1.025378 0.000035 0
1.025359 0.000029 0
1.025343 0.000024 0
1.025329 0.000020 0
1.025318 0.000017 0
1.025309 0.000014 0
1.025301 0.000011 0
1.025295 0.000009 0
1.025290 0.000007 0
1.025285 0.000006 0
1.025282 0.000004 0
1.025279 0.000003 0
1.025277 0.000002 0
1.025275 0.000001 0
1.025274 0.000000 0
1.025273 -0.000000 0
1.025273 -0.000001 0
1.025272 -0.000002 0
1.025272 -0.000002 0
1.025272 -0.000003 0
1.025273 -0.000003 0
1.025273 -0.000003 0
1.025274 -0.000004 0
1.025274 -0.000004 0
1.025275 -0.000005 0
1.025276 -0.000005 0
1.025277 -0.000006 0
1.025278 -0.000006 0
1.025279 -0.000006 0
1.025281 -0.000007 0
1.025282 -0.000007 0
1.025284 -0.000008 0
1.025286 -0.000009 0
1.025288 -0.000009 0
1.025290 -0.000010 0
1.025292 -0.000011 0
1.025295 -0.000012 0
1.025299 -0.000013 0
1.025302 -0.000015 0
1.025307 -0.000016 0
1.025312 -0.000018 0
1.025317 -0.000020 0
1.025324 -0.000022 0
1.025331 -0.000025 0
1.025340 -0.000028 0
1.025350 -0.000032 0
1.025361 -0.000036 0
1.025375 -0.000042 0
1.025391 -0.000048 0
1.025410 -0.000055 0
1.025431 -0.000063 0
1.025457 -0.000072 0
1.025487 -0.000084 0
1.025522 -0.000097 0
1.025563 -0.000113 0
1.025612 -0.000132 0
1.025669 -0.000154 0
1.025736 -0.000180 0
1.025816 -0.000210 0
1.025909 -0.000247 0
1.026019 -0.000290 0
1.026150 -0.000341 0
1.026303 -0.000402 0
1.026485 -0.000474 0
1.026699 -0.000560 0
1.026954 -0.000663 0
1.027255 -0.000786 0
1.027612 -0.000934 0
1.028036 -0.001113 0
1.028541 -0.001329 0
1.029142 -0.001592 0
1.029861 -0.001914 0
1.030720 -0.002310 0
1.031752 -0.002801 0
1.032993 -0.003417 0
1.034493 -0.004195 0
1.036311 -0.005191 0
1.038523 -0.006484 0
1.041228 -0.008190 0
1.044547 -0.010483 0
1.048630 -0.013635 0
1.053653 -0.018072 0
1.059785 -0.024493 0
1.067095 -0.034052 0
1.075248 -0.048651 0
1.082700 -0.071303 0
1.084287 -0.105422 0
1.067838 -0.152431 0
0.999009 -0.179005 0
0.998993 -0.089446 0
1.000000 0.000198 0
0.999880 0.000610 0
0.999627 0.001060 0
0.999231 0.001538 0
0.998693 0.002016 0
0.998017 0.002481 0
0.997210 0.002949 0
0.996272 0.003467 0
0.995187 0.004097 0
0.993925 0.004912 0
0.992446 0.005999 0
0.990699 0.007477 0
0.988628 0.009522 0
0.986193 0.012408 0
0.983408 0.016570 0
0.980466 0.022679 0
0.978002 0.031742 0
0.977947 0.044585 0
0.983452 0.061654 0
1.004388 0.075418 0
1.030060 0.076283 0
1.049720 0.065267 0
1.059692 0.048905 0
1.061598 0.033200 0
1.058892 0.021171 0
1.054541 0.013218 0
1.050266 0.008439 0
1.046731 0.005694 0
1.044013 0.004103 0
1.041968 0.003124 0
1.040419 0.002467 0
1.039223 0.001990 0
1.038283 0.001625 0
1.037531 0.001336 0
1.036922 0.001103 0
1.036425 0.000914 0
1.036016 0.000760 0
1.035677 0.000633 0
1.035397 0.000528 0
1.035164 0.000442 0
1.034969 0.000370 0
1.034807 0.000310 0
1.034671 0.000260 0
1.034557 0.000218 0
1.034462 0.000183 0
1.034382 0.000154 0
1.034315 0.000129 0
1.034258 0.000109 0
1.034211 0.000091 0
1.034172 0.000077 0
1.034138 0.000064 0
1.034110 0.000054 0
1.034087 0.000045 0
1.034067 0.000038 0
1.034051 0.000032 0
1.034037 0.000026 0
1.034026 0.000022 0
1.034016 0.000018 0
1.034008 0.000015 0
1.034002 0.000012 0
1.033996 0.000010 0
1.033992 0.000008 0
1.033988 0.000006 0
1.033985 0.000005 0
1.033982 0.000003 0
1.033980 0.000002 0
1.033979 0.000001 0
1.033977 0.000000 0
1.033976 -0.000000 0
1.033976 -0.000001 0
1.033975 -0.000002 0
1.033975 -0.000002 0
1.033975 -0.000003 0
1.033974 -0.000003 0
1.033975 -0.000004 0
1.033975 -0.000004 0
1.033975 -0.000005 0
1.033975 -0.000005 0
1.033976 -0.000006 0
1.033976 -0.000006 0
1.033977 -0.000007 0
1.033978 -0.000007 0
1.033979 -0.000008 0
1.033980 -0.000008 0
1.033981 -0.000009 0
1.033983 -0.000010 0
1.033984 -0.000011 0
1.033986 -0.000012 0
1.033988 -0.000013 0
1.033991 -0.000015 0
1.033994 -0.000016 0
1.033997 -0.000018 0
1.034001 -0.000020 0
1.034006 -0.000022 0
1.034012 -0.000025 0
1.034018 -0.000029 0
1.034026 -0.000032 0
1.034035 -0.000037 0
1.034045 -0.000042 0
1.034058 -0.000048 0
1.034072 -0.000055 0
1.034089 -0.000064 0
1.034109 -0.000074 0
1.034133 -0.000085 0
1.034161 -0.000099 0
1.034194 -0.000115 0
1.034232 -0.000134 0
1.034278 -0.000156 0
1.034332 -0.000183 0
1.034395 -0.000214 0
1.034470 -0.000251 0
1.034558 -0.000294 0
1.034663 -0.000346 0
1.034786 -0.000407 0
1.034931 -0.000480 0
1.035103 -0.000567 0
1.035307 -0.000670 0
1.035547 -0.000793 0