# vtk DataFile Version 2.0
generated by CFD-lab course output (written by Tobias Neckel) 
ASCII

DATASET STRUCTURED_GRID
DIMENSIONS  142 42 1 
POINTS 5964 float

0.000000 0.250000 0
0.024648 0.250000 0
0.049296 0.250000 0
0.073944 0.250000 0
0.098592 0.250000 0
0.123239 0.250000 0
0.147887 0.250000 0
0.172535 0.250000 0
0.197183 0.250000 0
0.221831 0.250000 0
0.246479 0.250000 0
0.271127 0.250000 0
0.295775 0.250000 0
0.320423 0.250000 0
0.345070 0.250000 0
0.369718 0.250000 0
0.394366 0.250000 0
0.419014 0.250000 0
0.443662 0.250000 0
0.468310 0.250000 0
0.492958 0.250000 0
0.517606 0.250000 0
0.542254 0.250000 0
0.566901 0.250000 0
0.591549 0.250000 0
0.616197 0.250000 0
0.640845 0.250000 0
0.665493 0.250000 0
0.690141 0.250000 0
0.714789 0.250000 0
0.739437 0.250000 0
0.764085 0.250000 0
0.788732 0.250000 0
0.813380 0.250000 0
0.838028 0.250000 0
0.862676 0.250000 0
0.887324 0.250000 0
0.911972 0.250000 0
0.936620 0.250000 0
0.961268 0.250000 0
0.985915 0.250000 0
1.010563 0.250000 0
1.035211 0.250000 0
1.059859 0.250000 0
1.084507 0.250000 0
1.109155 0.250000 0
1.133803 0.250000 0
1.158451 0.250000 0
1.183099 0.250000 0
1.207746 0.250000 0
1.232394 0.250000 0
1.257042 0.250000 0
1.281690 0.250000 0
1.306338 0.250000 0
1.330986 0.250000 0
1.355634 0.250000 0
1.380282 0.250000 0
1.404930 0.250000 0
1.429577 0.250000 0
1.454225 0.250000 0
1.478873 0.250000 0
1.503521 0.250000 0
1.528169 0.250000 0
1.552817 0.250000 0
1.577465 0.250000 0
1.602113 0.250000 0
1.626761 0.250000 0
1.651408 0.250000 0
1.676056 0.250000 0
1.700704 0.250000 0
1.725352 0.250000 0
1.750000 0.250000 0
1.774648 0.250000 0
1.799296 0.250000 0
1.823944 0.250000 0
1.848592 0.250000 0
1.873239 0.250000 0
1.897887 0.250000 0
1.922535 0.250000 0
1.947183 0.250000 0
1.971831 0.250000 0
1.996479 0.250000 0
2.021127 0.250000 0
2.045775 0.250000 0
2.070423 0.250000 0
2.095070 0.250000 0
2.119718 0.250000 0
2.144366 0.250000 0
2.169014 0.250000 0
2.193662 0.250000 0
2.218310 0.250000 0
2.242958 0.250000 0
2.267606 0.250000 0
2.292254 0.250000 0
2.316901 0.250000 0
2.341549 0.250000 0
2.366197 0.250000 0
2.390845 0.250000 0
2.415493 0.250000 0
2.440141 0.250000 0
2.464789 0.250000 0
2.489437 0.250000 0
2.514085 0.250000 0
2.538732 0.250000 0
2.563380 0.250000 0
2.588028 0.250000 0
2.612676 0.250000 0
2.637324 0.250000 0
2.661972 0.250000 0
2.686620 0.250000 0
2.711268 0.250000 0
2.735915 0.250000 0
2.760563 0.250000 0
2.785211 0.250000 0
2.809859 0.250000 0
2.834507 0.250000 0
2.859155 0.250000 0
2.883803 0.250000 0
2.908451 0.250000 0
2.933099 0.250000 0
2.957746 0.250000 0
2.982394 0.250000 0
3.007042 0.250000 0
3.031690 0.250000 0
3.056338 0.250000 0
3.080986 0.250000 0
3.105634 0.250000 0
3.130282 0.250000 0
3.154930 0.250000 0
3.179577 0.250000 0
3.204225 0.250000 0
3.228873 0.250000 0
3.253521 0.250000 0
3.278169 0.250000 0
3.302817 0.250000 0
3.327465 0.250000 0
3.352113 0.250000 0
3.376761 0.250000 0
3.401408 0.250000 0
3.426056 0.250000 0
3.450704 0.250000 0
3.475352 0.250000 0
0.000000 0.261905 0
0.024648 0.261905 0
0.049296 0.261905 0
0.073944 0.261905 0
0.098592 0.261905 0
0.123239 0.261905 0
0.147887 0.261905 0
0.172535 0.261905 0
0.197183 0.261905 0
0.221831 0.261905 0
0.246479 0.261905 0
0.271127 0.261905 0
0.295775 0.261905 0
0.320423 0.261905 0
0.345070 0.261905 0
0.369718 0.261905 0
0.394366 0.261905 0
0.419014 0.261905 0
0.443662 0.261905 0
0.468310 0.261905 0
0.492958 0.261905 0
0.517606 0.261905 0
0.542254 0.261905 0
0.566901 0.261905 0
0.591549 0.261905 0
0.616197 0.261905 0
0.640845 0.261905 0
0.665493 0.261905 0
0.690141 0.261905 0
0.714789 0.261905 0
0.739437 0.261905 0
0.764085 0.261905 0
0.788732 0.261905 0
0.813380 0.261905 0
0.838028 0.261905 0
0.862676 0.261905 0
0.887324 0.261905 0
0.911972 0.261905 0
0.936620 0.261905 0
0.961268 0.261905 0
0.985915 0.261905 0
1.010563 0.261905 0
1.035211 0.261905 0
1.059859 0.261905 0
1.084507 0.261905 0
1.109155 0.261905 0
1.133803 0.261905 0
1.158451 0.261905 0
1.183099 0.261905 0
1.207746 0.261905 0
1.232394 0.261905 0
1.257042 0.261905 0
1.281690 0.261905 0
1.306338 0.261905 0
1.330986 0.261905 0
1.355634 0.261905 0
1.380282 0.261905 0
1.404930 0.261905 0
1.429577 0.261905 0
1.454225 0.261905 0
1.478873 0.261905 0
1.503521 0.261905 0
1.528169 0.261905 0
1.552817 0.261905 0
1.577465 0.261905 0
1.602113 0.261905 0
1.626761 0.261905 0
1.651408 0.261905 0
1.676056 0.261905 0
1.700704 0.261905 0
1.725352 0.261905 0
1.750000 0.261905 0
1.774648 0.261905 0
1.799296 0.261905 0
1.823944 0.261905 0
1.848592 0.261905 0
1.873239 0.261905 0
1.897887 0.261905 0
1.922535 0.261905 0
1.947183 0.261905 0
1.971831 0.261905 0
1.996479 0.261905 0
2.021127 0.261905 0
2.045775 0.261905 0
2.070423 0.261905 0
2.095070 0.261905 0
2.119718 0.261905 0
2.144366 0.261905 0
2.169014 0.261905 0
2.193662 0.261905 0
2.218310 0.261905 0
2.242958 0.261905 0
2.267606 0.261905 0
2.292254 0.261905 0
2.316901 0.261905 0
2.341549 0.261905 0
2.366197 0.261905 0
2.390845 0.261905 0
2.415493 0.261905 0
2.440141 0.261905 0
2.464789 0.261905 0
2.489437 0.261905 0
2.514085 0.261905 0
2.538732 0.261905 0
2.563380 0.261905 0
2.588028 0.261905 0
2.612676 0.261905 0
2.637324 0.261905 0
2.661972 0.261905 0
2.686620 0.261905 0
2.711268 0.261905 0
2.735915 0.261905 0
2.760563 0.261905 0
2.785211 0.261905 0
2.809859 0.261905 0
2.834507 0.261905 0
2.859155 0.261905 0
2.883803 0.261905 0
2.908451 0.261905 0
2.933099 0.261905 0
2.957746 0.261905 0
2.982394 0.261905 0
3.007042 0.261905 0
3.031690 0.261905 0
3.056338 0.261905 0
3.080986 0.261905 0
3.105634 0.261905 0
3.130282 0.261905 0
3.154930 0.261905 0
3.179577 0.261905 0
3.204225 0.261905 0
3.228873 0.261905 0
3.253521 0.261905 0
3.278169 0.261905 0
3.302817 0.261905 0
3.327465 0.261905 0
3.352113 0.261905 0
3.376761 0.261905 0
3.401408 0.261905 0
3.426056 0.261905 0
3.450704 0.261905 0
3.475352 0.261905 0
0.000000 0.273810 0
0.024648 0.273810 0
0.049296 0.273810 0
0.073944 0.273810 0
0.098592 0.273810 0
0.123239 0.273810 0
0.147887 0.273810 0
0.172535 0.273810 0
0.197183 0.273810 0
0.221831 0.273810 0
0.246479 0.273810 0
0.271127 0.273810 0
0.295775 0.273810 0
0.320423 0.273810 0
0.345070 0.273810 0
0.369718 0.273810 0
0.394366 0.273810 0
0.419014 0.273810 0
0.443662 0.273810 0
0.468310 0.273810 0
0.492958 0.273810 0
0.517606 0.273810 0
0.542254 0.273810 0
0.566901 0.273810 0
0.591549 0.273810 0
0.616197 0.273810 0
0.640845 0.273810 0
0.665493 0.273810 0
0.690141 0.273810 0
0.714789 0.273810 0
0.739437 0.273810 0
0.764085 0.273810 0
0.788732 0.273810 0
0.813380 0.273810 0
0.838028 0.273810 0
0.862676 0.273810 0
0.887324 0.273810 0
0.911972 0.273810 0
0.936620 0.273810 0
0.961268 0.273810 0
0.985915 0.273810 0
1.010563 0.273810 0
1.035211 0.273810 0
1.059859 0.273810 0
1.084507 0.273810 0
1.109155 0.273810 0
1.133803 0.273810 0
1.158451 0.273810 0
1.183099 0.273810 0
1.207746 0.273810 0
1.232394 0.273810 0
1.257042 0.273810 0
1.281690 0.273810 0
1.306338 0.273810 0
1.330986 0.273810 0
1.355634 0.273810 0
1.380282 0.273810 0
1.404930 0.273810 0
1.429577 0.273810 0
1.454225 0.273810 0
1.478873 0.273810 0
1.503521 0.273810 0
1.528169 0.273810 0
1.552817 0.273810 0
1.577465 0.273810 0
1.602113 0.273810 0
1.626761 0.273810 0
1.651408 0.273810 0
1.676056 0.273810 0
1.700704 0.273810 0
1.725352 0.273810 0
1.750000 0.273810 0
1.774648 0.273810 0
1.799296 0.273810 0
1.823944 0.273810 0
1.848592 0.273810 0
1.873239 0.273810 0
1.897887 0.273810 0
1.922535 0.273810 0
1.947183 0.273810 0
1.971831 0.273810 0
1.996479 0.273810 0
2.021127 0.273810 0
2.045775 0.273810 0
2.070423 0.273810 0
2.095070 0.273810 0
2.119718 0.273810 0
2.144366 0.273810 0
2.169014 0.273810 0
2.193662 0.273810 0
2.218310 0.273810 0
2.242958 0.273810 0
2.267606 0.273810 0
2.292254 0.273810 0
2.316901 0.273810 0
2.341549 0.273810 0
2.366197 0.273810 0
2.390845 0.273810 0
2.415493 0.273810 0
2.440141 0.273810 0
2.464789 0.273810 0
2.489437 0.273810 0
2.514085 0.273810 0
2.538732 0.273810 0
2.563380 0.273810 0
2.588028 0.273810 0
2.612676 0.273810 0
2.637324 0.273810 0
2.661972 0.273810 0
2.686620 0.273810 0
2.711268 0.273810 0
2.735915 0.273810 0
2.760563 0.273810 0
2.785211 0.273810 0
2.809859 0.273810 0
2.834507 0.273810 0
2.859155 0.273810 0
2.883803 0.273810 0
2.908451 0.273810 0
2.933099 0.273810 0
2.957746 0.273810 0
2.982394 0.273810 0
3.007042 0.273810 0
3.031690 0.273810 0
3.056338 0.273810 0
3.080986 0.273810 0
3.105634 0.273810 0
3.130282 0.273810 0
3.154930 0.273810 0
3.179577 0.273810 0
3.204225 0.273810 0
3.228873 0.273810 0
3.253521 0.273810 0
3.278169 0.273810 0
3.302817 0.273810 0
3.327465 0.273810 0
3.352113 0.273810 0
3.376761 0.273810 0
3.401408 0.273810 0
3.426056 0.273810 0
3.450704 0.273810 0
3.475352 0.273810 0
0.000000 0.285714 0
0.024648 0.285714 0
0.049296 0.285714 0
0.073944 0.285714 0
0.098592 0.285714 0
0.123239 0.285714 0
0.147887 0.285714 0
0.172535 0.285714 0
0.197183 0.285714 0
0.221831 0.285714 0
0.246479 0.285714 0
0.271127 0.285714 0
0.295775 0.285714 0
0.320423 0.285714 0
0.345070 0.285714 0
0.369718 0.285714 0
0.394366 0.285714 0
0.419014 0.285714 0
0.443662 0.285714 0
0.468310 0.285714 0
0.492958 0.285714 0
0.517606 0.285714 0
0.542254 0.285714 0
0.566901 0.285714 0
0.591549 0.285714 0
0.616197 0.285714 0
0.640845 0.285714 0
0.665493 0.285714 0
0.690141 0.285714 0
0.714789 0.285714 0
0.739437 0.285714 0
0.764085 0.285714 0
0.788732 0.285714 0
0.813380 0.285714 0
0.838028 0.285714 0
0.862676 0.285714 0
0.887324 0.285714 0
0.911972 0.285714 0
0.936620 0.285714 0
0.961268 0.285714 0
0.985915 0.285714 0
1.010563 0.285714 0
1.035211 0.285714 0
1.059859 0.285714 0
1.084507 0.285714 0
1.109155 0.285714 0
1.133803 0.285714 0
1.158451 0.285714 0
1.183099 0.285714 0
1.207746 0.285714 0
1.232394 0.285714 0
1.257042 0.285714 0
1.281690 0.285714 0
1.306338 0.285714 0
1.330986 0.285714 0
1.355634 0.285714 0
1.380282 0.285714 0
1.404930 0.285714 0
1.429577 0.285714 0
1.454225 0.285714 0
1.478873 0.285714 0
1.503521 0.285714 0
1.528169 0.285714 0
1.552817 0.285714 0
1.577465 0.285714 0
[...]
POINT_DATA 5964 

VECTORS velocity float
1.000000 0.000000 0
0.999854 0.000000 0
0.999556 0.000000 0
0.999097 0.000000 0
0.998458 0.000000 0
0.997615 0.000000 0
0.996532 0.000000 0
0.995162 0.000000 0
0.993440 0.000000 0
0.991275 0.000000 0
0.988543 0.000000 0
0.985062 0.000000 0
0.980561 0.000000 0
0.974615 0.000000 0
0.966517 0.000000 0
0.954934 0.000000 0
0.937383 0.000000 0
0.905760 0.000000 0
0.847693 0.000000 0
-0.000000 0.000000 0
-0.000000 0.000000 0
-0.000000 0.000000 0
-0.000000 0.000000 0
-0.000000 0.000000 0
-0.000000 0.000000 0
-0.000000 0.000000 0
-0.000000 0.000000 0
-0.000000 0.000000 0
-0.000000 0.000000 0
-0.000000 0.000000 0
-0.000000 0.000000 0
-0.000000 0.000000 0
-0.000000 0.000000 0
-0.000000 0.000000 0
-0.000000 0.000000 0
-0.000000 0.000000 0
-0.000000 0.000000 0
-0.000000 0.000000 0
-0.000000 0.000000 0
-0.000000 0.000000 0
-0.000000 0.000000 0
-0.000000 0.000000 0
-0.000000 0.000000 0
-0.000000 0.000000 0
-0.000000 0.000000 0
-0.000000 0.000000 0
-0.000000 0.000000 0
-0.000000 0.000000 0
-0.000000 0.000000 0
-0.000000 0.000000 0
-0.000000 0.000000 0
-0.000000 0.000000 0
-0.000000 0.000000 0
-0.000000 0.000000 0
-0.000000 0.000000 0
-0.000000 0.000000 0
-0.000000 0.000000 0
-0.000000 0.000000 0
-0.000000 0.000000 0
-0.000000 0.000000 0
-0.000000 0.000000 0
-0.000000 0.000000 0
-0.000000 0.000000 0
-0.000000 0.000000 0
-0.000000 0.000000 0
-0.000000 0.000000 0
-0.000000 0.000000 0
-0.000000 0.000000 0
-0.000000 0.000000 0
-0.000000 0.000000 0
-0.000000 0.000000 0
-0.000000 0.000000 0
-0.000000 0.000000 0
-0.000000 0.000000 0
-0.000000 0.000000 0
-0.000000 0.000000 0
-0.000000 0.000000 0
-0.000000 0.000000 0
-0.000000 0.000000 0
-0.000000 0.000000 0
-0.000000 0.000000 0
-0.000000 0.000000 0
-0.000000 0.000000 0
-0.000000 0.000000 0
-0.000000 0.000000 0
-0.000000 0.000000 0
-0.000000 0.000000 0
-0.000000 0.000000 0
-0.000000 0.000000 0
-0.000000 0.000000 0
-0.000000 0.000000 0
-0.000000 0.000000 0
-0.000000 0.000000 0
-0.000000 0.000000 0
-0.000000 0.000000 0
-0.000000 0.000000 0
-0.000000 0.000000 0
-0.000000 0.000000 0
-0.000000 0.000000 0
-0.000000 0.000000 0
-0.000000 0.000000 0
-0.000000 0.000000 0
-0.000000 0.000000 0
-0.000000 0.000000 0
-0.000000 0.000000 0
-0.000000 0.000000 0
-0.000000 0.000000 0
-0.000000 0.000000 0
-0.000000 0.000000 0
-0.000000 0.000000 0
-0.000001 0.000000 0
-0.000001 0.000000 0
-0.000001 0.000000 0
-0.000001 0.000000 0
-0.000001 0.000000 0
-0.000001 0.000000 0
-0.000001 0.000000 0
-0.000001 0.000000 0
-0.000001 0.000000 0
-0.000001 0.000000 0
-0.000001 0.000000 0
-0.000001 0.000000 0
-0.000001 0.000000 0
-0.000001 0.000000 0
-0.000001 0.000000 0
-0.000001 0.000000 0
-0.000001 0.000000 0
-0.000001 0.000000 0
-0.000001 0.000000 0
-0.000001 0.000000 0
-0.000001 0.000000 0
-0.000001 0.000000 0
-0.000001 0.000000 0
-0.000001 0.000000 0
-0.000001 0.000000 0
-0.000000 0.000000 0
-0.000000 0.000000 0
-0.000000 0.000000 0
0.000000 0.000000 0
0.000000 0.000000 0
-0.000000 0.000000 0
0.496508 0.000000 0
1.000000 0.000035 0
0.999854 0.000107 0
0.999558 0.000183 0
0.999101 0.000265 0
0.998465 0.000358 0
0.997626 0.000465 0
0.996549 0.000592 0
0.995186 0.000747 0
0.993475 0.000939 0
0.991325 0.001182 0
0.988614 0.001500 0
0.985165 0.001928 0
0.980714 0.002523 0
0.974850 0.003392 0
0.966903 0.004753 0
0.955641 0.007036 0
0.938825 0.011875 0
0.910181 0.021660 0
0.860875 0.078853 0
0.714887 0.110956 0
0.576505 0.072745 0
0.473017 0.041074 0
0.401067 0.022638 0
0.351164 0.013309 0
0.315501 0.008679 0
0.288996 0.006202 0
0.268556 0.004718 0
0.252295 0.003739 0
0.239029 0.003050 0
0.227982 0.002542 0
0.218627 0.002156 0
0.210593 0.001855 0
0.203612 0.001615 0
0.197484 0.001420 0
0.192056 0.001260 0
0.187213 0.001127 0
0.182860 0.001015 0
0.178923 0.000919 0
0.175344 0.000838 0
0.172072 0.000767 0
0.169068 0.000706 0
0.166297 0.000652 0
0.163731 0.000605 0
0.161347 0.000563 0
0.159124 0.000526 0
0.157044 0.000493 0
0.155092 0.000463 0
0.153256 0.000437 0
0.151525 0.000413 0
0.149887 0.000391 0
0.148336 0.000371 0
0.146863 0.000353 0
0.145461 0.000336 0
0.144125 0.000321 0
0.142849 0.000307 0
0.141629 0.000294 0
0.140461 0.000282 0
0.139341 0.000270 0
0.138266 0.000260 0
0.137232 0.000250 0
0.136237 0.000241 0
0.135278 0.000232 0
0.134354 0.000224 0
0.133462 0.000217 0
0.132601 0.000209 0
0.131769 0.000203 0
0.130964 0.000196 0
0.130185 0.000190 0
0.129430 0.000184 0
0.128700 0.000178 0
0.127992 0.000173 0
0.127306 0.000168 0
0.126641 0.000163 0
0.125995 0.000158 0
0.125369 0.000153 0
0.124762 0.000149 0
0.124173 0.000144 0
0.123602 0.000140 0
0.123048 0.000136 0
0.122510 0.000132 0
0.121989 0.000128 0
0.121485 0.000124 0
0.120996 0.000120 0
0.120523 0.000116 0
0.120066 0.000112 0
0.119624 0.000109 0
0.119198 0.000105 0
0.118787 0.000101 0
0.118393 0.000097 0
0.118014 0.000093 0
0.117652 0.000089 0
0.117306 0.000085 0
0.116978 0.000080 0
0.116667 0.000076 0
0.116376 0.000071 0
0.116103 0.000066 0
0.115851 0.000061 0
0.115621 0.000055 0
0.115414 0.000049 0
0.115232 0.000042 0
0.115076 0.000035 0
0.114949 0.000027 0
0.114853 0.000019 0
0.114792 0.000009 0
0.114769 -0.000002 0
0.114789 -0.000013 0
0.114854 -0.000026 0
0.114967 -0.000040 0
0.115135 -0.000055 0
0.115362 -0.000072 0
0.115656 -0.000092 0
0.116023 -0.000113 0
0.116472 -0.000137 0
0.117013 -0.000165 0
0.117658 -0.000195 0
0.118420 -0.000231 0
0.119316 -0.000271 0
0.120363 -0.000317 0
0.121586 -0.000370 0
0.123011 -0.000432 0
0.124669 -0.000504 0
0.126602 -0.000589 0
0.128856 -0.000690 0
0.131489 -0.000809 0
0.134574 -0.000953 0
0.138201 -0.001128 0
0.142482 -0.001342 0
0.147564 -0.001607 0
0.153634 -0.001941 0
0.160941 -0.002368 0
0.169820 -0.002924 0
0.180733 -0.003667 0
0.194339 -0.004686 0
0.211602 -0.006138 0
0.233997 -0.008302 0
0.263890 -0.011732 0
0.305349 -0.017591 0
0.365680 -0.029289 0
0.461553 -0.051655 0
0.618289 -0.166989 0
0.993325 -0.267920 0
0.993325 -0.133960 0
1.000000 0.000070 0
0.999856 0.000213 0
0.999564 0.000364 0
0.999113 0.000528 0
0.998486 0.000712 0
0.997659 0.000926 0
0.996599 0.001178 0
0.995259 0.001485 0
0.993579 0.001865 0
0.991473 0.002348 0
0.988825 0.002975 0
0.985469 0.003816 0
0.981163 0.004982 0
0.975541 0.006670 0
0.968025 0.009278 0
0.957649 0.013561 0
0.942785 0.021957 0
0.920695 0.037650 0
0.888371 0.094325 0
0.890999 0.137349 0
0.842149 0.116821 0
0.771619 0.084735 0
0.701223 0.058855 0
0.639921 0.041328 0
0.589259 0.030027 0
0.547925 0.022674 0
0.514043 0.017726 0
0.485955 0.014261 0
0.462373 0.011743 0
0.442326 0.009854 0
0.425087 0.008399 0
0.410110 0.007252 0
0.396977 0.006332 0
0.385366 0.005581 0
0.375024 0.004961 0
0.365750 0.004442 0
0.357384 0.004004 0
0.349795 0.003630 0
0.342876 0.003309 0
0.336538 0.003031 0
0.330708 0.002789 0
0.325324 0.002577 0
0.320333 0.002391 0
0.315691 0.002225 0
0.311359 0.002078 0
0.307305 0.001947 0
0.303500 0.001829 0
0.299919 0.001723 0
0.296541 0.001627 0
0.293347 0.001540 0
0.290321 0.001461 0
0.287448 0.001389 0
0.284714 0.001322 0
0.282109 0.001261 0
0.279623 0.001205 0
0.277246 0.001153 0
0.274970 0.001105 0
0.272789 0.001061 0
0.270695 0.001019 0
0.268682 0.000980 0
0.266746 0.000944 0
0.264882 0.000909 0
0.263085 0.000877 0
0.261351 0.000847 0
0.259678 0.000818 0
0.258061 0.000791 0
0.256497 0.000765 0
0.254985 0.000740 0
0.253521 0.000717 0
0.252104 0.000695 0
0.250731 0.000673 0
0.249401 0.000653 0
0.248111 0.000633 0
0.246861 0.000614 0
0.245648 0.000596 0
0.244473 0.000578 0
0.243333 0.000560 0
0.242227 0.000544 0
0.241155 0.000527 0
0.240116 0.000511 0
0.239110 0.000495 0
0.238135 0.000480 0
0.237191 0.000465 0
0.236278 0.000449 0
0.235395 0.000434 0
0.234544 0.000419 0
0.233722 0.000404 0
0.232932 0.000389 0
0.232172 0.000373 0
0.231443 0.000358 0
0.230746 0.000342 0
0.230082 0.000325 0
0.229450 0.000309 0
0.228853 0.000291 0
0.228292 0.000273 0
0.227768 0.000253 0
0.227283 0.000233 0
0.226839 0.000211 0
0.226438 0.000188 0
0.226083 0.000163 0
0.225777 0.000137 0
0.225524 0.000108 0
0.225328 0.000076 0
0.225194 0.000041 0
0.225128 0.000001 0
0.225140 -0.000041 0
0.225232 -0.000086 0
0.225412 -0.000136 0
0.225687 -0.000191 0
0.226067 -0.000252 0
0.226561 -0.000319 0
0.227183 -0.000394 0
0.227946 -0.000478 0
0.228866 -0.000573 0
0.229964 -0.000680 0
0.231261 -0.000801 0
0.232784 -0.000939 0
0.234565 -0.001097 0
0.236640 -0.001279 0
0.239054 -0.001489 0
0.241859 -0.001735 0
0.245119 -0.002022 0
0.248912 -0.002360 0
0.253329 -0.002762 0
0.258485 -0.003242 0
0.264520 -0.003820 0
0.271610 -0.004522 0
0.279976 -0.005386 0
0.289898 -0.006461 0
0.301742 -0.007818 0
0.315990 -0.009560 0
0.333289 -0.011843 0
0.354527 -0.014909 0
0.380959 -0.019154 0
0.414407 -0.025254 0
0.457598 -0.034462 0
0.514794 -0.049164 0
0.592611 -0.075446 0
0.702298 -0.122008 0
0.858107 -0.256842 0
0.994034 -0.362280 0
0.994034 -0.181140 0
1.000000 0.000105 0
0.999859 0.000318 0
0.999574 0.000542 0
0.999133 0.000786 0
0.998521 0.001060 0
0.997714 0.001377 0
0.996681 0.001752 0
0.995379 0.002205 0
0.993750 0.002767 0
0.991715 0.003479 0
0.989168 0.004400 0
0.985962 0.005628 0
0.981888 0.007318 0
0.976642 0.009737 0
0.969783 0.013395 0
0.960673 0.019226 0
0.948431 0.029724 0
0.933029 0.047942 0
0.915087 0.093196 0
0.945331 0.133281 0
0.948626 0.130405 0
0.922940 0.109140 0
0.881982 0.086247 0
0.836591 0.067387 0
0.792541 0.053113 0
0.752209 0.042531 0
0.716226 0.034649 0
0.684458 0.028695 0
0.656489 0.024123 0
0.631832 0.020551 0
0.610023 0.017716 0
0.590647 0.015432 0
0.573350 0.013566 0
0.557834 0.012024 0
0.543849 0.010735 0
0.531184 0.009647 0
0.519663 0.008721 0
0.509140 0.007927 0
0.499488 0.007240 0
0.490604 0.006644 0
0.482396 0.006122 0
0.474788 0.005663 0
0.467713 0.005258 0
0.461115 0.004898 0
0.454943 0.004577 0
0.449156 0.004289 0
0.443715 0.004031 0
0.438587 0.003798 0
0.433743 0.003587 0
0.429159 0.003395 0
0.424811 0.003221 0
0.420679 0.003061 0
0.416747 0.002914 0
0.412997 0.002780 0
0.409416 0.002656 0
0.405992 0.002541 0
0.402712 0.002435 0
0.399567 0.002336 0
0.396548 0.002243 0
0.393646 0.002157 0
0.390854 0.002076 0
0.388164 0.002001 0
0.385572 0.001929 0
0.383071 0.001862 0
0.380656 0.001799 0
0.378323 0.001739 0
0.376068 0.001682 0
0.373886 0.001627 0
0.371774 0.001575 0
0.369729 0.001526 0
0.367748 0.001479 0
0.365828 0.001433 0
0.363967 0.001389 0
0.362163 0.001347 0
0.360414 0.001307 0
0.358718 0.001267 0
0.357074 0.001229 0
0.355479 0.001192 0
0.353933 0.001155 0
0.352434 0.001120 0
0.350982 0.001085 0
0.349576 0.001051 0
0.348215 0.001017 0
0.346899 0.000983 0
0.345627 0.000950 0
0.344399 0.000917 0
0.343215 0.000883 0
0.342075 0.000850 0
0.340980 0.000816 0
0.339929 0.000782 0
0.338924 0.000747 0
0.337965 0.000711 0
0.337054 0.000674 0
0.336191 0.000635 0
0.335379 0.000595 0
0.334620 0.000554 0
0.333915 0.000510 0
0.333267 0.000463 0
0.332680 0.000414 0
0.332156 0.000361 0
0.331699 0.000305 0
0.331315 0.000244 0
0.331007 0.000178 0
0.330783 0.000105 0
0.330648 0.000024 0
0.330614 -0.000064 0
0.330689 -0.000157 0
0.330879 -0.000259 0
0.331195 -0.000371 0
0.331647 -0.000494 0
0.332247 -0.000631 0
0.333011 -0.000782 0
0.333956 -0.000950 0
0.335103 -0.001139 0
0.336474 -0.001352 0
0.338097 -0.001593 0
0.340005 -0.001866 0
0.342236 -0.002179 0
0.344835 -0.002538 0
0.347855 -0.002953 0
0.351361 -0.003434 0
0.355427 -0.003996 0
0.360146 -0.004655 0
0.365625 -0.005433 0
0.371999 -0.006359 0
0.379429 -0.007467 0
0.388114 -0.008807 0
0.398299 -0.010440 0
0.410296 -0.012454 0
0.424496 -0.014970 0
0.441403 -0.018161 0
0.461677 -0.022280 0
0.486190 -0.027711 0
0.516118 -0.035060 0
0.553070 -0.045318 0
0.599265 -0.060218 0
0.657760 -0.082801 0
0.732423 -0.119852 0
0.826691 -0.179888 0
0.939843 -0.307895 0
0.994825 -0.399224 0
0.994825 -0.199612 0
1.000000 0.000138 0
0.999864 0.000419 0
0.999587 0.000715 0
0.999160 0.001037 0
0.998568 0.001398 0
0.997790 0.001814 0
0.996794 0.002306 0
0.995543 0.002901 0
0.993983 0.003635 0
0.992045 0.004560 0
0.989634 0.005754 0
0.986627 0.007333 0
0.982854 0.009483 0
0.978089 0.012517 0
0.972037 0.016990 0
0.964382 0.023874 0
0.954906 0.035310 0
0.945019 0.053755 0
0.937269 0.088384 0
0.965708 0.121149 0
0.987885 0.127636 0
0.990072 0.116924 0
0.975767 0.100560 0
0.951738 0.084527 0
0.923220 0.070783 0
0.893431 0.059534 0
0.864153 0.050449 0
0.836296 0.043113 0
0.810271 0.037161 0
0.786206 0.032297 0
0.764078 0.028291 0
0.743784 0.024965 0
0.725184 0.022180 0
0.708129 0.019830 0
0.692468 0.017833 0
0.678062 0.016123 0
0.664782 0.014651 0
0.652512 0.013374 0
0.641147 0.012262 0
0.630594 0.011287 0
0.620772 0.010428 0
0.611608 0.009669 0
0.603038 0.008995 0
0.595004 0.008393 0
0.587457 0.007855 0
0.580351 0.007371 0
0.573647 0.006934 0
0.567310 0.006539 0
0.561308 0.006181 0
0.555613 0.005854 0
0.550200 0.005556 0
0.545046 0.005284 0
0.540132 0.005033 0
0.535440 0.004802 0
0.530952 0.004589 0
0.526655 0.004391 0
0.522535 0.004208 0
0.518581 0.004038 0
0.514780 0.003879 0
0.511124 0.003730 0
0.507604 0.003591 0
0.504211 0.003460 0
0.500939 0.003337 0
0.497780 0.003221 0
0.494728 0.003111 0
0.491777 0.003007 0
0.488924 0.002908 0
0.486162 0.002814 0
0.483487 0.002725 0
0.480897 0.002639 0
0.478386 0.002557 0
0.475953 0.002479 0
0.473593 0.002403 0
0.471304 0.002330 0
0.469085 0.002260 0
0.466932 0.002191 0
0.464843 0.002125 0
0.462818 0.002061 0
0.460853 0.001998 0
0.458949 0.001936 0
0.457103 0.001876 0
0.455315 0.001816 0
0.453584 0.001758 0
0.451909 0.001700 0
0.450290 0.001642 0
0.448726 0.001584 0
0.447217 0.001527 0
0.445764 0.001469 0
0.444367 0.001410 0
0.443027 0.001351 0
0.441743 0.001290 0
0.440517 0.001229 0
0.439351 0.001165 0
0.438245 0.001100 0
0.437202 0.001031 0
0.436224 0.000960 0
0.435313 0.000886 0
0.434472 0.000808 0
0.433704 0.000725 0
0.433014 0.000637 0
0.432405 0.000543 0
0.431882 0.000442 0
0.431451 0.000333 0
0.431118 0.000214 0
0.430890 0.000083 0
0.430776 -0.000061 0
0.430789 -0.000214 0
0.430938 -0.000380 0
0.431232 -0.000561 0
0.431683 -0.000760 0
0.432305 -0.000978 0
0.433113 -0.001220 0
0.434126 -0.001489 0
0.435366 -0.001789 0
0.436859 -0.002126 0
0.438634 -0.002506 0
0.440726 -0.002938 0
0.443176 -0.003429 0
0.446033 -0.003993 0
0.449353 -0.004641 0
0.453204 -0.005392 0
0.457665 -0.006265 0
0.462832 -0.007286 0
0.468819 -0.008487 0
0.475760 -0.009909 0
0.483820 -0.011603 0
0.493199 -0.013637 0
0.504138 -0.016100 0
0.516936 -0.019113 0
0.531965 -0.022842 0
0.549688 -0.027518 0
0.570693 -0.033475 0
0.595725 -0.041204 0
0.625741 -0.051457 0
0.661957 -0.065414 0
0.705878 -0.085027 0
0.759216 -0.113478 0
0.823367 -0.157038 0
0.896894 -0.222191 0
0.972371 -0.338050 0
0.995573 -0.415391 0
0.995574 -0.207695 0
1.000000 0.000170 0
0.999869 0.000517 0
0.999604 0.000882 0
0.999195 0.001278 0
0.998628 0.001722 0
0.997884 0.002234 0
0.996936 0.002837 0
0.995748 0.003563 0
0.994274 0.004457 0
0.992454 0.005579 0
0.990209 0.007017 0
0.987441 0.008903 0
0.984022 0.011442 0
0.979806 0.014962 0
0.974637 0.020015 0
0.968468 0.027500 0
0.961560 0.039076 0
0.955831 0.056460 0
0.954477 0.083204 0
0.976672 0.108834 0
1.001711 0.118637 0
1.016359 0.114993 0
1.018678 0.104762 0
1.011393 0.092766 0
0.997799 0.081274 0
0.980477 0.071060 0
0.961203 0.062245 0
0.941145 0.054720 0
0.921054 0.048316 0
0.901401 0.042862 0
0.882468 0.038206 0
0.864413 0.034217 0
0.847308 0.030787 0
0.831173 0.027825 0
0.815995 0.025256 0
0.801736 0.023019 0
0.788351 0.021062 0
0.775785 0.019342 0
0.763982 0.017826 0
0.752889 0.016484 0
0.742450 0.015292 0
0.732617 0.014229 0
0.723342 0.013277 0
0.714582 0.012423 0
0.706295 0.011654 0
0.698445 0.010959 0
0.690998 0.010330 0
0.683924 0.009758 0
0.677193 0.009236 0
0.670781 0.008760 0
0.664665 0.008324 0
0.658822 0.007923 0
0.653233 0.007554 0
0.647882 0.007214 0
0.642751 0.006899 0
0.637827 0.006606 0
0.633096 0.006334 0
0.628546 0.006081 0
0.624165 0.005845 0
0.619944 0.005623 0
0.615873 0.005415 0
0.611944 0.005220 0
0.608149 0.005036 0
0.604480 0.004862 0
0.600932 0.004698 0
0.597499 0.004542 0
0.594174 0.004394 0
0.590953 0.004253 0
0.587832 0.004118 0
0.584805 0.003990 0
0.581869 0.003867 0
0.579021 0.003748 0
0.576258 0.003634 0
0.573575 0.003525 0
0.570972 0.003419 0
0.568444 0.003316 0
0.565991 0.003216 0
0.563610 0.003119 0
0.561299 0.003024 0
0.559057 0.002931 0
0.556883 0.002840 0
0.554775 0.002751 0
0.552733 0.002662 0
0.550756 0.002574 0
0.548843 0.002487 0
0.546994 0.002401 0
0.545209 0.002314 0
0.543488 0.002226 0
0.541832 0.002138 0
0.540240 0.002049 0
0.538714 0.001959 0
0.537255 0.001866 0
0.535864 0.001771 0
0.534543 0.001673 0
0.533294 0.001572 0
0.532118 0.001466 0
0.531018 0.001356 0
0.529998 0.001240 0
0.529061 0.001118 0
0.528211 0.000989 0
0.527452 0.000852 0
0.526788 0.000705 0
0.526226 0.000547 0
0.525772 0.000376 0
0.525433 0.000190 0
0.525213 -0.000015 0
0.525131 -0.000236 0
0.525196 -0.000473 0
0.525417 -0.000731 0
0.525807 -0.001012 0
0.526380 -0.001321 0
0.527151 -0.001661 0
0.528141 -0.002039 0
0.529370 -0.002460 0
0.530864 -0.002930 0
0.532653 -0.003461 0
0.534773 -0.004060 0
0.537265 -0.004742 0
0.540176 -0.005521 0
0.543563 -0.006416 0
0.547493 -0.007449 0
0.552044 -0.008646 0
0.557309 -0.010042 0
0.563398 -0.011677 0
0.570440 -0.013605 0
0.578591 -0.015890 0
0.588036 -0.018620 0
0.598999 -0.021905 0
0.611747 -0.025895 0
0.626608 -0.030789 0
0.643977 -0.036866 0
0.664339 -0.044515 0
0.688281 -0.054299 0
0.716505 -0.067049 0
0.749824 -0.084024 0
0.789082 -0.107193 0
0.834894 -0.139547 0
0.886940 -0.186350 0
0.941487 -0.251856 0
0.989809 -0.355557 0
0.996254 -0.421635 0
0.996254 -0.210817 0
1.000000 0.000201 0
0.999876 0.000611 0
0.999624 0.001041 0
0.999236 0.001508 0
0.998699 0.002031 0
0.997996 0.002631 0
0.997104 0.003338 0
0.995990 0.004186 0
0.994616 0.005226 0
0.992932 0.006524 0
0.990877 0.008175 0
0.988376 0.010321 0
0.985348 0.013171 0
0.981715 0.017050 0
0.977446 0.022466 0
0.972684 0.030190 0
0.967982 0.041413 0
0.965254 0.057176 0
0.967534 0.078318 0
0.984750 0.098336 0
1.007163 0.108467 0
1.025317 0.108729 0
1.035733 0.102959 0
1.038732 0.094612 0
1.035897 0.085715 0
1.028852 0.077210 0
1.018914 0.069446 0
1.007072 0.062505 0
0.994053 0.056357 0
0.980387 0.050934 0
0.966456 0.046157 0
0.952535 0.041947 0
0.938815 0.038234 0
0.925426 0.034954 0
0.912454 0.032051 0
0.899951 0.029475 0
0.887945 0.027185 0
0.876447 0.025144 0
0.865454 0.023320 0
0.854957 0.021687 0
0.844940 0.020219 0
0.835383 0.018898 0
0.826266 0.017706 0
0.817565 0.016627 0
0.809258 0.015649 0
0.801323 0.014759 0
0.793737 0.013948 0
0.786481 0.013207 0
0.779533 0.012528 0
0.772876 0.011906 0
0.766491 0.011333 0
0.760363 0.010805 0
0.754475 0.010317 0
0.748813 0.009865 0
0.743365 0.009445 0
0.738117 0.009055 0
0.733058 0.008691 0
0.728178 0.008351 0
0.723466 0.008033 0
0.718915 0.007735 0
0.714514 0.007455 0
0.710257 0.007191 0
0.706136 0.006942 0
0.702145 0.006706 0
0.698278 0.006483 0
0.694529 0.006271 0
0.690892 0.006070 0
0.687363 0.005878 0
0.683937 0.005695 0
0.680611 0.005519 0
0.677380 0.005351 0
0.674241 0.005189 0
0.671192 0.005033 0
0.668228 0.004883 0
0.665348 0.004738 0
0.662549 0.004597 0
0.659829 0.004460 0
0.657185 0.004327 0
0.654618 0.004197 0
0.652123 0.004069 0
0.649702 0.003944 0
0.647352 0.003821 0
0.645072 0.003699 0
0.642862 0.003578 0
0.640722 0.003459 0
0.638651 0.003339 0
0.636649 0.003220 0
0.634716 0.003100 0
0.632853 0.002979 0
0.631060 0.002856 0
0.629338 0.002732 0
0.627689 0.002605 0
0.626113 0.002475 0
0.624612 0.002341 0
0.623188 0.002203 0
0.621843 0.002059 0
0.620581 0.001910 0
0.619404 0.001753 0
0.618314 0.001588 0
0.617317 0.001414 0
0.616417 0.001230 0
0.615618 0.001034 0
0.614926 0.000824 0
0.614346 0.000597 0
0.613886 0.000353 0
0.613550 0.000085 0
0.613349 -0.000206 0
0.613301 -0.000519 0
0.613413 -0.000857 0
0.613699 -0.001225 0
0.614171 -0.001627 0
0.614846 -0.002070 0
0.615742 -0.002560 0
0.616881 -0.003104 0
0.618286 -0.003712 0
0.619988 -0.004394 0
0.622020 -0.005165 0
0.624420 -0.006039 0
0.627236 -0.007034 0
0.630521 -0.008175 0
0.634338 -0.009488 0
0.638761 -0.011006 0
0.643875 -0.012770 0
0.649783 -0.014829 0
0.656604 -0.017247 0
0.664478 -0.020102 0
0.673570 -0.023493 0
0.684075 -0.027552 0
0.696225 -0.032448 0