# vtk DataFile Version 2.0
generated by CFD-lab course output (written by Tobias Neckel) 
ASCII

DATASET STRUCTURED_GRID
DIMENSIONS  142 42 1 
POINTS 5964 float

0.000000 0.250000 0
0.024648 0.250000 0
0.049296 0.250000 0
0.073944 0.250000 0
0.098592 0.250000 0
0.123239 0.250000 0
0.147887 0.250000 0
0.172535 0.250000 0
0.197183 0.250000 0
0.221831 0.250000 0
0.246479 0.250000 0
0.271127 0.250000 0
0.295775 0.250000 0
0.320423 0.250000 0
0.345070 0.250000 0
0.369718 0.250000 0
0.394366 0.250000 0
0.419014 0.250000 0
0.443662 0.250000 0
0.468310 0.250000 0
0.492958 0.250000 0
0.517606 0.250000 0
0.542254 0.250000 0
0.566901 0.250000 0
0.591549 0.250000 0
0.616197 0.250000 0
0.640845 0.250000 0
0.665493 0.250000 0
0.690141 0.250000 0
0.714789 0.250000 0
0.739437 0.250000 0
0.764085 0.250000 0
0.788732 0.250000 0
0.813380 0.250000 0
0.838028 0.250000 0
0.862676 0.250000 0
0.887324 0.250000 0
0.911972 0.250000 0
0.936620 0.250000 0
0.961268 0.250000 0
0.985915 0.250000 0
1.010563 0.250000 0
1.035211 0.250000 0
1.059859 0.250000 0
1.084507 0.250000 0
1.109155 0.250000 0
1.133803 0.250000 0
1.158451 0.250000 0
1.183099 0.250000 0
1.207746 0.250000 0
1.232394 0.250000 0
1.257042 0.250000 0
1.281690 0.250000 0
1.306338 0.250000 0
1.330986 0.250000 0
1.355634 0.250000 0
1.380282 0.250000 0
1.404930 0.250000 0
1.429577 0.250000 0
1.454225 0.250000 0
1.478873 0.250000 0
1.503521 0.250000 0
1.528169 0.250000 0
1.552817 0.250000 0
1.577465 0.250000 0
1.602113 0.250000 0
1.626761 0.250000 0
1.651408 0.250000 0
1.676056 0.250000 0
1.700704 0.250000 0
1.725352 0.250000 0
1.750000 0.250000 0
1.774648 0.250000 0
1.799296 0.250000 0
1.823944 0.250000 0
1.848592 0.250000 0
1.873239 0.250000 0
1.897887 0.250000 0
1.922535 0.250000 0
1.947183 0.250000 0
1.971831 0.250000 0
1.996479 0.250000 0
2.021127 0.250000 0
2.045775 0.250000 0
2.070423 0.250000 0
2.095070 0.250000 0
2.119718 0.250000 0
2.144366 0.250000 0
2.169014 0.250000 0
2.193662 0.250000 0
2.218310 0.250000 0
2.242958 0.250000 0
2.267606 0.250000 0
2.292254 0.250000 0
2.316901 0.250000 0
2.341549 0.250000 0
2.366197 0.250000 0
2.390845 0.250000 0
2.415493 0.250000 0
2.440141 0.250000 0
2.464789 0.250000 0
2.489437 0.250000 0
2.514085 0.250000 0
2.538732 0.250000 0
2.563380 0.250000 0
2.588028 0.250000 0
2.612676 0.250000 0
2.637324 0.250000 0
2.661972 0.250000 0
2.686620 0.250000 0
2.711268 0.250000 0
2.735915 0.250000 0
2.760563 0.250000 0
2.785211 0.250000 0
2.809859 0.250000 0
2.834507 0.250000 0
2.859155 0.250000 0
2.883803 0.250000 0
2.908451 0.250000 0
2.933099 0.250000 0
2.957746 0.250000 0
2.982394 0.250000 0
3.007042 0.250000 0
3.031690 0.250000 0
3.056338 0.250000 0
3.080986 0.250000 0
3.105634 0.250000 0
3.130282 0.250000 0
3.154930 0.250000 0
3.179577 0.250000 0
3.204225 0.250000 0
3.228873 0.250000 0
3.253521 0.250000 0
3.278169 0.250000 0
3.302817 0.250000 0
3.327465 0.250000 0
3.352113 0.250000 0
3.376761 0.250000 0
3.401408 0.250000 0
3.426056 0.250000 0
3.450704 0.250000 0
3.475352 0.250000 0
0.000000 0.261905 0
0.024648 0.261905 0
0.049296 0.261905 0
0.073944 0.261905 0
0.098592 0.261905 0
0.123239 0.261905 0
0.147887 0.261905 0
0.172535 0.261905 0
0.197183 0.261905 0
0.221831 0.261905 0
0.246479 0.261905 0
0.271127 0.261905 0
0.295775 0.261905 0
0.320423 0.261905 0
0.345070 0.261905 0
0.369718 0.261905 0
0.394366 0.261905 0
0.419014 0.261905 0
0.443662 0.261905 0
0.468310 0.261905 0
0.492958 0.261905 0
0.517606 0.261905 0
0.542254 0.261905 0
0.566901 0.261905 0
0.591549 0.261905 0
0.616197 0.261905 0
0.640845 0.261905 0
0.665493 0.261905 0
0.690141 0.261905 0
0.714789 0.261905 0
0.739437 0.261905 0
0.764085 0.261905 0
0.788732 0.261905 0
0.813380 0.261905 0
0.838028 0.261905 0
0.862676 0.261905 0
0.887324 0.261905 0
0.911972 0.261905 0
0.936620 0.261905 0
0.961268 0.261905 0
0.985915 0.261905 0
1.010563 0.261905 0
1.035211 0.261905 0
1.059859 0.261905 0
1.084507 0.261905 0
1.109155 0.261905 0
1.133803 0.261905 0
1.158451 0.261905 0
1.183099 0.261905 0
1.207746 0.261905 0
1.232394 0.261905 0
1.257042 0.261905 0
1.281690 0.261905 0
1.306338 0.261905 0
1.330986 0.261905 0
1.355634 0.261905 0
1.380282 0.261905 0
1.404930 0.261905 0
1.429577 0.261905 0
1.454225 0.261905 0
1.478873 0.261905 0
1.503521 0.261905 0
1.528169 0.261905 0
1.552817 0.261905 0
1.577465 0.261905 0
1.602113 0.261905 0
1.626761 0.261905 0
1.651408 0.261905 0
1.676056 0.261905 0
1.700704 0.261905 0
1.725352 0.261905 0
1.750000 0.261905 0
1.774648 0.261905 0
1.799296 0.261905 0
1.823944 0.261905 0
1.848592 0.261905 0
1.873239 0.261905 0
1.897887 0.261905 0
1.922535 0.261905 0
1.947183 0.261905 0
1.971831 0.261905 0
1.996479 0.261905 0
2.021127 0.261905 0
2.045775 0.261905 0
2.070423 0.261905 0
2.095070 0.261905 0
2.119718 0.261905 0
2.144366 0.261905 0
2.169014 0.261905 0
2.193662 0.261905 0
2.218310 0.261905 0
2.242958 0.261905 0
2.267606 0.261905 0
2.292254 0.261905 0
2.316901 0.261905 0
2.341549 0.261905 0
2.366197 0.261905 0
2.390845 0.261905 0
2.415493 0.261905 0
2.440141 0.261905 0
2.464789 0.261905 0
2.489437 0.261905 0
2.514085 0.261905 0
2.538732 0.261905 0
2.563380 0.261905 0
2.588028 0.261905 0
2.612676 0.261905 0
2.637324 0.261905 0
2.661972 0.261905 0
2.686620 0.261905 0
2.711268 0.261905 0
2.735915 0.261905 0
2.760563 0.261905 0
2.785211 0.261905 0
2.809859 0.261905 0
2.834507 0.261905 0
2.859155 0.261905 0
2.883803 0.261905 0
2.908451 0.261905 0
2.933099 0.261905 0
2.957746 0.261905 0
2.982394 0.261905 0
3.007042 0.261905 0
3.031690 0.261905 0
3.056338 0.261905 0
3.080986 0.261905 0
3.105634 0.261905 0
3.130282 0.261905 0
3.154930 0.261905 0
3.179577 0.261905 0
3.204225 0.261905 0
3.228873 0.261905 0
3.253521 0.261905 0
3.278169 0.261905 0
3.302817 0.261905 0
3.327465 0.261905 0
3.352113 0.261905 0
3.376761 0.261905 0
3.401408 0.261905 0
3.426056 0.261905 0
3.450704 0.261905 0
3.475352 0.261905 0
0.000000 0.273810 0
0.024648 0.273810 0
0.049296 0.273810 0
0.073944 0.273810 0
0.098592 0.273810 0
0.123239 0.273810 0
0.147887 0.273810 0
0.172535 0.273810 0
0.197183 0.273810 0
0.221831 0.273810 0
0.246479 0.273810 0
0.271127 0.273810 0
0.295775 0.273810 0
0.320423 0.273810 0
0.345070 0.273810 0
0.369718 0.273810 0
0.394366 0.273810 0
0.419014 0.273810 0
0.443662 0.273810 0
0.468310 0.273810 0
0.492958 0.273810 0
0.517606 0.273810 0
0.542254 0.273810 0
0.566901 0.273810 0
0.591549 0.273810 0
0.616197 0.273810 0
0.640845 0.273810 0
0.665493 0.273810 0
0.690141 0.273810 0
0.714789 0.273810 0
0.739437 0.273810 0
0.764085 0.273810 0
0.788732 0.273810 0
0.813380 0.273810 0
0.838028 0.273810 0
0.862676 0.273810 0
0.887324 0.273810 0
0.911972 0.273810 0
0.936620 0.273810 0
0.961268 0.273810 0
0.985915 0.273810 0
1.010563 0.273810 0
1.035211 0.273810 0
1.059859 0.273810 0
1.084507 0.273810 0
1.109155 0.273810 0
1.133803 0.273810 0
1.158451 0.273810 0
1.183099 0.273810 0
1.207746 0.273810 0
1.232394 0.273810 0
1.257042 0.273810 0
1.281690 0.273810 0
1.306338 0.273810 0
1.330986 0.273810 0
1.355634 0.273810 0
1.380282 0.273810 0
1.404930 0.273810 0
1.429577 0.273810 0
1.454225 0.273810 0
1.478873 0.273810 0
1.503521 0.273810 0
1.528169 0.273810 0
1.552817 0.273810 0
1.577465 0.273810 0
1.602113 0.273810 0
1.626761 0.273810 0
1.651408 0.273810 0
1.676056 0.273810 0
1.700704 0.273810 0
1.725352 0.273810 0
1.750000 0.273810 0
1.774648 0.273810 0
1.799296 0.273810 0
1.823944 0.273810 0
1.848592 0.273810 0
1.873239 0.273810 0
1.897887 0.273810 0
1.922535 0.273810 0
1.947183 0.273810 0
1.971831 0.273810 0
1.996479 0.273810 0
2.021127 0.273810 0
2.045775 0.273810 0
2.070423 0.273810 0
2.095070 0.273810 0
2.119718 0.273810 0
2.144366 0.273810 0
2.169014 0.273810 0
2.193662 0.273810 0
2.218310 0.273810 0
2.242958 0.273810 0
2.267606 0.273810 0
2.292254 0.273810 0
2.316901 0.273810 0
2.341549 0.273810 0
2.366197 0.273810 0
2.390845 0.273810 0
2.415493 0.273810 0
2.440141 0.273810 0
2.464789 0.273810 0
2.489437 0.273810 0
2.514085 0.273810 0
2.538732 0.273810 0
2.563380 0.273810 0
2.588028 0.273810 0
2.612676 0.273810 0
2.637324 0.273810 0
2.661972 0.273810 0
2.686620 0.273810 0
2.711268 0.273810 0
2.735915 0.273810 0
2.760563 0.273810 0
2.785211 0.273810 0
2.809859 0.273810 0
2.834507 0.273810 0
2.859155 0.273810 0
2.883803 0.273810 0
2.908451 0.273810 0
2.933099 0.273810 0
2.957746 0.273810 0
2.982394 0.273810 0
3.007042 0.273810 0
3.031690 0.273810 0
3.056338 0.273810 0
3.080986 0.273810 0
3.105634 0.273810 0
3.130282 0.273810 0
3.154930 0.273810 0
3.179577 0.273810 0
3.204225 0.273810 0
3.228873 0.273810 0
3.253521 0.273810 0
3.278169 0.273810 0
3.302817 0.273810 0
3.327465 0.273810 0
3.352113 0.273810 0
3.376761 0.273810 0
3.401408 0.273810 0
3.426056 0.273810 0
3.450704 0.273810 0
3.475352 0.273810 0
0.000000 0.285714 0
0.024648 0.285714 0
0.049296 0.285714 0
0.073944 0.285714 0
0.098592 0.285714 0
0.123239 0.285714 0
0.147887 0.285714 0
0.172535 0.285714 0
0.197183 0.285714 0
0.221831 0.285714 0
0.246479 0.285714 0
0.271127 0.285714 0
0.295775 0.285714 0
0.320423 0.285714 0
0.345070 0.285714 0
0.369718 0.285714 0
0.394366 0.285714 0
0.419014 0.285714 0
0.443662 0.285714 0
0.468310 0.285714 0
0.492958 0.285714 0
0.517606 0.285714 0
0.542254 0.285714 0
0.566901 0.285714 0
0.591549 0.285714 0
0.616197 0.285714 0
0.640845 0.285714 0
0.665493 0.285714 0
0.690141 0.285714 0
0.714789 0.285714 0
0.739437 0.285714 0
0.764085 0.285714 0
0.788732 0.285714 0
0.813380 0.285714 0
0.838028 0.285714 0
0.862676 0.285714 0
0.887324 0.285714 0
0.911972 0.285714 0
0.936620 0.285714 0
0.961268 0.285714 0
0.985915 0.285714 0
1.010563 0.285714 0
1.035211 0.285714 0
1.059859 0.285714 0
1.084507 0.285714 0
1.109155 0.285714 0
1.133803 0.285714 0
1.158451 0.285714 0
1.183099 0.285714 0
1.207746 0.285714 0
1.232394 0.285714 0
1.257042 0.285714 0
1.281690 0.285714 0
1.306338 0.285714 0
1.330986 0.285714 0
1.355634 0.285714 0
1.380282 0.285714 0
1.404930 0.285714 0
1.429577 0.285714 0
1.454225 0.285714 0
1.478873 0.285714 0
1.503521 0.285714 0
1.528169 0.285714 0
1.552817 0.285714 0
1.577465 0.285714 0
[...]
POINT_DATA 5964 

VECTORS velocity float
1.000000 0.000000 0
0.999854 0.000000 0
0.999556 0.000000 0
0.999097 0.000000 0
0.998458 0.000000 0
0.997615 0.000000 0
0.996532 0.000000 0
0.995162 0.000000 0
0.993440 0.000000 0
0.991276 0.000000 0
0.988544 0.000000 0
0.985063 0.000000 0
0.980562 0.000000 0
0.974615 0.000000 0
0.966518 0.000000 0
0.954935 0.000000 0
0.937385 0.000000 0
0.905762 0.000000 0
0.847696 0.000000 0
-0.000000 0.000000 0
-0.000000 0.000000 0
-0.000000 0.000000 0
-0.000000 0.000000 0
-0.000000 0.000000 0
-0.000000 0.000000 0
-0.000000 0.000000 0
-0.000000 0.000000 0
-0.000000 0.000000 0
-0.000000 0.000000 0
-0.000000 0.000000 0
-0.000000 0.000000 0
-0.000000 0.000000 0
-0.000000 0.000000 0
-0.000000 0.000000 0
-0.000000 0.000000 0
-0.000000 0.000000 0
-0.000000 0.000000 0
-0.000000 0.000000 0
-0.000000 0.000000 0
-0.000000 0.000000 0
-0.000000 0.000000 0
-0.000000 0.000000 0
-0.000000 0.000000 0
-0.000000 0.000000 0
-0.000000 0.000000 0
-0.000000 0.000000 0
-0.000000 0.000000 0
-0.000000 0.000000 0
-0.000000 0.000000 0
-0.000000 0.000000 0
-0.000000 0.000000 0
-0.000000 0.000000 0
-0.000000 0.000000 0
-0.000000 0.000000 0
-0.000000 0.000000 0
-0.000000 0.000000 0
-0.000000 0.000000 0
-0.000000 0.000000 0
-0.000000 0.000000 0
-0.000000 0.000000 0
-0.000000 0.000000 0
-0.000000 0.000000 0
-0.000000 0.000000 0
-0.000000 0.000000 0
-0.000000 0.000000 0
-0.000000 0.000000 0
-0.000000 0.000000 0
-0.000000 0.000000 0
-0.000000 0.000000 0
-0.000000 0.000000 0
-0.000000 0.000000 0
-0.000000 0.000000 0
-0.000000 0.000000 0
-0.000000 0.000000 0
-0.000000 0.000000 0
-0.000000 0.000000 0
-0.000000 0.000000 0
-0.000000 0.000000 0
-0.000000 0.000000 0
-0.000000 0.000000 0
-0.000000 0.000000 0
-0.000000 0.000000 0
-0.000000 0.000000 0
-0.000000 0.000000 0
-0.000000 0.000000 0
-0.000001 0.000000 0
-0.000001 0.000000 0
-0.000001 0.000000 0
-0.000001 0.000000 0
-0.000001 0.000000 0
-0.000001 0.000000 0
-0.000001 0.000000 0
-0.000001 0.000000 0
-0.000001 0.000000 0
-0.000001 0.000000 0
-0.000001 0.000000 0
-0.000001 0.000000 0
-0.000001 0.000000 0
-0.000001 0.000000 0
-0.000001 0.000000 0
-0.000001 0.000000 0
-0.000001 0.000000 0
-0.000001 0.000000 0
-0.000001 0.000000 0
-0.000001 0.000000 0
-0.000001 0.000000 0
-0.000001 0.000000 0
-0.000001 0.000000 0
-0.000001 0.000000 0
-0.000001 0.000000 0
-0.000001 0.000000 0
-0.000001 0.000000 0
-0.000001 0.000000 0
-0.000001 0.000000 0
-0.000001 0.000000 0
-0.000001 0.000000 0
-0.000001 0.000000 0
-0.000001 0.000000 0
-0.000001 0.000000 0
-0.000001 0.000000 0
-0.000001 0.000000 0
-0.000001 0.000000 0
-0.000001 0.000000 0
-0.000001 0.000000 0
-0.000001 0.000000 0
-0.000001 0.000000 0
-0.000001 0.000000 0
-0.000001 0.000000 0
-0.000001 0.000000 0
-0.000001 0.000000 0
-0.000001 0.000000 0
-0.000001 0.000000 0
-0.000001 0.000000 0
-0.000001 0.000000 0
-0.000001 0.000000 0
-0.000001 0.000000 0
-0.000000 0.000000 0
-0.000000 0.000000 0
0.000000 0.000000 0
0.000000 0.000000 0
-0.000000 0.000000 0
0.496600 0.000000 0
1.000000 0.000035 0
0.999854 0.000107 0
0.999558 0.000183 0
0.999101 0.000265 0
0.998465 0.000358 0
0.997626 0.000465 0
0.996549 0.000592 0
0.995187 0.000747 0
0.993475 0.000939 0
0.991325 0.001182 0
0.988615 0.001500 0
0.985165 0.001928 0
0.980714 0.002523 0
0.974851 0.003392 0
0.966904 0.004753 0
0.955643 0.007035 0
0.938827 0.011875 0
0.910182 0.021660 0
0.860877 0.078853 0
0.714890 0.110956 0
0.576507 0.072745 0
0.473021 0.041074 0
0.401070 0.022638 0
0.351168 0.013308 0
0.315506 0.008679 0
0.289001 0.006202 0
0.268563 0.004717 0
0.252303 0.003739 0
0.239038 0.003050 0
0.227992 0.002542 0
0.218639 0.002156 0
0.210607 0.001854 0
0.203627 0.001614 0
0.197501 0.001420 0
0.192077 0.001260 0
0.187236 0.001126 0
0.182885 0.001014 0
0.178952 0.000918 0
0.175377 0.000837 0
0.172109 0.000766 0
0.169109 0.000705 0
0.166343 0.000651 0
0.163783 0.000603 0
0.161405 0.000562 0
0.159188 0.000524 0
0.157116 0.000491 0
0.155172 0.000461 0
0.153345 0.000435 0
0.151623 0.000410 0
0.149997 0.000388 0
0.148457 0.000368 0
0.146996 0.000350 0
0.145608 0.000333 0
0.144287 0.000317 0
0.143028 0.000303 0
0.141826 0.000289 0
0.140678 0.000277 0
0.139579 0.000265 0
0.138526 0.000254 0
0.137517 0.000244 0
0.136549 0.000235 0
0.135620 0.000226 0
0.134727 0.000217 0
0.133870 0.000209 0
0.133045 0.000201 0
0.132253 0.000193 0
0.131490 0.000186 0
0.130757 0.000179 0
0.130053 0.000173 0
0.129375 0.000166 0
0.128725 0.000160 0
0.128100 0.000154 0
0.127500 0.000148 0
0.126925 0.000142 0
0.126375 0.000136 0
0.125849 0.000130 0
0.125346 0.000125 0
0.124868 0.000119 0
0.124413 0.000113 0
0.123983 0.000108 0
0.123576 0.000102 0
0.123194 0.000096 0
0.122837 0.000090 0
0.122506 0.000084 0
0.122200 0.000077 0
0.121920 0.000071 0
0.121667 0.000064 0
0.121441 0.000057 0
0.121243 0.000050 0
0.121072 0.000043 0
0.120929 0.000036 0
0.120814 0.000029 0
0.120727 0.000022 0
0.120667 0.000014 0
0.120634 0.000007 0
0.120629 -0.000000 0
0.120648 -0.000007 0
0.120691 -0.000013 0
0.120757 -0.000020 0
0.120846 -0.000026 0
0.120957 -0.000033 0
0.121090 -0.000039 0
0.121246 -0.000046 0
0.121426 -0.000053 0
0.121630 -0.000060 0
0.121863 -0.000068 0
0.122125 -0.000077 0
0.122420 -0.000087 0
0.122753 -0.000099 0
0.123129 -0.000112 0
0.123555 -0.000127 0
0.124037 -0.000144 0
0.124584 -0.000164 0
0.125207 -0.000187 0
0.125918 -0.000214 0
0.126730 -0.000245 0
0.127661 -0.000281 0
0.128730 -0.000324 0
0.129960 -0.000373 0
0.131378 -0.000431 0
0.133017 -0.000500 0
0.134916 -0.000581 0
0.137122 -0.000678 0
0.139692 -0.000794 0
0.142696 -0.000933 0
0.146222 -0.001102 0
0.150379 -0.001309 0
0.155309 -0.001566 0
0.161193 -0.001889 0
0.168272 -0.002302 0
0.176869 -0.002840 0
0.187434 -0.003560 0
0.200607 -0.004549 0
0.217328 -0.005962 0
0.239047 -0.008075 0
0.268099 -0.011441 0
0.308532 -0.017229 0
0.367659 -0.028874 0
0.462243 -0.051274 0
0.617946 -0.167147 0
0.993511 -0.268565 0
0.993511 -0.134283 0
1.000000 0.000070 0
0.999856 0.000213 0
0.999564 0.000364 0
0.999113 0.000528 0
0.998486 0.000712 0
0.997659 0.000926 0
0.996599 0.001178 0
0.995259 0.001485 0
0.993579 0.001865 0
0.991473 0.002347 0
0.988825 0.002975 0
0.985469 0.003816 0
0.981164 0.004982 0
0.975542 0.006670 0
0.968026 0.009277 0
0.957650 0.013561 0
0.942787 0.021957 0
0.920697 0.037649 0
0.888373 0.094325 0
0.891002 0.137349 0
0.842153 0.116821 0
0.771623 0.084735 0
0.701229 0.058854 0
0.639928 0.041327 0
0.589267 0.030026 0
0.547935 0.022673 0
0.514054 0.017725 0
0.485969 0.014260 0
0.462388 0.011742 0
0.442343 0.009853 0
0.425108 0.008397 0
0.410134 0.007250 0
0.397005 0.006330 0
0.385397 0.005579 0
0.375060 0.004958 0
0.365791 0.004439 0
0.357430 0.004001 0
0.349848 0.003627 0
0.342935 0.003305 0
0.336606 0.003027 0
0.330785 0.002785 0
0.325410 0.002572 0
0.320430 0.002385 0
0.315800 0.002219 0
0.311481 0.002072 0
0.307441 0.001940 0
0.303652 0.001821 0
0.300088 0.001714 0
0.296730 0.001617 0
0.293557 0.001529 0
0.290553 0.001449 0
0.287705 0.001376 0
0.285000 0.001308 0
0.282425 0.001246 0
0.279972 0.001189 0
0.277631 0.001135 0
0.275395 0.001086 0
0.273256 0.001039 0
0.271209 0.000996 0
0.269247 0.000955 0
0.267367 0.000916 0
0.265562 0.000880 0
0.263830 0.000845 0
0.262167 0.000812 0
0.260569 0.000781 0
0.259034 0.000751 0
0.257560 0.000722 0
0.256143 0.000694 0
0.254783 0.000667 0
0.253476 0.000641 0
0.252223 0.000616 0
0.251021 0.000591 0
0.249869 0.000567 0
0.248767 0.000543 0
0.247713 0.000520 0
0.246708 0.000497 0
0.245751 0.000474 0
0.244841 0.000451 0
0.243980 0.000428 0
0.243166 0.000404 0
0.242400 0.000381 0
0.241683 0.000357 0
0.241015 0.000333 0
0.240397 0.000308 0
0.239829 0.000283 0
0.239313 0.000257 0
0.238847 0.000231 0
0.238434 0.000205 0
0.238073 0.000178 0
0.237763 0.000152 0
0.237505 0.000125 0
0.237299 0.000098 0
0.237143 0.000071 0
0.237037 0.000045 0
0.236979 0.000018 0
0.236970 -0.000007 0
0.237005 -0.000030 0
0.237082 -0.000053 0
0.237199 -0.000075 0
0.237355 -0.000096 0
0.237548 -0.000118 0
0.237780 -0.000140 0
0.238050 -0.000162 0
0.238360 -0.000186 0
0.238712 -0.000211 0
0.239111 -0.000239 0
0.239559 -0.000269 0
0.240064 -0.000304 0
0.240632 -0.000343 0
0.241273 -0.000387 0
0.241997 -0.000438 0
0.242815 -0.000497 0
0.243744 -0.000565 0
0.244800 -0.000644 0
0.246004 -0.000736 0
0.247378 -0.000842 0
0.248951 -0.000966 0
0.250755 -0.001110 0
0.252828 -0.001279 0
0.255214 -0.001477 0
0.257966 -0.001709 0
0.261148 -0.001982 0
0.264834 -0.002306 0
0.269116 -0.002692 0
0.274106 -0.003154 0
0.279938 -0.003711 0
0.286784 -0.004389 0
0.294855 -0.005223 0
0.304424 -0.006261 0
0.315845 -0.007571 0
0.329581 -0.009255 0
0.346261 -0.011465 0
0.366749 -0.014438 0
0.392272 -0.018566 0
0.424618 -0.024522 0
0.466486 -0.033561 0
0.522115 -0.048087 0
0.598140 -0.074241 0
0.705876 -0.120887 0
0.859863 -0.256599 0
0.994230 -0.362791 0
0.994230 -0.181396 0
1.000000 0.000105 0
0.999859 0.000318 0
0.999574 0.000542 0
0.999133 0.000786 0
0.998521 0.001060 0
0.997714 0.001377 0
0.996681 0.001751 0
0.995379 0.002205 0
0.993750 0.002767 0
0.991715 0.003478 0
0.989169 0.004400 0
0.985963 0.005628 0
0.981888 0.007318 0
0.976643 0.009737 0
0.969784 0.013394 0
0.960675 0.019226 0
0.948432 0.029723 0
0.933030 0.047941 0
0.915089 0.093195 0
0.945334 0.133280 0
0.948630 0.130404 0
0.922944 0.109140 0
0.881988 0.086246 0
0.836598 0.067385 0
0.792550 0.053111 0
0.752220 0.042529 0
0.716239 0.034647 0
0.684474 0.028693 0
0.656508 0.024120 0
0.631854 0.020548 0
0.610048 0.017713 0
0.590677 0.015428 0
0.573385 0.013562 0
0.557874 0.012019 0
0.543895 0.010729 0
0.531236 0.009641 0
0.519724 0.008714 0
0.509209 0.007919 0
0.499567 0.007232 0
0.490693 0.006635 0
0.482498 0.006112 0
0.474903 0.005652 0
0.467843 0.005245 0
0.461261 0.004884 0
0.455107 0.004562 0
0.449340 0.004273 0
0.443921 0.004013 0
0.438817 0.003778 0
0.434001 0.003565 0
0.429447 0.003371 0
0.425131 0.003194 0
0.421036 0.003032 0
0.417143 0.002883 0
0.413437 0.002746 0
0.409904 0.002618 0
0.406532 0.002500 0
0.403309 0.002390 0
0.400227 0.002287 0
0.397275 0.002191 0
0.394447 0.002100 0
0.391736 0.002015 0
0.389134 0.001934 0
0.386637 0.001857 0
0.384240 0.001784 0
0.381937 0.001714 0
0.379725 0.001647 0
0.377601 0.001583 0
0.375561 0.001521 0
0.373602 0.001461 0
0.371722 0.001402 0
0.369920 0.001346 0
0.368192 0.001291 0
0.366538 0.001236 0
0.364956 0.001183 0
0.363445 0.001130 0
0.362005 0.001078 0
0.360635 0.001026 0
0.359335 0.000975 0
0.358105 0.000923 0
0.356944 0.000871 0
0.355854 0.000818 0
0.354834 0.000765 0
0.353886 0.000711 0
0.353009 0.000656 0
0.352204 0.000601 0
0.351473 0.000545 0
0.350814 0.000489 0
0.350228 0.000432 0
0.349715 0.000375 0
0.349275 0.000317 0
0.348906 0.000260 0
0.348608 0.000204 0
0.348378 0.000148 0
0.348216 0.000093 0
0.348119 0.000039 0
0.348086 -0.000013 0
0.348114 -0.000061 0
0.348199 -0.000107 0
0.348338 -0.000152 0
0.348528 -0.000195 0
0.348768 -0.000238 0
0.349057 -0.000281 0
0.349396 -0.000326 0
0.349786 -0.000373 0
0.350230 -0.000423 0
0.350733 -0.000477 0
0.351299 -0.000538 0
0.351936 -0.000606 0
0.352653 -0.000683 0
0.353460 -0.000771 0
0.354372 -0.000872 0
0.355402 -0.000988 0
0.356569 -0.001123 0
0.357896 -0.001278 0
0.359405 -0.001459 0
0.361127 -0.001669 0
0.363095 -0.001912 0
0.365349 -0.002196 0
0.367934 -0.002527 0
0.370905 -0.002913 0
0.374325 -0.003366 0
0.378269 -0.003899 0
0.382827 -0.004527 0
0.388106 -0.005272 0
0.394235 -0.006160 0
0.401370 -0.007225 0
0.409704 -0.008513 0
0.419474 -0.010086 0
0.430978 -0.012027 0
0.444595 -0.014452 0
0.460812 -0.017531 0
0.480267 -0.021512 0
0.503807 -0.026772 0
0.532580 -0.033912 0
0.568164 -0.043919 0
0.612747 -0.058531 0
0.669359 -0.080817 0
0.741854 -0.117629 0
0.833629 -0.177685 0
0.944022 -0.306420 0
0.995039 -0.398361 0
0.995039 -0.199180 0
1.000000 0.000138 0
0.999864 0.000419 0
0.999587 0.000715 0
0.999160 0.001037 0
0.998568 0.001398 0
0.997790 0.001814 0
0.996794 0.002306 0
0.995543 0.002901 0
0.993983 0.003635 0
0.992045 0.004560 0
0.989635 0.005754 0
0.986628 0.007332 0
0.982855 0.009483 0
0.978090 0.012517 0
0.972037 0.016990 0
0.964384 0.023874 0
0.954908 0.035309 0
0.945021 0.053754 0
0.937271 0.088383 0
0.965710 0.121148 0
0.987888 0.127635 0
0.990076 0.116922 0
0.975773 0.100559 0
0.951745 0.084525 0
0.923229 0.070780 0
0.893442 0.059531 0
0.864166 0.050446 0
0.836312 0.043110 0
0.810290 0.037157 0
0.786229 0.032293 0
0.764105 0.028286 0
0.743816 0.024959 0
0.725221 0.022173 0
0.708172 0.019822 0
0.692518 0.017824 0
0.678120 0.016114 0
0.664849 0.014640 0
0.652589 0.013362 0
0.641235 0.012248 0
0.630695 0.011272 0
0.620887 0.010412 0
0.611738 0.009651 0
0.603186 0.008974 0
0.595171 0.008370 0
0.587646 0.007829 0
0.580564 0.007343 0
0.573887 0.006903 0
0.567579 0.006505 0
0.561609 0.006143 0
0.555951 0.005813 0
0.550578 0.005511 0
0.545468 0.005234 0
0.540603 0.004979 0
0.535963 0.004743 0
0.531534 0.004524 0
0.527302 0.004321 0
0.523252 0.004131 0
0.519374 0.003954 0
0.515658 0.003787 0
0.512095 0.003630 0
0.508675 0.003483 0
0.505392 0.003342 0
0.502238 0.003209 0
0.499209 0.003083 0
0.496298 0.002961 0
0.493500 0.002845 0
0.490812 0.002734 0
0.488230 0.002626 0
0.485750 0.002521 0
0.483369 0.002420 0
0.481085 0.002321 0
0.478896 0.002225 0
0.476800 0.002130 0
0.474795 0.002037 0
0.472880 0.001945 0
0.471054 0.001854 0
0.469318 0.001763 0
0.467669 0.001673 0
0.466109 0.001582 0
0.464637 0.001491 0
0.463254 0.001400 0
0.461959 0.001307 0
0.460754 0.001214 0
0.459639 0.001120 0
0.458613 0.001025 0
0.457678 0.000929 0
0.456834 0.000832 0
0.456079 0.000735 0
0.455414 0.000639 0
0.454838 0.000542 0
0.454350 0.000447 0
0.453946 0.000353 0
0.453626 0.000260 0
0.453388 0.000170 0
0.453227 0.000081 0
0.453141 -0.000004 0
0.453130 -0.000085 0
0.453189 -0.000161 0
0.453313 -0.000233 0
0.453499 -0.000304 0
0.453745 -0.000373 0
0.454050 -0.000443 0
0.454413 -0.000514 0
0.454836 -0.000589 0
0.455322 -0.000668 0
0.455874 -0.000755 0
0.456498 -0.000851 0
0.457203 -0.000958 0
0.457996 -0.001079 0
0.458890 -0.001217 0
0.459900 -0.001376 0
0.461040 -0.001559 0
0.462333 -0.001770 0
0.463799 -0.002014 0
0.465466 -0.002296 0
0.467366 -0.002624 0
0.469535 -0.003005 0
0.472015 -0.003447 0
0.474855 -0.003963 0
0.478114 -0.004563 0
0.481857 -0.005266 0
0.486165 -0.006089 0
0.491130 -0.007058 0
0.496863 -0.008202 0
0.503496 -0.009560 0
0.511188 -0.011182 0
0.520130 -0.013133 0
0.530555 -0.015498 0
0.542750 -0.018394 0
0.557073 -0.021981 0
0.573969 -0.026485 0
0.594006 -0.032231 0
0.617904 -0.039705 0
0.646592 -0.049650 0
0.681253 -0.063242 0
0.723356 -0.082437 0
0.774564 -0.110444 0
0.836212 -0.153583 0
0.906708 -0.218533 0
0.978463 -0.334559 0
0.995810 -0.412072 0
0.995810 -0.206036 0
1.000000 0.000170 0
0.999869 0.000517 0
0.999604 0.000882 0
0.999195 0.001278 0
0.998628 0.001722 0
0.997884 0.002233 0
0.996936 0.002836 0
0.995748 0.003563 0
0.994274 0.004457 0
0.992454 0.005579 0
0.990210 0.007017 0
0.987441 0.008903 0
0.984023 0.011442 0
0.979806 0.014962 0
0.974638 0.020014 0
0.968469 0.027500 0
0.961562 0.039075 0
0.955833 0.056460 0
0.954479 0.083203 0
0.976674 0.108833 0
1.001714 0.118635 0
1.016363 0.114991 0
1.018683 0.104760 0
1.011399 0.092764 0
0.997807 0.081271 0
0.980486 0.071056 0
0.961214 0.062240 0
0.941159 0.054715 0
0.921072 0.048310 0
0.901422 0.042855 0
0.882494 0.038198 0
0.864443 0.034209 0
0.847343 0.030778 0
0.831215 0.027814 0
0.816044 0.025244 0
0.801794 0.023005 0
0.788417 0.021046 0
0.775862 0.019325 0
0.764071 0.017807 0
0.752990 0.016463 0
0.742567 0.015268 0
0.732751 0.014202 0
0.723494 0.013247 0
0.714755 0.012390 0
0.706491 0.011617 0
0.698667 0.010918 0
0.691249 0.010284 0
0.684207 0.009708 0
0.677513 0.009181 0
0.671140 0.008700 0
0.665067 0.008257 0
0.659273 0.007850 0
0.653738 0.007474 0
0.648446 0.007125 0
0.643380 0.006802 0
0.638527 0.006500 0
0.633875 0.006219 0
0.629411 0.005955 0
0.625124 0.005707 0
0.621007 0.005473 0
0.617049 0.005252 0
0.613244 0.005042 0
0.609583 0.004843 0
0.606062 0.004653 0
0.602674 0.004471 0
0.599415 0.004296 0
0.596279 0.004128 0
0.593263 0.003966 0
0.590364 0.003808 0
0.587578 0.003655 0
0.584903 0.003506 0
0.582336 0.003360 0
0.579876 0.003217 0
0.577521 0.003076 0
0.575269 0.002937 0
0.573120 0.002799 0
0.571074 0.002661 0
0.569129 0.002524 0
0.567287 0.002387 0
0.565545 0.002250 0
0.563906 0.002111 0
0.562369 0.001972 0
0.560934 0.001832 0
0.559602 0.001690 0
0.558373 0.001548 0
0.557246 0.001405 0
0.556223 0.001261 0
0.555302 0.001117 0
0.554483 0.000974 0
0.553764 0.000832 0
0.553144 0.000691 0
0.552621 0.000553 0
0.552192 0.000418 0
0.551854 0.000286 0
0.551603 0.000158 0
0.551436 0.000034 0
0.551351 -0.000084 0
0.551348 -0.000196 0
0.551421 -0.000302 0
0.551565 -0.000404 0
0.551778 -0.000504 0
0.552057 -0.000604 0
0.552403 -0.000706 0
0.552816 -0.000812 0
0.553297 -0.000924 0
0.553851 -0.001046 0
0.554483 -0.001180 0
0.555200 -0.001329 0
0.556012 -0.001498 0
0.556929 -0.001690 0
0.557966 -0.001910 0
0.559139 -0.002163 0
0.560468 -0.002455 0
0.561975 -0.002792 0
0.563689 -0.003182 0
0.565640 -0.003634 0
0.567865 -0.004157 0
0.570406 -0.004766 0
0.573312 -0.005472 0
0.576640 -0.006295 0
0.580456 -0.007255 0
0.584838 -0.008377 0
0.589877 -0.009694 0
0.595679 -0.011245 0
0.602369 -0.013078 0
0.610099 -0.015259 0
0.619044 -0.017867 0
0.629420 -0.021012 0
0.641482 -0.024835 0
0.655544 -0.029531 0
0.671984 -0.035369 0
0.691266 -0.042732 0
0.713951 -0.052171 0
0.740715 -0.064509 0
0.772332 -0.080996 0
0.809598 -0.103600 0
0.853057 -0.135326 0
0.902283 -0.181453 0
0.953310 -0.246391 0
0.997109 -0.349456 0
0.996511 -0.415117 0
0.996512 -0.207558 0
1.000000 0.000201 0
0.999876 0.000611 0
0.999624 0.001041 0
0.999236 0.001508 0
0.998699 0.002031 0
0.997997 0.002631 0
0.997104 0.003338 0
0.995990 0.004186 0
0.994617 0.005226 0
0.992933 0.006523 0
0.990877 0.008175 0
0.988376 0.010320 0
0.985348 0.013171 0
0.981715 0.017049 0
0.977447 0.022466 0
0.972685 0.030190 0
0.967983 0.041412 0
0.965256 0.057175 0
0.967536 0.078317 0
0.984752 0.098334 0
1.007166 0.108465 0
1.025321 0.108727 0
1.035737 0.102956 0
1.038737 0.094608 0
1.035903 0.085711 0
1.028861 0.077205 0
1.018924 0.069440 0
1.007085 0.062498 0
0.994068 0.056350 0
0.980405 0.050926 0
0.966478 0.046147 0
0.952562 0.041936 0
0.938847 0.038222 0
0.925464 0.034940 0
0.912499 0.032035 0
0.900004 0.029457 0
0.888007 0.027165 0
0.876518 0.025121 0
0.865537 0.023295 0
0.855053 0.021658 0
0.845050 0.020187 0
0.835510 0.018863 0
0.826411 0.017666 0
0.817731 0.016583 0
0.809447 0.015599 0
0.801538 0.014704 0
0.793982 0.013887 0
0.786758 0.013140 0
0.779846 0.012455 0
0.773229 0.011824 0
0.766889 0.011243 0
0.760810 0.010706 0
0.754977 0.010208 0
0.749376 0.009745 0
0.743995 0.009314 0
0.738821 0.008912 0
0.733843 0.008534 0
0.729053 0.008180 0
0.724440 0.007846 0
0.719996 0.007531 0
0.715714 0.007232 0
0.711587 0.006948 0
0.707608 0.006678 0
0.703772 0.006420 0
0.700073 0.006172 0
0.696508 0.005934 0
0.693071 0.005705 0
0.689760 0.005483 0
0.686571 0.005267 0
0.683501 0.005058 0
0.680548 0.004853 0
0.677710 0.004653 0
0.674985 0.004456 0
0.672372 0.004262 0
0.669870 0.004070 0
0.667477 0.003880 0
0.665194 0.003691 0
0.663020 0.003502 0
0.660955 0.003313 0
0.658999 0.003124 0
0.657153 0.002934 0
0.655416 0.002743 0
0.653788 0.002551 0
0.652271 0.002357 0
0.650864 0.002162 0
0.649567 0.001967 0
0.648380 0.001771 0
0.647302 0.001576 0
0.646333 0.001382 0
0.645471 0.001189 0
0.644714 0.000999 0
0.644061 0.000813 0
0.643509 0.000631 0
0.643054 0.000454 0
0.642693 0.000283 0
0.642422 0.000117 0
0.642236 -0.000043 0
0.642140 -0.000194 0
0.642127 -0.000338 0
0.642195 -0.000476 0
0.642338 -0.000611 0
0.642556 -0.000745 0
0.642847 -0.000881 0
0.643211 -0.001021 0
0.643648 -0.001169 0
0.644164 -0.001328 0
0.644760 -0.001502 0
0.645446 -0.001696 0
0.646227 -0.001914 0
0.647116 -0.002161 0
0.648125 -0.002443 0
0.649270 -0.002767 0
0.650570 -0.003140 0
0.652045 -0.003570 0
0.653723 -0.004067 0
0.655633 -0.004641 0
0.657810 -0.005307 0
0.660293 -0.006078 0
0.663130 -0.006973 0
0.666375 -0.008014 0
0.670089 -0.009225 0
0.674345 -0.010639 0
0.679228 -0.012294 0
0.684836 -0.014236 0
0.691283 -0.016525 0
0.698704 -0.019236 0