# vtk DataFile Version 2.0
generated by CFD-lab course output (written by Tobias Neckel) 
ASCII

DATASET STRUCTURED_GRID
DIMENSIONS  142 42 1 
POINTS 5964 float

0.000000 0.250000 0
0.024648 0.250000 0
0.049296 0.250000 0
0.073944 0.250000 0
0.098592 0.250000 0
0.123239 0.250000 0
0.147887 0.250000 0
0.172535 0.250000 0
0.197183 0.250000 0
0.221831 0.250000 0
0.246479 0.250000 0
0.271127 0.250000 0
0.295775 0.250000 0
0.320423 0.250000 0
0.345070 0.250000 0
0.369718 0.250000 0
0.394366 0.250000 0
0.419014 0.250000 0
0.443662 0.250000 0
0.468310 0.250000 0
0.492958 0.250000 0
0.517606 0.250000 0
0.542254 0.250000 0
0.566901 0.250000 0
0.591549 0.250000 0
0.616197 0.250000 0
0.640845 0.250000 0
0.665493 0.250000 0
0.690141 0.250000 0
0.714789 0.250000 0
0.739437 0.250000 0
0.764085 0.250000 0
0.788732 0.250000 0
0.813380 0.250000 0
0.838028 0.250000 0
0.862676 0.250000 0
0.887324 0.250000 0
0.911972 0.250000 0
0.936620 0.250000 0
0.961268 0.250000 0
0.985915 0.250000 0
1.010563 0.250000 0
1.035211 0.250000 0
1.059859 0.250000 0
1.084507 0.250000 0
1.109155 0.250000 0
1.133803 0.250000 0
1.158451 0.250000 0
1.183099 0.250000 0
1.207746 0.250000 0
1.232394 0.250000 0
1.257042 0.250000 0
1.281690 0.250000 0
1.306338 0.250000 0
1.330986 0.250000 0
1.355634 0.250000 0
1.380282 0.250000 0
1.404930 0.250000 0
1.429577 0.250000 0
1.454225 0.250000 0
1.478873 0.250000 0
1.503521 0.250000 0
1.528169 0.250000 0
1.552817 0.250000 0
1.577465 0.250000 0
1.602113 0.250000 0
1.626761 0.250000 0
1.651408 0.250000 0
1.676056 0.250000 0
1.700704 0.250000 0
1.725352 0.250000 0
1.750000 0.250000 0
1.774648 0.250000 0
1.799296 0.250000 0
1.823944 0.250000 0
1.848592 0.250000 0
1.873239 0.250000 0
1.897887 0.250000 0
1.922535 0.250000 0
1.947183 0.250000 0
1.971831 0.250000 0
1.996479 0.250000 0
2.021127 0.250000 0
2.045775 0.250000 0
2.070423 0.250000 0
2.095070 0.250000 0
2.119718 0.250000 0
2.144366 0.250000 0
2.169014 0.250000 0
2.193662 0.250000 0
2.218310 0.250000 0
2.242958 0.250000 0
2.267606 0.250000 0
2.292254 0.250000 0
2.316901 0.250000 0
2.341549 0.250000 0
2.366197 0.250000 0
2.390845 0.250000 0
2.415493 0.250000 0
2.440141 0.250000 0
2.464789 0.250000 0
2.489437 0.250000 0
2.514085 0.250000 0
2.538732 0.250000 0
2.563380 0.250000 0
2.588028 0.250000 0
2.612676 0.250000 0
2.637324 0.250000 0
2.661972 0.250000 0
2.686620 0.250000 0
2.711268 0.250000 0
2.735915 0.250000 0
2.760563 0.250000 0
2.785211 0.250000 0
2.809859 0.250000 0
2.834507 0.250000 0
2.859155 0.250000 0
2.883803 0.250000 0
2.908451 0.250000 0
2.933099 0.250000 0
2.957746 0.250000 0
2.982394 0.250000 0
3.007042 0.250000 0
3.031690 0.250000 0
3.056338 0.250000 0
3.080986 0.250000 0
3.105634 0.250000 0
3.130282 0.250000 0
3.154930 0.250000 0
3.179577 0.250000 0
3.204225 0.250000 0
3.228873 0.250000 0
3.253521 0.250000 0
3.278169 0.250000 0
3.302817 0.250000 0
3.327465 0.250000 0
3.352113 0.250000 0
3.376761 0.250000 0
3.401408 0.250000 0
3.426056 0.250000 0
3.450704 0.250000 0
3.475352 0.250000 0
0.000000 0.261905 0
0.024648 0.261905 0
0.049296 0.261905 0
0.073944 0.261905 0
0.098592 0.261905 0
0.123239 0.261905 0
0.147887 0.261905 0
0.172535 0.261905 0
0.197183 0.261905 0
0.221831 0.261905 0
0.246479 0.261905 0
0.271127 0.261905 0
0.295775 0.261905 0
0.320423 0.261905 0
0.345070 0.261905 0
0.369718 0.261905 0
0.394366 0.261905 0
0.419014 0.261905 0
0.443662 0.261905 0
0.468310 0.261905 0
0.492958 0.261905 0
0.517606 0.261905 0
0.542254 0.261905 0
0.566901 0.261905 0
0.591549 0.261905 0
0.616197 0.261905 0
0.640845 0.261905 0
0.665493 0.261905 0
0.690141 0.261905 0
0.714789 0.261905 0
0.739437 0.261905 0
0.764085 0.261905 0
0.788732 0.261905 0
0.813380 0.261905 0
0.838028 0.261905 0
0.862676 0.261905 0
0.887324 0.261905 0
0.911972 0.261905 0
0.936620 0.261905 0
0.961268 0.261905 0
0.985915 0.261905 0
1.010563 0.261905 0
1.035211 0.261905 0
1.059859 0.261905 0
1.084507 0.261905 0
1.109155 0.261905 0
1.133803 0.261905 0
1.158451 0.261905 0
1.183099 0.261905 0
1.207746 0.261905 0
1.232394 0.261905 0
1.257042 0.261905 0
1.281690 0.261905 0
1.306338 0.261905 0
1.330986 0.261905 0
1.355634 0.261905 0
1.380282 0.261905 0
1.404930 0.261905 0
1.429577 0.261905 0
1.454225 0.261905 0
1.478873 0.261905 0
1.503521 0.261905 0
1.528169 0.261905 0
1.552817 0.261905 0
1.577465 0.261905 0
1.602113 0.261905 0
1.626761 0.261905 0
1.651408 0.261905 0
1.676056 0.261905 0
1.700704 0.261905 0
1.725352 0.261905 0
1.750000 0.261905 0
1.774648 0.261905 0
1.799296 0.261905 0
1.823944 0.261905 0
1.848592 0.261905 0
1.873239 0.261905 0
1.897887 0.261905 0
1.922535 0.261905 0
1.947183 0.261905 0
1.971831 0.261905 0
1.996479 0.261905 0
2.021127 0.261905 0
2.045775 0.261905 0
2.070423 0.261905 0
2.095070 0.261905 0
2.119718 0.261905 0
2.144366 0.261905 0
2.169014 0.261905 0
2.193662 0.261905 0
2.218310 0.261905 0
2.242958 0.261905 0
2.267606 0.261905 0
2.292254 0.261905 0
2.316901 0.261905 0
2.341549 0.261905 0
2.366197 0.261905 0
2.390845 0.261905 0
2.415493 0.261905 0
2.440141 0.261905 0
2.464789 0.261905 0
2.489437 0.261905 0
2.514085 0.261905 0
2.538732 0.261905 0
2.563380 0.261905 0
2.588028 0.261905 0
2.612676 0.261905 0
2.637324 0.261905 0
2.661972 0.261905 0
2.686620 0.261905 0
2.711268 0.261905 0
2.735915 0.261905 0
2.760563 0.261905 0
2.785211 0.261905 0
2.809859 0.261905 0
2.834507 0.261905 0
2.859155 0.261905 0
2.883803 0.261905 0
2.908451 0.261905 0
2.933099 0.261905 0
2.957746 0.261905 0
2.982394 0.261905 0
3.007042 0.261905 0
3.031690 0.261905 0
3.056338 0.261905 0
3.080986 0.261905 0
3.105634 0.261905 0
3.130282 0.261905 0
3.154930 0.261905 0
3.179577 0.261905 0
3.204225 0.261905 0
3.228873 0.261905 0
3.253521 0.261905 0
3.278169 0.261905 0
3.302817 0.261905 0
3.327465 0.261905 0
3.352113 0.261905 0
3.376761 0.261905 0
3.401408 0.261905 0
3.426056 0.261905 0
3.450704 0.261905 0
3.475352 0.261905 0
0.000000 0.273810 0
0.024648 0.273810 0
0.049296 0.273810 0
0.073944 0.273810 0
0.098592 0.273810 0
0.123239 0.273810 0
0.147887 0.273810 0
0.172535 0.273810 0
0.197183 0.273810 0
0.221831 0.273810 0
0.246479 0.273810 0
0.271127 0.273810 0
0.295775 0.273810 0
0.320423 0.273810 0
0.345070 0.273810 0
0.369718 0.273810 0
0.394366 0.273810 0
0.419014 0.273810 0
0.443662 0.273810 0
0.468310 0.273810 0
0.492958 0.273810 0
0.517606 0.273810 0
0.542254 0.273810 0
0.566901 0.273810 0
0.591549 0.273810 0
0.616197 0.273810 0
0.640845 0.273810 0
0.665493 0.273810 0
0.690141 0.273810 0
0.714789 0.273810 0
0.739437 0.273810 0
0.764085 0.273810 0
0.788732 0.273810 0
0.813380 0.273810 0
0.838028 0.273810 0
0.862676 0.273810 0
0.887324 0.273810 0
0.911972 0.273810 0
0.936620 0.273810 0
0.961268 0.273810 0
0.985915 0.273810 0
1.010563 0.273810 0
1.035211 0.273810 0
1.059859 0.273810 0
1.084507 0.273810 0
1.109155 0.273810 0
1.133803 0.273810 0
1.158451 0.273810 0
1.183099 0.273810 0
1.207746 0.273810 0
1.232394 0.273810 0
1.257042 0.273810 0
1.281690 0.273810 0
1.306338 0.273810 0
1.330986 0.273810 0
1.355634 0.273810 0
1.380282 0.273810 0
1.404930 0.273810 0
1.429577 0.273810 0
1.454225 0.273810 0
1.478873 0.273810 0
1.503521 0.273810 0
1.528169 0.273810 0
1.552817 0.273810 0
1.577465 0.273810 0
1.602113 0.273810 0
1.626761 0.273810 0
1.651408 0.273810 0
1.676056 0.273810 0
1.700704 0.273810 0
1.725352 0.273810 0
1.750000 0.273810 0
1.774648 0.273810 0
1.799296 0.273810 0
1.823944 0.273810 0
1.848592 0.273810 0
1.873239 0.273810 0
1.897887 0.273810 0
1.922535 0.273810 0
1.947183 0.273810 0
1.971831 0.273810 0
1.996479 0.273810 0
2.021127 0.273810 0
2.045775 0.273810 0
2.070423 0.273810 0
2.095070 0.273810 0
2.119718 0.273810 0
2.144366 0.273810 0
2.169014 0.273810 0
2.193662 0.273810 0
2.218310 0.273810 0
2.242958 0.273810 0
2.267606 0.273810 0
2.292254 0.273810 0
2.316901 0.273810 0
2.341549 0.273810 0
2.366197 0.273810 0
2.390845 0.273810 0
2.415493 0.273810 0
2.440141 0.273810 0
2.464789 0.273810 0
2.489437 0.273810 0
2.514085 0.273810 0
2.538732 0.273810 0
2.563380 0.273810 0
2.588028 0.273810 0
2.612676 0.273810 0
2.637324 0.273810 0
2.661972 0.273810 0
2.686620 0.273810 0
2.711268 0.273810 0
2.735915 0.273810 0
2.760563 0.273810 0
2.785211 0.273810 0
2.809859 0.273810 0
2.834507 0.273810 0
2.859155 0.273810 0
2.883803 0.273810 0
2.908451 0.273810 0
2.933099 0.273810 0
2.957746 0.273810 0
2.982394 0.273810 0
3.007042 0.273810 0
3.031690 0.273810 0
3.056338 0.273810 0
3.080986 0.273810 0
3.105634 0.273810 0
3.130282 0.273810 0
3.154930 0.273810 0
3.179577 0.273810 0
3.204225 0.273810 0
3.228873 0.273810 0
3.253521 0.273810 0
3.278169 0.273810 0
3.302817 0.273810 0
3.327465 0.273810 0
3.352113 0.273810 0
3.376761 0.273810 0
3.401408 0.273810 0
3.426056 0.273810 0
3.450704 0.273810 0
3.475352 0.273810 0
0.000000 0.285714 0
0.024648 0.285714 0
0.049296 0.285714 0
0.073944 0.285714 0
0.098592 0.285714 0
0.123239 0.285714 0
0.147887 0.285714 0
0.172535 0.285714 0
0.197183 0.285714 0
0.221831 0.285714 0
0.246479 0.285714 0
0.271127 0.285714 0
0.295775 0.285714 0
0.320423 0.285714 0
0.345070 0.285714 0
0.369718 0.285714 0
0.394366 0.285714 0
0.419014 0.285714 0
0.443662 0.285714 0
0.468310 0.285714 0
0.492958 0.285714 0
0.517606 0.285714 0
0.542254 0.285714 0
0.566901 0.285714 0
0.591549 0.285714 0
0.616197 0.285714 0
0.640845 0.285714 0
0.665493 0.285714 0
0.690141 0.285714 0
0.714789 0.285714 0
0.739437 0.285714 0
0.764085 0.285714 0
0.788732 0.285714 0
0.813380 0.285714 0
0.838028 0.285714 0
0.862676 0.285714 0
0.887324 0.285714 0
0.911972 0.285714 0
0.936620 0.285714 0
0.961268 0.285714 0
0.985915 0.285714 0
1.010563 0.285714 0
1.035211 0.285714 0
1.059859 0.285714 0
1.084507 0.285714 0
1.109155 0.285714 0
1.133803 0.285714 0
1.158451 0.285714 0
1.183099 0.285714 0
1.207746 0.285714 0
1.232394 0.285714 0
1.257042 0.285714 0
1.281690 0.285714 0
1.306338 0.285714 0
1.330986 0.285714 0
1.355634 0.285714 0
1.380282 0.285714 0
1.404930 0.285714 0
1.429577 0.285714 0
1.454225 0.285714 0
1.478873 0.285714 0
1.503521 0.285714 0
1.528169 0.285714 0
1.552817 0.285714 0
1.577465 0.285714 0
[...]
POINT_DATA 5964 

VECTORS velocity float
1.000000 0.000000 0
0.999854 0.000000 0
0.999556 0.000000 0
0.999097 0.000000 0
0.998458 0.000000 0
0.997615 0.000000 0
0.996532 0.000000 0
0.995162 0.000000 0
0.993440 0.000000 0
0.991275 0.000000 0
0.988543 0.000000 0
0.985062 0.000000 0
0.980561 0.000000 0
0.974614 0.000000 0
0.966517 0.000000 0
0.954933 0.000000 0
0.937383 0.000000 0
0.905760 0.000000 0
0.847693 0.000000 0
-0.000000 0.000000 0
0.000000 0.000000 0
0.000000 0.000000 0
0.000000 0.000000 0
-0.000000 0.000000 0
-0.000000 0.000000 0
0.000000 0.000000 0
0.000000 0.000000 0
-0.000000 0.000000 0
-0.000000 0.000000 0
0.000000 0.000000 0
0.000000 0.000000 0
-0.000000 0.000000 0
-0.000000 0.000000 0
-0.000000 0.000000 0
0.000000 0.000000 0
0.000000 0.000000 0
-0.000000 0.000000 0
-0.000000 0.000000 0
-0.000000 0.000000 0
0.000000 0.000000 0
0.000000 0.000000 0
-0.000000 0.000000 0
-0.000000 0.000000 0
-0.000000 0.000000 0
0.000000 0.000000 0
0.000000 0.000000 0
-0.000000 0.000000 0
-0.000000 0.000000 0
-0.000000 0.000000 0
0.000000 0.000000 0
0.000000 0.000000 0
-0.000000 0.000000 0
-0.000000 0.000000 0
-0.000000 0.000000 0
0.000000 0.000000 0
-0.000000 0.000000 0
-0.000000 0.000000 0
-0.000000 0.000000 0
-0.000000 0.000000 0
-0.000000 0.000000 0
-0.000000 0.000000 0
-0.000000 0.000000 0
-0.000000 0.000000 0
-0.000000 0.000000 0
-0.000000 0.000000 0
-0.000000 0.000000 0
-0.000000 0.000000 0
-0.000000 0.000000 0
-0.000000 0.000000 0
-0.000000 0.000000 0
-0.000000 0.000000 0
-0.000000 0.000000 0
-0.000000 0.000000 0
-0.000000 0.000000 0
-0.000000 0.000000 0
-0.000000 0.000000 0
-0.000000 0.000000 0
-0.000000 0.000000 0
-0.000000 0.000000 0
-0.000000 0.000000 0
-0.000000 0.000000 0
-0.000000 0.000000 0
-0.000000 0.000000 0
-0.000000 0.000000 0
-0.000000 0.000000 0
-0.000000 0.000000 0
-0.000000 0.000000 0
-0.000000 0.000000 0
-0.000000 0.000000 0
-0.000000 0.000000 0
-0.000000 0.000000 0
-0.000000 0.000000 0
-0.000000 0.000000 0
-0.000000 0.000000 0
-0.000000 0.000000 0
-0.000000 0.000000 0
-0.000000 0.000000 0
-0.000000 0.000000 0
-0.000000 0.000000 0
-0.000000 0.000000 0
-0.000000 0.000000 0
-0.000000 0.000000 0
-0.000000 0.000000 0
-0.000000 0.000000 0
-0.000000 0.000000 0
-0.000000 0.000000 0
-0.000000 0.000000 0
-0.000000 0.000000 0
-0.000000 0.000000 0
-0.000000 0.000000 0
-0.000000 0.000000 0
-0.000000 0.000000 0
-0.000000 0.000000 0
-0.000000 0.000000 0
-0.000000 0.000000 0
-0.000000 0.000000 0
-0.000000 0.000000 0
-0.000000 0.000000 0
-0.000000 0.000000 0
-0.000000 0.000000 0
-0.000000 0.000000 0
-0.000000 0.000000 0
-0.000000 0.000000 0
-0.000000 0.000000 0
-0.000000 0.000000 0
-0.000000 0.000000 0
-0.000000 0.000000 0
-0.000000 0.000000 0
-0.000000 0.000000 0
-0.000000 0.000000 0
-0.000000 0.000000 0
-0.000000 0.000000 0
-0.000000 0.000000 0
-0.000000 0.000000 0
-0.000000 0.000000 0
-0.000000 0.000000 0
-0.000000 0.000000 0
-0.000000 0.000000 0
-0.000000 0.000000 0
0.000000 0.000000 0
-0.000000 0.000000 0
0.496411 0.000000 0
1.000000 0.000035 0
0.999854 0.000107 0
0.999558 0.000183 0
0.999101 0.000265 0
0.998465 0.000358 0
0.997626 0.000465 0
0.996549 0.000592 0
0.995186 0.000747 0
0.993474 0.000939 0
0.991325 0.001182 0
0.988614 0.001500 0
0.985165 0.001928 0
0.980713 0.002523 0
0.974850 0.003392 0
0.966903 0.004753 0
0.955641 0.007036 0
0.938825 0.011875 0
0.910180 0.021660 0
0.860874 0.078853 0
0.714886 0.110956 0
0.576504 0.072745 0
0.473017 0.041074 0
0.401066 0.022638 0
0.351163 0.013309 0
0.315499 0.008679 0
0.288994 0.006202 0
0.268554 0.004718 0
0.252294 0.003739 0
0.239027 0.003050 0
0.227980 0.002542 0
0.218624 0.002156 0
0.210590 0.001855 0
0.203608 0.001615 0
0.197480 0.001420 0
0.192052 0.001260 0
0.187208 0.001127 0
0.182854 0.001015 0
0.178917 0.000919 0
0.175337 0.000838 0
0.172064 0.000767 0
0.169059 0.000706 0
0.166287 0.000652 0
0.163720 0.000605 0
0.161335 0.000564 0
0.159110 0.000526 0
0.157028 0.000493 0
0.155075 0.000464 0
0.153237 0.000437 0
0.151503 0.000413 0
0.149864 0.000391 0
0.148310 0.000372 0
0.146834 0.000353 0
0.145429 0.000337 0
0.144089 0.000322 0
0.142810 0.000308 0
0.141586 0.000295 0
0.140414 0.000283 0
0.139289 0.000272 0
0.138208 0.000261 0
0.137168 0.000252 0
0.136167 0.000242 0
0.135202 0.000234 0
0.134271 0.000226 0
0.133371 0.000218 0
0.132501 0.000211 0
0.131659 0.000205 0
0.130844 0.000198 0
0.130054 0.000192 0
0.129288 0.000187 0
0.128545 0.000181 0
0.127823 0.000176 0
0.127122 0.000171 0
0.126441 0.000166 0
0.125779 0.000162 0
0.125134 0.000157 0
0.124507 0.000153 0
0.123897 0.000149 0
0.123303 0.000145 0
0.122724 0.000142 0
0.122160 0.000138 0
0.121611 0.000134 0
0.121076 0.000131 0
0.120555 0.000127 0
0.120047 0.000124 0
0.119553 0.000121 0
0.119071 0.000117 0
0.118603 0.000114 0
0.118147 0.000111 0
0.117705 0.000108 0
0.117275 0.000104 0
0.116858 0.000101 0
0.116455 0.000098 0
0.116064 0.000094 0
0.115688 0.000090 0
0.115326 0.000087 0
0.114979 0.000083 0
0.114648 0.000078 0
0.114333 0.000074 0
0.114036 0.000069 0
0.113757 0.000064 0
0.113499 0.000058 0
0.113263 0.000052 0
0.113052 0.000045 0
0.112867 0.000037 0
0.112711 0.000029 0
0.112588 0.000020 0
0.112501 0.000009 0
0.112456 -0.000004 0
0.112459 -0.000018 0
0.112516 -0.000033 0
0.112633 -0.000050 0
0.112816 -0.000069 0
0.113075 -0.000092 0
0.113420 -0.000117 0
0.113864 -0.000146 0
0.114421 -0.000180 0
0.115109 -0.000219 0
0.115948 -0.000265 0
0.116963 -0.000318 0
0.118180 -0.000379 0
0.119636 -0.000452 0
0.121369 -0.000538 0
0.123430 -0.000639 0
0.125879 -0.000761 0
0.128791 -0.000908 0
0.132259 -0.001086 0
0.136399 -0.001304 0
0.141363 -0.001576 0
0.147345 -0.001918 0
0.154602 -0.002356 0
0.163481 -0.002927 0
0.174461 -0.003691 0
0.188219 -0.004740 0
0.205748 -0.006232 0
0.228557 -0.008451 0
0.259054 -0.011953 0
0.301354 -0.017902 0
0.362785 -0.029693 0
0.459990 -0.052073 0
0.617955 -0.166962 0
0.993129 -0.267479 0
0.993129 -0.133739 0
1.000000 0.000070 0
0.999856 0.000213 0
0.999564 0.000364 0
0.999113 0.000528 0
0.998486 0.000712 0
0.997659 0.000926 0
0.996599 0.001178 0
0.995259 0.001485 0
0.993579 0.001865 0
0.991473 0.002348 0
0.988825 0.002975 0
0.985469 0.003816 0
0.981163 0.004982 0
0.975541 0.006670 0
0.968025 0.009278 0
0.957649 0.013561 0
0.942785 0.021957 0
0.920694 0.037650 0
0.888370 0.094326 0
0.890999 0.137349 0
0.842149 0.116821 0
0.771618 0.084735 0
0.701222 0.058855 0
0.639920 0.041328 0
0.589257 0.030027 0
0.547923 0.022674 0
0.514040 0.017726 0
0.485953 0.014261 0
0.462370 0.011743 0
0.442322 0.009855 0
0.425082 0.008399 0
0.410105 0.007253 0
0.396971 0.006332 0
0.385359 0.005582 0
0.375016 0.004961 0
0.365741 0.004443 0
0.357374 0.004004 0
0.349783 0.003631 0
0.342863 0.003310 0
0.336524 0.003032 0
0.330692 0.002790 0
0.325306 0.002579 0
0.320313 0.002392 0
0.315668 0.002227 0
0.311333 0.002080 0
0.307276 0.001949 0
0.303468 0.001831 0
0.299883 0.001725 0
0.296501 0.001629 0
0.293302 0.001543 0
0.290271 0.001464 0
0.287392 0.001391 0
0.284652 0.001325 0
0.282041 0.001265 0
0.279547 0.001209 0
0.277162 0.001157 0
0.274878 0.001110 0
0.272686 0.001065 0
0.270582 0.001024 0
0.268558 0.000986 0
0.266610 0.000950 0
0.264732 0.000916 0
0.262920 0.000884 0
0.261170 0.000855 0
0.259479 0.000827 0
0.257843 0.000800 0
0.256259 0.000775 0
0.254724 0.000751 0
0.253236 0.000729 0
0.251793 0.000708 0
0.250391 0.000687 0
0.249030 0.000668 0
0.247707 0.000649 0
0.246421 0.000631 0
0.245170 0.000614 0
0.243953 0.000598 0
0.242768 0.000582 0
0.241614 0.000567 0
0.240490 0.000552 0
0.239396 0.000538 0
0.238329 0.000524 0
0.237290 0.000510 0
0.236277 0.000497 0
0.235291 0.000484 0
0.234330 0.000471 0
0.233393 0.000459 0
0.232482 0.000446 0
0.231595 0.000434 0
0.230732 0.000421 0
0.229894 0.000409 0
0.229080 0.000396 0
0.228291 0.000383 0
0.227526 0.000370 0
0.226788 0.000357 0
0.226076 0.000342 0
0.225391 0.000328 0
0.224736 0.000312 0
0.224110 0.000296 0
0.223516 0.000278 0
0.222956 0.000259 0
0.222433 0.000239 0
0.221949 0.000216 0
0.221509 0.000192 0
0.221115 0.000165 0
0.220773 0.000135 0
0.220488 0.000101 0
0.220268 0.000064 0
0.220119 0.000021 0
0.220050 -0.000029 0
0.220078 -0.000084 0
0.220211 -0.000145 0
0.220461 -0.000214 0
0.220843 -0.000292 0
0.221374 -0.000381 0
0.222076 -0.000484 0
0.222974 -0.000602 0
0.224096 -0.000738 0
0.225477 -0.000895 0
0.227156 -0.001078 0
0.229180 -0.001291 0
0.231605 -0.001540 0
0.234498 -0.001833 0
0.237940 -0.002178 0
0.242027 -0.002589 0
0.246879 -0.003081 0
0.252641 -0.003675 0
0.259496 -0.004397 0
0.267673 -0.005287 0
0.277466 -0.006394 0
0.289254 -0.007794 0
0.303536 -0.009592 0
0.320983 -0.011948 0
0.342515 -0.015111 0
0.369421 -0.019483 0
0.403568 -0.025747 0
0.447735 -0.035160 0
0.506231 -0.050101 0
0.585700 -0.076620 0
0.697400 -0.123245 0
0.855333 -0.257503 0
0.993826 -0.362414 0
0.993826 -0.181207 0
1.000000 0.000105 0
0.999859 0.000318 0
0.999574 0.000542 0
0.999133 0.000786 0
0.998521 0.001060 0
0.997714 0.001377 0
0.996681 0.001752 0
0.995379 0.002205 0
0.993750 0.002767 0
0.991715 0.003479 0
0.989168 0.004400 0
0.985962 0.005628 0
0.981887 0.007318 0
0.976642 0.009737 0
0.969782 0.013395 0
0.960673 0.019226 0
0.948431 0.029724 0
0.933028 0.047942 0
0.915086 0.093196 0
0.945330 0.133281 0
0.948626 0.130405 0
0.922939 0.109141 0
0.881981 0.086247 0
0.836589 0.067387 0
0.792539 0.053113 0
0.752206 0.042531 0
0.716223 0.034649 0
0.684455 0.028696 0
0.656485 0.024123 0
0.631828 0.020552 0
0.610017 0.017717 0
0.590640 0.015433 0
0.573343 0.013567 0
0.557826 0.012025 0
0.543839 0.010736 0
0.531172 0.009648 0
0.519650 0.008722 0
0.509125 0.007928 0
0.499472 0.007242 0
0.490585 0.006646 0
0.482375 0.006124 0
0.474764 0.005665 0
0.467686 0.005260 0
0.461084 0.004900 0
0.454909 0.004580 0
0.449117 0.004293 0
0.443671 0.004035 0
0.438537 0.003802 0
0.433688 0.003592 0
0.429097 0.003400 0
0.424742 0.003226 0
0.420603 0.003067 0
0.416662 0.002921 0
0.412902 0.002787 0
0.409311 0.002664 0
0.405875 0.002550 0
0.402583 0.002444 0
0.399424 0.002346 0
0.396390 0.002255 0
0.393471 0.002170 0
0.390661 0.002091 0
0.387952 0.002016 0
0.385338 0.001946 0
0.382813 0.001880 0
0.380373 0.001818 0
0.378012 0.001760 0
0.375726 0.001705 0
0.373511 0.001652 0
0.371363 0.001603 0
0.369279 0.001555 0
0.367256 0.001510 0
0.365291 0.001467 0
0.363381 0.001426 0
0.361524 0.001387 0
0.359717 0.001350 0
0.357959 0.001314 0
0.356247 0.001279 0
0.354580 0.001245 0
0.352956 0.001213 0
0.351373 0.001182 0
0.349831 0.001151 0
0.348328 0.001122 0
0.346863 0.001093 0
0.345435 0.001065 0
0.344043 0.001037 0
0.342687 0.001010 0
0.341366 0.000983 0
0.340079 0.000956 0
0.338827 0.000929 0
0.337608 0.000902 0
0.336424 0.000875 0
0.335275 0.000848 0
0.334160 0.000820 0
0.333081 0.000791 0
0.332038 0.000761 0
0.331033 0.000730 0
0.330067 0.000697 0
0.329142 0.000663 0
0.328260 0.000626 0
0.327424 0.000587 0
0.326637 0.000544 0
0.325902 0.000498 0
0.325225 0.000448 0
0.324610 0.000393 0
0.324063 0.000332 0
0.323591 0.000264 0
0.323202 0.000187 0
0.322906 0.000101 0
0.322714 0.000002 0
0.322641 -0.000111 0
0.322706 -0.000235 0
0.322924 -0.000374 0
0.323313 -0.000533 0
0.323894 -0.000713 0
0.324695 -0.000919 0
0.325746 -0.001156 0
0.327083 -0.001428 0
0.328747 -0.001742 0
0.330789 -0.002106 0
0.333265 -0.002529 0
0.336244 -0.003021 0
0.339807 -0.003598 0
0.344049 -0.004276 0
0.349087 -0.005078 0
0.355060 -0.006034 0
0.362136 -0.007179 0
0.370526 -0.008565 0
0.380487 -0.010255 0
0.392342 -0.012341 0
0.406501 -0.014947 0
0.423491 -0.018253 0
0.443996 -0.022517 0
0.468922 -0.028135 0
0.499483 -0.035721 0
0.537333 -0.046276 0
0.584743 -0.061539 0
0.644826 -0.084538 0
0.721505 -0.122026 0
0.818328 -0.182304 0
0.934585 -0.310134 0
0.994597 -0.401261 0
0.994597 -0.200631 0
1.000000 0.000138 0
0.999864 0.000419 0
0.999587 0.000715 0
0.999160 0.001037 0
0.998568 0.001398 0
0.997789 0.001814 0
0.996794 0.002306 0
0.995543 0.002901 0
0.993983 0.003635 0
0.992045 0.004560 0
0.989634 0.005754 0
0.986627 0.007333 0
0.982854 0.009484 0
0.978089 0.012517 0
0.972036 0.016991 0
0.964382 0.023874 0
0.954906 0.035310 0
0.945019 0.053755 0
0.937268 0.088384 0
0.965707 0.121150 0
0.987884 0.127636 0
0.990071 0.116924 0
0.975766 0.100561 0
0.951736 0.084528 0
0.923218 0.070783 0
0.893429 0.059534 0
0.864150 0.050450 0
0.836292 0.043114 0
0.810267 0.037162 0
0.786201 0.032298 0
0.764073 0.028292 0
0.743777 0.024966 0
0.725176 0.022181 0
0.708119 0.019832 0
0.692457 0.017835 0
0.678050 0.016126 0
0.664768 0.014653 0
0.652495 0.013377 0
0.641128 0.012265 0
0.630573 0.011290 0
0.620748 0.010432 0
0.611581 0.009673 0
0.603007 0.008999 0
0.594969 0.008398 0
0.587417 0.007860 0
0.580306 0.007377 0
0.573596 0.006941 0
0.567253 0.006547 0
0.561243 0.006189 0
0.555541 0.005863 0
0.550119 0.005566 0
0.544956 0.005294 0
0.540032 0.005045 0
0.535327 0.004815 0
0.530827 0.004603 0
0.526516 0.004407 0
0.522381 0.004225 0
0.518409 0.004057 0
0.514590 0.003899 0
0.510914 0.003753 0
0.507371 0.003616 0
0.503954 0.003487 0
0.500655 0.003366 0
0.497466 0.003253 0
0.494382 0.003146 0
0.491397 0.003045 0
0.488505 0.002949 0
0.485702 0.002859 0
0.482982 0.002773 0
0.480343 0.002691 0
0.477779 0.002613 0
0.475288 0.002539 0
0.472865 0.002469 0
0.470509 0.002401 0
0.468216 0.002336 0
0.465984 0.002274 0
0.463809 0.002214 0
0.461691 0.002156 0
0.459627 0.002101 0
0.457614 0.002047 0
0.455653 0.001994 0
0.453740 0.001944 0
0.451874 0.001894 0
0.450055 0.001846 0
0.448280 0.001799 0
0.446550 0.001752 0
0.444864 0.001706 0
0.443220 0.001660 0
0.441619 0.001615 0
0.440060 0.001569 0
0.438543 0.001523 0
0.437068 0.001477 0
0.435636 0.001430 0
0.434248 0.001381 0
0.432903 0.001332 0
0.431605 0.001280 0
0.430353 0.001225 0
0.429151 0.001168 0
0.428000 0.001108 0
0.426903 0.001043 0
0.425865 0.000973 0
0.424888 0.000898 0
0.423979 0.000816 0
0.423142 0.000726 0
0.422385 0.000627 0
0.421714 0.000517 0
0.421140 0.000394 0
0.420673 0.000256 0
0.420325 0.000099 0
0.420106 -0.000080 0
0.420045 -0.000282 0
0.420159 -0.000506 0
0.420468 -0.000760 0
0.420997 -0.001049 0
0.421774 -0.001378 0
0.422833 -0.001755 0
0.424214 -0.002187 0
0.425963 -0.002685 0
0.428132 -0.003260 0
0.430784 -0.003926 0
0.433993 -0.004700 0
0.437845 -0.005602 0
0.442441 -0.006661 0
0.447902 -0.007907 0
0.454373 -0.009384 0
0.462028 -0.011145 0
0.471076 -0.013260 0
0.481775 -0.015824 0
0.494438 -0.018959 0
0.509455 -0.022839 0
0.527314 -0.027702 0
0.548628 -0.033891 0
0.574178 -0.041911 0
0.604958 -0.052525 0
0.642230 -0.066927 0
0.687558 -0.087079 0
0.742724 -0.116156 0
0.809223 -0.160420 0
0.885828 -0.226162 0
0.965356 -0.342639 0
0.995324 -0.420384 0
0.995324 -0.210192 0
1.000000 0.000170 0
0.999869 0.000517 0
0.999604 0.000882 0
0.999195 0.001278 0
0.998628 0.001722 0
0.997884 0.002234 0
0.996936 0.002837 0
0.995748 0.003563 0
0.994274 0.004457 0
0.992454 0.005579 0
0.990209 0.007017 0
0.987440 0.008903 0
0.984022 0.011442 0
0.979805 0.014962 0
0.974637 0.020015 0
0.968468 0.027500 0
0.961560 0.039076 0
0.955831 0.056461 0
0.954476 0.083204 0
0.976671 0.108834 0
1.001710 0.118637 0
1.016358 0.114993 0
1.018677 0.104763 0
1.011391 0.092767 0
0.997797 0.081275 0
0.980475 0.071061 0
0.961200 0.062246 0
0.941142 0.054721 0
0.921050 0.048317 0
0.901397 0.042863 0
0.882463 0.038207 0
0.864406 0.034219 0
0.847300 0.030789 0
0.831164 0.027828 0
0.815984 0.025259 0
0.801724 0.023022 0
0.788337 0.021065 0
0.775768 0.019346 0
0.763963 0.017831 0
0.752867 0.016489 0
0.742426 0.015297 0
0.732589 0.014234 0
0.723310 0.013284 0
0.714545 0.012430 0
0.706253 0.011662 0
0.698398 0.010968 0
0.690945 0.010339 0
0.683863 0.009768 0
0.677125 0.009248 0
0.670705 0.008773 0
0.664579 0.008339 0
0.658725 0.007939 0
0.653126 0.007572 0
0.647761 0.007233 0
0.642617 0.006920 0
0.637677 0.006630 0
0.632929 0.006360 0
0.628359 0.006109 0
0.623958 0.005875 0
0.619714 0.005657 0
0.615618 0.005452 0
0.611661 0.005260 0
0.607836 0.005080 0
0.604135 0.004910 0
0.600550 0.004750 0
0.597077 0.004599 0
0.593709 0.004455 0
0.590441 0.004320 0
0.587268 0.004191 0
0.584186 0.004068 0
0.581189 0.003952 0
0.578275 0.003841 0
0.575439 0.003734 0
0.572679 0.003633 0
0.569991 0.003535 0
0.567372 0.003442 0
0.564819 0.003352 0
0.562331 0.003265 0
0.559904 0.003182 0
0.557537 0.003101 0
0.555228 0.003023 0
0.552974 0.002947 0
0.550775 0.002873 0
0.548629 0.002800 0
0.546535 0.002730 0
0.544491 0.002660 0
0.542497 0.002591 0
0.540552 0.002523 0
0.538655 0.002456 0
0.536807 0.002388 0
0.535006 0.002320 0
0.533253 0.002252 0
0.531549 0.002182 0
0.529894 0.002111 0
0.528288 0.002038 0
0.526734 0.001962 0
0.525233 0.001883 0
0.523786 0.001799 0
0.522397 0.001712 0
0.521067 0.001618 0
0.519802 0.001518 0
0.518605 0.001409 0
0.517482 0.001291 0
0.516437 0.001163 0
0.515479 0.001021 0
0.514615 0.000865 0
0.513855 0.000690 0
0.513210 0.000495 0
0.512692 0.000276 0
0.512312 0.000024 0
0.512092 -0.000261 0
0.512059 -0.000579 0
0.512233 -0.000937 0
0.512640 -0.001343 0
0.513310 -0.001806 0
0.514277 -0.002334 0
0.515582 -0.002940 0
0.517271 -0.003635 0
0.519398 -0.004435 0
0.522028 -0.005360 0
0.525232 -0.006431 0
0.529097 -0.007677 0
0.533725 -0.009133 0
0.539232 -0.010842 0
0.545760 -0.012857 0
0.553475 -0.015247 0
0.562576 -0.018102 0
0.573298 -0.021539 0
0.585930 -0.025710 0
0.600816 -0.030826 0
0.618377 -0.037173 0
0.639126 -0.045153 0
0.663681 -0.055342 0
0.692788 -0.068590 0
0.727306 -0.086171 0
0.768145 -0.110077 0
0.816008 -0.143302 0
0.870714 -0.191144 0
0.928794 -0.257716 0
0.981890 -0.363020 0
0.995986 -0.430209 0
0.995986 -0.215105 0
1.000000 0.000201 0
0.999876 0.000611 0
0.999624 0.001041 0
0.999236 0.001508 0
0.998699 0.002031 0
0.997996 0.002631 0
0.997104 0.003338 0
0.995990 0.004186 0
0.994616 0.005226 0
0.992932 0.006524 0
0.990877 0.008175 0
0.988376 0.010321 0
0.985348 0.013171 0
0.981715 0.017050 0
0.977446 0.022466 0
0.972684 0.030190 0
0.967981 0.041413 0
0.965254 0.057176 0
0.967534 0.078318 0
0.984749 0.098336 0
1.007163 0.108468 0
1.025317 0.108730 0
1.035732 0.102960 0
1.038731 0.094612 0
1.035895 0.085716 0
1.028851 0.077211 0
1.018912 0.069447 0
1.007069 0.062506 0
0.994050 0.056359 0
0.980383 0.050936 0
0.966451 0.046159 0
0.952529 0.041949 0
0.938808 0.038237 0
0.925418 0.034957 0
0.912445 0.032054 0
0.899940 0.029479 0
0.887933 0.027190 0
0.876432 0.025149 0
0.865437 0.023326 0
0.854937 0.021693 0
0.844917 0.020226 0
0.835357 0.018906 0
0.826235 0.017714 0
0.817530 0.016637 0
0.809218 0.015659 0
0.801277 0.014770 0
0.793686 0.013961 0
0.786422 0.013221 0
0.779467 0.012544 0
0.772801 0.011923 0
0.766407 0.011352 0
0.760267 0.010826 0
0.754368 0.010340 0
0.748693 0.009891 0
0.743230 0.009474 0
0.737966 0.009086 0
0.732889 0.008726 0
0.727990 0.008389 0
0.723257 0.008075 0
0.718681 0.007781 0
0.714254 0.007505 0
0.709969 0.007246 0
0.705816 0.007002 0
0.701791 0.006772 0
0.697885 0.006554 0
0.694094 0.006349 0
0.690411 0.006154 0
0.686833 0.005970 0
0.683352 0.005794 0
0.679967 0.005627 0
0.676671 0.005468 0
0.673462 0.005316 0
0.670336 0.005171 0
0.667288 0.005033 0
0.664318 0.004899 0
0.661420 0.004772 0
0.658593 0.004649 0
0.655834 0.004530 0
0.653141 0.004416 0
0.650511 0.004305 0
0.647944 0.004198 0
0.645435 0.004094 0
0.642986 0.003993 0
0.640592 0.003894 0
0.638255 0.003797 0
0.635971 0.003702 0
0.633741 0.003608 0
0.631563 0.003516 0
0.629437 0.003424 0
0.627363 0.003332 0
0.625340 0.003240 0
0.623368 0.003147 0
0.621448 0.003052 0
0.619580 0.002956 0
0.617766 0.002858 0
0.616005 0.002756 0
0.614301 0.002649 0
0.612655 0.002538 0
0.611069 0.002421 0
0.609546 0.002296 0
0.608091 0.002163 0
0.606707 0.002019 0
0.605399 0.001863 0
0.604174 0.001693 0
0.603038 0.001507 0
0.602000 0.001301 0
0.601068 0.001073 0
0.600255 0.000818 0
0.599571 0.000533 0
0.599032 0.000209 0
0.598647 -0.000159 0
0.598451 -0.000575 0
0.598464 -0.001041 0
0.598713 -0.001569 0
0.599226 -0.002168 0
0.600039 -0.002852 0
0.601190 -0.003633 0
0.602726 -0.004529 0
0.604700 -0.005558 0
0.607172 -0.006743 0
0.610213 -0.008114 0
0.613905 -0.009704 0
0.618345 -0.011556 0
0.623643 -0.013720 0
0.629929 -0.016263 0
0.637357 -0.019267 0
0.646106 -0.022835 0
0.656386 -0.027103 0
0.668447 -0.032250 0
0.682581 -0.038511 0
0.699135 -0.046205 0