# vtk DataFile Version 2.0
generated by CFD-lab course output (written by Tobias Neckel) 
ASCII

DATASET STRUCTURED_GRID
DIMENSIONS  142 42 1 
POINTS 5964 float

0.000000 0.250000 0
0.024648 0.250000 0
0.049296 0.250000 0
0.073944 0.250000 0
0.098592 0.250000 0
0.123239 0.250000 0
0.147887 0.250000 0
0.172535 0.250000 0
0.197183 0.250000 0
0.221831 0.250000 0
0.246479 0.250000 0
0.271127 0.250000 0
0.295775 0.250000 0
0.320423 0.250000 0
0.345070 0.250000 0
0.369718 0.250000 0
0.394366 0.250000 0
0.419014 0.250000 0
0.443662 0.250000 0
0.468310 0.250000 0
0.492958 0.250000 0
0.517606 0.250000 0
0.542254 0.250000 0
0.566901 0.250000 0
0.591549 0.250000 0
0.616197 0.250000 0
0.640845 0.250000 0
0.665493 0.250000 0
0.690141 0.250000 0
0.714789 0.250000 0
0.739437 0.250000 0
0.764085 0.250000 0
0.788732 0.250000 0
0.813380 0.250000 0
0.838028 0.250000 0
0.862676 0.250000 0
0.887324 0.250000 0
0.911972 0.250000 0
0.936620 0.250000 0
0.961268 0.250000 0
0.985915 0.250000 0
1.010563 0.250000 0
1.035211 0.250000 0
1.059859 0.250000 0
1.084507 0.250000 0
1.109155 0.250000 0
1.133803 0.250000 0
1.158451 0.250000 0
1.183099 0.250000 0
1.207746 0.250000 0
1.232394 0.250000 0
1.257042 0.250000 0
1.281690 0.250000 0
1.306338 0.250000 0
1.330986 0.250000 0
1.355634 0.250000 0
1.380282 0.250000 0
1.404930 0.250000 0
1.429577 0.250000 0
1.454225 0.250000 0
1.478873 0.250000 0
1.503521 0.250000 0
1.528169 0.250000 0
1.552817 0.250000 0
1.577465 0.250000 0
1.602113 0.250000 0
1.626761 0.250000 0
1.651408 0.250000 0
1.676056 0.250000 0
1.700704 0.250000 0
1.725352 0.250000 0
1.750000 0.250000 0
1.774648 0.250000 0
1.799296 0.250000 0
1.823944 0.250000 0
1.848592 0.250000 0
1.873239 0.250000 0
1.897887 0.250000 0
1.922535 0.250000 0
1.947183 0.250000 0
1.971831 0.250000 0
1.996479 0.250000 0
2.021127 0.250000 0
2.045775 0.250000 0
2.070423 0.250000 0
2.095070 0.250000 0
2.119718 0.250000 0
2.144366 0.250000 0
2.169014 0.250000 0
2.193662 0.250000 0
2.218310 0.250000 0
2.242958 0.250000 0
2.267606 0.250000 0
2.292254 0.250000 0
2.316901 0.250000 0
2.341549 0.250000 0
2.366197 0.250000 0
2.390845 0.250000 0
2.415493 0.250000 0
2.440141 0.250000 0
2.464789 0.250000 0
2.489437 0.250000 0
2.514085 0.250000 0
2.538732 0.250000 0
2.563380 0.250000 0
2.588028 0.250000 0
2.612676 0.250000 0
2.637324 0.250000 0
2.661972 0.250000 0
2.686620 0.250000 0
2.711268 0.250000 0
2.735915 0.250000 0
2.760563 0.250000 0
2.785211 0.250000 0
2.809859 0.250000 0
2.834507 0.250000 0
2.859155 0.250000 0
2.883803 0.250000 0
2.908451 0.250000 0
2.933099 0.250000 0
2.957746 0.250000 0
2.982394 0.250000 0
3.007042 0.250000 0
3.031690 0.250000 0
3.056338 0.250000 0
3.080986 0.250000 0
3.105634 0.250000 0
3.130282 0.250000 0
3.154930 0.250000 0
3.179577 0.250000 0
3.204225 0.250000 0
3.228873 0.250000 0
3.253521 0.250000 0
3.278169 0.250000 0
3.302817 0.250000 0
3.327465 0.250000 0
3.352113 0.250000 0
3.376761 0.250000 0
3.401408 0.250000 0
3.426056 0.250000 0
3.450704 0.250000 0
3.475352 0.250000 0
0.000000 0.261905 0
0.024648 0.261905 0
0.049296 0.261905 0
0.073944 0.261905 0
0.098592 0.261905 0
0.123239 0.261905 0
0.147887 0.261905 0
0.172535 0.261905 0
0.197183 0.261905 0
0.221831 0.261905 0
0.246479 0.261905 0
0.271127 0.261905 0
0.295775 0.261905 0
0.320423 0.261905 0
0.345070 0.261905 0
0.369718 0.261905 0
0.394366 0.261905 0
0.419014 0.261905 0
0.443662 0.261905 0
0.468310 0.261905 0
0.492958 0.261905 0
0.517606 0.261905 0
0.542254 0.261905 0
0.566901 0.261905 0
0.591549 0.261905 0
0.616197 0.261905 0
0.640845 0.261905 0
0.665493 0.261905 0
0.690141 0.261905 0
0.714789 0.261905 0
0.739437 0.261905 0
0.764085 0.261905 0
0.788732 0.261905 0
0.813380 0.261905 0
0.838028 0.261905 0
0.862676 0.261905 0
0.887324 0.261905 0
0.911972 0.261905 0
0.936620 0.261905 0
0.961268 0.261905 0
0.985915 0.261905 0
1.010563 0.261905 0
1.035211 0.261905 0
1.059859 0.261905 0
1.084507 0.261905 0
1.109155 0.261905 0
1.133803 0.261905 0
1.158451 0.261905 0
1.183099 0.261905 0
1.207746 0.261905 0
1.232394 0.261905 0
1.257042 0.261905 0
1.281690 0.261905 0
1.306338 0.261905 0
1.330986 0.261905 0
1.355634 0.261905 0
1.380282 0.261905 0
1.404930 0.261905 0
1.429577 0.261905 0
1.454225 0.261905 0
1.478873 0.261905 0
1.503521 0.261905 0
1.528169 0.261905 0
1.552817 0.261905 0
1.577465 0.261905 0
1.602113 0.261905 0
1.626761 0.261905 0
1.651408 0.261905 0
1.676056 0.261905 0
1.700704 0.261905 0
1.725352 0.261905 0
1.750000 0.261905 0
1.774648 0.261905 0
1.799296 0.261905 0
1.823944 0.261905 0
1.848592 0.261905 0
1.873239 0.261905 0
1.897887 0.261905 0
1.922535 0.261905 0
1.947183 0.261905 0
1.971831 0.261905 0
1.996479 0.261905 0
2.021127 0.261905 0
2.045775 0.261905 0
2.070423 0.261905 0
2.095070 0.261905 0
2.119718 0.261905 0
2.144366 0.261905 0
2.169014 0.261905 0
2.193662 0.261905 0
2.218310 0.261905 0
2.242958 0.261905 0
2.267606 0.261905 0
2.292254 0.261905 0
2.316901 0.261905 0
2.341549 0.261905 0
2.366197 0.261905 0
2.390845 0.261905 0
2.415493 0.261905 0
2.440141 0.261905 0
2.464789 0.261905 0
2.489437 0.261905 0
2.514085 0.261905 0
2.538732 0.261905 0
2.563380 0.261905 0
2.588028 0.261905 0
2.612676 0.261905 0
2.637324 0.261905 0
2.661972 0.261905 0
2.686620 0.261905 0
2.711268 0.261905 0
2.735915 0.261905 0
2.760563 0.261905 0
2.785211 0.261905 0
2.809859 0.261905 0
2.834507 0.261905 0
2.859155 0.261905 0
2.883803 0.261905 0
2.908451 0.261905 0
2.933099 0.261905 0
2.957746 0.261905 0
2.982394 0.261905 0
3.007042 0.261905 0
3.031690 0.261905 0
3.056338 0.261905 0
3.080986 0.261905 0
3.105634 0.261905 0
3.130282 0.261905 0
3.154930 0.261905 0
3.179577 0.261905 0
3.204225 0.261905 0
3.228873 0.261905 0
3.253521 0.261905 0
3.278169 0.261905 0
3.302817 0.261905 0
3.327465 0.261905 0
3.352113 0.261905 0
3.376761 0.261905 0
3.401408 0.261905 0
3.426056 0.261905 0
3.450704 0.261905 0
3.475352 0.261905 0
0.000000 0.273810 0
0.024648 0.273810 0
0.049296 0.273810 0
0.073944 0.273810 0
0.098592 0.273810 0
0.123239 0.273810 0
0.147887 0.273810 0
0.172535 0.273810 0
0.197183 0.273810 0
0.221831 0.273810 0
0.246479 0.273810 0
0.271127 0.273810 0
0.295775 0.273810 0
0.320423 0.273810 0
0.345070 0.273810 0
0.369718 0.273810 0
0.394366 0.273810 0
0.419014 0.273810 0
0.443662 0.273810 0
0.468310 0.273810 0
0.492958 0.273810 0
0.517606 0.273810 0
0.542254 0.273810 0
0.566901 0.273810 0
0.591549 0.273810 0
0.616197 0.273810 0
0.640845 0.273810 0
0.665493 0.273810 0
0.690141 0.273810 0
0.714789 0.273810 0
0.739437 0.273810 0
0.764085 0.273810 0
0.788732 0.273810 0
0.813380 0.273810 0
0.838028 0.273810 0
0.862676 0.273810 0
0.887324 0.273810 0
0.911972 0.273810 0
0.936620 0.273810 0
0.961268 0.273810 0
0.985915 0.273810 0
1.010563 0.273810 0
1.035211 0.273810 0
1.059859 0.273810 0
1.084507 0.273810 0
1.109155 0.273810 0
1.133803 0.273810 0
1.158451 0.273810 0
1.183099 0.273810 0
1.207746 0.273810 0
1.232394 0.273810 0
1.257042 0.273810 0
1.281690 0.273810 0
1.306338 0.273810 0
1.330986 0.273810 0
1.355634 0.273810 0
1.380282 0.273810 0
1.404930 0.273810 0
1.429577 0.273810 0
1.454225 0.273810 0
1.478873 0.273810 0
1.503521 0.273810 0
1.528169 0.273810 0
1.552817 0.273810 0
1.577465 0.273810 0
1.602113 0.273810 0
1.626761 0.273810 0
1.651408 0.273810 0
1.676056 0.273810 0
1.700704 0.273810 0
1.725352 0.273810 0
1.750000 0.273810 0
1.774648 0.273810 0
1.799296 0.273810 0
1.823944 0.273810 0
1.848592 0.273810 0
1.873239 0.273810 0
1.897887 0.273810 0
1.922535 0.273810 0
1.947183 0.273810 0
1.971831 0.273810 0
1.996479 0.273810 0
2.021127 0.273810 0
2.045775 0.273810 0
2.070423 0.273810 0
2.095070 0.273810 0
2.119718 0.273810 0
2.144366 0.273810 0
2.169014 0.273810 0
2.193662 0.273810 0
2.218310 0.273810 0
2.242958 0.273810 0
2.267606 0.273810 0
2.292254 0.273810 0
2.316901 0.273810 0
2.341549 0.273810 0
2.366197 0.273810 0
2.390845 0.273810 0
2.415493 0.273810 0
2.440141 0.273810 0
2.464789 0.273810 0
2.489437 0.273810 0
2.514085 0.273810 0
2.538732 0.273810 0
2.563380 0.273810 0
2.588028 0.273810 0
2.612676 0.273810 0
2.637324 0.273810 0
2.661972 0.273810 0
2.686620 0.273810 0
2.711268 0.273810 0
2.735915 0.273810 0
2.760563 0.273810 0
2.785211 0.273810 0
2.809859 0.273810 0
2.834507 0.273810 0
2.859155 0.273810 0
2.883803 0.273810 0
2.908451 0.273810 0
2.933099 0.273810 0
2.957746 0.273810 0
2.982394 0.273810 0
3.007042 0.273810 0
3.031690 0.273810 0
3.056338 0.273810 0
3.080986 0.273810 0
3.105634 0.273810 0
3.130282 0.273810 0
3.154930 0.273810 0
3.179577 0.273810 0
3.204225 0.273810 0
3.228873 0.273810 0
3.253521 0.273810 0
3.278169 0.273810 0
3.302817 0.273810 0
3.327465 0.273810 0
3.352113 0.273810 0
3.376761 0.273810 0
3.401408 0.273810 0
3.426056 0.273810 0
3.450704 0.273810 0
3.475352 0.273810 0
0.000000 0.285714 0
0.024648 0.285714 0
0.049296 0.285714 0
0.073944 0.285714 0
0.098592 0.285714 0
0.123239 0.285714 0
0.147887 0.285714 0
0.172535 0.285714 0
0.197183 0.285714 0
0.221831 0.285714 0
0.246479 0.285714 0
0.271127 0.285714 0
0.295775 0.285714 0
0.320423 0.285714 0
0.345070 0.285714 0
0.369718 0.285714 0
0.394366 0.285714 0
0.419014 0.285714 0
0.443662 0.285714 0
0.468310 0.285714 0
0.492958 0.285714 0
0.517606 0.285714 0
0.542254 0.285714 0
0.566901 0.285714 0
0.591549 0.285714 0
0.616197 0.285714 0
0.640845 0.285714 0
0.665493 0.285714 0
0.690141 0.285714 0
0.714789 0.285714 0
0.739437 0.285714 0
0.764085 0.285714 0
0.788732 0.285714 0
0.813380 0.285714 0
0.838028 0.285714 0
0.862676 0.285714 0
0.887324 0.285714 0
0.911972 0.285714 0
0.936620 0.285714 0
0.961268 0.285714 0
0.985915 0.285714 0
1.010563 0.285714 0
1.035211 0.285714 0
1.059859 0.285714 0
1.084507 0.285714 0
1.109155 0.285714 0
1.133803 0.285714 0
1.158451 0.285714 0
1.183099 0.285714 0
1.207746 0.285714 0
1.232394 0.285714 0
1.257042 0.285714 0
1.281690 0.285714 0
1.306338 0.285714 0
1.330986 0.285714 0
1.355634 0.285714 0
1.380282 0.285714 0
1.404930 0.285714 0
1.429577 0.285714 0
1.454225 0.285714 0
1.478873 0.285714 0
1.503521 0.285714 0
1.528169 0.285714 0
1.552817 0.285714 0
1.577465 0.285714 0
[...]
POINT_DATA 5964 

VECTORS velocity float
1.000000 0.000000 0
0.999854 0.000000 0
0.999556 0.000000 0
0.999097 0.000000 0
0.998458 0.000000 0
0.997615 0.000000 0
0.996532 0.000000 0
0.995162 0.000000 0
0.993440 0.000000 0
0.991276 0.000000 0
0.988544 0.000000 0
0.985063 0.000000 0
0.980562 0.000000 0
0.974615 0.000000 0
0.966518 0.000000 0
0.954935 0.000000 0
0.937385 0.000000 0
0.905762 0.000000 0
0.847696 0.000000 0
-0.000000 0.000000 0
-0.000000 0.000000 0
-0.000000 0.000000 0
-0.000000 0.000000 0
-0.000000 0.000000 0
-0.000000 0.000000 0
-0.000000 0.000000 0
-0.000000 0.000000 0
-0.000000 0.000000 0
-0.000000 0.000000 0
-0.000000 0.000000 0
-0.000000 0.000000 0
-0.000000 0.000000 0
-0.000000 0.000000 0
-0.000000 0.000000 0
-0.000000 0.000000 0
-0.000000 0.000000 0
-0.000000 0.000000 0
-0.000000 0.000000 0
-0.000000 0.000000 0
-0.000000 0.000000 0
-0.000000 0.000000 0
-0.000000 0.000000 0
-0.000000 0.000000 0
-0.000000 0.000000 0
-0.000000 0.000000 0
-0.000000 0.000000 0
-0.000000 0.000000 0
-0.000000 0.000000 0
-0.000000 0.000000 0
-0.000000 0.000000 0
-0.000000 0.000000 0
-0.000000 0.000000 0
-0.000000 0.000000 0
-0.000000 0.000000 0
-0.000000 0.000000 0
-0.000000 0.000000 0
-0.000000 0.000000 0
-0.000000 0.000000 0
-0.000000 0.000000 0
-0.000000 0.000000 0
-0.000000 0.000000 0
-0.000000 0.000000 0
-0.000000 0.000000 0
-0.000000 0.000000 0
-0.000000 0.000000 0
-0.000000 0.000000 0
-0.000000 0.000000 0
-0.000000 0.000000 0
-0.000000 0.000000 0
-0.000000 0.000000 0
-0.000000 0.000000 0
-0.000000 0.000000 0
-0.000000 0.000000 0
-0.000000 0.000000 0
-0.000000 0.000000 0
-0.000000 0.000000 0
-0.000000 0.000000 0
-0.000000 0.000000 0
-0.000000 0.000000 0
-0.000000 0.000000 0
-0.000000 0.000000 0
-0.000000 0.000000 0
-0.000000 0.000000 0
-0.000000 0.000000 0
-0.000001 0.000000 0
-0.000001 0.000000 0
-0.000001 0.000000 0
-0.000001 0.000000 0
-0.000001 0.000000 0
-0.000001 0.000000 0
-0.000001 0.000000 0
-0.000001 0.000000 0
-0.000001 0.000000 0
-0.000001 0.000000 0
-0.000001 0.000000 0
-0.000001 0.000000 0
-0.000001 0.000000 0
-0.000001 0.000000 0
-0.000001 0.000000 0
-0.000001 0.000000 0
-0.000001 0.000000 0
-0.000001 0.000000 0
-0.000001 0.000000 0
-0.000001 0.000000 0
-0.000001 0.000000 0
-0.000001 0.000000 0
-0.000001 0.000000 0
-0.000001 0.000000 0
-0.000001 0.000000 0
-0.000001 0.000000 0
-0.000001 0.000000 0
-0.000001 0.000000 0
-0.000001 0.000000 0
-0.000001 0.000000 0
-0.000001 0.000000 0
-0.000001 0.000000 0
-0.000001 0.000000 0
-0.000001 0.000000 0
-0.000001 0.000000 0
-0.000001 0.000000 0
-0.000001 0.000000 0
-0.000001 0.000000 0
-0.000001 0.000000 0
-0.000001 0.000000 0
-0.000001 0.000000 0
-0.000001 0.000000 0
-0.000001 0.000000 0
-0.000001 0.000000 0
-0.000001 0.000000 0
-0.000001 0.000000 0
-0.000001 0.000000 0
-0.000001 0.000000 0
-0.000001 0.000000 0
-0.000001 0.000000 0
-0.000001 0.000000 0
-0.000001 0.000000 0
-0.000000 0.000000 0
-0.000000 0.000000 0
0.000000 0.000000 0
0.000000 0.000000 0
-0.000000 0.000000 0
0.496605 0.000000 0
1.000000 0.000035 0
0.999854 0.000107 0
0.999558 0.000183 0
0.999101 0.000265 0
0.998465 0.000358 0
0.997626 0.000465 0
0.996549 0.000592 0
0.995187 0.000747 0
0.993475 0.000939 0
0.991325 0.001182 0
0.988615 0.001500 0
0.985165 0.001928 0
0.980714 0.002523 0
0.974851 0.003392 0
0.966904 0.004753 0
0.955643 0.007035 0
0.938827 0.011875 0
0.910183 0.021660 0
0.860877 0.078853 0
0.714890 0.110956 0
0.576508 0.072745 0
0.473021 0.041074 0
0.401071 0.022638 0
0.351168 0.013308 0
0.315506 0.008679 0
0.289002 0.006202 0
0.268563 0.004717 0
0.252304 0.003739 0
0.239039 0.003050 0
0.227994 0.002542 0
0.218640 0.002156 0
0.210608 0.001854 0
0.203629 0.001614 0
0.197503 0.001420 0
0.192079 0.001259 0
0.187238 0.001126 0
0.182888 0.001014 0
0.178956 0.000918 0
0.175380 0.000837 0
0.172113 0.000766 0
0.169113 0.000704 0
0.166348 0.000651 0
0.163789 0.000603 0
0.161411 0.000561 0
0.159195 0.000524 0
0.157123 0.000491 0
0.155181 0.000461 0
0.153355 0.000434 0
0.151634 0.000410 0
0.150008 0.000388 0
0.148469 0.000368 0
0.147010 0.000349 0
0.145624 0.000332 0
0.144304 0.000317 0
0.143047 0.000302 0
0.141847 0.000289 0
0.140700 0.000277 0
0.139604 0.000265 0
0.138553 0.000254 0
0.137547 0.000244 0
0.136582 0.000234 0
0.135656 0.000225 0
0.134766 0.000216 0
0.133912 0.000208 0
0.133091 0.000200 0
0.132303 0.000192 0
0.131545 0.000185 0
0.130817 0.000178 0
0.130117 0.000171 0
0.129445 0.000165 0
0.128800 0.000159 0
0.128181 0.000152 0
0.127588 0.000146 0
0.127021 0.000140 0
0.126478 0.000134 0
0.125960 0.000129 0
0.125466 0.000123 0
0.124997 0.000117 0
0.124553 0.000111 0
0.124134 0.000105 0
0.123739 0.000099 0
0.123370 0.000093 0
0.123027 0.000087 0
0.122710 0.000080 0
0.122420 0.000074 0
0.122157 0.000067 0
0.121922 0.000060 0
0.121714 0.000053 0
0.121535 0.000046 0
0.121384 0.000038 0
0.121260 0.000031 0
0.121165 0.000024 0
0.121097 0.000016 0
0.121057 0.000009 0
0.121043 0.000002 0
0.121055 -0.000005 0
0.121089 -0.000011 0
0.121146 -0.000017 0
0.121225 -0.000023 0
0.121324 -0.000029 0
0.121444 -0.000035 0
0.121585 -0.000041 0
0.121747 -0.000047 0
0.121931 -0.000054 0
0.122139 -0.000061 0
0.122373 -0.000069 0
0.122637 -0.000078 0
0.122933 -0.000088 0
0.123266 -0.000099 0
0.123641 -0.000112 0
0.124065 -0.000126 0
0.124545 -0.000144 0
0.125090 -0.000163 0
0.125710 -0.000186 0
0.126418 -0.000213 0
0.127228 -0.000244 0
0.128156 -0.000280 0
0.129222 -0.000323 0
0.130448 -0.000372 0
0.131863 -0.000431 0
0.133498 -0.000499 0
0.135393 -0.000580 0
0.137594 -0.000677 0
0.140158 -0.000792 0
0.143156 -0.000931 0
0.146675 -0.001100 0
0.150825 -0.001307 0
0.155745 -0.001563 0
0.161618 -0.001885 0
0.168683 -0.002298 0
0.177263 -0.002835 0
0.187808 -0.003554 0
0.200956 -0.004542 0
0.217646 -0.005952 0
0.239327 -0.008062 0
0.268333 -0.011425 0
0.308709 -0.017209 0
0.367769 -0.028851 0
0.462282 -0.051254 0
0.617928 -0.167156 0
0.993521 -0.268600 0
0.993522 -0.134300 0
1.000000 0.000070 0
0.999856 0.000213 0
0.999564 0.000364 0
0.999113 0.000528 0
0.998486 0.000712 0
0.997659 0.000926 0
0.996599 0.001178 0
0.995259 0.001485 0
0.993579 0.001865 0
0.991473 0.002347 0
0.988825 0.002975 0
0.985469 0.003816 0
0.981164 0.004982 0
0.975542 0.006670 0
0.968026 0.009277 0
0.957650 0.013561 0
0.942787 0.021957 0
0.920697 0.037649 0
0.888373 0.094325 0
0.891003 0.137349 0
0.842154 0.116821 0
0.771624 0.084735 0
0.701230 0.058854 0
0.639929 0.041327 0
0.589268 0.030026 0
0.547936 0.022673 0
0.514055 0.017725 0
0.485970 0.014260 0
0.462390 0.011742 0
0.442345 0.009853 0
0.425110 0.008397 0
0.410136 0.007250 0
0.397008 0.006330 0
0.385401 0.005579 0
0.375064 0.004958 0
0.365795 0.004439 0
0.357435 0.004000 0
0.349853 0.003626 0
0.342942 0.003305 0
0.336613 0.003027 0
0.330793 0.002784 0
0.325419 0.002572 0
0.320440 0.002385 0
0.315811 0.002219 0
0.311494 0.002071 0
0.307455 0.001939 0
0.303668 0.001820 0
0.300106 0.001713 0
0.296750 0.001616 0
0.293579 0.001528 0
0.290578 0.001448 0
0.287733 0.001374 0
0.285030 0.001307 0
0.282459 0.001245 0
0.280009 0.001187 0
0.277672 0.001133 0
0.275440 0.001084 0
0.273305 0.001037 0
0.271263 0.000993 0
0.269307 0.000952 0
0.267432 0.000914 0
0.265634 0.000877 0
0.263908 0.000842 0
0.262252 0.000809 0
0.260662 0.000777 0
0.259136 0.000747 0
0.257670 0.000718 0
0.256263 0.000690 0
0.254913 0.000662 0
0.253618 0.000636 0
0.252377 0.000610 0
0.251188 0.000585 0
0.250050 0.000561 0
0.248963 0.000536 0
0.247926 0.000512 0
0.246938 0.000489 0
0.245999 0.000465 0
0.245109 0.000441 0
0.244269 0.000417 0
0.243478 0.000393 0
0.242737 0.000369 0
0.242046 0.000344 0
0.241407 0.000319 0
0.240818 0.000293 0
0.240282 0.000267 0
0.239798 0.000241 0
0.239368 0.000214 0
0.238990 0.000187 0
0.238665 0.000160 0
0.238392 0.000133 0
0.238171 0.000106 0
0.238002 0.000079 0
0.237882 0.000052 0
0.237811 0.000026 0
0.237788 0.000001 0
0.237809 -0.000022 0
0.237872 -0.000044 0
0.237973 -0.000065 0
0.238112 -0.000086 0
0.238286 -0.000106 0
0.238495 -0.000126 0
0.238740 -0.000146 0
0.239020 -0.000167 0
0.239337 -0.000190 0
0.239695 -0.000214 0
0.240097 -0.000240 0
0.240547 -0.000270 0
0.241053 -0.000304 0
0.241620 -0.000342 0
0.242258 -0.000386 0
0.242979 -0.000437 0
0.243794 -0.000495 0
0.244718 -0.000563 0
0.245770 -0.000642 0
0.246968 -0.000733 0
0.248337 -0.000839 0
0.249904 -0.000963 0
0.251702 -0.001107 0
0.253768 -0.001276 0
0.256147 -0.001473 0
0.258891 -0.001705 0
0.262064 -0.001978 0
0.265741 -0.002302 0
0.270013 -0.002687 0
0.274991 -0.003148 0
0.280810 -0.003704 0
0.287640 -0.004381 0
0.295693 -0.005213 0
0.305241 -0.006249 0
0.316636 -0.007557 0
0.330342 -0.009238 0
0.346986 -0.011443 0
0.367431 -0.014412 0
0.392902 -0.018533 0
0.425186 -0.024481 0
0.466980 -0.033511 0
0.522522 -0.048027 0
0.598447 -0.074175 0
0.706075 -0.120825 0
0.859962 -0.256585 0
0.994240 -0.362818 0
0.994240 -0.181409 0
1.000000 0.000105 0
0.999859 0.000318 0
0.999574 0.000542 0
0.999133 0.000786 0
0.998521 0.001060 0
0.997714 0.001377 0
0.996681 0.001751 0
0.995379 0.002205 0
0.993750 0.002767 0
0.991715 0.003478 0
0.989169 0.004400 0
0.985963 0.005628 0
0.981888 0.007318 0
0.976643 0.009737 0
0.969784 0.013394 0
0.960675 0.019226 0
0.948433 0.029723 0
0.933031 0.047941 0
0.915089 0.093195 0
0.945334 0.133280 0
0.948630 0.130404 0
0.922945 0.109139 0
0.881989 0.086246 0
0.836599 0.067385 0
0.792551 0.053111 0
0.752221 0.042529 0
0.716240 0.034646 0
0.684476 0.028693 0
0.656510 0.024120 0
0.631857 0.020548 0
0.610051 0.017713 0
0.590680 0.015428 0
0.573389 0.013561 0
0.557879 0.012018 0
0.543900 0.010729 0
0.531242 0.009640 0
0.519730 0.008714 0
0.509216 0.007919 0
0.499576 0.007231 0
0.490703 0.006634 0
0.482508 0.006111 0
0.474915 0.005651 0
0.467856 0.005244 0
0.461276 0.004883 0
0.455125 0.004560 0
0.449359 0.004271 0
0.443943 0.004011 0
0.438842 0.003776 0
0.434028 0.003563 0
0.429477 0.003369 0
0.425165 0.003192 0
0.421074 0.003029 0
0.417185 0.002880 0
0.413484 0.002742 0
0.409956 0.002614 0
0.406589 0.002496 0
0.403372 0.002385 0
0.400296 0.002282 0
0.397352 0.002185 0
0.394532 0.002094 0
0.391828 0.002008 0
0.389236 0.001927 0
0.386749 0.001849 0
0.384362 0.001776 0
0.382071 0.001705 0
0.379871 0.001638 0
0.377761 0.001573 0
0.375735 0.001510 0
0.373792 0.001449 0
0.371929 0.001390 0
0.370144 0.001332 0
0.368436 0.001276 0
0.366803 0.001221 0
0.365244 0.001166 0
0.363757 0.001113 0
0.362343 0.001059 0
0.361001 0.001006 0
0.359730 0.000952 0
0.358532 0.000899 0
0.357405 0.000845 0
0.356351 0.000791 0
0.355370 0.000736 0
0.354463 0.000680 0
0.353629 0.000623 0
0.352870 0.000566 0
0.352185 0.000509 0
0.351575 0.000451 0
0.351039 0.000392 0
0.350577 0.000334 0
0.350188 0.000277 0
0.349870 0.000220 0
0.349623 0.000164 0
0.349443 0.000108 0
0.349328 0.000055 0
0.349277 0.000003 0
0.349287 -0.000045 0
0.349354 -0.000090 0
0.349472 -0.000133 0
0.349640 -0.000174 0
0.349855 -0.000214 0
0.350116 -0.000254 0
0.350423 -0.000294 0
0.350775 -0.000336 0
0.351176 -0.000380 0
0.351628 -0.000428 0
0.352135 -0.000481 0
0.352704 -0.000539 0
0.353342 -0.000606 0
0.354058 -0.000681 0
0.354862 -0.000768 0
0.355770 -0.000868 0
0.356795 -0.000984 0
0.357956 -0.001118 0
0.359276 -0.001273 0
0.360778 -0.001453 0
0.362492 -0.001662 0
0.364452 -0.001906 0
0.366697 -0.002189 0
0.369272 -0.002519 0
0.372233 -0.002905 0
0.375642 -0.003357 0
0.379574 -0.003889 0
0.384119 -0.004516 0
0.389382 -0.005260 0
0.395494 -0.006146 0
0.402610 -0.007209 0
0.410921 -0.008495 0
0.420665 -0.010064 0
0.432139 -0.012001 0
0.445722 -0.014421 0
0.461898 -0.017494 0
0.481306 -0.021467 0
0.504790 -0.026719 0
0.533497 -0.033847 0
0.569004 -0.043841 0
0.613496 -0.058437 0
0.670002 -0.080707 0
0.742376 -0.117506 0
0.834014 -0.177564 0
0.944253 -0.306337 0
0.995051 -0.398311 0
0.995051 -0.199155 0
1.000000 0.000138 0
0.999864 0.000419 0
0.999587 0.000715 0
0.999160 0.001037 0
0.998568 0.001398 0
0.997790 0.001814 0
0.996794 0.002306 0
0.995543 0.002901 0
0.993983 0.003635 0
0.992045 0.004560 0
0.989635 0.005754 0
0.986628 0.007332 0
0.982855 0.009483 0
0.978090 0.012517 0
0.972038 0.016990 0
0.964384 0.023874 0
0.954908 0.035309 0
0.945021 0.053754 0
0.937271 0.088383 0
0.965711 0.121148 0
0.987888 0.127635 0
0.990077 0.116922 0
0.975773 0.100558 0
0.951746 0.084525 0
0.923230 0.070780 0
0.893443 0.059531 0
0.864167 0.050445 0
0.836313 0.043109 0
0.810292 0.037157 0
0.786231 0.032292 0
0.764108 0.028285 0
0.743819 0.024958 0
0.725225 0.022172 0
0.708176 0.019822 0
0.692524 0.017823 0
0.678126 0.016113 0
0.664856 0.014639 0
0.652597 0.013361 0
0.641244 0.012247 0
0.630705 0.011270 0
0.620899 0.010410 0
0.611752 0.009649 0
0.603201 0.008972 0
0.595189 0.008368 0
0.587666 0.007827 0
0.580586 0.007340 0
0.573912 0.006900 0
0.567608 0.006502 0
0.561642 0.006140 0
0.555987 0.005809 0
0.550618 0.005507 0
0.545513 0.005229 0
0.540653 0.004973 0
0.536019 0.004736 0
0.531596 0.004517 0
0.527370 0.004313 0
0.523328 0.004123 0
0.519458 0.003945 0
0.515751 0.003778 0
0.512197 0.003620 0
0.508788 0.003471 0
0.505516 0.003330 0
0.502375 0.003196 0
0.499359 0.003068 0
0.496462 0.002946 0
0.493681 0.002829 0
0.491010 0.002716 0
0.488446 0.002607 0
0.485985 0.002501 0
0.483626 0.002398 0
0.481365 0.002297 0
0.479201 0.002199 0
0.477131 0.002103 0
0.475155 0.002007 0
0.473271 0.001913 0
0.471478 0.001820 0
0.469777 0.001727 0
0.468166 0.001634 0
0.466647 0.001540 0
0.465218 0.001446 0
0.463880 0.001352 0
0.462634 0.001256 0
0.461479 0.001160 0
0.460417 0.001063 0
0.459448 0.000965 0
0.458571 0.000866 0
0.457786 0.000767 0
0.457092 0.000669 0
0.456490 0.000571 0
0.455976 0.000474 0
0.455549 0.000379 0
0.455207 0.000285 0
0.454946 0.000194 0
0.454764 0.000106 0
0.454657 0.000021 0
0.454625 -0.000059 0
0.454661 -0.000134 0
0.454762 -0.000204 0
0.454923 -0.000271 0
0.455141 -0.000336 0
0.455414 -0.000400 0
0.455740 -0.000465 0
0.456122 -0.000531 0
0.456559 -0.000601 0
0.457055 -0.000677 0
0.457615 -0.000760 0
0.458243 -0.000853 0
0.458949 -0.000957 0
0.459742 -0.001076 0
0.460634 -0.001213 0
0.461640 -0.001370 0
0.462775 -0.001551 0
0.464060 -0.001761 0
0.465519 -0.002005 0
0.467178 -0.002287 0
0.469069 -0.002614 0
0.471228 -0.002994 0
0.473697 -0.003435 0
0.476525 -0.003950 0
0.479770 -0.004549 0
0.483499 -0.005251 0
0.487791 -0.006072 0
0.492739 -0.007039 0
0.498453 -0.008181 0
0.505065 -0.009536 0
0.512732 -0.011155 0
0.521646 -0.013101 0
0.532039 -0.015461 0
0.544198 -0.018351 0
0.558479 -0.021930 0
0.575326 -0.026424 0
0.595306 -0.032159 0
0.619139 -0.039620 0
0.647751 -0.049548 0
0.682324 -0.063120 0
0.724324 -0.082293 0
0.775413 -0.110275 0
0.836921 -0.153391 0
0.907249 -0.218331 0
0.978798 -0.334365 0
0.995823 -0.411886 0
0.995823 -0.205943 0
1.000000 0.000170 0
0.999869 0.000517 0
0.999604 0.000882 0
0.999195 0.001278 0
0.998628 0.001722 0
0.997884 0.002233 0
0.996936 0.002836 0
0.995748 0.003563 0
0.994274 0.004457 0
0.992454 0.005579 0
0.990210 0.007017 0
0.987441 0.008903 0
0.984023 0.011442 0
0.979806 0.014962 0
0.974638 0.020014 0
0.968469 0.027499 0
0.961562 0.039075 0
0.955833 0.056459 0
0.954479 0.083202 0
0.976674 0.108832 0
1.001714 0.118635 0
1.016364 0.114991 0
1.018683 0.104760 0
1.011400 0.092763 0
0.997808 0.081271 0
0.980487 0.071056 0
0.961216 0.062240 0
0.941161 0.054714 0
0.921074 0.048309 0
0.901425 0.042854 0
0.882496 0.038197 0
0.864446 0.034208 0
0.847347 0.030777 0
0.831220 0.027813 0
0.816049 0.025243 0
0.801800 0.023003 0
0.788424 0.021044 0
0.775870 0.019323 0
0.764080 0.017805 0
0.753001 0.016460 0
0.742580 0.015265 0
0.732765 0.014199 0
0.723511 0.013244 0
0.714773 0.012386 0
0.706512 0.011613 0
0.698691 0.010914 0
0.691276 0.010280 0
0.684237 0.009702 0
0.677547 0.009176 0
0.671178 0.008693 0
0.665110 0.008250 0
0.659321 0.007842 0
0.653792 0.007465 0
0.648505 0.007116 0
0.643447 0.006792 0
0.638602 0.006489 0
0.633957 0.006207 0
0.629502 0.005942 0
0.625226 0.005692 0
0.621119 0.005457 0
0.617173 0.005235 0
0.613380 0.005024 0
0.609734 0.004823 0
0.606228 0.004631 0
0.602857 0.004448 0
0.599615 0.004271 0
0.596499 0.004101 0
0.593505 0.003936 0
0.590628 0.003777 0
0.587867 0.003621 0
0.585218 0.003470 0
0.582680 0.003321 0
0.580250 0.003175 0
0.577928 0.003031 0
0.575712 0.002888 0
0.573601 0.002747 0
0.571595 0.002605 0
0.569694 0.002464 0
0.567897 0.002323 0
0.566205 0.002181 0
0.564618 0.002039 0
0.563135 0.001895 0
0.561758 0.001750 0
0.560486 0.001605 0
0.559320 0.001458 0
0.558259 0.001311 0
0.557303 0.001165 0
0.556450 0.001019 0
0.555700 0.000874 0
0.555051 0.000731 0
0.554500 0.000591 0
0.554044 0.000455 0
0.553681 0.000322 0
0.553406 0.000194 0
0.553215 0.000070 0
0.553106 -0.000047 0
0.553077 -0.000157 0
0.553124 -0.000259 0
0.553240 -0.000357 0
0.553422 -0.000451 0
0.553668 -0.000544 0
0.553975 -0.000636 0
0.554344 -0.000731 0
0.554776 -0.000831 0
0.555272 -0.000938 0
0.555837 -0.001054 0
0.556476 -0.001184 0
0.557197 -0.001330 0
0.558010 -0.001495 0
0.558927 -0.001684 0
0.559961 -0.001902 0
0.561129 -0.002153 0
0.562452 -0.002443 0
0.563952 -0.002779 0
0.565657 -0.003168 0
0.567599 -0.003618 0
0.569812 -0.004141 0
0.572341 -0.004747 0
0.575233 -0.005453 0
0.578547 -0.006274 0
0.582346 -0.007232 0
0.586710 -0.008352 0
0.591729 -0.009666 0
0.597508 -0.011213 0
0.604173 -0.013042 0
0.611874 -0.015218 0
0.620787 -0.017820 0
0.631126 -0.020957 0
0.643147 -0.024771 0
0.657160 -0.029456 0
0.673545 -0.035282 0
0.692764 -0.042629 0
0.715377 -0.052049 0
0.742057 -0.064365 0
0.773577 -0.080825 0
0.810730 -0.103399 0
0.854058 -0.135091 0
0.903126 -0.181182 0
0.953958 -0.246089 0
0.997507 -0.349118 0
0.996526 -0.414756 0
0.996526 -0.207377 0
1.000000 0.000201 0
0.999876 0.000611 0
0.999624 0.001041 0
0.999236 0.001508 0
0.998699 0.002031 0
0.997997 0.002631 0
0.997104 0.003338 0
0.995990 0.004186 0
0.994617 0.005226 0
0.992933 0.006523 0
0.990877 0.008175 0
0.988377 0.010320 0
0.985348 0.013171 0
0.981715 0.017049 0
0.977447 0.022466 0
0.972686 0.030190 0
0.967983 0.041412 0
0.965256 0.057175 0
0.967536 0.078317 0
0.984752 0.098334 0
1.007166 0.108465 0
1.025321 0.108727 0
1.035738 0.102956 0
1.038738 0.094608 0
1.035904 0.085710 0
1.028861 0.077204 0
1.018926 0.069440 0
1.007086 0.062498 0
0.994070 0.056349 0
0.980407 0.050925 0
0.966481 0.046146 0
0.952564 0.041935 0
0.938850 0.038220 0
0.925468 0.034938 0
0.912504 0.032033 0
0.900009 0.029455 0
0.888013 0.027163 0
0.876526 0.025119 0
0.865546 0.023292 0
0.855063 0.021655 0
0.845062 0.020184 0
0.835523 0.018859 0
0.826427 0.017662 0
0.817749 0.016578 0
0.809468 0.015594 0
0.801561 0.014699 0
0.794008 0.013881 0
0.786787 0.013133 0
0.779880 0.012447 0
0.773267 0.011816 0
0.766932 0.011234 0
0.760858 0.010696 0
0.755031 0.010197 0
0.749436 0.009733 0
0.744062 0.009301 0
0.738896 0.008897 0
0.733927 0.008518 0
0.729146 0.008162 0
0.724543 0.007827 0
0.720111 0.007510 0
0.715841 0.007209 0
0.711727 0.006923 0
0.707763 0.006651 0
0.703943 0.006390 0
0.700262 0.006140 0
0.696715 0.005899 0
0.693299 0.005667 0
0.690011 0.005442 0
0.686846 0.005224 0
0.683802 0.005011 0
0.680877 0.004803 0
0.678070 0.004599 0
0.675377 0.004398 0
0.672800 0.004199 0
0.670335 0.004003 0
0.667983 0.003808 0
0.665743 0.003614 0
0.663615 0.003420 0
0.661600 0.003225 0
0.659696 0.003030 0
0.657904 0.002834 0
0.656225 0.002637 0
0.654659 0.002439 0
0.653205 0.002240 0
0.651864 0.002040 0
0.650635 0.001840 0
0.649518 0.001641 0
0.648512 0.001443 0
0.647615 0.001247 0
0.646826 0.001054 0
0.646142 0.000865 0
0.645560 0.000681 0
0.645077 0.000503 0
0.644690 0.000331 0
0.644392 0.000166 0
0.644181 0.000007 0
0.644055 -0.000142 0
0.644014 -0.000282 0
0.644052 -0.000415 0
0.644163 -0.000542 0
0.644346 -0.000667 0
0.644597 -0.000791 0
0.644917 -0.000918 0
0.645304 -0.001049 0
0.645761 -0.001190 0
0.646291 -0.001342 0
0.646900 -0.001510 0
0.647593 -0.001698 0
0.648380 -0.001912 0
0.649271 -0.002155 0
0.650279 -0.002434 0
0.651422 -0.002755 0
0.652717 -0.003125 0
0.654186 -0.003553 0
0.655856 -0.004048 0
0.657757 -0.004621 0
0.659923 -0.005284 0
0.662394 -0.006054 0
0.665217 -0.006947 0
0.668445 -0.007985 0
0.672142 -0.009194 0
0.676379 -0.010604 0
0.681239 -0.012254 0
0.686822 -0.014192 0
0.693241 -0.016475 0
0.700631 -0.019179 0