# vtk DataFile Version 2.0
generated by CFD-lab course output (written by Tobias Neckel) 
ASCII

DATASET STRUCTURED_GRID
DIMENSIONS  142 42 1 
POINTS 5964 float

0.000000 0.250000 0
0.024648 0.250000 0
0.049296 0.250000 0
0.073944 0.250000 0
0.098592 0.250000 0
0.123239 0.250000 0
0.147887 0.250000 0
0.172535 0.250000 0
0.197183 0.250000 0
0.221831 0.250000 0
0.246479 0.250000 0
0.271127 0.250000 0
0.295775 0.250000 0
0.320423 0.250000 0
0.345070 0.250000 0
0.369718 0.250000 0
0.394366 0.250000 0
0.419014 0.250000 0
0.443662 0.250000 0
0.468310 0.250000 0
0.492958 0.250000 0
0.517606 0.250000 0
0.542254 0.250000 0
0.566901 0.250000 0
0.591549 0.250000 0
0.616197 0.250000 0
0.640845 0.250000 0
0.665493 0.250000 0
0.690141 0.250000 0
0.714789 0.250000 0
0.739437 0.250000 0
0.764085 0.250000 0
0.788732 0.250000 0
0.813380 0.250000 0
0.838028 0.250000 0
0.862676 0.250000 0
0.887324 0.250000 0
0.911972 0.250000 0
0.936620 0.250000 0
0.961268 0.250000 0
0.985915 0.250000 0
1.010563 0.250000 0
1.035211 0.250000 0
1.059859 0.250000 0
1.084507 0.250000 0
1.109155 0.250000 0
1.133803 0.250000 0
1.158451 0.250000 0
1.183099 0.250000 0
1.207746 0.250000 0
1.232394 0.250000 0
1.257042 0.250000 0
1.281690 0.250000 0
1.306338 0.250000 0
1.330986 0.250000 0
1.355634 0.250000 0
1.380282 0.250000 0
1.404930 0.250000 0
1.429577 0.250000 0
1.454225 0.250000 0
1.478873 0.250000 0
1.503521 0.250000 0
1.528169 0.250000 0
1.552817 0.250000 0
1.577465 0.250000 0
1.602113 0.250000 0
1.626761 0.250000 0
1.651408 0.250000 0
1.676056 0.250000 0
1.700704 0.250000 0
1.725352 0.250000 0
1.750000 0.250000 0
1.774648 0.250000 0
1.799296 0.250000 0
1.823944 0.250000 0
1.848592 0.250000 0
1.873239 0.250000 0
1.897887 0.250000 0
1.922535 0.250000 0
1.947183 0.250000 0
1.971831 0.250000 0
1.996479 0.250000 0
2.021127 0.250000 0
2.045775 0.250000 0
2.070423 0.250000 0
2.095070 0.250000 0
2.119718 0.250000 0
2.144366 0.250000 0
2.169014 0.250000 0
2.193662 0.250000 0
2.218310 0.250000 0
2.242958 0.250000 0
2.267606 0.250000 0
2.292254 0.250000 0
2.316901 0.250000 0
2.341549 0.250000 0
2.366197 0.250000 0
2.390845 0.250000 0
2.415493 0.250000 0
2.440141 0.250000 0
2.464789 0.250000 0
2.489437 0.250000 0
2.514085 0.250000 0
2.538732 0.250000 0
2.563380 0.250000 0
2.588028 0.250000 0
2.612676 0.250000 0
2.637324 0.250000 0
2.661972 0.250000 0
2.686620 0.250000 0
2.711268 0.250000 0
2.735915 0.250000 0
2.760563 0.250000 0
2.785211 0.250000 0
2.809859 0.250000 0
2.834507 0.250000 0
2.859155 0.250000 0
2.883803 0.250000 0
2.908451 0.250000 0
2.933099 0.250000 0
2.957746 0.250000 0
2.982394 0.250000 0
3.007042 0.250000 0
3.031690 0.250000 0
3.056338 0.250000 0
3.080986 0.250000 0
3.105634 0.250000 0
3.130282 0.250000 0
3.154930 0.250000 0
3.179577 0.250000 0
3.204225 0.250000 0
3.228873 0.250000 0
3.253521 0.250000 0
3.278169 0.250000 0
3.302817 0.250000 0
3.327465 0.250000 0
3.352113 0.250000 0
3.376761 0.250000 0
3.401408 0.250000 0
3.426056 0.250000 0
3.450704 0.250000 0
3.475352 0.250000 0
0.000000 0.261905 0
0.024648 0.261905 0
0.049296 0.261905 0
0.073944 0.261905 0
0.098592 0.261905 0
0.123239 0.261905 0
0.147887 0.261905 0
0.172535 0.261905 0
0.197183 0.261905 0
0.221831 0.261905 0
0.246479 0.261905 0
0.271127 0.261905 0
0.295775 0.261905 0
0.320423 0.261905 0
0.345070 0.261905 0
0.369718 0.261905 0
0.394366 0.261905 0
0.419014 0.261905 0
0.443662 0.261905 0
0.468310 0.261905 0
0.492958 0.261905 0
0.517606 0.261905 0
0.542254 0.261905 0
0.566901 0.261905 0
0.591549 0.261905 0
0.616197 0.261905 0
0.640845 0.261905 0
0.665493 0.261905 0
0.690141 0.261905 0
0.714789 0.261905 0
0.739437 0.261905 0
0.764085 0.261905 0
0.788732 0.261905 0
0.813380 0.261905 0
0.838028 0.261905 0
0.862676 0.261905 0
0.887324 0.261905 0
0.911972 0.261905 0
0.936620 0.261905 0
0.961268 0.261905 0
0.985915 0.261905 0
1.010563 0.261905 0
1.035211 0.261905 0
1.059859 0.261905 0
1.084507 0.261905 0
1.109155 0.261905 0
1.133803 0.261905 0
1.158451 0.261905 0
1.183099 0.261905 0
1.207746 0.261905 0
1.232394 0.261905 0
1.257042 0.261905 0
1.281690 0.261905 0
1.306338 0.261905 0
1.330986 0.261905 0
1.355634 0.261905 0
1.380282 0.261905 0
1.404930 0.261905 0
1.429577 0.261905 0
1.454225 0.261905 0
1.478873 0.261905 0
1.503521 0.261905 0
1.528169 0.261905 0
1.552817 0.261905 0
1.577465 0.261905 0
1.602113 0.261905 0
1.626761 0.261905 0
1.651408 0.261905 0
1.676056 0.261905 0
1.700704 0.261905 0
1.725352 0.261905 0
1.750000 0.261905 0
1.774648 0.261905 0
1.799296 0.261905 0
1.823944 0.261905 0
1.848592 0.261905 0
1.873239 0.261905 0
1.897887 0.261905 0
1.922535 0.261905 0
1.947183 0.261905 0
1.971831 0.261905 0
1.996479 0.261905 0
2.021127 0.261905 0
2.045775 0.261905 0
2.070423 0.261905 0
2.095070 0.261905 0
2.119718 0.261905 0
2.144366 0.261905 0
2.169014 0.261905 0
2.193662 0.261905 0
2.218310 0.261905 0
2.242958 0.261905 0
2.267606 0.261905 0
2.292254 0.261905 0
2.316901 0.261905 0
2.341549 0.261905 0
2.366197 0.261905 0
2.390845 0.261905 0
2.415493 0.261905 0
2.440141 0.261905 0
2.464789 0.261905 0
2.489437 0.261905 0
2.514085 0.261905 0
2.538732 0.261905 0
2.563380 0.261905 0
2.588028 0.261905 0
2.612676 0.261905 0
2.637324 0.261905 0
2.661972 0.261905 0
2.686620 0.261905 0
2.711268 0.261905 0
2.735915 0.261905 0
2.760563 0.261905 0
2.785211 0.261905 0
2.809859 0.261905 0
2.834507 0.261905 0
2.859155 0.261905 0
2.883803 0.261905 0
2.908451 0.261905 0
2.933099 0.261905 0
2.957746 0.261905 0
2.982394 0.261905 0
3.007042 0.261905 0
3.031690 0.261905 0
3.056338 0.261905 0
3.080986 0.261905 0
3.105634 0.261905 0
3.130282 0.261905 0
3.154930 0.261905 0
3.179577 0.261905 0
3.204225 0.261905 0
3.228873 0.261905 0
3.253521 0.261905 0
3.278169 0.261905 0
3.302817 0.261905 0
3.327465 0.261905 0
3.352113 0.261905 0
3.376761 0.261905 0
3.401408 0.261905 0
3.426056 0.261905 0
3.450704 0.261905 0
3.475352 0.261905 0
0.000000 0.273810 0
0.024648 0.273810 0
0.049296 0.273810 0
0.073944 0.273810 0
0.098592 0.273810 0
0.123239 0.273810 0
0.147887 0.273810 0
0.172535 0.273810 0
0.197183 0.273810 0
0.221831 0.273810 0
0.246479 0.273810 0
0.271127 0.273810 0
0.295775 0.273810 0
0.320423 0.273810 0
0.345070 0.273810 0
0.369718 0.273810 0
0.394366 0.273810 0
0.419014 0.273810 0
0.443662 0.273810 0
0.468310 0.273810 0
0.492958 0.273810 0
0.517606 0.273810 0
0.542254 0.273810 0
0.566901 0.273810 0
0.591549 0.273810 0
0.616197 0.273810 0
0.640845 0.273810 0
0.665493 0.273810 0
0.690141 0.273810 0
0.714789 0.273810 0
0.739437 0.273810 0
0.764085 0.273810 0
0.788732 0.273810 0
0.813380 0.273810 0
0.838028 0.273810 0
0.862676 0.273810 0
0.887324 0.273810 0
0.911972 0.273810 0
0.936620 0.273810 0
0.961268 0.273810 0
0.985915 0.273810 0
1.010563 0.273810 0
1.035211 0.273810 0
1.059859 0.273810 0
1.084507 0.273810 0
1.109155 0.273810 0
1.133803 0.273810 0
1.158451 0.273810 0
1.183099 0.273810 0
1.207746 0.273810 0
1.232394 0.273810 0
1.257042 0.273810 0
1.281690 0.273810 0
1.306338 0.273810 0
1.330986 0.273810 0
1.355634 0.273810 0
1.380282 0.273810 0
1.404930 0.273810 0
1.429577 0.273810 0
1.454225 0.273810 0
1.478873 0.273810 0
1.503521 0.273810 0
1.528169 0.273810 0
1.552817 0.273810 0
1.577465 0.273810 0
1.602113 0.273810 0
1.626761 0.273810 0
1.651408 0.273810 0
1.676056 0.273810 0
1.700704 0.273810 0
1.725352 0.273810 0
1.750000 0.273810 0
1.774648 0.273810 0
1.799296 0.273810 0
1.823944 0.273810 0
1.848592 0.273810 0
1.873239 0.273810 0
1.897887 0.273810 0
1.922535 0.273810 0
1.947183 0.273810 0
1.971831 0.273810 0
1.996479 0.273810 0
2.021127 0.273810 0
2.045775 0.273810 0
2.070423 0.273810 0
2.095070 0.273810 0
2.119718 0.273810 0
2.144366 0.273810 0
2.169014 0.273810 0
2.193662 0.273810 0
2.218310 0.273810 0
2.242958 0.273810 0
2.267606 0.273810 0
2.292254 0.273810 0
2.316901 0.273810 0
2.341549 0.273810 0
2.366197 0.273810 0
2.390845 0.273810 0
2.415493 0.273810 0
2.440141 0.273810 0
2.464789 0.273810 0
2.489437 0.273810 0
2.514085 0.273810 0
2.538732 0.273810 0
2.563380 0.273810 0
2.588028 0.273810 0
2.612676 0.273810 0
2.637324 0.273810 0
2.661972 0.273810 0
2.686620 0.273810 0
2.711268 0.273810 0
2.735915 0.273810 0
2.760563 0.273810 0
2.785211 0.273810 0
2.809859 0.273810 0
2.834507 0.273810 0
2.859155 0.273810 0
2.883803 0.273810 0
2.908451 0.273810 0
2.933099 0.273810 0
2.957746 0.273810 0
2.982394 0.273810 0
3.007042 0.273810 0
3.031690 0.273810 0
3.056338 0.273810 0
3.080986 0.273810 0
3.105634 0.273810 0
3.130282 0.273810 0
3.154930 0.273810 0
3.179577 0.273810 0
3.204225 0.273810 0
3.228873 0.273810 0
3.253521 0.273810 0
3.278169 0.273810 0
3.302817 0.273810 0
3.327465 0.273810 0
3.352113 0.273810 0
3.376761 0.273810 0
3.401408 0.273810 0
3.426056 0.273810 0
3.450704 0.273810 0
3.475352 0.273810 0
0.000000 0.285714 0
0.024648 0.285714 0
0.049296 0.285714 0
0.073944 0.285714 0
0.098592 0.285714 0
0.123239 0.285714 0
0.147887 0.285714 0
0.172535 0.285714 0
0.197183 0.285714 0
0.221831 0.285714 0
0.246479 0.285714 0
0.271127 0.285714 0
0.295775 0.285714 0
0.320423 0.285714 0
0.345070 0.285714 0
0.369718 0.285714 0
0.394366 0.285714 0
0.419014 0.285714 0
0.443662 0.285714 0
0.468310 0.285714 0
0.492958 0.285714 0
0.517606 0.285714 0
0.542254 0.285714 0
0.566901 0.285714 0
0.591549 0.285714 0
0.616197 0.285714 0
0.640845 0.285714 0
0.665493 0.285714 0
0.690141 0.285714 0
0.714789 0.285714 0
0.739437 0.285714 0
0.764085 0.285714 0
0.788732 0.285714 0
0.813380 0.285714 0
0.838028 0.285714 0
0.862676 0.285714 0
0.887324 0.285714 0
0.911972 0.285714 0
0.936620 0.285714 0
0.961268 0.285714 0
0.985915 0.285714 0
1.010563 0.285714 0
1.035211 0.285714 0
1.059859 0.285714 0
1.084507 0.285714 0
1.109155 0.285714 0
1.133803 0.285714 0
1.158451 0.285714 0
1.183099 0.285714 0
1.207746 0.285714 0
1.232394 0.285714 0
1.257042 0.285714 0
1.281690 0.285714 0
1.306338 0.285714 0
1.330986 0.285714 0
1.355634 0.285714 0
1.380282 0.285714 0
1.404930 0.285714 0
1.429577 0.285714 0
1.454225 0.285714 0
1.478873 0.285714 0
1.503521 0.285714 0
1.528169 0.285714 0
1.552817 0.285714 0
1.577465 0.285714 0
[...]
POINT_DATA 5964 

VECTORS velocity float
1.000000 0.000000 0
0.999854 0.000000 0
0.999557 0.000000 0
0.999099 0.000000 0
0.998461 0.000000 0
0.997620 0.000000 0
0.996539 0.000000 0
0.995172 0.000000 0
0.993453 0.000000 0
0.991293 0.000000 0
0.988567 0.000000 0
0.985092 0.000000 0
0.980600 0.000000 0
0.974664 0.000000 0
0.966578 0.000000 0
0.955010 0.000000 0
0.937478 0.000000 0
0.905877 0.000000 0
0.847841 0.000000 0
-0.000000 0.000000 0
-0.000000 0.000000 0
-0.000000 0.000000 0
-0.000000 0.000000 0
-0.000000 0.000000 0
-0.000000 0.000000 0
-0.000000 0.000000 0
-0.000000 0.000000 0
-0.000000 0.000000 0
-0.000000 0.000000 0
-0.000000 0.000000 0
-0.000000 0.000000 0
-0.000000 0.000000 0
-0.000000 0.000000 0
-0.000000 0.000000 0
-0.000000 0.000000 0
-0.000000 0.000000 0
-0.000000 0.000000 0
-0.000000 0.000000 0
-0.000001 0.000000 0
-0.000001 0.000000 0
-0.000001 0.000000 0
-0.000001 0.000000 0
-0.000001 0.000000 0
-0.000001 0.000000 0
-0.000001 0.000000 0
-0.000001 0.000000 0
-0.000001 0.000000 0
-0.000001 0.000000 0
-0.000002 0.000000 0
-0.000002 0.000000 0
-0.000002 0.000000 0
-0.000002 0.000000 0
-0.000003 0.000000 0
-0.000003 0.000000 0
-0.000003 0.000000 0
-0.000004 0.000000 0
-0.000004 0.000000 0
-0.000004 0.000000 0
-0.000004 0.000000 0
-0.000004 0.000000 0
-0.000004 0.000000 0
-0.000005 0.000000 0
-0.000005 0.000000 0
-0.000005 0.000000 0
-0.000005 0.000000 0
-0.000004 0.000000 0
-0.000004 0.000000 0
-0.000004 0.000000 0
-0.000004 0.000000 0
-0.000004 0.000000 0
-0.000004 0.000000 0
-0.000004 0.000000 0
-0.000004 0.000000 0
-0.000004 0.000000 0
-0.000004 0.000000 0
-0.000004 0.000000 0
-0.000004 0.000000 0
-0.000004 0.000000 0
-0.000004 0.000000 0
-0.000004 0.000000 0
-0.000004 0.000000 0
-0.000004 0.000000 0
-0.000004 0.000000 0
-0.000004 0.000000 0
-0.000004 0.000000 0
-0.000004 0.000000 0
-0.000004 0.000000 0
-0.000004 0.000000 0
-0.000004 0.000000 0
-0.000004 0.000000 0
-0.000004 0.000000 0
-0.000004 0.000000 0
-0.000004 0.000000 0
-0.000004 0.000000 0
-0.000004 0.000000 0
-0.000004 0.000000 0
-0.000004 0.000000 0
-0.000004 0.000000 0
-0.000004 0.000000 0
-0.000004 0.000000 0
-0.000004 0.000000 0
-0.000004 0.000000 0
-0.000004 0.000000 0
-0.000004 0.000000 0
-0.000004 0.000000 0
-0.000004 0.000000 0
-0.000004 0.000000 0
-0.000004 0.000000 0
-0.000004 0.000000 0
-0.000004 0.000000 0
-0.000004 0.000000 0
-0.000004 0.000000 0
-0.000004 0.000000 0
-0.000004 0.000000 0
-0.000004 0.000000 0
-0.000004 0.000000 0
-0.000004 0.000000 0
-0.000004 0.000000 0
-0.000004 0.000000 0
-0.000004 0.000000 0
-0.000004 0.000000 0
-0.000004 0.000000 0
-0.000004 0.000000 0
-0.000003 0.000000 0
-0.000003 0.000000 0
-0.000003 0.000000 0
-0.000003 0.000000 0
-0.000003 0.000000 0
-0.000003 0.000000 0
-0.000003 0.000000 0
-0.000003 0.000000 0
-0.000003 0.000000 0
-0.000003 0.000000 0
-0.000003 0.000000 0
-0.000002 0.000000 0
-0.000002 0.000000 0
-0.000002 0.000000 0
-0.000001 0.000000 0
-0.000000 0.000000 0
0.000000 0.000000 0
-0.000000 0.000000 0
0.496892 0.000000 0
1.000000 0.000035 0
0.999855 0.000107 0
0.999559 0.000182 0
0.999103 0.000265 0
0.998468 0.000357 0
0.997631 0.000464 0
0.996556 0.000591 0
0.995196 0.000745 0
0.993488 0.000937 0
0.991343 0.001180 0
0.988638 0.001497 0
0.985195 0.001924 0
0.980752 0.002519 0
0.974899 0.003386 0
0.966964 0.004746 0
0.955718 0.007027 0
0.938920 0.011866 0
0.910297 0.021647 0
0.861020 0.078845 0
0.715056 0.110956 0
0.576697 0.072745 0
0.473235 0.041072 0
0.401316 0.022633 0
0.351451 0.013300 0
0.315833 0.008667 0
0.289382 0.006187 0
0.269004 0.004701 0
0.252815 0.003720 0
0.239629 0.003029 0
0.228672 0.002519 0
0.219419 0.002130 0
0.211500 0.001825 0
0.204647 0.001582 0
0.198662 0.001384 0
0.193394 0.001220 0
0.188727 0.001083 0
0.184571 0.000966 0
0.180852 0.000866 0
0.177513 0.000779 0
0.174507 0.000703 0
0.171796 0.000635 0
0.169349 0.000575 0
0.167139 0.000521 0
0.165148 0.000471 0
0.163359 0.000424 0
0.161760 0.000381 0
0.160342 0.000339 0
0.159100 0.000297 0
0.158030 0.000256 0
0.157129 0.000215 0
0.156397 0.000174 0
0.155832 0.000132 0
0.155430 0.000091 0
0.155185 0.000051 0
0.155088 0.000014 0
0.155121 -0.000018 0
0.155258 -0.000044 0
0.155479 -0.000065 0
0.155761 -0.000080 0
0.156084 -0.000090 0
0.156429 -0.000095 0
0.156781 -0.000096 0
0.157125 -0.000093 0
0.157451 -0.000088 0
0.157751 -0.000081 0
0.158022 -0.000072 0
0.158260 -0.000064 0
0.158465 -0.000055 0
0.158638 -0.000046 0
0.158781 -0.000038 0
0.158897 -0.000031 0
0.158989 -0.000024 0
0.159061 -0.000019 0
0.159116 -0.000014 0
0.159156 -0.000011 0
0.159186 -0.000008 0
0.159207 -0.000005 0
0.159222 -0.000004 0
0.159231 -0.000002 0
0.159238 -0.000002 0
0.159243 -0.000001 0
0.159247 -0.000001 0
0.159250 -0.000001 0
0.159254 -0.000001 0
0.159258 -0.000001 0
0.159264 -0.000002 0
0.159271 -0.000002 0
0.159280 -0.000003 0
0.159291 -0.000003 0
0.159305 -0.000004 0
0.159321 -0.000005 0
0.159340 -0.000006 0
0.159362 -0.000007 0
0.159389 -0.000008 0
0.159420 -0.000010 0
0.159455 -0.000011 0
0.159497 -0.000013 0
0.159545 -0.000015 0
0.159601 -0.000017 0
0.159666 -0.000020 0
0.159740 -0.000023 0
0.159826 -0.000027 0
0.159926 -0.000031 0
0.160040 -0.000036 0
0.160173 -0.000041 0
0.160325 -0.000048 0
0.160502 -0.000055 0
0.160705 -0.000064 0
0.160939 -0.000073 0
0.161210 -0.000085 0
0.161523 -0.000098 0
0.161884 -0.000113 0
0.162301 -0.000130 0
0.162783 -0.000151 0
0.163341 -0.000174 0
0.163986 -0.000202 0
0.164733 -0.000234 0
0.165598 -0.000272 0
0.166603 -0.000315 0
0.167770 -0.000367 0
0.169128 -0.000428 0
0.170711 -0.000500 0
0.172560 -0.000586 0
0.174725 -0.000688 0
0.177269 -0.000812 0
0.180268 -0.000962 0
0.183819 -0.001146 0
0.188046 -0.001375 0
0.193111 -0.001663 0
0.199227 -0.002031 0
0.206685 -0.002513 0
0.215888 -0.003158 0
0.227415 -0.004050 0
0.242131 -0.005332 0
0.261384 -0.007272 0
0.287388 -0.010411 0
0.324059 -0.015921 0
0.378645 -0.027289 0
0.468035 -0.049689 0
0.619042 -0.167228 0
0.994107 -0.270187 0
0.994107 -0.135094 0
1.000000 0.000070 0
0.999857 0.000213 0
0.999565 0.000363 0
0.999115 0.000527 0
0.998489 0.000711 0
0.997664 0.000924 0
0.996606 0.001176 0
0.995269 0.001482 0
0.993592 0.001861 0
0.991491 0.002343 0
0.988848 0.002969 0
0.985499 0.003809 0
0.981201 0.004973 0
0.975589 0.006659 0
0.968086 0.009264 0
0.957724 0.013545 0
0.942879 0.021938 0
0.920811 0.037625 0
0.888512 0.094300 0
0.891186 0.137326 0
0.842390 0.116798 0
0.771920 0.084708 0
0.701593 0.058821 0
0.640368 0.041287 0
0.589794 0.029979 0
0.548562 0.022618 0
0.514795 0.017662 0
0.486840 0.014188 0
0.463408 0.011661 0
0.443531 0.009761 0
0.426485 0.008294 0
0.411725 0.007135 0
0.398837 0.006201 0
0.387500 0.005435 0
0.377466 0.004798 0
0.368535 0.004262 0
0.360553 0.003804 0
0.353391 0.003409 0
0.346947 0.003065 0
0.341137 0.002761 0
0.335893 0.002492 0
0.331158 0.002249 0
0.326888 0.002029 0
0.323044 0.001826 0
0.319598 0.001636 0
0.316527 0.001457 0
0.313814 0.001285 0
0.311446 0.001117 0
0.309415 0.000952 0
0.307713 0.000788 0
0.306334 0.000627 0
0.305269 0.000467 0
0.304507 0.000312 0
0.304032 0.000165 0
0.303822 0.000031 0
0.303850 -0.000082 0
0.304069 -0.000173 0
0.304437 -0.000243 0
0.304914 -0.000292 0
0.305464 -0.000323 0
0.306054 -0.000337 0
0.306654 -0.000336 0
0.307242 -0.000324 0
0.307799 -0.000303 0
0.308312 -0.000276 0
0.308774 -0.000246 0
0.309180 -0.000214 0
0.309529 -0.000183 0
0.309824 -0.000153 0
0.310067 -0.000125 0
0.310264 -0.000101 0
0.310421 -0.000079 0
0.310543 -0.000061 0
0.310636 -0.000046 0
0.310705 -0.000034 0
0.310756 -0.000024 0
0.310792 -0.000017 0
0.310818 -0.000012 0
0.310835 -0.000008 0
0.310848 -0.000006 0
0.310857 -0.000004 0
0.310864 -0.000003 0
0.310870 -0.000003 0
0.310877 -0.000004 0
0.310885 -0.000005 0
0.310895 -0.000006 0
0.310908 -0.000008 0
0.310923 -0.000010 0
0.310941 -0.000012 0
0.310963 -0.000014 0
0.310990 -0.000017 0
0.311021 -0.000020 0
0.311058 -0.000024 0
0.311101 -0.000028 0
0.311151 -0.000032 0
0.311209 -0.000037 0
0.311277 -0.000043 0
0.311355 -0.000050 0
0.311446 -0.000058 0
0.311551 -0.000067 0
0.311673 -0.000078 0
0.311813 -0.000090 0
0.311975 -0.000103 0
0.312161 -0.000119 0
0.312377 -0.000138 0
0.312626 -0.000159 0
0.312913 -0.000183 0
0.313244 -0.000212 0
0.313626 -0.000244 0
0.314067 -0.000282 0
0.314577 -0.000325 0
0.315165 -0.000376 0
0.315845 -0.000434 0
0.316630 -0.000502 0
0.317538 -0.000581 0
0.318588 -0.000672 0
0.319803 -0.000779 0
0.321212 -0.000903 0
0.322844 -0.001049 0
0.324739 -0.001220 0
0.326942 -0.001420 0
0.329506 -0.001658 0
0.332497 -0.001939 0
0.335992 -0.002274 0
0.340087 -0.002677 0
0.344902 -0.003164 0
0.350583 -0.003757 0
0.357317 -0.004488 0
0.365342 -0.005400 0
0.374969 -0.006556 0
0.386611 -0.008047 0
0.400830 -0.010012 0
0.418408 -0.012675 0
0.440466 -0.016407 0
0.468668 -0.021859 0
0.505571 -0.030272 0
0.555274 -0.044076 0
0.624344 -0.069539 0
0.724099 -0.116110 0
0.869885 -0.254089 0
0.994869 -0.362307 0
0.994869 -0.181153 0
1.000000 0.000105 0
0.999860 0.000317 0
0.999575 0.000541 0
0.999135 0.000784 0
0.998524 0.001058 0
0.997719 0.001374 0
0.996688 0.001748 0
0.995389 0.002201 0
0.993763 0.002762 0
0.991732 0.003471 0
0.989191 0.004392 0
0.985992 0.005617 0
0.981925 0.007305 0
0.976690 0.009721 0
0.969842 0.013375 0
0.960747 0.019202 0
0.948523 0.029695 0
0.933142 0.047906 0
0.915226 0.093154 0
0.945511 0.133233 0
0.948863 0.130350 0
0.923246 0.109076 0
0.882372 0.086171 0
0.837078 0.067297 0
0.793142 0.053009 0
0.752941 0.042412 0
0.717110 0.034512 0
0.685517 0.028540 0
0.657747 0.023947 0
0.633317 0.020352 0
0.611765 0.017492 0
0.592682 0.015179 0
0.575716 0.013283 0
0.560574 0.011706 0
0.547009 0.010380 0
0.534816 0.009251 0
0.523826 0.008281 0
0.513896 0.007437 0
0.504908 0.006697 0
0.496765 0.006042 0
0.489383 0.005455 0
0.482695 0.004924 0
0.476645 0.004440 0
0.471187 0.003992 0
0.466284 0.003572 0
0.461906 0.003174 0
0.458030 0.002793 0
0.454640 0.002422 0
0.451719 0.002059 0
0.449256 0.001703 0
0.447238 0.001354 0
0.445649 0.001015 0
0.444470 0.000688 0
0.443676 0.000381 0
0.443236 0.000102 0
0.443117 -0.000137 0
0.443269 -0.000327 0
0.443634 -0.000473 0
0.444160 -0.000576 0
0.444797 -0.000640 0
0.445501 -0.000670 0
0.446233 -0.000670 0
0.446962 -0.000646 0
0.447663 -0.000605 0
0.448317 -0.000552 0
0.448910 -0.000492 0
0.449437 -0.000428 0
0.449894 -0.000365 0
0.450283 -0.000306 0
0.450607 -0.000251 0
0.450871 -0.000201 0
0.451084 -0.000159 0
0.451250 -0.000123 0
0.451379 -0.000093 0
0.451476 -0.000069 0
0.451548 -0.000050 0
0.451601 -0.000035 0
0.451639 -0.000024 0
0.451666 -0.000017 0
0.451685 -0.000012 0
0.451699 -0.000009 0
0.451710 -0.000008 0
0.451720 -0.000008 0
0.451730 -0.000008 0
0.451742 -0.000010 0
0.451755 -0.000013 0
0.451770 -0.000015 0
0.451789 -0.000019 0
0.451812 -0.000023 0
0.451838 -0.000028 0
0.451871 -0.000033 0
0.451908 -0.000039 0
0.451953 -0.000046 0
0.452005 -0.000053 0
0.452065 -0.000062 0
0.452135 -0.000072 0
0.452217 -0.000084 0
0.452311 -0.000097 0
0.452421 -0.000112 0
0.452547 -0.000130 0
0.452693 -0.000150 0
0.452861 -0.000173 0
0.453056 -0.000199 0
0.453281 -0.000230 0
0.453540 -0.000266 0
0.453839 -0.000306 0
0.454184 -0.000354 0
0.454583 -0.000408 0
0.455043 -0.000471 0
0.455573 -0.000544 0
0.456186 -0.000628 0
0.456894 -0.000725 0
0.457711 -0.000838 0
0.458655 -0.000968 0
0.459745 -0.001120 0
0.461007 -0.001296 0
0.462466 -0.001501 0
0.464155 -0.001740 0
0.466112 -0.002019 0
0.468382 -0.002346 0
0.471016 -0.002730 0
0.474078 -0.003183 0
0.477643 -0.003718 0
0.481801 -0.004355 0
0.486660 -0.005115 0
0.492354 -0.006031 0
0.499048 -0.007142 0
0.506945 -0.008503 0
0.516304 -0.010189 0
0.527454 -0.012304 0
0.540822 -0.015004 0
0.556973 -0.018515 0
0.576666 -0.023193 0
0.600940 -0.029608 0
0.631246 -0.038717 0
0.669628 -0.052241 0
0.718949 -0.073288 0
0.782902 -0.108831 0
0.864534 -0.168284 0
0.963024 -0.298008 0
0.995751 -0.390918 0
0.995751 -0.195458 0
1.000000 0.000138 0
0.999864 0.000418 0
0.999588 0.000713 0
0.999162 0.001035 0
0.998571 0.001395 0
0.997794 0.001810 0
0.996801 0.002301 0
0.995552 0.002895 0
0.993996 0.003627 0
0.992062 0.004551 0
0.989657 0.005742 0
0.986656 0.007318 0
0.982891 0.009466 0
0.978135 0.012495 0
0.972094 0.016964 0
0.964454 0.023842 0
0.954996 0.035271 0
0.945130 0.053708 0
0.937404 0.088326 0
0.965878 0.121079 0
0.988104 0.127552 0
0.990355 0.116822 0
0.976130 0.100439 0
0.952197 0.084385 0
0.923796 0.070616 0
0.894145 0.059341 0
0.865030 0.050227 0
0.837362 0.042860 0
0.811557 0.036873 0
0.787746 0.031970 0
0.765908 0.027921 0
0.745946 0.024546 0
0.727724 0.021709 0
0.711097 0.019301 0
0.695923 0.017239 0
0.682066 0.015459 0
0.669406 0.013908 0
0.657832 0.012546 0
0.647250 0.011339 0
0.637575 0.010260 0
0.628736 0.009287 0
0.620671 0.008401 0
0.613329 0.007587 0
0.606665 0.006830 0
0.600644 0.006119 0
0.595237 0.005443 0
0.590420 0.004794 0
0.586173 0.004165 0
0.582480 0.003552 0
0.579325 0.002953 0
0.576692 0.002369 0
0.574561 0.001804 0
0.572908 0.001265 0
0.571703 0.000761 0
0.570908 0.000302 0
0.570484 -0.000098 0
0.570400 -0.000423 0
0.570591 -0.000673 0
0.570997 -0.000854 0
0.571563 -0.000971 0
0.572237 -0.001030 0
0.572974 -0.001042 0
0.573734 -0.001014 0
0.574486 -0.000957 0
0.575204 -0.000878 0
0.575871 -0.000787 0
0.576474 -0.000689 0
0.577007 -0.000591 0
0.577468 -0.000497 0
0.577859 -0.000409 0
0.578184 -0.000331 0
0.578449 -0.000262 0
0.578661 -0.000204 0
0.578827 -0.000155 0
0.578956 -0.000116 0
0.579053 -0.000085 0
0.579126 -0.000061 0
0.579179 -0.000043 0
0.579219 -0.000030 0
0.579247 -0.000022 0
0.579269 -0.000016 0
0.579286 -0.000014 0
0.579301 -0.000013 0
0.579314 -0.000014 0
0.579328 -0.000017 0
0.579344 -0.000020 0
0.579362 -0.000024 0
0.579382 -0.000030 0
0.579407 -0.000036 0
0.579436 -0.000043 0
0.579470 -0.000051 0
0.579511 -0.000060 0
0.579558 -0.000070 0
0.579613 -0.000082 0
0.579677 -0.000095 0
0.579751 -0.000111 0
0.579838 -0.000128 0
0.579938 -0.000149 0
0.580053 -0.000172 0
0.580187 -0.000199 0
0.580341 -0.000230 0
0.580519 -0.000265 0
0.580725 -0.000306 0
0.580963 -0.000353 0
0.581237 -0.000407 0
0.581553 -0.000470 0
0.581918 -0.000542 0
0.582339 -0.000626 0
0.582825 -0.000723 0
0.583386 -0.000834 0
0.584034 -0.000963 0
0.584781 -0.001112 0
0.585644 -0.001285 0
0.586641 -0.001485 0
0.587792 -0.001717 0
0.589123 -0.001986 0
0.590661 -0.002300 0
0.592441 -0.002665 0
0.594501 -0.003090 0
0.596887 -0.003588 0
0.599653 -0.004172 0
0.602864 -0.004858 0
0.606594 -0.005669 0
0.610936 -0.006629 0
0.615997 -0.007774 0
0.621909 -0.009147 0
0.628832 -0.010804 0
0.636963 -0.012823 0
0.646544 -0.015306 0
0.657880 -0.018398 0
0.671355 -0.022304 0
0.687460 -0.027325 0
0.706828 -0.033911 0
0.730277 -0.042769 0
0.758860 -0.055035 0
0.793884 -0.072632 0
0.836796 -0.098787 0
0.888615 -0.139855 0
0.947065 -0.203108 0
1.003590 -0.317466 0
0.996601 -0.393917 0
0.996601 -0.196957 0
1.000000 0.000170 0
0.999870 0.000516 0
0.999605 0.000880 0
0.999196 0.001275 0
0.998631 0.001719 0
0.997889 0.002229 0
0.996943 0.002831 0
0.995757 0.003556 0
0.994287 0.004448 0
0.992470 0.005567 0
0.990231 0.007002 0
0.987468 0.008885 0
0.984058 0.011420 0
0.979850 0.014936 0
0.974693 0.019983 0
0.968538 0.027461 0
0.961646 0.039028 0
0.955938 0.056402 0
0.954608 0.083132 0
0.976833 0.108745 0
1.001913 0.118528 0
1.016614 0.114860 0
1.019000 0.104601 0
1.011799 0.092574 0
0.998309 0.081048 0
0.981113 0.070795 0
0.961991 0.061938 0
0.942114 0.054367 0
0.922237 0.047911 0
0.902833 0.042400 0
0.884189 0.037681 0
0.866467 0.033622 0
0.849746 0.030114 0
0.834051 0.027066 0
0.819374 0.024402 0
0.805686 0.022059 0
0.792947 0.019986 0
0.781113 0.018139 0
0.770136 0.016481 0
0.759972 0.014984 0
0.750580 0.013619 0
0.741920 0.012366 0
0.733959 0.011205 0
0.726669 0.010118 0
0.720023 0.009092 0
0.714000 0.008113 0
0.708582 0.007170 0
0.703754 0.006257 0
0.699502 0.005367 0
0.695809 0.004499 0
0.692661 0.003656 0
0.690039 0.002842 0
0.687918 0.002069 0
0.686269 0.001347 0
0.685056 0.000690 0
0.684236 0.000109 0
0.683782 -0.000379 0
0.683653 -0.000762 0
0.683791 -0.001046 0
0.684139 -0.001239 0
0.684643 -0.001351 0
0.685254 -0.001393 0
0.685930 -0.001377 0
0.686633 -0.001315 0
0.687333 -0.001221 0
0.688005 -0.001105 0
0.688631 -0.000977 0
0.689200 -0.000846 0
0.689705 -0.000717 0
0.690143 -0.000596 0
0.690516 -0.000486 0
0.690828 -0.000389 0
0.691083 -0.000305 0
0.691288 -0.000235 0
0.691451 -0.000178 0
0.691577 -0.000132 0
0.691674 -0.000096 0
0.691748 -0.000069 0
0.691803 -0.000050 0
0.691844 -0.000036 0
0.691876 -0.000028 0
0.691901 -0.000023 0
0.691921 -0.000021 0
0.691939 -0.000022 0
0.691957 -0.000024 0
0.691975 -0.000029 0
0.691994 -0.000034 0
0.692017 -0.000041 0
0.692042 -0.000049 0
0.692071 -0.000058 0
0.692106 -0.000069 0
0.692146 -0.000081 0
0.692193 -0.000095 0
0.692247 -0.000111 0
0.692310 -0.000129 0
0.692384 -0.000150 0
0.692469 -0.000174 0
0.692567 -0.000201 0
0.692681 -0.000232 0
0.692812 -0.000269 0
0.692964 -0.000310 0
0.693139 -0.000358 0
0.693341 -0.000414 0
0.693574 -0.000477 0
0.693844 -0.000551 0
0.694155 -0.000636 0
0.694513 -0.000733 0
0.694927 -0.000846 0
0.695404 -0.000977 0
0.695955 -0.001127 0
0.696591 -0.001302 0
0.697324 -0.001503 0
0.698171 -0.001736 0
0.699148 -0.002006 0
0.700277 -0.002319 0
0.701581 -0.002682 0
0.703087 -0.003104 0
0.704828 -0.003595 0
0.706841 -0.004167 0
0.709171 -0.004835 0
0.711868 -0.005617 0
0.714994 -0.006535 0
0.718619 -0.007617 0
0.722829 -0.008896 0
0.727723 -0.010415 0
0.733422 -0.012231 0
0.740071 -0.014413 0
0.747843 -0.017058 0
0.756949 -0.020291 0
0.767649 -0.024288 0
0.780257 -0.029291 0
0.795162 -0.035648 0
0.812835 -0.043874 0
0.833839 -0.054739 0
0.858810 -0.069439 0
0.888360 -0.089883 0
0.922762 -0.119042 0
0.961156 -0.162090 0
0.998704 -0.223816 0
1.025021 -0.321933 0
0.997362 -0.384162 0
0.997363 -0.192078 0
1.000000 0.000201 0
0.999876 0.000609 0
0.999624 0.001039 0
0.999237 0.001505 0
0.998702 0.002026 0
0.998001 0.002626 0
0.997110 0.003331 0
0.995999 0.004177 0
0.994628 0.005215 0
0.992948 0.006510 0
0.990897 0.008158 0
0.988403 0.010300 0
0.985382 0.013145 0
0.981757 0.017018 0
0.977499 0.022428 0
0.972751 0.030144 0
0.968064 0.041357 0
0.965355 0.057107 0
0.967659 0.078234 0
0.984902 0.098231 0
1.007350 0.108338 0
1.025547 0.108570 0
1.036017 0.102765 0
1.039083 0.094378 0
1.036333 0.085437 0
1.029394 0.076882 0
1.019585 0.069064 0
1.007899 0.062061 0
0.995067 0.055846 0
0.981622 0.050347 0
0.967953 0.045485 0
0.954338 0.041182 0
0.940972 0.037365 0
0.927994 0.033970 0
0.915495 0.030939 0
0.903533 0.028223 0
0.892146 0.025777 0
0.881351 0.023564 0
0.871157 0.021549 0
0.861563 0.019706 0
0.852567 0.018006 0
0.844159 0.016429 0
0.836332 0.014953 0
0.829078 0.013562 0
0.822388 0.012238 0
0.816255 0.010969 0
0.810671 0.009743 0
0.805629 0.008551 0
0.801121 0.007390 0
0.797137 0.006257 0
0.793667 0.005156 0
0.790695 0.004095 0
0.788202 0.003086 0
0.786165 0.002143 0
0.784554 0.001284 0
0.783335 0.000518 0
0.782470 -0.000142 0
0.781946 -0.000678 0
0.781721 -0.001088 0
0.781745 -0.001382 0
0.781969 -0.001569 0
0.782346 -0.001664 0
0.782833 -0.001680 0
0.783391 -0.001634 0
0.783985 -0.001541 0
0.784588 -0.001414 0
0.785175 -0.001267 0
0.785729 -0.001110 0
0.786238 -0.000952 0
0.786694 -0.000801 0
0.787094 -0.000661 0
0.787438 -0.000536 0
0.787727 -0.000426 0
0.787967 -0.000333 0
0.788161 -0.000255 0
0.788317 -0.000193 0
0.788440 -0.000143 0
0.788536 -0.000105 0
0.788610 -0.000077 0
0.788667 -0.000057 0
0.788711 -0.000044 0
0.788745 -0.000036 0
0.788773 -0.000032 0
0.788797 -0.000031 0
0.788819 -0.000034 0
0.788840 -0.000038 0
0.788861 -0.000045 0
0.788884 -0.000053 0
0.788910 -0.000062 0
0.788939 -0.000074 0
0.788972 -0.000087 0
0.789010 -0.000102 0
0.789055 -0.000119 0
0.789106 -0.000139 0
0.789166 -0.000161 0
0.789235 -0.000187 0
0.789315 -0.000217 0
0.789407 -0.000251 0
0.789514 -0.000290 0
0.789637 -0.000335 0
0.789779 -0.000387 0
0.789943 -0.000447 0
0.790132 -0.000516 0
0.790351 -0.000596 0
0.790603 -0.000688 0
0.790894 -0.000793 0
0.791230 -0.000916 0
0.791617 -0.001056 0
0.792064 -0.001219 0
0.792579 -0.001407 0
0.793173 -0.001624 0
0.793859 -0.001875 0
0.794650 -0.002166 0
0.795563 -0.002502 0
0.796617 -0.002892 0