# vtk DataFile Version 2.0
generated by CFD-lab course output (written by Tobias Neckel) 
ASCII

DATASET STRUCTURED_GRID
DIMENSIONS  142 42 1 
POINTS 5964 float

0.000000 0.250000 0
0.024648 0.250000 0
0.049296 0.250000 0
0.073944 0.250000 0
0.098592 0.250000 0
0.123239 0.250000 0
0.147887 0.250000 0
0.172535 0.250000 0
0.197183 0.250000 0
0.221831 0.250000 0
0.246479 0.250000 0
0.271127 0.250000 0
0.295775 0.250000 0
0.320423 0.250000 0
0.345070 0.250000 0
0.369718 0.250000 0
0.394366 0.250000 0
0.419014 0.250000 0
0.443662 0.250000 0
0.468310 0.250000 0
0.492958 0.250000 0
0.517606 0.250000 0
0.542254 0.250000 0
0.566901 0.250000 0
0.591549 0.250000 0
0.616197 0.250000 0
0.640845 0.250000 0
0.665493 0.250000 0
0.690141 0.250000 0
0.714789 0.250000 0
0.739437 0.250000 0
0.764085 0.250000 0
0.788732 0.250000 0
0.813380 0.250000 0
0.838028 0.250000 0
0.862676 0.250000 0
0.887324 0.250000 0
0.911972 0.250000 0
0.936620 0.250000 0
0.961268 0.250000 0
0.985915 0.250000 0
1.010563 0.250000 0
1.035211 0.250000 0
1.059859 0.250000 0
1.084507 0.250000 0
1.109155 0.250000 0
1.133803 0.250000 0
1.158451 0.250000 0
1.183099 0.250000 0
1.207746 0.250000 0
1.232394 0.250000 0
1.257042 0.250000 0
1.281690 0.250000 0
1.306338 0.250000 0
1.330986 0.250000 0
1.355634 0.250000 0
1.380282 0.250000 0
1.404930 0.250000 0
1.429577 0.250000 0
1.454225 0.250000 0
1.478873 0.250000 0
1.503521 0.250000 0
1.528169 0.250000 0
1.552817 0.250000 0
1.577465 0.250000 0
1.602113 0.250000 0
1.626761 0.250000 0
1.651408 0.250000 0
1.676056 0.250000 0
1.700704 0.250000 0
1.725352 0.250000 0
1.750000 0.250000 0
1.774648 0.250000 0
1.799296 0.250000 0
1.823944 0.250000 0
1.848592 0.250000 0
1.873239 0.250000 0
1.897887 0.250000 0
1.922535 0.250000 0
1.947183 0.250000 0
1.971831 0.250000 0
1.996479 0.250000 0
2.021127 0.250000 0
2.045775 0.250000 0
2.070423 0.250000 0
2.095070 0.250000 0
2.119718 0.250000 0
2.144366 0.250000 0
2.169014 0.250000 0
2.193662 0.250000 0
2.218310 0.250000 0
2.242958 0.250000 0
2.267606 0.250000 0
2.292254 0.250000 0
2.316901 0.250000 0
2.341549 0.250000 0
2.366197 0.250000 0
2.390845 0.250000 0
2.415493 0.250000 0
2.440141 0.250000 0
2.464789 0.250000 0
2.489437 0.250000 0
2.514085 0.250000 0
2.538732 0.250000 0
2.563380 0.250000 0
2.588028 0.250000 0
2.612676 0.250000 0
2.637324 0.250000 0
2.661972 0.250000 0
2.686620 0.250000 0
2.711268 0.250000 0
2.735915 0.250000 0
2.760563 0.250000 0
2.785211 0.250000 0
2.809859 0.250000 0
2.834507 0.250000 0
2.859155 0.250000 0
2.883803 0.250000 0
2.908451 0.250000 0
2.933099 0.250000 0
2.957746 0.250000 0
2.982394 0.250000 0
3.007042 0.250000 0
3.031690 0.250000 0
3.056338 0.250000 0
3.080986 0.250000 0
3.105634 0.250000 0
3.130282 0.250000 0
3.154930 0.250000 0
3.179577 0.250000 0
3.204225 0.250000 0
3.228873 0.250000 0
3.253521 0.250000 0
3.278169 0.250000 0
3.302817 0.250000 0
3.327465 0.250000 0
3.352113 0.250000 0
3.376761 0.250000 0
3.401408 0.250000 0
3.426056 0.250000 0
3.450704 0.250000 0
3.475352 0.250000 0
0.000000 0.261905 0
0.024648 0.261905 0
0.049296 0.261905 0
0.073944 0.261905 0
0.098592 0.261905 0
0.123239 0.261905 0
0.147887 0.261905 0
0.172535 0.261905 0
0.197183 0.261905 0
0.221831 0.261905 0
0.246479 0.261905 0
0.271127 0.261905 0
0.295775 0.261905 0
0.320423 0.261905 0
0.345070 0.261905 0
0.369718 0.261905 0
0.394366 0.261905 0
0.419014 0.261905 0
0.443662 0.261905 0
0.468310 0.261905 0
0.492958 0.261905 0
0.517606 0.261905 0
0.542254 0.261905 0
0.566901 0.261905 0
0.591549 0.261905 0
0.616197 0.261905 0
0.640845 0.261905 0
0.665493 0.261905 0
0.690141 0.261905 0
0.714789 0.261905 0
0.739437 0.261905 0
0.764085 0.261905 0
0.788732 0.261905 0
0.813380 0.261905 0
0.838028 0.261905 0
0.862676 0.261905 0
0.887324 0.261905 0
0.911972 0.261905 0
0.936620 0.261905 0
0.961268 0.261905 0
0.985915 0.261905 0
1.010563 0.261905 0
1.035211 0.261905 0
1.059859 0.261905 0
1.084507 0.261905 0
1.109155 0.261905 0
1.133803 0.261905 0
1.158451 0.261905 0
1.183099 0.261905 0
1.207746 0.261905 0
1.232394 0.261905 0
1.257042 0.261905 0
1.281690 0.261905 0
1.306338 0.261905 0
1.330986 0.261905 0
1.355634 0.261905 0
1.380282 0.261905 0
1.404930 0.261905 0
1.429577 0.261905 0
1.454225 0.261905 0
1.478873 0.261905 0
1.503521 0.261905 0
1.528169 0.261905 0
1.552817 0.261905 0
1.577465 0.261905 0
1.602113 0.261905 0
1.626761 0.261905 0
1.651408 0.261905 0
1.676056 0.261905 0
1.700704 0.261905 0
1.725352 0.261905 0
1.750000 0.261905 0
1.774648 0.261905 0
1.799296 0.261905 0
1.823944 0.261905 0
1.848592 0.261905 0
1.873239 0.261905 0
1.897887 0.261905 0
1.922535 0.261905 0
1.947183 0.261905 0
1.971831 0.261905 0
1.996479 0.261905 0
2.021127 0.261905 0
2.045775 0.261905 0
2.070423 0.261905 0
2.095070 0.261905 0
2.119718 0.261905 0
2.144366 0.261905 0
2.169014 0.261905 0
2.193662 0.261905 0
2.218310 0.261905 0
2.242958 0.261905 0
2.267606 0.261905 0
2.292254 0.261905 0
2.316901 0.261905 0
2.341549 0.261905 0
2.366197 0.261905 0
2.390845 0.261905 0
2.415493 0.261905 0
2.440141 0.261905 0
2.464789 0.261905 0
2.489437 0.261905 0
2.514085 0.261905 0
2.538732 0.261905 0
2.563380 0.261905 0
2.588028 0.261905 0
2.612676 0.261905 0
2.637324 0.261905 0
2.661972 0.261905 0
2.686620 0.261905 0
2.711268 0.261905 0
2.735915 0.261905 0
2.760563 0.261905 0
2.785211 0.261905 0
2.809859 0.261905 0
2.834507 0.261905 0
2.859155 0.261905 0
2.883803 0.261905 0
2.908451 0.261905 0
2.933099 0.261905 0
2.957746 0.261905 0
2.982394 0.261905 0
3.007042 0.261905 0
3.031690 0.261905 0
3.056338 0.261905 0
3.080986 0.261905 0
3.105634 0.261905 0
3.130282 0.261905 0
3.154930 0.261905 0
3.179577 0.261905 0
3.204225 0.261905 0
3.228873 0.261905 0
3.253521 0.261905 0
3.278169 0.261905 0
3.302817 0.261905 0
3.327465 0.261905 0
3.352113 0.261905 0
3.376761 0.261905 0
3.401408 0.261905 0
3.426056 0.261905 0
3.450704 0.261905 0
3.475352 0.261905 0
0.000000 0.273810 0
0.024648 0.273810 0
0.049296 0.273810 0
0.073944 0.273810 0
0.098592 0.273810 0
0.123239 0.273810 0
0.147887 0.273810 0
0.172535 0.273810 0
0.197183 0.273810 0
0.221831 0.273810 0
0.246479 0.273810 0
0.271127 0.273810 0
0.295775 0.273810 0
0.320423 0.273810 0
0.345070 0.273810 0
0.369718 0.273810 0
0.394366 0.273810 0
0.419014 0.273810 0
0.443662 0.273810 0
0.468310 0.273810 0
0.492958 0.273810 0
0.517606 0.273810 0
0.542254 0.273810 0
0.566901 0.273810 0
0.591549 0.273810 0
0.616197 0.273810 0
0.640845 0.273810 0
0.665493 0.273810 0
0.690141 0.273810 0
0.714789 0.273810 0
0.739437 0.273810 0
0.764085 0.273810 0
0.788732 0.273810 0
0.813380 0.273810 0
0.838028 0.273810 0
0.862676 0.273810 0
0.887324 0.273810 0
0.911972 0.273810 0
0.936620 0.273810 0
0.961268 0.273810 0
0.985915 0.273810 0
1.010563 0.273810 0
1.035211 0.273810 0
1.059859 0.273810 0
1.084507 0.273810 0
1.109155 0.273810 0
1.133803 0.273810 0
1.158451 0.273810 0
1.183099 0.273810 0
1.207746 0.273810 0
1.232394 0.273810 0
1.257042 0.273810 0
1.281690 0.273810 0
1.306338 0.273810 0
1.330986 0.273810 0
1.355634 0.273810 0
1.380282 0.273810 0
1.404930 0.273810 0
1.429577 0.273810 0
1.454225 0.273810 0
1.478873 0.273810 0
1.503521 0.273810 0
1.528169 0.273810 0
1.552817 0.273810 0
1.577465 0.273810 0
1.602113 0.273810 0
1.626761 0.273810 0
1.651408 0.273810 0
1.676056 0.273810 0
1.700704 0.273810 0
1.725352 0.273810 0
1.750000 0.273810 0
1.774648 0.273810 0
1.799296 0.273810 0
1.823944 0.273810 0
1.848592 0.273810 0
1.873239 0.273810 0
1.897887 0.273810 0
1.922535 0.273810 0
1.947183 0.273810 0
1.971831 0.273810 0
1.996479 0.273810 0
2.021127 0.273810 0
2.045775 0.273810 0
2.070423 0.273810 0
2.095070 0.273810 0
2.119718 0.273810 0
2.144366 0.273810 0
2.169014 0.273810 0
2.193662 0.273810 0
2.218310 0.273810 0
2.242958 0.273810 0
2.267606 0.273810 0
2.292254 0.273810 0
2.316901 0.273810 0
2.341549 0.273810 0
2.366197 0.273810 0
2.390845 0.273810 0
2.415493 0.273810 0
2.440141 0.273810 0
2.464789 0.273810 0
2.489437 0.273810 0
2.514085 0.273810 0
2.538732 0.273810 0
2.563380 0.273810 0
2.588028 0.273810 0
2.612676 0.273810 0
2.637324 0.273810 0
2.661972 0.273810 0
2.686620 0.273810 0
2.711268 0.273810 0
2.735915 0.273810 0
2.760563 0.273810 0
2.785211 0.273810 0
2.809859 0.273810 0
2.834507 0.273810 0
2.859155 0.273810 0
2.883803 0.273810 0
2.908451 0.273810 0
2.933099 0.273810 0
2.957746 0.273810 0
2.982394 0.273810 0
3.007042 0.273810 0
3.031690 0.273810 0
3.056338 0.273810 0
3.080986 0.273810 0
3.105634 0.273810 0
3.130282 0.273810 0
3.154930 0.273810 0
3.179577 0.273810 0
3.204225 0.273810 0
3.228873 0.273810 0
3.253521 0.273810 0
3.278169 0.273810 0
3.302817 0.273810 0
3.327465 0.273810 0
3.352113 0.273810 0
3.376761 0.273810 0
3.401408 0.273810 0
3.426056 0.273810 0
3.450704 0.273810 0
3.475352 0.273810 0
0.000000 0.285714 0
0.024648 0.285714 0
0.049296 0.285714 0
0.073944 0.285714 0
0.098592 0.285714 0
0.123239 0.285714 0
0.147887 0.285714 0
0.172535 0.285714 0
0.197183 0.285714 0
0.221831 0.285714 0
0.246479 0.285714 0
0.271127 0.285714 0
0.295775 0.285714 0
0.320423 0.285714 0
0.345070 0.285714 0
0.369718 0.285714 0
0.394366 0.285714 0
0.419014 0.285714 0
0.443662 0.285714 0
0.468310 0.285714 0
0.492958 0.285714 0
0.517606 0.285714 0
0.542254 0.285714 0
0.566901 0.285714 0
0.591549 0.285714 0
0.616197 0.285714 0
0.640845 0.285714 0
0.665493 0.285714 0
0.690141 0.285714 0
0.714789 0.285714 0
0.739437 0.285714 0
0.764085 0.285714 0
0.788732 0.285714 0
0.813380 0.285714 0
0.838028 0.285714 0
0.862676 0.285714 0
0.887324 0.285714 0
0.911972 0.285714 0
0.936620 0.285714 0
0.961268 0.285714 0
0.985915 0.285714 0
1.010563 0.285714 0
1.035211 0.285714 0
1.059859 0.285714 0
1.084507 0.285714 0
1.109155 0.285714 0
1.133803 0.285714 0
1.158451 0.285714 0
1.183099 0.285714 0
1.207746 0.285714 0
1.232394 0.285714 0
1.257042 0.285714 0
1.281690 0.285714 0
1.306338 0.285714 0
1.330986 0.285714 0
1.355634 0.285714 0
1.380282 0.285714 0
1.404930 0.285714 0
1.429577 0.285714 0
1.454225 0.285714 0
1.478873 0.285714 0
1.503521 0.285714 0
1.528169 0.285714 0
1.552817 0.285714 0
1.577465 0.285714 0
[...]
POINT_DATA 5964 

VECTORS velocity float
1.000000 0.000000 0
0.999855 0.000000 0
0.999559 0.000000 0
0.999102 0.000000 0
0.998466 0.000000 0
0.997628 0.000000 0
0.996551 0.000000 0
0.995189 0.000000 0
0.993477 0.000000 0
0.991325 0.000000 0
0.988609 0.000000 0
0.985147 0.000000 0
0.980670 0.000000 0
0.974753 0.000000 0
0.966690 0.000000 0
0.955151 0.000000 0
0.937654 0.000000 0
0.906092 0.000000 0
0.848115 0.000000 0
-0.000000 0.000000 0
-0.000000 0.000000 0
-0.000000 0.000000 0
-0.000000 0.000000 0
-0.000000 0.000000 0
-0.000000 0.000000 0
-0.000000 0.000000 0
-0.000000 0.000000 0
-0.000000 0.000000 0
-0.000000 0.000000 0
-0.000001 0.000000 0
-0.000001 0.000000 0
-0.000001 0.000000 0
-0.000001 0.000000 0
-0.000001 0.000000 0
-0.000001 0.000000 0
-0.000001 0.000000 0
-0.000001 0.000000 0
-0.000002 0.000000 0
-0.000002 0.000000 0
-0.000002 0.000000 0
-0.000002 0.000000 0
-0.000003 0.000000 0
-0.000003 0.000000 0
-0.000004 0.000000 0
-0.000004 0.000000 0
-0.000005 0.000000 0
-0.000006 0.000000 0
-0.000006 0.000000 0
-0.000007 0.000000 0
-0.000007 0.000000 0
-0.000007 0.000000 0
-0.000007 0.000000 0
-0.000007 0.000000 0
-0.000007 0.000000 0
-0.000007 0.000000 0
-0.000007 0.000000 0
-0.000007 0.000000 0
-0.000007 0.000000 0
-0.000007 0.000000 0
-0.000007 0.000000 0
-0.000006 0.000000 0
-0.000006 0.000000 0
-0.000006 0.000000 0
-0.000006 0.000000 0
-0.000006 0.000000 0
-0.000006 0.000000 0
-0.000006 0.000000 0
-0.000006 0.000000 0
-0.000006 0.000000 0
-0.000006 0.000000 0
-0.000006 0.000000 0
-0.000006 0.000000 0
-0.000006 0.000000 0
-0.000006 0.000000 0
-0.000006 0.000000 0
-0.000006 0.000000 0
-0.000006 0.000000 0
-0.000006 0.000000 0
-0.000006 0.000000 0
-0.000006 0.000000 0
-0.000006 0.000000 0
-0.000006 0.000000 0
-0.000006 0.000000 0
-0.000006 0.000000 0
-0.000006 0.000000 0
-0.000006 0.000000 0
-0.000006 0.000000 0
-0.000006 0.000000 0
-0.000006 0.000000 0
-0.000006 0.000000 0
-0.000006 0.000000 0
-0.000006 0.000000 0
-0.000006 0.000000 0
-0.000006 0.000000 0
-0.000006 0.000000 0
-0.000006 0.000000 0
-0.000006 0.000000 0
-0.000006 0.000000 0
-0.000006 0.000000 0
-0.000006 0.000000 0
-0.000006 0.000000 0
-0.000006 0.000000 0
-0.000006 0.000000 0
-0.000006 0.000000 0
-0.000006 0.000000 0
-0.000006 0.000000 0
-0.000006 0.000000 0
-0.000006 0.000000 0
-0.000006 0.000000 0
-0.000006 0.000000 0
-0.000006 0.000000 0
-0.000006 0.000000 0
-0.000006 0.000000 0
-0.000006 0.000000 0
-0.000006 0.000000 0
-0.000006 0.000000 0
-0.000006 0.000000 0
-0.000006 0.000000 0
-0.000006 0.000000 0
-0.000006 0.000000 0
-0.000006 0.000000 0
-0.000006 0.000000 0
-0.000006 0.000000 0
-0.000006 0.000000 0
-0.000005 0.000000 0
-0.000005 0.000000 0
-0.000005 0.000000 0
-0.000005 0.000000 0
-0.000005 0.000000 0
-0.000005 0.000000 0
-0.000005 0.000000 0
-0.000005 0.000000 0
-0.000004 0.000000 0
-0.000004 0.000000 0
-0.000004 0.000000 0
-0.000003 0.000000 0
-0.000003 0.000000 0
-0.000002 0.000000 0
-0.000001 0.000000 0
-0.000000 0.000000 0
-0.000000 0.000000 0
0.496995 0.000000 0
1.000000 0.000035 0
0.999855 0.000107 0
0.999561 0.000182 0
0.999106 0.000264 0
0.998473 0.000356 0
0.997639 0.000462 0
0.996568 0.000589 0
0.995214 0.000742 0
0.993512 0.000933 0
0.991375 0.001176 0
0.988680 0.001492 0
0.985250 0.001917 0
0.980822 0.002510 0
0.974988 0.003376 0
0.967076 0.004734 0
0.955858 0.007012 0
0.939094 0.011847 0
0.910513 0.021623 0
0.861289 0.078829 0
0.715373 0.110955 0
0.577057 0.072746 0
0.473645 0.041068 0
0.401785 0.022622 0
0.351994 0.013282 0
0.316465 0.008645 0
0.290118 0.006160 0
0.269860 0.004670 0
0.253808 0.003685 0
0.240779 0.002988 0
0.230001 0.002473 0
0.220949 0.002079 0
0.213257 0.001769 0
0.206662 0.001519 0
0.200967 0.001314 0
0.196026 0.001142 0
0.191729 0.000996 0
0.187990 0.000869 0
0.184746 0.000756 0
0.181949 0.000653 0
0.179565 0.000557 0
0.177571 0.000464 0
0.175952 0.000374 0
0.174694 0.000285 0
0.173786 0.000197 0
0.173213 0.000112 0
0.172952 0.000033 0
0.172967 -0.000033 0
0.173199 -0.000086 0
0.173594 -0.000125 0
0.174101 -0.000151 0
0.174670 -0.000165 0
0.175262 -0.000167 0
0.175843 -0.000162 0
0.176388 -0.000150 0
0.176882 -0.000135 0
0.177315 -0.000117 0
0.177684 -0.000099 0
0.177991 -0.000082 0
0.178240 -0.000066 0
0.178439 -0.000053 0
0.178594 -0.000041 0
0.178712 -0.000031 0
0.178802 -0.000023 0
0.178868 -0.000017 0
0.178916 -0.000012 0
0.178951 -0.000009 0
0.178976 -0.000006 0
0.178993 -0.000004 0
0.179006 -0.000003 0
0.179015 -0.000002 0
0.179021 -0.000001 0
0.179026 -0.000001 0
0.179030 -0.000001 0
0.179032 -0.000001 0
0.179035 -0.000001 0
0.179037 -0.000000 0
0.179039 -0.000001 0
0.179041 -0.000001 0
0.179044 -0.000001 0
0.179047 -0.000001 0
0.179050 -0.000001 0
0.179053 -0.000001 0
0.179058 -0.000001 0
0.179062 -0.000002 0
0.179068 -0.000002 0
0.179075 -0.000002 0
0.179082 -0.000002 0
0.179091 -0.000003 0
0.179102 -0.000003 0
0.179114 -0.000004 0
0.179128 -0.000004 0
0.179144 -0.000005 0
0.179163 -0.000006 0
0.179185 -0.000007 0
0.179210 -0.000008 0
0.179240 -0.000009 0
0.179274 -0.000011 0
0.179313 -0.000013 0
0.179359 -0.000015 0
0.179412 -0.000017 0
0.179473 -0.000020 0
0.179544 -0.000023 0
0.179626 -0.000026 0
0.179721 -0.000030 0
0.179831 -0.000035 0
0.179959 -0.000041 0
0.180107 -0.000047 0
0.180278 -0.000055 0
0.180477 -0.000063 0
0.180707 -0.000073 0
0.180973 -0.000085 0
0.181283 -0.000099 0
0.181642 -0.000114 0
0.182058 -0.000133 0
0.182542 -0.000154 0
0.183104 -0.000180 0
0.183759 -0.000209 0
0.184520 -0.000243 0
0.185407 -0.000284 0
0.186443 -0.000332 0
0.187653 -0.000388 0
0.189069 -0.000456 0
0.190731 -0.000536 0
0.192686 -0.000632 0
0.194992 -0.000749 0
0.197723 -0.000891 0
0.200970 -0.001065 0
0.204852 -0.001282 0
0.209523 -0.001556 0
0.215186 -0.001908 0
0.222120 -0.002368 0
0.230711 -0.002985 0
0.241516 -0.003841 0
0.255368 -0.005074 0
0.273571 -0.006946 0
0.298277 -0.009989 0
0.333323 -0.015368 0
0.385871 -0.026571 0
0.472733 -0.048889 0
0.621130 -0.166916 0
0.994320 -0.270355 0
0.994321 -0.135178 0
1.000000 0.000070 0
0.999857 0.000212 0
0.999566 0.000362 0
0.999118 0.000525 0
0.998494 0.000708 0
0.997672 0.000920 0
0.996618 0.001171 0
0.995286 0.001476 0
0.993616 0.001854 0
0.991522 0.002334 0
0.988890 0.002959 0
0.985553 0.003795 0
0.981270 0.004956 0
0.975677 0.006639 0
0.968196 0.009240 0
0.957862 0.013515 0
0.943051 0.021901 0
0.921025 0.037579 0
0.888775 0.094251 0
0.891534 0.137282 0
0.842841 0.116753 0
0.772488 0.084655 0
0.702293 0.058757 0
0.641217 0.041209 0
0.590815 0.029886 0
0.549780 0.022510 0
0.516240 0.017537 0
0.488545 0.014046 0
0.465410 0.011499 0
0.445873 0.009578 0
0.429215 0.008087 0
0.414898 0.006901 0
0.402514 0.005936 0
0.391753 0.005137 0
0.382374 0.004462 0
0.374191 0.003881 0
0.367060 0.003373 0
0.360869 0.002918 0
0.355537 0.002502 0
0.350998 0.002114 0
0.347208 0.001745 0
0.344130 0.001390 0
0.341732 0.001046 0
0.339980 0.000715 0
0.338835 0.000403 0
0.338245 0.000119 0
0.338149 -0.000120 0
0.338450 -0.000303 0
0.339047 -0.000435 0
0.339844 -0.000520 0
0.340760 -0.000561 0
0.341721 -0.000566 0
0.342672 -0.000544 0
0.343568 -0.000502 0
0.344383 -0.000447 0
0.345099 -0.000387 0
0.345711 -0.000327 0
0.346222 -0.000269 0
0.346637 -0.000216 0
0.346969 -0.000171 0
0.347228 -0.000132 0
0.347427 -0.000100 0
0.347578 -0.000075 0
0.347691 -0.000055 0
0.347774 -0.000040 0
0.347835 -0.000029 0
0.347879 -0.000021 0
0.347911 -0.000015 0
0.347934 -0.000010 0
0.347951 -0.000007 0
0.347964 -0.000005 0
0.347974 -0.000004 0
0.347981 -0.000003 0
0.347988 -0.000003 0
0.347993 -0.000002 0
0.347997 -0.000002 0
0.348002 -0.000002 0
0.348006 -0.000002 0
0.348011 -0.000003 0
0.348016 -0.000003 0
0.348021 -0.000003 0
0.348027 -0.000004 0
0.348034 -0.000004 0
0.348043 -0.000005 0
0.348052 -0.000006 0
0.348062 -0.000007 0
0.348075 -0.000008 0
0.348089 -0.000009 0
0.348106 -0.000011 0
0.348125 -0.000013 0
0.348148 -0.000015 0
0.348174 -0.000017 0
0.348204 -0.000020 0
0.348239 -0.000023 0
0.348279 -0.000026 0
0.348326 -0.000031 0
0.348380 -0.000035 0
0.348443 -0.000041 0
0.348515 -0.000048 0
0.348600 -0.000055 0
0.348697 -0.000064 0
0.348810 -0.000074 0
0.348941 -0.000086 0
0.349092 -0.000099 0
0.349268 -0.000115 0
0.349471 -0.000133 0
0.349707 -0.000154 0
0.349980 -0.000179 0
0.350297 -0.000207 0
0.350664 -0.000240 0
0.351089 -0.000278 0
0.351583 -0.000323 0
0.352156 -0.000375 0
0.352820 -0.000435 0
0.353592 -0.000505 0
0.354490 -0.000588 0
0.355533 -0.000684 0
0.356747 -0.000796 0
0.358161 -0.000929 0
0.359810 -0.001085 0
0.361735 -0.001269 0
0.363987 -0.001487 0
0.366625 -0.001747 0
0.369723 -0.002058 0
0.373370 -0.002433 0
0.377678 -0.002887 0
0.382786 -0.003443 0
0.388868 -0.004131 0
0.396152 -0.004991 0
0.404931 -0.006084 0
0.415599 -0.007498 0
0.428691 -0.009368 0
0.444955 -0.011909 0
0.465468 -0.015482 0
0.491835 -0.020725 0
0.526534 -0.028860 0
0.573568 -0.042307 0
0.639404 -0.067334 0
0.735211 -0.113628 0
0.876498 -0.251923 0
0.995106 -0.360496 0
0.995107 -0.180247 0
1.000000 0.000104 0
0.999860 0.000316 0
0.999576 0.000539 0
0.999137 0.000782 0
0.998529 0.001054 0
0.997727 0.001369 0
0.996700 0.001741 0
0.995406 0.002192 0
0.993786 0.002751 0
0.991764 0.003458 0
0.989232 0.004375 0
0.986045 0.005597 0
0.981993 0.007280 0
0.976776 0.009691 0
0.969950 0.013338 0
0.960883 0.019157 0
0.948691 0.029640 0
0.933353 0.047838 0
0.915483 0.093073 0
0.945847 0.133141 0
0.949307 0.130244 0
0.923824 0.108952 0
0.883110 0.086025 0
0.838006 0.067125 0
0.794290 0.052808 0
0.754346 0.042180 0
0.718812 0.034246 0
0.687561 0.028235 0
0.660187 0.023599 0
0.636211 0.019955 0
0.615182 0.017040 0
0.596700 0.014665 0
0.580424 0.012698 0
0.566074 0.011042 0
0.553419 0.009625 0
0.542270 0.008393 0
0.532475 0.007303 0
0.523914 0.006321 0
0.516491 0.005421 0
0.510132 0.004579 0
0.504777 0.003782 0
0.500377 0.003019 0
0.496885 0.002289 0
0.494249 0.001596 0
0.492410 0.000950 0
0.491294 0.000365 0
0.490818 -0.000132 0
0.490896 -0.000519 0
0.491395 -0.000798 0
0.492195 -0.000978 0
0.493187 -0.001071 0
0.494278 -0.001091 0
0.495390 -0.001054 0
0.496465 -0.000977 0
0.497460 -0.000874 0
0.498349 -0.000759 0
0.499120 -0.000642 0
0.499772 -0.000529 0
0.500309 -0.000427 0
0.500742 -0.000338 0
0.501084 -0.000262 0
0.501350 -0.000200 0
0.501554 -0.000150 0
0.501708 -0.000111 0
0.501824 -0.000082 0
0.501909 -0.000059 0
0.501972 -0.000043 0
0.502019 -0.000031 0
0.502054 -0.000022 0
0.502080 -0.000016 0
0.502099 -0.000012 0
0.502114 -0.000009 0
0.502127 -0.000007 0
0.502136 -0.000006 0
0.502145 -0.000005 0
0.502152 -0.000005 0
0.502159 -0.000005 0
0.502165 -0.000005 0
0.502172 -0.000005 0
0.502178 -0.000006 0
0.502185 -0.000007 0
0.502193 -0.000007 0
0.502202 -0.000009 0
0.502212 -0.000010 0
0.502223 -0.000011 0
0.502236 -0.000013 0
0.502251 -0.000015 0
0.502268 -0.000018 0
0.502288 -0.000021 0
0.502310 -0.000024 0
0.502337 -0.000028 0
0.502367 -0.000032 0
0.502403 -0.000037 0
0.502444 -0.000043 0
0.502491 -0.000050 0
0.502546 -0.000058 0
0.502610 -0.000067 0
0.502684 -0.000078 0
0.502770 -0.000090 0
0.502869 -0.000105 0
0.502983 -0.000121 0
0.503116 -0.000140 0
0.503270 -0.000163 0
0.503448 -0.000188 0
0.503655 -0.000218 0
0.503894 -0.000253 0
0.504172 -0.000293 0
0.504493 -0.000339 0
0.504866 -0.000393 0
0.505298 -0.000456 0
0.505799 -0.000529 0
0.506379 -0.000614 0
0.507053 -0.000712 0
0.507835 -0.000827 0
0.508744 -0.000961 0
0.509798 -0.001117 0
0.511024 -0.001299 0
0.512450 -0.001513 0
0.514110 -0.001763 0
0.516044 -0.002058 0
0.518300 -0.002406 0
0.520935 -0.002818 0
0.524018 -0.003307 0
0.527631 -0.003890 0
0.531875 -0.004591 0
0.536873 -0.005438 0
0.542779 -0.006470 0
0.549782 -0.007738 0
0.558125 -0.009314 0
0.568117 -0.011300 0
0.580160 -0.013843 0
0.594790 -0.017164 0
0.612725 -0.021604 0
0.634958 -0.027717 0
0.662875 -0.036440 0
0.698440 -0.049466 0
0.744412 -0.069884 0
0.804348 -0.104643 0
0.881030 -0.163404 0
0.973351 -0.292444 0
0.996022 -0.384926 0
0.996022 -0.192461 0
1.000000 0.000137 0
0.999865 0.000417 0
0.999589 0.000711 0
0.999165 0.001031 0
0.998576 0.001390 0
0.997802 0.001804 0
0.996813 0.002293 0
0.995569 0.002884 0
0.994019 0.003613 0
0.992092 0.004533 0
0.989697 0.005721 0
0.986708 0.007292 0
0.982957 0.009433 0
0.978219 0.012456 0
0.972200 0.016916 0
0.964586 0.023783 0
0.955160 0.035198 0
0.945334 0.053618 0
0.937656 0.088217 0
0.966197 0.120946 0
0.988515 0.127390 0
0.990887 0.116627 0
0.976815 0.100206 0
0.953069 0.084109 0
0.924894 0.070293 0
0.895513 0.058966 0
0.866715 0.049794 0
0.839420 0.042361 0
0.814050 0.036301 0
0.790744 0.031315 0
0.769492 0.027171 0
0.750208 0.023689 0
0.732771 0.020728 0
0.717052 0.018180 0
0.702924 0.015959 0
0.690275 0.013997 0
0.679004 0.012238 0
0.669024 0.010638 0
0.660264 0.009159 0
0.652663 0.007772 0
0.646168 0.006457 0
0.640731 0.005202 0
0.636303 0.004006 0
0.632830 0.002877 0
0.630246 0.001830 0
0.628472 0.000888 0
0.627412 0.000073 0
0.626995 -0.000582 0
0.627108 -0.001063 0
0.627624 -0.001385 0
0.628423 -0.001567 0
0.629401 -0.001630 0
0.630465 -0.001600 0
0.631542 -0.001501 0
0.632577 -0.001358 0
0.633532 -0.001190 0
0.634382 -0.001014 0
0.635117 -0.000843 0
0.635736 -0.000685 0
0.636246 -0.000545 0
0.636656 -0.000426 0
0.636981 -0.000327 0
0.637234 -0.000248 0
0.637429 -0.000185 0
0.637577 -0.000137 0
0.637688 -0.000101 0
0.637772 -0.000074 0
0.637835 -0.000054 0
0.637882 -0.000040 0
0.637918 -0.000029 0
0.637945 -0.000022 0
0.637967 -0.000017 0
0.637984 -0.000014 0
0.637998 -0.000011 0
0.638009 -0.000010 0
0.638019 -0.000009 0
0.638028 -0.000008 0
0.638037 -0.000008 0
0.638045 -0.000009 0
0.638053 -0.000010 0
0.638061 -0.000010 0
0.638070 -0.000012 0
0.638080 -0.000013 0
0.638091 -0.000015 0
0.638103 -0.000018 0
0.638116 -0.000020 0
0.638132 -0.000023 0
0.638150 -0.000027 0
0.638171 -0.000031 0
0.638194 -0.000036 0
0.638222 -0.000042 0
0.638254 -0.000049 0
0.638290 -0.000057 0
0.638333 -0.000066 0
0.638382 -0.000076 0
0.638439 -0.000088 0
0.638505 -0.000102 0
0.638581 -0.000118 0
0.638670 -0.000137 0
0.638772 -0.000158 0
0.638891 -0.000183 0
0.639029 -0.000212 0
0.639188 -0.000246 0
0.639372 -0.000285 0
0.639586 -0.000330 0
0.639833 -0.000383 0
0.640120 -0.000443 0
0.640453 -0.000514 0
0.640838 -0.000596 0
0.641285 -0.000690 0
0.641802 -0.000801 0
0.642403 -0.000929 0
0.643099 -0.001078 0
0.643907 -0.001251 0
0.644845 -0.001453 0
0.645934 -0.001689 0
0.647199 -0.001965 0
0.648669 -0.002287 0
0.650379 -0.002665 0
0.652369 -0.003108 0
0.654688 -0.003631 0
0.657393 -0.004248 0
0.660552 -0.004981 0
0.664248 -0.005853 0
0.668577 -0.006897 0
0.673662 -0.008154 0
0.679648 -0.009678 0
0.686715 -0.011543 0
0.695089 -0.013847 0
0.705052 -0.016727 0
0.716961 -0.020381 0
0.731274 -0.025097 0
0.748585 -0.031310 0
0.769662 -0.039705 0
0.795495 -0.051387 0
0.827307 -0.068242 0
0.866429 -0.093460 0
0.913711 -0.133320 0
0.966521 -0.195255 0
1.015717 -0.307463 0
0.996899 -0.382390 0
0.996900 -0.191192 0
1.000000 0.000170 0
0.999870 0.000514 0
0.999606 0.000877 0
0.999199 0.001271 0
0.998636 0.001712 0
0.997896 0.002221 0
0.996954 0.002820 0
0.995773 0.003542 0
0.994309 0.004430 0
0.992500 0.005546 0
0.990269 0.006976 0
0.987518 0.008853 0
0.984122 0.011380 0
0.979931 0.014886 0
0.974795 0.019923 0
0.968665 0.027387 0
0.961805 0.038939 0
0.956134 0.056292 0
0.954850 0.082996 0
0.977134 0.108577 0
1.002290 0.118319 0
1.017092 0.114603 0
1.019606 0.104291 0
1.012567 0.092203 0
0.999277 0.080608 0
0.982326 0.070280 0
0.963500 0.061338 0
0.943976 0.053672 0
0.924516 0.047109 0
0.905605 0.041476 0
0.887538 0.036618 0
0.870490 0.032401 0
0.854555 0.028713 0
0.839774 0.025458 0
0.826158 0.022558 0
0.813698 0.019946 0
0.802378 0.017567 0
0.792175 0.015372 0
0.783065 0.013323 0
0.775021 0.011388 0
0.768017 0.009545 0
0.762023 0.007784 0
0.757003 0.006105 0
0.752914 0.004521 0
0.749700 0.003055 0
0.747295 0.001734 0
0.745613 0.000581 0
0.744574 -0.000373 0
0.744123 -0.001102 0
0.744148 -0.001614 0
0.744540 -0.001929 0
0.745194 -0.002077 0
0.746016 -0.002088 0
0.746925 -0.001997 0
0.747856 -0.001835 0
0.748758 -0.001631 0
0.749595 -0.001407 0
0.750344 -0.001183 0
0.750996 -0.000972 0
0.751547 -0.000782 0
0.752004 -0.000618 0
0.752374 -0.000479 0
0.752669 -0.000366 0
0.752900 -0.000277 0
0.753079 -0.000207 0
0.753217 -0.000154 0
0.753322 -0.000114 0
0.753402 -0.000084 0
0.753462 -0.000063 0
0.753509 -0.000047 0
0.753545 -0.000036 0
0.753574 -0.000028 0
0.753596 -0.000022 0
0.753614 -0.000018 0
0.753630 -0.000016 0
0.753642 -0.000014 0
0.753654 -0.000013 0
0.753664 -0.000013 0
0.753673 -0.000013 0
0.753683 -0.000014 0
0.753692 -0.000015 0
0.753701 -0.000016 0
0.753712 -0.000018 0
0.753723 -0.000021 0
0.753735 -0.000024 0
0.753748 -0.000027 0
0.753764 -0.000032 0
0.753781 -0.000036 0
0.753802 -0.000042 0
0.753825 -0.000049 0
0.753851 -0.000056 0
0.753882 -0.000065 0
0.753918 -0.000076 0
0.753959 -0.000088 0
0.754006 -0.000102 0
0.754061 -0.000118 0
0.754124 -0.000136 0
0.754198 -0.000158 0
0.754283 -0.000183 0
0.754382 -0.000211 0
0.754496 -0.000245 0
0.754628 -0.000284 0
0.754781 -0.000329 0
0.754959 -0.000381 0
0.755164 -0.000441 0
0.755402 -0.000511 0
0.755678 -0.000592 0
0.755998 -0.000686 0
0.756368 -0.000795 0
0.756797 -0.000922 0
0.757295 -0.001069 0
0.757872 -0.001240 0
0.758540 -0.001439 0
0.759316 -0.001670 0
0.760215 -0.001939 0
0.761260 -0.002254 0
0.762472 -0.002620 0
0.763879 -0.003049 0
0.765515 -0.003551 0
0.767417 -0.004140 0
0.769630 -0.004833 0
0.772208 -0.005650 0
0.775212 -0.006617 0
0.778719 -0.007766 0
0.782818 -0.009138 0
0.787616 -0.010785 0
0.793244 -0.012774 0
0.799858 -0.015196 0
0.807650 -0.018171 0
0.816856 -0.021864 0
0.827763 -0.026509 0
0.840728 -0.032438 0
0.856182 -0.040145 0
0.874638 -0.050374 0
0.896671 -0.064282 0
0.922811 -0.083726 0
0.953210 -0.111616 0
0.986825 -0.152987 0
1.018451 -0.212672 0
1.037058 -0.307117 0
0.997674 -0.366741 0
0.997674 -0.183365 0
1.000000 0.000200 0
0.999876 0.000607 0
0.999626 0.001035 0
0.999240 0.001499 0
0.998706 0.002019 0
0.998008 0.002616 0
0.997121 0.003318 0
0.996014 0.004161 0
0.994649 0.005194 0
0.992976 0.006484 0
0.990935 0.008127 0
0.988451 0.010261 0
0.985443 0.013098 0
0.981835 0.016960 0
0.977597 0.022357 0
0.972872 0.030057 0
0.968215 0.041251 0
0.965542 0.056977 0
0.967889 0.078074 0
0.985185 0.098033 0
1.007698 0.108091 0
1.025976 0.108264 0
1.036548 0.102392 0
1.039745 0.093927 0
1.037158 0.084899 0
1.030421 0.076246 0
1.020859 0.068317 0
1.009474 0.061190 0
0.997004 0.054834 0
0.983991 0.049175 0
0.970834 0.044131 0
0.957822 0.039619 0
0.945166 0.035564 0
0.933018 0.031896 0
0.921488 0.028554 0
0.910654 0.025482 0
0.900573 0.022634 0
0.891284 0.019966 0
0.882813 0.017444 0
0.875176 0.015040 0
0.868379 0.012735 0
0.862418 0.010522 0
0.857280 0.008405 0
0.852942 0.006404 0
0.849370 0.004544 0
0.846520 0.002862 0
0.844336 0.001387 0
0.842745 0.000138 0
0.841708 -0.000857 0
0.841169 -0.001587 0
0.841044 -0.002072 0
0.841244 -0.002343 0
0.841686 -0.002437 0
0.842290 -0.002390 0
0.842988 -0.002243 0
0.843723 -0.002029 0
0.844450 -0.001780 0
0.845134 -0.001519 0
0.845756 -0.001266 0
0.846302 -0.001032 0
0.846770 -0.000825 0
0.847161 -0.000648 0
0.847481 -0.000502 0
0.847738 -0.000383 0
0.847942 -0.000290 0
0.848102 -0.000218 0
0.848226 -0.000163 0
0.848323 -0.000122 0
0.848397 -0.000092 0
0.848454 -0.000069 0
0.848499 -0.000053 0
0.848534 -0.000042 0
0.848562 -0.000033 0
0.848585 -0.000027 0
0.848604 -0.000023 0
0.848619 -0.000021 0
0.848633 -0.000019 0
0.848645 -0.000018 0
0.848655 -0.000018 0
0.848666 -0.000018 0
0.848676 -0.000020 0
0.848685 -0.000021 0
0.848696 -0.000024 0
0.848707 -0.000026 0
0.848719 -0.000030 0
0.848732 -0.000034 0
0.848746 -0.000039 0
0.848763 -0.000045 0
0.848782 -0.000052 0
0.848803 -0.000060 0
0.848828 -0.000070 0
0.848856 -0.000081 0
0.848889 -0.000094 0
0.848927 -0.000108 0
0.848970 -0.000125 0
0.849021 -0.000145 0
0.849079 -0.000168 0
0.849147 -0.000195 0
0.849225 -0.000226 0
0.849316 -0.000261 0
0.849421 -0.000302 0
0.849542 -0.000350 0
0.849683 -0.000406 0
0.849846 -0.000470 0
0.850034 -0.000544 0
0.850253 -0.000631 0
0.850506 -0.000731 0
0.850799 -0.000847 0
0.851138 -0.000982 0
0.851532 -0.001138 0
0.851987 -0.001320 0
0.852516 -0.001530 0