# vtk DataFile Version 2.0
generated by CFD-lab course output (written by Tobias Neckel) 
ASCII

DATASET STRUCTURED_GRID
DIMENSIONS  142 42 1 
POINTS 5964 float

0.000000 0.250000 0
0.024648 0.250000 0
0.049296 0.250000 0
0.073944 0.250000 0
0.098592 0.250000 0
0.123239 0.250000 0
0.147887 0.250000 0
0.172535 0.250000 0
0.197183 0.250000 0
0.221831 0.250000 0
0.246479 0.250000 0
0.271127 0.250000 0
0.295775 0.250000 0
0.320423 0.250000 0
0.345070 0.250000 0
0.369718 0.250000 0
0.394366 0.250000 0
0.419014 0.250000 0
0.443662 0.250000 0
0.468310 0.250000 0
0.492958 0.250000 0
0.517606 0.250000 0
0.542254 0.250000 0
0.566901 0.250000 0
0.591549 0.250000 0
0.616197 0.250000 0
0.640845 0.250000 0
0.665493 0.250000 0
0.690141 0.250000 0
0.714789 0.250000 0
0.739437 0.250000 0
0.764085 0.250000 0
0.788732 0.250000 0
0.813380 0.250000 0
0.838028 0.250000 0
0.862676 0.250000 0
0.887324 0.250000 0
0.911972 0.250000 0
0.936620 0.250000 0
0.961268 0.250000 0
0.985915 0.250000 0
1.010563 0.250000 0
1.035211 0.250000 0
1.059859 0.250000 0
1.084507 0.250000 0
1.109155 0.250000 0
1.133803 0.250000 0
1.158451 0.250000 0
1.183099 0.250000 0
1.207746 0.250000 0
1.232394 0.250000 0
1.257042 0.250000 0
1.281690 0.250000 0
1.306338 0.250000 0
1.330986 0.250000 0
1.355634 0.250000 0
1.380282 0.250000 0
1.404930 0.250000 0
1.429577 0.250000 0
1.454225 0.250000 0
1.478873 0.250000 0
1.503521 0.250000 0
1.528169 0.250000 0
1.552817 0.250000 0
1.577465 0.250000 0
1.602113 0.250000 0
1.626761 0.250000 0
1.651408 0.250000 0
1.676056 0.250000 0
1.700704 0.250000 0
1.725352 0.250000 0
1.750000 0.250000 0
1.774648 0.250000 0
1.799296 0.250000 0
1.823944 0.250000 0
1.848592 0.250000 0
1.873239 0.250000 0
1.897887 0.250000 0
1.922535 0.250000 0
1.947183 0.250000 0
1.971831 0.250000 0
1.996479 0.250000 0
2.021127 0.250000 0
2.045775 0.250000 0
2.070423 0.250000 0
2.095070 0.250000 0
2.119718 0.250000 0
2.144366 0.250000 0
2.169014 0.250000 0
2.193662 0.250000 0
2.218310 0.250000 0
2.242958 0.250000 0
2.267606 0.250000 0
2.292254 0.250000 0
2.316901 0.250000 0
2.341549 0.250000 0
2.366197 0.250000 0
2.390845 0.250000 0
2.415493 0.250000 0
2.440141 0.250000 0
2.464789 0.250000 0
2.489437 0.250000 0
2.514085 0.250000 0
2.538732 0.250000 0
2.563380 0.250000 0
2.588028 0.250000 0
2.612676 0.250000 0
2.637324 0.250000 0
2.661972 0.250000 0
2.686620 0.250000 0
2.711268 0.250000 0
2.735915 0.250000 0
2.760563 0.250000 0
2.785211 0.250000 0
2.809859 0.250000 0
2.834507 0.250000 0
2.859155 0.250000 0
2.883803 0.250000 0
2.908451 0.250000 0
2.933099 0.250000 0
2.957746 0.250000 0
2.982394 0.250000 0
3.007042 0.250000 0
3.031690 0.250000 0
3.056338 0.250000 0
3.080986 0.250000 0
3.105634 0.250000 0
3.130282 0.250000 0
3.154930 0.250000 0
3.179577 0.250000 0
3.204225 0.250000 0
3.228873 0.250000 0
3.253521 0.250000 0
3.278169 0.250000 0
3.302817 0.250000 0
3.327465 0.250000 0
3.352113 0.250000 0
3.376761 0.250000 0
3.401408 0.250000 0
3.426056 0.250000 0
3.450704 0.250000 0
3.475352 0.250000 0
0.000000 0.261905 0
0.024648 0.261905 0
0.049296 0.261905 0
0.073944 0.261905 0
0.098592 0.261905 0
0.123239 0.261905 0
0.147887 0.261905 0
0.172535 0.261905 0
0.197183 0.261905 0
0.221831 0.261905 0
0.246479 0.261905 0
0.271127 0.261905 0
0.295775 0.261905 0
0.320423 0.261905 0
0.345070 0.261905 0
0.369718 0.261905 0
0.394366 0.261905 0
0.419014 0.261905 0
0.443662 0.261905 0
0.468310 0.261905 0
0.492958 0.261905 0
0.517606 0.261905 0
0.542254 0.261905 0
0.566901 0.261905 0
0.591549 0.261905 0
0.616197 0.261905 0
0.640845 0.261905 0
0.665493 0.261905 0
0.690141 0.261905 0
0.714789 0.261905 0
0.739437 0.261905 0
0.764085 0.261905 0
0.788732 0.261905 0
0.813380 0.261905 0
0.838028 0.261905 0
0.862676 0.261905 0
0.887324 0.261905 0
0.911972 0.261905 0
0.936620 0.261905 0
0.961268 0.261905 0
0.985915 0.261905 0
1.010563 0.261905 0
1.035211 0.261905 0
1.059859 0.261905 0
1.084507 0.261905 0
1.109155 0.261905 0
1.133803 0.261905 0
1.158451 0.261905 0
1.183099 0.261905 0
1.207746 0.261905 0
1.232394 0.261905 0
1.257042 0.261905 0
1.281690 0.261905 0
1.306338 0.261905 0
1.330986 0.261905 0
1.355634 0.261905 0
1.380282 0.261905 0
1.404930 0.261905 0
1.429577 0.261905 0
1.454225 0.261905 0
1.478873 0.261905 0
1.503521 0.261905 0
1.528169 0.261905 0
1.552817 0.261905 0
1.577465 0.261905 0
1.602113 0.261905 0
1.626761 0.261905 0
1.651408 0.261905 0
1.676056 0.261905 0
1.700704 0.261905 0
1.725352 0.261905 0
1.750000 0.261905 0
1.774648 0.261905 0
1.799296 0.261905 0
1.823944 0.261905 0
1.848592 0.261905 0
1.873239 0.261905 0
1.897887 0.261905 0
1.922535 0.261905 0
1.947183 0.261905 0
1.971831 0.261905 0
1.996479 0.261905 0
2.021127 0.261905 0
2.045775 0.261905 0
2.070423 0.261905 0
2.095070 0.261905 0
2.119718 0.261905 0
2.144366 0.261905 0
2.169014 0.261905 0
2.193662 0.261905 0
2.218310 0.261905 0
2.242958 0.261905 0
2.267606 0.261905 0
2.292254 0.261905 0
2.316901 0.261905 0
2.341549 0.261905 0
2.366197 0.261905 0
2.390845 0.261905 0
2.415493 0.261905 0
2.440141 0.261905 0
2.464789 0.261905 0
2.489437 0.261905 0
2.514085 0.261905 0
2.538732 0.261905 0
2.563380 0.261905 0
2.588028 0.261905 0
2.612676 0.261905 0
2.637324 0.261905 0
2.661972 0.261905 0
2.686620 0.261905 0
2.711268 0.261905 0
2.735915 0.261905 0
2.760563 0.261905 0
2.785211 0.261905 0
2.809859 0.261905 0
2.834507 0.261905 0
2.859155 0.261905 0
2.883803 0.261905 0
2.908451 0.261905 0
2.933099 0.261905 0
2.957746 0.261905 0
2.982394 0.261905 0
3.007042 0.261905 0
3.031690 0.261905 0
3.056338 0.261905 0
3.080986 0.261905 0
3.105634 0.261905 0
3.130282 0.261905 0
3.154930 0.261905 0
3.179577 0.261905 0
3.204225 0.261905 0
3.228873 0.261905 0
3.253521 0.261905 0
3.278169 0.261905 0
3.302817 0.261905 0
3.327465 0.261905 0
3.352113 0.261905 0
3.376761 0.261905 0
3.401408 0.261905 0
3.426056 0.261905 0
3.450704 0.261905 0
3.475352 0.261905 0
0.000000 0.273810 0
0.024648 0.273810 0
0.049296 0.273810 0
0.073944 0.273810 0
0.098592 0.273810 0
0.123239 0.273810 0
0.147887 0.273810 0
0.172535 0.273810 0
0.197183 0.273810 0
0.221831 0.273810 0
0.246479 0.273810 0
0.271127 0.273810 0
0.295775 0.273810 0
0.320423 0.273810 0
0.345070 0.273810 0
0.369718 0.273810 0
0.394366 0.273810 0
0.419014 0.273810 0
0.443662 0.273810 0
0.468310 0.273810 0
0.492958 0.273810 0
0.517606 0.273810 0
0.542254 0.273810 0
0.566901 0.273810 0
0.591549 0.273810 0
0.616197 0.273810 0
0.640845 0.273810 0
0.665493 0.273810 0
0.690141 0.273810 0
0.714789 0.273810 0
0.739437 0.273810 0
0.764085 0.273810 0
0.788732 0.273810 0
0.813380 0.273810 0
0.838028 0.273810 0
0.862676 0.273810 0
0.887324 0.273810 0
0.911972 0.273810 0
0.936620 0.273810 0
0.961268 0.273810 0
0.985915 0.273810 0
1.010563 0.273810 0
1.035211 0.273810 0
1.059859 0.273810 0
1.084507 0.273810 0
1.109155 0.273810 0
1.133803 0.273810 0
1.158451 0.273810 0
1.183099 0.273810 0
1.207746 0.273810 0
1.232394 0.273810 0
1.257042 0.273810 0
1.281690 0.273810 0
1.306338 0.273810 0
1.330986 0.273810 0
1.355634 0.273810 0
1.380282 0.273810 0
1.404930 0.273810 0
1.429577 0.273810 0
1.454225 0.273810 0
1.478873 0.273810 0
1.503521 0.273810 0
1.528169 0.273810 0
1.552817 0.273810 0
1.577465 0.273810 0
1.602113 0.273810 0
1.626761 0.273810 0
1.651408 0.273810 0
1.676056 0.273810 0
1.700704 0.273810 0
1.725352 0.273810 0
1.750000 0.273810 0
1.774648 0.273810 0
1.799296 0.273810 0
1.823944 0.273810 0
1.848592 0.273810 0
1.873239 0.273810 0
1.897887 0.273810 0
1.922535 0.273810 0
1.947183 0.273810 0
1.971831 0.273810 0
1.996479 0.273810 0
2.021127 0.273810 0
2.045775 0.273810 0
2.070423 0.273810 0
2.095070 0.273810 0
2.119718 0.273810 0
2.144366 0.273810 0
2.169014 0.273810 0
2.193662 0.273810 0
2.218310 0.273810 0
2.242958 0.273810 0
2.267606 0.273810 0
2.292254 0.273810 0
2.316901 0.273810 0
2.341549 0.273810 0
2.366197 0.273810 0
2.390845 0.273810 0
2.415493 0.273810 0
2.440141 0.273810 0
2.464789 0.273810 0
2.489437 0.273810 0
2.514085 0.273810 0
2.538732 0.273810 0
2.563380 0.273810 0
2.588028 0.273810 0
2.612676 0.273810 0
2.637324 0.273810 0
2.661972 0.273810 0
2.686620 0.273810 0
2.711268 0.273810 0
2.735915 0.273810 0
2.760563 0.273810 0
2.785211 0.273810 0
2.809859 0.273810 0
2.834507 0.273810 0
2.859155 0.273810 0
2.883803 0.273810 0
2.908451 0.273810 0
2.933099 0.273810 0
2.957746 0.273810 0
2.982394 0.273810 0
3.007042 0.273810 0
3.031690 0.273810 0
3.056338 0.273810 0
3.080986 0.273810 0
3.105634 0.273810 0
3.130282 0.273810 0
3.154930 0.273810 0
3.179577 0.273810 0
3.204225 0.273810 0
3.228873 0.273810 0
3.253521 0.273810 0
3.278169 0.273810 0
3.302817 0.273810 0
3.327465 0.273810 0
3.352113 0.273810 0
3.376761 0.273810 0
3.401408 0.273810 0
3.426056 0.273810 0
3.450704 0.273810 0
3.475352 0.273810 0
0.000000 0.285714 0
0.024648 0.285714 0
0.049296 0.285714 0
0.073944 0.285714 0
0.098592 0.285714 0
0.123239 0.285714 0
0.147887 0.285714 0
0.172535 0.285714 0
0.197183 0.285714 0
0.221831 0.285714 0
0.246479 0.285714 0
0.271127 0.285714 0
0.295775 0.285714 0
0.320423 0.285714 0
0.345070 0.285714 0
0.369718 0.285714 0
0.394366 0.285714 0
0.419014 0.285714 0
0.443662 0.285714 0
0.468310 0.285714 0
0.492958 0.285714 0
0.517606 0.285714 0
0.542254 0.285714 0
0.566901 0.285714 0
0.591549 0.285714 0
0.616197 0.285714 0
0.640845 0.285714 0
0.665493 0.285714 0
0.690141 0.285714 0
0.714789 0.285714 0
0.739437 0.285714 0
0.764085 0.285714 0
0.788732 0.285714 0
0.813380 0.285714 0
0.838028 0.285714 0
0.862676 0.285714 0
0.887324 0.285714 0
0.911972 0.285714 0
0.936620 0.285714 0
0.961268 0.285714 0
0.985915 0.285714 0
1.010563 0.285714 0
1.035211 0.285714 0
1.059859 0.285714 0
1.084507 0.285714 0
1.109155 0.285714 0
1.133803 0.285714 0
1.158451 0.285714 0
1.183099 0.285714 0
1.207746 0.285714 0
1.232394 0.285714 0
1.257042 0.285714 0
1.281690 0.285714 0
1.306338 0.285714 0
1.330986 0.285714 0
1.355634 0.285714 0
1.380282 0.285714 0
1.404930 0.285714 0
1.429577 0.285714 0
1.454225 0.285714 0
1.478873 0.285714 0
1.503521 0.285714 0
1.528169 0.285714 0
1.552817 0.285714 0
1.577465 0.285714 0
[...]
POINT_DATA 5964 

VECTORS velocity float
1.000000 0.000000 0
0.999854 0.000000 0
0.999556 0.000000 0
0.999097 0.000000 0
0.998458 0.000000 0
0.997615 0.000000 0
0.996532 0.000000 0
0.995162 0.000000 0
0.993440 0.000000 0
0.991275 0.000000 0
0.988543 0.000000 0
0.985062 0.000000 0
0.980561 0.000000 0
0.974615 0.000000 0
0.966517 0.000000 0
0.954934 0.000000 0
0.937384 0.000000 0
0.905760 0.000000 0
0.847693 0.000000 0
-0.000000 0.000000 0
-0.000000 0.000000 0
-0.000000 0.000000 0
-0.000000 0.000000 0
-0.000000 0.000000 0
-0.000000 0.000000 0
-0.000000 0.000000 0
-0.000000 0.000000 0
-0.000000 0.000000 0
-0.000000 0.000000 0
-0.000000 0.000000 0
-0.000000 0.000000 0
-0.000000 0.000000 0
-0.000000 0.000000 0
-0.000000 0.000000 0
-0.000000 0.000000 0
-0.000000 0.000000 0
-0.000000 0.000000 0
-0.000000 0.000000 0
-0.000000 0.000000 0
-0.000000 0.000000 0
-0.000000 0.000000 0
-0.000000 0.000000 0
-0.000000 0.000000 0
-0.000000 0.000000 0
-0.000000 0.000000 0
-0.000000 0.000000 0
-0.000000 0.000000 0
-0.000000 0.000000 0
-0.000000 0.000000 0
-0.000000 0.000000 0
-0.000000 0.000000 0
-0.000000 0.000000 0
-0.000000 0.000000 0
-0.000000 0.000000 0
-0.000000 0.000000 0
-0.000000 0.000000 0
-0.000000 0.000000 0
-0.000000 0.000000 0
-0.000000 0.000000 0
-0.000000 0.000000 0
-0.000000 0.000000 0
-0.000000 0.000000 0
-0.000000 0.000000 0
-0.000000 0.000000 0
-0.000000 0.000000 0
-0.000000 0.000000 0
-0.000000 0.000000 0
-0.000000 0.000000 0
-0.000000 0.000000 0
-0.000000 0.000000 0
-0.000000 0.000000 0
-0.000000 0.000000 0
-0.000000 0.000000 0
-0.000000 0.000000 0
-0.000000 0.000000 0
-0.000000 0.000000 0
-0.000000 0.000000 0
-0.000000 0.000000 0
-0.000000 0.000000 0
-0.000000 0.000000 0
-0.000000 0.000000 0
-0.000000 0.000000 0
-0.000000 0.000000 0
-0.000000 0.000000 0
-0.000000 0.000000 0
-0.000000 0.000000 0
-0.000000 0.000000 0
-0.000000 0.000000 0
-0.000000 0.000000 0
-0.000000 0.000000 0
-0.000000 0.000000 0
-0.000000 0.000000 0
-0.000000 0.000000 0
-0.000000 0.000000 0
-0.000000 0.000000 0
-0.000000 0.000000 0
-0.000000 0.000000 0
-0.000000 0.000000 0
-0.000000 0.000000 0
-0.000000 0.000000 0
-0.000000 0.000000 0
-0.000000 0.000000 0
-0.000000 0.000000 0
-0.000000 0.000000 0
-0.000000 0.000000 0
-0.000000 0.000000 0
-0.000000 0.000000 0
-0.000000 0.000000 0
-0.000001 0.000000 0
-0.000001 0.000000 0
-0.000001 0.000000 0
-0.000001 0.000000 0
-0.000001 0.000000 0
-0.000001 0.000000 0
-0.000001 0.000000 0
-0.000001 0.000000 0
-0.000001 0.000000 0
-0.000001 0.000000 0
-0.000001 0.000000 0
-0.000001 0.000000 0
-0.000001 0.000000 0
-0.000001 0.000000 0
-0.000001 0.000000 0
-0.000001 0.000000 0
-0.000001 0.000000 0
-0.000001 0.000000 0
-0.000001 0.000000 0
-0.000001 0.000000 0
-0.000001 0.000000 0
-0.000001 0.000000 0
-0.000001 0.000000 0
-0.000001 0.000000 0
-0.000001 0.000000 0
-0.000001 0.000000 0
-0.000001 0.000000 0
-0.000000 0.000000 0
-0.000000 0.000000 0
-0.000000 0.000000 0
0.000000 0.000000 0
0.000000 0.000000 0
-0.000000 0.000000 0
0.496514 0.000000 0
1.000000 0.000035 0
0.999854 0.000107 0
0.999558 0.000183 0
0.999101 0.000265 0
0.998465 0.000358 0
0.997626 0.000465 0
0.996549 0.000592 0
0.995186 0.000747 0
0.993475 0.000939 0
0.991325 0.001182 0
0.988614 0.001500 0
0.985165 0.001928 0
0.980714 0.002523 0
0.974850 0.003392 0
0.966903 0.004753 0
0.955641 0.007036 0
0.938825 0.011875 0
0.910181 0.021660 0
0.860875 0.078853 0
0.714887 0.110956 0
0.576505 0.072745 0
0.473018 0.041074 0
0.401067 0.022638 0
0.351164 0.013309 0
0.315501 0.008679 0
0.288996 0.006202 0
0.268556 0.004718 0
0.252296 0.003739 0
0.239030 0.003050 0
0.227982 0.002542 0
0.218627 0.002156 0
0.210593 0.001855 0
0.203612 0.001615 0
0.197484 0.001420 0
0.192057 0.001260 0
0.187213 0.001127 0
0.182861 0.001015 0
0.178924 0.000919 0
0.175345 0.000838 0
0.172073 0.000767 0
0.169069 0.000706 0
0.166298 0.000652 0
0.163733 0.000605 0
0.161349 0.000563 0
0.159126 0.000526 0
0.157046 0.000493 0
0.155095 0.000463 0
0.153259 0.000437 0
0.151528 0.000413 0
0.149891 0.000391 0
0.148340 0.000371 0
0.146867 0.000353 0
0.145466 0.000336 0
0.144130 0.000321 0
0.142855 0.000307 0
0.141636 0.000294 0
0.140468 0.000281 0
0.139349 0.000270 0
0.138274 0.000260 0
0.137241 0.000250 0
0.136247 0.000241 0
0.135289 0.000232 0
0.134366 0.000224 0
0.133475 0.000216 0
0.132615 0.000209 0
0.131784 0.000202 0
0.130981 0.000196 0
0.130203 0.000189 0
0.129451 0.000184 0
0.128722 0.000178 0
0.128016 0.000172 0
0.127332 0.000167 0
0.126669 0.000162 0
0.126026 0.000157 0
0.125403 0.000153 0
0.124798 0.000148 0
0.124212 0.000144 0
0.123644 0.000139 0
0.123093 0.000135 0
0.122560 0.000131 0
0.122043 0.000127 0
0.121542 0.000123 0
0.121058 0.000119 0
0.120589 0.000115 0
0.120137 0.000111 0
0.119701 0.000107 0
0.119280 0.000104 0
0.118876 0.000100 0
0.118488 0.000096 0
0.118116 0.000091 0
0.117761 0.000087 0
0.117423 0.000083 0
0.117104 0.000079 0
0.116802 0.000074 0
0.116520 0.000069 0
0.116258 0.000064 0
0.116017 0.000058 0
0.115799 0.000052 0
0.115604 0.000046 0
0.115435 0.000039 0
0.115294 0.000032 0
0.115182 0.000024 0
0.115102 0.000015 0
0.115058 0.000005 0
0.115054 -0.000006 0
0.115092 -0.000018 0
0.115175 -0.000030 0
0.115308 -0.000044 0
0.115494 -0.000060 0
0.115740 -0.000077 0
0.116052 -0.000096 0
0.116437 -0.000118 0
0.116904 -0.000142 0
0.117461 -0.000169 0
0.118121 -0.000199 0
0.118897 -0.000234 0
0.119806 -0.000274 0
0.120865 -0.000320 0
0.122097 -0.000373 0
0.123530 -0.000434 0
0.125196 -0.000506 0
0.127133 -0.000591 0
0.129391 -0.000691 0
0.132026 -0.000810 0
0.135111 -0.000953 0
0.138736 -0.001128 0
0.143013 -0.001341 0
0.148089 -0.001606 0
0.154149 -0.001939 0
0.161444 -0.002364 0
0.170306 -0.002919 0
0.181199 -0.003660 0
0.194777 -0.004678 0
0.212005 -0.006127 0
0.234356 -0.008287 0
0.264192 -0.011712 0
0.305582 -0.017566 0
0.365830 -0.029260 0
0.461613 -0.051628 0
0.618274 -0.166997 0
0.993338 -0.267961 0
0.993338 -0.133981 0
1.000000 0.000070 0
0.999856 0.000213 0
0.999564 0.000364 0
0.999113 0.000528 0
0.998486 0.000712 0
0.997659 0.000926 0
0.996599 0.001178 0
0.995259 0.001485 0
0.993579 0.001865 0
0.991473 0.002348 0
0.988825 0.002975 0
0.985469 0.003816 0
0.981163 0.004982 0
0.975541 0.006670 0
0.968025 0.009278 0
0.957649 0.013561 0
0.942785 0.021957 0
0.920695 0.037650 0
0.888371 0.094325 0
0.890999 0.137349 0
0.842150 0.116821 0
0.771619 0.084735 0
0.701223 0.058855 0
0.639921 0.041328 0
0.589259 0.030027 0
0.547926 0.022674 0
0.514043 0.017726 0
0.485956 0.014261 0
0.462374 0.011743 0
0.442326 0.009854 0
0.425088 0.008399 0
0.410111 0.007252 0
0.396978 0.006332 0
0.385367 0.005581 0
0.375025 0.004961 0
0.365751 0.004442 0
0.357385 0.004004 0
0.349796 0.003630 0
0.342877 0.003309 0
0.336540 0.003031 0
0.330711 0.002789 0
0.325327 0.002577 0
0.320336 0.002391 0
0.315695 0.002225 0
0.311363 0.002078 0
0.307309 0.001947 0
0.303505 0.001829 0
0.299925 0.001723 0
0.296547 0.001627 0
0.293354 0.001540 0
0.290328 0.001461 0
0.287456 0.001388 0
0.284723 0.001322 0
0.282119 0.001261 0
0.279634 0.001205 0
0.277258 0.001153 0
0.274984 0.001105 0
0.272803 0.001060 0
0.270711 0.001018 0
0.268700 0.000979 0
0.266766 0.000943 0
0.264904 0.000908 0
0.263109 0.000876 0
0.261378 0.000846 0
0.259706 0.000817 0
0.258092 0.000790 0
0.256532 0.000764 0
0.255023 0.000739 0
0.253562 0.000715 0
0.252149 0.000693 0
0.250780 0.000671 0
0.249454 0.000651 0
0.248169 0.000631 0
0.246923 0.000612 0
0.245716 0.000593 0
0.244547 0.000575 0
0.243413 0.000557 0
0.242314 0.000540 0
0.241249 0.000524 0
0.240218 0.000508 0
0.239219 0.000492 0
0.238253 0.000476 0
0.237319 0.000460 0
0.236416 0.000445 0
0.235544 0.000429 0
0.234704 0.000414 0
0.233894 0.000398 0
0.233117 0.000383 0
0.232371 0.000367 0
0.231657 0.000351 0
0.230976 0.000334 0
0.230328 0.000318 0
0.229715 0.000300 0
0.229137 0.000282 0
0.228596 0.000263 0
0.228094 0.000243 0
0.227631 0.000222 0
0.227212 0.000199 0
0.226836 0.000176 0
0.226509 0.000150 0
0.226232 0.000122 0
0.226009 0.000093 0
0.225845 0.000060 0
0.225745 0.000023 0
0.225715 -0.000016 0
0.225763 -0.000059 0
0.225891 -0.000104 0
0.226107 -0.000154 0
0.226418 -0.000209 0
0.226832 -0.000270 0
0.227360 -0.000337 0
0.228015 -0.000411 0
0.228809 -0.000495 0
0.229758 -0.000588 0
0.230883 -0.000694 0
0.232205 -0.000813 0
0.233750 -0.000950 0
0.235549 -0.001107 0
0.237641 -0.001287 0
0.240068 -0.001497 0
0.242884 -0.001740 0
0.246152 -0.002026 0
0.249948 -0.002363 0
0.254367 -0.002763 0
0.259521 -0.003241 0
0.265551 -0.003817 0
0.272632 -0.004517 0
0.280983 -0.005379 0
0.290887 -0.006450 0
0.302708 -0.007804 0
0.316925 -0.009542 0
0.334185 -0.011819 0
0.355376 -0.014879 0
0.381749 -0.019116 0
0.415124 -0.025206 0
0.458227 -0.034402 0
0.515316 -0.049090 0
0.593010 -0.075362 0
0.702561 -0.121929 0
0.858240 -0.256820 0
0.994048 -0.362307 0
0.994048 -0.181154 0
1.000000 0.000105 0
0.999859 0.000318 0
0.999574 0.000542 0
0.999133 0.000786 0
0.998521 0.001060 0
0.997714 0.001377 0
0.996681 0.001752 0
0.995379 0.002205 0
0.993750 0.002767 0
0.991715 0.003479 0
0.989168 0.004400 0
0.985962 0.005628 0
0.981888 0.007318 0
0.976642 0.009737 0
0.969783 0.013395 0
0.960673 0.019226 0
0.948431 0.029724 0
0.933029 0.047942 0
0.915087 0.093196 0
0.945331 0.133281 0
0.948627 0.130405 0
0.922940 0.109140 0
0.881982 0.086247 0
0.836591 0.067386 0
0.792541 0.053113 0
0.752209 0.042531 0
0.716226 0.034649 0
0.684459 0.028695 0
0.656490 0.024123 0
0.631833 0.020551 0
0.610023 0.017716 0
0.590648 0.015432 0
0.573351 0.013566 0
0.557836 0.012023 0
0.543850 0.010734 0
0.531185 0.009647 0
0.519665 0.008721 0
0.509142 0.007926 0
0.499491 0.007240 0
0.490607 0.006643 0
0.482399 0.006122 0
0.474792 0.005663 0
0.467717 0.005257 0
0.461120 0.004897 0
0.454949 0.004576 0
0.449162 0.004289 0
0.443721 0.004030 0
0.438594 0.003797 0
0.433751 0.003586 0
0.429168 0.003394 0
0.424821 0.003220 0
0.420691 0.003060 0
0.416759 0.002913 0
0.413011 0.002779 0
0.409432 0.002655 0
0.406009 0.002540 0
0.402731 0.002433 0
0.399588 0.002334 0
0.396571 0.002242 0
0.393671 0.002155 0
0.390882 0.002074 0
0.388195 0.001999 0
0.385606 0.001927 0
0.383109 0.001860 0
0.380697 0.001796 0
0.378368 0.001736 0
0.376117 0.001678 0
0.373940 0.001624 0
0.371833 0.001572 0
0.369793 0.001522 0
0.367818 0.001474 0
0.365905 0.001428 0
0.364051 0.001384 0
0.362255 0.001342 0
0.360514 0.001301 0
0.358826 0.001261 0
0.357191 0.001222 0
0.355606 0.001184 0
0.354071 0.001148 0
0.352584 0.001111 0
0.351145 0.001076 0
0.349752 0.001041 0
0.348405 0.001007 0
0.347104 0.000972 0
0.345848 0.000938 0
0.344638 0.000904 0
0.343472 0.000870 0
0.342352 0.000836 0
0.341277 0.000801 0
0.340249 0.000765 0
0.339268 0.000729 0
0.338335 0.000692 0
0.337450 0.000654 0
0.336617 0.000614 0
0.335836 0.000573 0
0.335109 0.000530 0
0.334438 0.000484 0
0.333827 0.000436 0
0.333277 0.000385 0
0.332794 0.000331 0
0.332379 0.000273 0
0.332038 0.000211 0
0.331777 0.000142 0
0.331600 0.000067 0
0.331515 -0.000015 0
0.331533 -0.000103 0
0.331659 -0.000197 0
0.331900 -0.000299 0
0.332266 -0.000410 0
0.332766 -0.000532 0
0.333413 -0.000668 0
0.334222 -0.000817 0
0.335209 -0.000984 0
0.336395 -0.001171 0
0.337802 -0.001381 0
0.339459 -0.001619 0
0.341396 -0.001890 0
0.343652 -0.002199 0
0.346272 -0.002555 0
0.349309 -0.002967 0
0.352827 -0.003445 0
0.356903 -0.004003 0
0.361626 -0.004659 0
0.367106 -0.005433 0
0.373475 -0.006355 0
0.380896 -0.007460 0
0.389566 -0.008795 0
0.399731 -0.010423 0
0.411702 -0.012431 0
0.425868 -0.014940 0
0.442734 -0.018123 0
0.462957 -0.022231 0
0.487408 -0.027651 0
0.517261 -0.034985 0
0.554122 -0.045225 0
0.600209 -0.060104 0
0.658577 -0.082665 0
0.733091 -0.119698 0
0.827187 -0.179733 0
0.940144 -0.307783 0
0.994839 -0.399149 0
0.994839 -0.199575 0
1.000000 0.000138 0
0.999864 0.000419 0
0.999587 0.000715 0
0.999160 0.001037 0
0.998568 0.001398 0
0.997790 0.001814 0
0.996794 0.002306 0
0.995543 0.002901 0
0.993983 0.003635 0
0.992045 0.004560 0
0.989634 0.005754 0
0.986627 0.007333 0
0.982854 0.009483 0
0.978089 0.012517 0
0.972037 0.016990 0
0.964382 0.023874 0
0.954906 0.035310 0
0.945019 0.053755 0
0.937269 0.088384 0
0.965708 0.121149 0
0.987885 0.127636 0
0.990072 0.116924 0
0.975767 0.100560 0
0.951738 0.084527 0
0.923220 0.070783 0
0.893431 0.059534 0
0.864153 0.050449 0
0.836296 0.043113 0
0.810271 0.037161 0
0.786207 0.032297 0
0.764079 0.028291 0
0.743785 0.024964 0
0.725185 0.022180 0
0.708130 0.019830 0
0.692470 0.017833 0
0.678064 0.016123 0
0.664784 0.014650 0
0.652514 0.013374 0
0.641149 0.012261 0
0.630597 0.011286 0
0.620776 0.010428 0
0.611612 0.009669 0
0.603042 0.008994 0
0.595009 0.008392 0
0.587463 0.007854 0
0.580358 0.007370 0
0.573655 0.006933 0
0.567318 0.006538 0
0.561317 0.006180 0
0.555623 0.005853 0
0.550211 0.005555 0
0.545059 0.005282 0
0.540147 0.005031 0
0.535456 0.004800 0
0.530971 0.004587 0
0.526676 0.004389 0
0.522558 0.004206 0
0.518606 0.004035 0
0.514808 0.003876 0
0.511155 0.003727 0
0.507638 0.003587 0
0.504249 0.003456 0
0.500980 0.003333 0
0.497825 0.003216 0
0.494778 0.003106 0
0.491832 0.003002 0
0.488984 0.002903 0
0.486228 0.002808 0
0.483560 0.002718 0
0.480977 0.002632 0
0.478474 0.002549 0
0.476048 0.002470 0
0.473697 0.002394 0
0.471418 0.002320 0
0.469209 0.002249 0
0.467067 0.002180 0
0.464991 0.002113 0
0.462978 0.002047 0
0.461027 0.001984 0
0.459138 0.001921 0
0.457308 0.001859 0
0.455537 0.001799 0
0.453824 0.001739 0
0.452169 0.001680 0
0.450571 0.001621 0
0.449029 0.001562 0
0.447545 0.001502 0
0.446118 0.001443 0
0.444748 0.001383 0
0.443436 0.001321 0
0.442183 0.001259 0
0.440990 0.001195 0
0.439859 0.001130 0
0.438790 0.001062 0
0.437787 0.000991 0
0.436850 0.000918 0
0.435983 0.000841 0
0.435188 0.000760 0
0.434469 0.000674 0
0.433830 0.000584 0
0.433274 0.000487 0
0.432806 0.000384 0
0.432432 0.000272 0
0.432158 0.000150 0
0.431989 0.000016 0
0.431939 -0.000128 0
0.432016 -0.000282 0
0.432228 -0.000447 0
0.432583 -0.000627 0
0.433093 -0.000824 0
0.433772 -0.001040 0
0.434634 -0.001279 0
0.435699 -0.001544 0
0.436987 -0.001841 0
0.438524 -0.002173 0
0.440338 -0.002549 0
0.442465 -0.002975 0
0.444946 -0.003462 0
0.447828 -0.004020 0
0.451168 -0.004663 0
0.455034 -0.005408 0
0.459506 -0.006276 0
0.464678 -0.007291 0
0.470663 -0.008486 0
0.477598 -0.009901 0
0.485647 -0.011588 0
0.495007 -0.013615 0
0.505921 -0.016070 0
0.518687 -0.019074 0
0.533675 -0.022792 0
0.551348 -0.027455 0
0.572292 -0.033397 0
0.597252 -0.041108 0
0.627181 -0.051339 0
0.663294 -0.065269 0
0.707094 -0.084853 0
0.760288 -0.113271 0
0.824268 -0.156799 0
0.897585 -0.221934 0
0.972802 -0.337795 0
0.995590 -0.415141 0
0.995590 -0.207570 0
1.000000 0.000170 0
0.999869 0.000517 0
0.999604 0.000882 0
0.999195 0.001278 0
0.998628 0.001722 0
0.997884 0.002234 0
0.996936 0.002837 0
0.995748 0.003563 0
0.994274 0.004457 0
0.992454 0.005579 0
0.990209 0.007017 0
0.987441 0.008903 0
0.984022 0.011442 0
0.979806 0.014962 0
0.974638 0.020015 0
0.968468 0.027500 0
0.961560 0.039076 0
0.955832 0.056460 0
0.954477 0.083204 0
0.976672 0.108834 0
1.001711 0.118637 0
1.016359 0.114993 0
1.018678 0.104762 0
1.011393 0.092766 0
0.997799 0.081274 0
0.980477 0.071060 0
0.961203 0.062245 0
0.941145 0.054720 0
0.921055 0.048316 0
0.901402 0.042862 0
0.882469 0.038206 0
0.864413 0.034217 0
0.847309 0.030787 0
0.831175 0.027825 0
0.815996 0.025256 0
0.801738 0.023018 0
0.788353 0.021061 0
0.775787 0.019342 0
0.763985 0.017826 0
0.752892 0.016484 0
0.742454 0.015291 0
0.732622 0.014228 0
0.723347 0.013276 0
0.714587 0.012422 0
0.706301 0.011653 0
0.698452 0.010958 0
0.691006 0.010328 0
0.683932 0.009756 0
0.677203 0.009235 0
0.670793 0.008758 0
0.664677 0.008322 0
0.658836 0.007921 0
0.653249 0.007552 0
0.647900 0.007211 0
0.642771 0.006896 0
0.637849 0.006603 0
0.633121 0.006331 0
0.628573 0.006077 0
0.624195 0.005840 0
0.619977 0.005618 0
0.615910 0.005410 0
0.611985 0.005214 0
0.608194 0.005030 0
0.604531 0.004855 0
0.600988 0.004690 0
0.597560 0.004534 0
0.594242 0.004385 0
0.591027 0.004243 0
0.587913 0.004108 0
0.584894 0.003979 0
0.581967 0.003855 0
0.579129 0.003735 0
0.576375 0.003620 0
0.573704 0.003510 0
0.571112 0.003402 0
0.568597 0.003298 0
0.566158 0.003197 0
0.563792 0.003099 0
0.561497 0.003002 0
0.559273 0.002908 0
0.557117 0.002815 0
0.555029 0.002724 0
0.553009 0.002633 0
0.551054 0.002544 0
0.549166 0.002455 0
0.547343 0.002366 0
0.545587 0.002276 0
0.543896 0.002187 0
0.542271 0.002096 0
0.540714 0.002004 0
0.539224 0.001910 0
0.537804 0.001815 0
0.536454 0.001716 0
0.535176 0.001615 0
0.533972 0.001510 0
0.532845 0.001401 0
0.531797 0.001287 0
0.530830 0.001167 0
0.529949 0.001042 0
0.529157 0.000909 0
0.528459 0.000768 0
0.527858 0.000617 0
0.527361 0.000456 0
0.526974 0.000281 0
0.526701 0.000091 0
0.526552 -0.000116 0
0.526542 -0.000336 0
0.526677 -0.000572 0
0.526968 -0.000828 0
0.527426 -0.001107 0
0.528063 -0.001412 0
0.528897 -0.001748 0
0.529945 -0.002120 0
0.531228 -0.002535 0
0.532773 -0.003000 0
0.534608 -0.003523 0
0.536768 -0.004115 0
0.539294 -0.004789 0
0.542234 -0.005561 0
0.545645 -0.006447 0
0.549593 -0.007472 0
0.554156 -0.008661 0
0.559427 -0.010048 0
0.565515 -0.011674 0
0.572550 -0.013592 0
0.580687 -0.015868 0
0.590112 -0.018587 0
0.601046 -0.021860 0
0.613757 -0.025836 0
0.628572 -0.030716 0
0.645886 -0.036775 0
0.666180 -0.044403 0
0.690041 -0.054162 0
0.718171 -0.066883 0
0.751377 -0.083822 0
0.790502 -0.106951 0
0.836154 -0.139260 0
0.888008 -0.186012 0
0.942312 -0.251474 0
0.990320 -0.355119 0
0.996271 -0.421161 0
0.996271 -0.210580 0
1.000000 0.000201 0
0.999876 0.000611 0
0.999624 0.001041 0
0.999236 0.001508 0
0.998699 0.002031 0
0.997996 0.002631 0
0.997104 0.003338 0
0.995990 0.004186 0
0.994616 0.005226 0
0.992932 0.006524 0
0.990877 0.008175 0
0.988376 0.010321 0
0.985348 0.013171 0
0.981715 0.017050 0
0.977446 0.022466 0
0.972684 0.030190 0
0.967982 0.041413 0
0.965254 0.057176 0
0.967534 0.078318 0
0.984750 0.098336 0
1.007163 0.108467 0
1.025317 0.108729 0
1.035733 0.102959 0
1.038732 0.094612 0
1.035897 0.085715 0
1.028853 0.077209 0
1.018915 0.069446 0
1.007072 0.062505 0
0.994053 0.056357 0
0.980387 0.050934 0
0.966457 0.046156 0
0.952536 0.041947 0
0.938816 0.038234 0
0.925427 0.034954 0
0.912456 0.032050 0
0.899953 0.029475 0
0.887947 0.027185 0
0.876449 0.025143 0
0.865457 0.023320 0
0.854960 0.021686 0
0.844943 0.020218 0
0.835387 0.018897 0
0.826270 0.017705 0
0.817570 0.016626 0
0.809264 0.015647 0
0.801330 0.014757 0
0.793745 0.013946 0
0.786489 0.013205 0
0.779543 0.012526 0
0.772887 0.011903 0
0.766504 0.011330 0
0.760377 0.010802 0
0.754490 0.010313 0
0.748831 0.009861 0
0.743384 0.009441 0
0.738139 0.009050 0
0.733083 0.008686 0
0.728205 0.008346 0
0.723497 0.008027 0
0.718949 0.007729 0
0.714552 0.007448 0
0.710299 0.007183 0
0.706183 0.006933 0
0.702197 0.006697 0
0.698335 0.006473 0
0.694592 0.006260 0
0.690961 0.006058 0
0.687439 0.005865 0
0.684022 0.005680 0
0.680704 0.005504 0
0.677482 0.005334 0
0.674354 0.005171 0
0.671315 0.005014 0
0.668363 0.004862 0
0.665496 0.004715 0
0.662710 0.004573 0
0.660005 0.004434 0
0.657378 0.004299 0
0.654827 0.004166 0
0.652352 0.004036 0
0.649951 0.003909 0
0.647622 0.003783 0
0.645366 0.003659 0
0.643181 0.003536 0
0.641068 0.003413 0
0.639025 0.003290 0
0.637054 0.003168 0
0.635154 0.003044 0
0.633326 0.002919 0
0.631570 0.002793 0
0.629888 0.002665 0
0.628280 0.002533 0
0.626749 0.002399 0
0.625295 0.002260 0
0.623921 0.002117 0
0.622629 0.001969 0
0.621422 0.001814 0
0.620302 0.001652 0
0.619274 0.001483 0
0.618340 0.001304 0
0.617505 0.001115 0
0.616773 0.000914 0
0.616150 0.000699 0
0.615641 0.000469 0
0.615253 0.000219 0
0.614988 -0.000051 0
0.614864 -0.000342 0
0.614891 -0.000653 0
0.615078 -0.000988 0
0.615436 -0.001353 0
0.615979 -0.001751 0
0.616721 -0.002187 0
0.617681 -0.002670 0
0.618878 -0.003206 0
0.620339 -0.003805 0
0.622090 -0.004478 0
0.624166 -0.005239 0
0.626606 -0.006102 0
0.629455 -0.007087 0
0.632767 -0.008217 0
0.636604 -0.009519 0
0.641041 -0.011025 0
0.646163 -0.012777 0
0.652072 -0.014825 0
0.658886 -0.017230 0
0.666746 -0.020071 0
0.675815 -0.023448 0
0.686290 -0.027491 0
0.698401 -0.032369 0