# vtk DataFile Version 2.0
generated by CFD-lab course output (written by Tobias Neckel) 
ASCII

DATASET STRUCTURED_GRID
DIMENSIONS  142 42 1 
POINTS 5964 float

0.000000 0.250000 0
0.024648 0.250000 0
0.049296 0.250000 0
0.073944 0.250000 0
0.098592 0.250000 0
0.123239 0.250000 0
0.147887 0.250000 0
0.172535 0.250000 0
0.197183 0.250000 0
0.221831 0.250000 0
0.246479 0.250000 0
0.271127 0.250000 0
0.295775 0.250000 0
0.320423 0.250000 0
0.345070 0.250000 0
0.369718 0.250000 0
0.394366 0.250000 0
0.419014 0.250000 0
0.443662 0.250000 0
0.468310 0.250000 0
0.492958 0.250000 0
0.517606 0.250000 0
0.542254 0.250000 0
0.566901 0.250000 0
0.591549 0.250000 0
0.616197 0.250000 0
0.640845 0.250000 0
0.665493 0.250000 0
0.690141 0.250000 0
0.714789 0.250000 0
0.739437 0.250000 0
0.764085 0.250000 0
0.788732 0.250000 0
0.813380 0.250000 0
0.838028 0.250000 0
0.862676 0.250000 0
0.887324 0.250000 0
0.911972 0.250000 0
0.936620 0.250000 0
0.961268 0.250000 0
0.985915 0.250000 0
1.010563 0.250000 0
1.035211 0.250000 0
1.059859 0.250000 0
1.084507 0.250000 0
1.109155 0.250000 0
1.133803 0.250000 0
1.158451 0.250000 0
1.183099 0.250000 0
1.207746 0.250000 0
1.232394 0.250000 0
1.257042 0.250000 0
1.281690 0.250000 0
1.306338 0.250000 0
1.330986 0.250000 0
1.355634 0.250000 0
1.380282 0.250000 0
1.404930 0.250000 0
1.429577 0.250000 0
1.454225 0.250000 0
1.478873 0.250000 0
1.503521 0.250000 0
1.528169 0.250000 0
1.552817 0.250000 0
1.577465 0.250000 0
1.602113 0.250000 0
1.626761 0.250000 0
1.651408 0.250000 0
1.676056 0.250000 0
1.700704 0.250000 0
1.725352 0.250000 0
1.750000 0.250000 0
1.774648 0.250000 0
1.799296 0.250000 0
1.823944 0.250000 0
1.848592 0.250000 0
1.873239 0.250000 0
1.897887 0.250000 0
1.922535 0.250000 0
1.947183 0.250000 0
1.971831 0.250000 0
1.996479 0.250000 0
2.021127 0.250000 0
2.045775 0.250000 0
2.070423 0.250000 0
2.095070 0.250000 0
2.119718 0.250000 0
2.144366 0.250000 0
2.169014 0.250000 0
2.193662 0.250000 0
2.218310 0.250000 0
2.242958 0.250000 0
2.267606 0.250000 0
2.292254 0.250000 0
2.316901 0.250000 0
2.341549 0.250000 0
2.366197 0.250000 0
2.390845 0.250000 0
2.415493 0.250000 0
2.440141 0.250000 0
2.464789 0.250000 0
2.489437 0.250000 0
2.514085 0.250000 0
2.538732 0.250000 0
2.563380 0.250000 0
2.588028 0.250000 0
2.612676 0.250000 0
2.637324 0.250000 0
2.661972 0.250000 0
2.686620 0.250000 0
2.711268 0.250000 0
2.735915 0.250000 0
2.760563 0.250000 0
2.785211 0.250000 0
2.809859 0.250000 0
2.834507 0.250000 0
2.859155 0.250000 0
2.883803 0.250000 0
2.908451 0.250000 0
2.933099 0.250000 0
2.957746 0.250000 0
2.982394 0.250000 0
3.007042 0.250000 0
3.031690 0.250000 0
3.056338 0.250000 0
3.080986 0.250000 0
3.105634 0.250000 0
3.130282 0.250000 0
3.154930 0.250000 0
3.179577 0.250000 0
3.204225 0.250000 0
3.228873 0.250000 0
3.253521 0.250000 0
3.278169 0.250000 0
3.302817 0.250000 0
3.327465 0.250000 0
3.352113 0.250000 0
3.376761 0.250000 0
3.401408 0.250000 0
3.426056 0.250000 0
3.450704 0.250000 0
3.475352 0.250000 0
0.000000 0.261905 0
0.024648 0.261905 0
0.049296 0.261905 0
0.073944 0.261905 0
0.098592 0.261905 0
0.123239 0.261905 0
0.147887 0.261905 0
0.172535 0.261905 0
0.197183 0.261905 0
0.221831 0.261905 0
0.246479 0.261905 0
0.271127 0.261905 0
0.295775 0.261905 0
0.320423 0.261905 0
0.345070 0.261905 0
0.369718 0.261905 0
0.394366 0.261905 0
0.419014 0.261905 0
0.443662 0.261905 0
0.468310 0.261905 0
0.492958 0.261905 0
0.517606 0.261905 0
0.542254 0.261905 0
0.566901 0.261905 0
0.591549 0.261905 0
0.616197 0.261905 0
0.640845 0.261905 0
0.665493 0.261905 0
0.690141 0.261905 0
0.714789 0.261905 0
0.739437 0.261905 0
0.764085 0.261905 0
0.788732 0.261905 0
0.813380 0.261905 0
0.838028 0.261905 0
0.862676 0.261905 0
0.887324 0.261905 0
0.911972 0.261905 0
0.936620 0.261905 0
0.961268 0.261905 0
0.985915 0.261905 0
1.010563 0.261905 0
1.035211 0.261905 0
1.059859 0.261905 0
1.084507 0.261905 0
1.109155 0.261905 0
1.133803 0.261905 0
1.158451 0.261905 0
1.183099 0.261905 0
1.207746 0.261905 0
1.232394 0.261905 0
1.257042 0.261905 0
1.281690 0.261905 0
1.306338 0.261905 0
1.330986 0.261905 0
1.355634 0.261905 0
1.380282 0.261905 0
1.404930 0.261905 0
1.429577 0.261905 0
1.454225 0.261905 0
1.478873 0.261905 0
1.503521 0.261905 0
1.528169 0.261905 0
1.552817 0.261905 0
1.577465 0.261905 0
1.602113 0.261905 0
1.626761 0.261905 0
1.651408 0.261905 0
1.676056 0.261905 0
1.700704 0.261905 0
1.725352 0.261905 0
1.750000 0.261905 0
1.774648 0.261905 0
1.799296 0.261905 0
1.823944 0.261905 0
1.848592 0.261905 0
1.873239 0.261905 0
1.897887 0.261905 0
1.922535 0.261905 0
1.947183 0.261905 0
1.971831 0.261905 0
1.996479 0.261905 0
2.021127 0.261905 0
2.045775 0.261905 0
2.070423 0.261905 0
2.095070 0.261905 0
2.119718 0.261905 0
2.144366 0.261905 0
2.169014 0.261905 0
2.193662 0.261905 0
2.218310 0.261905 0
2.242958 0.261905 0
2.267606 0.261905 0
2.292254 0.261905 0
2.316901 0.261905 0
2.341549 0.261905 0
2.366197 0.261905 0
2.390845 0.261905 0
2.415493 0.261905 0
2.440141 0.261905 0
2.464789 0.261905 0
2.489437 0.261905 0
2.514085 0.261905 0
2.538732 0.261905 0
2.563380 0.261905 0
2.588028 0.261905 0
2.612676 0.261905 0
2.637324 0.261905 0
2.661972 0.261905 0
2.686620 0.261905 0
2.711268 0.261905 0
2.735915 0.261905 0
2.760563 0.261905 0
2.785211 0.261905 0
2.809859 0.261905 0
2.834507 0.261905 0
2.859155 0.261905 0
2.883803 0.261905 0
2.908451 0.261905 0
2.933099 0.261905 0
2.957746 0.261905 0
2.982394 0.261905 0
3.007042 0.261905 0
3.031690 0.261905 0
3.056338 0.261905 0
3.080986 0.261905 0
3.105634 0.261905 0
3.130282 0.261905 0
3.154930 0.261905 0
3.179577 0.261905 0
3.204225 0.261905 0
3.228873 0.261905 0
3.253521 0.261905 0
3.278169 0.261905 0
3.302817 0.261905 0
3.327465 0.261905 0
3.352113 0.261905 0
3.376761 0.261905 0
3.401408 0.261905 0
3.426056 0.261905 0
3.450704 0.261905 0
3.475352 0.261905 0
0.000000 0.273810 0
0.024648 0.273810 0
0.049296 0.273810 0
0.073944 0.273810 0
0.098592 0.273810 0
0.123239 0.273810 0
0.147887 0.273810 0
0.172535 0.273810 0
0.197183 0.273810 0
0.221831 0.273810 0
0.246479 0.273810 0
0.271127 0.273810 0
0.295775 0.273810 0
0.320423 0.273810 0
0.345070 0.273810 0
0.369718 0.273810 0
0.394366 0.273810 0
0.419014 0.273810 0
0.443662 0.273810 0
0.468310 0.273810 0
0.492958 0.273810 0
0.517606 0.273810 0
0.542254 0.273810 0
0.566901 0.273810 0
0.591549 0.273810 0
0.616197 0.273810 0
0.640845 0.273810 0
0.665493 0.273810 0
0.690141 0.273810 0
0.714789 0.273810 0
0.739437 0.273810 0
0.764085 0.273810 0
0.788732 0.273810 0
0.813380 0.273810 0
0.838028 0.273810 0
0.862676 0.273810 0
0.887324 0.273810 0
0.911972 0.273810 0
0.936620 0.273810 0
0.961268 0.273810 0
0.985915 0.273810 0
1.010563 0.273810 0
1.035211 0.273810 0
1.059859 0.273810 0
1.084507 0.273810 0
1.109155 0.273810 0
1.133803 0.273810 0
1.158451 0.273810 0
1.183099 0.273810 0
1.207746 0.273810 0
1.232394 0.273810 0
1.257042 0.273810 0
1.281690 0.273810 0
1.306338 0.273810 0
1.330986 0.273810 0
1.355634 0.273810 0
1.380282 0.273810 0
1.404930 0.273810 0
1.429577 0.273810 0
1.454225 0.273810 0
1.478873 0.273810 0
1.503521 0.273810 0
1.528169 0.273810 0
1.552817 0.273810 0
1.577465 0.273810 0
1.602113 0.273810 0
1.626761 0.273810 0
1.651408 0.273810 0
1.676056 0.273810 0
1.700704 0.273810 0
1.725352 0.273810 0
1.750000 0.273810 0
1.774648 0.273810 0
1.799296 0.273810 0
1.823944 0.273810 0
1.848592 0.273810 0
1.873239 0.273810 0
1.897887 0.273810 0
1.922535 0.273810 0
1.947183 0.273810 0
1.971831 0.273810 0
1.996479 0.273810 0
2.021127 0.273810 0
2.045775 0.273810 0
2.070423 0.273810 0
2.095070 0.273810 0
2.119718 0.273810 0
2.144366 0.273810 0
2.169014 0.273810 0
2.193662 0.273810 0
2.218310 0.273810 0
2.242958 0.273810 0
2.267606 0.273810 0
2.292254 0.273810 0
2.316901 0.273810 0
2.341549 0.273810 0
2.366197 0.273810 0
2.390845 0.273810 0
2.415493 0.273810 0
2.440141 0.273810 0
2.464789 0.273810 0
2.489437 0.273810 0
2.514085 0.273810 0
2.538732 0.273810 0
2.563380 0.273810 0
2.588028 0.273810 0
2.612676 0.273810 0
2.637324 0.273810 0
2.661972 0.273810 0
2.686620 0.273810 0
2.711268 0.273810 0
2.735915 0.273810 0
2.760563 0.273810 0
2.785211 0.273810 0
2.809859 0.273810 0
2.834507 0.273810 0
2.859155 0.273810 0
2.883803 0.273810 0
2.908451 0.273810 0
2.933099 0.273810 0
2.957746 0.273810 0
2.982394 0.273810 0
3.007042 0.273810 0
3.031690 0.273810 0
3.056338 0.273810 0
3.080986 0.273810 0
3.105634 0.273810 0
3.130282 0.273810 0
3.154930 0.273810 0
3.179577 0.273810 0
3.204225 0.273810 0
3.228873 0.273810 0
3.253521 0.273810 0
3.278169 0.273810 0
3.302817 0.273810 0
3.327465 0.273810 0
3.352113 0.273810 0
3.376761 0.273810 0
3.401408 0.273810 0
3.426056 0.273810 0
3.450704 0.273810 0
3.475352 0.273810 0
0.000000 0.285714 0
0.024648 0.285714 0
0.049296 0.285714 0
0.073944 0.285714 0
0.098592 0.285714 0
0.123239 0.285714 0
0.147887 0.285714 0
0.172535 0.285714 0
0.197183 0.285714 0
0.221831 0.285714 0
0.246479 0.285714 0
0.271127 0.285714 0
0.295775 0.285714 0
0.320423 0.285714 0
0.345070 0.285714 0
0.369718 0.285714 0
0.394366 0.285714 0
0.419014 0.285714 0
0.443662 0.285714 0
0.468310 0.285714 0
0.492958 0.285714 0
0.517606 0.285714 0
0.542254 0.285714 0
0.566901 0.285714 0
0.591549 0.285714 0
0.616197 0.285714 0
0.640845 0.285714 0
0.665493 0.285714 0
0.690141 0.285714 0
0.714789 0.285714 0
0.739437 0.285714 0
0.764085 0.285714 0
0.788732 0.285714 0
0.813380 0.285714 0
0.838028 0.285714 0
0.862676 0.285714 0
0.887324 0.285714 0
0.911972 0.285714 0
0.936620 0.285714 0
0.961268 0.285714 0
0.985915 0.285714 0
1.010563 0.285714 0
1.035211 0.285714 0
1.059859 0.285714 0
1.084507 0.285714 0
1.109155 0.285714 0
1.133803 0.285714 0
1.158451 0.285714 0
1.183099 0.285714 0
1.207746 0.285714 0
1.232394 0.285714 0
1.257042 0.285714 0
1.281690 0.285714 0
1.306338 0.285714 0
1.330986 0.285714 0
1.355634 0.285714 0
1.380282 0.285714 0
1.404930 0.285714 0
1.429577 0.285714 0
1.454225 0.285714 0
1.478873 0.285714 0
1.503521 0.285714 0
1.528169 0.285714 0
1.552817 0.285714 0
1.577465 0.285714 0
[...]
POINT_DATA 5964 

VECTORS velocity float
1.000000 0.000000 0
0.999854 0.000000 0
0.999557 0.000000 0
0.999097 0.000000 0
0.998459 0.000000 0
0.997616 0.000000 0
0.996534 0.000000 0
0.995165 0.000000 0
0.993444 0.000000 0
0.991281 0.000000 0
0.988551 0.000000 0
0.985072 0.000000 0
0.980573 0.000000 0
0.974630 0.000000 0
0.966536 0.000000 0
0.954958 0.000000 0
0.937413 0.000000 0
0.905796 0.000000 0
0.847739 0.000000 0
-0.000000 0.000000 0
-0.000000 0.000000 0
-0.000000 0.000000 0
-0.000000 0.000000 0
-0.000000 0.000000 0
-0.000000 0.000000 0
-0.000000 0.000000 0
-0.000000 0.000000 0
-0.000000 0.000000 0
-0.000000 0.000000 0
-0.000000 0.000000 0
-0.000000 0.000000 0
-0.000000 0.000000 0
-0.000000 0.000000 0
-0.000000 0.000000 0
-0.000000 0.000000 0
-0.000000 0.000000 0
-0.000000 0.000000 0
-0.000000 0.000000 0
-0.000000 0.000000 0
-0.000000 0.000000 0
-0.000000 0.000000 0
-0.000000 0.000000 0
-0.000000 0.000000 0
-0.000000 0.000000 0
-0.000000 0.000000 0
-0.000000 0.000000 0
-0.000000 0.000000 0
-0.000000 0.000000 0
-0.000000 0.000000 0
-0.000000 0.000000 0
-0.000001 0.000000 0
-0.000001 0.000000 0
-0.000001 0.000000 0
-0.000001 0.000000 0
-0.000001 0.000000 0
-0.000001 0.000000 0
-0.000001 0.000000 0
-0.000001 0.000000 0
-0.000001 0.000000 0
-0.000001 0.000000 0
-0.000001 0.000000 0
-0.000002 0.000000 0
-0.000002 0.000000 0
-0.000002 0.000000 0
-0.000002 0.000000 0
-0.000002 0.000000 0
-0.000002 0.000000 0
-0.000002 0.000000 0
-0.000003 0.000000 0
-0.000003 0.000000 0
-0.000003 0.000000 0
-0.000003 0.000000 0
-0.000003 0.000000 0
-0.000003 0.000000 0
-0.000003 0.000000 0
-0.000003 0.000000 0
-0.000003 0.000000 0
-0.000003 0.000000 0
-0.000003 0.000000 0
-0.000003 0.000000 0
-0.000003 0.000000 0
-0.000003 0.000000 0
-0.000003 0.000000 0
-0.000003 0.000000 0
-0.000003 0.000000 0
-0.000003 0.000000 0
-0.000003 0.000000 0
-0.000003 0.000000 0
-0.000003 0.000000 0
-0.000003 0.000000 0
-0.000003 0.000000 0
-0.000003 0.000000 0
-0.000003 0.000000 0
-0.000003 0.000000 0
-0.000003 0.000000 0
-0.000003 0.000000 0
-0.000003 0.000000 0
-0.000003 0.000000 0
-0.000003 0.000000 0
-0.000003 0.000000 0
-0.000003 0.000000 0
-0.000003 0.000000 0
-0.000003 0.000000 0
-0.000003 0.000000 0
-0.000003 0.000000 0
-0.000003 0.000000 0
-0.000003 0.000000 0
-0.000003 0.000000 0
-0.000003 0.000000 0
-0.000003 0.000000 0
-0.000003 0.000000 0
-0.000003 0.000000 0
-0.000003 0.000000 0
-0.000003 0.000000 0
-0.000002 0.000000 0
-0.000002 0.000000 0
-0.000002 0.000000 0
-0.000002 0.000000 0
-0.000002 0.000000 0
-0.000002 0.000000 0
-0.000002 0.000000 0
-0.000002 0.000000 0
-0.000002 0.000000 0
-0.000002 0.000000 0
-0.000002 0.000000 0
-0.000002 0.000000 0
-0.000002 0.000000 0
-0.000002 0.000000 0
-0.000002 0.000000 0
-0.000002 0.000000 0
-0.000002 0.000000 0
-0.000002 0.000000 0
-0.000002 0.000000 0
-0.000002 0.000000 0
-0.000001 0.000000 0
-0.000001 0.000000 0
-0.000001 0.000000 0
-0.000001 0.000000 0
-0.000000 0.000000 0
0.000000 0.000000 0
-0.000000 0.000000 0
0.496793 0.000000 0
1.000000 0.000035 0
0.999855 0.000107 0
0.999559 0.000183 0
0.999102 0.000265 0
0.998466 0.000358 0
0.997627 0.000465 0
0.996551 0.000592 0
0.995189 0.000746 0
0.993479 0.000938 0
0.991331 0.001182 0
0.988622 0.001500 0
0.985174 0.001926 0
0.980726 0.002522 0
0.974865 0.003390 0
0.966922 0.004751 0
0.955665 0.007033 0
0.938855 0.011872 0
0.910217 0.021656 0
0.860920 0.078851 0
0.714939 0.110956 0
0.576564 0.072745 0
0.473085 0.041074 0
0.401143 0.022636 0
0.351252 0.013306 0
0.315603 0.008676 0
0.289114 0.006197 0
0.268693 0.004713 0
0.252454 0.003733 0
0.239213 0.003043 0
0.228193 0.002535 0
0.218869 0.002148 0
0.210870 0.001846 0
0.203927 0.001605 0
0.197843 0.001409 0
0.192464 0.001248 0
0.187674 0.001113 0
0.183381 0.000999 0
0.179511 0.000903 0
0.176005 0.000819 0
0.172815 0.000747 0
0.169900 0.000684 0
0.167227 0.000628 0
0.164770 0.000578 0
0.162505 0.000534 0
0.160412 0.000495 0
0.158475 0.000459 0
0.156679 0.000426 0
0.155014 0.000396 0
0.153468 0.000369 0
0.152034 0.000343 0
0.150703 0.000319 0
0.149470 0.000297 0
0.148331 0.000275 0
0.147281 0.000255 0
0.146317 0.000234 0
0.145438 0.000215 0
0.144643 0.000195 0
0.143932 0.000175 0
0.143304 0.000155 0
0.142760 0.000135 0
0.142300 0.000114 0
0.141923 0.000093 0
0.141630 0.000072 0
0.141418 0.000051 0
0.141284 0.000031 0
0.141222 0.000013 0
0.141225 -0.000003 0
0.141280 -0.000016 0
0.141380 -0.000028 0
0.141514 -0.000036 0
0.141673 -0.000043 0
0.141850 -0.000047 0
0.142035 -0.000050 0
0.142223 -0.000050 0
0.142409 -0.000049 0
0.142587 -0.000047 0
0.142755 -0.000045 0
0.142909 -0.000041 0
0.143050 -0.000037 0
0.143175 -0.000033 0
0.143286 -0.000029 0
0.143382 -0.000026 0
0.143465 -0.000022 0
0.143536 -0.000019 0
0.143596 -0.000016 0
0.143647 -0.000014 0
0.143691 -0.000012 0
0.143728 -0.000011 0
0.143762 -0.000009 0
0.143792 -0.000009 0
0.143821 -0.000009 0
0.143850 -0.000009 0
0.143880 -0.000009 0
0.143913 -0.000010 0
0.143949 -0.000011 0
0.143989 -0.000013 0
0.144036 -0.000014 0
0.144090 -0.000017 0
0.144152 -0.000019 0
0.144224 -0.000022 0
0.144308 -0.000026 0
0.144405 -0.000030 0
0.144517 -0.000034 0
0.144647 -0.000040 0
0.144796 -0.000046 0
0.144968 -0.000053 0
0.145167 -0.000061 0
0.145396 -0.000070 0
0.145660 -0.000081 0
0.145963 -0.000093 0
0.146313 -0.000108 0
0.146716 -0.000124 0
0.147180 -0.000143 0
0.147714 -0.000165 0
0.148331 -0.000190 0
0.149042 -0.000219 0
0.149863 -0.000253 0
0.150812 -0.000293 0
0.151909 -0.000340 0
0.153181 -0.000394 0
0.154656 -0.000458 0
0.156370 -0.000534 0
0.158367 -0.000624 0
0.160699 -0.000732 0
0.163431 -0.000861 0
0.166644 -0.001019 0
0.170438 -0.001211 0
0.174944 -0.001450 0
0.180330 -0.001750 0
0.186818 -0.002134 0
0.194709 -0.002635 0
0.204425 -0.003306 0
0.216564 -0.004231 0
0.232020 -0.005559 0
0.252179 -0.007561 0
0.279303 -0.010784 0
0.317369 -0.016403 0
0.373671 -0.027893 0
0.465101 -0.050324 0
0.618070 -0.167320 0
0.993903 -0.269767 0
0.993903 -0.134884 0
1.000000 0.000070 0
0.999856 0.000213 0
0.999564 0.000364 0
0.999114 0.000528 0
0.998487 0.000712 0
0.997661 0.000925 0
0.996601 0.001178 0
0.995262 0.001484 0
0.993583 0.001864 0
0.991478 0.002346 0
0.988832 0.002973 0
0.985478 0.003814 0
0.981175 0.004979 0
0.975556 0.006667 0
0.968044 0.009274 0
0.957672 0.013556 0
0.942814 0.021951 0
0.920731 0.037642 0
0.888415 0.094318 0
0.891057 0.137342 0
0.842224 0.116814 0
0.771712 0.084727 0
0.701337 0.058844 0
0.640058 0.041316 0
0.589423 0.030012 0
0.548120 0.022657 0
0.514272 0.017706 0
0.486225 0.014239 0
0.462688 0.011718 0
0.442692 0.009826 0
0.425511 0.008367 0
0.410599 0.007217 0
0.397540 0.006292 0
0.386012 0.005537 0
0.375762 0.004911 0
0.366591 0.004387 0
0.358340 0.003943 0
0.350880 0.003563 0
0.344103 0.003234 0
0.337924 0.002949 0
0.332269 0.002699 0
0.327079 0.002478 0
0.322303 0.002281 0
0.317897 0.002105 0
0.313825 0.001946 0
0.310056 0.001803 0
0.306565 0.001672 0
0.303328 0.001551 0
0.300327 0.001439 0
0.297546 0.001336 0
0.294971 0.001238 0
0.292590 0.001146 0
0.290395 0.001058 0
0.288380 0.000973 0
0.286537 0.000890 0
0.284864 0.000808 0
0.283357 0.000728 0
0.282016 0.000647 0
0.280839 0.000566 0
0.279825 0.000485 0
0.278974 0.000404 0
0.278281 0.000323 0
0.277745 0.000244 0
0.277359 0.000167 0
0.277114 0.000095 0
0.277001 0.000029 0
0.277006 -0.000028 0
0.277107 -0.000075 0
0.277287 -0.000113 0
0.277527 -0.000142 0
0.277811 -0.000162 0
0.278123 -0.000175 0
0.278452 -0.000181 0
0.278783 -0.000180 0
0.279109 -0.000176 0
0.279422 -0.000167 0
0.279715 -0.000156 0
0.279984 -0.000143 0
0.280229 -0.000128 0
0.280446 -0.000114 0
0.280637 -0.000100 0
0.280803 -0.000087 0
0.280945 -0.000074 0
0.281066 -0.000063 0
0.281169 -0.000054 0
0.281255 -0.000046 0
0.281329 -0.000039 0
0.281392 -0.000034 0
0.281448 -0.000031 0
0.281498 -0.000029 0
0.281546 -0.000028 0
0.281594 -0.000028 0
0.281644 -0.000030 0
0.281698 -0.000033 0
0.281757 -0.000037 0
0.281825 -0.000042 0
0.281902 -0.000049 0
0.281991 -0.000056 0
0.282095 -0.000065 0
0.282214 -0.000075 0
0.282353 -0.000087 0
0.282514 -0.000101 0
0.282699 -0.000117 0
0.282914 -0.000135 0
0.283162 -0.000155 0
0.283447 -0.000179 0
0.283777 -0.000207 0
0.284156 -0.000238 0
0.284593 -0.000274 0
0.285096 -0.000316 0
0.285675 -0.000363 0
0.286342 -0.000419 0
0.287111 -0.000482 0
0.287996 -0.000556 0
0.289016 -0.000641 0
0.290192 -0.000740 0
0.291549 -0.000855 0
0.293115 -0.000988 0
0.294926 -0.001144 0
0.297022 -0.001326 0
0.299449 -0.001540 0
0.302266 -0.001793 0
0.305541 -0.002091 0
0.309357 -0.002446 0
0.313814 -0.002871 0
0.319039 -0.003384 0
0.325185 -0.004009 0
0.332448 -0.004777 0
0.341079 -0.005735 0
0.351402 -0.006945 0
0.363850 -0.008504 0
0.379006 -0.010556 0
0.397682 -0.013328 0
0.421040 -0.017202 0
0.450793 -0.022837 0
0.489555 -0.031487 0
0.541495 -0.045579 0
0.613232 -0.071353 0
0.716142 -0.118043 0
0.865329 -0.255408 0
0.994647 -0.363049 0
0.994647 -0.181525 0
1.000000 0.000105 0
0.999860 0.000317 0
0.999574 0.000541 0
0.999133 0.000785 0
0.998522 0.001059 0
0.997716 0.001376 0
0.996683 0.001750 0
0.995382 0.002204 0
0.993754 0.002766 0
0.991720 0.003476 0
0.989176 0.004398 0
0.985972 0.005625 0
0.981899 0.007314 0
0.976657 0.009732 0
0.969801 0.013388 0
0.960697 0.019219 0
0.948460 0.029715 0
0.933064 0.047931 0
0.915130 0.093183 0
0.945387 0.133266 0
0.948700 0.130388 0
0.923034 0.109121 0
0.882102 0.086224 0
0.836741 0.067360 0
0.792725 0.053081 0
0.752432 0.042495 0
0.716495 0.034607 0
0.684780 0.028648 0
0.656871 0.024070 0
0.632282 0.020491 0
0.610550 0.017648 0
0.591261 0.015356 0
0.574064 0.013481 0
0.558660 0.011928 0
0.544799 0.010628 0
0.532275 0.009528 0
0.520913 0.008588 0
0.510566 0.007779 0
0.501112 0.007077 0
0.492448 0.006462 0
0.484485 0.005921 0
0.477148 0.005442 0
0.470375 0.005014 0
0.464110 0.004629 0
0.458307 0.004281 0
0.452927 0.003965 0
0.447933 0.003676 0
0.443299 0.003409 0
0.438998 0.003162 0
0.435008 0.002930 0
0.431314 0.002713 0
0.427898 0.002506 0
0.424749 0.002309 0
0.421858 0.002118 0
0.419216 0.001933 0
0.416817 0.001750 0
0.414658 0.001570 0
0.412735 0.001391 0
0.411046 0.001213 0
0.409587 0.001036 0
0.408354 0.000859 0
0.407344 0.000686 0
0.406548 0.000518 0
0.405957 0.000356 0
0.405559 0.000204 0
0.405339 0.000065 0
0.405280 -0.000054 0
0.405360 -0.000152 0
0.405550 -0.000230 0
0.405828 -0.000289 0
0.406170 -0.000331 0
0.406556 -0.000357 0
0.406967 -0.000368 0
0.407389 -0.000368 0
0.407807 -0.000358 0
0.408211 -0.000340 0
0.408593 -0.000316 0
0.408946 -0.000289 0
0.409268 -0.000260 0
0.409556 -0.000231 0
0.409811 -0.000202 0
0.410032 -0.000175 0
0.410223 -0.000149 0
0.410386 -0.000127 0
0.410524 -0.000108 0
0.410640 -0.000091 0
0.410739 -0.000078 0
0.410824 -0.000068 0
0.410898 -0.000061 0
0.410965 -0.000057 0
0.411027 -0.000055 0
0.411089 -0.000056 0
0.411152 -0.000059 0
0.411219 -0.000065 0
0.411293 -0.000072 0
0.411376 -0.000083 0
0.411472 -0.000095 0
0.411581 -0.000110 0
0.411708 -0.000127 0
0.411855 -0.000147 0
0.412025 -0.000170 0
0.412222 -0.000197 0
0.412449 -0.000228 0
0.412712 -0.000263 0
0.413016 -0.000304 0
0.413365 -0.000350 0
0.413769 -0.000403 0
0.414233 -0.000465 0
0.414768 -0.000535 0
0.415384 -0.000616 0
0.416093 -0.000709 0
0.416909 -0.000817 0
0.417849 -0.000941 0
0.418931 -0.001085 0
0.420177 -0.001251 0
0.421614 -0.001443 0
0.423270 -0.001666 0
0.425181 -0.001925 0
0.427387 -0.002226 0
0.429936 -0.002579 0
0.432886 -0.002991 0
0.436302 -0.003477 0
0.440266 -0.004049 0
0.444874 -0.004728 0
0.450241 -0.005538 0
0.456509 -0.006510 0
0.463853 -0.007688 0
0.472487 -0.009126 0
0.482686 -0.010905 0
0.494794 -0.013132 0
0.509261 -0.015967 0
0.526678 -0.019647 0
0.547837 -0.024534 0
0.573818 -0.031211 0
0.606122 -0.040653 0
0.646856 -0.054593 0
0.698958 -0.076139 0
0.766207 -0.112246 0
0.851826 -0.172085 0
0.955136 -0.301836 0
0.995502 -0.394685 0
0.995502 -0.197342 0
1.000000 0.000138 0
0.999864 0.000419 0
0.999587 0.000714 0
0.999161 0.001036 0
0.998569 0.001397 0
0.997791 0.001813 0
0.996796 0.002305 0
0.995546 0.002899 0
0.993987 0.003632 0
0.992050 0.004557 0
0.989641 0.005750 0
0.986636 0.007328 0
0.982866 0.009478 0
0.978103 0.012510 0
0.972055 0.016982 0
0.964405 0.023864 0
0.954934 0.035298 0
0.945054 0.053740 0
0.937311 0.088366 0
0.965761 0.121128 0
0.987952 0.127610 0
0.990159 0.116893 0
0.975879 0.100524 0
0.951879 0.084484 0
0.923396 0.070732 0
0.893649 0.059476 0
0.864420 0.050382 0
0.836620 0.043037 0
0.810661 0.037074 0
0.786672 0.032199 0
0.764631 0.028180 0
0.744436 0.024839 0
0.725949 0.022038 0
0.709021 0.019671 0
0.693506 0.017655 0
0.679263 0.015924 0
0.666167 0.014428 0
0.654104 0.013126 0
0.642970 0.011985 0
0.632678 0.010980 0
0.623146 0.010088 0
0.614305 0.009293 0
0.606095 0.008578 0
0.598461 0.007934 0
0.591357 0.007348 0
0.584743 0.006813 0
0.578583 0.006322 0
0.572845 0.005867 0
0.567505 0.005444 0
0.562538 0.005047 0
0.557926 0.004672 0
0.553653 0.004316 0
0.549704 0.003975 0
0.546070 0.003645 0
0.542741 0.003324 0
0.539710 0.003010 0
0.536972 0.002699 0
0.534521 0.002392 0
0.532354 0.002087 0
0.530467 0.001785 0
0.528853 0.001487 0
0.527505 0.001196 0
0.526415 0.000914 0
0.525569 0.000645 0
0.524954 0.000393 0
0.524550 0.000163 0
0.524338 -0.000038 0
0.524302 -0.000205 0
0.524412 -0.000339 0
0.524638 -0.000441 0
0.524953 -0.000514 0
0.525335 -0.000560 0
0.525759 -0.000583 0
0.526207 -0.000586 0
0.526663 -0.000573 0
0.527112 -0.000547 0
0.527544 -0.000511 0
0.527951 -0.000469 0
0.528326 -0.000423 0
0.528666 -0.000376 0
0.528970 -0.000330 0
0.529238 -0.000286 0
0.529471 -0.000245 0
0.529672 -0.000209 0
0.529843 -0.000177 0
0.529989 -0.000150 0
0.530114 -0.000128 0
0.530220 -0.000111 0
0.530312 -0.000099 0
0.530395 -0.000091 0
0.530471 -0.000088 0
0.530543 -0.000089 0
0.530617 -0.000093 0
0.530693 -0.000101 0
0.530776 -0.000113 0
0.530868 -0.000129 0
0.530973 -0.000148 0
0.531092 -0.000170 0
0.531229 -0.000197 0
0.531388 -0.000228 0
0.531571 -0.000264 0
0.531783 -0.000306 0
0.532028 -0.000353 0
0.532311 -0.000408 0
0.532638 -0.000471 0
0.533015 -0.000543 0
0.533449 -0.000626 0
0.533949 -0.000721 0
0.534524 -0.000830 0
0.535187 -0.000955 0
0.535949 -0.001100 0
0.536827 -0.001267 0
0.537837 -0.001459 0
0.539000 -0.001681 0
0.540339 -0.001937 0
0.541881 -0.002234 0
0.543658 -0.002578 0
0.545706 -0.002977 0
0.548068 -0.003441 0
0.550795 -0.003982 0
0.553944 -0.004615 0
0.557587 -0.005357 0
0.561804 -0.006231 0
0.566694 -0.007264 0
0.572374 -0.008491 0
0.578986 -0.009959 0
0.586699 -0.011726 0
0.595725 -0.013874 0
0.606322 -0.016509 0
0.618812 -0.019781 0
0.633604 -0.023904 0
0.651216 -0.029187 0
0.672313 -0.036096 0
0.697756 -0.045353 0
0.728650 -0.058114 0
0.766367 -0.076326 0
0.812445 -0.103225 0
0.868038 -0.145188 0
0.931151 -0.209295 0
0.993663 -0.324802 0
0.996324 -0.402039 0
0.996324 -0.201018 0
1.000000 0.000170 0
0.999869 0.000517 0
0.999604 0.000881 0
0.999195 0.001277 0
0.998629 0.001721 0
0.997886 0.002232 0
0.996938 0.002835 0
0.995751 0.003561 0
0.994278 0.004454 0
0.992459 0.005575 0
0.990216 0.007012 0
0.987449 0.008897 0
0.984033 0.011435 0
0.979820 0.014954 0
0.974655 0.020005 0
0.968490 0.027488 0
0.961587 0.039061 0
0.955865 0.056443 0
0.954518 0.083182 0
0.976722 0.108807 0
1.001774 0.118604 0
1.016438 0.114952 0
1.018777 0.104713 0
1.011518 0.092708 0
0.997955 0.081206 0
0.980672 0.070980 0
0.961443 0.062152 0
0.941440 0.054614 0
0.921413 0.048194 0
0.901835 0.042723 0
0.882989 0.038048 0
0.865033 0.034039 0
0.848043 0.030586 0
0.832039 0.027598 0
0.817010 0.025001 0
0.802922 0.022732 0
0.789729 0.020740 0
0.777380 0.018983 0
0.765822 0.017425 0
0.755004 0.016038 0
0.744875 0.014795 0
0.735388 0.013677 0
0.726500 0.012666 0
0.718171 0.011747 0
0.710364 0.010907 0
0.703048 0.010135 0
0.696194 0.009422 0
0.689775 0.008760 0
0.683771 0.008140 0
0.678160 0.007557 0
0.672926 0.007004 0
0.668055 0.006477 0
0.663535 0.005971 0
0.659356 0.005481 0
0.655509 0.005004 0
0.651989 0.004537 0
0.648788 0.004076 0
0.645902 0.003621 0
0.643326 0.003171 0
0.641055 0.002727 0
0.639082 0.002290 0
0.637400 0.001864 0
0.635999 0.001453 0
0.634865 0.001062 0
0.633982 0.000696 0
0.633333 0.000363 0
0.632896 0.000065 0
0.632655 -0.000188 0
0.632593 -0.000392 0
0.632676 -0.000551 0
0.632877 -0.000668 0
0.633170 -0.000746 0
0.633530 -0.000790 0
0.633935 -0.000805 0
0.634367 -0.000795 0
0.634808 -0.000765 0
0.635245 -0.000721 0
0.635666 -0.000667 0
0.636065 -0.000606 0
0.636435 -0.000542 0
0.636771 -0.000478 0
0.637074 -0.000417 0
0.637342 -0.000359 0
0.637576 -0.000307 0
0.637779 -0.000261 0
0.637955 -0.000222 0
0.638105 -0.000189 0
0.638234 -0.000164 0
0.638347 -0.000145 0
0.638446 -0.000133 0
0.638536 -0.000127 0
0.638621 -0.000126 0
0.638703 -0.000131 0
0.638787 -0.000142 0
0.638876 -0.000157 0
0.638973 -0.000177 0
0.639080 -0.000203 0
0.639202 -0.000234 0
0.639341 -0.000270 0
0.639501 -0.000312 0
0.639686 -0.000361 0
0.639899 -0.000418 0
0.640144 -0.000483 0
0.640428 -0.000558 0
0.640755 -0.000643 0
0.641131 -0.000742 0
0.641566 -0.000854 0
0.642066 -0.000984 0
0.642642 -0.001133 0
0.643304 -0.001305 0
0.644067 -0.001502 0
0.644944 -0.001729 0
0.645953 -0.001991 0
0.647115 -0.002293 0
0.648451 -0.002642 0
0.649989 -0.003046 0
0.651761 -0.003513 0
0.653800 -0.004055 0
0.656151 -0.004684 0
0.658861 -0.005417 0
0.661987 -0.006272 0
0.665596 -0.007273 0
0.669766 -0.008448 0
0.674591 -0.009833 0
0.680179 -0.011475 0
0.686662 -0.013429 0
0.694196 -0.015773 0
0.702969 -0.018604 0
0.713210 -0.022056 0
0.725196 -0.026309 0
0.739266 -0.031618 0
0.755837 -0.038343 0
0.775412 -0.047013 0
0.798597 -0.058422 0
0.826081 -0.073792 0
0.858547 -0.095065 0
0.896370 -0.125245 0
0.938859 -0.169580 0
0.981503 -0.232761 0
1.014465 -0.333314 0
0.997067 -0.397252 0
0.997067 -0.198624 0
1.000000 0.000201 0
0.999876 0.000610 0
0.999624 0.001040 0
0.999236 0.001507 0
0.998700 0.002029 0
0.997998 0.002630 0
0.997106 0.003336 0
0.995993 0.004184 0
0.994620 0.005222 0
0.992937 0.006519 0
0.990883 0.008170 0
0.988384 0.010314 0
0.985358 0.013163 0
0.981728 0.017040 0
0.977463 0.022454 0
0.972705 0.030176 0
0.968007 0.041396 0
0.965286 0.057155 0
0.967573 0.078292 0
0.984797 0.098304 0
1.007221 0.108428 0
1.025388 0.108681 0
1.035821 0.102900 0
1.038840 0.094541 0
1.036031 0.085631 0
1.029019 0.077111 0
1.019120 0.069331 0
1.007325 0.062371 0
0.994362 0.056203 0
0.980762 0.050758 0
0.966910 0.045955 0
0.953081 0.041718 0
0.939467 0.037974 0
0.926202 0.034660 0
0.913371 0.031718 0
0.901030 0.029101 0
0.889208 0.026765 0
0.877920 0.024673 0
0.867165 0.022793 0
0.856937 0.021097 0
0.847224 0.019563 0
0.838009 0.018168 0
0.829275 0.016894 0
0.821003 0.015727 0
0.813177 0.014652 0
0.805777 0.013657 0
0.798787 0.012732 0
0.792193 0.011867 0
0.785981 0.011054 0
0.780137 0.010285 0
0.774651 0.009553 0
0.769513 0.008852 0
0.764717 0.008177 0
0.760253 0.007522 0
0.756118 0.006883 0
0.752306 0.006256 0
0.748813 0.005639 0
0.745634 0.005030 0
0.742766 0.004428 0
0.740203 0.003835 0
0.737939 0.003252 0
0.735968 0.002685 0
0.734280 0.002138 0
0.732863 0.001619 0
0.731703 0.001133 0
0.730784 0.000688 0
0.730086 0.000289 0
0.729589 -0.000059 0
0.729285 -0.000349 0
0.729154 -0.000578 0
0.729165 -0.000752 0
0.729295 -0.000875 0
0.729517 -0.000953 0
0.729811 -0.000990 0
0.730154 -0.000994 0
0.730529 -0.000971 0
0.730921 -0.000926 0
0.731315 -0.000865 0
0.731700 -0.000794 0
0.732069 -0.000717 0
0.732414 -0.000638 0
0.732733 -0.000561 0
0.733022 -0.000488 0
0.733281 -0.000420 0
0.733510 -0.000359 0
0.733711 -0.000307 0
0.733886 -0.000263 0
0.734039 -0.000228 0
0.734172 -0.000201 0
0.734289 -0.000183 0
0.734395 -0.000172 0
0.734492 -0.000169 0
0.734585 -0.000174 0
0.734676 -0.000185 0
0.734770 -0.000203 0
0.734869 -0.000227 0
0.734977 -0.000258 0
0.735097 -0.000296 0
0.735233 -0.000342 0
0.735388 -0.000395 0
0.735566 -0.000456 0
0.735770 -0.000527 0
0.736005 -0.000609 0
0.736275 -0.000703 0
0.736587 -0.000811 0
0.736947 -0.000935 0
0.737361 -0.001077 0
0.737838 -0.001240 0
0.738386 -0.001428 0
0.739018 -0.001644 0
0.739744 -0.001892 0
0.740579 -0.002178 0
0.741540 -0.002507 0
0.742645 -0.002887 0
0.743916 -0.003326 0
0.745378 -0.003832 0
0.747060 -0.004418 0
0.748995 -0.005097 0