# vtk DataFile Version 2.0
generated by CFD-lab course output (written by Tobias Neckel) 
ASCII

DATASET STRUCTURED_GRID
DIMENSIONS  142 42 1 
POINTS 5964 float

0.000000 0.250000 0
0.024648 0.250000 0
0.049296 0.250000 0
0.073944 0.250000 0
0.098592 0.250000 0
0.123239 0.250000 0
0.147887 0.250000 0
0.172535 0.250000 0
0.197183 0.250000 0
0.221831 0.250000 0
0.246479 0.250000 0
0.271127 0.250000 0
0.295775 0.250000 0
0.320423 0.250000 0
0.345070 0.250000 0
0.369718 0.250000 0
0.394366 0.250000 0
0.419014 0.250000 0
0.443662 0.250000 0
0.468310 0.250000 0
0.492958 0.250000 0
0.517606 0.250000 0
0.542254 0.250000 0
0.566901 0.250000 0
0.591549 0.250000 0
0.616197 0.250000 0
0.640845 0.250000 0
0.665493 0.250000 0
0.690141 0.250000 0
0.714789 0.250000 0
0.739437 0.250000 0
0.764085 0.250000 0
0.788732 0.250000 0
0.813380 0.250000 0
0.838028 0.250000 0
0.862676 0.250000 0
0.887324 0.250000 0
0.911972 0.250000 0
0.936620 0.250000 0
0.961268 0.250000 0
0.985915 0.250000 0
1.010563 0.250000 0
1.035211 0.250000 0
1.059859 0.250000 0
1.084507 0.250000 0
1.109155 0.250000 0
1.133803 0.250000 0
1.158451 0.250000 0
1.183099 0.250000 0
1.207746 0.250000 0
1.232394 0.250000 0
1.257042 0.250000 0
1.281690 0.250000 0
1.306338 0.250000 0
1.330986 0.250000 0
1.355634 0.250000 0
1.380282 0.250000 0
1.404930 0.250000 0
1.429577 0.250000 0
1.454225 0.250000 0
1.478873 0.250000 0
1.503521 0.250000 0
1.528169 0.250000 0
1.552817 0.250000 0
1.577465 0.250000 0
1.602113 0.250000 0
1.626761 0.250000 0
1.651408 0.250000 0
1.676056 0.250000 0
1.700704 0.250000 0
1.725352 0.250000 0
1.750000 0.250000 0
1.774648 0.250000 0
1.799296 0.250000 0
1.823944 0.250000 0
1.848592 0.250000 0
1.873239 0.250000 0
1.897887 0.250000 0
1.922535 0.250000 0
1.947183 0.250000 0
1.971831 0.250000 0
1.996479 0.250000 0
2.021127 0.250000 0
2.045775 0.250000 0
2.070423 0.250000 0
2.095070 0.250000 0
2.119718 0.250000 0
2.144366 0.250000 0
2.169014 0.250000 0
2.193662 0.250000 0
2.218310 0.250000 0
2.242958 0.250000 0
2.267606 0.250000 0
2.292254 0.250000 0
2.316901 0.250000 0
2.341549 0.250000 0
2.366197 0.250000 0
2.390845 0.250000 0
2.415493 0.250000 0
2.440141 0.250000 0
2.464789 0.250000 0
2.489437 0.250000 0
2.514085 0.250000 0
2.538732 0.250000 0
2.563380 0.250000 0
2.588028 0.250000 0
2.612676 0.250000 0
2.637324 0.250000 0
2.661972 0.250000 0
2.686620 0.250000 0
2.711268 0.250000 0
2.735915 0.250000 0
2.760563 0.250000 0
2.785211 0.250000 0
2.809859 0.250000 0
2.834507 0.250000 0
2.859155 0.250000 0
2.883803 0.250000 0
2.908451 0.250000 0
2.933099 0.250000 0
2.957746 0.250000 0
2.982394 0.250000 0
3.007042 0.250000 0
3.031690 0.250000 0
3.056338 0.250000 0
3.080986 0.250000 0
3.105634 0.250000 0
3.130282 0.250000 0
3.154930 0.250000 0
3.179577 0.250000 0
3.204225 0.250000 0
3.228873 0.250000 0
3.253521 0.250000 0
3.278169 0.250000 0
3.302817 0.250000 0
3.327465 0.250000 0
3.352113 0.250000 0
3.376761 0.250000 0
3.401408 0.250000 0
3.426056 0.250000 0
3.450704 0.250000 0
3.475352 0.250000 0
0.000000 0.261905 0
0.024648 0.261905 0
0.049296 0.261905 0
0.073944 0.261905 0
0.098592 0.261905 0
0.123239 0.261905 0
0.147887 0.261905 0
0.172535 0.261905 0
0.197183 0.261905 0
0.221831 0.261905 0
0.246479 0.261905 0
0.271127 0.261905 0
0.295775 0.261905 0
0.320423 0.261905 0
0.345070 0.261905 0
0.369718 0.261905 0
0.394366 0.261905 0
0.419014 0.261905 0
0.443662 0.261905 0
0.468310 0.261905 0
0.492958 0.261905 0
0.517606 0.261905 0
0.542254 0.261905 0
0.566901 0.261905 0
0.591549 0.261905 0
0.616197 0.261905 0
0.640845 0.261905 0
0.665493 0.261905 0
0.690141 0.261905 0
0.714789 0.261905 0
0.739437 0.261905 0
0.764085 0.261905 0
0.788732 0.261905 0
0.813380 0.261905 0
0.838028 0.261905 0
0.862676 0.261905 0
0.887324 0.261905 0
0.911972 0.261905 0
0.936620 0.261905 0
0.961268 0.261905 0
0.985915 0.261905 0
1.010563 0.261905 0
1.035211 0.261905 0
1.059859 0.261905 0
1.084507 0.261905 0
1.109155 0.261905 0
1.133803 0.261905 0
1.158451 0.261905 0
1.183099 0.261905 0
1.207746 0.261905 0
1.232394 0.261905 0
1.257042 0.261905 0
1.281690 0.261905 0
1.306338 0.261905 0
1.330986 0.261905 0
1.355634 0.261905 0
1.380282 0.261905 0
1.404930 0.261905 0
1.429577 0.261905 0
1.454225 0.261905 0
1.478873 0.261905 0
1.503521 0.261905 0
1.528169 0.261905 0
1.552817 0.261905 0
1.577465 0.261905 0
1.602113 0.261905 0
1.626761 0.261905 0
1.651408 0.261905 0
1.676056 0.261905 0
1.700704 0.261905 0
1.725352 0.261905 0
1.750000 0.261905 0
1.774648 0.261905 0
1.799296 0.261905 0
1.823944 0.261905 0
1.848592 0.261905 0
1.873239 0.261905 0
1.897887 0.261905 0
1.922535 0.261905 0
1.947183 0.261905 0
1.971831 0.261905 0
1.996479 0.261905 0
2.021127 0.261905 0
2.045775 0.261905 0
2.070423 0.261905 0
2.095070 0.261905 0
2.119718 0.261905 0
2.144366 0.261905 0
2.169014 0.261905 0
2.193662 0.261905 0
2.218310 0.261905 0
2.242958 0.261905 0
2.267606 0.261905 0
2.292254 0.261905 0
2.316901 0.261905 0
2.341549 0.261905 0
2.366197 0.261905 0
2.390845 0.261905 0
2.415493 0.261905 0
2.440141 0.261905 0
2.464789 0.261905 0
2.489437 0.261905 0
2.514085 0.261905 0
2.538732 0.261905 0
2.563380 0.261905 0
2.588028 0.261905 0
2.612676 0.261905 0
2.637324 0.261905 0
2.661972 0.261905 0
2.686620 0.261905 0
2.711268 0.261905 0
2.735915 0.261905 0
2.760563 0.261905 0
2.785211 0.261905 0
2.809859 0.261905 0
2.834507 0.261905 0
2.859155 0.261905 0
2.883803 0.261905 0
2.908451 0.261905 0
2.933099 0.261905 0
2.957746 0.261905 0
2.982394 0.261905 0
3.007042 0.261905 0
3.031690 0.261905 0
3.056338 0.261905 0
3.080986 0.261905 0
3.105634 0.261905 0
3.130282 0.261905 0
3.154930 0.261905 0
3.179577 0.261905 0
3.204225 0.261905 0
3.228873 0.261905 0
3.253521 0.261905 0
3.278169 0.261905 0
3.302817 0.261905 0
3.327465 0.261905 0
3.352113 0.261905 0
3.376761 0.261905 0
3.401408 0.261905 0
3.426056 0.261905 0
3.450704 0.261905 0
3.475352 0.261905 0
0.000000 0.273810 0
0.024648 0.273810 0
0.049296 0.273810 0
0.073944 0.273810 0
0.098592 0.273810 0
0.123239 0.273810 0
0.147887 0.273810 0
0.172535 0.273810 0
0.197183 0.273810 0
0.221831 0.273810 0
0.246479 0.273810 0
0.271127 0.273810 0
0.295775 0.273810 0
0.320423 0.273810 0
0.345070 0.273810 0
0.369718 0.273810 0
0.394366 0.273810 0
0.419014 0.273810 0
0.443662 0.273810 0
0.468310 0.273810 0
0.492958 0.273810 0
0.517606 0.273810 0
0.542254 0.273810 0
0.566901 0.273810 0
0.591549 0.273810 0
0.616197 0.273810 0
0.640845 0.273810 0
0.665493 0.273810 0
0.690141 0.273810 0
0.714789 0.273810 0
0.739437 0.273810 0
0.764085 0.273810 0
0.788732 0.273810 0
0.813380 0.273810 0
0.838028 0.273810 0
0.862676 0.273810 0
0.887324 0.273810 0
0.911972 0.273810 0
0.936620 0.273810 0
0.961268 0.273810 0
0.985915 0.273810 0
1.010563 0.273810 0
1.035211 0.273810 0
1.059859 0.273810 0
1.084507 0.273810 0
1.109155 0.273810 0
1.133803 0.273810 0
1.158451 0.273810 0
1.183099 0.273810 0
1.207746 0.273810 0
1.232394 0.273810 0
1.257042 0.273810 0
1.281690 0.273810 0
1.306338 0.273810 0
1.330986 0.273810 0
1.355634 0.273810 0
1.380282 0.273810 0
1.404930 0.273810 0
1.429577 0.273810 0
1.454225 0.273810 0
1.478873 0.273810 0
1.503521 0.273810 0
1.528169 0.273810 0
1.552817 0.273810 0
1.577465 0.273810 0
1.602113 0.273810 0
1.626761 0.273810 0
1.651408 0.273810 0
1.676056 0.273810 0
1.700704 0.273810 0
1.725352 0.273810 0
1.750000 0.273810 0
1.774648 0.273810 0
1.799296 0.273810 0
1.823944 0.273810 0
1.848592 0.273810 0
1.873239 0.273810 0
1.897887 0.273810 0
1.922535 0.273810 0
1.947183 0.273810 0
1.971831 0.273810 0
1.996479 0.273810 0
2.021127 0.273810 0
2.045775 0.273810 0
2.070423 0.273810 0
2.095070 0.273810 0
2.119718 0.273810 0
2.144366 0.273810 0
2.169014 0.273810 0
2.193662 0.273810 0
2.218310 0.273810 0
2.242958 0.273810 0
2.267606 0.273810 0
2.292254 0.273810 0
2.316901 0.273810 0
2.341549 0.273810 0
2.366197 0.273810 0
2.390845 0.273810 0
2.415493 0.273810 0
2.440141 0.273810 0
2.464789 0.273810 0
2.489437 0.273810 0
2.514085 0.273810 0
2.538732 0.273810 0
2.563380 0.273810 0
2.588028 0.273810 0
2.612676 0.273810 0
2.637324 0.273810 0
2.661972 0.273810 0
2.686620 0.273810 0
2.711268 0.273810 0
2.735915 0.273810 0
2.760563 0.273810 0
2.785211 0.273810 0
2.809859 0.273810 0
2.834507 0.273810 0
2.859155 0.273810 0
2.883803 0.273810 0
2.908451 0.273810 0
2.933099 0.273810 0
2.957746 0.273810 0
2.982394 0.273810 0
3.007042 0.273810 0
3.031690 0.273810 0
3.056338 0.273810 0
3.080986 0.273810 0
3.105634 0.273810 0
3.130282 0.273810 0
3.154930 0.273810 0
3.179577 0.273810 0
3.204225 0.273810 0
3.228873 0.273810 0
3.253521 0.273810 0
3.278169 0.273810 0
3.302817 0.273810 0
3.327465 0.273810 0
3.352113 0.273810 0
3.376761 0.273810 0
3.401408 0.273810 0
3.426056 0.273810 0
3.450704 0.273810 0
3.475352 0.273810 0
0.000000 0.285714 0
0.024648 0.285714 0
0.049296 0.285714 0
0.073944 0.285714 0
0.098592 0.285714 0
0.123239 0.285714 0
0.147887 0.285714 0
0.172535 0.285714 0
0.197183 0.285714 0
0.221831 0.285714 0
0.246479 0.285714 0
0.271127 0.285714 0
0.295775 0.285714 0
0.320423 0.285714 0
0.345070 0.285714 0
0.369718 0.285714 0
0.394366 0.285714 0
0.419014 0.285714 0
0.443662 0.285714 0
0.468310 0.285714 0
0.492958 0.285714 0
0.517606 0.285714 0
0.542254 0.285714 0
0.566901 0.285714 0
0.591549 0.285714 0
0.616197 0.285714 0
0.640845 0.285714 0
0.665493 0.285714 0
0.690141 0.285714 0
0.714789 0.285714 0
0.739437 0.285714 0
0.764085 0.285714 0
0.788732 0.285714 0
0.813380 0.285714 0
0.838028 0.285714 0
0.862676 0.285714 0
0.887324 0.285714 0
0.911972 0.285714 0
0.936620 0.285714 0
0.961268 0.285714 0
0.985915 0.285714 0
1.010563 0.285714 0
1.035211 0.285714 0
1.059859 0.285714 0
1.084507 0.285714 0
1.109155 0.285714 0
1.133803 0.285714 0
1.158451 0.285714 0
1.183099 0.285714 0
1.207746 0.285714 0
1.232394 0.285714 0
1.257042 0.285714 0
1.281690 0.285714 0
1.306338 0.285714 0
1.330986 0.285714 0
1.355634 0.285714 0
1.380282 0.285714 0
1.404930 0.285714 0
1.429577 0.285714 0
1.454225 0.285714 0
1.478873 0.285714 0
1.503521 0.285714 0
1.528169 0.285714 0
1.552817 0.285714 0
1.577465 0.285714 0
[...]
POINT_DATA 5964 

VECTORS velocity float
1.000000 0.000000 0
0.999854 0.000000 0
0.999556 0.000000 0
0.999097 0.000000 0
0.998458 0.000000 0
0.997615 0.000000 0
0.996532 0.000000 0
0.995162 0.000000 0
0.993440 0.000000 0
0.991275 0.000000 0
0.988543 0.000000 0
0.985062 0.000000 0
0.980561 0.000000 0
0.974614 0.000000 0
0.966517 0.000000 0
0.954934 0.000000 0
0.937383 0.000000 0
0.905760 0.000000 0
0.847693 0.000000 0
-0.000000 0.000000 0
-0.000000 0.000000 0
-0.000000 0.000000 0
-0.000000 0.000000 0
-0.000000 0.000000 0
-0.000000 0.000000 0
-0.000000 0.000000 0
-0.000000 0.000000 0
-0.000000 0.000000 0
-0.000000 0.000000 0
-0.000000 0.000000 0
-0.000000 0.000000 0
-0.000000 0.000000 0
-0.000000 0.000000 0
-0.000000 0.000000 0
-0.000000 0.000000 0
-0.000000 0.000000 0
-0.000000 0.000000 0
-0.000000 0.000000 0
-0.000000 0.000000 0
-0.000000 0.000000 0
-0.000000 0.000000 0
-0.000000 0.000000 0
-0.000000 0.000000 0
-0.000000 0.000000 0
-0.000000 0.000000 0
-0.000000 0.000000 0
-0.000000 0.000000 0
-0.000000 0.000000 0
-0.000000 0.000000 0
-0.000000 0.000000 0
-0.000000 0.000000 0
-0.000000 0.000000 0
-0.000000 0.000000 0
-0.000000 0.000000 0
-0.000000 0.000000 0
-0.000000 0.000000 0
-0.000000 0.000000 0
-0.000000 0.000000 0
-0.000000 0.000000 0
-0.000000 0.000000 0
-0.000000 0.000000 0
-0.000000 0.000000 0
-0.000000 0.000000 0
-0.000000 0.000000 0
-0.000000 0.000000 0
-0.000000 0.000000 0
-0.000000 0.000000 0
-0.000000 0.000000 0
-0.000000 0.000000 0
-0.000000 0.000000 0
-0.000000 0.000000 0
-0.000000 0.000000 0
-0.000000 0.000000 0
-0.000000 0.000000 0
-0.000000 0.000000 0
-0.000000 0.000000 0
-0.000000 0.000000 0
-0.000000 0.000000 0
-0.000000 0.000000 0
-0.000000 0.000000 0
-0.000000 0.000000 0
-0.000000 0.000000 0
-0.000000 0.000000 0
-0.000000 0.000000 0
-0.000000 0.000000 0
-0.000000 0.000000 0
-0.000000 0.000000 0
-0.000000 0.000000 0
-0.000000 0.000000 0
-0.000000 0.000000 0
-0.000000 0.000000 0
-0.000000 0.000000 0
-0.000000 0.000000 0
-0.000000 0.000000 0
-0.000000 0.000000 0
-0.000000 0.000000 0
-0.000000 0.000000 0
-0.000000 0.000000 0
-0.000000 0.000000 0
-0.000000 0.000000 0
-0.000000 0.000000 0
-0.000000 0.000000 0
-0.000000 0.000000 0
-0.000000 0.000000 0
-0.000000 0.000000 0
-0.000000 0.000000 0
-0.000000 0.000000 0
-0.000000 0.000000 0
-0.000000 0.000000 0
-0.000000 0.000000 0
-0.000000 0.000000 0
-0.000000 0.000000 0
-0.000000 0.000000 0
-0.000000 0.000000 0
-0.000000 0.000000 0
-0.000000 0.000000 0
-0.000000 0.000000 0
-0.000000 0.000000 0
-0.000000 0.000000 0
-0.000000 0.000000 0
-0.000000 0.000000 0
-0.000000 0.000000 0
-0.000000 0.000000 0
-0.000000 0.000000 0
-0.000000 0.000000 0
-0.000000 0.000000 0
-0.000000 0.000000 0
-0.000000 0.000000 0
-0.000000 0.000000 0
-0.000000 0.000000 0
-0.000000 0.000000 0
-0.000000 0.000000 0
-0.000000 0.000000 0
-0.000000 0.000000 0
-0.000000 0.000000 0
-0.000000 0.000000 0
-0.000000 0.000000 0
-0.000000 0.000000 0
-0.000000 0.000000 0
0.000000 0.000000 0
-0.000000 0.000000 0
0.496447 0.000000 0
1.000000 0.000035 0
0.999854 0.000107 0
0.999558 0.000183 0
0.999101 0.000265 0
0.998465 0.000358 0
0.997626 0.000465 0
0.996549 0.000592 0
0.995186 0.000747 0
0.993475 0.000939 0
0.991325 0.001182 0
0.988614 0.001500 0
0.985165 0.001928 0
0.980713 0.002523 0
0.974850 0.003392 0
0.966903 0.004753 0
0.955641 0.007036 0
0.938825 0.011875 0
0.910180 0.021660 0
0.860874 0.078853 0
0.714887 0.110956 0
0.576504 0.072745 0
0.473017 0.041074 0
0.401066 0.022638 0
0.351163 0.013309 0
0.315500 0.008679 0
0.288995 0.006202 0
0.268555 0.004718 0
0.252294 0.003739 0
0.239028 0.003050 0
0.227980 0.002542 0
0.218625 0.002156 0
0.210591 0.001855 0
0.203609 0.001615 0
0.197481 0.001420 0
0.192053 0.001260 0
0.187209 0.001127 0
0.182855 0.001015 0
0.178918 0.000919 0
0.175338 0.000838 0
0.172066 0.000767 0
0.169061 0.000706 0
0.166289 0.000652 0
0.163722 0.000605 0
0.161337 0.000563 0
0.159113 0.000526 0
0.157031 0.000493 0
0.155079 0.000464 0
0.153241 0.000437 0
0.151508 0.000413 0
0.149868 0.000391 0
0.148315 0.000371 0
0.146839 0.000353 0
0.145435 0.000337 0
0.144096 0.000322 0
0.142818 0.000307 0
0.141595 0.000295 0
0.140423 0.000282 0
0.139299 0.000271 0
0.138219 0.000261 0
0.137181 0.000251 0
0.136181 0.000242 0
0.135217 0.000234 0
0.134287 0.000226 0
0.133389 0.000218 0
0.132521 0.000211 0
0.131681 0.000204 0
0.130868 0.000198 0
0.130081 0.000192 0
0.129317 0.000186 0
0.128576 0.000181 0
0.127858 0.000175 0
0.127160 0.000170 0
0.126482 0.000166 0
0.125823 0.000161 0
0.125182 0.000157 0
0.124560 0.000152 0
0.123954 0.000148 0
0.123364 0.000144 0
0.122791 0.000140 0
0.122232 0.000137 0
0.121689 0.000133 0
0.121161 0.000129 0
0.120646 0.000126 0
0.120146 0.000122 0
0.119660 0.000119 0
0.119187 0.000116 0
0.118727 0.000112 0
0.118282 0.000109 0
0.117849 0.000105 0
0.117431 0.000102 0
0.117026 0.000098 0
0.116634 0.000095 0
0.116258 0.000091 0
0.115896 0.000087 0
0.115549 0.000083 0
0.115218 0.000079 0
0.114903 0.000075 0
0.114606 0.000070 0
0.114328 0.000065 0
0.114070 0.000059 0
0.113834 0.000053 0
0.113621 0.000047 0
0.113433 0.000040 0
0.113274 0.000032 0
0.113145 0.000023 0
0.113051 0.000013 0
0.112995 0.000002 0
0.112983 -0.000011 0
0.113022 -0.000025 0
0.113116 -0.000040 0
0.113270 -0.000058 0
0.113493 -0.000078 0
0.113794 -0.000100 0
0.114185 -0.000127 0
0.114677 -0.000157 0
0.115286 -0.000192 0
0.116029 -0.000232 0
0.116927 -0.000278 0
0.118004 -0.000332 0
0.119288 -0.000395 0
0.120813 -0.000469 0
0.122619 -0.000555 0
0.124757 -0.000658 0
0.127285 -0.000781 0
0.130279 -0.000928 0
0.133830 -0.001107 0
0.138054 -0.001326 0
0.143101 -0.001597 0
0.149162 -0.001939 0
0.156491 -0.002375 0
0.165431 -0.002943 0
0.176455 -0.003702 0
0.190233 -0.004742 0
0.207744 -0.006222 0
0.230483 -0.008421 0
0.260840 -0.011897 0
0.302906 -0.017810 0
0.363992 -0.029559 0
0.460732 -0.051923 0
0.618231 -0.166946 0
0.993203 -0.267591 0
0.993203 -0.133796 0
1.000000 0.000070 0
0.999856 0.000213 0
0.999564 0.000364 0
0.999113 0.000528 0
0.998486 0.000712 0
0.997659 0.000926 0
0.996599 0.001178 0
0.995259 0.001485 0
0.993579 0.001865 0
0.991473 0.002348 0
0.988825 0.002975 0
0.985469 0.003816 0
0.981163 0.004982 0
0.975541 0.006670 0
0.968025 0.009278 0
0.957649 0.013561 0
0.942785 0.021957 0
0.920695 0.037650 0
0.888370 0.094326 0
0.890999 0.137349 0
0.842149 0.116821 0
0.771618 0.084735 0
0.701222 0.058855 0
0.639920 0.041328 0
0.589258 0.030027 0
0.547924 0.022674 0
0.514041 0.017726 0
0.485953 0.014261 0
0.462370 0.011743 0
0.442322 0.009855 0
0.425083 0.008399 0
0.410106 0.007252 0
0.396972 0.006332 0
0.385361 0.005582 0
0.375018 0.004961 0
0.365743 0.004442 0
0.357376 0.004004 0
0.349786 0.003631 0
0.342865 0.003310 0
0.336526 0.003032 0
0.330695 0.002790 0
0.325309 0.002578 0
0.320317 0.002392 0
0.315673 0.002227 0
0.311339 0.002080 0
0.307282 0.001948 0
0.303474 0.001831 0
0.299890 0.001725 0
0.296509 0.001629 0
0.293311 0.001542 0
0.290281 0.001463 0
0.287403 0.001391 0
0.284665 0.001325 0
0.282054 0.001264 0
0.279562 0.001208 0
0.277179 0.001157 0
0.274896 0.001109 0
0.272707 0.001064 0
0.270604 0.001023 0
0.268583 0.000985 0
0.266637 0.000948 0
0.264762 0.000915 0
0.262953 0.000883 0
0.261206 0.000853 0
0.259519 0.000825 0
0.257887 0.000798 0
0.256307 0.000773 0
0.254777 0.000749 0
0.253294 0.000726 0
0.251855 0.000705 0
0.250460 0.000684 0
0.249105 0.000665 0
0.247789 0.000646 0
0.246510 0.000628 0
0.245268 0.000610 0
0.244059 0.000593 0
0.242883 0.000577 0
0.241740 0.000562 0
0.240627 0.000547 0
0.239544 0.000532 0
0.238490 0.000518 0
0.237465 0.000504 0
0.236467 0.000490 0
0.235496 0.000477 0
0.234551 0.000463 0
0.233633 0.000450 0
0.232741 0.000437 0
0.231875 0.000424 0
0.231035 0.000411 0
0.230220 0.000398 0
0.229431 0.000385 0
0.228669 0.000371 0
0.227934 0.000357 0
0.227226 0.000342 0
0.226547 0.000327 0
0.225898 0.000312 0
0.225279 0.000295 0
0.224693 0.000278 0
0.224141 0.000259 0
0.223626 0.000239 0
0.223150 0.000217 0
0.222717 0.000194 0
0.222329 0.000168 0
0.221992 0.000139 0
0.221710 0.000108 0
0.221489 0.000073 0
0.221336 0.000033 0
0.221259 -0.000013 0
0.221271 -0.000064 0
0.221382 -0.000120 0
0.221600 -0.000182 0
0.221939 -0.000253 0
0.222415 -0.000334 0
0.223047 -0.000426 0
0.223854 -0.000532 0
0.224864 -0.000653 0
0.226104 -0.000793 0
0.227609 -0.000954 0
0.229418 -0.001140 0
0.231579 -0.001357 0
0.234146 -0.001609 0
0.237187 -0.001905 0
0.240780 -0.002254 0
0.245021 -0.002667 0
0.250029 -0.003161 0
0.255948 -0.003755 0
0.262956 -0.004478 0
0.271282 -0.005365 0
0.281213 -0.006467 0
0.293122 -0.007858 0
0.307503 -0.009643 0
0.325015 -0.011979 0
0.346565 -0.015112 0
0.373428 -0.019441 0
0.407449 -0.025645 0
0.451382 -0.034980 0
0.509509 -0.049822 0
0.588454 -0.076229 0
0.699446 -0.122796 0
0.856569 -0.257180 0
0.993905 -0.362218 0
0.993905 -0.181109 0
1.000000 0.000105 0
0.999859 0.000318 0
0.999574 0.000542 0
0.999133 0.000786 0
0.998521 0.001060 0
0.997714 0.001377 0
0.996681 0.001752 0
0.995379 0.002205 0
0.993750 0.002767 0
0.991715 0.003479 0
0.989168 0.004400 0
0.985962 0.005628 0
0.981887 0.007318 0
0.976642 0.009737 0
0.969782 0.013395 0
0.960673 0.019226 0
0.948431 0.029724 0
0.933028 0.047942 0
0.915086 0.093196 0
0.945330 0.133281 0
0.948626 0.130405 0
0.922939 0.109141 0
0.881981 0.086247 0
0.836590 0.067387 0
0.792539 0.053113 0
0.752207 0.042531 0
0.716223 0.034649 0
0.684456 0.028696 0
0.656486 0.024123 0
0.631829 0.020552 0
0.610018 0.017717 0
0.590642 0.015432 0
0.573344 0.013567 0
0.557828 0.012024 0
0.543841 0.010735 0
0.531175 0.009648 0
0.519653 0.008722 0
0.509128 0.007928 0
0.499475 0.007242 0
0.490589 0.006645 0
0.482379 0.006124 0
0.474768 0.005665 0
0.467691 0.005260 0
0.461090 0.004900 0
0.454916 0.004579 0
0.449124 0.004292 0
0.443679 0.004034 0
0.438547 0.003801 0
0.433699 0.003591 0
0.429109 0.003399 0
0.424756 0.003225 0
0.420618 0.003066 0
0.416678 0.002920 0
0.412921 0.002786 0
0.409332 0.002662 0
0.405898 0.002548 0
0.402608 0.002442 0
0.399453 0.002344 0
0.396421 0.002253 0
0.393506 0.002168 0
0.390699 0.002088 0
0.387994 0.002013 0
0.385385 0.001943 0
0.382865 0.001877 0
0.380430 0.001814 0
0.378074 0.001756 0
0.375794 0.001700 0
0.373586 0.001647 0
0.371446 0.001597 0
0.369370 0.001549 0
0.367355 0.001504 0
0.365400 0.001460 0
0.363500 0.001419 0
0.361653 0.001379 0
0.359859 0.001341 0
0.358113 0.001304 0
0.356415 0.001268 0
0.354764 0.001234 0
0.353156 0.001201 0
0.351591 0.001169 0
0.350068 0.001137 0
0.348586 0.001107 0
0.347143 0.001077 0
0.345739 0.001047 0
0.344372 0.001018 0
0.343044 0.000990 0
0.341752 0.000961 0
0.340497 0.000933 0
0.339278 0.000905 0
0.338097 0.000876 0
0.336951 0.000847 0
0.335843 0.000818 0
0.334773 0.000788 0
0.333742 0.000757 0
0.332750 0.000725 0
0.331799 0.000692 0
0.330891 0.000657 0
0.330027 0.000620 0
0.329211 0.000580 0
0.328444 0.000538 0
0.327731 0.000493 0
0.327075 0.000444 0
0.326481 0.000390 0
0.325954 0.000331 0
0.325500 0.000266 0
0.325128 0.000194 0
0.324844 0.000113 0
0.324660 0.000020 0
0.324589 -0.000084 0
0.324648 -0.000199 0
0.324849 -0.000327 0
0.325208 -0.000471 0
0.325745 -0.000635 0
0.326482 -0.000822 0
0.327447 -0.001035 0
0.328670 -0.001278 0
0.330186 -0.001558 0
0.332039 -0.001879 0
0.334276 -0.002249 0
0.336954 -0.002678 0
0.340142 -0.003177 0
0.343918 -0.003759 0
0.348377 -0.004442 0
0.353633 -0.005248 0
0.359824 -0.006205 0
0.367115 -0.007351 0
0.375711 -0.008732 0
0.385866 -0.010415 0
0.397898 -0.012487 0
0.412208 -0.015073 0
0.429313 -0.018347 0
0.449886 -0.022569 0
0.474818 -0.028125 0
0.505305 -0.035628 0
0.542979 -0.046073 0
0.590085 -0.061191 0
0.649706 -0.084015 0
0.725732 -0.121297 0
0.821652 -0.181421 0
0.936732 -0.309168 0
0.994683 -0.400255 0
0.994683 -0.200128 0
1.000000 0.000138 0
0.999864 0.000419 0
0.999587 0.000715 0
0.999160 0.001037 0
0.998568 0.001398 0
0.997789 0.001814 0
0.996794 0.002306 0
0.995543 0.002901 0
0.993983 0.003635 0
0.992045 0.004560 0
0.989634 0.005754 0
0.986627 0.007333 0
0.982854 0.009484 0
0.978089 0.012517 0
0.972036 0.016991 0
0.964382 0.023874 0
0.954906 0.035310 0
0.945019 0.053755 0
0.937268 0.088384 0
0.965707 0.121150 0
0.987884 0.127636 0
0.990071 0.116924 0
0.975766 0.100561 0
0.951737 0.084528 0
0.923219 0.070783 0
0.893429 0.059534 0
0.864150 0.050449 0
0.836293 0.043114 0
0.810267 0.037162 0
0.786202 0.032298 0
0.764074 0.028292 0
0.743779 0.024966 0
0.725178 0.022181 0
0.708121 0.019831 0
0.692459 0.017834 0
0.678052 0.016125 0
0.664771 0.014653 0
0.652499 0.013376 0
0.641132 0.012264 0
0.630577 0.011289 0
0.620753 0.010431 0
0.611586 0.009672 0
0.603013 0.008998 0
0.594976 0.008397 0
0.587425 0.007859 0
0.580315 0.007375 0
0.573606 0.006939 0
0.567264 0.006545 0
0.561256 0.006187 0
0.555555 0.005862 0
0.550135 0.005564 0
0.544974 0.005292 0
0.540051 0.005042 0
0.535350 0.004812 0
0.530852 0.004600 0
0.526544 0.004404 0
0.522411 0.004222 0
0.518443 0.004053 0
0.514628 0.003895 0
0.510956 0.003748 0
0.507417 0.003611 0
0.504005 0.003482 0
0.500711 0.003360 0
0.497528 0.003246 0
0.494451 0.003139 0
0.491473 0.003037 0
0.488589 0.002941 0
0.485794 0.002850 0
0.483084 0.002763 0
0.480454 0.002680 0
0.477901 0.002602 0
0.475422 0.002527 0
0.473012 0.002455 0
0.470670 0.002386 0
0.468392 0.002320 0
0.466176 0.002257 0
0.464020 0.002195 0
0.461921 0.002136 0
0.459877 0.002079 0
0.457888 0.002023 0
0.455950 0.001969 0
0.454064 0.001917 0
0.452227 0.001865 0
0.450438 0.001815 0
0.448697 0.001765 0
0.447003 0.001716 0
0.445354 0.001667 0
0.443752 0.001619 0
0.442195 0.001570 0
0.440683 0.001522 0
0.439217 0.001473 0
0.437797 0.001423 0
0.436424 0.001372 0
0.435098 0.001320 0
0.433820 0.001266 0
0.432593 0.001210 0
0.431418 0.001151 0
0.430297 0.001089 0
0.429232 0.001023 0
0.428228 0.000954 0
0.427287 0.000878 0
0.426415 0.000797 0
0.425616 0.000709 0
0.424897 0.000613 0
0.424264 0.000507 0
0.423725 0.000389 0
0.423291 0.000258 0
0.422972 0.000110 0
0.422778 -0.000058 0
0.422733 -0.000245 0
0.422854 -0.000453 0
0.423156 -0.000686 0
0.423663 -0.000949 0
0.424398 -0.001248 0
0.425390 -0.001588 0
0.426675 -0.001976 0
0.428290 -0.002420 0
0.430281 -0.002929 0
0.432701 -0.003514 0
0.435610 -0.004190 0
0.439082 -0.004972 0
0.443200 -0.005883 0
0.448065 -0.006946 0
0.453794 -0.008196 0
0.460528 -0.009672 0
0.468438 -0.011429 0
0.477728 -0.013535 0
0.488650 -0.016081 0
0.501509 -0.019190 0
0.516688 -0.023032 0
0.534663 -0.027841 0
0.556034 -0.033957 0
0.581566 -0.041878 0
0.612235 -0.052362 0
0.649280 -0.066594 0
0.694237 -0.086529 0
0.748854 -0.115339 0
0.814578 -0.159278 0
0.890089 -0.224707 0
0.968098 -0.340752 0
0.995418 -0.418197 0
0.995418 -0.209098 0
1.000000 0.000170 0
0.999869 0.000517 0
0.999604 0.000882 0
0.999195 0.001278 0
0.998628 0.001722 0
0.997884 0.002234 0
0.996936 0.002837 0
0.995748 0.003563 0
0.994274 0.004457 0
0.992454 0.005579 0
0.990209 0.007017 0
0.987440 0.008903 0
0.984022 0.011442 0
0.979805 0.014962 0
0.974637 0.020015 0
0.968468 0.027500 0
0.961560 0.039076 0
0.955831 0.056461 0
0.954477 0.083204 0
0.976671 0.108834 0
1.001710 0.118637 0
1.016359 0.114993 0
1.018677 0.104763 0
1.011392 0.092767 0
0.997798 0.081275 0
0.980475 0.071061 0
0.961201 0.062245 0
0.941142 0.054721 0
0.921051 0.048317 0
0.901398 0.042863 0
0.882464 0.038207 0
0.864407 0.034219 0
0.847302 0.030789 0
0.831166 0.027827 0
0.815986 0.025259 0
0.801727 0.023021 0
0.788340 0.021064 0
0.775772 0.019345 0
0.763967 0.017830 0
0.752871 0.016488 0
0.742431 0.015296 0
0.732595 0.014233 0
0.723316 0.013282 0
0.714552 0.012429 0
0.706261 0.011660 0
0.698407 0.010966 0
0.690955 0.010337 0
0.683875 0.009766 0
0.677139 0.009246 0
0.670720 0.008771 0
0.664596 0.008336 0
0.658744 0.007936 0
0.653147 0.007568 0
0.647785 0.007229 0
0.642643 0.006916 0
0.637707 0.006625 0
0.632962 0.006355 0
0.628396 0.006104 0
0.623999 0.005869 0
0.619759 0.005650 0
0.615668 0.005445 0
0.611717 0.005252 0
0.607898 0.005071 0
0.604203 0.004900 0
0.600626 0.004739 0
0.597161 0.004587 0
0.593802 0.004443 0
0.590544 0.004306 0
0.587381 0.004176 0
0.584310 0.004052 0
0.581326 0.003934 0
0.578425 0.003822 0
0.575604 0.003714 0
0.572860 0.003610 0
0.570189 0.003511 0
0.567589 0.003416 0
0.565057 0.003324 0
0.562591 0.003235 0
0.560189 0.003149 0
0.557848 0.003065 0
0.555567 0.002984 0
0.553344 0.002905 0
0.551178 0.002828 0
0.549068 0.002752 0
0.547013 0.002678 0
0.545011 0.002604 0
0.543062 0.002531 0
0.541165 0.002459 0
0.539321 0.002387 0
0.537528 0.002314 0
0.535788 0.002241 0
0.534099 0.002167 0
0.532465 0.002092 0
0.530883 0.002015 0
0.529358 0.001935 0
0.527888 0.001852 0
0.526477 0.001766 0
0.525128 0.001675 0
0.523842 0.001579 0
0.522623 0.001477 0
0.521475 0.001368 0
0.520402 0.001251 0
0.519411 0.001123 0
0.518508 0.000984 0
0.517699 0.000832 0
0.516993 0.000664 0
0.516400 0.000477 0
0.515932 0.000268 0
0.515599 0.000031 0
0.515419 -0.000236 0
0.515417 -0.000531 0
0.515610 -0.000862 0
0.516020 -0.001235 0
0.516673 -0.001656 0
0.517599 -0.002134 0
0.518832 -0.002679 0
0.520412 -0.003299 0
0.522386 -0.004009 0
0.524805 -0.004824 0
0.527732 -0.005761 0
0.531239 -0.006843 0
0.535408 -0.008098 0
0.540339 -0.009559 0
0.546147 -0.011268 0
0.552966 -0.013279 0
0.560960 -0.015658 0
0.570320 -0.018494 0
0.581277 -0.021901 0
0.594109 -0.026030 0
0.609152 -0.031086 0
0.626816 -0.037351 0
0.647598 -0.045223 0
0.672103 -0.055270 0
0.701054 -0.068334 0
0.735290 -0.085679 0
0.775689 -0.109285 0
0.822916 -0.142139 0
0.876730 -0.189513 0
0.933555 -0.255571 0
0.984884 -0.360041 0
0.996085 -0.426645 0
0.996085 -0.213322 0
1.000000 0.000201 0
0.999876 0.000611 0
0.999624 0.001041 0
0.999236 0.001508 0
0.998699 0.002031 0
0.997996 0.002631 0
0.997104 0.003338 0
0.995990 0.004186 0
0.994616 0.005226 0
0.992932 0.006524 0
0.990877 0.008175 0
0.988376 0.010321 0
0.985348 0.013171 0
0.981715 0.017050 0
0.977446 0.022466 0
0.972684 0.030190 0
0.967982 0.041413 0
0.965254 0.057176 0
0.967534 0.078318 0
0.984749 0.098336 0
1.007163 0.108468 0
1.025317 0.108730 0
1.035732 0.102960 0
1.038731 0.094612 0
1.035896 0.085716 0
1.028851 0.077210 0
1.018913 0.069447 0
1.007070 0.062506 0
0.994050 0.056358 0
0.980383 0.050936 0
0.966452 0.046158 0
0.952531 0.041949 0
0.938809 0.038236 0
0.925420 0.034957 0
0.912447 0.032053 0
0.899943 0.029478 0
0.887935 0.027189 0
0.876435 0.025148 0
0.865440 0.023325 0
0.854941 0.021691 0
0.844921 0.020225 0
0.835362 0.018904 0
0.826241 0.017713 0
0.817537 0.016635 0
0.809226 0.015657 0
0.801286 0.014768 0
0.793696 0.013958 0
0.786434 0.013218 0
0.779480 0.012541 0
0.772816 0.011920 0
0.766423 0.011348 0
0.760286 0.010822 0
0.754389 0.010336 0
0.748717 0.009886 0
0.743256 0.009468 0
0.737996 0.009080 0
0.732923 0.008719 0
0.728027 0.008382 0
0.723298 0.008067 0
0.718727 0.007772 0
0.714306 0.007495 0
0.710026 0.007235 0
0.705880 0.006990 0
0.701861 0.006758 0
0.697963 0.006540 0
0.694180 0.006333 0
0.690507 0.006137 0
0.686938 0.005951 0
0.683469 0.005774 0
0.680096 0.005605 0
0.676813 0.005444 0
0.673619 0.005290 0
0.670508 0.005143 0
0.667478 0.005002 0
0.664526 0.004866 0
0.661648 0.004735 0
0.658844 0.004609 0
0.656109 0.004488 0
0.653442 0.004370 0
0.650841 0.004256 0
0.648303 0.004144 0
0.645829 0.004036 0
0.643415 0.003930 0
0.641061 0.003827 0
0.638765 0.003725 0
0.636527 0.003624 0
0.634346 0.003525 0
0.632221 0.003426 0
0.630152 0.003327 0
0.628139 0.003228 0
0.626182 0.003129 0
0.624282 0.003028 0
0.622438 0.002925 0
0.620652 0.002820 0
0.618925 0.002712 0
0.617259 0.002601 0
0.615655 0.002484 0
0.614116 0.002362 0
0.612645 0.002233 0
0.611244 0.002097 0
0.609919 0.001951 0
0.608674 0.001794 0
0.607514 0.001624 0
0.606445 0.001440 0
0.605476 0.001238 0
0.604614 0.001016 0
0.603869 0.000771 0
0.603253 0.000497 0
0.602777 0.000190 0
0.602451 -0.000157 0
0.602306 -0.000545 0
0.602360 -0.000977 0
0.602634 -0.001463 0
0.603154 -0.002011 0
0.603950 -0.002631 0
0.605056 -0.003335 0
0.606510 -0.004136 0
0.608356 -0.005051 0
0.610646 -0.006097 0
0.613440 -0.007297 0
0.616805 -0.008680 0
0.620822 -0.010278 0
0.625583 -0.012133 0
0.631195 -0.014295 0
0.637784 -0.016827 0
0.645497 -0.019811 0
0.654507 -0.023348 0
0.665018 -0.027571 0
0.677269 -0.032654 0
0.691543 -0.038829 0