# vtk DataFile Version 2.0
generated by CFD-lab course output (written by Tobias Neckel) 
ASCII

DATASET STRUCTURED_GRID
DIMENSIONS  142 42 1 
POINTS 5964 float

0.000000 0.250000 0
0.024648 0.250000 0
0.049296 0.250000 0
0.073944 0.250000 0
0.098592 0.250000 0
0.123239 0.250000 0
0.147887 0.250000 0
0.172535 0.250000 0
0.197183 0.250000 0
0.221831 0.250000 0
0.246479 0.250000 0
0.271127 0.250000 0
0.295775 0.250000 0
0.320423 0.250000 0
0.345070 0.250000 0
0.369718 0.250000 0
0.394366 0.250000 0
0.419014 0.250000 0
0.443662 0.250000 0
0.468310 0.250000 0
0.492958 0.250000 0
0.517606 0.250000 0
0.542254 0.250000 0
0.566901 0.250000 0
0.591549 0.250000 0
0.616197 0.250000 0
0.640845 0.250000 0
0.665493 0.250000 0
0.690141 0.250000 0
0.714789 0.250000 0
0.739437 0.250000 0
0.764085 0.250000 0
0.788732 0.250000 0
0.813380 0.250000 0
0.838028 0.250000 0
0.862676 0.250000 0
0.887324 0.250000 0
0.911972 0.250000 0
0.936620 0.250000 0
0.961268 0.250000 0
0.985915 0.250000 0
1.010563 0.250000 0
1.035211 0.250000 0
1.059859 0.250000 0
1.084507 0.250000 0
1.109155 0.250000 0
1.133803 0.250000 0
1.158451 0.250000 0
1.183099 0.250000 0
1.207746 0.250000 0
1.232394 0.250000 0
1.257042 0.250000 0
1.281690 0.250000 0
1.306338 0.250000 0
1.330986 0.250000 0
1.355634 0.250000 0
1.380282 0.250000 0
1.404930 0.250000 0
1.429577 0.250000 0
1.454225 0.250000 0
1.478873 0.250000 0
1.503521 0.250000 0
1.528169 0.250000 0
1.552817 0.250000 0
1.577465 0.250000 0
1.602113 0.250000 0
1.626761 0.250000 0
1.651408 0.250000 0
1.676056 0.250000 0
1.700704 0.250000 0
1.725352 0.250000 0
1.750000 0.250000 0
1.774648 0.250000 0
1.799296 0.250000 0
1.823944 0.250000 0
1.848592 0.250000 0
1.873239 0.250000 0
1.897887 0.250000 0
1.922535 0.250000 0
1.947183 0.250000 0
1.971831 0.250000 0
1.996479 0.250000 0
2.021127 0.250000 0
2.045775 0.250000 0
2.070423 0.250000 0
2.095070 0.250000 0
2.119718 0.250000 0
2.144366 0.250000 0
2.169014 0.250000 0
2.193662 0.250000 0
2.218310 0.250000 0
2.242958 0.250000 0
2.267606 0.250000 0
2.292254 0.250000 0
2.316901 0.250000 0
2.341549 0.250000 0
2.366197 0.250000 0
2.390845 0.250000 0
2.415493 0.250000 0
2.440141 0.250000 0
2.464789 0.250000 0
2.489437 0.250000 0
2.514085 0.250000 0
2.538732 0.250000 0
2.563380 0.250000 0
2.588028 0.250000 0
2.612676 0.250000 0
2.637324 0.250000 0
2.661972 0.250000 0
2.686620 0.250000 0
2.711268 0.250000 0
2.735915 0.250000 0
2.760563 0.250000 0
2.785211 0.250000 0
2.809859 0.250000 0
2.834507 0.250000 0
2.859155 0.250000 0
2.883803 0.250000 0
2.908451 0.250000 0
2.933099 0.250000 0
2.957746 0.250000 0
2.982394 0.250000 0
3.007042 0.250000 0
3.031690 0.250000 0
3.056338 0.250000 0
3.080986 0.250000 0
3.105634 0.250000 0
3.130282 0.250000 0
3.154930 0.250000 0
3.179577 0.250000 0
3.204225 0.250000 0
3.228873 0.250000 0
3.253521 0.250000 0
3.278169 0.250000 0
3.302817 0.250000 0
3.327465 0.250000 0
3.352113 0.250000 0
3.376761 0.250000 0
3.401408 0.250000 0
3.426056 0.250000 0
3.450704 0.250000 0
3.475352 0.250000 0
0.000000 0.261905 0
0.024648 0.261905 0
0.049296 0.261905 0
0.073944 0.261905 0
0.098592 0.261905 0
0.123239 0.261905 0
0.147887 0.261905 0
0.172535 0.261905 0
0.197183 0.261905 0
0.221831 0.261905 0
0.246479 0.261905 0
0.271127 0.261905 0
0.295775 0.261905 0
0.320423 0.261905 0
0.345070 0.261905 0
0.369718 0.261905 0
0.394366 0.261905 0
0.419014 0.261905 0
0.443662 0.261905 0
0.468310 0.261905 0
0.492958 0.261905 0
0.517606 0.261905 0
0.542254 0.261905 0
0.566901 0.261905 0
0.591549 0.261905 0
0.616197 0.261905 0
0.640845 0.261905 0
0.665493 0.261905 0
0.690141 0.261905 0
0.714789 0.261905 0
0.739437 0.261905 0
0.764085 0.261905 0
0.788732 0.261905 0
0.813380 0.261905 0
0.838028 0.261905 0
0.862676 0.261905 0
0.887324 0.261905 0
0.911972 0.261905 0
0.936620 0.261905 0
0.961268 0.261905 0
0.985915 0.261905 0
1.010563 0.261905 0
1.035211 0.261905 0
1.059859 0.261905 0
1.084507 0.261905 0
1.109155 0.261905 0
1.133803 0.261905 0
1.158451 0.261905 0
1.183099 0.261905 0
1.207746 0.261905 0
1.232394 0.261905 0
1.257042 0.261905 0
1.281690 0.261905 0
1.306338 0.261905 0
1.330986 0.261905 0
1.355634 0.261905 0
1.380282 0.261905 0
1.404930 0.261905 0
1.429577 0.261905 0
1.454225 0.261905 0
1.478873 0.261905 0
1.503521 0.261905 0
1.528169 0.261905 0
1.552817 0.261905 0
1.577465 0.261905 0
1.602113 0.261905 0
1.626761 0.261905 0
1.651408 0.261905 0
1.676056 0.261905 0
1.700704 0.261905 0
1.725352 0.261905 0
1.750000 0.261905 0
1.774648 0.261905 0
1.799296 0.261905 0
1.823944 0.261905 0
1.848592 0.261905 0
1.873239 0.261905 0
1.897887 0.261905 0
1.922535 0.261905 0
1.947183 0.261905 0
1.971831 0.261905 0
1.996479 0.261905 0
2.021127 0.261905 0
2.045775 0.261905 0
2.070423 0.261905 0
2.095070 0.261905 0
2.119718 0.261905 0
2.144366 0.261905 0
2.169014 0.261905 0
2.193662 0.261905 0
2.218310 0.261905 0
2.242958 0.261905 0
2.267606 0.261905 0
2.292254 0.261905 0
2.316901 0.261905 0
2.341549 0.261905 0
2.366197 0.261905 0
2.390845 0.261905 0
2.415493 0.261905 0
2.440141 0.261905 0
2.464789 0.261905 0
2.489437 0.261905 0
2.514085 0.261905 0
2.538732 0.261905 0
2.563380 0.261905 0
2.588028 0.261905 0
2.612676 0.261905 0
2.637324 0.261905 0
2.661972 0.261905 0
2.686620 0.261905 0
2.711268 0.261905 0
2.735915 0.261905 0
2.760563 0.261905 0
2.785211 0.261905 0
2.809859 0.261905 0
2.834507 0.261905 0
2.859155 0.261905 0
2.883803 0.261905 0
2.908451 0.261905 0
2.933099 0.261905 0
2.957746 0.261905 0
2.982394 0.261905 0
3.007042 0.261905 0
3.031690 0.261905 0
3.056338 0.261905 0
3.080986 0.261905 0
3.105634 0.261905 0
3.130282 0.261905 0
3.154930 0.261905 0
3.179577 0.261905 0
3.204225 0.261905 0
3.228873 0.261905 0
3.253521 0.261905 0
3.278169 0.261905 0
3.302817 0.261905 0
3.327465 0.261905 0
3.352113 0.261905 0
3.376761 0.261905 0
3.401408 0.261905 0
3.426056 0.261905 0
3.450704 0.261905 0
3.475352 0.261905 0
0.000000 0.273810 0
0.024648 0.273810 0
0.049296 0.273810 0
0.073944 0.273810 0
0.098592 0.273810 0
0.123239 0.273810 0
0.147887 0.273810 0
0.172535 0.273810 0
0.197183 0.273810 0
0.221831 0.273810 0
0.246479 0.273810 0
0.271127 0.273810 0
0.295775 0.273810 0
0.320423 0.273810 0
0.345070 0.273810 0
0.369718 0.273810 0
0.394366 0.273810 0
0.419014 0.273810 0
0.443662 0.273810 0
0.468310 0.273810 0
0.492958 0.273810 0
0.517606 0.273810 0
0.542254 0.273810 0
0.566901 0.273810 0
0.591549 0.273810 0
0.616197 0.273810 0
0.640845 0.273810 0
0.665493 0.273810 0
0.690141 0.273810 0
0.714789 0.273810 0
0.739437 0.273810 0
0.764085 0.273810 0
0.788732 0.273810 0
0.813380 0.273810 0
0.838028 0.273810 0
0.862676 0.273810 0
0.887324 0.273810 0
0.911972 0.273810 0
0.936620 0.273810 0
0.961268 0.273810 0
0.985915 0.273810 0
1.010563 0.273810 0
1.035211 0.273810 0
1.059859 0.273810 0
1.084507 0.273810 0
1.109155 0.273810 0
1.133803 0.273810 0
1.158451 0.273810 0
1.183099 0.273810 0
1.207746 0.273810 0
1.232394 0.273810 0
1.257042 0.273810 0
1.281690 0.273810 0
1.306338 0.273810 0
1.330986 0.273810 0
1.355634 0.273810 0
1.380282 0.273810 0
1.404930 0.273810 0
1.429577 0.273810 0
1.454225 0.273810 0
1.478873 0.273810 0
1.503521 0.273810 0
1.528169 0.273810 0
1.552817 0.273810 0
1.577465 0.273810 0
1.602113 0.273810 0
1.626761 0.273810 0
1.651408 0.273810 0
1.676056 0.273810 0
1.700704 0.273810 0
1.725352 0.273810 0
1.750000 0.273810 0
1.774648 0.273810 0
1.799296 0.273810 0
1.823944 0.273810 0
1.848592 0.273810 0
1.873239 0.273810 0
1.897887 0.273810 0
1.922535 0.273810 0
1.947183 0.273810 0
1.971831 0.273810 0
1.996479 0.273810 0
2.021127 0.273810 0
2.045775 0.273810 0
2.070423 0.273810 0
2.095070 0.273810 0
2.119718 0.273810 0
2.144366 0.273810 0
2.169014 0.273810 0
2.193662 0.273810 0
2.218310 0.273810 0
2.242958 0.273810 0
2.267606 0.273810 0
2.292254 0.273810 0
2.316901 0.273810 0
2.341549 0.273810 0
2.366197 0.273810 0
2.390845 0.273810 0
2.415493 0.273810 0
2.440141 0.273810 0
2.464789 0.273810 0
2.489437 0.273810 0
2.514085 0.273810 0
2.538732 0.273810 0
2.563380 0.273810 0
2.588028 0.273810 0
2.612676 0.273810 0
2.637324 0.273810 0
2.661972 0.273810 0
2.686620 0.273810 0
2.711268 0.273810 0
2.735915 0.273810 0
2.760563 0.273810 0
2.785211 0.273810 0
2.809859 0.273810 0
2.834507 0.273810 0
2.859155 0.273810 0
2.883803 0.273810 0
2.908451 0.273810 0
2.933099 0.273810 0
2.957746 0.273810 0
2.982394 0.273810 0
3.007042 0.273810 0
3.031690 0.273810 0
3.056338 0.273810 0
3.080986 0.273810 0
3.105634 0.273810 0
3.130282 0.273810 0
3.154930 0.273810 0
3.179577 0.273810 0
3.204225 0.273810 0
3.228873 0.273810 0
3.253521 0.273810 0
3.278169 0.273810 0
3.302817 0.273810 0
3.327465 0.273810 0
3.352113 0.273810 0
3.376761 0.273810 0
3.401408 0.273810 0
3.426056 0.273810 0
3.450704 0.273810 0
3.475352 0.273810 0
0.000000 0.285714 0
0.024648 0.285714 0
0.049296 0.285714 0
0.073944 0.285714 0
0.098592 0.285714 0
0.123239 0.285714 0
0.147887 0.285714 0
0.172535 0.285714 0
0.197183 0.285714 0
0.221831 0.285714 0
0.246479 0.285714 0
0.271127 0.285714 0
0.295775 0.285714 0
0.320423 0.285714 0
0.345070 0.285714 0
0.369718 0.285714 0
0.394366 0.285714 0
0.419014 0.285714 0
0.443662 0.285714 0
0.468310 0.285714 0
0.492958 0.285714 0
0.517606 0.285714 0
0.542254 0.285714 0
0.566901 0.285714 0
0.591549 0.285714 0
0.616197 0.285714 0
0.640845 0.285714 0
0.665493 0.285714 0
0.690141 0.285714 0
0.714789 0.285714 0
0.739437 0.285714 0
0.764085 0.285714 0
0.788732 0.285714 0
0.813380 0.285714 0
0.838028 0.285714 0
0.862676 0.285714 0
0.887324 0.285714 0
0.911972 0.285714 0
0.936620 0.285714 0
0.961268 0.285714 0
0.985915 0.285714 0
1.010563 0.285714 0
1.035211 0.285714 0
1.059859 0.285714 0
1.084507 0.285714 0
1.109155 0.285714 0
1.133803 0.285714 0
1.158451 0.285714 0
1.183099 0.285714 0
1.207746 0.285714 0
1.232394 0.285714 0
1.257042 0.285714 0
1.281690 0.285714 0
1.306338 0.285714 0
1.330986 0.285714 0
1.355634 0.285714 0
1.380282 0.285714 0
1.404930 0.285714 0
1.429577 0.285714 0
1.454225 0.285714 0
1.478873 0.285714 0
1.503521 0.285714 0
1.528169 0.285714 0
1.552817 0.285714 0
1.577465 0.285714 0
[...]
POINT_DATA 5964 

VECTORS velocity float
1.000000 0.000000 0
0.999854 0.000000 0
0.999557 0.000000 0
0.999097 0.000000 0
0.998459 0.000000 0
0.997616 0.000000 0
0.996534 0.000000 0
0.995164 0.000000 0
0.993443 0.000000 0
0.991279 0.000000 0
0.988549 0.000000 0
0.985069 0.000000 0
0.980570 0.000000 0
0.974626 0.000000 0
0.966531 0.000000 0
0.954951 0.000000 0
0.937405 0.000000 0
0.905787 0.000000 0
0.847727 0.000000 0
-0.000000 0.000000 0
-0.000000 0.000000 0
-0.000000 0.000000 0
-0.000000 0.000000 0
-0.000000 0.000000 0
-0.000000 0.000000 0
-0.000000 0.000000 0
-0.000000 0.000000 0
-0.000000 0.000000 0
-0.000000 0.000000 0
-0.000000 0.000000 0
-0.000000 0.000000 0
-0.000000 0.000000 0
-0.000000 0.000000 0
-0.000000 0.000000 0
-0.000000 0.000000 0
-0.000000 0.000000 0
-0.000000 0.000000 0
-0.000000 0.000000 0
-0.000000 0.000000 0
-0.000000 0.000000 0
-0.000000 0.000000 0
-0.000000 0.000000 0
-0.000000 0.000000 0
-0.000000 0.000000 0
-0.000000 0.000000 0
-0.000000 0.000000 0
-0.000000 0.000000 0
-0.000000 0.000000 0
-0.000000 0.000000 0
-0.000000 0.000000 0
-0.000000 0.000000 0
-0.000000 0.000000 0
-0.000000 0.000000 0
-0.000000 0.000000 0
-0.000001 0.000000 0
-0.000001 0.000000 0
-0.000001 0.000000 0
-0.000001 0.000000 0
-0.000001 0.000000 0
-0.000001 0.000000 0
-0.000001 0.000000 0
-0.000001 0.000000 0
-0.000001 0.000000 0
-0.000001 0.000000 0
-0.000001 0.000000 0
-0.000002 0.000000 0
-0.000002 0.000000 0
-0.000002 0.000000 0
-0.000002 0.000000 0
-0.000002 0.000000 0
-0.000002 0.000000 0
-0.000002 0.000000 0
-0.000002 0.000000 0
-0.000002 0.000000 0
-0.000003 0.000000 0
-0.000003 0.000000 0
-0.000003 0.000000 0
-0.000003 0.000000 0
-0.000003 0.000000 0
-0.000003 0.000000 0
-0.000003 0.000000 0
-0.000003 0.000000 0
-0.000003 0.000000 0
-0.000003 0.000000 0
-0.000003 0.000000 0
-0.000003 0.000000 0
-0.000002 0.000000 0
-0.000002 0.000000 0
-0.000002 0.000000 0
-0.000002 0.000000 0
-0.000002 0.000000 0
-0.000002 0.000000 0
-0.000002 0.000000 0
-0.000002 0.000000 0
-0.000002 0.000000 0
-0.000002 0.000000 0
-0.000002 0.000000 0
-0.000002 0.000000 0
-0.000002 0.000000 0
-0.000002 0.000000 0
-0.000002 0.000000 0
-0.000002 0.000000 0
-0.000002 0.000000 0
-0.000002 0.000000 0
-0.000002 0.000000 0
-0.000002 0.000000 0
-0.000002 0.000000 0
-0.000002 0.000000 0
-0.000002 0.000000 0
-0.000002 0.000000 0
-0.000002 0.000000 0
-0.000002 0.000000 0
-0.000002 0.000000 0
-0.000002 0.000000 0
-0.000002 0.000000 0
-0.000002 0.000000 0
-0.000002 0.000000 0
-0.000002 0.000000 0
-0.000002 0.000000 0
-0.000002 0.000000 0
-0.000002 0.000000 0
-0.000002 0.000000 0
-0.000002 0.000000 0
-0.000002 0.000000 0
-0.000002 0.000000 0
-0.000002 0.000000 0
-0.000002 0.000000 0
-0.000002 0.000000 0
-0.000002 0.000000 0
-0.000002 0.000000 0
-0.000002 0.000000 0
-0.000002 0.000000 0
-0.000002 0.000000 0
-0.000001 0.000000 0
-0.000001 0.000000 0
-0.000001 0.000000 0
-0.000001 0.000000 0
-0.000000 0.000000 0
-0.000000 0.000000 0
0.000000 0.000000 0
-0.000000 0.000000 0
0.496769 0.000000 0
1.000000 0.000035 0
0.999854 0.000107 0
0.999559 0.000183 0
0.999101 0.000265 0
0.998466 0.000358 0
0.997627 0.000465 0
0.996550 0.000592 0
0.995189 0.000746 0
0.993478 0.000938 0
0.991329 0.001182 0
0.988620 0.001500 0
0.985172 0.001927 0
0.980722 0.002522 0
0.974861 0.003390 0
0.966917 0.004751 0
0.955659 0.007034 0
0.938847 0.011873 0
0.910207 0.021657 0
0.860908 0.078851 0
0.714926 0.110956 0
0.576548 0.072745 0
0.473067 0.041074 0
0.401123 0.022637 0
0.351228 0.013307 0
0.315576 0.008677 0
0.289083 0.006199 0
0.268657 0.004714 0
0.252412 0.003735 0
0.239164 0.003045 0
0.228137 0.002537 0
0.218804 0.002150 0
0.210796 0.001848 0
0.203843 0.001607 0
0.197747 0.001412 0
0.192356 0.001251 0
0.187552 0.001117 0
0.183243 0.001003 0
0.179355 0.000907 0
0.175829 0.000824 0
0.172617 0.000752 0
0.169679 0.000689 0
0.166980 0.000634 0
0.164495 0.000585 0
0.162198 0.000542 0
0.160071 0.000503 0
0.158096 0.000468 0
0.156260 0.000436 0
0.154550 0.000407 0
0.152955 0.000380 0
0.151468 0.000355 0
0.150079 0.000332 0
0.148783 0.000311 0
0.147574 0.000291 0
0.146447 0.000272 0
0.145399 0.000254 0
0.144427 0.000236 0
0.143528 0.000219 0
0.142701 0.000203 0
0.141945 0.000186 0
0.141260 0.000169 0
0.140646 0.000152 0
0.140103 0.000135 0
0.139632 0.000117 0
0.139232 0.000100 0
0.138904 0.000082 0
0.138647 0.000064 0
0.138459 0.000046 0
0.138337 0.000029 0
0.138277 0.000014 0
0.138271 0.000000 0
0.138311 -0.000012 0
0.138389 -0.000021 0
0.138498 -0.000029 0
0.138629 -0.000035 0
0.138775 -0.000039 0
0.138931 -0.000042 0
0.139091 -0.000042 0
0.139250 -0.000042 0
0.139405 -0.000041 0
0.139552 -0.000039 0
0.139689 -0.000037 0
0.139816 -0.000034 0
0.139931 -0.000031 0
0.140034 -0.000028 0
0.140126 -0.000025 0
0.140207 -0.000022 0
0.140279 -0.000019 0
0.140342 -0.000017 0
0.140398 -0.000016 0
0.140449 -0.000014 0
0.140495 -0.000013 0
0.140538 -0.000013 0
0.140581 -0.000012 0
0.140623 -0.000013 0
0.140668 -0.000013 0
0.140715 -0.000014 0
0.140767 -0.000016 0
0.140826 -0.000018 0
0.140892 -0.000020 0
0.140967 -0.000023 0
0.141054 -0.000027 0
0.141153 -0.000031 0
0.141268 -0.000035 0
0.141400 -0.000041 0
0.141553 -0.000047 0
0.141729 -0.000054 0
0.141932 -0.000062 0
0.142165 -0.000072 0
0.142435 -0.000082 0
0.142744 -0.000095 0
0.143101 -0.000109 0
0.143512 -0.000126 0
0.143985 -0.000145 0
0.144530 -0.000167 0
0.145159 -0.000193 0
0.145883 -0.000223 0
0.146719 -0.000257 0
0.147685 -0.000298 0
0.148802 -0.000345 0
0.150094 -0.000400 0
0.151593 -0.000465 0
0.153335 -0.000541 0
0.155363 -0.000632 0
0.157729 -0.000741 0
0.160501 -0.000872 0
0.163759 -0.001030 0
0.167605 -0.001225 0
0.172170 -0.001466 0
0.177625 -0.001769 0
0.184194 -0.002156 0
0.192181 -0.002662 0
0.202010 -0.003339 0
0.214285 -0.004272 0
0.229907 -0.005611 0
0.250270 -0.007627 0
0.277647 -0.010870 0
0.316026 -0.016512 0
0.372707 -0.028026 0
0.464577 -0.050459 0
0.617950 -0.167320 0
0.993855 -0.269641 0
0.993855 -0.134821 0
1.000000 0.000070 0
0.999856 0.000213 0
0.999564 0.000364 0
0.999113 0.000528 0
0.998487 0.000712 0
0.997660 0.000925 0
0.996600 0.001178 0
0.995262 0.001484 0
0.993582 0.001864 0
0.991477 0.002346 0
0.988830 0.002974 0
0.985476 0.003814 0
0.981172 0.004980 0
0.975552 0.006668 0
0.968039 0.009275 0
0.957666 0.013558 0
0.942807 0.021953 0
0.920721 0.037644 0
0.888403 0.094320 0
0.891042 0.137344 0
0.842204 0.116816 0
0.771687 0.084729 0
0.701307 0.058847 0
0.640022 0.041319 0
0.589379 0.030016 0
0.548068 0.022662 0
0.514211 0.017712 0
0.486153 0.014245 0
0.462604 0.011725 0
0.442594 0.009834 0
0.425398 0.008376 0
0.410469 0.007226 0
0.397390 0.006303 0
0.385839 0.005549 0
0.375564 0.004924 0
0.366366 0.004402 0
0.358085 0.003959 0
0.350589 0.003580 0
0.343775 0.003254 0
0.337553 0.002971 0
0.331852 0.002723 0
0.326610 0.002504 0
0.321777 0.002310 0
0.317308 0.002137 0
0.313167 0.001981 0
0.309323 0.001841 0
0.305748 0.001713 0
0.302420 0.001596 0
0.299319 0.001489 0
0.296428 0.001389 0
0.293733 0.001297 0
0.291221 0.001210 0
0.288882 0.001128 0
0.286707 0.001050 0
0.284689 0.000976 0
0.282823 0.000904 0
0.281104 0.000834 0
0.279528 0.000765 0
0.278095 0.000696 0
0.276803 0.000628 0
0.275650 0.000559 0
0.274638 0.000490 0
0.273764 0.000421 0
0.273029 0.000351 0
0.272430 0.000282 0
0.271963 0.000215 0
0.271623 0.000150 0
0.271404 0.000088 0
0.271297 0.000032 0
0.271290 -0.000017 0
0.271366 -0.000057 0
0.271509 -0.000090 0
0.271706 -0.000116 0
0.271941 -0.000134 0
0.272204 -0.000146 0
0.272482 -0.000153 0
0.272766 -0.000154 0
0.273047 -0.000152 0
0.273319 -0.000146 0
0.273577 -0.000137 0
0.273818 -0.000128 0
0.274039 -0.000117 0
0.274239 -0.000105 0
0.274418 -0.000094 0
0.274576 -0.000084 0
0.274716 -0.000074 0
0.274839 -0.000065 0
0.274946 -0.000058 0
0.275041 -0.000051 0
0.275127 -0.000047 0
0.275204 -0.000043 0
0.275277 -0.000041 0
0.275348 -0.000041 0
0.275418 -0.000042 0
0.275492 -0.000044 0
0.275571 -0.000048 0
0.275657 -0.000053 0
0.275754 -0.000060 0
0.275863 -0.000068 0
0.275989 -0.000078 0
0.276132 -0.000090 0
0.276298 -0.000104 0
0.276489 -0.000119 0
0.276709 -0.000138 0
0.276963 -0.000159 0
0.277255 -0.000183 0
0.277593 -0.000211 0
0.277981 -0.000243 0
0.278429 -0.000280 0
0.278944 -0.000322 0
0.279537 -0.000371 0
0.280220 -0.000427 0
0.281007 -0.000492 0
0.281912 -0.000567 0
0.282955 -0.000653 0
0.284157 -0.000754 0
0.285543 -0.000870 0
0.287143 -0.001006 0
0.288991 -0.001164 0
0.291128 -0.001348 0
0.293602 -0.001565 0
0.296472 -0.001820 0
0.299807 -0.002123 0
0.303690 -0.002482 0
0.308225 -0.002912 0
0.313536 -0.003431 0
0.319781 -0.004063 0
0.327158 -0.004840 0
0.335920 -0.005807 0
0.346394 -0.007030 0
0.359017 -0.008605 0
0.374379 -0.010676 0
0.393298 -0.013474 0
0.416944 -0.017380 0
0.447041 -0.023058 0
0.486217 -0.031760 0
0.538651 -0.045914 0
0.610972 -0.071749 0
0.714557 -0.118450 0
0.864448 -0.255638 0
0.994595 -0.363119 0
0.994595 -0.181560 0
1.000000 0.000105 0
0.999860 0.000318 0
0.999574 0.000542 0
0.999133 0.000786 0
0.998521 0.001060 0
0.997715 0.001376 0
0.996683 0.001751 0
0.995381 0.002204 0
0.993753 0.002766 0
0.991719 0.003477 0
0.989174 0.004398 0
0.985969 0.005626 0
0.981896 0.007315 0
0.976653 0.009733 0
0.969796 0.013390 0
0.960690 0.019221 0
0.948452 0.029717 0
0.933055 0.047934 0
0.915118 0.093186 0
0.945372 0.133270 0
0.948680 0.130392 0
0.923009 0.109126 0
0.882070 0.086230 0
0.836701 0.067367 0
0.792676 0.053090 0
0.752373 0.042504 0
0.716423 0.034618 0
0.684694 0.028661 0
0.656769 0.024084 0
0.632162 0.020507 0
0.610409 0.017667 0
0.591097 0.015376 0
0.573873 0.013503 0
0.558439 0.011953 0
0.544545 0.010656 0
0.531983 0.009559 0
0.520578 0.008624 0
0.510183 0.007818 0
0.500677 0.007120 0
0.491953 0.006511 0
0.483924 0.005975 0
0.476515 0.005501 0
0.469661 0.005078 0
0.463307 0.004700 0
0.457406 0.004360 0
0.451916 0.004051 0
0.446803 0.003770 0
0.442037 0.003512 0
0.437591 0.003274 0
0.433442 0.003053 0
0.429573 0.002848 0
0.425965 0.002654 0
0.422605 0.002471 0
0.419482 0.002297 0
0.416585 0.002130 0
0.413907 0.001968 0
0.411442 0.001811 0
0.409185 0.001656 0
0.407132 0.001502 0
0.405282 0.001350 0
0.403632 0.001198 0
0.402181 0.001046 0
0.400926 0.000894 0
0.399865 0.000744 0
0.398993 0.000597 0
0.398304 0.000453 0
0.397789 0.000316 0
0.397438 0.000187 0
0.397239 0.000069 0
0.397177 -0.000033 0
0.397234 -0.000118 0
0.397386 -0.000186 0
0.397615 -0.000238 0
0.397900 -0.000276 0
0.398225 -0.000300 0
0.398576 -0.000313 0
0.398937 -0.000315 0
0.399299 -0.000310 0
0.399652 -0.000297 0
0.399990 -0.000280 0
0.400305 -0.000259 0
0.400597 -0.000237 0
0.400861 -0.000214 0
0.401099 -0.000191 0
0.401310 -0.000169 0
0.401497 -0.000149 0
0.401660 -0.000131 0
0.401804 -0.000115 0
0.401931 -0.000103 0
0.402043 -0.000093 0
0.402146 -0.000086 0
0.402241 -0.000082 0
0.402332 -0.000081 0
0.402422 -0.000082 0
0.402515 -0.000087 0
0.402614 -0.000094 0
0.402722 -0.000104 0
0.402842 -0.000117 0
0.402978 -0.000134 0
0.403132 -0.000153 0
0.403309 -0.000176 0
0.403513 -0.000203 0
0.403748 -0.000234 0
0.404018 -0.000270 0
0.404330 -0.000311 0
0.404690 -0.000358 0
0.405105 -0.000413 0
0.405582 -0.000475 0
0.406132 -0.000547 0
0.406765 -0.000630 0
0.407494 -0.000726 0
0.408333 -0.000836 0
0.409298 -0.000962 0
0.410409 -0.001108 0
0.411688 -0.001277 0
0.413161 -0.001473 0
0.414859 -0.001699 0
0.416817 -0.001963 0
0.419075 -0.002269 0
0.421684 -0.002627 0
0.424701 -0.003046 0
0.428193 -0.003538 0
0.432242 -0.004118 0
0.436945 -0.004807 0
0.442421 -0.005627 0
0.448812 -0.006612 0
0.456295 -0.007804 0
0.465089 -0.009260 0
0.475469 -0.011060 0
0.487785 -0.013312 0
0.502492 -0.016179 0
0.520186 -0.019896 0
0.541667 -0.024831 0
0.568024 -0.031569 0
0.600769 -0.041085 0
0.642020 -0.055117 0
0.694733 -0.076768 0
0.762700 -0.112987 0
0.849177 -0.172886 0
0.953503 -0.302576 0
0.995443 -0.395360 0
0.995444 -0.197680 0
1.000000 0.000138 0
0.999864 0.000419 0
0.999587 0.000715 0
0.999161 0.001036 0
0.998569 0.001397 0
0.997791 0.001813 0
0.996796 0.002305 0
0.995545 0.002899 0
0.993986 0.003633 0
0.992049 0.004558 0
0.989640 0.005751 0
0.986634 0.007329 0
0.982863 0.009479 0
0.978100 0.012512 0
0.972050 0.016985 0
0.964399 0.023867 0
0.954927 0.035301 0
0.945045 0.053744 0
0.937300 0.088371 0
0.965747 0.121134 0
0.987935 0.127617 0
0.990136 0.116901 0
0.975849 0.100533 0
0.951842 0.084496 0
0.923349 0.070746 0
0.893591 0.059491 0
0.864349 0.050400 0
0.836534 0.043057 0
0.810557 0.037098 0
0.786548 0.032225 0
0.764483 0.028210 0
0.744262 0.024873 0
0.725744 0.022076 0
0.708782 0.019714 0
0.693227 0.017702 0
0.678941 0.015977 0
0.665795 0.014488 0
0.653676 0.013192 0
0.642480 0.012059 0
0.632117 0.011062 0
0.622508 0.010179 0
0.613580 0.009393 0
0.605273 0.008689 0
0.597532 0.008056 0
0.590309 0.007483 0
0.583563 0.006961 0
0.577257 0.006484 0
0.571358 0.006046 0
0.565840 0.005640 0
0.560679 0.005262 0
0.555852 0.004908 0
0.551342 0.004575 0
0.547134 0.004259 0
0.543215 0.003958 0
0.539574 0.003668 0
0.536202 0.003388 0
0.533092 0.003114 0
0.530238 0.002846 0
0.527637 0.002581 0
0.525283 0.002318 0
0.523176 0.002057 0
0.521310 0.001797 0
0.519684 0.001539 0
0.518291 0.001285 0
0.517127 0.001037 0
0.516183 0.000796 0
0.515448 0.000568 0
0.514910 0.000354 0
0.514553 0.000158 0
0.514360 -0.000014 0
0.514318 -0.000158 0
0.514402 -0.000274 0
0.514586 -0.000364 0
0.514849 -0.000429 0
0.515171 -0.000473 0
0.515533 -0.000497 0
0.515918 -0.000504 0
0.516313 -0.000497 0
0.516705 -0.000479 0
0.517087 -0.000453 0
0.517449 -0.000421 0
0.517788 -0.000385 0
0.518099 -0.000348 0
0.518382 -0.000311 0
0.518636 -0.000276 0
0.518861 -0.000243 0
0.519061 -0.000214 0
0.519237 -0.000188 0
0.519392 -0.000167 0
0.519530 -0.000151 0
0.519655 -0.000139 0
0.519770 -0.000131 0
0.519878 -0.000129 0
0.519984 -0.000131 0
0.520092 -0.000137 0
0.520204 -0.000148 0
0.520325 -0.000163 0
0.520458 -0.000183 0
0.520606 -0.000208 0
0.520775 -0.000238 0
0.520968 -0.000274 0
0.521189 -0.000315 0
0.521443 -0.000363 0
0.521736 -0.000419 0
0.522074 -0.000483 0
0.522463 -0.000557 0
0.522911 -0.000642 0
0.523427 -0.000739 0
0.524021 -0.000851 0
0.524705 -0.000980 0
0.525492 -0.001128 0
0.526397 -0.001298 0
0.527438 -0.001495 0
0.528637 -0.001721 0
0.530016 -0.001983 0
0.531603 -0.002285 0
0.533431 -0.002636 0
0.535537 -0.003042 0
0.537964 -0.003515 0
0.540764 -0.004065 0
0.543997 -0.004709 0
0.547732 -0.005463 0
0.552055 -0.006350 0
0.557064 -0.007398 0
0.562878 -0.008644 0
0.569641 -0.010132 0
0.577526 -0.011924 0
0.586746 -0.014100 0
0.597564 -0.016769 0
0.610307 -0.020082 0
0.625387 -0.024254 0
0.643329 -0.029597 0
0.664807 -0.036580 0
0.690689 -0.045926 0
0.722091 -0.058798 0
0.760401 -0.077144 0
0.807175 -0.104201 0
0.863593 -0.146344 0
0.927723 -0.210607 0
0.991526 -0.326284 0
0.996259 -0.403631 0
0.996259 -0.201815 0
1.000000 0.000170 0
0.999869 0.000517 0
0.999604 0.000881 0
0.999195 0.001277 0
0.998629 0.001721 0
0.997885 0.002232 0
0.996938 0.002835 0
0.995750 0.003561 0
0.994277 0.004455 0
0.992458 0.005576 0
0.990214 0.007014 0
0.987447 0.008899 0
0.984031 0.011437 0
0.979816 0.014956 0
0.974650 0.020007 0
0.968484 0.027491 0
0.961580 0.039065 0
0.955856 0.056447 0
0.954507 0.083187 0
0.976709 0.108814 0
1.001757 0.118612 0
1.016417 0.114963 0
1.018751 0.104726 0
1.011485 0.092724 0
0.997914 0.081224 0
0.980620 0.071001 0
0.961379 0.062177 0
0.941361 0.054642 0
0.921318 0.048227 0
0.901719 0.042760 0
0.882850 0.038090 0
0.864867 0.034087 0
0.847846 0.030640 0
0.831807 0.027659 0
0.816738 0.025069 0
0.802604 0.022809 0
0.789358 0.020826 0
0.776951 0.019079 0
0.765327 0.017533 0
0.754435 0.016157 0
0.744223 0.014928 0
0.734643 0.013825 0
0.725650 0.012830 0
0.717205 0.011928 0
0.709270 0.011106 0
0.701810 0.010355 0
0.694797 0.009664 0
0.688203 0.009026 0
0.682003 0.008432 0
0.676178 0.007878 0
0.670708 0.007357 0
0.665577 0.006865 0
0.660771 0.006397 0
0.656279 0.005949 0
0.652090 0.005517 0
0.648196 0.005099 0
0.644591 0.004691 0
0.641269 0.004290 0
0.638225 0.003895 0
0.635455 0.003505 0
0.632956 0.003117 0
0.630724 0.002733 0
0.628755 0.002353 0
0.627043 0.001979 0
0.625582 0.001615 0
0.624362 0.001264 0
0.623373 0.000931 0
0.622601 0.000619 0
0.622030 0.000334 0
0.621641 0.000080 0
0.621422 -0.000138 0
0.621356 -0.000315 0
0.621417 -0.000454 0
0.621582 -0.000558 0
0.621827 -0.000630 0
0.622132 -0.000674 0
0.622480 -0.000692 0
0.622853 -0.000690 0
0.623238 -0.000671 0
0.623622 -0.000639 0
0.623998 -0.000598 0
0.624356 -0.000551 0
0.624693 -0.000501 0
0.625004 -0.000450 0
0.625288 -0.000400 0
0.625544 -0.000354 0
0.625774 -0.000312 0
0.625978 -0.000275 0
0.626161 -0.000244 0
0.626323 -0.000220 0
0.626470 -0.000201 0
0.626604 -0.000190 0
0.626729 -0.000184 0
0.626849 -0.000185 0
0.626969 -0.000193 0
0.627091 -0.000207 0
0.627220 -0.000227 0
0.627359 -0.000254 0
0.627514 -0.000287 0
0.627687 -0.000328 0
0.627883 -0.000376 0
0.628107 -0.000432 0
0.628364 -0.000498 0
0.628659 -0.000574 0
0.628999 -0.000662 0
0.629390 -0.000763 0
0.629840 -0.000878 0
0.630359 -0.001012 0
0.630955 -0.001165 0
0.631642 -0.001341 0
0.632432 -0.001543 0
0.633340 -0.001776 0
0.634385 -0.002044 0
0.635586 -0.002353 0
0.636968 -0.002710 0
0.638558 -0.003122 0
0.640387 -0.003599 0
0.642492 -0.004152 0
0.644917 -0.004794 0
0.647710 -0.005541 0
0.650930 -0.006412 0
0.654645 -0.007430 0
0.658936 -0.008625 0
0.663895 -0.010034 0
0.669636 -0.011702 0
0.676291 -0.013687 0
0.684020 -0.016066 0
0.693014 -0.018939 0
0.703504 -0.022439 0
0.715774 -0.026751 0
0.730167 -0.032128 0
0.747106 -0.038936 0
0.767102 -0.047706 0
0.790770 -0.059237 0
0.818811 -0.074756 0
0.851923 -0.096211 0
0.890505 -0.126609 0
0.933902 -0.171211 0
0.977678 -0.234677 0
1.012112 -0.335679 0
0.996998 -0.399929 0
0.996998 -0.199963 0
1.000000 0.000201 0
0.999876 0.000610 0
0.999624 0.001040 0
0.999236 0.001507 0
0.998700 0.002030 0
0.997997 0.002630 0
0.997105 0.003336 0
0.995992 0.004184 0
0.994619 0.005223 0
0.992936 0.006520 0
0.990882 0.008171 0
0.988382 0.010316 0
0.985356 0.013165 0
0.981725 0.017043 0
0.977458 0.022458 0
0.972700 0.030180 0
0.968001 0.041400 0
0.965277 0.057160 0
0.967563 0.078299 0
0.984785 0.098312 0
1.007206 0.108438 0
1.025370 0.108693 0
1.035798 0.102916 0
1.038812 0.094560 0
1.035995 0.085653 0
1.028975 0.077137 0
1.019065 0.069361 0
1.007258 0.062407 0
0.994280 0.056244 0
0.980662 0.050805 0
0.966789 0.046009 0
0.952935 0.041779 0
0.939293 0.038044 0
0.925994 0.034739 0
0.913125 0.031808 0
0.900741 0.029202 0
0.888870 0.026878 0
0.877524 0.024799 0
0.866706 0.022934 0
0.856405 0.021255 0
0.846610 0.019739 0
0.837303 0.018363 0
0.828466 0.017112 0
0.820079 0.015968 0
0.812124 0.014919 0
0.804580 0.013952 0
0.797431 0.013057 0
0.790660 0.012225 0
0.784251 0.011447 0
0.778190 0.010718 0
0.772465 0.010028 0
0.767064 0.009375 0
0.761978 0.008750 0
0.757198 0.008151 0
0.752718 0.007572 0
0.748531 0.007010 0
0.744632 0.006460 0
0.741018 0.005921 0
0.737684 0.005389 0
0.734628 0.004863 0
0.731845 0.004342 0
0.729334 0.003826 0
0.727089 0.003317 0
0.725105 0.002818 0
0.723376 0.002331 0
0.721893 0.001863 0
0.720647 0.001418 0
0.719625 0.001003 0
0.718813 0.000622 0
0.718192 0.000279 0
0.717747 -0.000021 0
0.717469 -0.000272 0
0.717341 -0.000473 0
0.717339 -0.000627 0
0.717441 -0.000738 0
0.717626 -0.000812 0
0.717874 -0.000852 0
0.718169 -0.000863 0
0.718494 -0.000851 0
0.718837 -0.000820 0
0.719185 -0.000775 0
0.719530 -0.000721 0
0.719863 -0.000661 0
0.720180 -0.000598 0
0.720476 -0.000537 0
0.720750 -0.000478 0
0.721000 -0.000423 0
0.721226 -0.000375 0
0.721431 -0.000334 0
0.721616 -0.000300 0
0.721783 -0.000274 0
0.721935 -0.000257 0
0.722077 -0.000247 0
0.722211 -0.000246 0
0.722341 -0.000254 0
0.722472 -0.000269 0
0.722607 -0.000293 0
0.722750 -0.000325 0
0.722905 -0.000366 0
0.723077 -0.000417 0
0.723269 -0.000477 0
0.723487 -0.000548 0
0.723736 -0.000630 0
0.724020 -0.000726 0
0.724347 -0.000836 0
0.724722 -0.000963 0
0.725154 -0.001110 0
0.725650 -0.001278 0
0.726222 -0.001471 0
0.726878 -0.001693 0
0.727634 -0.001948 0
0.728502 -0.002241 0
0.729500 -0.002579 0
0.730648 -0.002969 0
0.731968 -0.003418 0
0.733484 -0.003937 0
0.735229 -0.004536 0
0.737234 -0.005230 0
0.739542 -0.006035 0