# vtk DataFile Version 2.0
generated by CFD-lab course output (written by Tobias Neckel) 
ASCII

DATASET STRUCTURED_GRID
DIMENSIONS  142 42 1 
POINTS 5964 float

0.000000 0.250000 0
0.024648 0.250000 0
0.049296 0.250000 0
0.073944 0.250000 0
0.098592 0.250000 0
0.123239 0.250000 0
0.147887 0.250000 0
0.172535 0.250000 0
0.197183 0.250000 0
0.221831 0.250000 0
0.246479 0.250000 0
0.271127 0.250000 0
0.295775 0.250000 0
0.320423 0.250000 0
0.345070 0.250000 0
0.369718 0.250000 0
0.394366 0.250000 0
0.419014 0.250000 0
0.443662 0.250000 0
0.468310 0.250000 0
0.492958 0.250000 0
0.517606 0.250000 0
0.542254 0.250000 0
0.566901 0.250000 0
0.591549 0.250000 0
0.616197 0.250000 0
0.640845 0.250000 0
0.665493 0.250000 0
0.690141 0.250000 0
0.714789 0.250000 0
0.739437 0.250000 0
0.764085 0.250000 0
0.788732 0.250000 0
0.813380 0.250000 0
0.838028 0.250000 0
0.862676 0.250000 0
0.887324 0.250000 0
0.911972 0.250000 0
0.936620 0.250000 0
0.961268 0.250000 0
0.985915 0.250000 0
1.010563 0.250000 0
1.035211 0.250000 0
1.059859 0.250000 0
1.084507 0.250000 0
1.109155 0.250000 0
1.133803 0.250000 0
1.158451 0.250000 0
1.183099 0.250000 0
1.207746 0.250000 0
1.232394 0.250000 0
1.257042 0.250000 0
1.281690 0.250000 0
1.306338 0.250000 0
1.330986 0.250000 0
1.355634 0.250000 0
1.380282 0.250000 0
1.404930 0.250000 0
1.429577 0.250000 0
1.454225 0.250000 0
1.478873 0.250000 0
1.503521 0.250000 0
1.528169 0.250000 0
1.552817 0.250000 0
1.577465 0.250000 0
1.602113 0.250000 0
1.626761 0.250000 0
1.651408 0.250000 0
1.676056 0.250000 0
1.700704 0.250000 0
1.725352 0.250000 0
1.750000 0.250000 0
1.774648 0.250000 0
1.799296 0.250000 0
1.823944 0.250000 0
1.848592 0.250000 0
1.873239 0.250000 0
1.897887 0.250000 0
1.922535 0.250000 0
1.947183 0.250000 0
1.971831 0.250000 0
1.996479 0.250000 0
2.021127 0.250000 0
2.045775 0.250000 0
2.070423 0.250000 0
2.095070 0.250000 0
2.119718 0.250000 0
2.144366 0.250000 0
2.169014 0.250000 0
2.193662 0.250000 0
2.218310 0.250000 0
2.242958 0.250000 0
2.267606 0.250000 0
2.292254 0.250000 0
2.316901 0.250000 0
2.341549 0.250000 0
2.366197 0.250000 0
2.390845 0.250000 0
2.415493 0.250000 0
2.440141 0.250000 0
2.464789 0.250000 0
2.489437 0.250000 0
2.514085 0.250000 0
2.538732 0.250000 0
2.563380 0.250000 0
2.588028 0.250000 0
2.612676 0.250000 0
2.637324 0.250000 0
2.661972 0.250000 0
2.686620 0.250000 0
2.711268 0.250000 0
2.735915 0.250000 0
2.760563 0.250000 0
2.785211 0.250000 0
2.809859 0.250000 0
2.834507 0.250000 0
2.859155 0.250000 0
2.883803 0.250000 0
2.908451 0.250000 0
2.933099 0.250000 0
2.957746 0.250000 0
2.982394 0.250000 0
3.007042 0.250000 0
3.031690 0.250000 0
3.056338 0.250000 0
3.080986 0.250000 0
3.105634 0.250000 0
3.130282 0.250000 0
3.154930 0.250000 0
3.179577 0.250000 0
3.204225 0.250000 0
3.228873 0.250000 0
3.253521 0.250000 0
3.278169 0.250000 0
3.302817 0.250000 0
3.327465 0.250000 0
3.352113 0.250000 0
3.376761 0.250000 0
3.401408 0.250000 0
3.426056 0.250000 0
3.450704 0.250000 0
3.475352 0.250000 0
0.000000 0.261905 0
0.024648 0.261905 0
0.049296 0.261905 0
0.073944 0.261905 0
0.098592 0.261905 0
0.123239 0.261905 0
0.147887 0.261905 0
0.172535 0.261905 0
0.197183 0.261905 0
0.221831 0.261905 0
0.246479 0.261905 0
0.271127 0.261905 0
0.295775 0.261905 0
0.320423 0.261905 0
0.345070 0.261905 0
0.369718 0.261905 0
0.394366 0.261905 0
0.419014 0.261905 0
0.443662 0.261905 0
0.468310 0.261905 0
0.492958 0.261905 0
0.517606 0.261905 0
0.542254 0.261905 0
0.566901 0.261905 0
0.591549 0.261905 0
0.616197 0.261905 0
0.640845 0.261905 0
0.665493 0.261905 0
0.690141 0.261905 0
0.714789 0.261905 0
0.739437 0.261905 0
0.764085 0.261905 0
0.788732 0.261905 0
0.813380 0.261905 0
0.838028 0.261905 0
0.862676 0.261905 0
0.887324 0.261905 0
0.911972 0.261905 0
0.936620 0.261905 0
0.961268 0.261905 0
0.985915 0.261905 0
1.010563 0.261905 0
1.035211 0.261905 0
1.059859 0.261905 0
1.084507 0.261905 0
1.109155 0.261905 0
1.133803 0.261905 0
1.158451 0.261905 0
1.183099 0.261905 0
1.207746 0.261905 0
1.232394 0.261905 0
1.257042 0.261905 0
1.281690 0.261905 0
1.306338 0.261905 0
1.330986 0.261905 0
1.355634 0.261905 0
1.380282 0.261905 0
1.404930 0.261905 0
1.429577 0.261905 0
1.454225 0.261905 0
1.478873 0.261905 0
1.503521 0.261905 0
1.528169 0.261905 0
1.552817 0.261905 0
1.577465 0.261905 0
1.602113 0.261905 0
1.626761 0.261905 0
1.651408 0.261905 0
1.676056 0.261905 0
1.700704 0.261905 0
1.725352 0.261905 0
1.750000 0.261905 0
1.774648 0.261905 0
1.799296 0.261905 0
1.823944 0.261905 0
1.848592 0.261905 0
1.873239 0.261905 0
1.897887 0.261905 0
1.922535 0.261905 0
1.947183 0.261905 0
1.971831 0.261905 0
1.996479 0.261905 0
2.021127 0.261905 0
2.045775 0.261905 0
2.070423 0.261905 0
2.095070 0.261905 0
2.119718 0.261905 0
2.144366 0.261905 0
2.169014 0.261905 0
2.193662 0.261905 0
2.218310 0.261905 0
2.242958 0.261905 0
2.267606 0.261905 0
2.292254 0.261905 0
2.316901 0.261905 0
2.341549 0.261905 0
2.366197 0.261905 0
2.390845 0.261905 0
2.415493 0.261905 0
2.440141 0.261905 0
2.464789 0.261905 0
2.489437 0.261905 0
2.514085 0.261905 0
2.538732 0.261905 0
2.563380 0.261905 0
2.588028 0.261905 0
2.612676 0.261905 0
2.637324 0.261905 0
2.661972 0.261905 0
2.686620 0.261905 0
2.711268 0.261905 0
2.735915 0.261905 0
2.760563 0.261905 0
2.785211 0.261905 0
2.809859 0.261905 0
2.834507 0.261905 0
2.859155 0.261905 0
2.883803 0.261905 0
2.908451 0.261905 0
2.933099 0.261905 0
2.957746 0.261905 0
2.982394 0.261905 0
3.007042 0.261905 0
3.031690 0.261905 0
3.056338 0.261905 0
3.080986 0.261905 0
3.105634 0.261905 0
3.130282 0.261905 0
3.154930 0.261905 0
3.179577 0.261905 0
3.204225 0.261905 0
3.228873 0.261905 0
3.253521 0.261905 0
3.278169 0.261905 0
3.302817 0.261905 0
3.327465 0.261905 0
3.352113 0.261905 0
3.376761 0.261905 0
3.401408 0.261905 0
3.426056 0.261905 0
3.450704 0.261905 0
3.475352 0.261905 0
0.000000 0.273810 0
0.024648 0.273810 0
0.049296 0.273810 0
0.073944 0.273810 0
0.098592 0.273810 0
0.123239 0.273810 0
0.147887 0.273810 0
0.172535 0.273810 0
0.197183 0.273810 0
0.221831 0.273810 0
0.246479 0.273810 0
0.271127 0.273810 0
0.295775 0.273810 0
0.320423 0.273810 0
0.345070 0.273810 0
0.369718 0.273810 0
0.394366 0.273810 0
0.419014 0.273810 0
0.443662 0.273810 0
0.468310 0.273810 0
0.492958 0.273810 0
0.517606 0.273810 0
0.542254 0.273810 0
0.566901 0.273810 0
0.591549 0.273810 0
0.616197 0.273810 0
0.640845 0.273810 0
0.665493 0.273810 0
0.690141 0.273810 0
0.714789 0.273810 0
0.739437 0.273810 0
0.764085 0.273810 0
0.788732 0.273810 0
0.813380 0.273810 0
0.838028 0.273810 0
0.862676 0.273810 0
0.887324 0.273810 0
0.911972 0.273810 0
0.936620 0.273810 0
0.961268 0.273810 0
0.985915 0.273810 0
1.010563 0.273810 0
1.035211 0.273810 0
1.059859 0.273810 0
1.084507 0.273810 0
1.109155 0.273810 0
1.133803 0.273810 0
1.158451 0.273810 0
1.183099 0.273810 0
1.207746 0.273810 0
1.232394 0.273810 0
1.257042 0.273810 0
1.281690 0.273810 0
1.306338 0.273810 0
1.330986 0.273810 0
1.355634 0.273810 0
1.380282 0.273810 0
1.404930 0.273810 0
1.429577 0.273810 0
1.454225 0.273810 0
1.478873 0.273810 0
1.503521 0.273810 0
1.528169 0.273810 0
1.552817 0.273810 0
1.577465 0.273810 0
1.602113 0.273810 0
1.626761 0.273810 0
1.651408 0.273810 0
1.676056 0.273810 0
1.700704 0.273810 0
1.725352 0.273810 0
1.750000 0.273810 0
1.774648 0.273810 0
1.799296 0.273810 0
1.823944 0.273810 0
1.848592 0.273810 0
1.873239 0.273810 0
1.897887 0.273810 0
1.922535 0.273810 0
1.947183 0.273810 0
1.971831 0.273810 0
1.996479 0.273810 0
2.021127 0.273810 0
2.045775 0.273810 0
2.070423 0.273810 0
2.095070 0.273810 0
2.119718 0.273810 0
2.144366 0.273810 0
2.169014 0.273810 0
2.193662 0.273810 0
2.218310 0.273810 0
2.242958 0.273810 0
2.267606 0.273810 0
2.292254 0.273810 0
2.316901 0.273810 0
2.341549 0.273810 0
2.366197 0.273810 0
2.390845 0.273810 0
2.415493 0.273810 0
2.440141 0.273810 0
2.464789 0.273810 0
2.489437 0.273810 0
2.514085 0.273810 0
2.538732 0.273810 0
2.563380 0.273810 0
2.588028 0.273810 0
2.612676 0.273810 0
2.637324 0.273810 0
2.661972 0.273810 0
2.686620 0.273810 0
2.711268 0.273810 0
2.735915 0.273810 0
2.760563 0.273810 0
2.785211 0.273810 0
2.809859 0.273810 0
2.834507 0.273810 0
2.859155 0.273810 0
2.883803 0.273810 0
2.908451 0.273810 0
2.933099 0.273810 0
2.957746 0.273810 0
2.982394 0.273810 0
3.007042 0.273810 0
3.031690 0.273810 0
3.056338 0.273810 0
3.080986 0.273810 0
3.105634 0.273810 0
3.130282 0.273810 0
3.154930 0.273810 0
3.179577 0.273810 0
3.204225 0.273810 0
3.228873 0.273810 0
3.253521 0.273810 0
3.278169 0.273810 0
3.302817 0.273810 0
3.327465 0.273810 0
3.352113 0.273810 0
3.376761 0.273810 0
3.401408 0.273810 0
3.426056 0.273810 0
3.450704 0.273810 0
3.475352 0.273810 0
0.000000 0.285714 0
0.024648 0.285714 0
0.049296 0.285714 0
0.073944 0.285714 0
0.098592 0.285714 0
0.123239 0.285714 0
0.147887 0.285714 0
0.172535 0.285714 0
0.197183 0.285714 0
0.221831 0.285714 0
0.246479 0.285714 0
0.271127 0.285714 0
0.295775 0.285714 0
0.320423 0.285714 0
0.345070 0.285714 0
0.369718 0.285714 0
0.394366 0.285714 0
0.419014 0.285714 0
0.443662 0.285714 0
0.468310 0.285714 0
0.492958 0.285714 0
0.517606 0.285714 0
0.542254 0.285714 0
0.566901 0.285714 0
0.591549 0.285714 0
0.616197 0.285714 0
0.640845 0.285714 0
0.665493 0.285714 0
0.690141 0.285714 0
0.714789 0.285714 0
0.739437 0.285714 0
0.764085 0.285714 0
0.788732 0.285714 0
0.813380 0.285714 0
0.838028 0.285714 0
0.862676 0.285714 0
0.887324 0.285714 0
0.911972 0.285714 0
0.936620 0.285714 0
0.961268 0.285714 0
0.985915 0.285714 0
1.010563 0.285714 0
1.035211 0.285714 0
1.059859 0.285714 0
1.084507 0.285714 0
1.109155 0.285714 0
1.133803 0.285714 0
1.158451 0.285714 0
1.183099 0.285714 0
1.207746 0.285714 0
1.232394 0.285714 0
1.257042 0.285714 0
1.281690 0.285714 0
1.306338 0.285714 0
1.330986 0.285714 0
1.355634 0.285714 0
1.380282 0.285714 0
1.404930 0.285714 0
1.429577 0.285714 0
1.454225 0.285714 0
1.478873 0.285714 0
1.503521 0.285714 0
1.528169 0.285714 0
1.552817 0.285714 0
1.577465 0.285714 0
[...]
POINT_DATA 5964 

VECTORS velocity float
1.000000 0.000000 0
0.999854 0.000000 0
0.999556 0.000000 0
0.999097 0.000000 0
0.998458 0.000000 0
0.997615 0.000000 0
0.996532 0.000000 0
0.995162 0.000000 0
0.993440 0.000000 0
0.991275 0.000000 0
0.988543 0.000000 0
0.985062 0.000000 0
0.980561 0.000000 0
0.974615 0.000000 0
0.966517 0.000000 0
0.954934 0.000000 0
0.937383 0.000000 0
0.905760 0.000000 0
0.847693 0.000000 0
-0.000000 0.000000 0
-0.000000 0.000000 0
-0.000000 0.000000 0
-0.000000 0.000000 0
-0.000000 0.000000 0
-0.000000 0.000000 0
-0.000000 0.000000 0
-0.000000 0.000000 0
-0.000000 0.000000 0
-0.000000 0.000000 0
-0.000000 0.000000 0
-0.000000 0.000000 0
-0.000000 0.000000 0
-0.000000 0.000000 0
-0.000000 0.000000 0
-0.000000 0.000000 0
-0.000000 0.000000 0
-0.000000 0.000000 0
-0.000000 0.000000 0
-0.000000 0.000000 0
-0.000000 0.000000 0
-0.000000 0.000000 0
-0.000000 0.000000 0
-0.000000 0.000000 0
-0.000000 0.000000 0
-0.000000 0.000000 0
-0.000000 0.000000 0
-0.000000 0.000000 0
-0.000000 0.000000 0
-0.000000 0.000000 0
-0.000000 0.000000 0
-0.000000 0.000000 0
-0.000000 0.000000 0
-0.000000 0.000000 0
-0.000000 0.000000 0
-0.000000 0.000000 0
-0.000000 0.000000 0
-0.000000 0.000000 0
-0.000000 0.000000 0
-0.000000 0.000000 0
-0.000000 0.000000 0
-0.000000 0.000000 0
-0.000000 0.000000 0
-0.000000 0.000000 0
-0.000000 0.000000 0
-0.000000 0.000000 0
-0.000000 0.000000 0
-0.000000 0.000000 0
-0.000000 0.000000 0
-0.000000 0.000000 0
-0.000000 0.000000 0
-0.000000 0.000000 0
-0.000000 0.000000 0
-0.000000 0.000000 0
-0.000000 0.000000 0
-0.000000 0.000000 0
-0.000000 0.000000 0
-0.000000 0.000000 0
-0.000000 0.000000 0
-0.000000 0.000000 0
-0.000000 0.000000 0
-0.000000 0.000000 0
-0.000000 0.000000 0
-0.000000 0.000000 0
-0.000000 0.000000 0
-0.000000 0.000000 0
-0.000000 0.000000 0
-0.000000 0.000000 0
-0.000000 0.000000 0
-0.000000 0.000000 0
-0.000000 0.000000 0
-0.000000 0.000000 0
-0.000000 0.000000 0
-0.000000 0.000000 0
-0.000000 0.000000 0
-0.000000 0.000000 0
-0.000000 0.000000 0
-0.000000 0.000000 0
-0.000000 0.000000 0
-0.000000 0.000000 0
-0.000000 0.000000 0
-0.000000 0.000000 0
-0.000000 0.000000 0
-0.000000 0.000000 0
-0.000000 0.000000 0
-0.000000 0.000000 0
-0.000000 0.000000 0
-0.000000 0.000000 0
-0.000000 0.000000 0
-0.000000 0.000000 0
-0.000000 0.000000 0
-0.000000 0.000000 0
-0.000000 0.000000 0
-0.000000 0.000000 0
-0.000001 0.000000 0
-0.000001 0.000000 0
-0.000001 0.000000 0
-0.000001 0.000000 0
-0.000001 0.000000 0
-0.000001 0.000000 0
-0.000001 0.000000 0
-0.000001 0.000000 0
-0.000001 0.000000 0
-0.000001 0.000000 0
-0.000001 0.000000 0
-0.000001 0.000000 0
-0.000001 0.000000 0
-0.000001 0.000000 0
-0.000001 0.000000 0
-0.000001 0.000000 0
-0.000001 0.000000 0
-0.000001 0.000000 0
-0.000001 0.000000 0
-0.000001 0.000000 0
-0.000001 0.000000 0
-0.000000 0.000000 0
-0.000000 0.000000 0
-0.000000 0.000000 0
-0.000000 0.000000 0
0.000000 0.000000 0
0.000000 0.000000 0
-0.000000 0.000000 0
0.496497 0.000000 0
1.000000 0.000035 0
0.999854 0.000107 0
0.999558 0.000183 0
0.999101 0.000265 0
0.998465 0.000358 0
0.997626 0.000465 0
0.996549 0.000592 0
0.995186 0.000747 0
0.993475 0.000939 0
0.991325 0.001182 0
0.988614 0.001500 0
0.985165 0.001928 0
0.980713 0.002523 0
0.974850 0.003392 0
0.966903 0.004753 0
0.955641 0.007036 0
0.938825 0.011875 0
0.910181 0.021660 0
0.860875 0.078853 0
0.714887 0.110956 0
0.576504 0.072745 0
0.473017 0.041074 0
0.401067 0.022638 0
0.351163 0.013309 0
0.315500 0.008679 0
0.288995 0.006202 0
0.268555 0.004718 0
0.252295 0.003739 0
0.239029 0.003050 0
0.227982 0.002542 0
0.218626 0.002156 0
0.210592 0.001855 0
0.203611 0.001615 0
0.197483 0.001420 0
0.192056 0.001260 0
0.187212 0.001127 0
0.182859 0.001015 0
0.178922 0.000919 0
0.175342 0.000838 0
0.172070 0.000767 0
0.169066 0.000706 0
0.166295 0.000652 0
0.163729 0.000605 0
0.161344 0.000563 0
0.159121 0.000526 0
0.157040 0.000493 0
0.155089 0.000464 0
0.153252 0.000437 0
0.151520 0.000413 0
0.149882 0.000391 0
0.148330 0.000371 0
0.146856 0.000353 0
0.145454 0.000336 0
0.144117 0.000321 0
0.142841 0.000307 0
0.141620 0.000294 0
0.140451 0.000282 0
0.139330 0.000271 0
0.138253 0.000260 0
0.137218 0.000250 0
0.136222 0.000241 0
0.135262 0.000233 0
0.134336 0.000225 0
0.133443 0.000217 0
0.132579 0.000210 0
0.131745 0.000203 0
0.130938 0.000197 0
0.130157 0.000190 0
0.129400 0.000184 0
0.128667 0.000179 0
0.127956 0.000174 0
0.127267 0.000168 0
0.126598 0.000163 0
0.125949 0.000159 0
0.125320 0.000154 0
0.124708 0.000150 0
0.124115 0.000145 0
0.123539 0.000141 0
0.122979 0.000137 0
0.122437 0.000133 0
0.121910 0.000129 0
0.121399 0.000125 0
0.120903 0.000122 0
0.120423 0.000118 0
0.119958 0.000114 0
0.119508 0.000110 0
0.119074 0.000107 0
0.118654 0.000103 0
0.118250 0.000099 0
0.117860 0.000095 0
0.117487 0.000091 0
0.117130 0.000087 0
0.116789 0.000083 0
0.116465 0.000079 0
0.116158 0.000074 0
0.115870 0.000070 0
0.115602 0.000065 0
0.115354 0.000059 0
0.115128 0.000053 0
0.114926 0.000047 0
0.114749 0.000040 0
0.114599 0.000033 0
0.114479 0.000025 0
0.114391 0.000015 0
0.114340 0.000005 0
0.114330 -0.000006 0
0.114365 -0.000019 0
0.114448 -0.000032 0
0.114585 -0.000047 0
0.114780 -0.000064 0
0.115042 -0.000083 0
0.115377 -0.000105 0
0.115795 -0.000129 0
0.116306 -0.000157 0
0.116922 -0.000188 0
0.117657 -0.000223 0
0.118527 -0.000264 0
0.119551 -0.000310 0
0.120752 -0.000364 0
0.122158 -0.000427 0
0.123801 -0.000500 0
0.125720 -0.000585 0
0.127963 -0.000687 0
0.130589 -0.000807 0
0.133670 -0.000952 0
0.137296 -0.001128 0
0.141580 -0.001343 0
0.146669 -0.001609 0
0.152752 -0.001945 0
0.160077 -0.002373 0
0.168981 -0.002932 0
0.179929 -0.003677 0
0.193579 -0.004701 0
0.210901 -0.006158 0
0.233371 -0.008328 0
0.263358 -0.011765 0
0.304937 -0.017633 0
0.365411 -0.029339 0
0.461441 -0.051703 0
0.618308 -0.166975 0
0.993303 -0.267850 0
0.993303 -0.133925 0
1.000000 0.000070 0
0.999856 0.000213 0
0.999564 0.000364 0
0.999113 0.000528 0
0.998486 0.000712 0
0.997659 0.000926 0
0.996599 0.001178 0
0.995259 0.001485 0
0.993579 0.001865 0
0.991473 0.002348 0
0.988825 0.002975 0
0.985469 0.003816 0
0.981163 0.004982 0
0.975541 0.006670 0
0.968025 0.009278 0
0.957649 0.013561 0
0.942785 0.021957 0
0.920695 0.037650 0
0.888371 0.094325 0
0.890999 0.137349 0
0.842149 0.116821 0
0.771619 0.084735 0
0.701223 0.058855 0
0.639921 0.041328 0
0.589259 0.030027 0
0.547925 0.022674 0
0.514042 0.017726 0
0.485955 0.014261 0
0.462372 0.011743 0
0.442325 0.009854 0
0.425086 0.008399 0
0.410109 0.007252 0
0.396976 0.006332 0
0.385365 0.005581 0
0.375022 0.004961 0
0.365748 0.004442 0
0.357382 0.004004 0
0.349792 0.003630 0
0.342873 0.003309 0
0.336535 0.003032 0
0.330705 0.002790 0
0.325320 0.002578 0
0.320329 0.002391 0
0.315686 0.002226 0
0.311354 0.002079 0
0.307299 0.001947 0
0.303493 0.001830 0
0.299911 0.001724 0
0.296532 0.001628 0
0.293338 0.001541 0
0.290310 0.001462 0
0.287435 0.001389 0
0.284701 0.001323 0
0.282094 0.001262 0
0.279606 0.001206 0
0.277228 0.001154 0
0.274950 0.001106 0
0.272766 0.001062 0
0.270670 0.001020 0
0.268655 0.000981 0
0.266717 0.000945 0
0.264849 0.000911 0
0.263049 0.000879 0
0.261312 0.000848 0
0.259635 0.000820 0
0.258014 0.000793 0
0.256446 0.000767 0
0.254929 0.000743 0
0.253460 0.000720 0
0.252037 0.000697 0
0.250658 0.000676 0
0.249321 0.000656 0
0.248025 0.000636 0
0.246767 0.000618 0
0.245547 0.000599 0
0.244362 0.000582 0
0.243213 0.000565 0
0.242097 0.000548 0
0.241015 0.000532 0
0.239964 0.000517 0
0.238945 0.000501 0
0.237957 0.000486 0
0.236999 0.000471 0
0.236071 0.000456 0
0.235172 0.000442 0
0.234303 0.000427 0
0.233463 0.000413 0
0.232653 0.000398 0
0.231872 0.000383 0
0.231121 0.000368 0
0.230400 0.000353 0
0.229710 0.000337 0
0.229052 0.000321 0
0.228426 0.000304 0
0.227835 0.000287 0
0.227278 0.000269 0
0.226758 0.000249 0
0.226277 0.000229 0
0.225836 0.000207 0
0.225440 0.000183 0
0.225090 0.000158 0
0.224790 0.000130 0
0.224545 0.000100 0
0.224359 0.000067 0
0.224238 0.000030 0
0.224190 -0.000012 0
0.224223 -0.000057 0
0.224343 -0.000106 0
0.224558 -0.000160 0
0.224878 -0.000221 0
0.225312 -0.000288 0
0.225875 -0.000364 0
0.226581 -0.000449 0
0.227447 -0.000544 0
0.228492 -0.000652 0
0.229741 -0.000775 0
0.231219 -0.000915 0
0.232959 -0.001075 0
0.234998 -0.001259 0
0.237380 -0.001472 0
0.240159 -0.001720 0
0.243398 -0.002010 0
0.247175 -0.002352 0
0.251582 -0.002756 0
0.256734 -0.003239 0
0.262772 -0.003821 0
0.269872 -0.004527 0
0.278254 -0.005396 0
0.288202 -0.006476 0
0.300083 -0.007839 0
0.314379 -0.009588 0
0.331739 -0.011881 0
0.353056 -0.014959 0
0.379587 -0.019219 0
0.413158 -0.025337 0
0.456500 -0.034566 0
0.513877 -0.049291 0
0.591907 -0.075590 0
0.701830 -0.122148 0
0.857867 -0.256886 0
0.994011 -0.362240 0
0.994011 -0.181120 0
1.000000 0.000105 0
0.999859 0.000318 0
0.999574 0.000542 0
0.999133 0.000786 0
0.998521 0.001060 0
0.997714 0.001377 0
0.996681 0.001752 0
0.995379 0.002205 0
0.993750 0.002767 0
0.991715 0.003479 0
0.989168 0.004400 0
0.985962 0.005628 0
0.981888 0.007318 0
0.976642 0.009737 0
0.969783 0.013395 0
0.960673 0.019226 0
0.948431 0.029724 0
0.933029 0.047942 0
0.915087 0.093196 0
0.945331 0.133281 0
0.948626 0.130405 0
0.922939 0.109141 0
0.881982 0.086247 0
0.836591 0.067387 0
0.792541 0.053113 0
0.752208 0.042531 0
0.716225 0.034649 0
0.684458 0.028695 0
0.656488 0.024123 0
0.631831 0.020551 0
0.610021 0.017716 0
0.590645 0.015432 0
0.573349 0.013566 0
0.557833 0.012024 0
0.543847 0.010735 0
0.531181 0.009647 0
0.519660 0.008721 0
0.509136 0.007927 0
0.499485 0.007241 0
0.490600 0.006644 0
0.482391 0.006122 0
0.474783 0.005664 0
0.467707 0.005258 0
0.461108 0.004898 0
0.454936 0.004577 0
0.449147 0.004290 0
0.443705 0.004032 0
0.438576 0.003799 0
0.433731 0.003588 0
0.429145 0.003396 0
0.424796 0.003222 0
0.420663 0.003062 0
0.416728 0.002916 0
0.412976 0.002782 0
0.409393 0.002658 0
0.405966 0.002543 0
0.402684 0.002437 0
0.399536 0.002338 0
0.396514 0.002246 0
0.393608 0.002160 0
0.390812 0.002080 0
0.388118 0.002004 0
0.385521 0.001933 0
0.383015 0.001866 0
0.380595 0.001803 0
0.378256 0.001743 0
0.375994 0.001686 0
0.373805 0.001633 0
0.371685 0.001581 0
0.369632 0.001532 0
0.367642 0.001485 0
0.365713 0.001440 0
0.363842 0.001397 0
0.362027 0.001356 0
0.360266 0.001316 0
0.358556 0.001277 0
0.356898 0.001239 0
0.355288 0.001203 0
0.353726 0.001167 0
0.352210 0.001133 0
0.350739 0.001099 0
0.349313 0.001065 0
0.347931 0.001033 0
0.346591 0.001000 0
0.345295 0.000968 0
0.344041 0.000936 0
0.342829 0.000904 0
0.341659 0.000872 0
0.340531 0.000839 0
0.339447 0.000806 0
0.338405 0.000773 0
0.337408 0.000739 0
0.336455 0.000703 0
0.335549 0.000667 0
0.334691 0.000629 0
0.333882 0.000590 0
0.333125 0.000548 0
0.332422 0.000504 0
0.331776 0.000457 0
0.331190 0.000407 0
0.330668 0.000354 0
0.330215 0.000296 0
0.329836 0.000233 0
0.329536 0.000164 0
0.329323 0.000087 0
0.329204 0.000001 0
0.329194 -0.000093 0
0.329299 -0.000194 0
0.329529 -0.000305 0
0.329896 -0.000428 0
0.330413 -0.000565 0
0.331096 -0.000718 0
0.331963 -0.000888 0
0.333035 -0.001080 0
0.334335 -0.001296 0
0.335893 -0.001540 0
0.337741 -0.001818 0
0.339918 -0.002135 0
0.342470 -0.002500 0
0.345449 -0.002920 0
0.348921 -0.003406 0
0.352961 -0.003974 0
0.357661 -0.004639 0
0.363130 -0.005424 0
0.369502 -0.006357 0
0.376939 -0.007473 0
0.385639 -0.008820 0
0.395852 -0.010463 0
0.407886 -0.012488 0
0.422137 -0.015016 0
0.439111 -0.018221 0
0.459467 -0.022358 0
0.484083 -0.027811 0
0.514137 -0.035186 0
0.551243 -0.045476 0
0.597622 -0.060412 0
0.656336 -0.083034 0
0.731255 -0.120119 0
0.825824 -0.180160 0
0.939315 -0.308096 0
0.994799 -0.399363 0
0.994799 -0.199681 0
1.000000 0.000138 0
0.999864 0.000419 0
0.999587 0.000715 0
0.999160 0.001037 0
0.998568 0.001398 0
0.997790 0.001814 0
0.996794 0.002306 0
0.995543 0.002901 0
0.993983 0.003635 0
0.992045 0.004560 0
0.989634 0.005754 0
0.986627 0.007333 0
0.982854 0.009483 0
0.978089 0.012517 0
0.972036 0.016990 0
0.964382 0.023874 0
0.954906 0.035310 0
0.945019 0.053755 0
0.937269 0.088384 0
0.965708 0.121150 0
0.987884 0.127636 0
0.990072 0.116924 0
0.975767 0.100560 0
0.951738 0.084527 0
0.923220 0.070783 0
0.893431 0.059534 0
0.864152 0.050449 0
0.836295 0.043114 0
0.810270 0.037161 0
0.786205 0.032298 0
0.764077 0.028292 0
0.743783 0.024965 0
0.725183 0.022180 0
0.708127 0.019831 0
0.692466 0.017833 0
0.678059 0.016124 0
0.664779 0.014651 0
0.652508 0.013375 0
0.641143 0.012262 0
0.630589 0.011287 0
0.620767 0.010429 0
0.611602 0.009670 0
0.603031 0.008996 0
0.594996 0.008394 0
0.587448 0.007856 0
0.580341 0.007372 0
0.573636 0.006936 0
0.567297 0.006541 0
0.561294 0.006183 0
0.555597 0.005856 0
0.550182 0.005559 0
0.545027 0.005286 0
0.540110 0.005035 0
0.535415 0.004805 0
0.530925 0.004592 0
0.526625 0.004395 0
0.522502 0.004212 0
0.518543 0.004042 0
0.514739 0.003883 0
0.511079 0.003735 0
0.507554 0.003596 0
0.504156 0.003466 0
0.500877 0.003343 0
0.497712 0.003228 0
0.494653 0.003119 0
0.491695 0.003015 0
0.488833 0.002917 0
0.486062 0.002824 0
0.483379 0.002735 0
0.480778 0.002650 0
0.478256 0.002569 0
0.475810 0.002491 0
0.473437 0.002417 0
0.471134 0.002345 0
0.468899 0.002276 0
0.466729 0.002209 0
0.464623 0.002144 0
0.462578 0.002080 0
0.460593 0.002019 0
0.458666 0.001959 0
0.456796 0.001900 0
0.454982 0.001843 0
0.453223 0.001786 0
0.451519 0.001730 0
0.449868 0.001674 0
0.448270 0.001618 0
0.446725 0.001563 0
0.445233 0.001508 0
0.443795 0.001452 0
0.442410 0.001395 0
0.441079 0.001338 0
0.439803 0.001279 0
0.438583 0.001219 0
0.437421 0.001157 0
0.436318 0.001092 0
0.435276 0.001025 0
0.434298 0.000955 0
0.433386 0.000880 0
0.432543 0.000802 0
0.431774 0.000718 0
0.431082 0.000629 0
0.430473 0.000533 0
0.429952 0.000428 0
0.429525 0.000315 0
0.429200 0.000190 0
0.428985 0.000050 0
0.428891 -0.000103 0
0.428934 -0.000268 0
0.429123 -0.000449 0
0.429469 -0.000648 0
0.429989 -0.000868 0
0.430697 -0.001112 0
0.431615 -0.001385 0
0.432765 -0.001690 0
0.434172 -0.002033 0
0.435868 -0.002420 0
0.437888 -0.002859 0
0.440273 -0.003359 0
0.443073 -0.003931 0
0.446345 -0.004588 0
0.450156 -0.005349 0
0.454587 -0.006232 0
0.459733 -0.007263 0
0.465708 -0.008475 0
0.472649 -0.009909 0
0.480719 -0.011615 0
0.490119 -0.013662 0
0.501093 -0.016141 0
0.513939 -0.019171 0
0.529030 -0.022920 0
0.546832 -0.027619 0
0.567935 -0.033602 0
0.593088 -0.041364 0
0.623250 -0.051656 0
0.659639 -0.065659 0
0.703769 -0.085325 0
0.757354 -0.113834 0
0.821801 -0.157452 0
0.895690 -0.222639 0
0.971620 -0.338500 0
0.995545 -0.415836 0
0.995545 -0.207918 0
1.000000 0.000170 0
0.999869 0.000517 0
0.999604 0.000882 0
0.999195 0.001278 0
0.998628 0.001722 0
0.997884 0.002234 0
0.996936 0.002837 0
0.995748 0.003563 0
0.994274 0.004457 0
0.992454 0.005579 0
0.990209 0.007017 0
0.987441 0.008903 0
0.984022 0.011442 0
0.979806 0.014962 0
0.974637 0.020015 0
0.968468 0.027500 0
0.961560 0.039076 0
0.955831 0.056461 0
0.954477 0.083204 0
0.976671 0.108834 0
1.001711 0.118637 0
1.016359 0.114993 0
1.018677 0.104762 0
1.011392 0.092767 0
0.997799 0.081275 0
0.980476 0.071060 0
0.961202 0.062245 0
0.941144 0.054720 0
0.921053 0.048316 0
0.901400 0.042862 0
0.882467 0.038206 0
0.864411 0.034218 0
0.847306 0.030788 0
0.831171 0.027826 0
0.815992 0.025257 0
0.801734 0.023020 0
0.788348 0.021062 0
0.775781 0.019343 0
0.763978 0.017827 0
0.752884 0.016485 0
0.742445 0.015293 0
0.732611 0.014230 0
0.723335 0.013279 0
0.714574 0.012425 0
0.706286 0.011656 0
0.698435 0.010961 0
0.690986 0.010332 0
0.683910 0.009760 0
0.677178 0.009239 0
0.670765 0.008763 0
0.664646 0.008327 0
0.658801 0.007927 0
0.653210 0.007558 0
0.647856 0.007218 0
0.642722 0.006903 0
0.637795 0.006611 0
0.633060 0.006340 0
0.628505 0.006087 0
0.624120 0.005851 0
0.619894 0.005630 0
0.615817 0.005423 0
0.611882 0.005229 0
0.608081 0.005045 0
0.604405 0.004872 0
0.600850 0.004709 0
0.597408 0.004554 0
0.594074 0.004407 0
0.590843 0.004267 0
0.587710 0.004134 0
0.584672 0.004006 0
0.581723 0.003885 0
0.578861 0.003768 0
0.576082 0.003655 0
0.573383 0.003547 0
0.570762 0.003443 0
0.568215 0.003342 0
0.565741 0.003244 0
0.563337 0.003149 0
0.561002 0.003057 0
0.558735 0.002966 0
0.556532 0.002878 0
0.554394 0.002791 0
0.552320 0.002705 0
0.550308 0.002621 0
0.548358 0.002537 0
0.546469 0.002454 0
0.544641 0.002370 0
0.542875 0.002287 0
0.541170 0.002203 0
0.539526 0.002118 0
0.537945 0.002032 0
0.536427 0.001944 0
0.534974 0.001854 0
0.533586 0.001761 0
0.532266 0.001665 0
0.531016 0.001565 0
0.529838 0.001461 0
0.528735 0.001352 0
0.527711 0.001236 0
0.526769 0.001113 0
0.525914 0.000982 0
0.525151 0.000842 0
0.524485 0.000691 0
0.523924 0.000527 0
0.523474 0.000348 0
0.523144 0.000150 0
0.522941 -0.000068 0
0.522885 -0.000306 0
0.522987 -0.000564 0
0.523259 -0.000846 0
0.523716 -0.001158 0
0.524374 -0.001503 0
0.525255 -0.001887 0
0.526381 -0.002315 0
0.527778 -0.002795 0
0.529478 -0.003335 0
0.531516 -0.003946 0
0.533933 -0.004640 0
0.536779 -0.005432 0
0.540111 -0.006340 0
0.543996 -0.007387 0
0.548513 -0.008600 0
0.553754 -0.010011 0
0.559830 -0.011662 0
0.566872 -0.013607 0
0.575035 -0.015911 0
0.584505 -0.018660 0
0.595507 -0.021967 0
0.608309 -0.025981 0
0.623241 -0.030904 0
0.640700 -0.037012 0
0.661171 -0.044699 0
0.685246 -0.054527 0
0.713631 -0.067330 0
0.747141 -0.084366 0
0.786627 -0.107608 0
0.832711 -0.140042 0
0.885090 -0.186934 0
0.940056 -0.252522 0
0.988923 -0.356325 0
0.996223 -0.422473 0
0.996223 -0.211236 0
1.000000 0.000201 0
0.999876 0.000611 0
0.999624 0.001041 0
0.999236 0.001508 0
0.998699 0.002031 0
0.997996 0.002631 0
0.997104 0.003338 0
0.995990 0.004186 0
0.994616 0.005226 0
0.992932 0.006524 0
0.990877 0.008175 0
0.988376 0.010321 0
0.985348 0.013171 0
0.981715 0.017050 0
0.977446 0.022466 0
0.972684 0.030190 0
0.967982 0.041413 0
0.965254 0.057176 0
0.967534 0.078318 0
0.984750 0.098336 0
1.007163 0.108467 0
1.025317 0.108729 0
1.035733 0.102959 0
1.038732 0.094612 0
1.035896 0.085715 0
1.028852 0.077210 0
1.018914 0.069446 0
1.007072 0.062505 0
0.994052 0.056357 0
0.980386 0.050934 0
0.966455 0.046157 0
0.952534 0.041948 0
0.938813 0.038235 0
0.925424 0.034955 0
0.912452 0.032052 0
0.899949 0.029476 0
0.887943 0.027186 0
0.876444 0.025145 0
0.865450 0.023322 0
0.854953 0.021688 0
0.844935 0.020221 0
0.835377 0.018900 0
0.826259 0.017708 0
0.817557 0.016629 0
0.809249 0.015651 0
0.801313 0.014761 0
0.793726 0.013951 0
0.786468 0.013210 0
0.779519 0.012532 0
0.772860 0.011910 0
0.766473 0.011337 0
0.760342 0.010809 0
0.754451 0.010322 0
0.748787 0.009870 0
0.743335 0.009451 0
0.738084 0.009062 0
0.733021 0.008699 0
0.728137 0.008360 0
0.723421 0.008042 0
0.718864 0.007745 0
0.714458 0.007466 0
0.710194 0.007203 0
0.706067 0.006955 0
0.702069 0.006720 0
0.698193 0.006498 0
0.694434 0.006288 0
0.690788 0.006088 0
0.687248 0.005897 0
0.683811 0.005716 0
0.680472 0.005542 0
0.677227 0.005376 0
0.674074 0.005216 0
0.671008 0.005062 0
0.668027 0.004915 0
0.665127 0.004772 0
0.662308 0.004634 0
0.659565 0.004499 0
0.656897 0.004369 0
0.654303 0.004242 0
0.651781 0.004118 0
0.649329 0.003997 0
0.646946 0.003877 0
0.644631 0.003760 0
0.642384 0.003643 0
0.640203 0.003528 0
0.638089 0.003413 0
0.636040 0.003299 0
0.634058 0.003184 0
0.632141 0.003069 0
0.630292 0.002953 0
0.628509 0.002835 0
0.626796 0.002714 0
0.625151 0.002591 0
0.623578 0.002464 0
0.622077 0.002334 0
0.620652 0.002198 0
0.619304 0.002056 0
0.618036 0.001908 0
0.616852 0.001752 0
0.615756 0.001586 0
0.614752 0.001410 0
0.613846 0.001223 0
0.613042 0.001021 0
0.612347 0.000803 0
0.611769 0.000566 0
0.611315 0.000308 0
0.610992 0.000022 0
0.610814 -0.000291 0
0.610799 -0.000629 0
0.610958 -0.001000 0
0.611307 -0.001407 0
0.611861 -0.001856 0
0.612640 -0.002354 0
0.613667 -0.002909 0
0.614968 -0.003529 0
0.616572 -0.004225 0
0.618514 -0.005011 0
0.620834 -0.005901 0
0.623578 -0.006915 0
0.626802 -0.008074 0
0.630569 -0.009406 0
0.634952 -0.010945 0
0.640040 -0.012730 0
0.645933 -0.014811 0
0.652752 -0.017252 0
0.660638 -0.020132 0
0.669756 -0.023550 0
0.680303 -0.027638 0
0.692511 -0.032567 0