# vtk DataFile Version 2.0
generated by CFD-lab course output (written by Tobias Neckel) 
ASCII

DATASET STRUCTURED_GRID
DIMENSIONS  142 42 1 
POINTS 5964 float

0.000000 0.250000 0
0.024648 0.250000 0
0.049296 0.250000 0
0.073944 0.250000 0
0.098592 0.250000 0
0.123239 0.250000 0
0.147887 0.250000 0
0.172535 0.250000 0
0.197183 0.250000 0
0.221831 0.250000 0
0.246479 0.250000 0
0.271127 0.250000 0
0.295775 0.250000 0
0.320423 0.250000 0
0.345070 0.250000 0
0.369718 0.250000 0
0.394366 0.250000 0
0.419014 0.250000 0
0.443662 0.250000 0
0.468310 0.250000 0
0.492958 0.250000 0
0.517606 0.250000 0
0.542254 0.250000 0
0.566901 0.250000 0
0.591549 0.250000 0
0.616197 0.250000 0
0.640845 0.250000 0
0.665493 0.250000 0
0.690141 0.250000 0
0.714789 0.250000 0
0.739437 0.250000 0
0.764085 0.250000 0
0.788732 0.250000 0
0.813380 0.250000 0
0.838028 0.250000 0
0.862676 0.250000 0
0.887324 0.250000 0
0.911972 0.250000 0
0.936620 0.250000 0
0.961268 0.250000 0
0.985915 0.250000 0
1.010563 0.250000 0
1.035211 0.250000 0
1.059859 0.250000 0
1.084507 0.250000 0
1.109155 0.250000 0
1.133803 0.250000 0
1.158451 0.250000 0
1.183099 0.250000 0
1.207746 0.250000 0
1.232394 0.250000 0
1.257042 0.250000 0
1.281690 0.250000 0
1.306338 0.250000 0
1.330986 0.250000 0
1.355634 0.250000 0
1.380282 0.250000 0
1.404930 0.250000 0
1.429577 0.250000 0
1.454225 0.250000 0
1.478873 0.250000 0
1.503521 0.250000 0
1.528169 0.250000 0
1.552817 0.250000 0
1.577465 0.250000 0
1.602113 0.250000 0
1.626761 0.250000 0
1.651408 0.250000 0
1.676056 0.250000 0
1.700704 0.250000 0
1.725352 0.250000 0
1.750000 0.250000 0
1.774648 0.250000 0
1.799296 0.250000 0
1.823944 0.250000 0
1.848592 0.250000 0
1.873239 0.250000 0
1.897887 0.250000 0
1.922535 0.250000 0
1.947183 0.250000 0
1.971831 0.250000 0
1.996479 0.250000 0
2.021127 0.250000 0
2.045775 0.250000 0
2.070423 0.250000 0
2.095070 0.250000 0
2.119718 0.250000 0
2.144366 0.250000 0
2.169014 0.250000 0
2.193662 0.250000 0
2.218310 0.250000 0
2.242958 0.250000 0
2.267606 0.250000 0
2.292254 0.250000 0
2.316901 0.250000 0
2.341549 0.250000 0
2.366197 0.250000 0
2.390845 0.250000 0
2.415493 0.250000 0
2.440141 0.250000 0
2.464789 0.250000 0
2.489437 0.250000 0
2.514085 0.250000 0
2.538732 0.250000 0
2.563380 0.250000 0
2.588028 0.250000 0
2.612676 0.250000 0
2.637324 0.250000 0
2.661972 0.250000 0
2.686620 0.250000 0
2.711268 0.250000 0
2.735915 0.250000 0
2.760563 0.250000 0
2.785211 0.250000 0
2.809859 0.250000 0
2.834507 0.250000 0
2.859155 0.250000 0
2.883803 0.250000 0
2.908451 0.250000 0
2.933099 0.250000 0
2.957746 0.250000 0
2.982394 0.250000 0
3.007042 0.250000 0
3.031690 0.250000 0
3.056338 0.250000 0
3.080986 0.250000 0
3.105634 0.250000 0
3.130282 0.250000 0
3.154930 0.250000 0
3.179577 0.250000 0
3.204225 0.250000 0
3.228873 0.250000 0
3.253521 0.250000 0
3.278169 0.250000 0
3.302817 0.250000 0
3.327465 0.250000 0
3.352113 0.250000 0
3.376761 0.250000 0
3.401408 0.250000 0
3.426056 0.250000 0
3.450704 0.250000 0
3.475352 0.250000 0
0.000000 0.261905 0
0.024648 0.261905 0
0.049296 0.261905 0
0.073944 0.261905 0
0.098592 0.261905 0
0.123239 0.261905 0
0.147887 0.261905 0
0.172535 0.261905 0
0.197183 0.261905 0
0.221831 0.261905 0
0.246479 0.261905 0
0.271127 0.261905 0
0.295775 0.261905 0
0.320423 0.261905 0
0.345070 0.261905 0
0.369718 0.261905 0
0.394366 0.261905 0
0.419014 0.261905 0
0.443662 0.261905 0
0.468310 0.261905 0
0.492958 0.261905 0
0.517606 0.261905 0
0.542254 0.261905 0
0.566901 0.261905 0
0.591549 0.261905 0
0.616197 0.261905 0
0.640845 0.261905 0
0.665493 0.261905 0
0.690141 0.261905 0
0.714789 0.261905 0
0.739437 0.261905 0
0.764085 0.261905 0
0.788732 0.261905 0
0.813380 0.261905 0
0.838028 0.261905 0
0.862676 0.261905 0
0.887324 0.261905 0
0.911972 0.261905 0
0.936620 0.261905 0
0.961268 0.261905 0
0.985915 0.261905 0
1.010563 0.261905 0
1.035211 0.261905 0
1.059859 0.261905 0
1.084507 0.261905 0
1.109155 0.261905 0
1.133803 0.261905 0
1.158451 0.261905 0
1.183099 0.261905 0
1.207746 0.261905 0
1.232394 0.261905 0
1.257042 0.261905 0
1.281690 0.261905 0
1.306338 0.261905 0
1.330986 0.261905 0
1.355634 0.261905 0
1.380282 0.261905 0
1.404930 0.261905 0
1.429577 0.261905 0
1.454225 0.261905 0
1.478873 0.261905 0
1.503521 0.261905 0
1.528169 0.261905 0
1.552817 0.261905 0
1.577465 0.261905 0
1.602113 0.261905 0
1.626761 0.261905 0
1.651408 0.261905 0
1.676056 0.261905 0
1.700704 0.261905 0
1.725352 0.261905 0
1.750000 0.261905 0
1.774648 0.261905 0
1.799296 0.261905 0
1.823944 0.261905 0
1.848592 0.261905 0
1.873239 0.261905 0
1.897887 0.261905 0
1.922535 0.261905 0
1.947183 0.261905 0
1.971831 0.261905 0
1.996479 0.261905 0
2.021127 0.261905 0
2.045775 0.261905 0
2.070423 0.261905 0
2.095070 0.261905 0
2.119718 0.261905 0
2.144366 0.261905 0
2.169014 0.261905 0
2.193662 0.261905 0
2.218310 0.261905 0
2.242958 0.261905 0
2.267606 0.261905 0
2.292254 0.261905 0
2.316901 0.261905 0
2.341549 0.261905 0
2.366197 0.261905 0
2.390845 0.261905 0
2.415493 0.261905 0
2.440141 0.261905 0
2.464789 0.261905 0
2.489437 0.261905 0
2.514085 0.261905 0
2.538732 0.261905 0
2.563380 0.261905 0
2.588028 0.261905 0
2.612676 0.261905 0
2.637324 0.261905 0
2.661972 0.261905 0
2.686620 0.261905 0
2.711268 0.261905 0
2.735915 0.261905 0
2.760563 0.261905 0
2.785211 0.261905 0
2.809859 0.261905 0
2.834507 0.261905 0
2.859155 0.261905 0
2.883803 0.261905 0
2.908451 0.261905 0
2.933099 0.261905 0
2.957746 0.261905 0
2.982394 0.261905 0
3.007042 0.261905 0
3.031690 0.261905 0
3.056338 0.261905 0
3.080986 0.261905 0
3.105634 0.261905 0
3.130282 0.261905 0
3.154930 0.261905 0
3.179577 0.261905 0
3.204225 0.261905 0
3.228873 0.261905 0
3.253521 0.261905 0
3.278169 0.261905 0
3.302817 0.261905 0
3.327465 0.261905 0
3.352113 0.261905 0
3.376761 0.261905 0
3.401408 0.261905 0
3.426056 0.261905 0
3.450704 0.261905 0
3.475352 0.261905 0
0.000000 0.273810 0
0.024648 0.273810 0
0.049296 0.273810 0
0.073944 0.273810 0
0.098592 0.273810 0
0.123239 0.273810 0
0.147887 0.273810 0
0.172535 0.273810 0
0.197183 0.273810 0
0.221831 0.273810 0
0.246479 0.273810 0
0.271127 0.273810 0
0.295775 0.273810 0
0.320423 0.273810 0
0.345070 0.273810 0
0.369718 0.273810 0
0.394366 0.273810 0
0.419014 0.273810 0
0.443662 0.273810 0
0.468310 0.273810 0
0.492958 0.273810 0
0.517606 0.273810 0
0.542254 0.273810 0
0.566901 0.273810 0
0.591549 0.273810 0
0.616197 0.273810 0
0.640845 0.273810 0
0.665493 0.273810 0
0.690141 0.273810 0
0.714789 0.273810 0
0.739437 0.273810 0
0.764085 0.273810 0
0.788732 0.273810 0
0.813380 0.273810 0
0.838028 0.273810 0
0.862676 0.273810 0
0.887324 0.273810 0
0.911972 0.273810 0
0.936620 0.273810 0
0.961268 0.273810 0
0.985915 0.273810 0
1.010563 0.273810 0
1.035211 0.273810 0
1.059859 0.273810 0
1.084507 0.273810 0
1.109155 0.273810 0
1.133803 0.273810 0
1.158451 0.273810 0
1.183099 0.273810 0
1.207746 0.273810 0
1.232394 0.273810 0
1.257042 0.273810 0
1.281690 0.273810 0
1.306338 0.273810 0
1.330986 0.273810 0
1.355634 0.273810 0
1.380282 0.273810 0
1.404930 0.273810 0
1.429577 0.273810 0
1.454225 0.273810 0
1.478873 0.273810 0
1.503521 0.273810 0
1.528169 0.273810 0
1.552817 0.273810 0
1.577465 0.273810 0
1.602113 0.273810 0
1.626761 0.273810 0
1.651408 0.273810 0
1.676056 0.273810 0
1.700704 0.273810 0
1.725352 0.273810 0
1.750000 0.273810 0
1.774648 0.273810 0
1.799296 0.273810 0
1.823944 0.273810 0
1.848592 0.273810 0
1.873239 0.273810 0
1.897887 0.273810 0
1.922535 0.273810 0
1.947183 0.273810 0
1.971831 0.273810 0
1.996479 0.273810 0
2.021127 0.273810 0
2.045775 0.273810 0
2.070423 0.273810 0
2.095070 0.273810 0
2.119718 0.273810 0
2.144366 0.273810 0
2.169014 0.273810 0
2.193662 0.273810 0
2.218310 0.273810 0
2.242958 0.273810 0
2.267606 0.273810 0
2.292254 0.273810 0
2.316901 0.273810 0
2.341549 0.273810 0
2.366197 0.273810 0
2.390845 0.273810 0
2.415493 0.273810 0
2.440141 0.273810 0
2.464789 0.273810 0
2.489437 0.273810 0
2.514085 0.273810 0
2.538732 0.273810 0
2.563380 0.273810 0
2.588028 0.273810 0
2.612676 0.273810 0
2.637324 0.273810 0
2.661972 0.273810 0
2.686620 0.273810 0
2.711268 0.273810 0
2.735915 0.273810 0
2.760563 0.273810 0
2.785211 0.273810 0
2.809859 0.273810 0
2.834507 0.273810 0
2.859155 0.273810 0
2.883803 0.273810 0
2.908451 0.273810 0
2.933099 0.273810 0
2.957746 0.273810 0
2.982394 0.273810 0
3.007042 0.273810 0
3.031690 0.273810 0
3.056338 0.273810 0
3.080986 0.273810 0
3.105634 0.273810 0
3.130282 0.273810 0
3.154930 0.273810 0
3.179577 0.273810 0
3.204225 0.273810 0
3.228873 0.273810 0
3.253521 0.273810 0
3.278169 0.273810 0
3.302817 0.273810 0
3.327465 0.273810 0
3.352113 0.273810 0
3.376761 0.273810 0
3.401408 0.273810 0
3.426056 0.273810 0
3.450704 0.273810 0
3.475352 0.273810 0
0.000000 0.285714 0
0.024648 0.285714 0
0.049296 0.285714 0
0.073944 0.285714 0
0.098592 0.285714 0
0.123239 0.285714 0
0.147887 0.285714 0
0.172535 0.285714 0
0.197183 0.285714 0
0.221831 0.285714 0
0.246479 0.285714 0
0.271127 0.285714 0
0.295775 0.285714 0
0.320423 0.285714 0
0.345070 0.285714 0
0.369718 0.285714 0
0.394366 0.285714 0
0.419014 0.285714 0
0.443662 0.285714 0
0.468310 0.285714 0
0.492958 0.285714 0
0.517606 0.285714 0
0.542254 0.285714 0
0.566901 0.285714 0
0.591549 0.285714 0
0.616197 0.285714 0
0.640845 0.285714 0
0.665493 0.285714 0
0.690141 0.285714 0
0.714789 0.285714 0
0.739437 0.285714 0
0.764085 0.285714 0
0.788732 0.285714 0
0.813380 0.285714 0
0.838028 0.285714 0
0.862676 0.285714 0
0.887324 0.285714 0
0.911972 0.285714 0
0.936620 0.285714 0
0.961268 0.285714 0
0.985915 0.285714 0
1.010563 0.285714 0
1.035211 0.285714 0
1.059859 0.285714 0
1.084507 0.285714 0
1.109155 0.285714 0
1.133803 0.285714 0
1.158451 0.285714 0
1.183099 0.285714 0
1.207746 0.285714 0
1.232394 0.285714 0
1.257042 0.285714 0
1.281690 0.285714 0
1.306338 0.285714 0
1.330986 0.285714 0
1.355634 0.285714 0
1.380282 0.285714 0
1.404930 0.285714 0
1.429577 0.285714 0
1.454225 0.285714 0
1.478873 0.285714 0
1.503521 0.285714 0
1.528169 0.285714 0
1.552817 0.285714 0
1.577465 0.285714 0
[...]
POINT_DATA 5964 

VECTORS velocity float
1.000000 0.000000 0
0.999854 0.000000 0
0.999557 0.000000 0
0.999098 0.000000 0
0.998459 0.000000 0
0.997617 0.000000 0
0.996535 0.000000 0
0.995166 0.000000 0
0.993445 0.000000 0
0.991283 0.000000 0
0.988553 0.000000 0
0.985074 0.000000 0
0.980577 0.000000 0
0.974634 0.000000 0
0.966541 0.000000 0
0.954964 0.000000 0
0.937421 0.000000 0
0.905807 0.000000 0
0.847752 0.000000 0
-0.000000 0.000000 0
-0.000000 0.000000 0
-0.000000 0.000000 0
-0.000000 0.000000 0
-0.000000 0.000000 0
-0.000000 0.000000 0
-0.000000 0.000000 0
-0.000000 0.000000 0
-0.000000 0.000000 0
-0.000000 0.000000 0
-0.000000 0.000000 0
-0.000000 0.000000 0
-0.000000 0.000000 0
-0.000000 0.000000 0
-0.000000 0.000000 0
-0.000000 0.000000 0
-0.000000 0.000000 0
-0.000000 0.000000 0
-0.000000 0.000000 0
-0.000000 0.000000 0
-0.000000 0.000000 0
-0.000000 0.000000 0
-0.000000 0.000000 0
-0.000000 0.000000 0
-0.000000 0.000000 0
-0.000000 0.000000 0
-0.000000 0.000000 0
-0.000000 0.000000 0
-0.000000 0.000000 0
-0.000001 0.000000 0
-0.000001 0.000000 0
-0.000001 0.000000 0
-0.000001 0.000000 0
-0.000001 0.000000 0
-0.000001 0.000000 0
-0.000001 0.000000 0
-0.000001 0.000000 0
-0.000001 0.000000 0
-0.000001 0.000000 0
-0.000002 0.000000 0
-0.000002 0.000000 0
-0.000002 0.000000 0
-0.000002 0.000000 0
-0.000002 0.000000 0
-0.000002 0.000000 0
-0.000003 0.000000 0
-0.000003 0.000000 0
-0.000003 0.000000 0
-0.000003 0.000000 0
-0.000003 0.000000 0
-0.000003 0.000000 0
-0.000003 0.000000 0
-0.000003 0.000000 0
-0.000003 0.000000 0
-0.000003 0.000000 0
-0.000003 0.000000 0
-0.000003 0.000000 0
-0.000003 0.000000 0
-0.000003 0.000000 0
-0.000003 0.000000 0
-0.000003 0.000000 0
-0.000003 0.000000 0
-0.000003 0.000000 0
-0.000003 0.000000 0
-0.000003 0.000000 0
-0.000003 0.000000 0
-0.000003 0.000000 0
-0.000003 0.000000 0
-0.000003 0.000000 0
-0.000003 0.000000 0
-0.000003 0.000000 0
-0.000003 0.000000 0
-0.000003 0.000000 0
-0.000003 0.000000 0
-0.000003 0.000000 0
-0.000003 0.000000 0
-0.000003 0.000000 0
-0.000003 0.000000 0
-0.000003 0.000000 0
-0.000003 0.000000 0
-0.000003 0.000000 0
-0.000003 0.000000 0
-0.000003 0.000000 0
-0.000003 0.000000 0
-0.000003 0.000000 0
-0.000003 0.000000 0
-0.000003 0.000000 0
-0.000003 0.000000 0
-0.000003 0.000000 0
-0.000003 0.000000 0
-0.000003 0.000000 0
-0.000003 0.000000 0
-0.000003 0.000000 0
-0.000003 0.000000 0
-0.000003 0.000000 0
-0.000003 0.000000 0
-0.000003 0.000000 0
-0.000003 0.000000 0
-0.000003 0.000000 0
-0.000003 0.000000 0
-0.000003 0.000000 0
-0.000003 0.000000 0
-0.000003 0.000000 0
-0.000003 0.000000 0
-0.000003 0.000000 0
-0.000002 0.000000 0
-0.000002 0.000000 0
-0.000002 0.000000 0
-0.000002 0.000000 0
-0.000002 0.000000 0
-0.000002 0.000000 0
-0.000002 0.000000 0
-0.000002 0.000000 0
-0.000002 0.000000 0
-0.000002 0.000000 0
-0.000002 0.000000 0
-0.000001 0.000000 0
-0.000001 0.000000 0
-0.000001 0.000000 0
-0.000000 0.000000 0
0.000000 0.000000 0
-0.000000 0.000000 0
0.496812 0.000000 0
1.000000 0.000035 0
0.999855 0.000107 0
0.999559 0.000183 0
0.999102 0.000265 0
0.998466 0.000358 0
0.997628 0.000465 0
0.996552 0.000592 0
0.995190 0.000746 0
0.993480 0.000938 0
0.991332 0.001181 0
0.988624 0.001499 0
0.985177 0.001926 0
0.980729 0.002521 0
0.974870 0.003389 0
0.966928 0.004750 0
0.955672 0.007032 0
0.938863 0.011871 0
0.910227 0.021655 0
0.860932 0.078850 0
0.714954 0.110956 0
0.576581 0.072745 0
0.473104 0.041073 0
0.401165 0.022636 0
0.351277 0.013305 0
0.315632 0.008675 0
0.289148 0.006196 0
0.268732 0.004711 0
0.252500 0.003732 0
0.239265 0.003042 0
0.228253 0.002533 0
0.218938 0.002146 0
0.210949 0.001843 0
0.204017 0.001602 0
0.197945 0.001406 0
0.192580 0.001244 0
0.187806 0.001109 0
0.183530 0.000995 0
0.179679 0.000898 0
0.176194 0.000814 0
0.173026 0.000741 0
0.170136 0.000677 0
0.167492 0.000621 0
0.165065 0.000571 0
0.162833 0.000526 0
0.160777 0.000486 0
0.158880 0.000449 0
0.157128 0.000416 0
0.155511 0.000385 0
0.154018 0.000357 0
0.152641 0.000330 0
0.151374 0.000305 0
0.150211 0.000281 0
0.149149 0.000257 0
0.148186 0.000234 0
0.147319 0.000212 0
0.146548 0.000189 0
0.145873 0.000166 0
0.145294 0.000142 0
0.144811 0.000119 0
0.144424 0.000095 0
0.144132 0.000071 0
0.143931 0.000047 0
0.143818 0.000025 0
0.143784 0.000005 0
0.143819 -0.000012 0
0.143910 -0.000026 0
0.144047 -0.000038 0
0.144218 -0.000047 0
0.144412 -0.000053 0
0.144621 -0.000056 0
0.144836 -0.000057 0
0.145049 -0.000057 0
0.145256 -0.000055 0
0.145451 -0.000052 0
0.145631 -0.000048 0
0.145795 -0.000044 0
0.145941 -0.000039 0
0.146069 -0.000034 0
0.146179 -0.000029 0
0.146273 -0.000025 0
0.146353 -0.000021 0
0.146419 -0.000018 0
0.146473 -0.000015 0
0.146517 -0.000012 0
0.146554 -0.000010 0
0.146584 -0.000008 0
0.146610 -0.000007 0
0.146632 -0.000006 0
0.146653 -0.000006 0
0.146673 -0.000006 0
0.146694 -0.000006 0
0.146716 -0.000007 0
0.146741 -0.000008 0
0.146770 -0.000009 0
0.146803 -0.000010 0
0.146841 -0.000012 0
0.146886 -0.000014 0
0.146939 -0.000016 0
0.147000 -0.000019 0
0.147070 -0.000022 0
0.147153 -0.000025 0
0.147248 -0.000029 0
0.147358 -0.000034 0
0.147485 -0.000039 0
0.147632 -0.000045 0
0.147801 -0.000052 0
0.147996 -0.000060 0
0.148220 -0.000069 0
0.148479 -0.000080 0
0.148776 -0.000092 0
0.149120 -0.000106 0
0.149515 -0.000122 0
0.149970 -0.000141 0
0.150496 -0.000162 0
0.151101 -0.000187 0
0.151800 -0.000216 0
0.152608 -0.000250 0
0.153542 -0.000289 0
0.154622 -0.000335 0
0.155875 -0.000389 0
0.157329 -0.000453 0
0.159019 -0.000528 0
0.160989 -0.000617 0
0.163290 -0.000724 0
0.165988 -0.000852 0
0.169161 -0.001008 0
0.172910 -0.001199 0
0.177364 -0.001436 0
0.182690 -0.001734 0
0.189108 -0.002114 0
0.196918 -0.002612 0
0.206535 -0.003277 0
0.218558 -0.004196 0
0.233872 -0.005515 0
0.253856 -0.007505 0
0.280765 -0.010712 0
0.318564 -0.016310 0
0.374539 -0.027778 0
0.465588 -0.050206 0
0.618201 -0.167315 0
0.993944 -0.269866 0
0.993944 -0.134933 0
1.000000 0.000070 0
0.999856 0.000213 0
0.999564 0.000364 0
0.999114 0.000528 0
0.998487 0.000712 0
0.997661 0.000925 0
0.996602 0.001177 0
0.995263 0.001484 0
0.993584 0.001863 0
0.991480 0.002346 0
0.988834 0.002973 0
0.985481 0.003813 0
0.981178 0.004978 0
0.975560 0.006666 0
0.968049 0.009272 0
0.957679 0.013555 0
0.942823 0.021950 0
0.920741 0.037640 0
0.888427 0.094315 0
0.891073 0.137340 0
0.842245 0.116812 0
0.771738 0.084725 0
0.701369 0.058842 0
0.640097 0.041312 0
0.589470 0.030008 0
0.548175 0.022652 0
0.514338 0.017701 0
0.486302 0.014233 0
0.462778 0.011711 0
0.442796 0.009818 0
0.425632 0.008358 0
0.410740 0.007206 0
0.397702 0.006281 0
0.386197 0.005524 0
0.375974 0.004897 0
0.366833 0.004371 0
0.358615 0.003925 0
0.351191 0.003543 0
0.344456 0.003213 0
0.338322 0.002926 0
0.332718 0.002673 0
0.327583 0.002449 0
0.322868 0.002250 0
0.318529 0.002071 0
0.314532 0.001909 0
0.310845 0.001762 0
0.307443 0.001627 0
0.304305 0.001502 0
0.301413 0.001386 0
0.298751 0.001277 0
0.296307 0.001174 0
0.294072 0.001074 0
0.292039 0.000978 0
0.290201 0.000884 0
0.288556 0.000791 0
0.287100 0.000698 0
0.285833 0.000606 0
0.284752 0.000513 0
0.283857 0.000420 0
0.283142 0.000328 0
0.282604 0.000238 0
0.282235 0.000152 0
0.282025 0.000071 0
0.281960 -0.000001 0
0.282020 -0.000061 0
0.282182 -0.000110 0
0.282424 -0.000148 0
0.282726 -0.000176 0
0.283069 -0.000195 0
0.283437 -0.000205 0
0.283814 -0.000207 0
0.284188 -0.000203 0
0.284549 -0.000194 0
0.284889 -0.000181 0
0.285202 -0.000166 0
0.285486 -0.000150 0
0.285739 -0.000132 0
0.285960 -0.000115 0
0.286150 -0.000099 0
0.286311 -0.000084 0
0.286447 -0.000070 0
0.286559 -0.000058 0
0.286652 -0.000048 0
0.286727 -0.000039 0
0.286788 -0.000032 0
0.286839 -0.000027 0
0.286882 -0.000023 0
0.286919 -0.000021 0
0.286954 -0.000020 0
0.286987 -0.000020 0
0.287021 -0.000021 0
0.287058 -0.000023 0
0.287100 -0.000026 0
0.287147 -0.000030 0
0.287202 -0.000035 0
0.287265 -0.000040 0
0.287340 -0.000047 0
0.287426 -0.000055 0
0.287527 -0.000064 0
0.287644 -0.000074 0
0.287780 -0.000086 0
0.287937 -0.000099 0
0.288119 -0.000115 0
0.288329 -0.000132 0
0.288571 -0.000153 0
0.288851 -0.000176 0
0.289173 -0.000203 0
0.289544 -0.000233 0
0.289971 -0.000269 0
0.290463 -0.000310 0
0.291029 -0.000357 0
0.291682 -0.000411 0
0.292434 -0.000474 0
0.293301 -0.000546 0
0.294300 -0.000630 0
0.295453 -0.000728 0
0.296784 -0.000841 0
0.298322 -0.000973 0
0.300100 -0.001127 0
0.302158 -0.001307 0
0.304545 -0.001519 0
0.307315 -0.001768 0
0.310537 -0.002063 0
0.314294 -0.002414 0
0.318685 -0.002835 0
0.323833 -0.003344 0
0.329893 -0.003962 0
0.337057 -0.004723 0
0.345575 -0.005672 0
0.355767 -0.006872 0
0.368063 -0.008417 0
0.383042 -0.010452 0
0.401509 -0.013203 0
0.424620 -0.017049 0
0.454077 -0.022649 0
0.492484 -0.031253 0
0.543999 -0.045292 0
0.615233 -0.071012 0
0.717555 -0.117687 0
0.866123 -0.255192 0
0.994691 -0.362962 0
0.994691 -0.181481 0
1.000000 0.000105 0
0.999860 0.000317 0
0.999574 0.000541 0
0.999134 0.000785 0
0.998522 0.001059 0
0.997716 0.001376 0
0.996684 0.001750 0
0.995383 0.002204 0
0.993755 0.002765 0
0.991722 0.003476 0
0.989178 0.004397 0
0.985974 0.005624 0
0.981903 0.007313 0
0.976661 0.009731 0
0.969806 0.013387 0
0.960703 0.019217 0
0.948468 0.029712 0
0.933074 0.047928 0
0.915142 0.093179 0
0.945402 0.133262 0
0.948720 0.130383 0
0.923061 0.109115 0
0.882136 0.086218 0
0.836783 0.067352 0
0.792777 0.053072 0
0.752496 0.042484 0
0.716572 0.034596 0
0.684872 0.028635 0
0.656980 0.024054 0
0.632411 0.020474 0
0.610701 0.017629 0
0.591438 0.015334 0
0.574269 0.013456 0
0.558897 0.011900 0
0.545074 0.010597 0
0.532590 0.009493 0
0.521273 0.008550 0
0.510978 0.007737 0
0.501581 0.007030 0
0.492981 0.006411 0
0.485088 0.005864 0
0.477830 0.005379 0
0.471144 0.004944 0
0.464975 0.004553 0
0.459279 0.004197 0
0.454015 0.003873 0
0.449152 0.003575 0
0.444660 0.003298 0
0.440517 0.003039 0
0.436701 0.002796 0
0.433198 0.002564 0
0.429994 0.002342 0
0.427079 0.002127 0
0.424444 0.001917 0
0.422085 0.001709 0
0.419995 0.001504 0
0.418173 0.001300 0
0.416613 0.001097 0
0.415310 0.000896 0
0.414259 0.000699 0
0.413450 0.000509 0
0.412871 0.000327 0
0.412506 0.000158 0
0.412337 0.000007 0
0.412345 -0.000119 0
0.412497 -0.000221 0
0.412763 -0.000301 0
0.413117 -0.000358 0
0.413533 -0.000396 0
0.413988 -0.000416 0
0.414461 -0.000420 0
0.414937 -0.000412 0
0.415400 -0.000393 0
0.415840 -0.000368 0
0.416249 -0.000337 0
0.416621 -0.000303 0
0.416954 -0.000267 0
0.417248 -0.000233 0
0.417502 -0.000199 0
0.417718 -0.000169 0
0.417901 -0.000141 0
0.418053 -0.000116 0
0.418178 -0.000096 0
0.418281 -0.000078 0
0.418364 -0.000064 0
0.418434 -0.000054 0
0.418491 -0.000046 0
0.418541 -0.000041 0
0.418587 -0.000039 0
0.418630 -0.000039 0
0.418674 -0.000041 0
0.418720 -0.000045 0
0.418772 -0.000051 0
0.418830 -0.000058 0
0.418898 -0.000067 0
0.418976 -0.000079 0
0.419067 -0.000092 0
0.419173 -0.000107 0
0.419296 -0.000124 0
0.419439 -0.000144 0
0.419605 -0.000167 0
0.419797 -0.000193 0
0.420019 -0.000223 0
0.420275 -0.000258 0
0.420571 -0.000297 0
0.420912 -0.000343 0
0.421305 -0.000395 0
0.421757 -0.000455 0
0.422279 -0.000524 0
0.422879 -0.000603 0
0.423570 -0.000695 0
0.424366 -0.000800 0
0.425283 -0.000922 0
0.426340 -0.001063 0
0.427557 -0.001227 0
0.428961 -0.001416 0
0.430581 -0.001635 0
0.432450 -0.001891 0
0.434610 -0.002188 0
0.437108 -0.002536 0
0.439998 -0.002943 0
0.443349 -0.003422 0
0.447239 -0.003988 0
0.451763 -0.004659 0
0.457035 -0.005460 0
0.463196 -0.006422 0
0.470418 -0.007586 0
0.478915 -0.009010 0
0.488955 -0.010770 0
0.500883 -0.012976 0
0.515143 -0.015785 0
0.532321 -0.019432 0
0.553202 -0.024278 0
0.578860 -0.030905 0
0.610785 -0.040283 0
0.651072 -0.054144 0
0.702649 -0.075597 0
0.769277 -0.111605 0
0.854152 -0.171384 0
0.956574 -0.301169 0
0.995551 -0.394059 0
0.995551 -0.197029 0
1.000000 0.000138 0
0.999864 0.000419 0
0.999587 0.000714 0
0.999161 0.001036 0
0.998569 0.001397 0
0.997791 0.001813 0
0.996797 0.002304 0
0.995547 0.002898 0
0.993988 0.003632 0
0.992052 0.004556 0
0.989643 0.005749 0
0.986639 0.007327 0
0.982869 0.009476 0
0.978108 0.012508 0
0.972060 0.016980 0
0.964411 0.023862 0
0.954942 0.035294 0
0.945063 0.053736 0
0.937323 0.088361 0
0.965776 0.121122 0
0.987972 0.127603 0
0.990184 0.116884 0
0.975910 0.100513 0
0.951919 0.084472 0
0.923447 0.070718 0
0.893711 0.059459 0
0.864496 0.050363 0
0.836713 0.043015 0
0.810773 0.037049 0
0.786806 0.032170 0
0.764790 0.028148 0
0.744624 0.024803 0
0.726170 0.021997 0
0.709279 0.019625 0
0.693805 0.017603 0
0.679610 0.015867 0
0.666568 0.014364 0
0.654564 0.013055 0
0.643498 0.011906 0
0.633281 0.010892 0
0.623833 0.009990 0
0.615087 0.009184 0
0.606981 0.008459 0
0.599463 0.007802 0
0.592488 0.007203 0
0.586016 0.006653 0
0.580013 0.006146 0
0.574450 0.005673 0
0.569302 0.005230 0
0.564549 0.004812 0
0.560171 0.004413 0
0.556156 0.004030 0
0.552492 0.003659 0
0.549169 0.003296 0
0.546181 0.002940 0
0.543520 0.002588 0
0.541182 0.002239 0
0.539160 0.001895 0
0.537448 0.001557 0
0.536035 0.001227 0
0.534911 0.000909 0
0.534060 0.000608 0
0.533463 0.000329 0
0.533099 0.000077 0
0.532948 -0.000138 0
0.532984 -0.000312 0
0.533171 -0.000448 0
0.533477 -0.000548 0
0.533872 -0.000615 0
0.534328 -0.000653 0
0.534822 -0.000665 0
0.535331 -0.000656 0
0.535840 -0.000630 0
0.536332 -0.000591 0
0.536797 -0.000544 0
0.537228 -0.000490 0
0.537619 -0.000435 0
0.537968 -0.000380 0
0.538274 -0.000326 0
0.538539 -0.000277 0
0.538765 -0.000232 0
0.538955 -0.000192 0
0.539113 -0.000158 0
0.539243 -0.000129 0
0.539351 -0.000106 0
0.539440 -0.000088 0
0.539514 -0.000075 0
0.539578 -0.000067 0
0.539634 -0.000062 0
0.539687 -0.000062 0
0.539739 -0.000064 0
0.539792 -0.000070 0
0.539850 -0.000079 0
0.539915 -0.000090 0
0.539988 -0.000105 0
0.540073 -0.000122 0
0.540172 -0.000142 0
0.540286 -0.000165 0
0.540418 -0.000192 0
0.540572 -0.000223 0
0.540750 -0.000259 0
0.540956 -0.000299 0
0.541194 -0.000346 0
0.541469 -0.000399 0
0.541786 -0.000460 0
0.542152 -0.000530 0
0.542574 -0.000611 0
0.543059 -0.000704 0
0.543618 -0.000810 0
0.544262 -0.000933 0
0.545003 -0.001075 0
0.545857 -0.001238 0
0.546839 -0.001427 0
0.547971 -0.001645 0
0.549275 -0.001896 0
0.550777 -0.002188 0
0.552509 -0.002526 0
0.554506 -0.002919 0
0.556812 -0.003376 0
0.559474 -0.003910 0
0.562552 -0.004533 0
0.566113 -0.005265 0
0.570239 -0.006127 0
0.575026 -0.007146 0
0.580590 -0.008358 0
0.587069 -0.009807 0
0.594634 -0.011554 0
0.603491 -0.013677 0
0.613896 -0.016283 0
0.626169 -0.019521 0
0.640712 -0.023602 0
0.658038 -0.028834 0
0.678808 -0.035681 0
0.703873 -0.044861 0
0.734329 -0.057527 0
0.771535 -0.075623 0
0.817013 -0.102384 0
0.871893 -0.144186 0
0.934128 -0.208150 0
0.995520 -0.323487 0
0.996378 -0.400611 0
0.996379 -0.200304 0
1.000000 0.000170 0
0.999869 0.000517 0
0.999604 0.000881 0
0.999195 0.001277 0
0.998629 0.001721 0
0.997886 0.002232 0
0.996939 0.002834 0
0.995752 0.003560 0
0.994279 0.004453 0
0.992460 0.005574 0
0.990218 0.007011 0
0.987452 0.008896 0
0.984037 0.011433 0
0.979823 0.014951 0
0.974660 0.020002 0
0.968496 0.027485 0
0.961595 0.039057 0
0.955874 0.056437 0
0.954529 0.083175 0
0.976736 0.108799 0
1.001791 0.118594 0
1.016460 0.114941 0
1.018805 0.104699 0
1.011553 0.092691 0
0.998000 0.081186 0
0.980727 0.070957 0
0.961512 0.062126 0
0.941524 0.054583 0
0.921516 0.048159 0
0.901960 0.042683 0
0.883138 0.038003 0
0.865211 0.033987 0
0.848254 0.030527 0
0.832289 0.027532 0
0.817303 0.024927 0
0.803264 0.022649 0
0.790127 0.020647 0
0.777841 0.018879 0
0.766355 0.017310 0
0.755617 0.015909 0
0.745577 0.014652 0
0.736191 0.013518 0
0.727415 0.012490 0
0.719211 0.011552 0
0.711544 0.010692 0
0.704383 0.009898 0
0.697701 0.009161 0
0.691473 0.008471 0
0.685678 0.007822 0
0.680300 0.007206 0
0.675323 0.006618 0
0.670734 0.006051 0
0.666523 0.005502 0
0.662682 0.004965 0
0.659203 0.004438 0
0.656079 0.003918 0
0.653306 0.003406 0
0.650875 0.002901 0
0.648778 0.002406 0
0.647007 0.001925 0
0.645549 0.001463 0
0.644387 0.001026 0
0.643502 0.000622 0
0.642872 0.000256 0
0.642474 -0.000064 0
0.642294 -0.000329 0
0.642299 -0.000539 0
0.642456 -0.000696 0
0.642733 -0.000807 0
0.643100 -0.000875 0
0.643531 -0.000905 0
0.644001 -0.000904 0
0.644490 -0.000877 0
0.644979 -0.000830 0
0.645456 -0.000769 0
0.645908 -0.000700 0
0.646329 -0.000625 0
0.646712 -0.000549 0
0.647056 -0.000475 0
0.647358 -0.000405 0
0.647621 -0.000342 0
0.647847 -0.000285 0
0.648037 -0.000235 0
0.648198 -0.000193 0
0.648331 -0.000159 0
0.648443 -0.000132 0
0.648536 -0.000113 0
0.648615 -0.000099 0
0.648685 -0.000091 0
0.648748 -0.000089 0
0.648808 -0.000092 0
0.648868 -0.000099 0
0.648931 -0.000110 0
0.648999 -0.000125 0
0.649075 -0.000144 0
0.649162 -0.000167 0
0.649261 -0.000194 0
0.649376 -0.000226 0
0.649509 -0.000262 0
0.649663 -0.000304 0
0.649840 -0.000353 0
0.650046 -0.000408 0
0.650284 -0.000471 0
0.650558 -0.000544 0
0.650875 -0.000627 0
0.651239 -0.000723 0
0.651660 -0.000833 0
0.652144 -0.000959 0
0.652701 -0.001105 0
0.653343 -0.001272 0
0.654081 -0.001465 0
0.654931 -0.001687 0
0.655910 -0.001944 0
0.657036 -0.002240 0
0.658333 -0.002582 0
0.659826 -0.002978 0
0.661547 -0.003437 0
0.663530 -0.003969 0
0.665816 -0.004588 0
0.668454 -0.005309 0
0.671498 -0.006150 0
0.675015 -0.007135 0
0.679082 -0.008293 0
0.683790 -0.009658 0
0.689246 -0.011277 0
0.695580 -0.013205 0
0.702946 -0.015518 0
0.711529 -0.018314 0
0.721554 -0.021724 0
0.733296 -0.025928 0
0.747088 -0.031178 0
0.763341 -0.037832 0
0.782555 -0.046416 0
0.805325 -0.057721 0
0.832330 -0.072963 0
0.864240 -0.094080 0
0.901411 -0.124069 0
0.943119 -0.168170 0
0.984791 -0.231095 0
1.016486 -0.331236 0
0.997126 -0.394885 0
0.997126 -0.197440 0
1.000000 0.000201 0
0.999876 0.000610 0
0.999624 0.001040 0
0.999236 0.001507 0
0.998700 0.002029 0
0.997998 0.002629 0
0.997106 0.003335 0
0.995994 0.004183 0
0.994621 0.005221 0
0.992939 0.006518 0
0.990885 0.008168 0
0.988387 0.010312 0
0.985361 0.013161 0
0.981732 0.017037 0
0.977467 0.022451 0
0.972711 0.030172 0
0.968015 0.041391 0
0.965295 0.057149 0
0.967584 0.078285 0
0.984810 0.098295 0
1.007237 0.108416 0
1.025408 0.108667 0
1.035845 0.102883 0
1.038871 0.094520 0
1.036069 0.085607 0
1.029066 0.077082 0
1.019178 0.069297 0
1.007397 0.062333 0
0.994450 0.056159 0
0.980870 0.050707 0
0.967041 0.045897 0
0.953238 0.041651 0
0.939655 0.037899 0
0.926425 0.034574 0
0.913635 0.031622 0
0.901341 0.028993 0
0.889573 0.026643 0
0.878345 0.024536 0
0.867660 0.022640 0
0.857510 0.020927 0
0.847884 0.019373 0
0.838768 0.017957 0
0.830145 0.016660 0
0.821998 0.015468 0
0.814310 0.014365 0
0.807065 0.013340 0
0.800248 0.012381 0
0.793845 0.011480 0
0.787844 0.010627 0
0.782233 0.009814 0
0.777005 0.009034 0
0.772150 0.008280 0
0.767662 0.007548 0
0.763536 0.006832 0
0.759766 0.006129 0
0.756346 0.005436 0
0.753273 0.004753 0
0.750539 0.004082 0
0.748138 0.003425 0
0.746061 0.002787 0
0.744297 0.002175 0
0.742831 0.001596 0
0.741648 0.001060 0
0.740726 0.000574 0
0.740042 0.000141 0
0.739581 -0.000228 0
0.739330 -0.000526 0
0.739259 -0.000758 0
0.739336 -0.000926 0
0.739532 -0.001038 0
0.739821 -0.001100 0
0.740178 -0.001119 0
0.740580 -0.001103 0
0.741007 -0.001058 0
0.741443 -0.000992 0
0.741873 -0.000912 0
0.742287 -0.000823 0
0.742675 -0.000731 0
0.743033 -0.000638 0
0.743358 -0.000550 0
0.743646 -0.000467 0
0.743899 -0.000393 0
0.744119 -0.000327 0
0.744307 -0.000271 0
0.744467 -0.000224 0
0.744602 -0.000187 0
0.744716 -0.000159 0
0.744814 -0.000139 0
0.744898 -0.000127 0
0.744973 -0.000121 0
0.745043 -0.000122 0
0.745110 -0.000130 0
0.745177 -0.000142 0
0.745248 -0.000160 0
0.745325 -0.000183 0
0.745411 -0.000212 0
0.745508 -0.000245 0
0.745619 -0.000285 0
0.745746 -0.000331 0
0.745893 -0.000383 0
0.746063 -0.000444 0
0.746259 -0.000513 0
0.746485 -0.000593 0
0.746746 -0.000684 0
0.747047 -0.000789 0
0.747393 -0.000909 0
0.747793 -0.001048 0
0.748252 -0.001207 0
0.748782 -0.001389 0
0.749391 -0.001600 0
0.750092 -0.001842 0
0.750898 -0.002121 0
0.751826 -0.002443 0
0.752894 -0.002815 0
0.754123 -0.003244 0
0.755538 -0.003741 0
0.757166 -0.004315 0