# vtk DataFile Version 2.0
generated by CFD-lab course output (written by Tobias Neckel) 
ASCII

DATASET STRUCTURED_GRID
DIMENSIONS  142 42 1 
POINTS 5964 float

0.000000 0.250000 0
0.024648 0.250000 0
0.049296 0.250000 0
0.073944 0.250000 0
0.098592 0.250000 0
0.123239 0.250000 0
0.147887 0.250000 0
0.172535 0.250000 0
0.197183 0.250000 0
0.221831 0.250000 0
0.246479 0.250000 0
0.271127 0.250000 0
0.295775 0.250000 0
0.320423 0.250000 0
0.345070 0.250000 0
0.369718 0.250000 0
0.394366 0.250000 0
0.419014 0.250000 0
0.443662 0.250000 0
0.468310 0.250000 0
0.492958 0.250000 0
0.517606 0.250000 0
0.542254 0.250000 0
0.566901 0.250000 0
0.591549 0.250000 0
0.616197 0.250000 0
0.640845 0.250000 0
0.665493 0.250000 0
0.690141 0.250000 0
0.714789 0.250000 0
0.739437 0.250000 0
0.764085 0.250000 0
0.788732 0.250000 0
0.813380 0.250000 0
0.838028 0.250000 0
0.862676 0.250000 0
0.887324 0.250000 0
0.911972 0.250000 0
0.936620 0.250000 0
0.961268 0.250000 0
0.985915 0.250000 0
1.010563 0.250000 0
1.035211 0.250000 0
1.059859 0.250000 0
1.084507 0.250000 0
1.109155 0.250000 0
1.133803 0.250000 0
1.158451 0.250000 0
1.183099 0.250000 0
1.207746 0.250000 0
1.232394 0.250000 0
1.257042 0.250000 0
1.281690 0.250000 0
1.306338 0.250000 0
1.330986 0.250000 0
1.355634 0.250000 0
1.380282 0.250000 0
1.404930 0.250000 0
1.429577 0.250000 0
1.454225 0.250000 0
1.478873 0.250000 0
1.503521 0.250000 0
1.528169 0.250000 0
1.552817 0.250000 0
1.577465 0.250000 0
1.602113 0.250000 0
1.626761 0.250000 0
1.651408 0.250000 0
1.676056 0.250000 0
1.700704 0.250000 0
1.725352 0.250000 0
1.750000 0.250000 0
1.774648 0.250000 0
1.799296 0.250000 0
1.823944 0.250000 0
1.848592 0.250000 0
1.873239 0.250000 0
1.897887 0.250000 0
1.922535 0.250000 0
1.947183 0.250000 0
1.971831 0.250000 0
1.996479 0.250000 0
2.021127 0.250000 0
2.045775 0.250000 0
2.070423 0.250000 0
2.095070 0.250000 0
2.119718 0.250000 0
2.144366 0.250000 0
2.169014 0.250000 0
2.193662 0.250000 0
2.218310 0.250000 0
2.242958 0.250000 0
2.267606 0.250000 0
2.292254 0.250000 0
2.316901 0.250000 0
2.341549 0.250000 0
2.366197 0.250000 0
2.390845 0.250000 0
2.415493 0.250000 0
2.440141 0.250000 0
2.464789 0.250000 0
2.489437 0.250000 0
2.514085 0.250000 0
2.538732 0.250000 0
2.563380 0.250000 0
2.588028 0.250000 0
2.612676 0.250000 0
2.637324 0.250000 0
2.661972 0.250000 0
2.686620 0.250000 0
2.711268 0.250000 0
2.735915 0.250000 0
2.760563 0.250000 0
2.785211 0.250000 0
2.809859 0.250000 0
2.834507 0.250000 0
2.859155 0.250000 0
2.883803 0.250000 0
2.908451 0.250000 0
2.933099 0.250000 0
2.957746 0.250000 0
2.982394 0.250000 0
3.007042 0.250000 0
3.031690 0.250000 0
3.056338 0.250000 0
3.080986 0.250000 0
3.105634 0.250000 0
3.130282 0.250000 0
3.154930 0.250000 0
3.179577 0.250000 0
3.204225 0.250000 0
3.228873 0.250000 0
3.253521 0.250000 0
3.278169 0.250000 0
3.302817 0.250000 0
3.327465 0.250000 0
3.352113 0.250000 0
3.376761 0.250000 0
3.401408 0.250000 0
3.426056 0.250000 0
3.450704 0.250000 0
3.475352 0.250000 0
0.000000 0.261905 0
0.024648 0.261905 0
0.049296 0.261905 0
0.073944 0.261905 0
0.098592 0.261905 0
0.123239 0.261905 0
0.147887 0.261905 0
0.172535 0.261905 0
0.197183 0.261905 0
0.221831 0.261905 0
0.246479 0.261905 0
0.271127 0.261905 0
0.295775 0.261905 0
0.320423 0.261905 0
0.345070 0.261905 0
0.369718 0.261905 0
0.394366 0.261905 0
0.419014 0.261905 0
0.443662 0.261905 0
0.468310 0.261905 0
0.492958 0.261905 0
0.517606 0.261905 0
0.542254 0.261905 0
0.566901 0.261905 0
0.591549 0.261905 0
0.616197 0.261905 0
0.640845 0.261905 0
0.665493 0.261905 0
0.690141 0.261905 0
0.714789 0.261905 0
0.739437 0.261905 0
0.764085 0.261905 0
0.788732 0.261905 0
0.813380 0.261905 0
0.838028 0.261905 0
0.862676 0.261905 0
0.887324 0.261905 0
0.911972 0.261905 0
0.936620 0.261905 0
0.961268 0.261905 0
0.985915 0.261905 0
1.010563 0.261905 0
1.035211 0.261905 0
1.059859 0.261905 0
1.084507 0.261905 0
1.109155 0.261905 0
1.133803 0.261905 0
1.158451 0.261905 0
1.183099 0.261905 0
1.207746 0.261905 0
1.232394 0.261905 0
1.257042 0.261905 0
1.281690 0.261905 0
1.306338 0.261905 0
1.330986 0.261905 0
1.355634 0.261905 0
1.380282 0.261905 0
1.404930 0.261905 0
1.429577 0.261905 0
1.454225 0.261905 0
1.478873 0.261905 0
1.503521 0.261905 0
1.528169 0.261905 0
1.552817 0.261905 0
1.577465 0.261905 0
1.602113 0.261905 0
1.626761 0.261905 0
1.651408 0.261905 0
1.676056 0.261905 0
1.700704 0.261905 0
1.725352 0.261905 0
1.750000 0.261905 0
1.774648 0.261905 0
1.799296 0.261905 0
1.823944 0.261905 0
1.848592 0.261905 0
1.873239 0.261905 0
1.897887 0.261905 0
1.922535 0.261905 0
1.947183 0.261905 0
1.971831 0.261905 0
1.996479 0.261905 0
2.021127 0.261905 0
2.045775 0.261905 0
2.070423 0.261905 0
2.095070 0.261905 0
2.119718 0.261905 0
2.144366 0.261905 0
2.169014 0.261905 0
2.193662 0.261905 0
2.218310 0.261905 0
2.242958 0.261905 0
2.267606 0.261905 0
2.292254 0.261905 0
2.316901 0.261905 0
2.341549 0.261905 0
2.366197 0.261905 0
2.390845 0.261905 0
2.415493 0.261905 0
2.440141 0.261905 0
2.464789 0.261905 0
2.489437 0.261905 0
2.514085 0.261905 0
2.538732 0.261905 0
2.563380 0.261905 0
2.588028 0.261905 0
2.612676 0.261905 0
2.637324 0.261905 0
2.661972 0.261905 0
2.686620 0.261905 0
2.711268 0.261905 0
2.735915 0.261905 0
2.760563 0.261905 0
2.785211 0.261905 0
2.809859 0.261905 0
2.834507 0.261905 0
2.859155 0.261905 0
2.883803 0.261905 0
2.908451 0.261905 0
2.933099 0.261905 0
2.957746 0.261905 0
2.982394 0.261905 0
3.007042 0.261905 0
3.031690 0.261905 0
3.056338 0.261905 0
3.080986 0.261905 0
3.105634 0.261905 0
3.130282 0.261905 0
3.154930 0.261905 0
3.179577 0.261905 0
3.204225 0.261905 0
3.228873 0.261905 0
3.253521 0.261905 0
3.278169 0.261905 0
3.302817 0.261905 0
3.327465 0.261905 0
3.352113 0.261905 0
3.376761 0.261905 0
3.401408 0.261905 0
3.426056 0.261905 0
3.450704 0.261905 0
3.475352 0.261905 0
0.000000 0.273810 0
0.024648 0.273810 0
0.049296 0.273810 0
0.073944 0.273810 0
0.098592 0.273810 0
0.123239 0.273810 0
0.147887 0.273810 0
0.172535 0.273810 0
0.197183 0.273810 0
0.221831 0.273810 0
0.246479 0.273810 0
0.271127 0.273810 0
0.295775 0.273810 0
0.320423 0.273810 0
0.345070 0.273810 0
0.369718 0.273810 0
0.394366 0.273810 0
0.419014 0.273810 0
0.443662 0.273810 0
0.468310 0.273810 0
0.492958 0.273810 0
0.517606 0.273810 0
0.542254 0.273810 0
0.566901 0.273810 0
0.591549 0.273810 0
0.616197 0.273810 0
0.640845 0.273810 0
0.665493 0.273810 0
0.690141 0.273810 0
0.714789 0.273810 0
0.739437 0.273810 0
0.764085 0.273810 0
0.788732 0.273810 0
0.813380 0.273810 0
0.838028 0.273810 0
0.862676 0.273810 0
0.887324 0.273810 0
0.911972 0.273810 0
0.936620 0.273810 0
0.961268 0.273810 0
0.985915 0.273810 0
1.010563 0.273810 0
1.035211 0.273810 0
1.059859 0.273810 0
1.084507 0.273810 0
1.109155 0.273810 0
1.133803 0.273810 0
1.158451 0.273810 0
1.183099 0.273810 0
1.207746 0.273810 0
1.232394 0.273810 0
1.257042 0.273810 0
1.281690 0.273810 0
1.306338 0.273810 0
1.330986 0.273810 0
1.355634 0.273810 0
1.380282 0.273810 0
1.404930 0.273810 0
1.429577 0.273810 0
1.454225 0.273810 0
1.478873 0.273810 0
1.503521 0.273810 0
1.528169 0.273810 0
1.552817 0.273810 0
1.577465 0.273810 0
1.602113 0.273810 0
1.626761 0.273810 0
1.651408 0.273810 0
1.676056 0.273810 0
1.700704 0.273810 0
1.725352 0.273810 0
1.750000 0.273810 0
1.774648 0.273810 0
1.799296 0.273810 0
1.823944 0.273810 0
1.848592 0.273810 0
1.873239 0.273810 0
1.897887 0.273810 0
1.922535 0.273810 0
1.947183 0.273810 0
1.971831 0.273810 0
1.996479 0.273810 0
2.021127 0.273810 0
2.045775 0.273810 0
2.070423 0.273810 0
2.095070 0.273810 0
2.119718 0.273810 0
2.144366 0.273810 0
2.169014 0.273810 0
2.193662 0.273810 0
2.218310 0.273810 0
2.242958 0.273810 0
2.267606 0.273810 0
2.292254 0.273810 0
2.316901 0.273810 0
2.341549 0.273810 0
2.366197 0.273810 0
2.390845 0.273810 0
2.415493 0.273810 0
2.440141 0.273810 0
2.464789 0.273810 0
2.489437 0.273810 0
2.514085 0.273810 0
2.538732 0.273810 0
2.563380 0.273810 0
2.588028 0.273810 0
2.612676 0.273810 0
2.637324 0.273810 0
2.661972 0.273810 0
2.686620 0.273810 0
2.711268 0.273810 0
2.735915 0.273810 0
2.760563 0.273810 0
2.785211 0.273810 0
2.809859 0.273810 0
2.834507 0.273810 0
2.859155 0.273810 0
2.883803 0.273810 0
2.908451 0.273810 0
2.933099 0.273810 0
2.957746 0.273810 0
2.982394 0.273810 0
3.007042 0.273810 0
3.031690 0.273810 0
3.056338 0.273810 0
3.080986 0.273810 0
3.105634 0.273810 0
3.130282 0.273810 0
3.154930 0.273810 0
3.179577 0.273810 0
3.204225 0.273810 0
3.228873 0.273810 0
3.253521 0.273810 0
3.278169 0.273810 0
3.302817 0.273810 0
3.327465 0.273810 0
3.352113 0.273810 0
3.376761 0.273810 0
3.401408 0.273810 0
3.426056 0.273810 0
3.450704 0.273810 0
3.475352 0.273810 0
0.000000 0.285714 0
0.024648 0.285714 0
0.049296 0.285714 0
0.073944 0.285714 0
0.098592 0.285714 0
0.123239 0.285714 0
0.147887 0.285714 0
0.172535 0.285714 0
0.197183 0.285714 0
0.221831 0.285714 0
0.246479 0.285714 0
0.271127 0.285714 0
0.295775 0.285714 0
0.320423 0.285714 0
0.345070 0.285714 0
0.369718 0.285714 0
0.394366 0.285714 0
0.419014 0.285714 0
0.443662 0.285714 0
0.468310 0.285714 0
0.492958 0.285714 0
0.517606 0.285714 0
0.542254 0.285714 0
0.566901 0.285714 0
0.591549 0.285714 0
0.616197 0.285714 0
0.640845 0.285714 0
0.665493 0.285714 0
0.690141 0.285714 0
0.714789 0.285714 0
0.739437 0.285714 0
0.764085 0.285714 0
0.788732 0.285714 0
0.813380 0.285714 0
0.838028 0.285714 0
0.862676 0.285714 0
0.887324 0.285714 0
0.911972 0.285714 0
0.936620 0.285714 0
0.961268 0.285714 0
0.985915 0.285714 0
1.010563 0.285714 0
1.035211 0.285714 0
1.059859 0.285714 0
1.084507 0.285714 0
1.109155 0.285714 0
1.133803 0.285714 0
1.158451 0.285714 0
1.183099 0.285714 0
1.207746 0.285714 0
1.232394 0.285714 0
1.257042 0.285714 0
1.281690 0.285714 0
1.306338 0.285714 0
1.330986 0.285714 0
1.355634 0.285714 0
1.380282 0.285714 0
1.404930 0.285714 0
1.429577 0.285714 0
1.454225 0.285714 0
1.478873 0.285714 0
1.503521 0.285714 0
1.528169 0.285714 0
1.552817 0.285714 0
1.577465 0.285714 0
[...]
POINT_DATA 5964 

VECTORS velocity float
1.000000 0.000000 0
0.999854 0.000000 0
0.999556 0.000000 0
0.999097 0.000000 0
0.998458 0.000000 0
0.997615 0.000000 0
0.996532 0.000000 0
0.995162 0.000000 0
0.993440 0.000000 0
0.991275 0.000000 0
0.988543 0.000000 0
0.985062 0.000000 0
0.980562 0.000000 0
0.974615 0.000000 0
0.966518 0.000000 0
0.954935 0.000000 0
0.937385 0.000000 0
0.905762 0.000000 0
0.847695 0.000000 0
-0.000000 0.000000 0
-0.000000 0.000000 0
-0.000000 0.000000 0
-0.000000 0.000000 0
-0.000000 0.000000 0
-0.000000 0.000000 0
-0.000000 0.000000 0
-0.000000 0.000000 0
-0.000000 0.000000 0
-0.000000 0.000000 0
-0.000000 0.000000 0
-0.000000 0.000000 0
-0.000000 0.000000 0
-0.000000 0.000000 0
-0.000000 0.000000 0
-0.000000 0.000000 0
-0.000000 0.000000 0
-0.000000 0.000000 0
-0.000000 0.000000 0
-0.000000 0.000000 0
-0.000000 0.000000 0
-0.000000 0.000000 0
-0.000000 0.000000 0
-0.000000 0.000000 0
-0.000000 0.000000 0
-0.000000 0.000000 0
-0.000000 0.000000 0
-0.000000 0.000000 0
-0.000000 0.000000 0
-0.000000 0.000000 0
-0.000000 0.000000 0
-0.000000 0.000000 0
-0.000000 0.000000 0
-0.000000 0.000000 0
-0.000000 0.000000 0
-0.000000 0.000000 0
-0.000000 0.000000 0
-0.000000 0.000000 0
-0.000000 0.000000 0
-0.000000 0.000000 0
-0.000000 0.000000 0
-0.000000 0.000000 0
-0.000000 0.000000 0
-0.000000 0.000000 0
-0.000000 0.000000 0
-0.000000 0.000000 0
-0.000000 0.000000 0
-0.000000 0.000000 0
-0.000000 0.000000 0
-0.000000 0.000000 0
-0.000000 0.000000 0
-0.000000 0.000000 0
-0.000000 0.000000 0
-0.000000 0.000000 0
-0.000000 0.000000 0
-0.000000 0.000000 0
-0.000000 0.000000 0
-0.000000 0.000000 0
-0.000000 0.000000 0
-0.000000 0.000000 0
-0.000000 0.000000 0
-0.000000 0.000000 0
-0.000000 0.000000 0
-0.000000 0.000000 0
-0.000000 0.000000 0
-0.000000 0.000000 0
-0.000000 0.000000 0
-0.000000 0.000000 0
-0.000001 0.000000 0
-0.000001 0.000000 0
-0.000001 0.000000 0
-0.000001 0.000000 0
-0.000001 0.000000 0
-0.000001 0.000000 0
-0.000001 0.000000 0
-0.000001 0.000000 0
-0.000001 0.000000 0
-0.000001 0.000000 0
-0.000001 0.000000 0
-0.000001 0.000000 0
-0.000001 0.000000 0
-0.000001 0.000000 0
-0.000001 0.000000 0
-0.000001 0.000000 0
-0.000001 0.000000 0
-0.000001 0.000000 0
-0.000001 0.000000 0
-0.000001 0.000000 0
-0.000001 0.000000 0
-0.000001 0.000000 0
-0.000001 0.000000 0
-0.000001 0.000000 0
-0.000001 0.000000 0
-0.000001 0.000000 0
-0.000001 0.000000 0
-0.000001 0.000000 0
-0.000001 0.000000 0
-0.000001 0.000000 0
-0.000001 0.000000 0
-0.000001 0.000000 0
-0.000001 0.000000 0
-0.000001 0.000000 0
-0.000001 0.000000 0
-0.000001 0.000000 0
-0.000001 0.000000 0
-0.000001 0.000000 0
-0.000001 0.000000 0
-0.000001 0.000000 0
-0.000001 0.000000 0
-0.000001 0.000000 0
-0.000001 0.000000 0
-0.000001 0.000000 0
-0.000001 0.000000 0
-0.000001 0.000000 0
-0.000001 0.000000 0
-0.000001 0.000000 0
-0.000000 0.000000 0
-0.000000 0.000000 0
-0.000000 0.000000 0
0.000000 0.000000 0
0.000000 0.000000 0
-0.000000 0.000000 0
0.496590 0.000000 0
1.000000 0.000035 0
0.999854 0.000107 0
0.999558 0.000183 0
0.999101 0.000265 0
0.998465 0.000358 0
0.997626 0.000465 0
0.996549 0.000592 0
0.995186 0.000747 0
0.993475 0.000939 0
0.991325 0.001182 0
0.988614 0.001500 0
0.985165 0.001928 0
0.980714 0.002523 0
0.974851 0.003392 0
0.966904 0.004753 0
0.955642 0.007036 0
0.938827 0.011875 0
0.910182 0.021660 0
0.860877 0.078853 0
0.714889 0.110956 0
0.576507 0.072745 0
0.473020 0.041074 0
0.401070 0.022638 0
0.351167 0.013308 0
0.315505 0.008679 0
0.289000 0.006202 0
0.268561 0.004718 0
0.252302 0.003739 0
0.239037 0.003050 0
0.227991 0.002542 0
0.218636 0.002156 0
0.210604 0.001855 0
0.203624 0.001614 0
0.197498 0.001420 0
0.192073 0.001260 0
0.187231 0.001126 0
0.182881 0.001014 0
0.178947 0.000919 0
0.175371 0.000837 0
0.172102 0.000766 0
0.169101 0.000705 0
0.166335 0.000651 0
0.163773 0.000604 0
0.161394 0.000562 0
0.159176 0.000525 0
0.157102 0.000492 0
0.155157 0.000462 0
0.153329 0.000435 0
0.151605 0.000411 0
0.149976 0.000389 0
0.148434 0.000369 0
0.146971 0.000350 0
0.145581 0.000333 0
0.144257 0.000318 0
0.142995 0.000304 0
0.141790 0.000290 0
0.140638 0.000278 0
0.139535 0.000266 0
0.138478 0.000255 0
0.137464 0.000245 0
0.136492 0.000236 0
0.135557 0.000227 0
0.134659 0.000218 0
0.133795 0.000210 0
0.132964 0.000202 0
0.132164 0.000195 0
0.131394 0.000188 0
0.130653 0.000181 0
0.129939 0.000175 0
0.129252 0.000168 0
0.128591 0.000162 0
0.127955 0.000156 0
0.127344 0.000150 0
0.126757 0.000145 0
0.126193 0.000139 0
0.125652 0.000134 0
0.125134 0.000128 0
0.124639 0.000123 0
0.124166 0.000118 0
0.123716 0.000112 0
0.123288 0.000107 0
0.122884 0.000101 0
0.122502 0.000096 0
0.122145 0.000090 0
0.121811 0.000084 0
0.121501 0.000078 0
0.121217 0.000072 0
0.120958 0.000066 0
0.120725 0.000059 0
0.120518 0.000052 0
0.120338 0.000046 0
0.120185 0.000039 0
0.120059 0.000031 0
0.119961 0.000024 0
0.119891 0.000017 0
0.119849 0.000009 0
0.119835 0.000002 0
0.119847 -0.000006 0
0.119886 -0.000013 0
0.119950 -0.000020 0
0.120040 -0.000027 0
0.120154 -0.000034 0
0.120295 -0.000042 0
0.120462 -0.000049 0
0.120656 -0.000057 0
0.120881 -0.000066 0
0.121137 -0.000076 0
0.121429 -0.000087 0
0.121761 -0.000098 0
0.122137 -0.000112 0
0.122564 -0.000127 0
0.123048 -0.000145 0
0.123599 -0.000165 0
0.124226 -0.000188 0
0.124941 -0.000215 0
0.125759 -0.000246 0
0.126696 -0.000283 0
0.127771 -0.000325 0
0.129007 -0.000375 0
0.130433 -0.000433 0
0.132079 -0.000502 0
0.133986 -0.000584 0
0.136201 -0.000680 0
0.138781 -0.000796 0
0.141797 -0.000936 0
0.145337 -0.001105 0
0.149510 -0.001313 0
0.154459 -0.001571 0
0.160365 -0.001895 0
0.167470 -0.002310 0
0.176100 -0.002850 0
0.186705 -0.003572 0
0.199926 -0.004565 0
0.216708 -0.005981 0
0.238502 -0.008099 0
0.267646 -0.011472 0
0.308190 -0.017268 0
0.367447 -0.028918 0
0.462170 -0.051315 0
0.617983 -0.167130 0
0.993491 -0.268496 0
0.993491 -0.134248 0
1.000000 0.000070 0
0.999856 0.000213 0
0.999564 0.000364 0
0.999113 0.000528 0
0.998486 0.000712 0
0.997659 0.000926 0
0.996599 0.001178 0
0.995259 0.001485 0
0.993579 0.001865 0
0.991473 0.002347 0
0.988825 0.002975 0
0.985469 0.003816 0
0.981163 0.004982 0
0.975541 0.006670 0
0.968026 0.009278 0
0.957650 0.013561 0
0.942786 0.021957 0
0.920696 0.037649 0
0.888373 0.094325 0
0.891002 0.137349 0
0.842152 0.116821 0
0.771623 0.084735 0
0.701228 0.058854 0
0.639927 0.041327 0
0.589266 0.030026 0
0.547933 0.022673 0
0.514052 0.017725 0
0.485966 0.014260 0
0.462386 0.011742 0
0.442340 0.009853 0
0.425104 0.008398 0
0.410129 0.007251 0
0.396999 0.006330 0
0.385392 0.005579 0
0.375053 0.004959 0
0.365783 0.004440 0
0.357422 0.004001 0
0.349838 0.003627 0
0.342924 0.003306 0
0.336593 0.003028 0
0.330770 0.002786 0
0.325394 0.002573 0
0.320412 0.002386 0
0.315779 0.002220 0
0.311458 0.002073 0
0.307416 0.001941 0
0.303623 0.001823 0
0.300057 0.001716 0
0.296694 0.001619 0
0.293518 0.001531 0
0.290510 0.001451 0
0.287657 0.001378 0
0.284946 0.001311 0
0.282366 0.001249 0
0.279907 0.001192 0
0.277560 0.001139 0
0.275316 0.001089 0
0.273170 0.001043 0
0.271114 0.001000 0
0.269143 0.000959 0
0.267252 0.000921 0
0.265437 0.000885 0
0.263693 0.000851 0
0.262017 0.000819 0
0.260405 0.000788 0
0.258855 0.000758 0
0.257365 0.000730 0
0.255931 0.000703 0
0.254551 0.000676 0
0.253225 0.000651 0
0.251950 0.000626 0
0.250725 0.000602 0
0.249549 0.000579 0
0.248420 0.000556 0
0.247338 0.000534 0
0.246302 0.000511 0
0.245312 0.000489 0
0.244367 0.000468 0
0.243467 0.000446 0
0.242612 0.000424 0
0.241803 0.000402 0
0.241039 0.000380 0
0.240322 0.000357 0
0.239650 0.000334 0
0.239026 0.000311 0
0.238450 0.000287 0
0.237922 0.000263 0
0.237444 0.000238 0
0.237015 0.000213 0
0.236636 0.000187 0
0.236308 0.000161 0
0.236031 0.000135 0
0.235804 0.000108 0
0.235627 0.000081 0
0.235501 0.000054 0
0.235425 0.000027 0
0.235399 0.000001 0
0.235421 -0.000025 0
0.235490 -0.000050 0
0.235602 -0.000074 0
0.235759 -0.000099 0
0.235958 -0.000123 0
0.236202 -0.000148 0
0.236490 -0.000175 0
0.236826 -0.000202 0
0.237211 -0.000232 0
0.237652 -0.000265 0
0.238152 -0.000301 0
0.238718 -0.000342 0
0.239360 -0.000388 0
0.240086 -0.000440 0
0.240910 -0.000500 0
0.241846 -0.000569 0
0.242910 -0.000648 0
0.244123 -0.000740 0
0.245508 -0.000847 0
0.247092 -0.000972 0
0.248908 -0.001116 0
0.250993 -0.001286 0
0.253393 -0.001484 0
0.256160 -0.001717 0
0.259359 -0.001991 0
0.263063 -0.002316 0
0.267366 -0.002703 0
0.272378 -0.003166 0
0.278237 -0.003725 0
0.285113 -0.004406 0
0.293220 -0.005243 0
0.302831 -0.006284 0
0.314301 -0.007600 0
0.328096 -0.009290 0
0.344846 -0.011508 0
0.365419 -0.014491 0
0.391043 -0.018632 0
0.423511 -0.024603 0
0.465524 -0.033659 0
0.521324 -0.048203 0
0.597543 -0.074371 0
0.705490 -0.121007 0
0.859674 -0.256625 0
0.994209 -0.362736 0
0.994209 -0.181368 0
1.000000 0.000105 0
0.999859 0.000318 0
0.999574 0.000542 0
0.999133 0.000786 0
0.998521 0.001060 0
0.997714 0.001377 0
0.996681 0.001751 0
0.995379 0.002205 0
0.993750 0.002767 0
0.991715 0.003478 0
0.989169 0.004400 0
0.985963 0.005628 0
0.981888 0.007318 0
0.976643 0.009737 0
0.969783 0.013394 0
0.960674 0.019226 0
0.948432 0.029723 0
0.933030 0.047941 0
0.915088 0.093195 0
0.945333 0.133280 0
0.948629 0.130404 0
0.922943 0.109140 0
0.881987 0.086246 0
0.836597 0.067385 0
0.792548 0.053111 0
0.752218 0.042529 0
0.716236 0.034647 0
0.684471 0.028693 0
0.656504 0.024121 0
0.631850 0.020549 0
0.610043 0.017713 0
0.590671 0.015429 0
0.573378 0.013563 0
0.557867 0.012020 0
0.543886 0.010730 0
0.531227 0.009642 0
0.519712 0.008716 0
0.509196 0.007921 0
0.499552 0.007234 0
0.490677 0.006636 0
0.482478 0.006114 0
0.474881 0.005654 0
0.467818 0.005248 0
0.461233 0.004887 0
0.455077 0.004564 0
0.449305 0.004276 0
0.443882 0.004016 0
0.438774 0.003782 0
0.433953 0.003569 0
0.429393 0.003376 0
0.425072 0.003199 0
0.420970 0.003037 0
0.417069 0.002889 0
0.413355 0.002752 0
0.409813 0.002625 0
0.406431 0.002508 0
0.403198 0.002398 0
0.400104 0.002296 0
0.397140 0.002200 0
0.394298 0.002111 0
0.391572 0.002026 0
0.388955 0.001946 0
0.386440 0.001870 0
0.384024 0.001798 0
0.381700 0.001729 0
0.379467 0.001664 0
0.377318 0.001601 0
0.375252 0.001540 0
0.373266 0.001481 0
0.371356 0.001425 0
0.369522 0.001370 0
0.367759 0.001316 0
0.366068 0.001264 0
0.364446 0.001213 0
0.362893 0.001162 0
0.361407 0.001112 0
0.359987 0.001063 0
0.358634 0.001014 0
0.357347 0.000965 0
0.356126 0.000916 0
0.354972 0.000867 0
0.353883 0.000817 0
0.352861 0.000767 0
0.351907 0.000716 0
0.351021 0.000664 0
0.350203 0.000611 0
0.349455 0.000558 0
0.348777 0.000504 0
0.348169 0.000449 0
0.347631 0.000394 0
0.347164 0.000338 0
0.346767 0.000282 0
0.346440 0.000226 0
0.346182 0.000170 0
0.345992 0.000114 0
0.345870 0.000058 0
0.345813 0.000003 0
0.345823 -0.000049 0
0.345894 -0.000100 0
0.346025 -0.000150 0
0.346214 -0.000199 0
0.346459 -0.000248 0
0.346762 -0.000298 0
0.347123 -0.000351 0
0.347544 -0.000406 0
0.348030 -0.000465 0
0.348584 -0.000530 0
0.349214 -0.000602 0
0.349929 -0.000682 0
0.350737 -0.000773 0
0.351653 -0.000876 0
0.352690 -0.000994 0
0.353867 -0.001131 0
0.355204 -0.001288 0
0.356726 -0.001469 0
0.358463 -0.001680 0
0.360446 -0.001925 0
0.362717 -0.002209 0
0.365321 -0.002541 0
0.368312 -0.002929 0
0.371753 -0.003383 0
0.375722 -0.003918 0
0.380307 -0.004548 0
0.385615 -0.005295 0
0.391778 -0.006187 0
0.398951 -0.007256 0
0.407328 -0.008550 0
0.417148 -0.010129 0
0.428710 -0.012077 0
0.442394 -0.014512 0
0.458691 -0.017603 0
0.478239 -0.021599 0
0.501888 -0.026878 0
0.530790 -0.034040 0
0.566526 -0.044073 0
0.611287 -0.058715 0
0.668105 -0.081032 0
0.740836 -0.117869 0
0.832881 -0.177922 0
0.943572 -0.306579 0
0.995016 -0.398454 0
0.995016 -0.199227 0
1.000000 0.000138 0
0.999864 0.000419 0
0.999587 0.000715 0
0.999160 0.001037 0
0.998568 0.001398 0
0.997790 0.001814 0
0.996794 0.002306 0
0.995543 0.002901 0
0.993983 0.003635 0
0.992045 0.004560 0
0.989635 0.005754 0
0.986628 0.007332 0
0.982855 0.009483 0
0.978090 0.012517 0
0.972037 0.016990 0
0.964383 0.023874 0
0.954908 0.035309 0
0.945021 0.053754 0
0.937271 0.088383 0
0.965710 0.121149 0
0.987887 0.127635 0
0.990075 0.116923 0
0.975772 0.100559 0
0.951744 0.084526 0
0.923227 0.070781 0
0.893440 0.059532 0
0.864163 0.050446 0
0.836309 0.043110 0
0.810286 0.037158 0
0.786225 0.032293 0
0.764100 0.028287 0
0.743810 0.024960 0
0.725214 0.022174 0
0.708164 0.019824 0
0.692509 0.017826 0
0.678109 0.016116 0
0.664837 0.014642 0
0.652574 0.013364 0
0.641218 0.012251 0
0.630676 0.011275 0
0.620865 0.010415 0
0.611714 0.009654 0
0.603158 0.008978 0
0.595140 0.008375 0
0.587610 0.007834 0
0.580524 0.007348 0
0.573842 0.006909 0
0.567528 0.006512 0
0.561553 0.006150 0
0.555887 0.005821 0
0.550507 0.005520 0
0.545389 0.005243 0
0.540515 0.004989 0
0.535866 0.004754 0
0.531426 0.004536 0
0.527181 0.004334 0
0.523118 0.004145 0
0.519227 0.003969 0
0.515495 0.003804 0
0.511914 0.003649 0
0.508476 0.003502 0
0.505173 0.003364 0
0.501997 0.003233 0
0.498944 0.003108 0
0.496007 0.002989 0
0.493182 0.002875 0
0.490464 0.002765 0
0.487849 0.002660 0
0.485333 0.002558 0
0.482915 0.002460 0
0.480590 0.002364 0
0.478356 0.002271 0
0.476213 0.002179 0
0.474157 0.002090 0
0.472187 0.002002 0
0.470303 0.001915 0
0.468504 0.001828 0
0.466788 0.001743 0
0.465156 0.001657 0
0.463607 0.001571 0
0.462142 0.001485 0
0.460761 0.001399 0
0.459464 0.001311 0
0.458252 0.001223 0
0.457125 0.001134 0
0.456083 0.001043 0
0.455129 0.000952 0
0.454260 0.000859 0
0.453479 0.000766 0
0.452784 0.000672 0
0.452176 0.000578 0
0.451654 0.000484 0
0.451216 0.000391 0
0.450862 0.000298 0
0.450590 0.000205 0
0.450399 0.000114 0
0.450285 0.000023 0
0.450249 -0.000064 0
0.450290 -0.000147 0
0.450402 -0.000228 0
0.450584 -0.000308 0
0.450833 -0.000388 0
0.451150 -0.000469 0
0.451535 -0.000552 0
0.451991 -0.000640 0
0.452520 -0.000735 0
0.453128 -0.000837 0
0.453821 -0.000951 0
0.454610 -0.001077 0
0.455503 -0.001220 0
0.456516 -0.001383 0
0.457664 -0.001569 0
0.458965 -0.001783 0
0.460444 -0.002030 0
0.462127 -0.002314 0
0.464044 -0.002644 0
0.466231 -0.003027 0
0.468732 -0.003471 0
0.471595 -0.003988 0
0.474878 -0.004591 0
0.478649 -0.005296 0
0.482987 -0.006122 0
0.487986 -0.007094 0
0.493757 -0.008243 0
0.500432 -0.009607 0
0.508172 -0.011236 0
0.517167 -0.013195 0
0.527655 -0.015570 0
0.539921 -0.018479 0
0.554326 -0.022081 0
0.571317 -0.026603 0
0.591463 -0.032372 0
0.615490 -0.039873 0
0.644326 -0.049851 0
0.679160 -0.063482 0
0.721464 -0.082721 0
0.772906 -0.110774 0
0.834827 -0.153957 0
0.905652 -0.218927 0
0.977809 -0.334934 0
0.995785 -0.412429 0
0.995785 -0.206214 0
1.000000 0.000170 0
0.999869 0.000517 0
0.999604 0.000882 0
0.999195 0.001278 0
0.998628 0.001722 0
0.997884 0.002233 0
0.996936 0.002836 0
0.995748 0.003563 0
0.994274 0.004457 0
0.992454 0.005579 0
0.990209 0.007017 0
0.987441 0.008903 0
0.984023 0.011442 0
0.979806 0.014962 0
0.974638 0.020014 0
0.968469 0.027500 0
0.961561 0.039075 0
0.955833 0.056460 0
0.954479 0.083203 0
0.976674 0.108833 0
1.001714 0.118636 0
1.016362 0.114991 0
1.018682 0.104760 0
1.011398 0.092764 0
0.997805 0.081272 0
0.980485 0.071057 0
0.961212 0.062241 0
0.941157 0.054716 0
0.921068 0.048311 0
0.901418 0.042856 0
0.882489 0.038200 0
0.864437 0.034210 0
0.847337 0.030779 0
0.831207 0.027816 0
0.816035 0.025246 0
0.801783 0.023008 0
0.788405 0.021049 0
0.775847 0.019328 0
0.764054 0.017811 0
0.752971 0.016467 0
0.742545 0.015272 0
0.732726 0.014207 0
0.723466 0.013253 0
0.714722 0.012396 0
0.706454 0.011624 0
0.698626 0.010926 0
0.691202 0.010293 0
0.684154 0.009717 0
0.677453 0.009192 0
0.671073 0.008711 0
0.664992 0.008270 0
0.659188 0.007864 0
0.653644 0.007489 0
0.648340 0.007142 0
0.643263 0.006820 0
0.638397 0.006520 0
0.633729 0.006240 0
0.629249 0.005978 0
0.624946 0.005732 0
0.620809 0.005501 0
0.616830 0.005282 0
0.613002 0.005075 0
0.609317 0.004878 0
0.605769 0.004691 0
0.602352 0.004512 0
0.599060 0.004341 0
0.595890 0.004176 0
0.592837 0.004018 0
0.589897 0.003864 0
0.587068 0.003716 0
0.584346 0.003571 0
0.581728 0.003430 0
0.579213 0.003292 0
0.576799 0.003157 0
0.574485 0.003023 0
0.572268 0.002891 0
0.570150 0.002761 0
0.568128 0.002631 0
0.566202 0.002501 0
0.564373 0.002371 0
0.562640 0.002241 0
0.561004 0.002110 0
0.559464 0.001979 0
0.558022 0.001845 0
0.556678 0.001711 0
0.555432 0.001575 0
0.554285 0.001439 0
0.553236 0.001301 0
0.552287 0.001162 0
0.551435 0.001023 0
0.550682 0.000884 0
0.550026 0.000746 0
0.549465 0.000608 0
0.548999 0.000473 0
0.548625 0.000338 0
0.548340 0.000206 0
0.548142 0.000075 0
0.548029 -0.000052 0
0.548003 -0.000174 0
0.548060 -0.000292 0
0.548196 -0.000407 0
0.548409 -0.000522 0
0.548697 -0.000637 0
0.549062 -0.000757 0
0.549505 -0.000881 0
0.550028 -0.001014 0
0.550637 -0.001159 0
0.551337 -0.001317 0
0.552138 -0.001494 0
0.553051 -0.001693 0
0.554088 -0.001919 0
0.555265 -0.002178 0
0.556602 -0.002474 0
0.558122 -0.002815 0
0.559850 -0.003208 0
0.561819 -0.003663 0
0.564064 -0.004189 0
0.566627 -0.004800 0
0.569558 -0.005510 0
0.572915 -0.006336 0
0.576762 -0.007300 0
0.581179 -0.008427 0
0.586257 -0.009750 0
0.592102 -0.011307 0
0.598842 -0.013149 0
0.606627 -0.015339 0
0.615635 -0.017960 0
0.626082 -0.021118 0
0.638226 -0.024959 0
0.652381 -0.029676 0
0.668928 -0.035540 0
0.688333 -0.042934 0
0.711161 -0.052410 0
0.738089 -0.064792 0
0.769895 -0.081330 0
0.807381 -0.103994 0
0.851099 -0.135786 0
0.900633 -0.181984 0
0.952042 -0.246982 0
0.996328 -0.350112 0
0.996484 -0.415817 0
0.996484 -0.207907 0
1.000000 0.000201 0
0.999876 0.000611 0
0.999624 0.001041 0
0.999236 0.001508 0
0.998699 0.002031 0
0.997997 0.002631 0
0.997104 0.003338 0
0.995990 0.004186 0
0.994617 0.005226 0
0.992933 0.006523 0
0.990877 0.008175 0
0.988376 0.010321 0
0.985348 0.013171 0
0.981715 0.017049 0
0.977447 0.022466 0
0.972685 0.030190 0
0.967983 0.041412 0
0.965255 0.057175 0
0.967536 0.078317 0
0.984752 0.098334 0
1.007166 0.108466 0
1.025320 0.108727 0
1.035737 0.102957 0
1.038736 0.094609 0
1.035902 0.085712 0
1.028859 0.077206 0
1.018923 0.069441 0
1.007082 0.062500 0
0.994065 0.056351 0
0.980401 0.050927 0
0.966474 0.046149 0
0.952557 0.041938 0
0.938841 0.038224 0
0.925457 0.034943 0
0.912490 0.032038 0
0.899994 0.029461 0
0.887995 0.027169 0
0.876505 0.025126 0
0.865521 0.023300 0
0.855035 0.021663 0
0.845029 0.020193 0
0.835486 0.018869 0
0.826384 0.017674 0
0.817700 0.016591 0
0.809412 0.015609 0
0.801498 0.014714 0
0.793936 0.013899 0
0.786706 0.013153 0
0.779788 0.012468 0
0.773163 0.011840 0
0.766815 0.011260 0
0.760726 0.010724 0
0.754883 0.010228 0
0.749271 0.009768 0
0.743877 0.009339 0
0.738689 0.008938 0
0.733697 0.008563 0
0.728890 0.008212 0
0.724258 0.007881 0
0.719795 0.007568 0
0.715491 0.007273 0
0.711340 0.006993 0
0.707335 0.006726 0
0.703470 0.006472 0
0.699741 0.006229 0
0.696142 0.005996 0
0.692668 0.005771 0
0.689318 0.005554 0
0.686085 0.005345 0
0.682969 0.005141 0
0.679966 0.004943 0
0.677074 0.004749 0
0.674291 0.004560 0
0.671615 0.004374 0
0.669045 0.004190 0
0.666580 0.004008 0
0.664220 0.003828 0
0.661963 0.003649 0
0.659810 0.003471 0
0.657760 0.003292 0
0.655814 0.003113 0
0.653972 0.002933 0
0.652234 0.002751 0
0.650600 0.002569 0
0.649072 0.002385 0
0.647648 0.002199 0
0.646331 0.002012 0
0.645119 0.001824 0
0.644012 0.001636 0
0.643011 0.001447 0
0.642115 0.001259 0
0.641322 0.001072 0
0.640631 0.000887 0
0.640041 0.000704 0
0.639550 0.000524 0
0.639154 0.000347 0
0.638851 0.000173 0
0.638637 0.000003 0
0.638514 -0.000162 0
0.638483 -0.000321 0
0.638538 -0.000476 0
0.638678 -0.000630 0
0.638900 -0.000784 0
0.639206 -0.000942 0
0.639595 -0.001107 0
0.640069 -0.001281 0
0.640634 -0.001470 0
0.641295 -0.001676 0
0.642059 -0.001905 0
0.642937 -0.002162 0
0.643941 -0.002453 0
0.645085 -0.002784 0
0.646389 -0.003163 0
0.647873 -0.003598 0
0.649563 -0.004100 0
0.651489 -0.004679 0
0.653684 -0.005349 0
0.656190 -0.006125 0
0.659053 -0.007025 0
0.662327 -0.008070 0
0.666075 -0.009287 0
0.670368 -0.010708 0
0.675294 -0.012370 0
0.680949 -0.014322 0
0.687450 -0.016622 0
0.694932 -0.019347 0
0.703553 -0.022592 0