# vtk DataFile Version 2.0
generated by CFD-lab course output (written by Tobias Neckel) 
ASCII

DATASET STRUCTURED_GRID
DIMENSIONS  142 42 1 
POINTS 5964 float

0.000000 0.250000 0
0.024648 0.250000 0
0.049296 0.250000 0
0.073944 0.250000 0
0.098592 0.250000 0
0.123239 0.250000 0
0.147887 0.250000 0
0.172535 0.250000 0
0.197183 0.250000 0
0.221831 0.250000 0
0.246479 0.250000 0
0.271127 0.250000 0
0.295775 0.250000 0
0.320423 0.250000 0
0.345070 0.250000 0
0.369718 0.250000 0
0.394366 0.250000 0
0.419014 0.250000 0
0.443662 0.250000 0
0.468310 0.250000 0
0.492958 0.250000 0
0.517606 0.250000 0
0.542254 0.250000 0
0.566901 0.250000 0
0.591549 0.250000 0
0.616197 0.250000 0
0.640845 0.250000 0
0.665493 0.250000 0
0.690141 0.250000 0
0.714789 0.250000 0
0.739437 0.250000 0
0.764085 0.250000 0
0.788732 0.250000 0
0.813380 0.250000 0
0.838028 0.250000 0
0.862676 0.250000 0
0.887324 0.250000 0
0.911972 0.250000 0
0.936620 0.250000 0
0.961268 0.250000 0
0.985915 0.250000 0
1.010563 0.250000 0
1.035211 0.250000 0
1.059859 0.250000 0
1.084507 0.250000 0
1.109155 0.250000 0
1.133803 0.250000 0
1.158451 0.250000 0
1.183099 0.250000 0
1.207746 0.250000 0
1.232394 0.250000 0
1.257042 0.250000 0
1.281690 0.250000 0
1.306338 0.250000 0
1.330986 0.250000 0
1.355634 0.250000 0
1.380282 0.250000 0
1.404930 0.250000 0
1.429577 0.250000 0
1.454225 0.250000 0
1.478873 0.250000 0
1.503521 0.250000 0
1.528169 0.250000 0
1.552817 0.250000 0
1.577465 0.250000 0
1.602113 0.250000 0
1.626761 0.250000 0
1.651408 0.250000 0
1.676056 0.250000 0
1.700704 0.250000 0
1.725352 0.250000 0
1.750000 0.250000 0
1.774648 0.250000 0
1.799296 0.250000 0
1.823944 0.250000 0
1.848592 0.250000 0
1.873239 0.250000 0
1.897887 0.250000 0
1.922535 0.250000 0
1.947183 0.250000 0
1.971831 0.250000 0
1.996479 0.250000 0
2.021127 0.250000 0
2.045775 0.250000 0
2.070423 0.250000 0
2.095070 0.250000 0
2.119718 0.250000 0
2.144366 0.250000 0
2.169014 0.250000 0
2.193662 0.250000 0
2.218310 0.250000 0
2.242958 0.250000 0
2.267606 0.250000 0
2.292254 0.250000 0
2.316901 0.250000 0
2.341549 0.250000 0
2.366197 0.250000 0
2.390845 0.250000 0
2.415493 0.250000 0
2.440141 0.250000 0
2.464789 0.250000 0
2.489437 0.250000 0
2.514085 0.250000 0
2.538732 0.250000 0
2.563380 0.250000 0
2.588028 0.250000 0
2.612676 0.250000 0
2.637324 0.250000 0
2.661972 0.250000 0
2.686620 0.250000 0
2.711268 0.250000 0
2.735915 0.250000 0
2.760563 0.250000 0
2.785211 0.250000 0
2.809859 0.250000 0
2.834507 0.250000 0
2.859155 0.250000 0
2.883803 0.250000 0
2.908451 0.250000 0
2.933099 0.250000 0
2.957746 0.250000 0
2.982394 0.250000 0
3.007042 0.250000 0
3.031690 0.250000 0
3.056338 0.250000 0
3.080986 0.250000 0
3.105634 0.250000 0
3.130282 0.250000 0
3.154930 0.250000 0
3.179577 0.250000 0
3.204225 0.250000 0
3.228873 0.250000 0
3.253521 0.250000 0
3.278169 0.250000 0
3.302817 0.250000 0
3.327465 0.250000 0
3.352113 0.250000 0
3.376761 0.250000 0
3.401408 0.250000 0
3.426056 0.250000 0
3.450704 0.250000 0
3.475352 0.250000 0
0.000000 0.261905 0
0.024648 0.261905 0
0.049296 0.261905 0
0.073944 0.261905 0
0.098592 0.261905 0
0.123239 0.261905 0
0.147887 0.261905 0
0.172535 0.261905 0
0.197183 0.261905 0
0.221831 0.261905 0
0.246479 0.261905 0
0.271127 0.261905 0
0.295775 0.261905 0
0.320423 0.261905 0
0.345070 0.261905 0
0.369718 0.261905 0
0.394366 0.261905 0
0.419014 0.261905 0
0.443662 0.261905 0
0.468310 0.261905 0
0.492958 0.261905 0
0.517606 0.261905 0
0.542254 0.261905 0
0.566901 0.261905 0
0.591549 0.261905 0
0.616197 0.261905 0
0.640845 0.261905 0
0.665493 0.261905 0
0.690141 0.261905 0
0.714789 0.261905 0
0.739437 0.261905 0
0.764085 0.261905 0
0.788732 0.261905 0
0.813380 0.261905 0
0.838028 0.261905 0
0.862676 0.261905 0
0.887324 0.261905 0
0.911972 0.261905 0
0.936620 0.261905 0
0.961268 0.261905 0
0.985915 0.261905 0
1.010563 0.261905 0
1.035211 0.261905 0
1.059859 0.261905 0
1.084507 0.261905 0
1.109155 0.261905 0
1.133803 0.261905 0
1.158451 0.261905 0
1.183099 0.261905 0
1.207746 0.261905 0
1.232394 0.261905 0
1.257042 0.261905 0
1.281690 0.261905 0
1.306338 0.261905 0
1.330986 0.261905 0
1.355634 0.261905 0
1.380282 0.261905 0
1.404930 0.261905 0
1.429577 0.261905 0
1.454225 0.261905 0
1.478873 0.261905 0
1.503521 0.261905 0
1.528169 0.261905 0
1.552817 0.261905 0
1.577465 0.261905 0
1.602113 0.261905 0
1.626761 0.261905 0
1.651408 0.261905 0
1.676056 0.261905 0
1.700704 0.261905 0
1.725352 0.261905 0
1.750000 0.261905 0
1.774648 0.261905 0
1.799296 0.261905 0
1.823944 0.261905 0
1.848592 0.261905 0
1.873239 0.261905 0
1.897887 0.261905 0
1.922535 0.261905 0
1.947183 0.261905 0
1.971831 0.261905 0
1.996479 0.261905 0
2.021127 0.261905 0
2.045775 0.261905 0
2.070423 0.261905 0
2.095070 0.261905 0
2.119718 0.261905 0
2.144366 0.261905 0
2.169014 0.261905 0
2.193662 0.261905 0
2.218310 0.261905 0
2.242958 0.261905 0
2.267606 0.261905 0
2.292254 0.261905 0
2.316901 0.261905 0
2.341549 0.261905 0
2.366197 0.261905 0
2.390845 0.261905 0
2.415493 0.261905 0
2.440141 0.261905 0
2.464789 0.261905 0
2.489437 0.261905 0
2.514085 0.261905 0
2.538732 0.261905 0
2.563380 0.261905 0
2.588028 0.261905 0
2.612676 0.261905 0
2.637324 0.261905 0
2.661972 0.261905 0
2.686620 0.261905 0
2.711268 0.261905 0
2.735915 0.261905 0
2.760563 0.261905 0
2.785211 0.261905 0
2.809859 0.261905 0
2.834507 0.261905 0
2.859155 0.261905 0
2.883803 0.261905 0
2.908451 0.261905 0
2.933099 0.261905 0
2.957746 0.261905 0
2.982394 0.261905 0
3.007042 0.261905 0
3.031690 0.261905 0
3.056338 0.261905 0
3.080986 0.261905 0
3.105634 0.261905 0
3.130282 0.261905 0
3.154930 0.261905 0
3.179577 0.261905 0
3.204225 0.261905 0
3.228873 0.261905 0
3.253521 0.261905 0
3.278169 0.261905 0
3.302817 0.261905 0
3.327465 0.261905 0
3.352113 0.261905 0
3.376761 0.261905 0
3.401408 0.261905 0
3.426056 0.261905 0
3.450704 0.261905 0
3.475352 0.261905 0
0.000000 0.273810 0
0.024648 0.273810 0
0.049296 0.273810 0
0.073944 0.273810 0
0.098592 0.273810 0
0.123239 0.273810 0
0.147887 0.273810 0
0.172535 0.273810 0
0.197183 0.273810 0
0.221831 0.273810 0
0.246479 0.273810 0
0.271127 0.273810 0
0.295775 0.273810 0
0.320423 0.273810 0
0.345070 0.273810 0
0.369718 0.273810 0
0.394366 0.273810 0
0.419014 0.273810 0
0.443662 0.273810 0
0.468310 0.273810 0
0.492958 0.273810 0
0.517606 0.273810 0
0.542254 0.273810 0
0.566901 0.273810 0
0.591549 0.273810 0
0.616197 0.273810 0
0.640845 0.273810 0
0.665493 0.273810 0
0.690141 0.273810 0
0.714789 0.273810 0
0.739437 0.273810 0
0.764085 0.273810 0
0.788732 0.273810 0
0.813380 0.273810 0
0.838028 0.273810 0
0.862676 0.273810 0
0.887324 0.273810 0
0.911972 0.273810 0
0.936620 0.273810 0
0.961268 0.273810 0
0.985915 0.273810 0
1.010563 0.273810 0
1.035211 0.273810 0
1.059859 0.273810 0
1.084507 0.273810 0
1.109155 0.273810 0
1.133803 0.273810 0
1.158451 0.273810 0
1.183099 0.273810 0
1.207746 0.273810 0
1.232394 0.273810 0
1.257042 0.273810 0
1.281690 0.273810 0
1.306338 0.273810 0
1.330986 0.273810 0
1.355634 0.273810 0
1.380282 0.273810 0
1.404930 0.273810 0
1.429577 0.273810 0
1.454225 0.273810 0
1.478873 0.273810 0
1.503521 0.273810 0
1.528169 0.273810 0
1.552817 0.273810 0
1.577465 0.273810 0
1.602113 0.273810 0
1.626761 0.273810 0
1.651408 0.273810 0
1.676056 0.273810 0
1.700704 0.273810 0
1.725352 0.273810 0
1.750000 0.273810 0
1.774648 0.273810 0
1.799296 0.273810 0
1.823944 0.273810 0
1.848592 0.273810 0
1.873239 0.273810 0
1.897887 0.273810 0
1.922535 0.273810 0
1.947183 0.273810 0
1.971831 0.273810 0
1.996479 0.273810 0
2.021127 0.273810 0
2.045775 0.273810 0
2.070423 0.273810 0
2.095070 0.273810 0
2.119718 0.273810 0
2.144366 0.273810 0
2.169014 0.273810 0
2.193662 0.273810 0
2.218310 0.273810 0
2.242958 0.273810 0
2.267606 0.273810 0
2.292254 0.273810 0
2.316901 0.273810 0
2.341549 0.273810 0
2.366197 0.273810 0
2.390845 0.273810 0
2.415493 0.273810 0
2.440141 0.273810 0
2.464789 0.273810 0
2.489437 0.273810 0
2.514085 0.273810 0
2.538732 0.273810 0
2.563380 0.273810 0
2.588028 0.273810 0
2.612676 0.273810 0
2.637324 0.273810 0
2.661972 0.273810 0
2.686620 0.273810 0
2.711268 0.273810 0
2.735915 0.273810 0
2.760563 0.273810 0
2.785211 0.273810 0
2.809859 0.273810 0
2.834507 0.273810 0
2.859155 0.273810 0
2.883803 0.273810 0
2.908451 0.273810 0
2.933099 0.273810 0
2.957746 0.273810 0
2.982394 0.273810 0
3.007042 0.273810 0
3.031690 0.273810 0
3.056338 0.273810 0
3.080986 0.273810 0
3.105634 0.273810 0
3.130282 0.273810 0
3.154930 0.273810 0
3.179577 0.273810 0
3.204225 0.273810 0
3.228873 0.273810 0
3.253521 0.273810 0
3.278169 0.273810 0
3.302817 0.273810 0
3.327465 0.273810 0
3.352113 0.273810 0
3.376761 0.273810 0
3.401408 0.273810 0
3.426056 0.273810 0
3.450704 0.273810 0
3.475352 0.273810 0
0.000000 0.285714 0
0.024648 0.285714 0
0.049296 0.285714 0
0.073944 0.285714 0
0.098592 0.285714 0
0.123239 0.285714 0
0.147887 0.285714 0
0.172535 0.285714 0
0.197183 0.285714 0
0.221831 0.285714 0
0.246479 0.285714 0
0.271127 0.285714 0
0.295775 0.285714 0
0.320423 0.285714 0
0.345070 0.285714 0
0.369718 0.285714 0
0.394366 0.285714 0
0.419014 0.285714 0
0.443662 0.285714 0
0.468310 0.285714 0
0.492958 0.285714 0
0.517606 0.285714 0
0.542254 0.285714 0
0.566901 0.285714 0
0.591549 0.285714 0
0.616197 0.285714 0
0.640845 0.285714 0
0.665493 0.285714 0
0.690141 0.285714 0
0.714789 0.285714 0
0.739437 0.285714 0
0.764085 0.285714 0
0.788732 0.285714 0
0.813380 0.285714 0
0.838028 0.285714 0
0.862676 0.285714 0
0.887324 0.285714 0
0.911972 0.285714 0
0.936620 0.285714 0
0.961268 0.285714 0
0.985915 0.285714 0
1.010563 0.285714 0
1.035211 0.285714 0
1.059859 0.285714 0
1.084507 0.285714 0
1.109155 0.285714 0
1.133803 0.285714 0
1.158451 0.285714 0
1.183099 0.285714 0
1.207746 0.285714 0
1.232394 0.285714 0
1.257042 0.285714 0
1.281690 0.285714 0
1.306338 0.285714 0
1.330986 0.285714 0
1.355634 0.285714 0
1.380282 0.285714 0
1.404930 0.285714 0
1.429577 0.285714 0
1.454225 0.285714 0
1.478873 0.285714 0
1.503521 0.285714 0
1.528169 0.285714 0
1.552817 0.285714 0
1.577465 0.285714 0
[...]
POINT_DATA 5964 

VECTORS velocity float
1.000000 0.000000 0
0.999854 0.000000 0
0.999557 0.000000 0
0.999097 0.000000 0
0.998459 0.000000 0
0.997616 0.000000 0
0.996534 0.000000 0
0.995165 0.000000 0
0.993443 0.000000 0
0.991280 0.000000 0
0.988550 0.000000 0
0.985071 0.000000 0
0.980572 0.000000 0
0.974628 0.000000 0
0.966534 0.000000 0
0.954955 0.000000 0
0.937410 0.000000 0
0.905792 0.000000 0
0.847734 0.000000 0
-0.000000 0.000000 0
-0.000000 0.000000 0
-0.000000 0.000000 0
-0.000000 0.000000 0
-0.000000 0.000000 0
-0.000000 0.000000 0
-0.000000 0.000000 0
-0.000000 0.000000 0
-0.000000 0.000000 0
-0.000000 0.000000 0
-0.000000 0.000000 0
-0.000000 0.000000 0
-0.000000 0.000000 0
-0.000000 0.000000 0
-0.000000 0.000000 0
-0.000000 0.000000 0
-0.000000 0.000000 0
-0.000000 0.000000 0
-0.000000 0.000000 0
-0.000000 0.000000 0
-0.000000 0.000000 0
-0.000000 0.000000 0
-0.000000 0.000000 0
-0.000000 0.000000 0
-0.000000 0.000000 0
-0.000000 0.000000 0
-0.000000 0.000000 0
-0.000000 0.000000 0
-0.000000 0.000000 0
-0.000000 0.000000 0
-0.000000 0.000000 0
-0.000000 0.000000 0
-0.000000 0.000000 0
-0.000001 0.000000 0
-0.000001 0.000000 0
-0.000001 0.000000 0
-0.000001 0.000000 0
-0.000001 0.000000 0
-0.000001 0.000000 0
-0.000001 0.000000 0
-0.000001 0.000000 0
-0.000001 0.000000 0
-0.000001 0.000000 0
-0.000001 0.000000 0
-0.000002 0.000000 0
-0.000002 0.000000 0
-0.000002 0.000000 0
-0.000002 0.000000 0
-0.000002 0.000000 0
-0.000002 0.000000 0
-0.000002 0.000000 0
-0.000003 0.000000 0
-0.000003 0.000000 0
-0.000003 0.000000 0
-0.000003 0.000000 0
-0.000003 0.000000 0
-0.000003 0.000000 0
-0.000003 0.000000 0
-0.000003 0.000000 0
-0.000003 0.000000 0
-0.000003 0.000000 0
-0.000003 0.000000 0
-0.000003 0.000000 0
-0.000003 0.000000 0
-0.000003 0.000000 0
-0.000003 0.000000 0
-0.000003 0.000000 0
-0.000003 0.000000 0
-0.000003 0.000000 0
-0.000003 0.000000 0
-0.000003 0.000000 0
-0.000003 0.000000 0
-0.000003 0.000000 0
-0.000002 0.000000 0
-0.000002 0.000000 0
-0.000002 0.000000 0
-0.000002 0.000000 0
-0.000002 0.000000 0
-0.000002 0.000000 0
-0.000002 0.000000 0
-0.000002 0.000000 0
-0.000002 0.000000 0
-0.000002 0.000000 0
-0.000002 0.000000 0
-0.000002 0.000000 0
-0.000002 0.000000 0
-0.000002 0.000000 0
-0.000002 0.000000 0
-0.000002 0.000000 0
-0.000002 0.000000 0
-0.000002 0.000000 0
-0.000002 0.000000 0
-0.000002 0.000000 0
-0.000002 0.000000 0
-0.000002 0.000000 0
-0.000002 0.000000 0
-0.000002 0.000000 0
-0.000002 0.000000 0
-0.000002 0.000000 0
-0.000002 0.000000 0
-0.000002 0.000000 0
-0.000002 0.000000 0
-0.000002 0.000000 0
-0.000002 0.000000 0
-0.000002 0.000000 0
-0.000002 0.000000 0
-0.000002 0.000000 0
-0.000002 0.000000 0
-0.000002 0.000000 0
-0.000002 0.000000 0
-0.000002 0.000000 0
-0.000002 0.000000 0
-0.000002 0.000000 0
-0.000002 0.000000 0
-0.000002 0.000000 0
-0.000001 0.000000 0
-0.000001 0.000000 0
-0.000001 0.000000 0
-0.000001 0.000000 0
-0.000000 0.000000 0
0.000000 0.000000 0
-0.000000 0.000000 0
0.496783 0.000000 0
1.000000 0.000035 0
0.999855 0.000107 0
0.999559 0.000183 0
0.999101 0.000265 0
0.998466 0.000358 0
0.997627 0.000465 0
0.996551 0.000592 0
0.995189 0.000746 0
0.993478 0.000938 0
0.991330 0.001182 0
0.988621 0.001500 0
0.985173 0.001927 0
0.980724 0.002522 0
0.974864 0.003390 0
0.966920 0.004751 0
0.955663 0.007033 0
0.938851 0.011873 0
0.910213 0.021656 0
0.860915 0.078851 0
0.714933 0.110956 0
0.576557 0.072745 0
0.473077 0.041074 0
0.401134 0.022637 0
0.351242 0.013306 0
0.315591 0.008676 0
0.289100 0.006198 0
0.268677 0.004713 0
0.252436 0.003734 0
0.239191 0.003044 0
0.228168 0.002536 0
0.218841 0.002149 0
0.210837 0.001847 0
0.203891 0.001606 0
0.197801 0.001410 0
0.192417 0.001249 0
0.187621 0.001115 0
0.183320 0.001001 0
0.179443 0.000904 0
0.175928 0.000821 0
0.172728 0.000749 0
0.169803 0.000686 0
0.167119 0.000631 0
0.164649 0.000581 0
0.162370 0.000538 0
0.160262 0.000498 0
0.158309 0.000463 0
0.156496 0.000430 0
0.154811 0.000401 0
0.153244 0.000374 0
0.151786 0.000348 0
0.150430 0.000325 0
0.149169 0.000303 0
0.147999 0.000282 0
0.146915 0.000262 0
0.145914 0.000243 0
0.144993 0.000224 0
0.144151 0.000206 0
0.143388 0.000188 0
0.142703 0.000169 0
0.142096 0.000150 0
0.141567 0.000131 0
0.141118 0.000112 0
0.140747 0.000092 0
0.140454 0.000072 0
0.140238 0.000053 0
0.140095 0.000034 0
0.140021 0.000017 0
0.140009 0.000001 0
0.140049 -0.000012 0
0.140132 -0.000023 0
0.140250 -0.000032 0
0.140393 -0.000039 0
0.140554 -0.000043 0
0.140726 -0.000046 0
0.140902 -0.000047 0
0.141077 -0.000047 0
0.141247 -0.000045 0
0.141408 -0.000043 0
0.141557 -0.000040 0
0.141695 -0.000036 0
0.141818 -0.000033 0
0.141929 -0.000029 0
0.142025 -0.000026 0
0.142110 -0.000023 0
0.142183 -0.000020 0
0.142246 -0.000017 0
0.142300 -0.000015 0
0.142347 -0.000013 0
0.142389 -0.000012 0
0.142427 -0.000011 0
0.142462 -0.000010 0
0.142496 -0.000010 0
0.142530 -0.000010 0
0.142566 -0.000011 0
0.142604 -0.000012 0
0.142647 -0.000013 0
0.142695 -0.000015 0
0.142751 -0.000017 0
0.142814 -0.000020 0
0.142887 -0.000023 0
0.142972 -0.000026 0
0.143070 -0.000030 0
0.143183 -0.000035 0
0.143313 -0.000040 0
0.143464 -0.000046 0
0.143638 -0.000053 0
0.143838 -0.000062 0
0.144069 -0.000071 0
0.144335 -0.000082 0
0.144641 -0.000094 0
0.144994 -0.000108 0
0.145400 -0.000125 0
0.145868 -0.000144 0
0.146407 -0.000166 0
0.147028 -0.000191 0
0.147745 -0.000221 0
0.148572 -0.000255 0
0.149528 -0.000295 0
0.150633 -0.000342 0
0.151914 -0.000397 0
0.153399 -0.000461 0
0.155124 -0.000537 0
0.157134 -0.000628 0
0.159480 -0.000736 0
0.162229 -0.000866 0
0.165460 -0.001023 0
0.169275 -0.001217 0
0.173806 -0.001456 0
0.179220 -0.001758 0
0.185741 -0.002143 0
0.193671 -0.002646 0
0.203433 -0.003319 0
0.215628 -0.004248 0
0.231152 -0.005581 0
0.251393 -0.007588 0
0.278621 -0.010819 0
0.316815 -0.016448 0
0.373272 -0.027947 0
0.464881 -0.050379 0
0.618017 -0.167321 0
0.993884 -0.269717 0
0.993884 -0.134859 0
1.000000 0.000070 0
0.999856 0.000213 0
0.999564 0.000364 0
0.999113 0.000528 0
0.998487 0.000712 0
0.997661 0.000925 0
0.996601 0.001178 0
0.995262 0.001484 0
0.993582 0.001864 0
0.991478 0.002346 0
0.988831 0.002974 0
0.985477 0.003814 0
0.981174 0.004979 0
0.975554 0.006667 0
0.968042 0.009274 0
0.957670 0.013557 0
0.942811 0.021952 0
0.920727 0.037643 0
0.888410 0.094319 0
0.891050 0.137343 0
0.842215 0.116815 0
0.771701 0.084728 0
0.701324 0.058846 0
0.640042 0.041317 0
0.589404 0.030014 0
0.548097 0.022659 0
0.514246 0.017709 0
0.486193 0.014241 0
0.462651 0.011721 0
0.442649 0.009829 0
0.425461 0.008371 0
0.410542 0.007221 0
0.397474 0.006297 0
0.385936 0.005542 0
0.375675 0.004917 0
0.366493 0.004393 0
0.358228 0.003950 0
0.350752 0.003570 0
0.343959 0.003243 0
0.337761 0.002959 0
0.332086 0.002709 0
0.326874 0.002489 0
0.322072 0.002294 0
0.317638 0.002119 0
0.313536 0.001962 0
0.309735 0.001819 0
0.306207 0.001690 0
0.302930 0.001571 0
0.299885 0.001461 0
0.297056 0.001359 0
0.294427 0.001264 0
0.291989 0.001174 0
0.289730 0.001089 0
0.287644 0.001007 0
0.285724 0.000928 0
0.283964 0.000851 0
0.282363 0.000775 0
0.280918 0.000700 0
0.279628 0.000624 0
0.278491 0.000548 0
0.277507 0.000472 0
0.276676 0.000396 0
0.275994 0.000321 0
0.275459 0.000246 0
0.275066 0.000174 0
0.274808 0.000105 0
0.274674 0.000041 0
0.274654 -0.000014 0
0.274728 -0.000060 0
0.274879 -0.000097 0
0.275091 -0.000126 0
0.275347 -0.000147 0
0.275634 -0.000161 0
0.275939 -0.000168 0
0.276251 -0.000170 0
0.276560 -0.000167 0
0.276858 -0.000160 0
0.277140 -0.000150 0
0.277402 -0.000139 0
0.277641 -0.000126 0
0.277856 -0.000113 0
0.278047 -0.000100 0
0.278214 -0.000088 0
0.278359 -0.000076 0
0.278484 -0.000066 0
0.278591 -0.000057 0
0.278684 -0.000049 0
0.278763 -0.000043 0
0.278833 -0.000038 0
0.278896 -0.000035 0
0.278955 -0.000033 0
0.279011 -0.000033 0
0.279067 -0.000034 0
0.279127 -0.000036 0
0.279191 -0.000039 0
0.279261 -0.000044 0
0.279342 -0.000050 0
0.279433 -0.000057 0
0.279538 -0.000066 0
0.279660 -0.000076 0
0.279800 -0.000088 0
0.279963 -0.000102 0
0.280150 -0.000118 0
0.280367 -0.000136 0
0.280617 -0.000157 0
0.280906 -0.000181 0
0.281238 -0.000208 0
0.281622 -0.000240 0
0.282063 -0.000276 0
0.282571 -0.000318 0
0.283156 -0.000366 0
0.283830 -0.000422 0
0.284605 -0.000486 0
0.285499 -0.000560 0
0.286528 -0.000646 0
0.287715 -0.000746 0
0.289084 -0.000861 0
0.290665 -0.000996 0
0.292491 -0.001152 0
0.294603 -0.001336 0
0.297050 -0.001551 0
0.299889 -0.001804 0
0.303188 -0.002104 0
0.307032 -0.002461 0
0.311521 -0.002888 0
0.316781 -0.003404 0
0.322968 -0.004031 0
0.330278 -0.004803 0
0.338962 -0.005764 0
0.349348 -0.006980 0
0.361867 -0.008545 0
0.377107 -0.010605 0
0.395883 -0.013388 0
0.419358 -0.017274 0
0.449251 -0.022927 0
0.488182 -0.031598 0
0.540324 -0.045716 0
0.612301 -0.071515 0
0.715487 -0.118210 0
0.864964 -0.255504 0
0.994626 -0.363082 0
0.994626 -0.181541 0
1.000000 0.000105 0
0.999860 0.000317 0
0.999574 0.000542 0
0.999133 0.000785 0
0.998522 0.001059 0
0.997715 0.001376 0
0.996683 0.001751 0
0.995382 0.002204 0
0.993753 0.002766 0
0.991720 0.003477 0
0.989175 0.004398 0
0.985971 0.005625 0
0.981898 0.007314 0
0.976655 0.009733 0
0.969799 0.013389 0
0.960694 0.019220 0
0.948456 0.029716 0
0.933060 0.047932 0
0.915125 0.093184 0
0.945380 0.133268 0
0.948691 0.130390 0
0.923023 0.109123 0
0.882088 0.086227 0
0.836723 0.067363 0
0.792704 0.053085 0
0.752406 0.042499 0
0.716464 0.034612 0
0.684743 0.028654 0
0.656826 0.024076 0
0.632229 0.020498 0
0.610488 0.017656 0
0.591189 0.015364 0
0.573980 0.013491 0
0.558563 0.011939 0
0.544688 0.010640 0
0.532147 0.009542 0
0.520766 0.008604 0
0.510398 0.007796 0
0.500921 0.007096 0
0.492231 0.006484 0
0.484239 0.005945 0
0.476871 0.005467 0
0.470062 0.005042 0
0.463758 0.004660 0
0.457912 0.004316 0
0.452483 0.004003 0
0.447437 0.003717 0
0.442745 0.003454 0
0.438380 0.003211 0
0.434321 0.002984 0
0.430549 0.002772 0
0.427048 0.002572 0
0.423807 0.002381 0
0.420813 0.002198 0
0.418058 0.002020 0
0.415536 0.001847 0
0.413241 0.001677 0
0.411171 0.001509 0
0.409322 0.001341 0
0.407691 0.001174 0
0.406277 0.001008 0
0.405077 0.000842 0
0.404085 0.000679 0
0.403296 0.000520 0
0.402702 0.000368 0
0.402290 0.000223 0
0.402047 0.000091 0
0.401959 -0.000025 0
0.402006 -0.000121 0
0.402162 -0.000198 0
0.402404 -0.000258 0
0.402712 -0.000301 0
0.403066 -0.000329 0
0.403448 -0.000344 0
0.403844 -0.000346 0
0.404239 -0.000340 0
0.404625 -0.000326 0
0.404993 -0.000306 0
0.405336 -0.000282 0
0.405651 -0.000256 0
0.405935 -0.000229 0
0.406189 -0.000202 0
0.406412 -0.000177 0
0.406606 -0.000153 0
0.406773 -0.000132 0
0.406918 -0.000114 0
0.407041 -0.000098 0
0.407148 -0.000085 0
0.407241 -0.000076 0
0.407324 -0.000069 0
0.407401 -0.000066 0
0.407473 -0.000064 0
0.407546 -0.000066 0
0.407620 -0.000070 0
0.407700 -0.000077 0
0.407789 -0.000086 0
0.407888 -0.000098 0
0.408001 -0.000112 0
0.408130 -0.000129 0
0.408279 -0.000149 0
0.408452 -0.000172 0
0.408651 -0.000199 0
0.408881 -0.000230 0
0.409147 -0.000266 0
0.409454 -0.000307 0
0.409808 -0.000353 0
0.410216 -0.000407 0
0.410686 -0.000469 0
0.411227 -0.000540 0
0.411850 -0.000622 0
0.412567 -0.000716 0
0.413392 -0.000825 0
0.414343 -0.000950 0
0.415437 -0.001094 0
0.416697 -0.001262 0
0.418148 -0.001455 0
0.419822 -0.001680 0
0.421752 -0.001940 0
0.423979 -0.002244 0
0.426553 -0.002599 0
0.429530 -0.003014 0
0.432978 -0.003502 0
0.436977 -0.004078 0
0.441624 -0.004760 0
0.447036 -0.005575 0
0.453354 -0.006552 0
0.460755 -0.007736 0
0.469455 -0.009181 0
0.479727 -0.010968 0
0.491921 -0.013206 0
0.506486 -0.016054 0
0.524017 -0.019749 0
0.545307 -0.024655 0
0.571441 -0.031357 0
0.603926 -0.040830 0
0.644871 -0.054807 0
0.697223 -0.076396 0
0.764766 -0.112549 0
0.850737 -0.172414 0
0.954464 -0.302143 0
0.995478 -0.394968 0
0.995478 -0.197483 0
1.000000 0.000138 0
0.999864 0.000419 0
0.999587 0.000714 0
0.999161 0.001036 0
0.998569 0.001397 0
0.997791 0.001813 0
0.996796 0.002305 0
0.995546 0.002899 0
0.993987 0.003633 0
0.992049 0.004558 0
0.989641 0.005751 0
0.986635 0.007329 0
0.982864 0.009479 0
0.978102 0.012511 0
0.972053 0.016983 0
0.964402 0.023865 0
0.954931 0.035299 0
0.945050 0.053742 0
0.937306 0.088368 0
0.965755 0.121131 0
0.987945 0.127613 0
0.990149 0.116897 0
0.975866 0.100528 0
0.951863 0.084489 0
0.923376 0.070738 0
0.893624 0.059482 0
0.864389 0.050390 0
0.836582 0.043046 0
0.810615 0.037085 0
0.786618 0.032210 0
0.764566 0.028193 0
0.744360 0.024854 0
0.725859 0.022055 0
0.708916 0.019690 0
0.693383 0.017676 0
0.679122 0.015948 0
0.666004 0.014454 0
0.653916 0.013155 0
0.642755 0.012018 0
0.632432 0.011016 0
0.622866 0.010128 0
0.613987 0.009337 0
0.605734 0.008627 0
0.598053 0.007987 0
0.590897 0.007407 0
0.584225 0.006878 0
0.578000 0.006393 0
0.572192 0.005945 0
0.566774 0.005530 0
0.561721 0.005141 0
0.557015 0.004776 0
0.552637 0.004431 0
0.548575 0.004101 0
0.544815 0.003784 0
0.541348 0.003477 0
0.538167 0.003177 0
0.535265 0.002883 0
0.532638 0.002593 0
0.530281 0.002305 0
0.528191 0.002019 0
0.526364 0.001735 0
0.524794 0.001455 0
0.523477 0.001181 0
0.522402 0.000914 0
0.521560 0.000660 0
0.520937 0.000421 0
0.520515 0.000201 0
0.520278 0.000006 0
0.520210 -0.000158 0
0.520284 -0.000289 0
0.520473 -0.000392 0
0.520752 -0.000466 0
0.521098 -0.000516 0
0.521489 -0.000544 0
0.521908 -0.000552 0
0.522338 -0.000544 0
0.522765 -0.000524 0
0.523180 -0.000493 0
0.523573 -0.000456 0
0.523939 -0.000416 0
0.524273 -0.000373 0
0.524575 -0.000330 0
0.524843 -0.000289 0
0.525079 -0.000251 0
0.525285 -0.000216 0
0.525463 -0.000186 0
0.525616 -0.000160 0
0.525749 -0.000139 0
0.525865 -0.000123 0
0.525967 -0.000112 0
0.526060 -0.000105 0
0.526148 -0.000103 0
0.526233 -0.000105 0
0.526319 -0.000111 0
0.526410 -0.000121 0
0.526508 -0.000135 0
0.526617 -0.000152 0
0.526741 -0.000174 0
0.526882 -0.000201 0
0.527044 -0.000232 0
0.527230 -0.000268 0
0.527445 -0.000309 0
0.527694 -0.000357 0
0.527981 -0.000413 0
0.528312 -0.000476 0
0.528693 -0.000549 0
0.529133 -0.000632 0
0.529640 -0.000728 0
0.530223 -0.000839 0
0.530895 -0.000966 0
0.531667 -0.001112 0
0.532556 -0.001280 0
0.533579 -0.001474 0
0.534757 -0.001697 0
0.536112 -0.001956 0
0.537673 -0.002255 0
0.539471 -0.002602 0
0.541543 -0.003004 0
0.543932 -0.003471 0
0.546688 -0.004017 0
0.549872 -0.004654 0
0.553553 -0.005401 0
0.557813 -0.006280 0
0.562752 -0.007319 0
0.568487 -0.008554 0
0.575160 -0.010030 0
0.582944 -0.011808 0
0.592050 -0.013967 0
0.602737 -0.016615 0
0.615331 -0.019904 0
0.630241 -0.024047 0
0.647987 -0.029355 0
0.669240 -0.036294 0
0.694863 -0.045587 0
0.725965 -0.058393 0
0.763924 -0.076660 0
0.810286 -0.103624 0
0.866217 -0.145661 0
0.929746 -0.209833 0
0.992787 -0.325414 0
0.996298 -0.402699 0
0.996298 -0.201348 0
1.000000 0.000170 0
0.999869 0.000517 0
0.999604 0.000881 0
0.999195 0.001277 0
0.998629 0.001721 0
0.997885 0.002232 0
0.996938 0.002835 0
0.995751 0.003561 0
0.994278 0.004454 0
0.992458 0.005576 0
0.990215 0.007013 0
0.987448 0.008898 0
0.984032 0.011436 0
0.979818 0.014955 0
0.974653 0.020006 0
0.968488 0.027489 0
0.961584 0.039063 0
0.955861 0.056445 0
0.954513 0.083184 0
0.976716 0.108810 0
1.001766 0.118607 0
1.016429 0.114957 0
1.018765 0.104719 0
1.011503 0.092715 0
0.997937 0.081214 0
0.980649 0.070989 0
0.961415 0.062163 0
0.941406 0.054626 0
0.921371 0.048208 0
0.901784 0.042739 0
0.882928 0.038067 0
0.864960 0.034060 0
0.847956 0.030609 0
0.831938 0.027625 0
0.816891 0.025031 0
0.802782 0.022766 0
0.789566 0.020778 0
0.777191 0.019025 0
0.765605 0.017473 0
0.754754 0.016090 0
0.744589 0.014854 0
0.735061 0.013742 0
0.726127 0.012738 0
0.717747 0.011826 0
0.709884 0.010995 0
0.702505 0.010232 0
0.695580 0.009529 0
0.689085 0.008876 0
0.682995 0.008268 0
0.677289 0.007698 0
0.671952 0.007160 0
0.666967 0.006648 0
0.662321 0.006159 0
0.658004 0.005688 0
0.654008 0.005231 0
0.650323 0.004785 0
0.646946 0.004348 0
0.643869 0.003916 0
0.641090 0.003489 0
0.638604 0.003066 0
0.636405 0.002648 0
0.634489 0.002237 0
0.632847 0.001835 0
0.631472 0.001446 0
0.630352 0.001075 0
0.629471 0.000728 0
0.628814 0.000409 0
0.628360 0.000123 0
0.628093 -0.000124 0
0.627999 -0.000326 0
0.628048 -0.000484 0
0.628215 -0.000603 0
0.628472 -0.000685 0
0.628799 -0.000735 0
0.629173 -0.000756 0
0.629576 -0.000754 0
0.629993 -0.000732 0
0.630410 -0.000696 0
0.630815 -0.000648 0
0.631202 -0.000594 0
0.631563 -0.000536 0
0.631895 -0.000478 0
0.632196 -0.000420 0
0.632465 -0.000366 0
0.632703 -0.000317 0
0.632912 -0.000274 0
0.633095 -0.000236 0
0.633254 -0.000205 0
0.633393 -0.000181 0
0.633515 -0.000164 0
0.633626 -0.000153 0
0.633728 -0.000148 0
0.633825 -0.000149 0
0.633921 -0.000156 0
0.634020 -0.000168 0
0.634125 -0.000186 0
0.634239 -0.000210 0
0.634367 -0.000240 0
0.634511 -0.000275 0
0.634675 -0.000317 0
0.634863 -0.000366 0
0.635080 -0.000423 0
0.635330 -0.000489 0
0.635618 -0.000564 0
0.635950 -0.000651 0
0.636332 -0.000750 0
0.636773 -0.000864 0
0.637281 -0.000996 0
0.637865 -0.001146 0
0.638537 -0.001319 0
0.639311 -0.001519 0
0.640201 -0.001748 0
0.641225 -0.002013 0
0.642403 -0.002318 0
0.643758 -0.002670 0
0.645317 -0.003077 0
0.647112 -0.003549 0
0.649179 -0.004095 0
0.651560 -0.004729 0
0.654304 -0.005468 0
0.657468 -0.006329 0
0.661121 -0.007337 0
0.665340 -0.008521 0
0.670220 -0.009916 0
0.675871 -0.011568 0
0.682424 -0.013535 0
0.690038 -0.015893 0
0.698902 -0.018741 0
0.709245 -0.022213 0
0.721347 -0.026490 0
0.735549 -0.031826 0
0.752270 -0.038585 0
0.772017 -0.047296 0
0.795400 -0.058755 0
0.823111 -0.074186 0
0.855841 -0.095533 0
0.893974 -0.125802 0
0.936834 -0.170248 0
0.979940 -0.233547 0
1.013504 -0.334287 0
0.997039 -0.398356 0
0.997039 -0.199176 0
1.000000 0.000201 0
0.999876 0.000610 0
0.999624 0.001040 0
0.999236 0.001507 0
0.998700 0.002029 0
0.997998 0.002630 0
0.997106 0.003336 0
0.995993 0.004184 0
0.994620 0.005223 0
0.992937 0.006520 0
0.990883 0.008170 0
0.988384 0.010315 0
0.985357 0.013164 0
0.981727 0.017041 0
0.977461 0.022456 0
0.972703 0.030178 0
0.968004 0.041398 0
0.965282 0.057157 0
0.967569 0.078295 0
0.984792 0.098307 0
1.007214 0.108432 0
1.025380 0.108686 0
1.035811 0.102907 0
1.038828 0.094549 0
1.036015 0.085641 0
1.028999 0.077122 0
1.019096 0.069344 0
1.007295 0.062387 0
0.994326 0.056221 0
0.980718 0.050778 0
0.966857 0.045979 0
0.953017 0.041745 0
0.939391 0.038005 0
0.926110 0.034694 0
0.913263 0.031758 0
0.900903 0.029145 0
0.889060 0.026814 0
0.877746 0.024728 0
0.866963 0.022855 0
0.856704 0.021167 0
0.846954 0.019640 0
0.837699 0.018253 0
0.828920 0.016990 0
0.820598 0.015833 0
0.812715 0.014769 0
0.805252 0.013787 0
0.798192 0.012875 0
0.791520 0.012024 0
0.785221 0.011227 0
0.779282 0.010475 0
0.773691 0.009762 0
0.768438 0.009082 0
0.763515 0.008429 0
0.758913 0.007799 0
0.754627 0.007187 0
0.750652 0.006588 0
0.746982 0.006001 0
0.743615 0.005421 0
0.740545 0.004848 0
0.737770 0.004282 0
0.735285 0.003723 0
0.733085 0.003173 0
0.731162 0.002637 0
0.729510 0.002120 0
0.728116 0.001626 0
0.726968 0.001164 0
0.726050 0.000738 0
0.725346 0.000354 0
0.724834 0.000017 0
0.724507 -0.000268 0
0.724348 -0.000496 0
0.724329 -0.000671 0
0.724427 -0.000798 0
0.724618 -0.000882 0
0.724881 -0.000928 0
0.725197 -0.000940 0
0.725546 -0.000926 0
0.725915 -0.000891 0
0.726290 -0.000839 0
0.726661 -0.000777 0
0.727019 -0.000708 0
0.727357 -0.000636 0
0.727671 -0.000564 0
0.727959 -0.000496 0
0.728219 -0.000432 0
0.728452 -0.000375 0
0.728659 -0.000325 0
0.728842 -0.000283 0
0.729003 -0.000250 0
0.729146 -0.000225 0
0.729275 -0.000208 0
0.729392 -0.000199 0
0.729502 -0.000198 0
0.729609 -0.000205 0
0.729715 -0.000219 0
0.729824 -0.000240 0
0.729941 -0.000269 0
0.730069 -0.000305 0
0.730211 -0.000349 0
0.730371 -0.000402 0
0.730554 -0.000463 0
0.730763 -0.000535 0
0.731002 -0.000617 0
0.731278 -0.000712 0
0.731596 -0.000821 0
0.731962 -0.000946 0
0.732383 -0.001090 0
0.732868 -0.001256 0
0.733425 -0.001446 0
0.734067 -0.001664 0
0.734805 -0.001915 0
0.735654 -0.002204 0
0.736630 -0.002537 0
0.737753 -0.002921 0
0.739044 -0.003364 0
0.740528 -0.003875 0
0.742236 -0.004467 0
0.744200 -0.005152 0