# vtk DataFile Version 2.0
generated by CFD-lab course output (written by Tobias Neckel) 
ASCII

DATASET STRUCTURED_GRID
DIMENSIONS  142 42 1 
POINTS 5964 float

0.000000 0.250000 0
0.024648 0.250000 0
0.049296 0.250000 0
0.073944 0.250000 0
0.098592 0.250000 0
0.123239 0.250000 0
0.147887 0.250000 0
0.172535 0.250000 0
0.197183 0.250000 0
0.221831 0.250000 0
0.246479 0.250000 0
0.271127 0.250000 0
0.295775 0.250000 0
0.320423 0.250000 0
0.345070 0.250000 0
0.369718 0.250000 0
0.394366 0.250000 0
0.419014 0.250000 0
0.443662 0.250000 0
0.468310 0.250000 0
0.492958 0.250000 0
0.517606 0.250000 0
0.542254 0.250000 0
0.566901 0.250000 0
0.591549 0.250000 0
0.616197 0.250000 0
0.640845 0.250000 0
0.665493 0.250000 0
0.690141 0.250000 0
0.714789 0.250000 0
0.739437 0.250000 0
0.764085 0.250000 0
0.788732 0.250000 0
0.813380 0.250000 0
0.838028 0.250000 0
0.862676 0.250000 0
0.887324 0.250000 0
0.911972 0.250000 0
0.936620 0.250000 0
0.961268 0.250000 0
0.985915 0.250000 0
1.010563 0.250000 0
1.035211 0.250000 0
1.059859 0.250000 0
1.084507 0.250000 0
1.109155 0.250000 0
1.133803 0.250000 0
1.158451 0.250000 0
1.183099 0.250000 0
1.207746 0.250000 0
1.232394 0.250000 0
1.257042 0.250000 0
1.281690 0.250000 0
1.306338 0.250000 0
1.330986 0.250000 0
1.355634 0.250000 0
1.380282 0.250000 0
1.404930 0.250000 0
1.429577 0.250000 0
1.454225 0.250000 0
1.478873 0.250000 0
1.503521 0.250000 0
1.528169 0.250000 0
1.552817 0.250000 0
1.577465 0.250000 0
1.602113 0.250000 0
1.626761 0.250000 0
1.651408 0.250000 0
1.676056 0.250000 0
1.700704 0.250000 0
1.725352 0.250000 0
1.750000 0.250000 0
1.774648 0.250000 0
1.799296 0.250000 0
1.823944 0.250000 0
1.848592 0.250000 0
1.873239 0.250000 0
1.897887 0.250000 0
1.922535 0.250000 0
1.947183 0.250000 0
1.971831 0.250000 0
1.996479 0.250000 0
2.021127 0.250000 0
2.045775 0.250000 0
2.070423 0.250000 0
2.095070 0.250000 0
2.119718 0.250000 0
2.144366 0.250000 0
2.169014 0.250000 0
2.193662 0.250000 0
2.218310 0.250000 0
2.242958 0.250000 0
2.267606 0.250000 0
2.292254 0.250000 0
2.316901 0.250000 0
2.341549 0.250000 0
2.366197 0.250000 0
2.390845 0.250000 0
2.415493 0.250000 0
2.440141 0.250000 0
2.464789 0.250000 0
2.489437 0.250000 0
2.514085 0.250000 0
2.538732 0.250000 0
2.563380 0.250000 0
2.588028 0.250000 0
2.612676 0.250000 0
2.637324 0.250000 0
2.661972 0.250000 0
2.686620 0.250000 0
2.711268 0.250000 0
2.735915 0.250000 0
2.760563 0.250000 0
2.785211 0.250000 0
2.809859 0.250000 0
2.834507 0.250000 0
2.859155 0.250000 0
2.883803 0.250000 0
2.908451 0.250000 0
2.933099 0.250000 0
2.957746 0.250000 0
2.982394 0.250000 0
3.007042 0.250000 0
3.031690 0.250000 0
3.056338 0.250000 0
3.080986 0.250000 0
3.105634 0.250000 0
3.130282 0.250000 0
3.154930 0.250000 0
3.179577 0.250000 0
3.204225 0.250000 0
3.228873 0.250000 0
3.253521 0.250000 0
3.278169 0.250000 0
3.302817 0.250000 0
3.327465 0.250000 0
3.352113 0.250000 0
3.376761 0.250000 0
3.401408 0.250000 0
3.426056 0.250000 0
3.450704 0.250000 0
3.475352 0.250000 0
0.000000 0.261905 0
0.024648 0.261905 0
0.049296 0.261905 0
0.073944 0.261905 0
0.098592 0.261905 0
0.123239 0.261905 0
0.147887 0.261905 0
0.172535 0.261905 0
0.197183 0.261905 0
0.221831 0.261905 0
0.246479 0.261905 0
0.271127 0.261905 0
0.295775 0.261905 0
0.320423 0.261905 0
0.345070 0.261905 0
0.369718 0.261905 0
0.394366 0.261905 0
0.419014 0.261905 0
0.443662 0.261905 0
0.468310 0.261905 0
0.492958 0.261905 0
0.517606 0.261905 0
0.542254 0.261905 0
0.566901 0.261905 0
0.591549 0.261905 0
0.616197 0.261905 0
0.640845 0.261905 0
0.665493 0.261905 0
0.690141 0.261905 0
0.714789 0.261905 0
0.739437 0.261905 0
0.764085 0.261905 0
0.788732 0.261905 0
0.813380 0.261905 0
0.838028 0.261905 0
0.862676 0.261905 0
0.887324 0.261905 0
0.911972 0.261905 0
0.936620 0.261905 0
0.961268 0.261905 0
0.985915 0.261905 0
1.010563 0.261905 0
1.035211 0.261905 0
1.059859 0.261905 0
1.084507 0.261905 0
1.109155 0.261905 0
1.133803 0.261905 0
1.158451 0.261905 0
1.183099 0.261905 0
1.207746 0.261905 0
1.232394 0.261905 0
1.257042 0.261905 0
1.281690 0.261905 0
1.306338 0.261905 0
1.330986 0.261905 0
1.355634 0.261905 0
1.380282 0.261905 0
1.404930 0.261905 0
1.429577 0.261905 0
1.454225 0.261905 0
1.478873 0.261905 0
1.503521 0.261905 0
1.528169 0.261905 0
1.552817 0.261905 0
1.577465 0.261905 0
1.602113 0.261905 0
1.626761 0.261905 0
1.651408 0.261905 0
1.676056 0.261905 0
1.700704 0.261905 0
1.725352 0.261905 0
1.750000 0.261905 0
1.774648 0.261905 0
1.799296 0.261905 0
1.823944 0.261905 0
1.848592 0.261905 0
1.873239 0.261905 0
1.897887 0.261905 0
1.922535 0.261905 0
1.947183 0.261905 0
1.971831 0.261905 0
1.996479 0.261905 0
2.021127 0.261905 0
2.045775 0.261905 0
2.070423 0.261905 0
2.095070 0.261905 0
2.119718 0.261905 0
2.144366 0.261905 0
2.169014 0.261905 0
2.193662 0.261905 0
2.218310 0.261905 0
2.242958 0.261905 0
2.267606 0.261905 0
2.292254 0.261905 0
2.316901 0.261905 0
2.341549 0.261905 0
2.366197 0.261905 0
2.390845 0.261905 0
2.415493 0.261905 0
2.440141 0.261905 0
2.464789 0.261905 0
2.489437 0.261905 0
2.514085 0.261905 0
2.538732 0.261905 0
2.563380 0.261905 0
2.588028 0.261905 0
2.612676 0.261905 0
2.637324 0.261905 0
2.661972 0.261905 0
2.686620 0.261905 0
2.711268 0.261905 0
2.735915 0.261905 0
2.760563 0.261905 0
2.785211 0.261905 0
2.809859 0.261905 0
2.834507 0.261905 0
2.859155 0.261905 0
2.883803 0.261905 0
2.908451 0.261905 0
2.933099 0.261905 0
2.957746 0.261905 0
2.982394 0.261905 0
3.007042 0.261905 0
3.031690 0.261905 0
3.056338 0.261905 0
3.080986 0.261905 0
3.105634 0.261905 0
3.130282 0.261905 0
3.154930 0.261905 0
3.179577 0.261905 0
3.204225 0.261905 0
3.228873 0.261905 0
3.253521 0.261905 0
3.278169 0.261905 0
3.302817 0.261905 0
3.327465 0.261905 0
3.352113 0.261905 0
3.376761 0.261905 0
3.401408 0.261905 0
3.426056 0.261905 0
3.450704 0.261905 0
3.475352 0.261905 0
0.000000 0.273810 0
0.024648 0.273810 0
0.049296 0.273810 0
0.073944 0.273810 0
0.098592 0.273810 0
0.123239 0.273810 0
0.147887 0.273810 0
0.172535 0.273810 0
0.197183 0.273810 0
0.221831 0.273810 0
0.246479 0.273810 0
0.271127 0.273810 0
0.295775 0.273810 0
0.320423 0.273810 0
0.345070 0.273810 0
0.369718 0.273810 0
0.394366 0.273810 0
0.419014 0.273810 0
0.443662 0.273810 0
0.468310 0.273810 0
0.492958 0.273810 0
0.517606 0.273810 0
0.542254 0.273810 0
0.566901 0.273810 0
0.591549 0.273810 0
0.616197 0.273810 0
0.640845 0.273810 0
0.665493 0.273810 0
0.690141 0.273810 0
0.714789 0.273810 0
0.739437 0.273810 0
0.764085 0.273810 0
0.788732 0.273810 0
0.813380 0.273810 0
0.838028 0.273810 0
0.862676 0.273810 0
0.887324 0.273810 0
0.911972 0.273810 0
0.936620 0.273810 0
0.961268 0.273810 0
0.985915 0.273810 0
1.010563 0.273810 0
1.035211 0.273810 0
1.059859 0.273810 0
1.084507 0.273810 0
1.109155 0.273810 0
1.133803 0.273810 0
1.158451 0.273810 0
1.183099 0.273810 0
1.207746 0.273810 0
1.232394 0.273810 0
1.257042 0.273810 0
1.281690 0.273810 0
1.306338 0.273810 0
1.330986 0.273810 0
1.355634 0.273810 0
1.380282 0.273810 0
1.404930 0.273810 0
1.429577 0.273810 0
1.454225 0.273810 0
1.478873 0.273810 0
1.503521 0.273810 0
1.528169 0.273810 0
1.552817 0.273810 0
1.577465 0.273810 0
1.602113 0.273810 0
1.626761 0.273810 0
1.651408 0.273810 0
1.676056 0.273810 0
1.700704 0.273810 0
1.725352 0.273810 0
1.750000 0.273810 0
1.774648 0.273810 0
1.799296 0.273810 0
1.823944 0.273810 0
1.848592 0.273810 0
1.873239 0.273810 0
1.897887 0.273810 0
1.922535 0.273810 0
1.947183 0.273810 0
1.971831 0.273810 0
1.996479 0.273810 0
2.021127 0.273810 0
2.045775 0.273810 0
2.070423 0.273810 0
2.095070 0.273810 0
2.119718 0.273810 0
2.144366 0.273810 0
2.169014 0.273810 0
2.193662 0.273810 0
2.218310 0.273810 0
2.242958 0.273810 0
2.267606 0.273810 0
2.292254 0.273810 0
2.316901 0.273810 0
2.341549 0.273810 0
2.366197 0.273810 0
2.390845 0.273810 0
2.415493 0.273810 0
2.440141 0.273810 0
2.464789 0.273810 0
2.489437 0.273810 0
2.514085 0.273810 0
2.538732 0.273810 0
2.563380 0.273810 0
2.588028 0.273810 0
2.612676 0.273810 0
2.637324 0.273810 0
2.661972 0.273810 0
2.686620 0.273810 0
2.711268 0.273810 0
2.735915 0.273810 0
2.760563 0.273810 0
2.785211 0.273810 0
2.809859 0.273810 0
2.834507 0.273810 0
2.859155 0.273810 0
2.883803 0.273810 0
2.908451 0.273810 0
2.933099 0.273810 0
2.957746 0.273810 0
2.982394 0.273810 0
3.007042 0.273810 0
3.031690 0.273810 0
3.056338 0.273810 0
3.080986 0.273810 0
3.105634 0.273810 0
3.130282 0.273810 0
3.154930 0.273810 0
3.179577 0.273810 0
3.204225 0.273810 0
3.228873 0.273810 0
3.253521 0.273810 0
3.278169 0.273810 0
3.302817 0.273810 0
3.327465 0.273810 0
3.352113 0.273810 0
3.376761 0.273810 0
3.401408 0.273810 0
3.426056 0.273810 0
3.450704 0.273810 0
3.475352 0.273810 0
0.000000 0.285714 0
0.024648 0.285714 0
0.049296 0.285714 0
0.073944 0.285714 0
0.098592 0.285714 0
0.123239 0.285714 0
0.147887 0.285714 0
0.172535 0.285714 0
0.197183 0.285714 0
0.221831 0.285714 0
0.246479 0.285714 0
0.271127 0.285714 0
0.295775 0.285714 0
0.320423 0.285714 0
0.345070 0.285714 0
0.369718 0.285714 0
0.394366 0.285714 0
0.419014 0.285714 0
0.443662 0.285714 0
0.468310 0.285714 0
0.492958 0.285714 0
0.517606 0.285714 0
0.542254 0.285714 0
0.566901 0.285714 0
0.591549 0.285714 0
0.616197 0.285714 0
0.640845 0.285714 0
0.665493 0.285714 0
0.690141 0.285714 0
0.714789 0.285714 0
0.739437 0.285714 0
0.764085 0.285714 0
0.788732 0.285714 0
0.813380 0.285714 0
0.838028 0.285714 0
0.862676 0.285714 0
0.887324 0.285714 0
0.911972 0.285714 0
0.936620 0.285714 0
0.961268 0.285714 0
0.985915 0.285714 0
1.010563 0.285714 0
1.035211 0.285714 0
1.059859 0.285714 0
1.084507 0.285714 0
1.109155 0.285714 0
1.133803 0.285714 0
1.158451 0.285714 0
1.183099 0.285714 0
1.207746 0.285714 0
1.232394 0.285714 0
1.257042 0.285714 0
1.281690 0.285714 0
1.306338 0.285714 0
1.330986 0.285714 0
1.355634 0.285714 0
1.380282 0.285714 0
1.404930 0.285714 0
1.429577 0.285714 0
1.454225 0.285714 0
1.478873 0.285714 0
1.503521 0.285714 0
1.528169 0.285714 0
1.552817 0.285714 0
1.577465 0.285714 0
[...]
POINT_DATA 5964 

VECTORS velocity float
1.000000 0.000000 0
0.999854 0.000000 0
0.999556 0.000000 0
0.999097 0.000000 0
0.998458 0.000000 0
0.997615 0.000000 0
0.996532 0.000000 0
0.995162 0.000000 0
0.993440 0.000000 0
0.991275 0.000000 0
0.988543 0.000000 0
0.985062 0.000000 0
0.980561 0.000000 0
0.974614 0.000000 0
0.966517 0.000000 0
0.954933 0.000000 0
0.937383 0.000000 0
0.905760 0.000000 0
0.847693 0.000000 0
-0.000000 0.000000 0
0.000000 0.000000 0
0.000000 0.000000 0
0.000000 0.000000 0
-0.000000 0.000000 0
-0.000000 0.000000 0
-0.000000 0.000000 0
0.000000 0.000000 0
0.000000 0.000000 0
-0.000000 0.000000 0
-0.000000 0.000000 0
-0.000000 0.000000 0
0.000000 0.000000 0
0.000000 0.000000 0
-0.000000 0.000000 0
-0.000000 0.000000 0
-0.000000 0.000000 0
0.000000 0.000000 0
0.000000 0.000000 0
-0.000000 0.000000 0
-0.000000 0.000000 0
-0.000000 0.000000 0
0.000000 0.000000 0
0.000000 0.000000 0
-0.000000 0.000000 0
-0.000000 0.000000 0
-0.000000 0.000000 0
-0.000000 0.000000 0
-0.000000 0.000000 0
-0.000000 0.000000 0
-0.000000 0.000000 0
-0.000000 0.000000 0
-0.000000 0.000000 0
-0.000000 0.000000 0
-0.000000 0.000000 0
-0.000000 0.000000 0
-0.000000 0.000000 0
-0.000000 0.000000 0
-0.000000 0.000000 0
-0.000000 0.000000 0
-0.000000 0.000000 0
-0.000000 0.000000 0
-0.000000 0.000000 0
-0.000000 0.000000 0
-0.000000 0.000000 0
-0.000000 0.000000 0
-0.000000 0.000000 0
-0.000000 0.000000 0
-0.000000 0.000000 0
-0.000000 0.000000 0
-0.000000 0.000000 0
-0.000000 0.000000 0
-0.000000 0.000000 0
-0.000000 0.000000 0
-0.000000 0.000000 0
-0.000000 0.000000 0
-0.000000 0.000000 0
-0.000000 0.000000 0
-0.000000 0.000000 0
-0.000000 0.000000 0
-0.000000 0.000000 0
-0.000000 0.000000 0
-0.000000 0.000000 0
-0.000000 0.000000 0
-0.000000 0.000000 0
-0.000000 0.000000 0
-0.000000 0.000000 0
-0.000000 0.000000 0
-0.000000 0.000000 0
-0.000000 0.000000 0
-0.000000 0.000000 0
-0.000000 0.000000 0
-0.000000 0.000000 0
-0.000000 0.000000 0
-0.000000 0.000000 0
-0.000000 0.000000 0
-0.000000 0.000000 0
-0.000000 0.000000 0
-0.000000 0.000000 0
-0.000000 0.000000 0
-0.000000 0.000000 0
-0.000000 0.000000 0
-0.000000 0.000000 0
-0.000000 0.000000 0
-0.000000 0.000000 0
-0.000000 0.000000 0
-0.000000 0.000000 0
-0.000000 0.000000 0
-0.000000 0.000000 0
-0.000000 0.000000 0
-0.000000 0.000000 0
-0.000000 0.000000 0
-0.000000 0.000000 0
-0.000000 0.000000 0
-0.000000 0.000000 0
-0.000000 0.000000 0
-0.000000 0.000000 0
-0.000000 0.000000 0
-0.000000 0.000000 0
-0.000000 0.000000 0
-0.000000 0.000000 0
-0.000000 0.000000 0
-0.000000 0.000000 0
-0.000000 0.000000 0
-0.000000 0.000000 0
-0.000000 0.000000 0
-0.000000 0.000000 0
-0.000000 0.000000 0
-0.000000 0.000000 0
-0.000000 0.000000 0
-0.000000 0.000000 0
-0.000000 0.000000 0
-0.000000 0.000000 0
-0.000000 0.000000 0
-0.000000 0.000000 0
-0.000000 0.000000 0
-0.000000 0.000000 0
-0.000000 0.000000 0
-0.000000 0.000000 0
-0.000000 0.000000 0
0.000000 0.000000 0
-0.000000 0.000000 0
0.496415 0.000000 0
1.000000 0.000035 0
0.999854 0.000107 0
0.999558 0.000183 0
0.999101 0.000265 0
0.998465 0.000358 0
0.997626 0.000465 0
0.996549 0.000592 0
0.995186 0.000747 0
0.993474 0.000939 0
0.991325 0.001182 0
0.988614 0.001500 0
0.985165 0.001928 0
0.980713 0.002523 0
0.974850 0.003392 0
0.966903 0.004753 0
0.955641 0.007036 0
0.938825 0.011875 0
0.910180 0.021660 0
0.860874 0.078853 0
0.714886 0.110956 0
0.576504 0.072745 0
0.473017 0.041074 0
0.401066 0.022638 0
0.351163 0.013309 0
0.315500 0.008679 0
0.288994 0.006202 0
0.268554 0.004718 0
0.252294 0.003739 0
0.239027 0.003050 0
0.227980 0.002542 0
0.218624 0.002156 0
0.210590 0.001855 0
0.203609 0.001615 0
0.197480 0.001420 0
0.192052 0.001260 0
0.187208 0.001127 0
0.182854 0.001015 0
0.178917 0.000919 0
0.175337 0.000838 0
0.172064 0.000767 0
0.169059 0.000706 0
0.166287 0.000652 0
0.163720 0.000605 0
0.161335 0.000564 0
0.159110 0.000526 0
0.157029 0.000493 0
0.155075 0.000464 0
0.153238 0.000437 0
0.151504 0.000413 0
0.149864 0.000391 0
0.148310 0.000372 0
0.146834 0.000353 0
0.145429 0.000337 0
0.144090 0.000322 0
0.142811 0.000308 0
0.141587 0.000295 0
0.140414 0.000283 0
0.139290 0.000272 0
0.138209 0.000261 0
0.137169 0.000252 0
0.136168 0.000242 0
0.135203 0.000234 0
0.134272 0.000226 0
0.133372 0.000218 0
0.132502 0.000211 0
0.131661 0.000205 0
0.130846 0.000198 0
0.130056 0.000192 0
0.129291 0.000187 0
0.128547 0.000181 0
0.127826 0.000176 0
0.127125 0.000171 0
0.126444 0.000166 0
0.125782 0.000162 0
0.125138 0.000157 0
0.124511 0.000153 0
0.123901 0.000149 0
0.123307 0.000145 0
0.122729 0.000141 0
0.122166 0.000138 0
0.121617 0.000134 0
0.121082 0.000131 0
0.120562 0.000127 0
0.120055 0.000124 0
0.119561 0.000121 0
0.119080 0.000117 0
0.118613 0.000114 0
0.118158 0.000111 0
0.117716 0.000107 0
0.117287 0.000104 0
0.116871 0.000101 0
0.116469 0.000097 0
0.116080 0.000094 0
0.115704 0.000090 0
0.115344 0.000086 0
0.114998 0.000082 0
0.114668 0.000078 0
0.114354 0.000074 0
0.114059 0.000069 0
0.113782 0.000063 0
0.113526 0.000058 0
0.113292 0.000051 0
0.113082 0.000045 0
0.112899 0.000037 0
0.112745 0.000029 0
0.112624 0.000019 0
0.112540 0.000008 0
0.112497 -0.000004 0
0.112503 -0.000018 0
0.112563 -0.000033 0
0.112683 -0.000051 0
0.112869 -0.000070 0
0.113131 -0.000092 0
0.113479 -0.000118 0
0.113926 -0.000147 0
0.114487 -0.000181 0
0.115179 -0.000220 0
0.116023 -0.000266 0
0.117041 -0.000319 0
0.118264 -0.000380 0
0.119724 -0.000453 0
0.121462 -0.000539 0
0.123529 -0.000641 0
0.125984 -0.000762 0
0.128902 -0.000909 0
0.132376 -0.001087 0
0.136524 -0.001306 0
0.141494 -0.001577 0
0.147483 -0.001919 0
0.154747 -0.002357 0
0.163633 -0.002929 0
0.174619 -0.003693 0
0.188381 -0.004741 0
0.205911 -0.006232 0
0.228718 -0.008449 0
0.259207 -0.011949 0
0.301490 -0.017895 0
0.362894 -0.029681 0
0.460059 -0.052060 0
0.617983 -0.166962 0
0.993137 -0.267489 0
0.993137 -0.133745 0
1.000000 0.000070 0
0.999856 0.000213 0
0.999564 0.000364 0
0.999113 0.000528 0
0.998486 0.000712 0
0.997659 0.000926 0
0.996599 0.001178 0
0.995259 0.001485 0
0.993579 0.001865 0
0.991473 0.002348 0
0.988825 0.002975 0
0.985469 0.003816 0
0.981163 0.004982 0
0.975541 0.006670 0
0.968025 0.009278 0
0.957649 0.013561 0
0.942785 0.021957 0
0.920694 0.037650 0
0.888370 0.094326 0
0.890999 0.137349 0
0.842149 0.116821 0
0.771618 0.084735 0
0.701222 0.058855 0
0.639920 0.041328 0
0.589257 0.030027 0
0.547923 0.022674 0
0.514040 0.017726 0
0.485953 0.014261 0
0.462370 0.011743 0
0.442322 0.009855 0
0.425083 0.008399 0
0.410105 0.007253 0
0.396971 0.006332 0
0.385359 0.005582 0
0.375016 0.004961 0
0.365741 0.004443 0
0.357374 0.004004 0
0.349784 0.003631 0
0.342863 0.003310 0
0.336524 0.003032 0
0.330692 0.002790 0
0.325306 0.002579 0
0.320313 0.002392 0
0.315668 0.002227 0
0.311334 0.002080 0
0.307277 0.001949 0
0.303468 0.001831 0
0.299883 0.001725 0
0.296501 0.001629 0
0.293303 0.001543 0
0.290272 0.001464 0
0.287393 0.001391 0
0.284653 0.001325 0
0.282042 0.001265 0
0.279548 0.001209 0
0.277163 0.001157 0
0.274879 0.001110 0
0.272688 0.001065 0
0.270584 0.001024 0
0.268560 0.000986 0
0.266612 0.000950 0
0.264734 0.000916 0
0.262922 0.000884 0
0.261173 0.000855 0
0.259482 0.000827 0
0.257846 0.000800 0
0.256262 0.000775 0
0.254728 0.000751 0
0.253241 0.000729 0
0.251797 0.000707 0
0.250396 0.000687 0
0.249036 0.000667 0
0.247713 0.000649 0
0.246428 0.000631 0
0.245178 0.000614 0
0.243961 0.000597 0
0.242777 0.000582 0
0.241624 0.000566 0
0.240501 0.000551 0
0.239407 0.000537 0
0.238342 0.000523 0
0.237303 0.000510 0
0.236292 0.000496 0
0.235307 0.000483 0
0.234347 0.000471 0
0.233412 0.000458 0
0.232502 0.000446 0
0.231617 0.000433 0
0.230756 0.000421 0
0.229919 0.000408 0
0.229107 0.000395 0
0.228320 0.000382 0
0.227558 0.000369 0
0.226822 0.000355 0
0.226113 0.000341 0
0.225431 0.000326 0
0.224778 0.000311 0
0.224156 0.000294 0
0.223565 0.000276 0
0.223009 0.000257 0
0.222490 0.000237 0
0.222010 0.000214 0
0.221574 0.000190 0
0.221184 0.000163 0
0.220847 0.000133 0
0.220568 0.000099 0
0.220352 0.000061 0
0.220209 0.000018 0
0.220147 -0.000032 0
0.220182 -0.000087 0
0.220321 -0.000148 0
0.220578 -0.000216 0
0.220967 -0.000295 0
0.221506 -0.000384 0
0.222216 -0.000487 0
0.223123 -0.000605 0
0.224254 -0.000742 0
0.225644 -0.000899 0
0.227332 -0.001082 0
0.229367 -0.001296 0
0.231803 -0.001545 0
0.234708 -0.001838 0
0.238161 -0.002184 0
0.242261 -0.002595 0
0.247125 -0.003087 0
0.252900 -0.003681 0
0.259769 -0.004404 0
0.267960 -0.005293 0
0.277766 -0.006401 0
0.289567 -0.007800 0
0.303861 -0.009598 0
0.321319 -0.011953 0
0.342857 -0.015114 0
0.369765 -0.019483 0
0.403908 -0.025741 0
0.448061 -0.035148 0
0.506531 -0.050080 0
0.585957 -0.076588 0
0.697596 -0.123206 0
0.855456 -0.257473 0
0.993834 -0.362393 0
0.993834 -0.181197 0
1.000000 0.000105 0
0.999859 0.000318 0
0.999574 0.000542 0
0.999133 0.000786 0
0.998521 0.001060 0
0.997714 0.001377 0
0.996681 0.001752 0
0.995379 0.002205 0
0.993750 0.002767 0
0.991715 0.003479 0
0.989168 0.004400 0
0.985962 0.005628 0
0.981887 0.007318 0
0.976642 0.009737 0
0.969782 0.013395 0
0.960673 0.019226 0
0.948431 0.029724 0
0.933028 0.047942 0
0.915086 0.093196 0
0.945330 0.133281 0
0.948626 0.130405 0
0.922939 0.109141 0
0.881981 0.086247 0
0.836589 0.067387 0
0.792539 0.053113 0
0.752206 0.042531 0
0.716223 0.034649 0
0.684455 0.028696 0
0.656485 0.024123 0
0.631828 0.020552 0
0.610017 0.017717 0
0.590640 0.015433 0
0.573343 0.013567 0
0.557826 0.012025 0
0.543839 0.010736 0
0.531172 0.009648 0
0.519650 0.008722 0
0.509125 0.007928 0
0.499472 0.007242 0
0.490585 0.006646 0
0.482375 0.006124 0
0.474764 0.005665 0
0.467686 0.005260 0
0.461084 0.004900 0
0.454909 0.004580 0
0.449117 0.004293 0
0.443671 0.004035 0
0.438538 0.003802 0
0.433689 0.003591 0
0.429098 0.003400 0
0.424743 0.003226 0
0.420604 0.003067 0
0.416663 0.002921 0
0.412904 0.002787 0
0.409313 0.002664 0
0.405877 0.002550 0
0.402585 0.002444 0
0.399426 0.002346 0
0.396392 0.002255 0
0.393474 0.002170 0
0.390664 0.002090 0
0.387955 0.002016 0
0.385341 0.001946 0
0.382817 0.001880 0
0.380377 0.001818 0
0.378017 0.001760 0
0.375731 0.001704 0
0.373517 0.001652 0
0.371370 0.001602 0
0.369286 0.001555 0
0.367264 0.001510 0
0.365299 0.001467 0
0.363390 0.001426 0
0.361534 0.001387 0
0.359728 0.001349 0
0.357971 0.001313 0
0.356260 0.001278 0
0.354594 0.001244 0
0.352971 0.001212 0
0.351390 0.001181 0
0.349850 0.001150 0
0.348348 0.001121 0
0.346885 0.001092 0
0.345459 0.001063 0
0.344069 0.001036 0
0.342715 0.001008 0
0.341396 0.000981 0
0.340112 0.000954 0
0.338862 0.000927 0
0.337647 0.000900 0
0.336466 0.000873 0
0.335319 0.000845 0
0.334208 0.000817 0
0.333133 0.000788 0
0.332094 0.000758 0
0.331093 0.000727 0
0.330132 0.000694 0
0.329212 0.000659 0
0.328335 0.000622 0
0.327505 0.000583 0
0.326724 0.000540 0
0.325996 0.000494 0
0.325325 0.000443 0
0.324717 0.000388 0
0.324177 0.000326 0
0.323713 0.000258 0
0.323333 0.000182 0
0.323046 0.000095 0
0.322863 -0.000005 0
0.322801 -0.000118 0
0.322878 -0.000242 0
0.323107 -0.000382 0
0.323507 -0.000540 0
0.324101 -0.000721 0
0.324915 -0.000928 0
0.325980 -0.001165 0
0.327331 -0.001438 0
0.329010 -0.001752 0
0.331068 -0.002117 0
0.333560 -0.002540 0
0.336556 -0.003033 0
0.340137 -0.003610 0
0.344397 -0.004289 0
0.349454 -0.005092 0
0.355445 -0.006048 0
0.362541 -0.007194 0
0.370951 -0.008579 0
0.380930 -0.010270 0
0.392804 -0.012356 0
0.406981 -0.014961 0
0.423987 -0.018265 0
0.444504 -0.022527 0
0.469437 -0.028140 0
0.499999 -0.035720 0
0.537842 -0.046266 0
0.585233 -0.061515 0
0.645283 -0.084498 0
0.721908 -0.121965 0
0.818651 -0.182227 0
0.934799 -0.310042 0
0.994605 -0.401160 0
0.994605 -0.200580 0
1.000000 0.000138 0
0.999864 0.000419 0
0.999587 0.000715 0
0.999160 0.001037 0
0.998568 0.001398 0
0.997789 0.001814 0
0.996794 0.002306 0
0.995543 0.002901 0
0.993983 0.003635 0
0.992045 0.004560 0
0.989634 0.005754 0
0.986627 0.007333 0
0.982854 0.009484 0
0.978089 0.012517 0
0.972036 0.016991 0
0.964382 0.023874 0
0.954906 0.035310 0
0.945019 0.053755 0
0.937268 0.088384 0
0.965707 0.121150 0
0.987884 0.127636 0
0.990071 0.116924 0
0.975766 0.100561 0
0.951736 0.084528 0
0.923218 0.070783 0
0.893429 0.059534 0
0.864150 0.050450 0
0.836292 0.043114 0
0.810267 0.037162 0
0.786201 0.032298 0
0.764073 0.028292 0
0.743777 0.024966 0
0.725177 0.022181 0
0.708120 0.019832 0
0.692458 0.017835 0
0.678050 0.016126 0
0.664768 0.014653 0
0.652496 0.013377 0
0.641128 0.012265 0
0.630573 0.011290 0
0.620748 0.010432 0
0.611581 0.009673 0
0.603007 0.008999 0
0.594969 0.008398 0
0.587417 0.007860 0
0.580306 0.007377 0
0.573597 0.006941 0
0.567253 0.006546 0
0.561244 0.006189 0
0.555542 0.005863 0
0.550120 0.005566 0
0.544957 0.005294 0
0.540033 0.005045 0
0.535329 0.004815 0
0.530829 0.004603 0
0.526518 0.004407 0
0.522383 0.004225 0
0.518412 0.004056 0
0.514593 0.003899 0
0.510917 0.003752 0
0.507375 0.003615 0
0.503958 0.003487 0
0.500659 0.003366 0
0.497471 0.003252 0
0.494387 0.003145 0
0.491403 0.003044 0
0.488511 0.002949 0
0.485709 0.002858 0
0.482990 0.002772 0
0.480351 0.002690 0
0.477788 0.002613 0
0.475298 0.002538 0
0.472877 0.002468 0
0.470521 0.002400 0
0.468230 0.002335 0
0.465998 0.002272 0
0.463825 0.002212 0
0.461709 0.002155 0
0.459646 0.002099 0
0.457636 0.002045 0
0.455676 0.001992 0
0.453765 0.001942 0
0.451901 0.001892 0
0.450084 0.001843 0
0.448313 0.001796 0
0.446586 0.001749 0
0.444902 0.001703 0
0.443262 0.001657 0
0.441664 0.001611 0
0.440109 0.001565 0
0.438596 0.001519 0
0.437125 0.001473 0
0.435698 0.001425 0
0.434315 0.001377 0
0.432976 0.001326 0
0.431683 0.001274 0
0.430437 0.001219 0
0.429241 0.001162 0
0.428097 0.001101 0
0.427009 0.001036 0
0.425978 0.000966 0
0.425010 0.000890 0
0.424110 0.000807 0
0.423282 0.000717 0
0.422535 0.000617 0
0.421876 0.000507 0
0.421313 0.000383 0
0.420858 0.000245 0
0.420522 0.000087 0
0.420317 -0.000094 0
0.420272 -0.000295 0
0.420401 -0.000521 0
0.420727 -0.000775 0
0.421272 -0.001064 0
0.422067 -0.001394 0
0.423145 -0.001772 0
0.424545 -0.002205 0
0.426314 -0.002704 0
0.428504 -0.003280 0
0.431178 -0.003947 0
0.434410 -0.004721 0
0.438284 -0.005625 0
0.442904 -0.006684 0
0.448389 -0.007931 0
0.454885 -0.009409 0
0.462564 -0.011170 0
0.471636 -0.013286 0
0.482358 -0.015849 0
0.495043 -0.018983 0
0.510080 -0.022861 0
0.527956 -0.027721 0
0.549283 -0.033906 0
0.574840 -0.041918 0
0.605619 -0.052522 0
0.642880 -0.066909 0
0.688182 -0.087041 0
0.743306 -0.116093 0
0.809740 -0.160323 0
0.886245 -0.226031 0
0.965629 -0.342458 0
0.995333 -0.420166 0
0.995333 -0.210083 0
1.000000 0.000170 0
0.999869 0.000517 0
0.999604 0.000882 0
0.999195 0.001278 0
0.998628 0.001722 0
0.997884 0.002234 0
0.996936 0.002837 0
0.995748 0.003563 0
0.994274 0.004457 0
0.992454 0.005579 0
0.990209 0.007017 0
0.987440 0.008903 0
0.984022 0.011442 0
0.979805 0.014962 0
0.974637 0.020015 0
0.968468 0.027500 0
0.961560 0.039076 0
0.955831 0.056461 0
0.954476 0.083204 0
0.976671 0.108834 0
1.001710 0.118637 0
1.016358 0.114993 0
1.018677 0.104763 0
1.011391 0.092767 0
0.997797 0.081275 0
0.980475 0.071061 0
0.961200 0.062246 0
0.941142 0.054721 0
0.921050 0.048317 0
0.901397 0.042863 0
0.882463 0.038207 0
0.864406 0.034219 0
0.847300 0.030789 0
0.831164 0.027828 0
0.815984 0.025259 0
0.801724 0.023022 0
0.788337 0.021065 0
0.775769 0.019346 0
0.763964 0.017831 0
0.752867 0.016489 0
0.742426 0.015297 0
0.732590 0.014234 0
0.723311 0.013284 0
0.714545 0.012430 0
0.706254 0.011662 0
0.698398 0.010968 0
0.690946 0.010339 0
0.683864 0.009768 0
0.677126 0.009248 0
0.670706 0.008773 0
0.664580 0.008338 0
0.658727 0.007939 0
0.653127 0.007572 0
0.647763 0.007233 0
0.642619 0.006920 0
0.637679 0.006629 0
0.632931 0.006360 0
0.628362 0.006109 0
0.623961 0.005875 0
0.619717 0.005656 0
0.615622 0.005452 0
0.611665 0.005260 0
0.607841 0.005079 0
0.604140 0.004909 0
0.600556 0.004749 0
0.597084 0.004598 0
0.593716 0.004454 0
0.590449 0.004319 0
0.587277 0.004190 0
0.584195 0.004067 0
0.581200 0.003951 0
0.578287 0.003839 0
0.575452 0.003733 0
0.572693 0.003631 0
0.570006 0.003534 0
0.567388 0.003440 0
0.564837 0.003350 0
0.562351 0.003263 0
0.559926 0.003179 0
0.557561 0.003098 0
0.555254 0.003020 0
0.553003 0.002944 0
0.550806 0.002869 0
0.548663 0.002797 0
0.546572 0.002725 0
0.544531 0.002656 0
0.542541 0.002587 0
0.540600 0.002518 0
0.538707 0.002450 0
0.536863 0.002382 0
0.535067 0.002314 0
0.533320 0.002245 0
0.531621 0.002175 0
0.529972 0.002103 0
0.528373 0.002029 0
0.526825 0.001953 0
0.525331 0.001873 0
0.523892 0.001789 0
0.522511 0.001701 0
0.521191 0.001607 0
0.519936 0.001505 0
0.518749 0.001396 0
0.517636 0.001278 0
0.516603 0.001148 0
0.515657 0.001006 0
0.514807 0.000848 0
0.514060 0.000673 0
0.513430 0.000477 0
0.512927 0.000256 0
0.512564 0.000003 0
0.512362 -0.000283 0
0.512348 -0.000602 0
0.512542 -0.000961 0
0.512970 -0.001368 0
0.513661 -0.001832 0
0.514651 -0.002362 0
0.515979 -0.002968 0
0.517692 -0.003665 0
0.519845 -0.004466 0
0.522500 -0.005392 0
0.525732 -0.006465 0
0.529624 -0.007712 0
0.534280 -0.009169 0
0.539815 -0.010879 0
0.546372 -0.012894 0
0.554115 -0.015285 0
0.563242 -0.018140 0
0.573990 -0.021575 0
0.586645 -0.025745 0
0.601552 -0.030858 0
0.619130 -0.037200 0
0.639890 -0.045172 0
0.664450 -0.055350 0
0.693552 -0.068583 0
0.728053 -0.086143 0
0.768859 -0.110021 0
0.816671 -0.143209 0
0.871298 -0.191003 0
0.929262 -0.257520 0
0.982187 -0.362731 0
0.995996 -0.429854 0
0.995996 -0.214927 0
1.000000 0.000201 0
0.999876 0.000611 0
0.999624 0.001041 0
0.999236 0.001508 0
0.998699 0.002031 0
0.997996 0.002631 0
0.997104 0.003338 0
0.995990 0.004186 0
0.994616 0.005226 0
0.992932 0.006524 0
0.990877 0.008175 0
0.988376 0.010321 0
0.985348 0.013171 0
0.981715 0.017050 0
0.977446 0.022466 0
0.972684 0.030190 0
0.967981 0.041413 0
0.965254 0.057176 0
0.967534 0.078318 0
0.984749 0.098336 0
1.007163 0.108468 0
1.025317 0.108730 0
1.035732 0.102960 0
1.038731 0.094612 0
1.035895 0.085716 0
1.028851 0.077211 0
1.018912 0.069447 0
1.007069 0.062506 0
0.994050 0.056359 0
0.980383 0.050936 0
0.966451 0.046159 0
0.952529 0.041949 0
0.938808 0.038237 0
0.925418 0.034957 0
0.912445 0.032054 0
0.899941 0.029479 0
0.887933 0.027190 0
0.876432 0.025149 0
0.865437 0.023326 0
0.854937 0.021693 0
0.844917 0.020226 0
0.835357 0.018906 0
0.826236 0.017714 0
0.817530 0.016636 0
0.809219 0.015659 0
0.801278 0.014770 0
0.793686 0.013961 0
0.786423 0.013221 0
0.779468 0.012544 0
0.772802 0.011923 0
0.766408 0.011352 0
0.760269 0.010826 0
0.754369 0.010340 0
0.748695 0.009890 0
0.743232 0.009473 0
0.737968 0.009086 0
0.732892 0.008725 0
0.727992 0.008389 0
0.723260 0.008075 0
0.718685 0.007780 0
0.714258 0.007504 0
0.709973 0.007245 0
0.705821 0.007001 0
0.701796 0.006771 0
0.697891 0.006553 0
0.694100 0.006348 0
0.690419 0.006153 0
0.686841 0.005968 0
0.683361 0.005793 0
0.679977 0.005626 0
0.676682 0.005466 0
0.673474 0.005314 0
0.670349 0.005169 0
0.667303 0.005030 0
0.664334 0.004897 0
0.661438 0.004769 0
0.658612 0.004646 0
0.655855 0.004527 0
0.653164 0.004412 0
0.650537 0.004301 0
0.647971 0.004194 0
0.645466 0.004090 0
0.643019 0.003988 0
0.640629 0.003889 0
0.638294 0.003791 0
0.636014 0.003696 0
0.633788 0.003602 0
0.631614 0.003509 0
0.629493 0.003416 0
0.627423 0.003324 0
0.625406 0.003231 0
0.623440 0.003137 0
0.621526 0.003042 0
0.619665 0.002945 0
0.617857 0.002846 0
0.616104 0.002743 0
0.614408 0.002636 0
0.612770 0.002524 0
0.611194 0.002406 0
0.609681 0.002280 0
0.608237 0.002145 0
0.606864 0.002001 0
0.605569 0.001844 0
0.604356 0.001673 0
0.603234 0.001485 0
0.602211 0.001278 0
0.601295 0.001048 0
0.600498 0.000792 0
0.599832 0.000505 0
0.599311 0.000179 0
0.598946 -0.000191 0
0.598770 -0.000607 0
0.598806 -0.001075 0
0.599078 -0.001605 0
0.599616 -0.002206 0
0.600454 -0.002891 0
0.601632 -0.003674 0
0.603195 -0.004572 0
0.605197 -0.005602 0
0.607698 -0.006790 0
0.610768 -0.008162 0
0.614491 -0.009754 0
0.618961 -0.011606 0
0.624290 -0.013772 0
0.630606 -0.016315 0
0.638064 -0.019318 0
0.646841 -0.022886 0
0.657147 -0.027152 0
0.669231 -0.032296 0
0.683386 -0.038551 0
0.699954 -0.046238 0