# vtk DataFile Version 2.0
generated by CFD-lab course output (written by Tobias Neckel) 
ASCII

DATASET STRUCTURED_GRID
DIMENSIONS  142 42 1 
POINTS 5964 float

0.000000 0.250000 0
0.024648 0.250000 0
0.049296 0.250000 0
0.073944 0.250000 0
0.098592 0.250000 0
0.123239 0.250000 0
0.147887 0.250000 0
0.172535 0.250000 0
0.197183 0.250000 0
0.221831 0.250000 0
0.246479 0.250000 0
0.271127 0.250000 0
0.295775 0.250000 0
0.320423 0.250000 0
0.345070 0.250000 0
0.369718 0.250000 0
0.394366 0.250000 0
0.419014 0.250000 0
0.443662 0.250000 0
0.468310 0.250000 0
0.492958 0.250000 0
0.517606 0.250000 0
0.542254 0.250000 0
0.566901 0.250000 0
0.591549 0.250000 0
0.616197 0.250000 0
0.640845 0.250000 0
0.665493 0.250000 0
0.690141 0.250000 0
0.714789 0.250000 0
0.739437 0.250000 0
0.764085 0.250000 0
0.788732 0.250000 0
0.813380 0.250000 0
0.838028 0.250000 0
0.862676 0.250000 0
0.887324 0.250000 0
0.911972 0.250000 0
0.936620 0.250000 0
0.961268 0.250000 0
0.985915 0.250000 0
1.010563 0.250000 0
1.035211 0.250000 0
1.059859 0.250000 0
1.084507 0.250000 0
1.109155 0.250000 0
1.133803 0.250000 0
1.158451 0.250000 0
1.183099 0.250000 0
1.207746 0.250000 0
1.232394 0.250000 0
1.257042 0.250000 0
1.281690 0.250000 0
1.306338 0.250000 0
1.330986 0.250000 0
1.355634 0.250000 0
1.380282 0.250000 0
1.404930 0.250000 0
1.429577 0.250000 0
1.454225 0.250000 0
1.478873 0.250000 0
1.503521 0.250000 0
1.528169 0.250000 0
1.552817 0.250000 0
1.577465 0.250000 0
1.602113 0.250000 0
1.626761 0.250000 0
1.651408 0.250000 0
1.676056 0.250000 0
1.700704 0.250000 0
1.725352 0.250000 0
1.750000 0.250000 0
1.774648 0.250000 0
1.799296 0.250000 0
1.823944 0.250000 0
1.848592 0.250000 0
1.873239 0.250000 0
1.897887 0.250000 0
1.922535 0.250000 0
1.947183 0.250000 0
1.971831 0.250000 0
1.996479 0.250000 0
2.021127 0.250000 0
2.045775 0.250000 0
2.070423 0.250000 0
2.095070 0.250000 0
2.119718 0.250000 0
2.144366 0.250000 0
2.169014 0.250000 0
2.193662 0.250000 0
2.218310 0.250000 0
2.242958 0.250000 0
2.267606 0.250000 0
2.292254 0.250000 0
2.316901 0.250000 0
2.341549 0.250000 0
2.366197 0.250000 0
2.390845 0.250000 0
2.415493 0.250000 0
2.440141 0.250000 0
2.464789 0.250000 0
2.489437 0.250000 0
2.514085 0.250000 0
2.538732 0.250000 0
2.563380 0.250000 0
2.588028 0.250000 0
2.612676 0.250000 0
2.637324 0.250000 0
2.661972 0.250000 0
2.686620 0.250000 0
2.711268 0.250000 0
2.735915 0.250000 0
2.760563 0.250000 0
2.785211 0.250000 0
2.809859 0.250000 0
2.834507 0.250000 0
2.859155 0.250000 0
2.883803 0.250000 0
2.908451 0.250000 0
2.933099 0.250000 0
2.957746 0.250000 0
2.982394 0.250000 0
3.007042 0.250000 0
3.031690 0.250000 0
3.056338 0.250000 0
3.080986 0.250000 0
3.105634 0.250000 0
3.130282 0.250000 0
3.154930 0.250000 0
3.179577 0.250000 0
3.204225 0.250000 0
3.228873 0.250000 0
3.253521 0.250000 0
3.278169 0.250000 0
3.302817 0.250000 0
3.327465 0.250000 0
3.352113 0.250000 0
3.376761 0.250000 0
3.401408 0.250000 0
3.426056 0.250000 0
3.450704 0.250000 0
3.475352 0.250000 0
0.000000 0.261905 0
0.024648 0.261905 0
0.049296 0.261905 0
0.073944 0.261905 0
0.098592 0.261905 0
0.123239 0.261905 0
0.147887 0.261905 0
0.172535 0.261905 0
0.197183 0.261905 0
0.221831 0.261905 0
0.246479 0.261905 0
0.271127 0.261905 0
0.295775 0.261905 0
0.320423 0.261905 0
0.345070 0.261905 0
0.369718 0.261905 0
0.394366 0.261905 0
0.419014 0.261905 0
0.443662 0.261905 0
0.468310 0.261905 0
0.492958 0.261905 0
0.517606 0.261905 0
0.542254 0.261905 0
0.566901 0.261905 0
0.591549 0.261905 0
0.616197 0.261905 0
0.640845 0.261905 0
0.665493 0.261905 0
0.690141 0.261905 0
0.714789 0.261905 0
0.739437 0.261905 0
0.764085 0.261905 0
0.788732 0.261905 0
0.813380 0.261905 0
0.838028 0.261905 0
0.862676 0.261905 0
0.887324 0.261905 0
0.911972 0.261905 0
0.936620 0.261905 0
0.961268 0.261905 0
0.985915 0.261905 0
1.010563 0.261905 0
1.035211 0.261905 0
1.059859 0.261905 0
1.084507 0.261905 0
1.109155 0.261905 0
1.133803 0.261905 0
1.158451 0.261905 0
1.183099 0.261905 0
1.207746 0.261905 0
1.232394 0.261905 0
1.257042 0.261905 0
1.281690 0.261905 0
1.306338 0.261905 0
1.330986 0.261905 0
1.355634 0.261905 0
1.380282 0.261905 0
1.404930 0.261905 0
1.429577 0.261905 0
1.454225 0.261905 0
1.478873 0.261905 0
1.503521 0.261905 0
1.528169 0.261905 0
1.552817 0.261905 0
1.577465 0.261905 0
1.602113 0.261905 0
1.626761 0.261905 0
1.651408 0.261905 0
1.676056 0.261905 0
1.700704 0.261905 0
1.725352 0.261905 0
1.750000 0.261905 0
1.774648 0.261905 0
1.799296 0.261905 0
1.823944 0.261905 0
1.848592 0.261905 0
1.873239 0.261905 0
1.897887 0.261905 0
1.922535 0.261905 0
1.947183 0.261905 0
1.971831 0.261905 0
1.996479 0.261905 0
2.021127 0.261905 0
2.045775 0.261905 0
2.070423 0.261905 0
2.095070 0.261905 0
2.119718 0.261905 0
2.144366 0.261905 0
2.169014 0.261905 0
2.193662 0.261905 0
2.218310 0.261905 0
2.242958 0.261905 0
2.267606 0.261905 0
2.292254 0.261905 0
2.316901 0.261905 0
2.341549 0.261905 0
2.366197 0.261905 0
2.390845 0.261905 0
2.415493 0.261905 0
2.440141 0.261905 0
2.464789 0.261905 0
2.489437 0.261905 0
2.514085 0.261905 0
2.538732 0.261905 0
2.563380 0.261905 0
2.588028 0.261905 0
2.612676 0.261905 0
2.637324 0.261905 0
2.661972 0.261905 0
2.686620 0.261905 0
2.711268 0.261905 0
2.735915 0.261905 0
2.760563 0.261905 0
2.785211 0.261905 0
2.809859 0.261905 0
2.834507 0.261905 0
2.859155 0.261905 0
2.883803 0.261905 0
2.908451 0.261905 0
2.933099 0.261905 0
2.957746 0.261905 0
2.982394 0.261905 0
3.007042 0.261905 0
3.031690 0.261905 0
3.056338 0.261905 0
3.080986 0.261905 0
3.105634 0.261905 0
3.130282 0.261905 0
3.154930 0.261905 0
3.179577 0.261905 0
3.204225 0.261905 0
3.228873 0.261905 0
3.253521 0.261905 0
3.278169 0.261905 0
3.302817 0.261905 0
3.327465 0.261905 0
3.352113 0.261905 0
3.376761 0.261905 0
3.401408 0.261905 0
3.426056 0.261905 0
3.450704 0.261905 0
3.475352 0.261905 0
0.000000 0.273810 0
0.024648 0.273810 0
0.049296 0.273810 0
0.073944 0.273810 0
0.098592 0.273810 0
0.123239 0.273810 0
0.147887 0.273810 0
0.172535 0.273810 0
0.197183 0.273810 0
0.221831 0.273810 0
0.246479 0.273810 0
0.271127 0.273810 0
0.295775 0.273810 0
0.320423 0.273810 0
0.345070 0.273810 0
0.369718 0.273810 0
0.394366 0.273810 0
0.419014 0.273810 0
0.443662 0.273810 0
0.468310 0.273810 0
0.492958 0.273810 0
0.517606 0.273810 0
0.542254 0.273810 0
0.566901 0.273810 0
0.591549 0.273810 0
0.616197 0.273810 0
0.640845 0.273810 0
0.665493 0.273810 0
0.690141 0.273810 0
0.714789 0.273810 0
0.739437 0.273810 0
0.764085 0.273810 0
0.788732 0.273810 0
0.813380 0.273810 0
0.838028 0.273810 0
0.862676 0.273810 0
0.887324 0.273810 0
0.911972 0.273810 0
0.936620 0.273810 0
0.961268 0.273810 0
0.985915 0.273810 0
1.010563 0.273810 0
1.035211 0.273810 0
1.059859 0.273810 0
1.084507 0.273810 0
1.109155 0.273810 0
1.133803 0.273810 0
1.158451 0.273810 0
1.183099 0.273810 0
1.207746 0.273810 0
1.232394 0.273810 0
1.257042 0.273810 0
1.281690 0.273810 0
1.306338 0.273810 0
1.330986 0.273810 0
1.355634 0.273810 0
1.380282 0.273810 0
1.404930 0.273810 0
1.429577 0.273810 0
1.454225 0.273810 0
1.478873 0.273810 0
1.503521 0.273810 0
1.528169 0.273810 0
1.552817 0.273810 0
1.577465 0.273810 0
1.602113 0.273810 0
1.626761 0.273810 0
1.651408 0.273810 0
1.676056 0.273810 0
1.700704 0.273810 0
1.725352 0.273810 0
1.750000 0.273810 0
1.774648 0.273810 0
1.799296 0.273810 0
1.823944 0.273810 0
1.848592 0.273810 0
1.873239 0.273810 0
1.897887 0.273810 0
1.922535 0.273810 0
1.947183 0.273810 0
1.971831 0.273810 0
1.996479 0.273810 0
2.021127 0.273810 0
2.045775 0.273810 0
2.070423 0.273810 0
2.095070 0.273810 0
2.119718 0.273810 0
2.144366 0.273810 0
2.169014 0.273810 0
2.193662 0.273810 0
2.218310 0.273810 0
2.242958 0.273810 0
2.267606 0.273810 0
2.292254 0.273810 0
2.316901 0.273810 0
2.341549 0.273810 0
2.366197 0.273810 0
2.390845 0.273810 0
2.415493 0.273810 0
2.440141 0.273810 0
2.464789 0.273810 0
2.489437 0.273810 0
2.514085 0.273810 0
2.538732 0.273810 0
2.563380 0.273810 0
2.588028 0.273810 0
2.612676 0.273810 0
2.637324 0.273810 0
2.661972 0.273810 0
2.686620 0.273810 0
2.711268 0.273810 0
2.735915 0.273810 0
2.760563 0.273810 0
2.785211 0.273810 0
2.809859 0.273810 0
2.834507 0.273810 0
2.859155 0.273810 0
2.883803 0.273810 0
2.908451 0.273810 0
2.933099 0.273810 0
2.957746 0.273810 0
2.982394 0.273810 0
3.007042 0.273810 0
3.031690 0.273810 0
3.056338 0.273810 0
3.080986 0.273810 0
3.105634 0.273810 0
3.130282 0.273810 0
3.154930 0.273810 0
3.179577 0.273810 0
3.204225 0.273810 0
3.228873 0.273810 0
3.253521 0.273810 0
3.278169 0.273810 0
3.302817 0.273810 0
3.327465 0.273810 0
3.352113 0.273810 0
3.376761 0.273810 0
3.401408 0.273810 0
3.426056 0.273810 0
3.450704 0.273810 0
3.475352 0.273810 0
0.000000 0.285714 0
0.024648 0.285714 0
0.049296 0.285714 0
0.073944 0.285714 0
0.098592 0.285714 0
0.123239 0.285714 0
0.147887 0.285714 0
0.172535 0.285714 0
0.197183 0.285714 0
0.221831 0.285714 0
0.246479 0.285714 0
0.271127 0.285714 0
0.295775 0.285714 0
0.320423 0.285714 0
0.345070 0.285714 0
0.369718 0.285714 0
0.394366 0.285714 0
0.419014 0.285714 0
0.443662 0.285714 0
0.468310 0.285714 0
0.492958 0.285714 0
0.517606 0.285714 0
0.542254 0.285714 0
0.566901 0.285714 0
0.591549 0.285714 0
0.616197 0.285714 0
0.640845 0.285714 0
0.665493 0.285714 0
0.690141 0.285714 0
0.714789 0.285714 0
0.739437 0.285714 0
0.764085 0.285714 0
0.788732 0.285714 0
0.813380 0.285714 0
0.838028 0.285714 0
0.862676 0.285714 0
0.887324 0.285714 0
0.911972 0.285714 0
0.936620 0.285714 0
0.961268 0.285714 0
0.985915 0.285714 0
1.010563 0.285714 0
1.035211 0.285714 0
1.059859 0.285714 0
1.084507 0.285714 0
1.109155 0.285714 0
1.133803 0.285714 0
1.158451 0.285714 0
1.183099 0.285714 0
1.207746 0.285714 0
1.232394 0.285714 0
1.257042 0.285714 0
1.281690 0.285714 0
1.306338 0.285714 0
1.330986 0.285714 0
1.355634 0.285714 0
1.380282 0.285714 0
1.404930 0.285714 0
1.429577 0.285714 0
1.454225 0.285714 0
1.478873 0.285714 0
1.503521 0.285714 0
1.528169 0.285714 0
1.552817 0.285714 0
1.577465 0.285714 0
[...]
POINT_DATA 5964 

VECTORS velocity float
1.000000 0.000000 0
0.999854 0.000000 0
0.999558 0.000000 0
0.999100 0.000000 0
0.998464 0.000000 0
0.997624 0.000000 0
0.996546 0.000000 0
0.995181 0.000000 0
0.993466 0.000000 0
0.991311 0.000000 0
0.988590 0.000000 0
0.985123 0.000000 0
0.980639 0.000000 0
0.974712 0.000000 0
0.966640 0.000000 0
0.955087 0.000000 0
0.937574 0.000000 0
0.905995 0.000000 0
0.847991 0.000000 0
-0.000000 0.000000 0
-0.000000 0.000000 0
-0.000000 0.000000 0
-0.000000 0.000000 0
-0.000000 0.000000 0
-0.000000 0.000000 0
-0.000000 0.000000 0
-0.000000 0.000000 0
-0.000000 0.000000 0
-0.000000 0.000000 0
-0.000000 0.000000 0
-0.000000 0.000000 0
-0.000001 0.000000 0
-0.000001 0.000000 0
-0.000001 0.000000 0
-0.000001 0.000000 0
-0.000001 0.000000 0
-0.000001 0.000000 0
-0.000001 0.000000 0
-0.000001 0.000000 0
-0.000001 0.000000 0
-0.000001 0.000000 0
-0.000002 0.000000 0
-0.000002 0.000000 0
-0.000002 0.000000 0
-0.000003 0.000000 0
-0.000003 0.000000 0
-0.000003 0.000000 0
-0.000004 0.000000 0
-0.000004 0.000000 0
-0.000005 0.000000 0
-0.000005 0.000000 0
-0.000006 0.000000 0
-0.000006 0.000000 0
-0.000006 0.000000 0
-0.000006 0.000000 0
-0.000006 0.000000 0
-0.000006 0.000000 0
-0.000006 0.000000 0
-0.000006 0.000000 0
-0.000006 0.000000 0
-0.000006 0.000000 0
-0.000006 0.000000 0
-0.000006 0.000000 0
-0.000006 0.000000 0
-0.000005 0.000000 0
-0.000005 0.000000 0
-0.000005 0.000000 0
-0.000005 0.000000 0
-0.000005 0.000000 0
-0.000005 0.000000 0
-0.000005 0.000000 0
-0.000005 0.000000 0
-0.000005 0.000000 0
-0.000005 0.000000 0
-0.000005 0.000000 0
-0.000005 0.000000 0
-0.000005 0.000000 0
-0.000005 0.000000 0
-0.000005 0.000000 0
-0.000005 0.000000 0
-0.000005 0.000000 0
-0.000005 0.000000 0
-0.000005 0.000000 0
-0.000005 0.000000 0
-0.000005 0.000000 0
-0.000005 0.000000 0
-0.000005 0.000000 0
-0.000005 0.000000 0
-0.000005 0.000000 0
-0.000005 0.000000 0
-0.000005 0.000000 0
-0.000005 0.000000 0
-0.000005 0.000000 0
-0.000005 0.000000 0
-0.000005 0.000000 0
-0.000005 0.000000 0
-0.000005 0.000000 0
-0.000005 0.000000 0
-0.000005 0.000000 0
-0.000005 0.000000 0
-0.000005 0.000000 0
-0.000005 0.000000 0
-0.000005 0.000000 0
-0.000005 0.000000 0
-0.000005 0.000000 0
-0.000005 0.000000 0
-0.000005 0.000000 0
-0.000005 0.000000 0
-0.000005 0.000000 0
-0.000005 0.000000 0
-0.000005 0.000000 0
-0.000005 0.000000 0
-0.000005 0.000000 0
-0.000005 0.000000 0
-0.000005 0.000000 0
-0.000005 0.000000 0
-0.000005 0.000000 0
-0.000005 0.000000 0
-0.000005 0.000000 0
-0.000005 0.000000 0
-0.000005 0.000000 0
-0.000005 0.000000 0
-0.000005 0.000000 0
-0.000005 0.000000 0
-0.000005 0.000000 0
-0.000005 0.000000 0
-0.000004 0.000000 0
-0.000004 0.000000 0
-0.000004 0.000000 0
-0.000004 0.000000 0
-0.000004 0.000000 0
-0.000004 0.000000 0
-0.000004 0.000000 0
-0.000003 0.000000 0
-0.000003 0.000000 0
-0.000003 0.000000 0
-0.000002 0.000000 0
-0.000002 0.000000 0
-0.000001 0.000000 0
0.000000 0.000000 0
-0.000000 0.000000 0
0.496959 0.000000 0
1.000000 0.000035 0
0.999855 0.000107 0
0.999560 0.000182 0
0.999104 0.000264 0
0.998471 0.000357 0
0.997635 0.000463 0
0.996563 0.000590 0
0.995206 0.000744 0
0.993501 0.000935 0
0.991361 0.001178 0
0.988661 0.001494 0
0.985225 0.001920 0
0.980791 0.002514 0
0.974948 0.003381 0
0.967026 0.004739 0
0.955794 0.007019 0
0.939015 0.011856 0
0.910415 0.021634 0
0.861167 0.078836 0
0.715229 0.110956 0
0.576894 0.072746 0
0.473459 0.041070 0
0.401572 0.022627 0
0.351748 0.013290 0
0.316179 0.008655 0
0.289784 0.006173 0
0.269471 0.004684 0
0.253356 0.003701 0
0.240255 0.003007 0
0.229395 0.002494 0
0.220250 0.002102 0
0.212452 0.001795 0
0.205736 0.001548 0
0.199904 0.001347 0
0.194808 0.001179 0
0.190333 0.001037 0
0.186392 0.000915 0
0.182914 0.000810 0
0.179846 0.000716 0
0.177146 0.000632 0
0.174783 0.000555 0
0.172733 0.000482 0
0.170981 0.000412 0
0.169516 0.000344 0
0.168331 0.000276 0
0.167419 0.000208 0
0.166773 0.000140 0
0.166383 0.000075 0
0.166230 0.000016 0
0.166285 -0.000034 0
0.166503 -0.000074 0
0.166846 -0.000105 0
0.167275 -0.000125 0
0.167755 -0.000137 0
0.168255 -0.000140 0
0.168750 -0.000137 0
0.169220 -0.000129 0
0.169652 -0.000117 0
0.170036 -0.000104 0
0.170369 -0.000090 0
0.170651 -0.000075 0
0.170884 -0.000062 0
0.171073 -0.000050 0
0.171223 -0.000039 0
0.171339 -0.000030 0
0.171428 -0.000023 0
0.171494 -0.000017 0
0.171542 -0.000012 0
0.171577 -0.000009 0
0.171601 -0.000006 0
0.171618 -0.000004 0
0.171629 -0.000003 0
0.171636 -0.000002 0
0.171641 -0.000001 0
0.171645 -0.000001 0
0.171647 -0.000000 0
0.171649 -0.000000 0
0.171650 -0.000000 0
0.171652 -0.000000 0
0.171654 -0.000001 0
0.171657 -0.000001 0
0.171660 -0.000001 0
0.171664 -0.000001 0
0.171668 -0.000001 0
0.171674 -0.000002 0
0.171681 -0.000002 0
0.171689 -0.000003 0
0.171698 -0.000003 0
0.171709 -0.000004 0
0.171722 -0.000004 0
0.171737 -0.000005 0
0.171755 -0.000006 0
0.171775 -0.000006 0
0.171799 -0.000008 0
0.171827 -0.000009 0
0.171858 -0.000010 0
0.171895 -0.000012 0
0.171938 -0.000014 0
0.171987 -0.000016 0
0.172044 -0.000018 0
0.172110 -0.000021 0
0.172187 -0.000024 0
0.172275 -0.000028 0
0.172377 -0.000032 0
0.172495 -0.000037 0
0.172632 -0.000043 0
0.172790 -0.000050 0
0.172973 -0.000058 0
0.173184 -0.000067 0
0.173429 -0.000077 0
0.173712 -0.000090 0
0.174040 -0.000104 0
0.174420 -0.000120 0
0.174860 -0.000139 0
0.175371 -0.000162 0
0.175964 -0.000188 0
0.176652 -0.000218 0
0.177451 -0.000254 0
0.178382 -0.000296 0
0.179465 -0.000345 0
0.180730 -0.000403 0
0.182208 -0.000472 0
0.183938 -0.000554 0
0.185971 -0.000653 0
0.188365 -0.000772 0
0.191194 -0.000917 0
0.194553 -0.001095 0
0.198563 -0.001316 0
0.203378 -0.001595 0
0.209208 -0.001953 0
0.216334 -0.002421 0
0.225148 -0.003048 0
0.236217 -0.003916 0
0.250383 -0.005167 0
0.268966 -0.007063 0
0.294143 -0.010141 0
0.329778 -0.015568 0
0.383069 -0.026833 0
0.470866 -0.049186 0
0.620249 -0.167056 0
0.994246 -0.270337 0
0.994246 -0.135169 0
1.000000 0.000070 0
0.999857 0.000213 0
0.999566 0.000363 0
0.999116 0.000526 0
0.998492 0.000710 0
0.997668 0.000922 0
0.996612 0.001173 0
0.995279 0.001479 0
0.993605 0.001857 0
0.991508 0.002338 0
0.988871 0.002963 0
0.985528 0.003801 0
0.981239 0.004964 0
0.975637 0.006648 0
0.968146 0.009251 0
0.957800 0.013529 0
0.942973 0.021918 0
0.920928 0.037600 0
0.888656 0.094273 0
0.891376 0.137302 0
0.842636 0.116773 0
0.772231 0.084679 0
0.701975 0.058786 0
0.640832 0.041245 0
0.590352 0.029928 0
0.549226 0.022559 0
0.515583 0.017594 0
0.487768 0.014111 0
0.464497 0.011573 0
0.444802 0.009662 0
0.427964 0.008183 0
0.413439 0.007010 0
0.400816 0.006061 0
0.389780 0.005278 0
0.380085 0.004623 0
0.371538 0.004065 0
0.363989 0.003583 0
0.357318 0.003161 0
0.351430 0.002786 0
0.346252 0.002445 0
0.341725 0.002132 0
0.337809 0.001836 0
0.334469 0.001554 0
0.331684 0.001280 0
0.329432 0.001013 0
0.327696 0.000752 0
0.326450 0.000501 0
0.325668 0.000262 0
0.325310 0.000047 0
0.325327 -0.000132 0
0.325643 -0.000271 0
0.326184 -0.000373 0
0.326880 -0.000439 0
0.327669 -0.000474 0
0.328497 -0.000481 0
0.329321 -0.000466 0
0.330105 -0.000435 0
0.330826 -0.000394 0
0.331469 -0.000346 0
0.332027 -0.000297 0
0.332500 -0.000249 0
0.332892 -0.000204 0
0.333210 -0.000164 0
0.333462 -0.000129 0
0.333658 -0.000099 0
0.333809 -0.000075 0
0.333921 -0.000055 0
0.334004 -0.000040 0
0.334064 -0.000028 0
0.334107 -0.000020 0
0.334137 -0.000013 0
0.334158 -0.000009 0
0.334173 -0.000006 0
0.334183 -0.000004 0
0.334190 -0.000003 0
0.334195 -0.000002 0
0.334199 -0.000002 0
0.334203 -0.000002 0
0.334207 -0.000002 0
0.334211 -0.000002 0
0.334216 -0.000003 0
0.334222 -0.000003 0
0.334229 -0.000004 0
0.334237 -0.000005 0
0.334246 -0.000006 0
0.334257 -0.000007 0
0.334270 -0.000008 0
0.334286 -0.000010 0
0.334304 -0.000012 0
0.334325 -0.000014 0
0.334349 -0.000016 0
0.334377 -0.000018 0
0.334410 -0.000021 0
0.334448 -0.000025 0
0.334492 -0.000029 0
0.334543 -0.000033 0
0.334602 -0.000038 0
0.334671 -0.000044 0
0.334750 -0.000051 0
0.334842 -0.000059 0
0.334947 -0.000069 0
0.335070 -0.000080 0
0.335212 -0.000092 0
0.335376 -0.000106 0
0.335566 -0.000123 0
0.335785 -0.000142 0
0.336039 -0.000165 0
0.336333 -0.000190 0
0.336673 -0.000220 0
0.337066 -0.000255 0
0.337522 -0.000295 0
0.338049 -0.000342 0
0.338660 -0.000396 0
0.339368 -0.000459 0
0.340189 -0.000533 0
0.341142 -0.000618 0
0.342247 -0.000719 0
0.343532 -0.000836 0
0.345025 -0.000973 0
0.346764 -0.001134 0
0.348790 -0.001324 0
0.351156 -0.001550 0
0.353923 -0.001818 0
0.357166 -0.002138 0
0.360978 -0.002523 0
0.365472 -0.002989 0
0.370790 -0.003559 0
0.377111 -0.004262 0
0.384667 -0.005142 0
0.393757 -0.006257 0
0.404782 -0.007699 0
0.418287 -0.009603 0
0.435031 -0.012188 0
0.456108 -0.015818 0
0.483145 -0.021136 0
0.518648 -0.029372 0
0.566658 -0.042951 0
0.633682 -0.068145 0
0.730954 -0.114556 0
0.873938 -0.252789 0
0.995023 -0.361275 0
0.995023 -0.180637 0
1.000000 0.000104 0
0.999860 0.000316 0
0.999575 0.000540 0
0.999136 0.000783 0
0.998526 0.001056 0
0.997723 0.001371 0
0.996695 0.001744 0
0.995398 0.002196 0
0.993776 0.002756 0
0.991750 0.003464 0
0.989214 0.004383 0
0.986021 0.005606 0
0.981962 0.007291 0
0.976737 0.009704 0
0.969901 0.013355 0
0.960822 0.019178 0
0.948615 0.029665 0
0.933258 0.047869 0
0.915367 0.093110 0
0.945695 0.133183 0
0.949106 0.130292 0
0.923562 0.109009 0
0.882775 0.086091 0
0.837585 0.067204 0
0.793769 0.052900 0
0.753708 0.042286 0
0.718038 0.034368 0
0.686630 0.028375 0
0.659074 0.023759 0
0.634888 0.020139 0
0.613615 0.017251 0
0.594850 0.014907 0
0.578247 0.012975 0
0.563517 0.011360 0
0.550422 0.009989 0
0.538764 0.008811 0
0.528381 0.007784 0
0.519144 0.006876 0
0.510944 0.006061 0
0.503696 0.005320 0
0.497333 0.004633 0
0.491802 0.003987 0
0.487060 0.003370 0
0.483074 0.002776 0
0.479813 0.002202 0
0.477246 0.001648 0
0.475336 0.001120 0
0.474038 0.000626 0
0.473297 0.000180 0
0.473054 -0.000195 0
0.473232 -0.000488 0
0.473732 -0.000702 0
0.474465 -0.000842 0
0.475348 -0.000918 0
0.476310 -0.000938 0
0.477292 -0.000913 0
0.478246 -0.000856 0
0.479138 -0.000776 0
0.479945 -0.000684 0
0.480655 -0.000588 0
0.481264 -0.000493 0
0.481774 -0.000405 0
0.482191 -0.000325 0
0.482526 -0.000256 0
0.482790 -0.000198 0
0.482994 -0.000150 0
0.483149 -0.000112 0
0.483265 -0.000081 0
0.483350 -0.000058 0
0.483412 -0.000041 0
0.483457 -0.000029 0
0.483489 -0.000020 0
0.483512 -0.000013 0
0.483528 -0.000009 0
0.483541 -0.000007 0
0.483550 -0.000005 0
0.483557 -0.000004 0
0.483564 -0.000004 0
0.483570 -0.000004 0
0.483577 -0.000005 0
0.483584 -0.000006 0
0.483591 -0.000007 0
0.483600 -0.000008 0
0.483610 -0.000010 0
0.483622 -0.000012 0
0.483635 -0.000014 0
0.483651 -0.000016 0
0.483670 -0.000019 0
0.483691 -0.000022 0
0.483716 -0.000026 0
0.483745 -0.000030 0
0.483779 -0.000035 0
0.483818 -0.000041 0
0.483863 -0.000047 0
0.483915 -0.000055 0
0.483976 -0.000063 0
0.484046 -0.000073 0
0.484127 -0.000085 0
0.484221 -0.000098 0
0.484329 -0.000114 0
0.484455 -0.000131 0
0.484600 -0.000152 0
0.484769 -0.000176 0
0.484963 -0.000203 0
0.485188 -0.000235 0
0.485448 -0.000272 0
0.485750 -0.000315 0
0.486098 -0.000364 0
0.486501 -0.000421 0
0.486968 -0.000487 0
0.487509 -0.000564 0
0.488134 -0.000654 0
0.488859 -0.000757 0
0.489699 -0.000878 0
0.490672 -0.001018 0
0.491801 -0.001182 0
0.493111 -0.001373 0
0.494631 -0.001596 0
0.496398 -0.001857 0
0.498453 -0.002163 0
0.500846 -0.002525 0
0.503635 -0.002951 0
0.506893 -0.003457 0
0.510703 -0.004061 0
0.515171 -0.004784 0
0.520423 -0.005656 0
0.526616 -0.006717 0
0.533945 -0.008019 0
0.542659 -0.009635 0
0.553074 -0.011668 0
0.565601 -0.014268 0
0.580787 -0.017658 0
0.599364 -0.022184 0
0.622343 -0.028406 0
0.651133 -0.037269 0
0.687729 -0.050477 0
0.734928 -0.071128 0
0.796341 -0.106187 0
0.874853 -0.165228 0
0.969475 -0.294599 0
0.995926 -0.387300 0
0.995926 -0.193649 0
1.000000 0.000138 0
0.999864 0.000418 0
0.999589 0.000712 0
0.999163 0.001033 0
0.998574 0.001392 0
0.997798 0.001807 0
0.996807 0.002296 0
0.995562 0.002888 0
0.994008 0.003619 0
0.992078 0.004541 0
0.989679 0.005730 0
0.986684 0.007304 0
0.982927 0.009448 0
0.978181 0.012474 0
0.972152 0.016938 0
0.964527 0.023810 0
0.955085 0.035231 0
0.945242 0.053659 0
0.937542 0.088266 0
0.966052 0.121007 0
0.988329 0.127463 0
0.990646 0.116716 0
0.976504 0.100312 0
0.952674 0.084234 0
0.924396 0.070440 0
0.894892 0.059137 0
0.865949 0.049992 0
0.838484 0.042590 0
0.812914 0.036564 0
0.789375 0.031619 0
0.767851 0.027521 0
0.748249 0.024093 0
0.730441 0.021194 0
0.714288 0.018718 0
0.699656 0.016579 0
0.686420 0.014710 0
0.674469 0.013060 0
0.663706 0.011584 0
0.654049 0.010247 0
0.645429 0.009019 0
0.637788 0.007876 0
0.631080 0.006798 0
0.625264 0.005769 0
0.620305 0.004780 0
0.616171 0.003828 0
0.612826 0.002915 0
0.610228 0.002050 0
0.608325 0.001247 0
0.607054 0.000523 0
0.606347 -0.000101 0
0.606150 -0.000599 0
0.606365 -0.000968 0
0.606894 -0.001219 0
0.607646 -0.001365 0
0.608539 -0.001420 0
0.609503 -0.001401 0
0.610479 -0.001327 0
0.611422 -0.001215 0
0.612300 -0.001079 0
0.613091 -0.000934 0
0.613784 -0.000789 0
0.614376 -0.000652 0
0.614871 -0.000527 0
0.615276 -0.000418 0
0.615600 -0.000325 0
0.615856 -0.000248 0
0.616053 -0.000186 0
0.616204 -0.000137 0
0.616317 -0.000100 0
0.616402 -0.000071 0
0.616464 -0.000050 0
0.616509 -0.000035 0
0.616543 -0.000025 0
0.616567 -0.000018 0
0.616586 -0.000013 0
0.616600 -0.000010 0
0.616612 -0.000008 0
0.616622 -0.000008 0
0.616631 -0.000008 0
0.616639 -0.000009 0
0.616648 -0.000010 0
0.616657 -0.000011 0
0.616668 -0.000013 0
0.616679 -0.000016 0
0.616692 -0.000018 0
0.616707 -0.000021 0
0.616724 -0.000025 0
0.616743 -0.000029 0
0.616766 -0.000034 0
0.616792 -0.000040 0
0.616822 -0.000046 0
0.616858 -0.000053 0
0.616898 -0.000062 0
0.616946 -0.000072 0
0.617000 -0.000083 0
0.617063 -0.000096 0
0.617136 -0.000111 0
0.617221 -0.000129 0
0.617319 -0.000149 0
0.617432 -0.000173 0
0.617563 -0.000200 0
0.617715 -0.000231 0
0.617890 -0.000267 0
0.618093 -0.000309 0
0.618328 -0.000357 0
0.618599 -0.000413 0
0.618913 -0.000478 0
0.619276 -0.000554 0
0.619697 -0.000641 0
0.620183 -0.000742 0
0.620747 -0.000859 0
0.621399 -0.000994 0
0.622154 -0.001152 0
0.623028 -0.001335 0
0.624041 -0.001548 0
0.625216 -0.001796 0
0.626578 -0.002085 0
0.628158 -0.002423 0
0.629992 -0.002819 0
0.632124 -0.003282 0
0.634603 -0.003827 0
0.637489 -0.004470 0
0.640853 -0.005231 0
0.644781 -0.006136 0
0.649374 -0.007217 0
0.654757 -0.008517 0
0.661082 -0.010090 0
0.668534 -0.012011 0
0.677345 -0.014381 0
0.687806 -0.017338 0
0.700283 -0.021084 0
0.715248 -0.025910 0
0.733307 -0.032259 0
0.755248 -0.040822 0
0.782082 -0.052717 0
0.815066 -0.069844 0
0.855571 -0.095410 0
0.904513 -0.135728 0
0.959387 -0.198179 0
1.011274 -0.311266 0
0.996794 -0.386821 0
0.996794 -0.193408 0
1.000000 0.000170 0
0.999870 0.000515 0
0.999605 0.000878 0
0.999198 0.001273 0
0.998634 0.001715 0
0.997893 0.002224 0
0.996949 0.002825 0
0.995766 0.003548 0
0.994299 0.004438 0
0.992487 0.005555 0
0.990252 0.006988 0
0.987496 0.008867 0
0.984093 0.011398 0
0.979895 0.014909 0
0.974749 0.019950 0
0.968608 0.027421 0
0.961733 0.038979 0
0.956045 0.056342 0
0.954740 0.083058 0
0.976998 0.108653 0
1.002119 0.118414 0
1.016875 0.114720 0
1.019331 0.104432 0
1.012219 0.092372 0
0.998838 0.080808 0
0.981776 0.070515 0
0.962815 0.061612 0
0.943131 0.053991 0
0.923480 0.047479 0
0.904343 0.041904 0
0.886010 0.037114 0
0.868649 0.032976 0
0.852345 0.029378 0
0.837131 0.026229 0
0.823007 0.023449 0
0.809956 0.020976 0
0.797949 0.018754 0
0.786952 0.016738 0
0.776935 0.014889 0
0.767864 0.013174 0
0.759714 0.011563 0
0.752457 0.010036 0
0.746069 0.008574 0
0.740527 0.007168 0
0.735803 0.005814 0
0.731868 0.004519 0
0.728685 0.003294 0
0.726208 0.002159 0
0.724379 0.001136 0
0.723129 0.000242 0
0.722410 -0.000497 0
0.722163 -0.001061 0
0.722298 -0.001461 0
0.722726 -0.001712 0
0.723366 -0.001835 0
0.724143 -0.001850 0
0.724992 -0.001783 0
0.725859 -0.001655 0
0.726703 -0.001490 0
0.727494 -0.001305 0
0.728209 -0.001114 0
0.728840 -0.000930 0
0.729381 -0.000760 0
0.729835 -0.000608 0
0.730208 -0.000478 0
0.730509 -0.000369 0
0.730747 -0.000280 0
0.730933 -0.000209 0
0.731076 -0.000154 0
0.731185 -0.000112 0
0.731267 -0.000081 0
0.731329 -0.000058 0
0.731375 -0.000041 0
0.731409 -0.000030 0
0.731436 -0.000022 0
0.731456 -0.000018 0
0.731473 -0.000015 0
0.731487 -0.000013 0
0.731499 -0.000013 0
0.731509 -0.000013 0
0.731520 -0.000015 0
0.731531 -0.000016 0
0.731542 -0.000019 0
0.731554 -0.000022 0
0.731568 -0.000025 0
0.731583 -0.000029 0
0.731600 -0.000034 0
0.731619 -0.000039 0
0.731642 -0.000046 0
0.731667 -0.000053 0
0.731697 -0.000062 0
0.731731 -0.000072 0
0.731771 -0.000083 0
0.731817 -0.000096 0
0.731870 -0.000112 0
0.731931 -0.000129 0
0.732002 -0.000149 0
0.732085 -0.000173 0
0.732179 -0.000200 0
0.732289 -0.000232 0
0.732416 -0.000268 0
0.732563 -0.000310 0
0.732733 -0.000358 0
0.732930 -0.000414 0
0.733157 -0.000479 0
0.733420 -0.000555 0
0.733725 -0.000642 0
0.734077 -0.000742 0
0.734484 -0.000859 0
0.734955 -0.000995 0
0.735500 -0.001151 0
0.736131 -0.001333 0
0.736862 -0.001544 0
0.737708 -0.001790 0
0.738687 -0.002075 0
0.739822 -0.002407 0
0.741137 -0.002794 0
0.742662 -0.003245 0
0.744431 -0.003772 0
0.746484 -0.004390 0
0.748868 -0.005116 0
0.751639 -0.005970 0
0.754864 -0.006979 0
0.758621 -0.008176 0
0.763003 -0.009602 0
0.768123 -0.011311 0
0.774115 -0.013371 0
0.781144 -0.015874 0
0.789407 -0.018943 0
0.799150 -0.022747 0
0.810669 -0.027523 0
0.824333 -0.033608 0
0.840587 -0.041503 0
0.859963 -0.051964 0
0.883057 -0.066161 0
0.910430 -0.085972 0
0.942277 -0.114330 0
0.977618 -0.156329 0
1.011379 -0.216793 0
1.032761 -0.312667 0
0.997565 -0.373307 0
0.997565 -0.186649 0
1.000000 0.000201 0
0.999876 0.000608 0
0.999625 0.001037 0
0.999239 0.001502 0
0.998704 0.002022 0
0.998005 0.002620 0
0.997116 0.003324 0
0.996008 0.004168 0
0.994640 0.005203 0
0.992964 0.006496 0
0.990918 0.008141 0
0.988429 0.010279 0
0.985415 0.013119 0
0.981800 0.016987 0
0.977553 0.022389 0
0.972818 0.030097 0
0.968147 0.041299 0
0.965458 0.057036 0
0.967785 0.078146 0
0.985057 0.098123 0
1.007540 0.108203 0
1.025782 0.108403 0
1.036308 0.102561 0
1.039446 0.094132 0
1.036785 0.085144 0
1.029956 0.076536 0
1.020283 0.068658 0
1.008761 0.061589 0
0.996127 0.055299 0
0.982918 0.049717 0
0.969527 0.044761 0
0.956237 0.040353 0
0.943253 0.036417 0
0.930717 0.032887 0
0.918731 0.029704 0
0.907361 0.026813 0
0.896656 0.024170 0
0.886646 0.021733 0
0.877351 0.019466 0
0.868784 0.017337 0
0.860952 0.015318 0
0.853857 0.013388 0
0.847498 0.011532 0
0.841870 0.009739 0
0.836960 0.008010 0
0.832750 0.006353 0
0.829218 0.004784 0
0.826330 0.003327 0
0.824046 0.002009 0
0.822315 0.000850 0
0.821077 -0.000132 0
0.820312 -0.000914 0
0.819960 -0.001491 0
0.819949 -0.001881 0
0.820208 -0.002104 0
0.820666 -0.002186 0
0.821261 -0.002156 0
0.821936 -0.002041 0
0.822644 -0.001869 0
0.823345 -0.001661 0
0.824010 -0.001439 0
0.824621 -0.001218 0
0.825165 -0.001008 0
0.825636 -0.000817 0
0.826036 -0.000650 0
0.826367 -0.000508 0
0.826637 -0.000391 0
0.826853 -0.000296 0
0.827023 -0.000221 0
0.827156 -0.000164 0
0.827258 -0.000120 0
0.827336 -0.000087 0
0.827396 -0.000064 0
0.827442 -0.000047 0
0.827477 -0.000036 0
0.827505 -0.000028 0
0.827527 -0.000023 0
0.827545 -0.000020 0
0.827560 -0.000019 0
0.827574 -0.000019 0
0.827586 -0.000020 0
0.827598 -0.000022 0
0.827610 -0.000025 0
0.827623 -0.000028 0
0.827637 -0.000032 0
0.827651 -0.000037 0
0.827668 -0.000043 0
0.827687 -0.000049 0
0.827708 -0.000057 0
0.827732 -0.000066 0
0.827760 -0.000077 0
0.827792 -0.000089 0
0.827829 -0.000103 0
0.827872 -0.000120 0
0.827921 -0.000138 0
0.827978 -0.000160 0
0.828043 -0.000185 0
0.828119 -0.000214 0
0.828207 -0.000248 0
0.828309 -0.000287 0
0.828426 -0.000332 0
0.828562 -0.000384 0
0.828719 -0.000444 0
0.828901 -0.000514 0
0.829111 -0.000594 0
0.829354 -0.000687 0
0.829635 -0.000795 0
0.829960 -0.000920 0
0.830336 -0.001065 0
0.830771 -0.001232 0
0.831274 -0.001427 0
0.831857 -0.001652 0
0.832530 -0.001913 0