# vtk DataFile Version 2.0
generated by CFD-lab course output (written by Tobias Neckel) 
ASCII

DATASET STRUCTURED_GRID
DIMENSIONS  142 42 1 
POINTS 5964 float

0.000000 0.250000 0
0.024648 0.250000 0
0.049296 0.250000 0
0.073944 0.250000 0
0.098592 0.250000 0
0.123239 0.250000 0
0.147887 0.250000 0
0.172535 0.250000 0
0.197183 0.250000 0
0.221831 0.250000 0
0.246479 0.250000 0
0.271127 0.250000 0
0.295775 0.250000 0
0.320423 0.250000 0
0.345070 0.250000 0
0.369718 0.250000 0
0.394366 0.250000 0
0.419014 0.250000 0
0.443662 0.250000 0
0.468310 0.250000 0
0.492958 0.250000 0
0.517606 0.250000 0
0.542254 0.250000 0
0.566901 0.250000 0
0.591549 0.250000 0
0.616197 0.250000 0
0.640845 0.250000 0
0.665493 0.250000 0
0.690141 0.250000 0
0.714789 0.250000 0
0.739437 0.250000 0
0.764085 0.250000 0
0.788732 0.250000 0
0.813380 0.250000 0
0.838028 0.250000 0
0.862676 0.250000 0
0.887324 0.250000 0
0.911972 0.250000 0
0.936620 0.250000 0
0.961268 0.250000 0
0.985915 0.250000 0
1.010563 0.250000 0
1.035211 0.250000 0
1.059859 0.250000 0
1.084507 0.250000 0
1.109155 0.250000 0
1.133803 0.250000 0
1.158451 0.250000 0
1.183099 0.250000 0
1.207746 0.250000 0
1.232394 0.250000 0
1.257042 0.250000 0
1.281690 0.250000 0
1.306338 0.250000 0
1.330986 0.250000 0
1.355634 0.250000 0
1.380282 0.250000 0
1.404930 0.250000 0
1.429577 0.250000 0
1.454225 0.250000 0
1.478873 0.250000 0
1.503521 0.250000 0
1.528169 0.250000 0
1.552817 0.250000 0
1.577465 0.250000 0
1.602113 0.250000 0
1.626761 0.250000 0
1.651408 0.250000 0
1.676056 0.250000 0
1.700704 0.250000 0
1.725352 0.250000 0
1.750000 0.250000 0
1.774648 0.250000 0
1.799296 0.250000 0
1.823944 0.250000 0
1.848592 0.250000 0
1.873239 0.250000 0
1.897887 0.250000 0
1.922535 0.250000 0
1.947183 0.250000 0
1.971831 0.250000 0
1.996479 0.250000 0
2.021127 0.250000 0
2.045775 0.250000 0
2.070423 0.250000 0
2.095070 0.250000 0
2.119718 0.250000 0
2.144366 0.250000 0
2.169014 0.250000 0
2.193662 0.250000 0
2.218310 0.250000 0
2.242958 0.250000 0
2.267606 0.250000 0
2.292254 0.250000 0
2.316901 0.250000 0
2.341549 0.250000 0
2.366197 0.250000 0
2.390845 0.250000 0
2.415493 0.250000 0
2.440141 0.250000 0
2.464789 0.250000 0
2.489437 0.250000 0
2.514085 0.250000 0
2.538732 0.250000 0
2.563380 0.250000 0
2.588028 0.250000 0
2.612676 0.250000 0
2.637324 0.250000 0
2.661972 0.250000 0
2.686620 0.250000 0
2.711268 0.250000 0
2.735915 0.250000 0
2.760563 0.250000 0
2.785211 0.250000 0
2.809859 0.250000 0
2.834507 0.250000 0
2.859155 0.250000 0
2.883803 0.250000 0
2.908451 0.250000 0
2.933099 0.250000 0
2.957746 0.250000 0
2.982394 0.250000 0
3.007042 0.250000 0
3.031690 0.250000 0
3.056338 0.250000 0
3.080986 0.250000 0
3.105634 0.250000 0
3.130282 0.250000 0
3.154930 0.250000 0
3.179577 0.250000 0
3.204225 0.250000 0
3.228873 0.250000 0
3.253521 0.250000 0
3.278169 0.250000 0
3.302817 0.250000 0
3.327465 0.250000 0
3.352113 0.250000 0
3.376761 0.250000 0
3.401408 0.250000 0
3.426056 0.250000 0
3.450704 0.250000 0
3.475352 0.250000 0
0.000000 0.261905 0
0.024648 0.261905 0
0.049296 0.261905 0
0.073944 0.261905 0
0.098592 0.261905 0
0.123239 0.261905 0
0.147887 0.261905 0
0.172535 0.261905 0
0.197183 0.261905 0
0.221831 0.261905 0
0.246479 0.261905 0
0.271127 0.261905 0
0.295775 0.261905 0
0.320423 0.261905 0
0.345070 0.261905 0
0.369718 0.261905 0
0.394366 0.261905 0
0.419014 0.261905 0
0.443662 0.261905 0
0.468310 0.261905 0
0.492958 0.261905 0
0.517606 0.261905 0
0.542254 0.261905 0
0.566901 0.261905 0
0.591549 0.261905 0
0.616197 0.261905 0
0.640845 0.261905 0
0.665493 0.261905 0
0.690141 0.261905 0
0.714789 0.261905 0
0.739437 0.261905 0
0.764085 0.261905 0
0.788732 0.261905 0
0.813380 0.261905 0
0.838028 0.261905 0
0.862676 0.261905 0
0.887324 0.261905 0
0.911972 0.261905 0
0.936620 0.261905 0
0.961268 0.261905 0
0.985915 0.261905 0
1.010563 0.261905 0
1.035211 0.261905 0
1.059859 0.261905 0
1.084507 0.261905 0
1.109155 0.261905 0
1.133803 0.261905 0
1.158451 0.261905 0
1.183099 0.261905 0
1.207746 0.261905 0
1.232394 0.261905 0
1.257042 0.261905 0
1.281690 0.261905 0
1.306338 0.261905 0
1.330986 0.261905 0
1.355634 0.261905 0
1.380282 0.261905 0
1.404930 0.261905 0
1.429577 0.261905 0
1.454225 0.261905 0
1.478873 0.261905 0
1.503521 0.261905 0
1.528169 0.261905 0
1.552817 0.261905 0
1.577465 0.261905 0
1.602113 0.261905 0
1.626761 0.261905 0
1.651408 0.261905 0
1.676056 0.261905 0
1.700704 0.261905 0
1.725352 0.261905 0
1.750000 0.261905 0
1.774648 0.261905 0
1.799296 0.261905 0
1.823944 0.261905 0
1.848592 0.261905 0
1.873239 0.261905 0
1.897887 0.261905 0
1.922535 0.261905 0
1.947183 0.261905 0
1.971831 0.261905 0
1.996479 0.261905 0
2.021127 0.261905 0
2.045775 0.261905 0
2.070423 0.261905 0
2.095070 0.261905 0
2.119718 0.261905 0
2.144366 0.261905 0
2.169014 0.261905 0
2.193662 0.261905 0
2.218310 0.261905 0
2.242958 0.261905 0
2.267606 0.261905 0
2.292254 0.261905 0
2.316901 0.261905 0
2.341549 0.261905 0
2.366197 0.261905 0
2.390845 0.261905 0
2.415493 0.261905 0
2.440141 0.261905 0
2.464789 0.261905 0
2.489437 0.261905 0
2.514085 0.261905 0
2.538732 0.261905 0
2.563380 0.261905 0
2.588028 0.261905 0
2.612676 0.261905 0
2.637324 0.261905 0
2.661972 0.261905 0
2.686620 0.261905 0
2.711268 0.261905 0
2.735915 0.261905 0
2.760563 0.261905 0
2.785211 0.261905 0
2.809859 0.261905 0
2.834507 0.261905 0
2.859155 0.261905 0
2.883803 0.261905 0
2.908451 0.261905 0
2.933099 0.261905 0
2.957746 0.261905 0
2.982394 0.261905 0
3.007042 0.261905 0
3.031690 0.261905 0
3.056338 0.261905 0
3.080986 0.261905 0
3.105634 0.261905 0
3.130282 0.261905 0
3.154930 0.261905 0
3.179577 0.261905 0
3.204225 0.261905 0
3.228873 0.261905 0
3.253521 0.261905 0
3.278169 0.261905 0
3.302817 0.261905 0
3.327465 0.261905 0
3.352113 0.261905 0
3.376761 0.261905 0
3.401408 0.261905 0
3.426056 0.261905 0
3.450704 0.261905 0
3.475352 0.261905 0
0.000000 0.273810 0
0.024648 0.273810 0
0.049296 0.273810 0
0.073944 0.273810 0
0.098592 0.273810 0
0.123239 0.273810 0
0.147887 0.273810 0
0.172535 0.273810 0
0.197183 0.273810 0
0.221831 0.273810 0
0.246479 0.273810 0
0.271127 0.273810 0
0.295775 0.273810 0
0.320423 0.273810 0
0.345070 0.273810 0
0.369718 0.273810 0
0.394366 0.273810 0
0.419014 0.273810 0
0.443662 0.273810 0
0.468310 0.273810 0
0.492958 0.273810 0
0.517606 0.273810 0
0.542254 0.273810 0
0.566901 0.273810 0
0.591549 0.273810 0
0.616197 0.273810 0
0.640845 0.273810 0
0.665493 0.273810 0
0.690141 0.273810 0
0.714789 0.273810 0
0.739437 0.273810 0
0.764085 0.273810 0
0.788732 0.273810 0
0.813380 0.273810 0
0.838028 0.273810 0
0.862676 0.273810 0
0.887324 0.273810 0
0.911972 0.273810 0
0.936620 0.273810 0
0.961268 0.273810 0
0.985915 0.273810 0
1.010563 0.273810 0
1.035211 0.273810 0
1.059859 0.273810 0
1.084507 0.273810 0
1.109155 0.273810 0
1.133803 0.273810 0
1.158451 0.273810 0
1.183099 0.273810 0
1.207746 0.273810 0
1.232394 0.273810 0
1.257042 0.273810 0
1.281690 0.273810 0
1.306338 0.273810 0
1.330986 0.273810 0
1.355634 0.273810 0
1.380282 0.273810 0
1.404930 0.273810 0
1.429577 0.273810 0
1.454225 0.273810 0
1.478873 0.273810 0
1.503521 0.273810 0
1.528169 0.273810 0
1.552817 0.273810 0
1.577465 0.273810 0
1.602113 0.273810 0
1.626761 0.273810 0
1.651408 0.273810 0
1.676056 0.273810 0
1.700704 0.273810 0
1.725352 0.273810 0
1.750000 0.273810 0
1.774648 0.273810 0
1.799296 0.273810 0
1.823944 0.273810 0
1.848592 0.273810 0
1.873239 0.273810 0
1.897887 0.273810 0
1.922535 0.273810 0
1.947183 0.273810 0
1.971831 0.273810 0
1.996479 0.273810 0
2.021127 0.273810 0
2.045775 0.273810 0
2.070423 0.273810 0
2.095070 0.273810 0
2.119718 0.273810 0
2.144366 0.273810 0
2.169014 0.273810 0
2.193662 0.273810 0
2.218310 0.273810 0
2.242958 0.273810 0
2.267606 0.273810 0
2.292254 0.273810 0
2.316901 0.273810 0
2.341549 0.273810 0
2.366197 0.273810 0
2.390845 0.273810 0
2.415493 0.273810 0
2.440141 0.273810 0
2.464789 0.273810 0
2.489437 0.273810 0
2.514085 0.273810 0
2.538732 0.273810 0
2.563380 0.273810 0
2.588028 0.273810 0
2.612676 0.273810 0
2.637324 0.273810 0
2.661972 0.273810 0
2.686620 0.273810 0
2.711268 0.273810 0
2.735915 0.273810 0
2.760563 0.273810 0
2.785211 0.273810 0
2.809859 0.273810 0
2.834507 0.273810 0
2.859155 0.273810 0
2.883803 0.273810 0
2.908451 0.273810 0
2.933099 0.273810 0
2.957746 0.273810 0
2.982394 0.273810 0
3.007042 0.273810 0
3.031690 0.273810 0
3.056338 0.273810 0
3.080986 0.273810 0
3.105634 0.273810 0
3.130282 0.273810 0
3.154930 0.273810 0
3.179577 0.273810 0
3.204225 0.273810 0
3.228873 0.273810 0
3.253521 0.273810 0
3.278169 0.273810 0
3.302817 0.273810 0
3.327465 0.273810 0
3.352113 0.273810 0
3.376761 0.273810 0
3.401408 0.273810 0
3.426056 0.273810 0
3.450704 0.273810 0
3.475352 0.273810 0
0.000000 0.285714 0
0.024648 0.285714 0
0.049296 0.285714 0
0.073944 0.285714 0
0.098592 0.285714 0
0.123239 0.285714 0
0.147887 0.285714 0
0.172535 0.285714 0
0.197183 0.285714 0
0.221831 0.285714 0
0.246479 0.285714 0
0.271127 0.285714 0
0.295775 0.285714 0
0.320423 0.285714 0
0.345070 0.285714 0
0.369718 0.285714 0
0.394366 0.285714 0
0.419014 0.285714 0
0.443662 0.285714 0
0.468310 0.285714 0
0.492958 0.285714 0
0.517606 0.285714 0
0.542254 0.285714 0
0.566901 0.285714 0
0.591549 0.285714 0
0.616197 0.285714 0
0.640845 0.285714 0
0.665493 0.285714 0
0.690141 0.285714 0
0.714789 0.285714 0
0.739437 0.285714 0
0.764085 0.285714 0
0.788732 0.285714 0
0.813380 0.285714 0
0.838028 0.285714 0
0.862676 0.285714 0
0.887324 0.285714 0
0.911972 0.285714 0
0.936620 0.285714 0
0.961268 0.285714 0
0.985915 0.285714 0
1.010563 0.285714 0
1.035211 0.285714 0
1.059859 0.285714 0
1.084507 0.285714 0
1.109155 0.285714 0
1.133803 0.285714 0
1.158451 0.285714 0
1.183099 0.285714 0
1.207746 0.285714 0
1.232394 0.285714 0
1.257042 0.285714 0
1.281690 0.285714 0
1.306338 0.285714 0
1.330986 0.285714 0
1.355634 0.285714 0
1.380282 0.285714 0
1.404930 0.285714 0
1.429577 0.285714 0
1.454225 0.285714 0
1.478873 0.285714 0
1.503521 0.285714 0
1.528169 0.285714 0
1.552817 0.285714 0
1.577465 0.285714 0
[...]
POINT_DATA 5964 

VECTORS velocity float
1.000000 0.000000 0
0.999854 0.000000 0
0.999556 0.000000 0
0.999097 0.000000 0
0.998458 0.000000 0
0.997615 0.000000 0
0.996532 0.000000 0
0.995162 0.000000 0
0.993440 0.000000 0
0.991275 0.000000 0
0.988543 0.000000 0
0.985062 0.000000 0
0.980561 0.000000 0
0.974614 0.000000 0
0.966517 0.000000 0
0.954933 0.000000 0
0.937383 0.000000 0
0.905760 0.000000 0
0.847693 0.000000 0
0.000000 0.000000 0
-0.000000 0.000000 0
-0.000000 0.000000 0
-0.000000 0.000000 0
0.000000 0.000000 0
0.000000 0.000000 0
0.000000 0.000000 0
-0.000000 0.000000 0
-0.000000 0.000000 0
0.000000 0.000000 0
0.000000 0.000000 0
0.000000 0.000000 0
-0.000000 0.000000 0
-0.000000 0.000000 0
0.000000 0.000000 0
0.000000 0.000000 0
0.000000 0.000000 0
-0.000000 0.000000 0
-0.000000 0.000000 0
0.000000 0.000000 0
0.000000 0.000000 0
-0.000000 0.000000 0
-0.000000 0.000000 0
-0.000000 0.000000 0
0.000000 0.000000 0
0.000000 0.000000 0
-0.000000 0.000000 0
-0.000000 0.000000 0
-0.000000 0.000000 0
-0.000000 0.000000 0
-0.000000 0.000000 0
-0.000000 0.000000 0
-0.000000 0.000000 0
-0.000000 0.000000 0
-0.000000 0.000000 0
-0.000000 0.000000 0
-0.000000 0.000000 0
-0.000000 0.000000 0
-0.000000 0.000000 0
-0.000000 0.000000 0
-0.000000 0.000000 0
-0.000000 0.000000 0
-0.000000 0.000000 0
-0.000000 0.000000 0
-0.000000 0.000000 0
-0.000000 0.000000 0
-0.000000 0.000000 0
-0.000000 0.000000 0
-0.000000 0.000000 0
-0.000000 0.000000 0
0.000000 0.000000 0
0.000000 0.000000 0
-0.000000 0.000000 0
-0.000000 0.000000 0
-0.000000 0.000000 0
-0.000000 0.000000 0
0.000000 0.000000 0
0.000000 0.000000 0
-0.000000 0.000000 0
-0.000000 0.000000 0
-0.000000 0.000000 0
-0.000000 0.000000 0
-0.000000 0.000000 0
-0.000000 0.000000 0
-0.000000 0.000000 0
-0.000000 0.000000 0
-0.000000 0.000000 0
-0.000000 0.000000 0
-0.000000 0.000000 0
-0.000000 0.000000 0
-0.000000 0.000000 0
-0.000000 0.000000 0
-0.000000 0.000000 0
-0.000000 0.000000 0
-0.000000 0.000000 0
-0.000000 0.000000 0
-0.000000 0.000000 0
-0.000000 0.000000 0
-0.000000 0.000000 0
-0.000000 0.000000 0
-0.000000 0.000000 0
-0.000000 0.000000 0
-0.000000 0.000000 0
-0.000000 0.000000 0
-0.000000 0.000000 0
-0.000000 0.000000 0
-0.000000 0.000000 0
-0.000000 0.000000 0
-0.000000 0.000000 0
-0.000000 0.000000 0
-0.000000 0.000000 0
-0.000000 0.000000 0
-0.000000 0.000000 0
-0.000000 0.000000 0
-0.000000 0.000000 0
-0.000000 0.000000 0
-0.000000 0.000000 0
-0.000000 0.000000 0
-0.000000 0.000000 0
-0.000000 0.000000 0
-0.000000 0.000000 0
-0.000000 0.000000 0
-0.000000 0.000000 0
-0.000000 0.000000 0
-0.000000 0.000000 0
-0.000000 0.000000 0
-0.000000 0.000000 0
-0.000000 0.000000 0
-0.000000 0.000000 0
-0.000000 0.000000 0
-0.000000 0.000000 0
-0.000000 0.000000 0
-0.000000 0.000000 0
-0.000000 0.000000 0
-0.000000 0.000000 0
-0.000000 0.000000 0
-0.000000 0.000000 0
-0.000000 0.000000 0
-0.000000 0.000000 0
-0.000000 0.000000 0
0.000000 0.000000 0
-0.000000 0.000000 0
0.496410 0.000000 0
1.000000 0.000035 0
0.999854 0.000107 0
0.999558 0.000183 0
0.999101 0.000265 0
0.998465 0.000358 0
0.997626 0.000465 0
0.996549 0.000592 0
0.995186 0.000747 0
0.993474 0.000939 0
0.991325 0.001182 0
0.988614 0.001500 0
0.985165 0.001928 0
0.980713 0.002523 0
0.974850 0.003392 0
0.966903 0.004753 0
0.955641 0.007036 0
0.938825 0.011875 0
0.910180 0.021660 0
0.860874 0.078853 0
0.714886 0.110956 0
0.576504 0.072745 0
0.473017 0.041074 0
0.401066 0.022638 0
0.351163 0.013309 0
0.315499 0.008679 0
0.288994 0.006202 0
0.268554 0.004718 0
0.252294 0.003739 0
0.239027 0.003050 0
0.227980 0.002542 0
0.218624 0.002156 0
0.210590 0.001855 0
0.203608 0.001615 0
0.197480 0.001420 0
0.192052 0.001260 0
0.187208 0.001127 0
0.182854 0.001015 0
0.178917 0.000919 0
0.175337 0.000838 0
0.172064 0.000767 0
0.169059 0.000706 0
0.166287 0.000652 0
0.163720 0.000605 0
0.161335 0.000564 0
0.159110 0.000526 0
0.157028 0.000493 0
0.155075 0.000464 0
0.153237 0.000437 0
0.151503 0.000413 0
0.149864 0.000391 0
0.148310 0.000372 0
0.146833 0.000353 0
0.145429 0.000337 0
0.144089 0.000322 0
0.142810 0.000308 0
0.141586 0.000295 0
0.140414 0.000283 0
0.139289 0.000272 0
0.138208 0.000261 0
0.137168 0.000252 0
0.136167 0.000242 0
0.135202 0.000234 0
0.134270 0.000226 0
0.133370 0.000219 0
0.132501 0.000211 0
0.131659 0.000205 0
0.130844 0.000198 0
0.130054 0.000192 0
0.129288 0.000187 0
0.128545 0.000181 0
0.127823 0.000176 0
0.127122 0.000171 0
0.126440 0.000166 0
0.125778 0.000162 0
0.125134 0.000157 0
0.124506 0.000153 0
0.123896 0.000149 0
0.123302 0.000145 0
0.122723 0.000142 0
0.122159 0.000138 0
0.121609 0.000134 0
0.121074 0.000131 0
0.120553 0.000127 0
0.120045 0.000124 0
0.119551 0.000121 0
0.119069 0.000117 0
0.118601 0.000114 0
0.118145 0.000111 0
0.117702 0.000108 0
0.117272 0.000104 0
0.116855 0.000101 0
0.116451 0.000098 0
0.116061 0.000094 0
0.115684 0.000090 0
0.115322 0.000087 0
0.114975 0.000083 0
0.114643 0.000078 0
0.114328 0.000074 0
0.114030 0.000069 0
0.113751 0.000064 0
0.113493 0.000058 0
0.113257 0.000052 0
0.113045 0.000045 0
0.112859 0.000037 0
0.112703 0.000029 0
0.112579 0.000020 0
0.112492 0.000009 0
0.112446 -0.000004 0
0.112448 -0.000018 0
0.112505 -0.000033 0
0.112621 -0.000050 0
0.112804 -0.000069 0
0.113062 -0.000091 0
0.113406 -0.000117 0
0.113849 -0.000146 0
0.114405 -0.000180 0
0.115093 -0.000219 0
0.115931 -0.000265 0
0.116944 -0.000317 0
0.118161 -0.000379 0
0.119615 -0.000452 0
0.121347 -0.000537 0
0.123407 -0.000639 0
0.125854 -0.000761 0
0.128765 -0.000907 0
0.132231 -0.001085 0
0.136370 -0.001304 0
0.141332 -0.001575 0
0.147312 -0.001917 0
0.154568 -0.002355 0
0.163445 -0.002927 0
0.174424 -0.003691 0
0.188181 -0.004740 0
0.205709 -0.006232 0
0.228519 -0.008451 0
0.259018 -0.011954 0
0.301322 -0.017904 0
0.362759 -0.029695 0
0.459974 -0.052076 0
0.617948 -0.166963 0
0.993127 -0.267476 0
0.993127 -0.133738 0
1.000000 0.000070 0
0.999856 0.000213 0
0.999564 0.000364 0
0.999113 0.000528 0
0.998486 0.000712 0
0.997659 0.000926 0
0.996599 0.001178 0
0.995259 0.001485 0
0.993579 0.001865 0
0.991473 0.002348 0
0.988825 0.002975 0
0.985469 0.003816 0
0.981163 0.004982 0
0.975541 0.006670 0
0.968025 0.009278 0
0.957649 0.013561 0
0.942785 0.021957 0
0.920694 0.037650 0
0.888370 0.094326 0
0.890999 0.137349 0
0.842149 0.116821 0
0.771618 0.084735 0
0.701222 0.058855 0
0.639920 0.041328 0
0.589257 0.030027 0
0.547923 0.022674 0
0.514040 0.017726 0
0.485953 0.014261 0
0.462370 0.011743 0
0.442322 0.009855 0
0.425082 0.008399 0
0.410105 0.007253 0
0.396971 0.006332 0
0.385359 0.005582 0
0.375016 0.004961 0
0.365741 0.004443 0
0.357374 0.004004 0
0.349783 0.003631 0
0.342863 0.003310 0
0.336524 0.003032 0
0.330692 0.002790 0
0.325306 0.002579 0
0.320313 0.002392 0
0.315668 0.002227 0
0.311333 0.002080 0
0.307276 0.001949 0
0.303467 0.001831 0
0.299883 0.001725 0
0.296501 0.001629 0
0.293302 0.001543 0
0.290271 0.001464 0
0.287392 0.001391 0
0.284652 0.001325 0
0.282041 0.001265 0
0.279547 0.001209 0
0.277162 0.001157 0
0.274877 0.001110 0
0.272686 0.001065 0
0.270581 0.001024 0
0.268558 0.000986 0
0.266609 0.000950 0
0.264731 0.000916 0
0.262919 0.000884 0
0.261169 0.000855 0
0.259478 0.000827 0
0.257842 0.000800 0
0.256258 0.000775 0
0.254723 0.000751 0
0.253235 0.000729 0
0.251791 0.000708 0
0.250390 0.000687 0
0.249029 0.000668 0
0.247706 0.000649 0
0.246419 0.000631 0
0.245168 0.000614 0
0.243951 0.000598 0
0.242766 0.000582 0
0.241612 0.000567 0
0.240488 0.000552 0
0.239393 0.000538 0
0.238326 0.000524 0
0.237287 0.000510 0
0.236274 0.000497 0
0.235287 0.000484 0
0.234325 0.000471 0
0.233389 0.000459 0
0.232477 0.000446 0
0.231590 0.000434 0
0.230727 0.000422 0
0.229888 0.000409 0
0.229073 0.000396 0
0.228284 0.000384 0
0.227519 0.000370 0
0.226780 0.000357 0
0.226067 0.000343 0
0.225382 0.000328 0
0.224725 0.000312 0
0.224099 0.000296 0
0.223504 0.000278 0
0.222944 0.000259 0
0.222420 0.000239 0
0.221935 0.000217 0
0.221493 0.000192 0
0.221098 0.000165 0
0.220755 0.000135 0
0.220470 0.000102 0
0.220248 0.000064 0
0.220097 0.000021 0
0.220028 -0.000028 0
0.220054 -0.000083 0
0.220185 -0.000144 0
0.220434 -0.000213 0
0.220814 -0.000291 0
0.221343 -0.000380 0
0.222043 -0.000483 0
0.222939 -0.000601 0
0.224059 -0.000737 0
0.225437 -0.000894 0
0.227114 -0.001077 0
0.229135 -0.001290 0
0.231558 -0.001539 0
0.234449 -0.001831 0
0.237888 -0.002177 0
0.241972 -0.002588 0
0.246821 -0.003080 0
0.252580 -0.003673 0
0.259431 -0.004396 0
0.267606 -0.005285 0
0.277395 -0.006393 0
0.289180 -0.007792 0
0.303460 -0.009590 0
0.320904 -0.011947 0
0.342434 -0.015111 0
0.369340 -0.019483 0
0.403488 -0.025748 0
0.447658 -0.035163 0
0.506160 -0.050106 0
0.585639 -0.076628 0
0.697354 -0.123254 0
0.855304 -0.257509 0
0.993824 -0.362418 0
0.993824 -0.181209 0
1.000000 0.000105 0
0.999859 0.000318 0
0.999574 0.000542 0
0.999133 0.000786 0
0.998521 0.001060 0
0.997714 0.001377 0
0.996681 0.001752 0
0.995379 0.002205 0
0.993750 0.002767 0
0.991715 0.003479 0
0.989168 0.004400 0
0.985962 0.005628 0
0.981887 0.007318 0
0.976642 0.009737 0
0.969782 0.013395 0
0.960673 0.019226 0
0.948431 0.029724 0
0.933028 0.047942 0
0.915086 0.093196 0
0.945330 0.133281 0
0.948626 0.130405 0
0.922939 0.109141 0
0.881981 0.086247 0
0.836589 0.067387 0
0.792539 0.053113 0
0.752206 0.042531 0
0.716223 0.034649 0
0.684455 0.028696 0
0.656485 0.024123 0
0.631828 0.020552 0
0.610017 0.017717 0
0.590640 0.015433 0
0.573343 0.013567 0
0.557826 0.012025 0
0.543839 0.010736 0
0.531172 0.009648 0
0.519650 0.008722 0
0.509125 0.007928 0
0.499472 0.007242 0
0.490585 0.006646 0
0.482375 0.006124 0
0.474764 0.005665 0
0.467686 0.005260 0
0.461084 0.004900 0
0.454909 0.004580 0
0.449117 0.004293 0
0.443670 0.004035 0
0.438537 0.003802 0
0.433688 0.003592 0
0.429097 0.003400 0
0.424742 0.003226 0
0.420603 0.003067 0
0.416661 0.002921 0
0.412902 0.002788 0
0.409311 0.002664 0
0.405875 0.002550 0
0.402582 0.002444 0
0.399424 0.002346 0
0.396389 0.002255 0
0.393470 0.002170 0
0.390660 0.002091 0
0.387951 0.002016 0
0.385337 0.001946 0
0.382812 0.001880 0
0.380372 0.001819 0
0.378011 0.001760 0
0.375725 0.001705 0
0.373510 0.001652 0
0.371362 0.001603 0
0.369278 0.001555 0
0.367255 0.001510 0
0.365289 0.001468 0
0.363379 0.001427 0
0.361521 0.001387 0
0.359714 0.001350 0
0.357956 0.001314 0
0.356244 0.001279 0
0.354576 0.001246 0
0.352952 0.001213 0
0.351369 0.001182 0
0.349827 0.001152 0
0.348324 0.001122 0
0.346858 0.001093 0
0.345430 0.001065 0
0.344037 0.001037 0
0.342681 0.001010 0
0.341359 0.000983 0
0.340071 0.000956 0
0.338818 0.000930 0
0.337599 0.000903 0
0.336414 0.000876 0
0.335264 0.000848 0
0.334148 0.000820 0
0.333068 0.000792 0
0.332025 0.000762 0
0.331019 0.000731 0
0.330051 0.000698 0
0.329125 0.000664 0
0.328242 0.000627 0
0.327405 0.000588 0
0.326616 0.000545 0
0.325880 0.000499 0
0.325201 0.000449 0
0.324584 0.000394 0
0.324035 0.000333 0
0.323561 0.000265 0
0.323171 0.000189 0
0.322873 0.000103 0
0.322678 0.000003 0
0.322603 -0.000109 0
0.322665 -0.000233 0
0.322881 -0.000373 0
0.323266 -0.000531 0
0.323845 -0.000711 0
0.324643 -0.000917 0
0.325690 -0.001154 0
0.327024 -0.001426 0
0.328685 -0.001740 0
0.330722 -0.002104 0
0.333195 -0.002526 0
0.336170 -0.003018 0
0.339729 -0.003595 0
0.343967 -0.004273 0
0.349000 -0.005075 0
0.354968 -0.006031 0
0.362040 -0.007176 0
0.370425 -0.008561 0
0.380381 -0.010252 0
0.392232 -0.012338 0
0.406387 -0.014944 0
0.423374 -0.018250 0
0.443876 -0.022515 0
0.468799 -0.028134 0
0.499360 -0.035721 0
0.537211 -0.046278 0
0.584626 -0.061544 0
0.644717 -0.084548 0
0.721408 -0.122040 0
0.818250 -0.182323 0
0.934534 -0.310156 0
0.994595 -0.401285 0
0.994595 -0.200642 0
1.000000 0.000138 0
0.999864 0.000419 0
0.999587 0.000715 0
0.999160 0.001037 0
0.998568 0.001398 0
0.997789 0.001814 0
0.996794 0.002306 0
0.995543 0.002901 0
0.993983 0.003635 0
0.992045 0.004560 0
0.989634 0.005754 0
0.986627 0.007333 0
0.982854 0.009484 0
0.978089 0.012517 0
0.972036 0.016991 0
0.964382 0.023874 0
0.954906 0.035310 0
0.945019 0.053755 0
0.937268 0.088384 0
0.965707 0.121150 0
0.987884 0.127636 0
0.990071 0.116924 0
0.975766 0.100561 0
0.951736 0.084528 0
0.923218 0.070783 0
0.893429 0.059534 0
0.864150 0.050450 0
0.836292 0.043114 0
0.810267 0.037162 0
0.786201 0.032298 0
0.764073 0.028292 0
0.743777 0.024966 0
0.725176 0.022181 0
0.708119 0.019832 0
0.692457 0.017835 0
0.678050 0.016126 0
0.664768 0.014653 0
0.652495 0.013377 0
0.641128 0.012265 0
0.630573 0.011290 0
0.620748 0.010432 0
0.611581 0.009673 0
0.603007 0.008999 0
0.594969 0.008398 0
0.587417 0.007860 0
0.580306 0.007377 0
0.573596 0.006941 0
0.567252 0.006547 0
0.561243 0.006189 0
0.555540 0.005863 0
0.550119 0.005566 0
0.544956 0.005294 0
0.540031 0.005045 0
0.535327 0.004815 0
0.530827 0.004603 0
0.526516 0.004407 0
0.522380 0.004226 0
0.518408 0.004057 0
0.514589 0.003900 0
0.510913 0.003753 0
0.507370 0.003616 0
0.503953 0.003487 0
0.500654 0.003366 0
0.497465 0.003253 0
0.494381 0.003146 0
0.491395 0.003045 0
0.488503 0.002949 0
0.485700 0.002859 0
0.482980 0.002773 0
0.480341 0.002691 0
0.477777 0.002614 0
0.475285 0.002540 0
0.472863 0.002469 0
0.470506 0.002401 0
0.468213 0.002336 0
0.465980 0.002274 0
0.463805 0.002214 0
0.461687 0.002157 0
0.459622 0.002101 0
0.457609 0.002047 0
0.455647 0.001995 0
0.453734 0.001944 0
0.451868 0.001895 0
0.450048 0.001846 0
0.448273 0.001799 0
0.446542 0.001753 0
0.444855 0.001707 0
0.443210 0.001661 0
0.441608 0.001616 0
0.440048 0.001570 0
0.438530 0.001524 0
0.437055 0.001478 0
0.435621 0.001431 0
0.434232 0.001383 0
0.432886 0.001333 0
0.431586 0.001281 0
0.430333 0.001227 0
0.429129 0.001170 0
0.427976 0.001109 0
0.426878 0.001045 0
0.425838 0.000975 0
0.424859 0.000900 0
0.423948 0.000818 0
0.423109 0.000728 0
0.422349 0.000629 0
0.421676 0.000519 0
0.421099 0.000397 0
0.420629 0.000259 0
0.420278 0.000102 0
0.420056 -0.000077 0
0.419991 -0.000279 0
0.420102 -0.000503 0
0.420407 -0.000757 0
0.420931 -0.001045 0
0.421704 -0.001374 0
0.422759 -0.001751 0
0.424135 -0.002183 0
0.425879 -0.002681 0
0.428043 -0.003256 0
0.430690 -0.003921 0
0.433894 -0.004695 0
0.437740 -0.005597 0
0.442330 -0.006655 0
0.447785 -0.007901 0
0.454251 -0.009378 0
0.461900 -0.011139 0
0.470942 -0.013255 0
0.481635 -0.015818 0
0.494293 -0.018953 0
0.509305 -0.022833 0
0.527160 -0.027697 0
0.548471 -0.033887 0
0.574020 -0.041909 0
0.604799 -0.052525 0
0.642074 -0.066931 0
0.687407 -0.087088 0
0.742584 -0.116171 0
0.809099 -0.160443 0
0.885727 -0.226193 0
0.965290 -0.342682 0
0.995322 -0.420436 0
0.995322 -0.210218 0
1.000000 0.000170 0
0.999869 0.000517 0
0.999604 0.000882 0
0.999195 0.001278 0
0.998628 0.001722 0
0.997884 0.002234 0
0.996936 0.002837 0
0.995748 0.003563 0
0.994274 0.004457 0
0.992454 0.005579 0
0.990209 0.007017 0
0.987440 0.008903 0
0.984022 0.011442 0
0.979805 0.014962 0
0.974637 0.020015 0
0.968468 0.027500 0
0.961560 0.039076 0
0.955831 0.056461 0
0.954476 0.083204 0
0.976671 0.108834 0
1.001710 0.118637 0
1.016358 0.114993 0
1.018677 0.104763 0
1.011391 0.092767 0
0.997797 0.081275 0
0.980475 0.071061 0
0.961200 0.062246 0
0.941142 0.054721 0
0.921050 0.048317 0
0.901397 0.042863 0
0.882463 0.038207 0
0.864406 0.034219 0
0.847300 0.030789 0
0.831164 0.027828 0
0.815984 0.025259 0
0.801724 0.023022 0
0.788337 0.021065 0
0.775768 0.019346 0
0.763963 0.017831 0
0.752867 0.016489 0
0.742426 0.015297 0
0.732589 0.014234 0
0.723310 0.013284 0
0.714545 0.012430 0
0.706253 0.011662 0
0.698398 0.010968 0
0.690945 0.010339 0
0.683863 0.009768 0
0.677125 0.009248 0
0.670705 0.008773 0
0.664579 0.008339 0
0.658725 0.007939 0
0.653125 0.007572 0
0.647761 0.007233 0
0.642616 0.006920 0
0.637677 0.006630 0
0.632928 0.006360 0
0.628359 0.006109 0
0.623957 0.005875 0
0.619713 0.005657 0
0.615617 0.005452 0
0.611660 0.005260 0
0.607835 0.005080 0
0.604133 0.004910 0
0.600549 0.004750 0
0.597076 0.004599 0
0.593708 0.004456 0
0.590440 0.004320 0
0.587266 0.004191 0
0.584184 0.004069 0
0.581187 0.003952 0
0.578272 0.003841 0
0.575436 0.003735 0
0.572676 0.003633 0
0.569987 0.003536 0
0.567368 0.003442 0
0.564815 0.003353 0
0.562326 0.003266 0
0.559899 0.003183 0
0.557531 0.003102 0
0.555221 0.003024 0
0.552967 0.002948 0
0.550768 0.002874 0
0.548621 0.002801 0
0.546526 0.002731 0
0.544481 0.002661 0
0.542486 0.002592 0
0.540540 0.002525 0
0.538643 0.002457 0
0.536793 0.002390 0
0.534991 0.002322 0
0.533238 0.002253 0
0.531532 0.002184 0
0.529875 0.002113 0
0.528268 0.002040 0
0.526712 0.001964 0
0.525209 0.001885 0
0.523761 0.001802 0
0.522369 0.001714 0
0.521038 0.001621 0
0.519771 0.001520 0
0.518571 0.001412 0
0.517445 0.001295 0
0.516398 0.001166 0
0.515437 0.001025 0
0.514570 0.000868 0
0.513806 0.000694 0
0.513157 0.000500 0
0.512635 0.000280 0
0.512252 0.000029 0
0.512028 -0.000255 0
0.511990 -0.000573 0
0.512160 -0.000931 0
0.512562 -0.001337 0
0.513226 -0.001800 0
0.514188 -0.002328 0
0.515487 -0.002933 0
0.517170 -0.003627 0
0.519291 -0.004428 0
0.521914 -0.005352 0
0.525112 -0.006423 0
0.528971 -0.007669 0
0.533592 -0.009125 0
0.539092 -0.010833 0
0.545614 -0.012848 0
0.553322 -0.015238 0
0.562416 -0.018093 0
0.573132 -0.021530 0
0.585758 -0.025702 0
0.600639 -0.030819 0
0.618196 -0.037167 0
0.638942 -0.045148 0
0.663496 -0.055340 0
0.692604 -0.068591 0
0.727126 -0.086178 0
0.767972 -0.110090 0
0.815848 -0.143324 0
0.870572 -0.191177 0
0.928680 -0.257762 0
0.981817 -0.363089 0
0.995983 -0.430295 0
0.995983 -0.215147 0
1.000000 0.000201 0
0.999876 0.000611 0
0.999624 0.001041 0
0.999236 0.001508 0
0.998699 0.002031 0
0.997996 0.002631 0
0.997104 0.003338 0
0.995990 0.004186 0
0.994616 0.005226 0
0.992932 0.006524 0
0.990877 0.008175 0
0.988376 0.010321 0
0.985348 0.013171 0
0.981715 0.017050 0
0.977446 0.022466 0
0.972684 0.030190 0
0.967981 0.041413 0
0.965254 0.057176 0
0.967534 0.078318 0
0.984749 0.098336 0
1.007163 0.108468 0
1.025317 0.108730 0
1.035732 0.102960 0
1.038731 0.094612 0
1.035895 0.085716 0
1.028851 0.077211 0
1.018912 0.069447 0
1.007069 0.062506 0
0.994050 0.056359 0
0.980383 0.050936 0
0.966451 0.046159 0
0.952529 0.041949 0
0.938808 0.038237 0
0.925418 0.034957 0
0.912445 0.032054 0
0.899940 0.029479 0
0.887932 0.027190 0
0.876432 0.025149 0
0.865437 0.023326 0
0.854937 0.021693 0
0.844917 0.020226 0
0.835356 0.018906 0
0.826235 0.017714 0
0.817530 0.016637 0
0.809218 0.015659 0
0.801277 0.014770 0
0.793685 0.013961 0
0.786422 0.013221 0
0.779467 0.012544 0
0.772801 0.011923 0
0.766406 0.011352 0
0.760267 0.010826 0
0.754367 0.010340 0
0.748692 0.009891 0
0.743229 0.009474 0
0.737965 0.009087 0
0.732889 0.008726 0
0.727989 0.008390 0
0.723256 0.008075 0
0.718680 0.007781 0
0.714253 0.007505 0
0.709968 0.007246 0
0.705815 0.007002 0
0.701789 0.006772 0
0.697884 0.006555 0
0.694092 0.006349 0
0.690410 0.006155 0
0.686831 0.005970 0
0.683350 0.005795 0
0.679964 0.005628 0
0.676669 0.005469 0
0.673459 0.005317 0
0.670332 0.005172 0
0.667285 0.005033 0
0.664314 0.004900 0
0.661416 0.004772 0
0.658589 0.004649 0
0.655829 0.004531 0
0.653136 0.004417 0
0.650505 0.004306 0
0.647937 0.004199 0
0.645428 0.004095 0
0.642978 0.003994 0
0.640584 0.003895 0
0.638245 0.003799 0
0.635961 0.003704 0
0.633730 0.003610 0
0.631551 0.003517 0
0.629424 0.003426 0
0.627348 0.003334 0
0.625324 0.003242 0
0.623351 0.003149 0
0.621429 0.003055 0
0.619560 0.002959 0
0.617744 0.002860 0
0.615982 0.002759 0
0.614275 0.002653 0
0.612627 0.002542 0
0.611039 0.002424 0
0.609514 0.002300 0
0.608056 0.002167 0
0.606669 0.002023 0
0.605359 0.001868 0
0.604130 0.001698 0
0.602991 0.001512 0
0.601950 0.001307 0
0.601014 0.001079 0
0.600197 0.000825 0
0.599509 0.000539 0
0.598966 0.000216 0
0.598576 -0.000152 0
0.598375 -0.000567 0
0.598382 -0.001033 0
0.598625 -0.001560 0
0.599133 -0.002159 0
0.599940 -0.002842 0
0.601085 -0.003623 0
0.602614 -0.004518 0
0.604581 -0.005547 0
0.607046 -0.006732 0
0.610080 -0.008103 0
0.613765 -0.009693 0
0.618197 -0.011544 0
0.623487 -0.013708 0
0.629767 -0.016251 0
0.637188 -0.019254 0
0.645929 -0.022823 0
0.656203 -0.027092 0
0.668258 -0.032239 0
0.682388 -0.038501 0
0.698937 -0.046197 0