# vtk DataFile Version 2.0
generated by CFD-lab course output (written by Tobias Neckel) 
ASCII

DATASET STRUCTURED_GRID
DIMENSIONS  142 42 1 
POINTS 5964 float

0.000000 0.250000 0
0.024648 0.250000 0
0.049296 0.250000 0
0.073944 0.250000 0
0.098592 0.250000 0
0.123239 0.250000 0
0.147887 0.250000 0
0.172535 0.250000 0
0.197183 0.250000 0
0.221831 0.250000 0
0.246479 0.250000 0
0.271127 0.250000 0
0.295775 0.250000 0
0.320423 0.250000 0
0.345070 0.250000 0
0.369718 0.250000 0
0.394366 0.250000 0
0.419014 0.250000 0
0.443662 0.250000 0
0.468310 0.250000 0
0.492958 0.250000 0
0.517606 0.250000 0
0.542254 0.250000 0
0.566901 0.250000 0
0.591549 0.250000 0
0.616197 0.250000 0
0.640845 0.250000 0
0.665493 0.250000 0
0.690141 0.250000 0
0.714789 0.250000 0
0.739437 0.250000 0
0.764085 0.250000 0
0.788732 0.250000 0
0.813380 0.250000 0
0.838028 0.250000 0
0.862676 0.250000 0
0.887324 0.250000 0
0.911972 0.250000 0
0.936620 0.250000 0
0.961268 0.250000 0
0.985915 0.250000 0
1.010563 0.250000 0
1.035211 0.250000 0
1.059859 0.250000 0
1.084507 0.250000 0
1.109155 0.250000 0
1.133803 0.250000 0
1.158451 0.250000 0
1.183099 0.250000 0
1.207746 0.250000 0
1.232394 0.250000 0
1.257042 0.250000 0
1.281690 0.250000 0
1.306338 0.250000 0
1.330986 0.250000 0
1.355634 0.250000 0
1.380282 0.250000 0
1.404930 0.250000 0
1.429577 0.250000 0
1.454225 0.250000 0
1.478873 0.250000 0
1.503521 0.250000 0
1.528169 0.250000 0
1.552817 0.250000 0
1.577465 0.250000 0
1.602113 0.250000 0
1.626761 0.250000 0
1.651408 0.250000 0
1.676056 0.250000 0
1.700704 0.250000 0
1.725352 0.250000 0
1.750000 0.250000 0
1.774648 0.250000 0
1.799296 0.250000 0
1.823944 0.250000 0
1.848592 0.250000 0
1.873239 0.250000 0
1.897887 0.250000 0
1.922535 0.250000 0
1.947183 0.250000 0
1.971831 0.250000 0
1.996479 0.250000 0
2.021127 0.250000 0
2.045775 0.250000 0
2.070423 0.250000 0
2.095070 0.250000 0
2.119718 0.250000 0
2.144366 0.250000 0
2.169014 0.250000 0
2.193662 0.250000 0
2.218310 0.250000 0
2.242958 0.250000 0
2.267606 0.250000 0
2.292254 0.250000 0
2.316901 0.250000 0
2.341549 0.250000 0
2.366197 0.250000 0
2.390845 0.250000 0
2.415493 0.250000 0
2.440141 0.250000 0
2.464789 0.250000 0
2.489437 0.250000 0
2.514085 0.250000 0
2.538732 0.250000 0
2.563380 0.250000 0
2.588028 0.250000 0
2.612676 0.250000 0
2.637324 0.250000 0
2.661972 0.250000 0
2.686620 0.250000 0
2.711268 0.250000 0
2.735915 0.250000 0
2.760563 0.250000 0
2.785211 0.250000 0
2.809859 0.250000 0
2.834507 0.250000 0
2.859155 0.250000 0
2.883803 0.250000 0
2.908451 0.250000 0
2.933099 0.250000 0
2.957746 0.250000 0
2.982394 0.250000 0
3.007042 0.250000 0
3.031690 0.250000 0
3.056338 0.250000 0
3.080986 0.250000 0
3.105634 0.250000 0
3.130282 0.250000 0
3.154930 0.250000 0
3.179577 0.250000 0
3.204225 0.250000 0
3.228873 0.250000 0
3.253521 0.250000 0
3.278169 0.250000 0
3.302817 0.250000 0
3.327465 0.250000 0
3.352113 0.250000 0
3.376761 0.250000 0
3.401408 0.250000 0
3.426056 0.250000 0
3.450704 0.250000 0
3.475352 0.250000 0
0.000000 0.261905 0
0.024648 0.261905 0
0.049296 0.261905 0
0.073944 0.261905 0
0.098592 0.261905 0
0.123239 0.261905 0
0.147887 0.261905 0
0.172535 0.261905 0
0.197183 0.261905 0
0.221831 0.261905 0
0.246479 0.261905 0
0.271127 0.261905 0
0.295775 0.261905 0
0.320423 0.261905 0
0.345070 0.261905 0
0.369718 0.261905 0
0.394366 0.261905 0
0.419014 0.261905 0
0.443662 0.261905 0
0.468310 0.261905 0
0.492958 0.261905 0
0.517606 0.261905 0
0.542254 0.261905 0
0.566901 0.261905 0
0.591549 0.261905 0
0.616197 0.261905 0
0.640845 0.261905 0
0.665493 0.261905 0
0.690141 0.261905 0
0.714789 0.261905 0
0.739437 0.261905 0
0.764085 0.261905 0
0.788732 0.261905 0
0.813380 0.261905 0
0.838028 0.261905 0
0.862676 0.261905 0
0.887324 0.261905 0
0.911972 0.261905 0
0.936620 0.261905 0
0.961268 0.261905 0
0.985915 0.261905 0
1.010563 0.261905 0
1.035211 0.261905 0
1.059859 0.261905 0
1.084507 0.261905 0
1.109155 0.261905 0
1.133803 0.261905 0
1.158451 0.261905 0
1.183099 0.261905 0
1.207746 0.261905 0
1.232394 0.261905 0
1.257042 0.261905 0
1.281690 0.261905 0
1.306338 0.261905 0
1.330986 0.261905 0
1.355634 0.261905 0
1.380282 0.261905 0
1.404930 0.261905 0
1.429577 0.261905 0
1.454225 0.261905 0
1.478873 0.261905 0
1.503521 0.261905 0
1.528169 0.261905 0
1.552817 0.261905 0
1.577465 0.261905 0
1.602113 0.261905 0
1.626761 0.261905 0
1.651408 0.261905 0
1.676056 0.261905 0
1.700704 0.261905 0
1.725352 0.261905 0
1.750000 0.261905 0
1.774648 0.261905 0
1.799296 0.261905 0
1.823944 0.261905 0
1.848592 0.261905 0
1.873239 0.261905 0
1.897887 0.261905 0
1.922535 0.261905 0
1.947183 0.261905 0
1.971831 0.261905 0
1.996479 0.261905 0
2.021127 0.261905 0
2.045775 0.261905 0
2.070423 0.261905 0
2.095070 0.261905 0
2.119718 0.261905 0
2.144366 0.261905 0
2.169014 0.261905 0
2.193662 0.261905 0
2.218310 0.261905 0
2.242958 0.261905 0
2.267606 0.261905 0
2.292254 0.261905 0
2.316901 0.261905 0
2.341549 0.261905 0
2.366197 0.261905 0
2.390845 0.261905 0
2.415493 0.261905 0
2.440141 0.261905 0
2.464789 0.261905 0
2.489437 0.261905 0
2.514085 0.261905 0
2.538732 0.261905 0
2.563380 0.261905 0
2.588028 0.261905 0
2.612676 0.261905 0
2.637324 0.261905 0
2.661972 0.261905 0
2.686620 0.261905 0
2.711268 0.261905 0
2.735915 0.261905 0
2.760563 0.261905 0
2.785211 0.261905 0
2.809859 0.261905 0
2.834507 0.261905 0
2.859155 0.261905 0
2.883803 0.261905 0
2.908451 0.261905 0
2.933099 0.261905 0
2.957746 0.261905 0
2.982394 0.261905 0
3.007042 0.261905 0
3.031690 0.261905 0
3.056338 0.261905 0
3.080986 0.261905 0
3.105634 0.261905 0
3.130282 0.261905 0
3.154930 0.261905 0
3.179577 0.261905 0
3.204225 0.261905 0
3.228873 0.261905 0
3.253521 0.261905 0
3.278169 0.261905 0
3.302817 0.261905 0
3.327465 0.261905 0
3.352113 0.261905 0
3.376761 0.261905 0
3.401408 0.261905 0
3.426056 0.261905 0
3.450704 0.261905 0
3.475352 0.261905 0
0.000000 0.273810 0
0.024648 0.273810 0
0.049296 0.273810 0
0.073944 0.273810 0
0.098592 0.273810 0
0.123239 0.273810 0
0.147887 0.273810 0
0.172535 0.273810 0
0.197183 0.273810 0
0.221831 0.273810 0
0.246479 0.273810 0
0.271127 0.273810 0
0.295775 0.273810 0
0.320423 0.273810 0
0.345070 0.273810 0
0.369718 0.273810 0
0.394366 0.273810 0
0.419014 0.273810 0
0.443662 0.273810 0
0.468310 0.273810 0
0.492958 0.273810 0
0.517606 0.273810 0
0.542254 0.273810 0
0.566901 0.273810 0
0.591549 0.273810 0
0.616197 0.273810 0
0.640845 0.273810 0
0.665493 0.273810 0
0.690141 0.273810 0
0.714789 0.273810 0
0.739437 0.273810 0
0.764085 0.273810 0
0.788732 0.273810 0
0.813380 0.273810 0
0.838028 0.273810 0
0.862676 0.273810 0
0.887324 0.273810 0
0.911972 0.273810 0
0.936620 0.273810 0
0.961268 0.273810 0
0.985915 0.273810 0
1.010563 0.273810 0
1.035211 0.273810 0
1.059859 0.273810 0
1.084507 0.273810 0
1.109155 0.273810 0
1.133803 0.273810 0
1.158451 0.273810 0
1.183099 0.273810 0
1.207746 0.273810 0
1.232394 0.273810 0
1.257042 0.273810 0
1.281690 0.273810 0
1.306338 0.273810 0
1.330986 0.273810 0
1.355634 0.273810 0
1.380282 0.273810 0
1.404930 0.273810 0
1.429577 0.273810 0
1.454225 0.273810 0
1.478873 0.273810 0
1.503521 0.273810 0
1.528169 0.273810 0
1.552817 0.273810 0
1.577465 0.273810 0
1.602113 0.273810 0
1.626761 0.273810 0
1.651408 0.273810 0
1.676056 0.273810 0
1.700704 0.273810 0
1.725352 0.273810 0
1.750000 0.273810 0
1.774648 0.273810 0
1.799296 0.273810 0
1.823944 0.273810 0
1.848592 0.273810 0
1.873239 0.273810 0
1.897887 0.273810 0
1.922535 0.273810 0
1.947183 0.273810 0
1.971831 0.273810 0
1.996479 0.273810 0
2.021127 0.273810 0
2.045775 0.273810 0
2.070423 0.273810 0
2.095070 0.273810 0
2.119718 0.273810 0
2.144366 0.273810 0
2.169014 0.273810 0
2.193662 0.273810 0
2.218310 0.273810 0
2.242958 0.273810 0
2.267606 0.273810 0
2.292254 0.273810 0
2.316901 0.273810 0
2.341549 0.273810 0
2.366197 0.273810 0
2.390845 0.273810 0
2.415493 0.273810 0
2.440141 0.273810 0
2.464789 0.273810 0
2.489437 0.273810 0
2.514085 0.273810 0
2.538732 0.273810 0
2.563380 0.273810 0
2.588028 0.273810 0
2.612676 0.273810 0
2.637324 0.273810 0
2.661972 0.273810 0
2.686620 0.273810 0
2.711268 0.273810 0
2.735915 0.273810 0
2.760563 0.273810 0
2.785211 0.273810 0
2.809859 0.273810 0
2.834507 0.273810 0
2.859155 0.273810 0
2.883803 0.273810 0
2.908451 0.273810 0
2.933099 0.273810 0
2.957746 0.273810 0
2.982394 0.273810 0
3.007042 0.273810 0
3.031690 0.273810 0
3.056338 0.273810 0
3.080986 0.273810 0
3.105634 0.273810 0
3.130282 0.273810 0
3.154930 0.273810 0
3.179577 0.273810 0
3.204225 0.273810 0
3.228873 0.273810 0
3.253521 0.273810 0
3.278169 0.273810 0
3.302817 0.273810 0
3.327465 0.273810 0
3.352113 0.273810 0
3.376761 0.273810 0
3.401408 0.273810 0
3.426056 0.273810 0
3.450704 0.273810 0
3.475352 0.273810 0
0.000000 0.285714 0
0.024648 0.285714 0
0.049296 0.285714 0
0.073944 0.285714 0
0.098592 0.285714 0
0.123239 0.285714 0
0.147887 0.285714 0
0.172535 0.285714 0
0.197183 0.285714 0
0.221831 0.285714 0
0.246479 0.285714 0
0.271127 0.285714 0
0.295775 0.285714 0
0.320423 0.285714 0
0.345070 0.285714 0
0.369718 0.285714 0
0.394366 0.285714 0
0.419014 0.285714 0
0.443662 0.285714 0
0.468310 0.285714 0
0.492958 0.285714 0
0.517606 0.285714 0
0.542254 0.285714 0
0.566901 0.285714 0
0.591549 0.285714 0
0.616197 0.285714 0
0.640845 0.285714 0
0.665493 0.285714 0
0.690141 0.285714 0
0.714789 0.285714 0
0.739437 0.285714 0
0.764085 0.285714 0
0.788732 0.285714 0
0.813380 0.285714 0
0.838028 0.285714 0
0.862676 0.285714 0
0.887324 0.285714 0
0.911972 0.285714 0
0.936620 0.285714 0
0.961268 0.285714 0
0.985915 0.285714 0
1.010563 0.285714 0
1.035211 0.285714 0
1.059859 0.285714 0
1.084507 0.285714 0
1.109155 0.285714 0
1.133803 0.285714 0
1.158451 0.285714 0
1.183099 0.285714 0
1.207746 0.285714 0
1.232394 0.285714 0
1.257042 0.285714 0
1.281690 0.285714 0
1.306338 0.285714 0
1.330986 0.285714 0
1.355634 0.285714 0
1.380282 0.285714 0
1.404930 0.285714 0
1.429577 0.285714 0
1.454225 0.285714 0
1.478873 0.285714 0
1.503521 0.285714 0
1.528169 0.285714 0
1.552817 0.285714 0
1.577465 0.285714 0
[...]
POINT_DATA 5964 

VECTORS velocity float
1.000000 0.000000 0
0.999854 0.000000 0
0.999556 0.000000 0
0.999097 0.000000 0
0.998458 0.000000 0
0.997615 0.000000 0
0.996532 0.000000 0
0.995162 0.000000 0
0.993440 0.000000 0
0.991275 0.000000 0
0.988543 0.000000 0
0.985062 0.000000 0
0.980561 0.000000 0
0.974614 0.000000 0
0.966517 0.000000 0
0.954933 0.000000 0
0.937383 0.000000 0
0.905760 0.000000 0
0.847693 0.000000 0
-0.000000 0.000000 0
-0.000000 0.000000 0
-0.000000 0.000000 0
0.000000 0.000000 0
0.000000 0.000000 0
-0.000000 0.000000 0
-0.000000 0.000000 0
0.000000 0.000000 0
0.000000 0.000000 0
0.000000 0.000000 0
-0.000000 0.000000 0
-0.000000 0.000000 0
0.000000 0.000000 0
0.000000 0.000000 0
-0.000000 0.000000 0
-0.000000 0.000000 0
0.000000 0.000000 0
0.000000 0.000000 0
-0.000000 0.000000 0
-0.000000 0.000000 0
0.000000 0.000000 0
0.000000 0.000000 0
0.000000 0.000000 0
-0.000000 0.000000 0
-0.000000 0.000000 0
-0.000000 0.000000 0
0.000000 0.000000 0
0.000000 0.000000 0
0.000000 0.000000 0
-0.000000 0.000000 0
-0.000000 0.000000 0
0.000000 0.000000 0
0.000000 0.000000 0
0.000000 0.000000 0
-0.000000 0.000000 0
-0.000000 0.000000 0
-0.000000 0.000000 0
0.000000 0.000000 0
0.000000 0.000000 0
0.000000 0.000000 0
-0.000000 0.000000 0
-0.000000 0.000000 0
-0.000000 0.000000 0
-0.000000 0.000000 0
-0.000000 0.000000 0
-0.000000 0.000000 0
0.000000 0.000000 0
0.000000 0.000000 0
-0.000000 0.000000 0
-0.000000 0.000000 0
-0.000000 0.000000 0
0.000000 0.000000 0
0.000000 0.000000 0
-0.000000 0.000000 0
-0.000000 0.000000 0
-0.000000 0.000000 0
0.000000 0.000000 0
-0.000000 0.000000 0
-0.000000 0.000000 0
-0.000000 0.000000 0
-0.000000 0.000000 0
0.000000 0.000000 0
-0.000000 0.000000 0
-0.000000 0.000000 0
-0.000000 0.000000 0
-0.000000 0.000000 0
-0.000000 0.000000 0
-0.000000 0.000000 0
-0.000000 0.000000 0
-0.000000 0.000000 0
-0.000000 0.000000 0
-0.000000 0.000000 0
-0.000000 0.000000 0
-0.000000 0.000000 0
-0.000000 0.000000 0
-0.000000 0.000000 0
-0.000000 0.000000 0
-0.000000 0.000000 0
-0.000000 0.000000 0
-0.000000 0.000000 0
-0.000000 0.000000 0
-0.000000 0.000000 0
-0.000000 0.000000 0
-0.000000 0.000000 0
-0.000000 0.000000 0
-0.000000 0.000000 0
-0.000000 0.000000 0
-0.000000 0.000000 0
-0.000000 0.000000 0
-0.000000 0.000000 0
-0.000000 0.000000 0
-0.000000 0.000000 0
-0.000000 0.000000 0
-0.000000 0.000000 0
-0.000000 0.000000 0
-0.000000 0.000000 0
-0.000000 0.000000 0
-0.000000 0.000000 0
-0.000000 0.000000 0
-0.000000 0.000000 0
-0.000000 0.000000 0
-0.000000 0.000000 0
-0.000000 0.000000 0
-0.000000 0.000000 0
-0.000000 0.000000 0
-0.000000 0.000000 0
-0.000000 0.000000 0
-0.000000 0.000000 0
-0.000000 0.000000 0
-0.000000 0.000000 0
-0.000000 0.000000 0
-0.000000 0.000000 0
-0.000000 0.000000 0
-0.000000 0.000000 0
-0.000000 0.000000 0
-0.000000 0.000000 0
-0.000000 0.000000 0
-0.000000 0.000000 0
-0.000000 0.000000 0
-0.000000 0.000000 0
0.000000 0.000000 0
-0.000000 0.000000 0
0.496408 0.000000 0
1.000000 0.000035 0
0.999854 0.000107 0
0.999558 0.000183 0
0.999101 0.000265 0
0.998465 0.000358 0
0.997626 0.000465 0
0.996549 0.000592 0
0.995186 0.000747 0
0.993474 0.000939 0
0.991325 0.001182 0
0.988614 0.001500 0
0.985165 0.001928 0
0.980713 0.002523 0
0.974850 0.003392 0
0.966903 0.004753 0
0.955641 0.007036 0
0.938825 0.011875 0
0.910180 0.021660 0
0.860874 0.078853 0
0.714886 0.110956 0
0.576504 0.072745 0
0.473017 0.041074 0
0.401066 0.022638 0
0.351163 0.013309 0
0.315499 0.008679 0
0.288994 0.006202 0
0.268554 0.004718 0
0.252294 0.003739 0
0.239027 0.003050 0
0.227980 0.002542 0
0.218624 0.002156 0
0.210590 0.001855 0
0.203608 0.001615 0
0.197480 0.001420 0
0.192052 0.001260 0
0.187208 0.001127 0
0.182854 0.001015 0
0.178917 0.000919 0
0.175337 0.000838 0
0.172064 0.000767 0
0.169059 0.000706 0
0.166287 0.000652 0
0.163720 0.000605 0
0.161334 0.000564 0
0.159110 0.000526 0
0.157028 0.000493 0
0.155075 0.000464 0
0.153237 0.000437 0
0.151503 0.000413 0
0.149864 0.000391 0
0.148309 0.000372 0
0.146833 0.000353 0
0.145428 0.000337 0
0.144089 0.000322 0
0.142810 0.000308 0
0.141586 0.000295 0
0.140413 0.000283 0
0.139288 0.000272 0
0.138207 0.000261 0
0.137168 0.000252 0
0.136166 0.000242 0
0.135201 0.000234 0
0.134270 0.000226 0
0.133370 0.000219 0
0.132500 0.000211 0
0.131658 0.000205 0
0.130843 0.000198 0
0.130053 0.000192 0
0.129287 0.000187 0
0.128543 0.000181 0
0.127822 0.000176 0
0.127121 0.000171 0
0.126439 0.000166 0
0.125776 0.000162 0
0.125132 0.000157 0
0.124505 0.000153 0
0.123894 0.000149 0
0.123299 0.000145 0
0.122720 0.000142 0
0.122156 0.000138 0
0.121607 0.000134 0
0.121071 0.000131 0
0.120550 0.000127 0
0.120042 0.000124 0
0.119547 0.000121 0
0.119065 0.000118 0
0.118596 0.000114 0
0.118140 0.000111 0
0.117697 0.000108 0
0.117267 0.000104 0
0.116849 0.000101 0
0.116445 0.000098 0
0.116054 0.000094 0
0.115677 0.000091 0
0.115314 0.000087 0
0.114966 0.000083 0
0.114634 0.000079 0
0.114318 0.000074 0
0.114020 0.000069 0
0.113741 0.000064 0
0.113481 0.000058 0
0.113244 0.000052 0
0.113031 0.000045 0
0.112845 0.000038 0
0.112688 0.000029 0
0.112563 0.000020 0
0.112475 0.000009 0
0.112428 -0.000003 0
0.112429 -0.000017 0
0.112484 -0.000033 0
0.112599 -0.000050 0
0.112780 -0.000069 0
0.113037 -0.000091 0
0.113380 -0.000117 0
0.113821 -0.000146 0
0.114376 -0.000180 0
0.115062 -0.000219 0
0.115898 -0.000264 0
0.116910 -0.000317 0
0.118124 -0.000379 0
0.119576 -0.000451 0
0.121306 -0.000537 0
0.123364 -0.000639 0
0.125809 -0.000760 0
0.128717 -0.000907 0
0.132180 -0.001085 0
0.136317 -0.001303 0
0.141276 -0.001575 0
0.147253 -0.001917 0
0.154505 -0.002355 0
0.163380 -0.002926 0
0.174356 -0.003690 0
0.188111 -0.004740 0
0.205639 -0.006232 0
0.228450 -0.008452 0
0.258953 -0.011956 0
0.301264 -0.017907 0
0.362714 -0.029700 0
0.459946 -0.052082 0
0.617938 -0.166962 0
0.993124 -0.267470 0
0.993124 -0.133735 0
1.000000 0.000070 0
0.999856 0.000213 0
0.999564 0.000364 0
0.999113 0.000528 0
0.998486 0.000712 0
0.997659 0.000926 0
0.996599 0.001178 0
0.995259 0.001485 0
0.993579 0.001865 0
0.991473 0.002348 0
0.988825 0.002975 0
0.985469 0.003816 0
0.981163 0.004982 0
0.975541 0.006670 0
0.968025 0.009278 0
0.957649 0.013561 0
0.942785 0.021957 0
0.920694 0.037650 0
0.888370 0.094326 0
0.890999 0.137349 0
0.842149 0.116821 0
0.771618 0.084735 0
0.701222 0.058855 0
0.639920 0.041328 0
0.589257 0.030027 0
0.547923 0.022674 0
0.514040 0.017726 0
0.485953 0.014261 0
0.462370 0.011743 0
0.442322 0.009855 0
0.425082 0.008399 0
0.410105 0.007253 0
0.396971 0.006332 0
0.385359 0.005582 0
0.375016 0.004961 0
0.365741 0.004443 0
0.357374 0.004004 0
0.349783 0.003631 0
0.342863 0.003310 0
0.336523 0.003032 0
0.330692 0.002790 0
0.325306 0.002579 0
0.320313 0.002392 0
0.315668 0.002227 0
0.311333 0.002080 0
0.307276 0.001949 0
0.303467 0.001831 0
0.299883 0.001725 0
0.296500 0.001629 0
0.293302 0.001543 0
0.290270 0.001464 0
0.287391 0.001391 0
0.284652 0.001325 0
0.282040 0.001265 0
0.279546 0.001209 0
0.277161 0.001157 0
0.274877 0.001110 0
0.272685 0.001065 0
0.270581 0.001024 0
0.268557 0.000986 0
0.266608 0.000950 0
0.264730 0.000916 0
0.262918 0.000885 0
0.261168 0.000855 0
0.259477 0.000827 0
0.257841 0.000800 0
0.256256 0.000775 0
0.254721 0.000752 0
0.253233 0.000729 0
0.251789 0.000708 0
0.250388 0.000687 0
0.249026 0.000668 0
0.247703 0.000649 0
0.246416 0.000631 0
0.245165 0.000614 0
0.243947 0.000598 0
0.242762 0.000582 0
0.241608 0.000567 0
0.240483 0.000552 0
0.239388 0.000538 0
0.238321 0.000524 0
0.237281 0.000510 0
0.236267 0.000497 0
0.235280 0.000484 0
0.234318 0.000472 0
0.233381 0.000459 0
0.232468 0.000447 0
0.231580 0.000434 0
0.230716 0.000422 0
0.229877 0.000409 0
0.229061 0.000397 0
0.228270 0.000384 0
0.227505 0.000371 0
0.226765 0.000357 0
0.226051 0.000343 0
0.225364 0.000329 0
0.224707 0.000313 0
0.224079 0.000297 0
0.223483 0.000279 0
0.222920 0.000260 0
0.222395 0.000240 0
0.221908 0.000217 0
0.221465 0.000193 0
0.221068 0.000166 0
0.220723 0.000136 0
0.220435 0.000103 0
0.220210 0.000065 0
0.220057 0.000022 0
0.219985 -0.000027 0
0.220008 -0.000082 0
0.220137 -0.000143 0
0.220382 -0.000212 0
0.220759 -0.000290 0
0.221285 -0.000379 0
0.221982 -0.000481 0
0.222874 -0.000599 0
0.223990 -0.000735 0
0.225364 -0.000893 0
0.227036 -0.001075 0
0.229053 -0.001288 0
0.231471 -0.001537 0
0.234357 -0.001829 0
0.237791 -0.002175 0
0.241870 -0.002586 0
0.246713 -0.003077 0
0.252466 -0.003671 0
0.259312 -0.004393 0
0.267480 -0.005282 0
0.277264 -0.006390 0
0.289043 -0.007789 0
0.303318 -0.009588 0
0.320758 -0.011945 0
0.342285 -0.015110 0
0.369189 -0.019483 0
0.403340 -0.025750 0
0.447516 -0.035169 0
0.506030 -0.050116 0
0.585526 -0.076642 0
0.697268 -0.123271 0
0.855250 -0.257521 0
0.993821 -0.362425 0
0.993821 -0.181212 0
1.000000 0.000105 0
0.999859 0.000318 0
0.999574 0.000542 0
0.999133 0.000786 0
0.998521 0.001060 0
0.997714 0.001377 0
0.996681 0.001752 0
0.995379 0.002205 0
0.993750 0.002767 0
0.991715 0.003479 0
0.989168 0.004400 0
0.985962 0.005628 0
0.981887 0.007318 0
0.976642 0.009737 0
0.969782 0.013395 0
0.960673 0.019226 0
0.948431 0.029724 0
0.933028 0.047942 0
0.915086 0.093196 0
0.945330 0.133281 0
0.948626 0.130405 0
0.922938 0.109141 0
0.881981 0.086247 0
0.836589 0.067387 0
0.792539 0.053113 0
0.752206 0.042531 0
0.716223 0.034649 0
0.684455 0.028696 0
0.656485 0.024123 0
0.631828 0.020552 0
0.610017 0.017717 0
0.590640 0.015433 0
0.573343 0.013567 0
0.557826 0.012025 0
0.543839 0.010736 0
0.531172 0.009648 0
0.519650 0.008722 0
0.509125 0.007928 0
0.499472 0.007242 0
0.490585 0.006646 0
0.482375 0.006124 0
0.474763 0.005665 0
0.467686 0.005260 0
0.461084 0.004900 0
0.454908 0.004580 0
0.449116 0.004293 0
0.443670 0.004035 0
0.438537 0.003802 0
0.433688 0.003592 0
0.429097 0.003400 0
0.424741 0.003226 0
0.420602 0.003067 0
0.416661 0.002922 0
0.412901 0.002788 0
0.409310 0.002664 0
0.405874 0.002550 0
0.402582 0.002445 0
0.399423 0.002347 0
0.396388 0.002255 0
0.393469 0.002170 0
0.390659 0.002091 0
0.387950 0.002016 0
0.385336 0.001946 0
0.382811 0.001881 0
0.380370 0.001819 0
0.378009 0.001760 0
0.375723 0.001705 0
0.373507 0.001653 0
0.371359 0.001603 0
0.369275 0.001556 0
0.367251 0.001511 0
0.365285 0.001468 0
0.363375 0.001427 0
0.361517 0.001388 0
0.359710 0.001350 0
0.357951 0.001314 0
0.356238 0.001279 0
0.354570 0.001246 0
0.352945 0.001214 0
0.351362 0.001182 0
0.349819 0.001152 0
0.348315 0.001123 0
0.346849 0.001094 0
0.345419 0.001066 0
0.344026 0.001038 0
0.342669 0.001011 0
0.341346 0.000984 0
0.340057 0.000957 0
0.338803 0.000931 0
0.337583 0.000904 0
0.336396 0.000877 0
0.335244 0.000849 0
0.334127 0.000822 0
0.333046 0.000793 0
0.332000 0.000763 0
0.330992 0.000732 0
0.330023 0.000700 0
0.329094 0.000665 0
0.328209 0.000629 0
0.327369 0.000589 0
0.326578 0.000547 0
0.325839 0.000501 0
0.325157 0.000451 0
0.324537 0.000396 0
0.323985 0.000335 0
0.323507 0.000267 0
0.323113 0.000191 0
0.322811 0.000105 0
0.322612 0.000006 0
0.322532 -0.000106 0
0.322590 -0.000230 0
0.322800 -0.000369 0
0.323180 -0.000527 0
0.323753 -0.000707 0
0.324545 -0.000913 0
0.325587 -0.001150 0
0.326914 -0.001422 0
0.328568 -0.001736 0
0.330599 -0.002099 0
0.333064 -0.002521 0
0.336032 -0.003013 0
0.339583 -0.003589 0
0.343813 -0.004267 0
0.348838 -0.005069 0
0.354797 -0.006025 0
0.361861 -0.007170 0
0.370238 -0.008555 0
0.380185 -0.010245 0
0.392028 -0.012331 0
0.406175 -0.014938 0
0.423155 -0.018244 0
0.443651 -0.022511 0
0.468571 -0.028132 0
0.499131 -0.035722 0
0.536985 -0.046283 0
0.584408 -0.061555 0
0.644514 -0.084565 0
0.721228 -0.122067 0
0.818106 -0.182357 0
0.934438 -0.310195 0
0.994591 -0.401327 0
0.994591 -0.200664 0
1.000000 0.000138 0
0.999864 0.000419 0
0.999587 0.000715 0
0.999160 0.001037 0
0.998568 0.001398 0
0.997789 0.001814 0
0.996794 0.002306 0
0.995543 0.002901 0
0.993983 0.003635 0
0.992045 0.004560 0
0.989634 0.005754 0
0.986627 0.007333 0
0.982854 0.009484 0
0.978089 0.012517 0
0.972036 0.016991 0
0.964382 0.023874 0
0.954906 0.035310 0
0.945019 0.053755 0
0.937268 0.088384 0
0.965707 0.121150 0
0.987884 0.127636 0
0.990071 0.116924 0
0.975766 0.100561 0
0.951736 0.084528 0
0.923218 0.070783 0
0.893429 0.059534 0
0.864150 0.050450 0
0.836292 0.043114 0
0.810267 0.037162 0
0.786201 0.032298 0
0.764073 0.028292 0
0.743777 0.024966 0
0.725176 0.022181 0
0.708119 0.019832 0
0.692457 0.017835 0
0.678050 0.016126 0
0.664768 0.014653 0
0.652495 0.013377 0
0.641128 0.012265 0
0.630573 0.011290 0
0.620748 0.010432 0
0.611580 0.009673 0
0.603006 0.008999 0
0.594968 0.008398 0
0.587416 0.007860 0
0.580305 0.007377 0
0.573596 0.006941 0
0.567252 0.006547 0
0.561243 0.006189 0
0.555540 0.005863 0
0.550118 0.005566 0
0.544955 0.005294 0
0.540031 0.005045 0
0.535326 0.004815 0
0.530826 0.004603 0
0.526515 0.004407 0
0.522379 0.004226 0
0.518407 0.004057 0
0.514588 0.003900 0
0.510912 0.003753 0
0.507369 0.003616 0
0.503951 0.003487 0
0.500652 0.003367 0
0.497463 0.003253 0
0.494379 0.003146 0
0.491393 0.003045 0
0.488501 0.002950 0
0.485697 0.002859 0
0.482977 0.002773 0
0.480337 0.002692 0
0.477773 0.002614 0
0.475281 0.002540 0
0.472858 0.002469 0
0.470501 0.002402 0
0.468207 0.002337 0
0.465974 0.002275 0
0.463798 0.002215 0
0.461679 0.002157 0
0.459614 0.002102 0
0.457600 0.002048 0
0.455637 0.001996 0
0.453723 0.001945 0
0.451856 0.001896 0
0.450035 0.001848 0
0.448259 0.001800 0
0.446527 0.001754 0
0.444838 0.001708 0
0.443192 0.001662 0
0.441588 0.001617 0
0.440027 0.001572 0
0.438507 0.001526 0
0.437029 0.001480 0
0.435594 0.001433 0
0.434202 0.001385 0
0.432854 0.001335 0
0.431552 0.001284 0
0.430296 0.001230 0
0.429089 0.001173 0
0.427933 0.001112 0
0.426832 0.001048 0
0.425788 0.000979 0
0.424806 0.000904 0
0.423890 0.000822 0
0.423047 0.000732 0
0.422282 0.000634 0
0.421605 0.000524 0
0.421023 0.000402 0
0.420547 0.000264 0
0.420190 0.000108 0
0.419962 -0.000071 0
0.419891 -0.000273 0
0.419994 -0.000497 0
0.420292 -0.000750 0
0.420809 -0.001038 0
0.421574 -0.001367 0
0.422621 -0.001743 0
0.423989 -0.002175 0
0.425723 -0.002673 0
0.427878 -0.003247 0
0.430515 -0.003912 0
0.433709 -0.004685 0
0.437544 -0.005587 0
0.442124 -0.006645 0
0.447568 -0.007891 0
0.454023 -0.009367 0
0.461661 -0.011128 0
0.470693 -0.013243 0
0.481375 -0.015807 0
0.494023 -0.018943 0
0.509026 -0.022823 0
0.526873 -0.027688 0
0.548179 -0.033881 0
0.573723 -0.041906 0
0.604503 -0.052527 0
0.641783 -0.066938 0
0.687126 -0.087104 0
0.742321 -0.116199 0
0.808865 -0.160486 0
0.885537 -0.226250 0
0.965166 -0.342762 0
0.995317 -0.420532 0
0.995317 -0.210266 0
1.000000 0.000170 0
0.999869 0.000517 0
0.999604 0.000882 0
0.999195 0.001278 0
0.998628 0.001722 0
0.997884 0.002234 0
0.996936 0.002837 0
0.995748 0.003563 0
0.994274 0.004457 0
0.992454 0.005579 0
0.990209 0.007017 0
0.987440 0.008903 0
0.984022 0.011442 0
0.979805 0.014962 0
0.974637 0.020015 0
0.968468 0.027500 0
0.961560 0.039076 0
0.955831 0.056461 0
0.954476 0.083204 0
0.976671 0.108834 0
1.001710 0.118637 0
1.016358 0.114993 0
1.018677 0.104763 0
1.011391 0.092767 0
0.997797 0.081275 0
0.980475 0.071061 0
0.961200 0.062246 0
0.941142 0.054721 0
0.921050 0.048317 0
0.901397 0.042863 0
0.882463 0.038207 0
0.864406 0.034219 0
0.847300 0.030789 0
0.831164 0.027828 0
0.815984 0.025259 0
0.801724 0.023022 0
0.788337 0.021065 0
0.775768 0.019346 0
0.763963 0.017831 0
0.752867 0.016489 0
0.742425 0.015297 0
0.732589 0.014234 0
0.723310 0.013284 0
0.714545 0.012430 0
0.706253 0.011662 0
0.698397 0.010968 0
0.690944 0.010339 0
0.683863 0.009769 0
0.677125 0.009248 0
0.670704 0.008774 0
0.664578 0.008339 0
0.658725 0.007939 0
0.653125 0.007572 0
0.647760 0.007233 0
0.642615 0.006920 0
0.637676 0.006630 0
0.632927 0.006360 0
0.628358 0.006110 0
0.623956 0.005876 0
0.619712 0.005657 0
0.615615 0.005453 0
0.611658 0.005261 0
0.607833 0.005080 0
0.604131 0.004910 0
0.600547 0.004750 0
0.597073 0.004599 0
0.593705 0.004456 0
0.590436 0.004320 0
0.587263 0.004192 0
0.584179 0.004069 0
0.581182 0.003953 0
0.578267 0.003842 0
0.575431 0.003736 0
0.572670 0.003634 0
0.569981 0.003537 0
0.567361 0.003443 0
0.564807 0.003354 0
0.562317 0.003267 0
0.559889 0.003184 0
0.557521 0.003103 0
0.555210 0.003025 0
0.552955 0.002949 0
0.550754 0.002875 0
0.548606 0.002803 0
0.546510 0.002732 0
0.544464 0.002663 0
0.542467 0.002595 0
0.540520 0.002527 0
0.538620 0.002459 0
0.536768 0.002392 0
0.534965 0.002325 0
0.533208 0.002256 0
0.531500 0.002187 0
0.529841 0.002116 0
0.528231 0.002043 0
0.526672 0.001968 0
0.525166 0.001889 0
0.523714 0.001806 0
0.522319 0.001719 0
0.520984 0.001626 0
0.519712 0.001526 0
0.518508 0.001418 0
0.517377 0.001301 0
0.516324 0.001173 0
0.515358 0.001032 0
0.514485 0.000876 0
0.513715 0.000702 0
0.513060 0.000508 0
0.512531 0.000289 0
0.512141 0.000038 0
0.511908 -0.000246 0
0.511862 -0.000563 0
0.512023 -0.000921 0
0.512416 -0.001326 0
0.513070 -0.001788 0
0.514022 -0.002316 0
0.515310 -0.002920 0
0.516982 -0.003614 0
0.519092 -0.004414 0
0.521703 -0.005337 0
0.524889 -0.006408 0
0.528736 -0.007654 0
0.533343 -0.009109 0
0.538832 -0.010817 0
0.545340 -0.012831 0
0.553036 -0.015221 0
0.562117 -0.018077 0
0.572822 -0.021514 0
0.585437 -0.025687 0
0.600308 -0.030805 0
0.617857 -0.037155 0
0.638597 -0.045139 0
0.663149 -0.055336 0
0.692259 -0.068594 0
0.726788 -0.086189 0
0.767647 -0.110114 0
0.815546 -0.143364 0
0.870305 -0.191239 0
0.928465 -0.257849 0
0.981680 -0.363218 0
0.995979 -0.430454 0
0.995979 -0.215227 0
1.000000 0.000201 0
0.999876 0.000611 0
0.999624 0.001041 0
0.999236 0.001508 0
0.998699 0.002031 0
0.997996 0.002631 0
0.997104 0.003338 0
0.995990 0.004186 0
0.994616 0.005226 0
0.992932 0.006524 0
0.990877 0.008175 0
0.988376 0.010321 0
0.985348 0.013171 0
0.981715 0.017050 0
0.977446 0.022466 0
0.972684 0.030190 0
0.967981 0.041413 0
0.965254 0.057176 0
0.967534 0.078318 0
0.984749 0.098336 0
1.007163 0.108468 0
1.025317 0.108730 0
1.035732 0.102960 0
1.038731 0.094612 0
1.035895 0.085716 0
1.028851 0.077211 0
1.018912 0.069447 0
1.007069 0.062506 0
0.994050 0.056359 0
0.980383 0.050936 0
0.966451 0.046159 0
0.952529 0.041949 0
0.938808 0.038237 0
0.925418 0.034957 0
0.912445 0.032054 0
0.899940 0.029479 0
0.887932 0.027190 0
0.876432 0.025149 0
0.865437 0.023326 0
0.854937 0.021693 0
0.844916 0.020226 0
0.835356 0.018906 0
0.826235 0.017714 0
0.817530 0.016637 0
0.809218 0.015659 0
0.801277 0.014771 0
0.793685 0.013961 0
0.786421 0.013221 0
0.779466 0.012545 0
0.772800 0.011924 0
0.766406 0.011353 0
0.760266 0.010826 0
0.754367 0.010341 0
0.748692 0.009891 0
0.743228 0.009474 0
0.737964 0.009087 0
0.732888 0.008726 0
0.727988 0.008390 0
0.723255 0.008076 0
0.718679 0.007781 0
0.714252 0.007505 0
0.709966 0.007246 0
0.705813 0.007002 0
0.701787 0.006772 0
0.697881 0.006555 0
0.694090 0.006350 0
0.690407 0.006155 0
0.686827 0.005971 0
0.683347 0.005795 0
0.679960 0.005628 0
0.676664 0.005470 0
0.673454 0.005318 0
0.670327 0.005173 0
0.667279 0.005034 0
0.664307 0.004901 0
0.661408 0.004773 0
0.658580 0.004651 0
0.655820 0.004532 0
0.653125 0.004418 0
0.650494 0.004308 0
0.647925 0.004201 0
0.645415 0.004097 0
0.642963 0.003996 0
0.640568 0.003898 0
0.638228 0.003801 0
0.635942 0.003706 0
0.633709 0.003613 0
0.631528 0.003521 0
0.629399 0.003429 0
0.627322 0.003337 0
0.625295 0.003246 0
0.623319 0.003153 0
0.621395 0.003059 0
0.619523 0.002964 0
0.617704 0.002866 0
0.615938 0.002764 0
0.614228 0.002658 0
0.612576 0.002548 0
0.610984 0.002431 0
0.609454 0.002307 0
0.607992 0.002174 0
0.606600 0.002031 0
0.605284 0.001876 0
0.604050 0.001707 0
0.602905 0.001522 0
0.601856 0.001317 0
0.600914 0.001090 0
0.600089 0.000836 0
0.599394 0.000551 0
0.598842 0.000229 0
0.598444 -0.000138 0
0.598233 -0.000552 0
0.598231 -0.001018 0
0.598463 -0.001544 0
0.598959 -0.002143 0
0.599755 -0.002825 0
0.600888 -0.003605 0
0.602405 -0.004499 0
0.604359 -0.005527 0
0.606810 -0.006712 0
0.609831 -0.008082 0
0.613502 -0.009671 0
0.617920 -0.011521 0
0.623197 -0.013685 0
0.629462 -0.016228 0
0.636870 -0.019231 0
0.645598 -0.022800 0
0.655860 -0.027070 0
0.667904 -0.032218 0
0.682024 -0.038483 0
0.698566 -0.046182 0