# vtk DataFile Version 2.0
generated by CFD-lab course output (written by Tobias Neckel) 
ASCII

DATASET STRUCTURED_GRID
DIMENSIONS  142 42 1 
POINTS 5964 float

0.000000 0.250000 0
0.024648 0.250000 0
0.049296 0.250000 0
0.073944 0.250000 0
0.098592 0.250000 0
0.123239 0.250000 0
0.147887 0.250000 0
0.172535 0.250000 0
0.197183 0.250000 0
0.221831 0.250000 0
0.246479 0.250000 0
0.271127 0.250000 0
0.295775 0.250000 0
0.320423 0.250000 0
0.345070 0.250000 0
0.369718 0.250000 0
0.394366 0.250000 0
0.419014 0.250000 0
0.443662 0.250000 0
0.468310 0.250000 0
0.492958 0.250000 0
0.517606 0.250000 0
0.542254 0.250000 0
0.566901 0.250000 0
0.591549 0.250000 0
0.616197 0.250000 0
0.640845 0.250000 0
0.665493 0.250000 0
0.690141 0.250000 0
0.714789 0.250000 0
0.739437 0.250000 0
0.764085 0.250000 0
0.788732 0.250000 0
0.813380 0.250000 0
0.838028 0.250000 0
0.862676 0.250000 0
0.887324 0.250000 0
0.911972 0.250000 0
0.936620 0.250000 0
0.961268 0.250000 0
0.985915 0.250000 0
1.010563 0.250000 0
1.035211 0.250000 0
1.059859 0.250000 0
1.084507 0.250000 0
1.109155 0.250000 0
1.133803 0.250000 0
1.158451 0.250000 0
1.183099 0.250000 0
1.207746 0.250000 0
1.232394 0.250000 0
1.257042 0.250000 0
1.281690 0.250000 0
1.306338 0.250000 0
1.330986 0.250000 0
1.355634 0.250000 0
1.380282 0.250000 0
1.404930 0.250000 0
1.429577 0.250000 0
1.454225 0.250000 0
1.478873 0.250000 0
1.503521 0.250000 0
1.528169 0.250000 0
1.552817 0.250000 0
1.577465 0.250000 0
1.602113 0.250000 0
1.626761 0.250000 0
1.651408 0.250000 0
1.676056 0.250000 0
1.700704 0.250000 0
1.725352 0.250000 0
1.750000 0.250000 0
1.774648 0.250000 0
1.799296 0.250000 0
1.823944 0.250000 0
1.848592 0.250000 0
1.873239 0.250000 0
1.897887 0.250000 0
1.922535 0.250000 0
1.947183 0.250000 0
1.971831 0.250000 0
1.996479 0.250000 0
2.021127 0.250000 0
2.045775 0.250000 0
2.070423 0.250000 0
2.095070 0.250000 0
2.119718 0.250000 0
2.144366 0.250000 0
2.169014 0.250000 0
2.193662 0.250000 0
2.218310 0.250000 0
2.242958 0.250000 0
2.267606 0.250000 0
2.292254 0.250000 0
2.316901 0.250000 0
2.341549 0.250000 0
2.366197 0.250000 0
2.390845 0.250000 0
2.415493 0.250000 0
2.440141 0.250000 0
2.464789 0.250000 0
2.489437 0.250000 0
2.514085 0.250000 0
2.538732 0.250000 0
2.563380 0.250000 0
2.588028 0.250000 0
2.612676 0.250000 0
2.637324 0.250000 0
2.661972 0.250000 0
2.686620 0.250000 0
2.711268 0.250000 0
2.735915 0.250000 0
2.760563 0.250000 0
2.785211 0.250000 0
2.809859 0.250000 0
2.834507 0.250000 0
2.859155 0.250000 0
2.883803 0.250000 0
2.908451 0.250000 0
2.933099 0.250000 0
2.957746 0.250000 0
2.982394 0.250000 0
3.007042 0.250000 0
3.031690 0.250000 0
3.056338 0.250000 0
3.080986 0.250000 0
3.105634 0.250000 0
3.130282 0.250000 0
3.154930 0.250000 0
3.179577 0.250000 0
3.204225 0.250000 0
3.228873 0.250000 0
3.253521 0.250000 0
3.278169 0.250000 0
3.302817 0.250000 0
3.327465 0.250000 0
3.352113 0.250000 0
3.376761 0.250000 0
3.401408 0.250000 0
3.426056 0.250000 0
3.450704 0.250000 0
3.475352 0.250000 0
0.000000 0.261905 0
0.024648 0.261905 0
0.049296 0.261905 0
0.073944 0.261905 0
0.098592 0.261905 0
0.123239 0.261905 0
0.147887 0.261905 0
0.172535 0.261905 0
0.197183 0.261905 0
0.221831 0.261905 0
0.246479 0.261905 0
0.271127 0.261905 0
0.295775 0.261905 0
0.320423 0.261905 0
0.345070 0.261905 0
0.369718 0.261905 0
0.394366 0.261905 0
0.419014 0.261905 0
0.443662 0.261905 0
0.468310 0.261905 0
0.492958 0.261905 0
0.517606 0.261905 0
0.542254 0.261905 0
0.566901 0.261905 0
0.591549 0.261905 0
0.616197 0.261905 0
0.640845 0.261905 0
0.665493 0.261905 0
0.690141 0.261905 0
0.714789 0.261905 0
0.739437 0.261905 0
0.764085 0.261905 0
0.788732 0.261905 0
0.813380 0.261905 0
0.838028 0.261905 0
0.862676 0.261905 0
0.887324 0.261905 0
0.911972 0.261905 0
0.936620 0.261905 0
0.961268 0.261905 0
0.985915 0.261905 0
1.010563 0.261905 0
1.035211 0.261905 0
1.059859 0.261905 0
1.084507 0.261905 0
1.109155 0.261905 0
1.133803 0.261905 0
1.158451 0.261905 0
1.183099 0.261905 0
1.207746 0.261905 0
1.232394 0.261905 0
1.257042 0.261905 0
1.281690 0.261905 0
1.306338 0.261905 0
1.330986 0.261905 0
1.355634 0.261905 0
1.380282 0.261905 0
1.404930 0.261905 0
1.429577 0.261905 0
1.454225 0.261905 0
1.478873 0.261905 0
1.503521 0.261905 0
1.528169 0.261905 0
1.552817 0.261905 0
1.577465 0.261905 0
1.602113 0.261905 0
1.626761 0.261905 0
1.651408 0.261905 0
1.676056 0.261905 0
1.700704 0.261905 0
1.725352 0.261905 0
1.750000 0.261905 0
1.774648 0.261905 0
1.799296 0.261905 0
1.823944 0.261905 0
1.848592 0.261905 0
1.873239 0.261905 0
1.897887 0.261905 0
1.922535 0.261905 0
1.947183 0.261905 0
1.971831 0.261905 0
1.996479 0.261905 0
2.021127 0.261905 0
2.045775 0.261905 0
2.070423 0.261905 0
2.095070 0.261905 0
2.119718 0.261905 0
2.144366 0.261905 0
2.169014 0.261905 0
2.193662 0.261905 0
2.218310 0.261905 0
2.242958 0.261905 0
2.267606 0.261905 0
2.292254 0.261905 0
2.316901 0.261905 0
2.341549 0.261905 0
2.366197 0.261905 0
2.390845 0.261905 0
2.415493 0.261905 0
2.440141 0.261905 0
2.464789 0.261905 0
2.489437 0.261905 0
2.514085 0.261905 0
2.538732 0.261905 0
2.563380 0.261905 0
2.588028 0.261905 0
2.612676 0.261905 0
2.637324 0.261905 0
2.661972 0.261905 0
2.686620 0.261905 0
2.711268 0.261905 0
2.735915 0.261905 0
2.760563 0.261905 0
2.785211 0.261905 0
2.809859 0.261905 0
2.834507 0.261905 0
2.859155 0.261905 0
2.883803 0.261905 0
2.908451 0.261905 0
2.933099 0.261905 0
2.957746 0.261905 0
2.982394 0.261905 0
3.007042 0.261905 0
3.031690 0.261905 0
3.056338 0.261905 0
3.080986 0.261905 0
3.105634 0.261905 0
3.130282 0.261905 0
3.154930 0.261905 0
3.179577 0.261905 0
3.204225 0.261905 0
3.228873 0.261905 0
3.253521 0.261905 0
3.278169 0.261905 0
3.302817 0.261905 0
3.327465 0.261905 0
3.352113 0.261905 0
3.376761 0.261905 0
3.401408 0.261905 0
3.426056 0.261905 0
3.450704 0.261905 0
3.475352 0.261905 0
0.000000 0.273810 0
0.024648 0.273810 0
0.049296 0.273810 0
0.073944 0.273810 0
0.098592 0.273810 0
0.123239 0.273810 0
0.147887 0.273810 0
0.172535 0.273810 0
0.197183 0.273810 0
0.221831 0.273810 0
0.246479 0.273810 0
0.271127 0.273810 0
0.295775 0.273810 0
0.320423 0.273810 0
0.345070 0.273810 0
0.369718 0.273810 0
0.394366 0.273810 0
0.419014 0.273810 0
0.443662 0.273810 0
0.468310 0.273810 0
0.492958 0.273810 0
0.517606 0.273810 0
0.542254 0.273810 0
0.566901 0.273810 0
0.591549 0.273810 0
0.616197 0.273810 0
0.640845 0.273810 0
0.665493 0.273810 0
0.690141 0.273810 0
0.714789 0.273810 0
0.739437 0.273810 0
0.764085 0.273810 0
0.788732 0.273810 0
0.813380 0.273810 0
0.838028 0.273810 0
0.862676 0.273810 0
0.887324 0.273810 0
0.911972 0.273810 0
0.936620 0.273810 0
0.961268 0.273810 0
0.985915 0.273810 0
1.010563 0.273810 0
1.035211 0.273810 0
1.059859 0.273810 0
1.084507 0.273810 0
1.109155 0.273810 0
1.133803 0.273810 0
1.158451 0.273810 0
1.183099 0.273810 0
1.207746 0.273810 0
1.232394 0.273810 0
1.257042 0.273810 0
1.281690 0.273810 0
1.306338 0.273810 0
1.330986 0.273810 0
1.355634 0.273810 0
1.380282 0.273810 0
1.404930 0.273810 0
1.429577 0.273810 0
1.454225 0.273810 0
1.478873 0.273810 0
1.503521 0.273810 0
1.528169 0.273810 0
1.552817 0.273810 0
1.577465 0.273810 0
1.602113 0.273810 0
1.626761 0.273810 0
1.651408 0.273810 0
1.676056 0.273810 0
1.700704 0.273810 0
1.725352 0.273810 0
1.750000 0.273810 0
1.774648 0.273810 0
1.799296 0.273810 0
1.823944 0.273810 0
1.848592 0.273810 0
1.873239 0.273810 0
1.897887 0.273810 0
1.922535 0.273810 0
1.947183 0.273810 0
1.971831 0.273810 0
1.996479 0.273810 0
2.021127 0.273810 0
2.045775 0.273810 0
2.070423 0.273810 0
2.095070 0.273810 0
2.119718 0.273810 0
2.144366 0.273810 0
2.169014 0.273810 0
2.193662 0.273810 0
2.218310 0.273810 0
2.242958 0.273810 0
2.267606 0.273810 0
2.292254 0.273810 0
2.316901 0.273810 0
2.341549 0.273810 0
2.366197 0.273810 0
2.390845 0.273810 0
2.415493 0.273810 0
2.440141 0.273810 0
2.464789 0.273810 0
2.489437 0.273810 0
2.514085 0.273810 0
2.538732 0.273810 0
2.563380 0.273810 0
2.588028 0.273810 0
2.612676 0.273810 0
2.637324 0.273810 0
2.661972 0.273810 0
2.686620 0.273810 0
2.711268 0.273810 0
2.735915 0.273810 0
2.760563 0.273810 0
2.785211 0.273810 0
2.809859 0.273810 0
2.834507 0.273810 0
2.859155 0.273810 0
2.883803 0.273810 0
2.908451 0.273810 0
2.933099 0.273810 0
2.957746 0.273810 0
2.982394 0.273810 0
3.007042 0.273810 0
3.031690 0.273810 0
3.056338 0.273810 0
3.080986 0.273810 0
3.105634 0.273810 0
3.130282 0.273810 0
3.154930 0.273810 0
3.179577 0.273810 0
3.204225 0.273810 0
3.228873 0.273810 0
3.253521 0.273810 0
3.278169 0.273810 0
3.302817 0.273810 0
3.327465 0.273810 0
3.352113 0.273810 0
3.376761 0.273810 0
3.401408 0.273810 0
3.426056 0.273810 0
3.450704 0.273810 0
3.475352 0.273810 0
0.000000 0.285714 0
0.024648 0.285714 0
0.049296 0.285714 0
0.073944 0.285714 0
0.098592 0.285714 0
0.123239 0.285714 0
0.147887 0.285714 0
0.172535 0.285714 0
0.197183 0.285714 0
0.221831 0.285714 0
0.246479 0.285714 0
0.271127 0.285714 0
0.295775 0.285714 0
0.320423 0.285714 0
0.345070 0.285714 0
0.369718 0.285714 0
0.394366 0.285714 0
0.419014 0.285714 0
0.443662 0.285714 0
0.468310 0.285714 0
0.492958 0.285714 0
0.517606 0.285714 0
0.542254 0.285714 0
0.566901 0.285714 0
0.591549 0.285714 0
0.616197 0.285714 0
0.640845 0.285714 0
0.665493 0.285714 0
0.690141 0.285714 0
0.714789 0.285714 0
0.739437 0.285714 0
0.764085 0.285714 0
0.788732 0.285714 0
0.813380 0.285714 0
0.838028 0.285714 0
0.862676 0.285714 0
0.887324 0.285714 0
0.911972 0.285714 0
0.936620 0.285714 0
0.961268 0.285714 0
0.985915 0.285714 0
1.010563 0.285714 0
1.035211 0.285714 0
1.059859 0.285714 0
1.084507 0.285714 0
1.109155 0.285714 0
1.133803 0.285714 0
1.158451 0.285714 0
1.183099 0.285714 0
1.207746 0.285714 0
1.232394 0.285714 0
1.257042 0.285714 0
1.281690 0.285714 0
1.306338 0.285714 0
1.330986 0.285714 0
1.355634 0.285714 0
1.380282 0.285714 0
1.404930 0.285714 0
1.429577 0.285714 0
1.454225 0.285714 0
1.478873 0.285714 0
1.503521 0.285714 0
1.528169 0.285714 0
1.552817 0.285714 0
1.577465 0.285714 0
[...]
POINT_DATA 5964 

VECTORS velocity float
1.000000 0.000000 0
0.999854 0.000000 0
0.999556 0.000000 0
0.999097 0.000000 0
0.998458 0.000000 0
0.997615 0.000000 0
0.996532 0.000000 0
0.995162 0.000000 0
0.993440 0.000000 0
0.991275 0.000000 0
0.988543 0.000000 0
0.985062 0.000000 0
0.980561 0.000000 0
0.974614 0.000000 0
0.966517 0.000000 0
0.954933 0.000000 0
0.937383 0.000000 0
0.905760 0.000000 0
0.847693 0.000000 0
0.000000 0.000000 0
0.000000 0.000000 0
0.000000 0.000000 0
-0.000000 0.000000 0
-0.000000 0.000000 0
-0.000000 0.000000 0
0.000000 0.000000 0
0.000000 0.000000 0
-0.000000 0.000000 0
-0.000000 0.000000 0
-0.000000 0.000000 0
0.000000 0.000000 0
0.000000 0.000000 0
0.000000 0.000000 0
-0.000000 0.000000 0
-0.000000 0.000000 0
0.000000 0.000000 0
0.000000 0.000000 0
0.000000 0.000000 0
-0.000000 0.000000 0
-0.000000 0.000000 0
0.000000 0.000000 0
0.000000 0.000000 0
0.000000 0.000000 0
-0.000000 0.000000 0
-0.000000 0.000000 0
0.000000 0.000000 0
0.000000 0.000000 0
0.000000 0.000000 0
-0.000000 0.000000 0
-0.000000 0.000000 0
-0.000000 0.000000 0
-0.000000 0.000000 0
-0.000000 0.000000 0
-0.000000 0.000000 0
-0.000000 0.000000 0
-0.000000 0.000000 0
-0.000000 0.000000 0
-0.000000 0.000000 0
-0.000000 0.000000 0
-0.000000 0.000000 0
-0.000000 0.000000 0
-0.000000 0.000000 0
-0.000000 0.000000 0
-0.000000 0.000000 0
-0.000000 0.000000 0
-0.000000 0.000000 0
-0.000000 0.000000 0
-0.000000 0.000000 0
-0.000000 0.000000 0
-0.000000 0.000000 0
-0.000000 0.000000 0
-0.000000 0.000000 0
-0.000000 0.000000 0
-0.000000 0.000000 0
-0.000000 0.000000 0
-0.000000 0.000000 0
-0.000000 0.000000 0
-0.000000 0.000000 0
-0.000000 0.000000 0
-0.000000 0.000000 0
-0.000000 0.000000 0
-0.000000 0.000000 0
-0.000000 0.000000 0
-0.000000 0.000000 0
-0.000000 0.000000 0
-0.000000 0.000000 0
-0.000000 0.000000 0
-0.000000 0.000000 0
-0.000000 0.000000 0
-0.000000 0.000000 0
-0.000000 0.000000 0
-0.000000 0.000000 0
-0.000000 0.000000 0
-0.000000 0.000000 0
-0.000000 0.000000 0
-0.000000 0.000000 0
-0.000000 0.000000 0
-0.000000 0.000000 0
-0.000000 0.000000 0
-0.000000 0.000000 0
-0.000000 0.000000 0
-0.000000 0.000000 0
-0.000000 0.000000 0
-0.000000 0.000000 0
-0.000000 0.000000 0
-0.000000 0.000000 0
-0.000000 0.000000 0
-0.000000 0.000000 0
-0.000000 0.000000 0
-0.000000 0.000000 0
-0.000000 0.000000 0
-0.000000 0.000000 0
-0.000000 0.000000 0
-0.000000 0.000000 0
-0.000000 0.000000 0
-0.000000 0.000000 0
-0.000000 0.000000 0
-0.000000 0.000000 0
-0.000000 0.000000 0
-0.000000 0.000000 0
-0.000000 0.000000 0
-0.000000 0.000000 0
-0.000000 0.000000 0
-0.000000 0.000000 0
-0.000000 0.000000 0
-0.000000 0.000000 0
-0.000000 0.000000 0
-0.000000 0.000000 0
-0.000000 0.000000 0
-0.000000 0.000000 0
-0.000000 0.000000 0
-0.000000 0.000000 0
-0.000000 0.000000 0
-0.000000 0.000000 0
-0.000000 0.000000 0
-0.000000 0.000000 0
-0.000000 0.000000 0
-0.000000 0.000000 0
-0.000000 0.000000 0
0.000000 0.000000 0
-0.000000 0.000000 0
0.496409 0.000000 0
1.000000 0.000035 0
0.999854 0.000107 0
0.999558 0.000183 0
0.999101 0.000265 0
0.998465 0.000358 0
0.997626 0.000465 0
0.996549 0.000592 0
0.995186 0.000747 0
0.993474 0.000939 0
0.991325 0.001182 0
0.988614 0.001500 0
0.985165 0.001928 0
0.980713 0.002523 0
0.974850 0.003392 0
0.966903 0.004753 0
0.955641 0.007036 0
0.938825 0.011875 0
0.910180 0.021660 0
0.860874 0.078853 0
0.714886 0.110956 0
0.576504 0.072745 0
0.473017 0.041074 0
0.401066 0.022638 0
0.351163 0.013309 0
0.315499 0.008679 0
0.288994 0.006202 0
0.268554 0.004718 0
0.252294 0.003739 0
0.239027 0.003050 0
0.227980 0.002542 0
0.218624 0.002156 0
0.210590 0.001855 0
0.203608 0.001615 0
0.197480 0.001420 0
0.192052 0.001260 0
0.187208 0.001127 0
0.182854 0.001015 0
0.178917 0.000919 0
0.175337 0.000838 0
0.172064 0.000767 0
0.169059 0.000706 0
0.166287 0.000652 0
0.163720 0.000605 0
0.161335 0.000564 0
0.159110 0.000526 0
0.157028 0.000493 0
0.155075 0.000464 0
0.153237 0.000437 0
0.151503 0.000413 0
0.149864 0.000391 0
0.148310 0.000372 0
0.146833 0.000353 0
0.145429 0.000337 0
0.144089 0.000322 0
0.142810 0.000308 0
0.141586 0.000295 0
0.140413 0.000283 0
0.139288 0.000272 0
0.138208 0.000261 0
0.137168 0.000252 0
0.136167 0.000242 0
0.135202 0.000234 0
0.134270 0.000226 0
0.133370 0.000219 0
0.132500 0.000211 0
0.131659 0.000205 0
0.130843 0.000198 0
0.130054 0.000192 0
0.129287 0.000187 0
0.128544 0.000181 0
0.127823 0.000176 0
0.127121 0.000171 0
0.126440 0.000166 0
0.125778 0.000162 0
0.125133 0.000157 0
0.124506 0.000153 0
0.123895 0.000149 0
0.123301 0.000145 0
0.122722 0.000142 0
0.122158 0.000138 0
0.121609 0.000134 0
0.121073 0.000131 0
0.120552 0.000127 0
0.120044 0.000124 0
0.119550 0.000121 0
0.119068 0.000117 0
0.118599 0.000114 0
0.118144 0.000111 0
0.117701 0.000108 0
0.117270 0.000104 0
0.116853 0.000101 0
0.116449 0.000098 0
0.116059 0.000094 0
0.115682 0.000090 0
0.115320 0.000087 0
0.114972 0.000083 0
0.114640 0.000078 0
0.114325 0.000074 0
0.114027 0.000069 0
0.113748 0.000064 0
0.113490 0.000058 0
0.113253 0.000052 0
0.113041 0.000045 0
0.112855 0.000038 0
0.112698 0.000029 0
0.112574 0.000020 0
0.112487 0.000009 0
0.112441 -0.000003 0
0.112442 -0.000017 0
0.112499 -0.000033 0
0.112614 -0.000050 0
0.112797 -0.000069 0
0.113054 -0.000091 0
0.113398 -0.000117 0
0.113841 -0.000146 0
0.114397 -0.000180 0
0.115083 -0.000219 0
0.115921 -0.000264 0
0.116934 -0.000317 0
0.118150 -0.000379 0
0.119603 -0.000452 0
0.121335 -0.000537 0
0.123394 -0.000639 0
0.125841 -0.000761 0
0.128750 -0.000907 0
0.132216 -0.001085 0
0.136354 -0.001303 0
0.141315 -0.001575 0
0.147294 -0.001917 0
0.154549 -0.002355 0
0.163426 -0.002927 0
0.174403 -0.003691 0
0.188160 -0.004740 0
0.205688 -0.006232 0
0.228498 -0.008451 0
0.258998 -0.011955 0
0.301304 -0.017905 0
0.362745 -0.029697 0
0.459966 -0.052078 0
0.617945 -0.166962 0
0.993126 -0.267474 0
0.993126 -0.133737 0
1.000000 0.000070 0
0.999856 0.000213 0
0.999564 0.000364 0
0.999113 0.000528 0
0.998486 0.000712 0
0.997659 0.000926 0
0.996599 0.001178 0
0.995259 0.001485 0
0.993579 0.001865 0
0.991473 0.002348 0
0.988825 0.002975 0
0.985469 0.003816 0
0.981163 0.004982 0
0.975541 0.006670 0
0.968025 0.009278 0
0.957649 0.013561 0
0.942785 0.021957 0
0.920694 0.037650 0
0.888370 0.094326 0
0.890999 0.137349 0
0.842149 0.116821 0
0.771618 0.084735 0
0.701222 0.058855 0
0.639920 0.041328 0
0.589257 0.030027 0
0.547923 0.022674 0
0.514040 0.017726 0
0.485953 0.014261 0
0.462370 0.011743 0
0.442322 0.009855 0
0.425082 0.008399 0
0.410105 0.007253 0
0.396971 0.006332 0
0.385359 0.005582 0
0.375016 0.004961 0
0.365741 0.004443 0
0.357374 0.004004 0
0.349783 0.003631 0
0.342863 0.003310 0
0.336523 0.003032 0
0.330692 0.002790 0
0.325306 0.002579 0
0.320313 0.002392 0
0.315668 0.002227 0
0.311333 0.002080 0
0.307276 0.001949 0
0.303467 0.001831 0
0.299883 0.001725 0
0.296501 0.001629 0
0.293302 0.001543 0
0.290271 0.001464 0
0.287392 0.001391 0
0.284652 0.001325 0
0.282041 0.001265 0
0.279547 0.001209 0
0.277162 0.001157 0
0.274877 0.001110 0
0.272686 0.001065 0
0.270581 0.001024 0
0.268557 0.000986 0
0.266609 0.000950 0
0.264731 0.000916 0
0.262919 0.000884 0
0.261169 0.000855 0
0.259478 0.000827 0
0.257842 0.000800 0
0.256257 0.000775 0
0.254723 0.000752 0
0.253235 0.000729 0
0.251791 0.000708 0
0.250389 0.000687 0
0.249028 0.000668 0
0.247705 0.000649 0
0.246419 0.000631 0
0.245167 0.000614 0
0.243950 0.000598 0
0.242765 0.000582 0
0.241610 0.000567 0
0.240486 0.000552 0
0.239391 0.000538 0
0.238325 0.000524 0
0.237285 0.000510 0
0.236272 0.000497 0
0.235285 0.000484 0
0.234323 0.000471 0
0.233387 0.000459 0
0.232474 0.000446 0
0.231587 0.000434 0
0.230723 0.000422 0
0.229884 0.000409 0
0.229070 0.000397 0
0.228280 0.000384 0
0.227515 0.000371 0
0.226775 0.000357 0
0.226062 0.000343 0
0.225377 0.000328 0
0.224720 0.000313 0
0.224093 0.000296 0
0.223498 0.000279 0
0.222937 0.000260 0
0.222412 0.000239 0
0.221927 0.000217 0
0.221484 0.000192 0
0.221089 0.000165 0
0.220745 0.000135 0
0.220459 0.000102 0
0.220236 0.000065 0
0.220085 0.000021 0
0.220015 -0.000028 0
0.220040 -0.000083 0
0.220171 -0.000144 0
0.220418 -0.000213 0
0.220797 -0.000291 0
0.221325 -0.000380 0
0.222025 -0.000482 0
0.222919 -0.000600 0
0.224038 -0.000736 0
0.225415 -0.000894 0
0.227090 -0.001076 0
0.229110 -0.001289 0
0.231532 -0.001538 0
0.234421 -0.001831 0
0.237858 -0.002176 0
0.241941 -0.002587 0
0.246788 -0.003079 0
0.252545 -0.003672 0
0.259395 -0.004395 0
0.267568 -0.005284 0
0.277356 -0.006392 0
0.289139 -0.007791 0
0.303417 -0.009590 0
0.320860 -0.011946 0
0.342389 -0.015110 0
0.369294 -0.019483 0
0.403443 -0.025748 0
0.447615 -0.035165 0
0.506121 -0.050109 0
0.585605 -0.076632 0
0.697328 -0.123260 0
0.855288 -0.257513 0
0.993823 -0.362420 0
0.993823 -0.181210 0
1.000000 0.000105 0
0.999859 0.000318 0
0.999574 0.000542 0
0.999133 0.000786 0
0.998521 0.001060 0
0.997714 0.001377 0
0.996681 0.001752 0
0.995379 0.002205 0
0.993750 0.002767 0
0.991715 0.003479 0
0.989168 0.004400 0
0.985962 0.005628 0
0.981887 0.007318 0
0.976642 0.009737 0
0.969782 0.013395 0
0.960673 0.019226 0
0.948431 0.029724 0
0.933028 0.047942 0
0.915086 0.093196 0
0.945330 0.133281 0
0.948626 0.130405 0
0.922938 0.109141 0
0.881981 0.086247 0
0.836589 0.067387 0
0.792539 0.053113 0
0.752206 0.042531 0
0.716223 0.034649 0
0.684455 0.028696 0
0.656485 0.024123 0
0.631828 0.020552 0
0.610017 0.017717 0
0.590640 0.015433 0
0.573343 0.013567 0
0.557826 0.012025 0
0.543839 0.010736 0
0.531172 0.009648 0
0.519650 0.008722 0
0.509125 0.007928 0
0.499472 0.007242 0
0.490585 0.006646 0
0.482375 0.006124 0
0.474764 0.005665 0
0.467686 0.005260 0
0.461084 0.004900 0
0.454908 0.004580 0
0.449117 0.004293 0
0.443670 0.004035 0
0.438537 0.003802 0
0.433688 0.003592 0
0.429097 0.003400 0
0.424742 0.003226 0
0.420602 0.003067 0
0.416661 0.002921 0
0.412902 0.002788 0
0.409311 0.002664 0
0.405874 0.002550 0
0.402582 0.002445 0
0.399423 0.002346 0
0.396389 0.002255 0
0.393470 0.002170 0
0.390660 0.002091 0
0.387951 0.002016 0
0.385337 0.001946 0
0.382812 0.001881 0
0.380371 0.001819 0
0.378010 0.001760 0
0.375724 0.001705 0
0.373509 0.001652 0
0.371361 0.001603 0
0.369277 0.001556 0
0.367254 0.001511 0
0.365288 0.001468 0
0.363378 0.001427 0
0.361520 0.001387 0
0.359713 0.001350 0
0.357954 0.001314 0
0.356242 0.001279 0
0.354575 0.001246 0
0.352950 0.001213 0
0.351367 0.001182 0
0.349825 0.001152 0
0.348321 0.001122 0
0.346855 0.001093 0
0.345427 0.001065 0
0.344034 0.001038 0
0.342677 0.001010 0
0.341355 0.000983 0
0.340067 0.000957 0
0.338814 0.000930 0
0.337594 0.000903 0
0.336409 0.000876 0
0.335258 0.000849 0
0.334142 0.000821 0
0.333061 0.000792 0
0.332017 0.000762 0
0.331010 0.000731 0
0.330043 0.000699 0
0.329116 0.000664 0
0.328232 0.000627 0
0.327394 0.000588 0
0.326605 0.000546 0
0.325868 0.000500 0
0.325188 0.000450 0
0.324570 0.000394 0
0.324020 0.000333 0
0.323545 0.000266 0
0.323153 0.000190 0
0.322854 0.000104 0
0.322658 0.000004 0
0.322581 -0.000108 0
0.322643 -0.000232 0
0.322856 -0.000372 0
0.323240 -0.000530 0
0.323817 -0.000710 0
0.324613 -0.000916 0
0.325659 -0.001152 0
0.326990 -0.001425 0
0.328649 -0.001739 0
0.330685 -0.002102 0
0.333155 -0.002524 0
0.336128 -0.003017 0
0.339684 -0.003593 0
0.343920 -0.004271 0
0.348951 -0.005073 0
0.354916 -0.006029 0
0.361986 -0.007174 0
0.370368 -0.008559 0
0.380322 -0.010250 0
0.392170 -0.012336 0
0.406323 -0.014942 0
0.423307 -0.018248 0
0.443808 -0.022514 0
0.468731 -0.028133 0
0.499290 -0.035721 0
0.537143 -0.046280 0
0.584560 -0.061547 0
0.644656 -0.084553 0
0.721354 -0.122048 0
0.818207 -0.182333 0
0.934505 -0.310168 0
0.994594 -0.401298 0
0.994594 -0.200649 0
1.000000 0.000138 0
0.999864 0.000419 0
0.999587 0.000715 0
0.999160 0.001037 0
0.998568 0.001398 0
0.997789 0.001814 0
0.996794 0.002306 0
0.995543 0.002901 0
0.993983 0.003635 0
0.992045 0.004560 0
0.989634 0.005754 0
0.986627 0.007333 0
0.982854 0.009484 0
0.978089 0.012517 0
0.972036 0.016991 0
0.964382 0.023874 0
0.954906 0.035310 0
0.945019 0.053755 0
0.937268 0.088384 0
0.965707 0.121150 0
0.987884 0.127636 0
0.990071 0.116924 0
0.975766 0.100561 0
0.951736 0.084528 0
0.923218 0.070783 0
0.893429 0.059534 0
0.864150 0.050450 0
0.836292 0.043114 0
0.810267 0.037162 0
0.786201 0.032298 0
0.764073 0.028292 0
0.743777 0.024966 0
0.725176 0.022181 0
0.708119 0.019832 0
0.692457 0.017835 0
0.678050 0.016126 0
0.664768 0.014653 0
0.652495 0.013377 0
0.641128 0.012265 0
0.630573 0.011290 0
0.620748 0.010432 0
0.611581 0.009673 0
0.603006 0.008999 0
0.594969 0.008398 0
0.587417 0.007860 0
0.580306 0.007377 0
0.573596 0.006941 0
0.567252 0.006547 0
0.561243 0.006189 0
0.555540 0.005863 0
0.550119 0.005566 0
0.544956 0.005294 0
0.540031 0.005045 0
0.535327 0.004815 0
0.530827 0.004603 0
0.526515 0.004407 0
0.522380 0.004226 0
0.518408 0.004057 0
0.514589 0.003900 0
0.510913 0.003753 0
0.507370 0.003616 0
0.503953 0.003487 0
0.500653 0.003366 0
0.497464 0.003253 0
0.494380 0.003146 0
0.491395 0.003045 0
0.488503 0.002949 0
0.485699 0.002859 0
0.482979 0.002773 0
0.480340 0.002691 0
0.477776 0.002614 0
0.475284 0.002540 0
0.472861 0.002469 0
0.470505 0.002401 0
0.468211 0.002336 0
0.465978 0.002274 0
0.463803 0.002214 0
0.461684 0.002157 0
0.459620 0.002101 0
0.457607 0.002047 0
0.455644 0.001995 0
0.453730 0.001944 0
0.451864 0.001895 0
0.450044 0.001847 0
0.448268 0.001800 0
0.446537 0.001753 0
0.444850 0.001707 0
0.443205 0.001661 0
0.441602 0.001616 0
0.440042 0.001571 0
0.438523 0.001525 0
0.437047 0.001479 0
0.435613 0.001432 0
0.434223 0.001383 0
0.432877 0.001333 0
0.431576 0.001282 0
0.430322 0.001228 0
0.429117 0.001171 0
0.427963 0.001110 0
0.426864 0.001046 0
0.425823 0.000976 0
0.424843 0.000901 0
0.423930 0.000819 0
0.423090 0.000729 0
0.422329 0.000631 0
0.421654 0.000521 0
0.421076 0.000398 0
0.420604 0.000261 0
0.420251 0.000104 0
0.420028 -0.000076 0
0.419961 -0.000277 0
0.420069 -0.000501 0
0.420372 -0.000755 0
0.420894 -0.001043 0
0.421665 -0.001372 0
0.422717 -0.001748 0
0.424091 -0.002181 0
0.425832 -0.002678 0
0.427993 -0.003253 0
0.430637 -0.003918 0
0.433838 -0.004692 0
0.437681 -0.005594 0
0.442268 -0.006652 0
0.447720 -0.007898 0
0.454182 -0.009375 0
0.461827 -0.011136 0
0.470867 -0.013251 0
0.481557 -0.015814 0
0.494211 -0.018950 0
0.509221 -0.022830 0
0.527074 -0.027694 0
0.548383 -0.033886 0
0.573930 -0.041908 0
0.604710 -0.052526 0
0.641986 -0.066933 0
0.687323 -0.087093 0
0.742505 -0.116180 0
0.809028 -0.160456 0
0.885670 -0.226210 0
0.965253 -0.342707 0
0.995320 -0.420465 0
0.995320 -0.210232 0
1.000000 0.000170 0
0.999869 0.000517 0
0.999604 0.000882 0
0.999195 0.001278 0
0.998628 0.001722 0
0.997884 0.002234 0
0.996936 0.002837 0
0.995748 0.003563 0
0.994274 0.004457 0
0.992454 0.005579 0
0.990209 0.007017 0
0.987440 0.008903 0
0.984022 0.011442 0
0.979805 0.014962 0
0.974637 0.020015 0
0.968468 0.027500 0
0.961560 0.039076 0
0.955831 0.056461 0
0.954476 0.083204 0
0.976671 0.108834 0
1.001710 0.118637 0
1.016358 0.114993 0
1.018677 0.104763 0
1.011391 0.092767 0
0.997797 0.081275 0
0.980475 0.071061 0
0.961200 0.062246 0
0.941142 0.054721 0
0.921050 0.048317 0
0.901397 0.042863 0
0.882463 0.038207 0
0.864406 0.034219 0
0.847300 0.030789 0
0.831164 0.027828 0
0.815984 0.025259 0
0.801724 0.023022 0
0.788337 0.021065 0
0.775768 0.019346 0
0.763963 0.017831 0
0.752867 0.016489 0
0.742426 0.015297 0
0.732589 0.014234 0
0.723310 0.013284 0
0.714545 0.012430 0
0.706253 0.011662 0
0.698397 0.010968 0
0.690944 0.010339 0
0.683863 0.009768 0
0.677125 0.009248 0
0.670705 0.008773 0
0.664578 0.008339 0
0.658725 0.007939 0
0.653125 0.007572 0
0.647761 0.007233 0
0.642616 0.006920 0
0.637676 0.006630 0
0.632928 0.006360 0
0.628358 0.006109 0
0.623957 0.005876 0
0.619713 0.005657 0
0.615616 0.005452 0
0.611660 0.005260 0
0.607834 0.005080 0
0.604133 0.004910 0
0.600548 0.004750 0
0.597075 0.004599 0
0.593707 0.004456 0
0.590439 0.004320 0
0.587265 0.004191 0
0.584182 0.004069 0
0.581185 0.003952 0
0.578271 0.003841 0
0.575435 0.003735 0
0.572674 0.003633 0
0.569985 0.003536 0
0.567366 0.003443 0
0.564812 0.003353 0
0.562323 0.003266 0
0.559896 0.003183 0
0.557528 0.003102 0
0.555218 0.003024 0
0.552964 0.002948 0
0.550764 0.002874 0
0.548617 0.002802 0
0.546521 0.002731 0
0.544476 0.002662 0
0.542481 0.002593 0
0.540534 0.002525 0
0.538636 0.002458 0
0.536786 0.002390 0
0.534983 0.002323 0
0.533229 0.002254 0
0.531522 0.002185 0
0.529865 0.002114 0
0.528257 0.002041 0
0.526700 0.001965 0
0.525196 0.001886 0
0.523747 0.001803 0
0.522354 0.001716 0
0.521022 0.001622 0
0.519753 0.001522 0
0.518552 0.001414 0
0.517424 0.001296 0
0.516376 0.001168 0
0.515413 0.001027 0
0.514544 0.000871 0
0.513779 0.000697 0
0.513128 0.000502 0
0.512604 0.000283 0
0.512219 0.000032 0
0.511992 -0.000252 0
0.511952 -0.000570 0
0.512118 -0.000928 0
0.512518 -0.001334 0
0.513179 -0.001796 0
0.514138 -0.002324 0
0.515434 -0.002929 0
0.517113 -0.003623 0
0.519231 -0.004423 0
0.521851 -0.005347 0
0.525045 -0.006418 0
0.528900 -0.007665 0
0.533517 -0.009120 0
0.539014 -0.010828 0
0.545531 -0.012843 0
0.553236 -0.015233 0
0.562326 -0.018088 0
0.573039 -0.021525 0
0.585661 -0.025697 0
0.600539 -0.030815 0
0.618094 -0.037163 0
0.638838 -0.045145 0
0.663392 -0.055339 0
0.692500 -0.068592 0
0.727024 -0.086181 0
0.767874 -0.110097 0
0.815757 -0.143336 0
0.870492 -0.191196 0
0.928616 -0.257788 0
0.981776 -0.363128 0
0.995982 -0.430343 0
0.995982 -0.215171 0
1.000000 0.000201 0
0.999876 0.000611 0
0.999624 0.001041 0
0.999236 0.001508 0
0.998699 0.002031 0
0.997996 0.002631 0
0.997104 0.003338 0
0.995990 0.004186 0
0.994616 0.005226 0
0.992932 0.006524 0
0.990877 0.008175 0
0.988376 0.010321 0
0.985348 0.013171 0
0.981715 0.017050 0
0.977446 0.022466 0
0.972684 0.030190 0
0.967981 0.041413 0
0.965254 0.057176 0
0.967534 0.078318 0
0.984749 0.098336 0
1.007163 0.108468 0
1.025317 0.108730 0
1.035732 0.102960 0
1.038731 0.094612 0
1.035895 0.085716 0
1.028851 0.077211 0
1.018912 0.069447 0
1.007069 0.062506 0
0.994050 0.056359 0
0.980383 0.050936 0
0.966451 0.046159 0
0.952529 0.041949 0
0.938808 0.038237 0
0.925418 0.034957 0
0.912445 0.032054 0
0.899940 0.029479 0
0.887932 0.027190 0
0.876432 0.025149 0
0.865437 0.023326 0
0.854937 0.021693 0
0.844917 0.020226 0
0.835356 0.018906 0
0.826235 0.017714 0
0.817530 0.016637 0
0.809218 0.015659 0
0.801277 0.014770 0
0.793685 0.013961 0
0.786422 0.013221 0
0.779466 0.012544 0
0.772800 0.011923 0
0.766406 0.011352 0
0.760267 0.010826 0
0.754367 0.010340 0
0.748692 0.009891 0
0.743229 0.009474 0
0.737965 0.009087 0
0.732888 0.008726 0
0.727989 0.008390 0
0.723255 0.008075 0
0.718680 0.007781 0
0.714253 0.007505 0
0.709967 0.007246 0
0.705815 0.007002 0
0.701789 0.006772 0
0.697883 0.006555 0
0.694091 0.006349 0
0.690409 0.006155 0
0.686830 0.005970 0
0.683349 0.005795 0
0.679963 0.005628 0
0.676667 0.005469 0
0.673458 0.005317 0
0.670331 0.005172 0
0.667283 0.005033 0
0.664312 0.004900 0
0.661414 0.004773 0
0.658586 0.004650 0
0.655826 0.004531 0
0.653132 0.004417 0
0.650502 0.004307 0
0.647933 0.004200 0
0.645424 0.004096 0
0.642973 0.003995 0
0.640579 0.003896 0
0.638240 0.003799 0
0.635955 0.003704 0
0.633723 0.003611 0
0.631544 0.003518 0
0.629416 0.003427 0
0.627340 0.003335 0
0.625315 0.003243 0
0.623341 0.003150 0
0.621419 0.003056 0
0.619549 0.002960 0
0.617732 0.002862 0
0.615969 0.002760 0
0.614261 0.002654 0
0.612612 0.002543 0
0.611022 0.002426 0
0.609496 0.002302 0
0.608037 0.002169 0
0.606648 0.002026 0
0.605336 0.001870 0
0.604106 0.001701 0
0.602965 0.001515 0
0.601921 0.001310 0
0.600984 0.001082 0
0.600164 0.000828 0
0.599474 0.000543 0
0.598928 0.000220 0
0.598536 -0.000148 0
0.598332 -0.000562 0
0.598337 -0.001028 0
0.598576 -0.001555 0
0.599081 -0.002154 0
0.599884 -0.002837 0
0.601025 -0.003618 0
0.602551 -0.004513 0
0.604514 -0.005541 0
0.606975 -0.006726 0
0.610004 -0.008096 0
0.613685 -0.009686 0
0.618113 -0.011537 0
0.623400 -0.013701 0
0.629675 -0.016244 0
0.637092 -0.019247 0
0.645830 -0.022816 0
0.656100 -0.027085 0
0.668151 -0.032233 0
0.682278 -0.038495 0
0.698825 -0.046192 0