# vtk DataFile Version 2.0
generated by CFD-lab course output (written by Tobias Neckel) 
ASCII

DATASET STRUCTURED_GRID
DIMENSIONS  142 42 1 
POINTS 5964 float

0.000000 0.250000 0
0.024648 0.250000 0
0.049296 0.250000 0
0.073944 0.250000 0
0.098592 0.250000 0
0.123239 0.250000 0
0.147887 0.250000 0
0.172535 0.250000 0
0.197183 0.250000 0
0.221831 0.250000 0
0.246479 0.250000 0
0.271127 0.250000 0
0.295775 0.250000 0
0.320423 0.250000 0
0.345070 0.250000 0
0.369718 0.250000 0
0.394366 0.250000 0
0.419014 0.250000 0
0.443662 0.250000 0
0.468310 0.250000 0
0.492958 0.250000 0
0.517606 0.250000 0
0.542254 0.250000 0
0.566901 0.250000 0
0.591549 0.250000 0
0.616197 0.250000 0
0.640845 0.250000 0
0.665493 0.250000 0
0.690141 0.250000 0
0.714789 0.250000 0
0.739437 0.250000 0
0.764085 0.250000 0
0.788732 0.250000 0
0.813380 0.250000 0
0.838028 0.250000 0
0.862676 0.250000 0
0.887324 0.250000 0
0.911972 0.250000 0
0.936620 0.250000 0
0.961268 0.250000 0
0.985915 0.250000 0
1.010563 0.250000 0
1.035211 0.250000 0
1.059859 0.250000 0
1.084507 0.250000 0
1.109155 0.250000 0
1.133803 0.250000 0
1.158451 0.250000 0
1.183099 0.250000 0
1.207746 0.250000 0
1.232394 0.250000 0
1.257042 0.250000 0
1.281690 0.250000 0
1.306338 0.250000 0
1.330986 0.250000 0
1.355634 0.250000 0
1.380282 0.250000 0
1.404930 0.250000 0
1.429577 0.250000 0
1.454225 0.250000 0
1.478873 0.250000 0
1.503521 0.250000 0
1.528169 0.250000 0
1.552817 0.250000 0
1.577465 0.250000 0
1.602113 0.250000 0
1.626761 0.250000 0
1.651408 0.250000 0
1.676056 0.250000 0
1.700704 0.250000 0
1.725352 0.250000 0
1.750000 0.250000 0
1.774648 0.250000 0
1.799296 0.250000 0
1.823944 0.250000 0
1.848592 0.250000 0
1.873239 0.250000 0
1.897887 0.250000 0
1.922535 0.250000 0
1.947183 0.250000 0
1.971831 0.250000 0
1.996479 0.250000 0
2.021127 0.250000 0
2.045775 0.250000 0
2.070423 0.250000 0
2.095070 0.250000 0
2.119718 0.250000 0
2.144366 0.250000 0
2.169014 0.250000 0
2.193662 0.250000 0
2.218310 0.250000 0
2.242958 0.250000 0
2.267606 0.250000 0
2.292254 0.250000 0
2.316901 0.250000 0
2.341549 0.250000 0
2.366197 0.250000 0
2.390845 0.250000 0
2.415493 0.250000 0
2.440141 0.250000 0
2.464789 0.250000 0
2.489437 0.250000 0
2.514085 0.250000 0
2.538732 0.250000 0
2.563380 0.250000 0
2.588028 0.250000 0
2.612676 0.250000 0
2.637324 0.250000 0
2.661972 0.250000 0
2.686620 0.250000 0
2.711268 0.250000 0
2.735915 0.250000 0
2.760563 0.250000 0
2.785211 0.250000 0
2.809859 0.250000 0
2.834507 0.250000 0
2.859155 0.250000 0
2.883803 0.250000 0
2.908451 0.250000 0
2.933099 0.250000 0
2.957746 0.250000 0
2.982394 0.250000 0
3.007042 0.250000 0
3.031690 0.250000 0
3.056338 0.250000 0
3.080986 0.250000 0
3.105634 0.250000 0
3.130282 0.250000 0
3.154930 0.250000 0
3.179577 0.250000 0
3.204225 0.250000 0
3.228873 0.250000 0
3.253521 0.250000 0
3.278169 0.250000 0
3.302817 0.250000 0
3.327465 0.250000 0
3.352113 0.250000 0
3.376761 0.250000 0
3.401408 0.250000 0
3.426056 0.250000 0
3.450704 0.250000 0
3.475352 0.250000 0
0.000000 0.261905 0
0.024648 0.261905 0
0.049296 0.261905 0
0.073944 0.261905 0
0.098592 0.261905 0
0.123239 0.261905 0
0.147887 0.261905 0
0.172535 0.261905 0
0.197183 0.261905 0
0.221831 0.261905 0
0.246479 0.261905 0
0.271127 0.261905 0
0.295775 0.261905 0
0.320423 0.261905 0
0.345070 0.261905 0
0.369718 0.261905 0
0.394366 0.261905 0
0.419014 0.261905 0
0.443662 0.261905 0
0.468310 0.261905 0
0.492958 0.261905 0
0.517606 0.261905 0
0.542254 0.261905 0
0.566901 0.261905 0
0.591549 0.261905 0
0.616197 0.261905 0
0.640845 0.261905 0
0.665493 0.261905 0
0.690141 0.261905 0
0.714789 0.261905 0
0.739437 0.261905 0
0.764085 0.261905 0
0.788732 0.261905 0
0.813380 0.261905 0
0.838028 0.261905 0
0.862676 0.261905 0
0.887324 0.261905 0
0.911972 0.261905 0
0.936620 0.261905 0
0.961268 0.261905 0
0.985915 0.261905 0
1.010563 0.261905 0
1.035211 0.261905 0
1.059859 0.261905 0
1.084507 0.261905 0
1.109155 0.261905 0
1.133803 0.261905 0
1.158451 0.261905 0
1.183099 0.261905 0
1.207746 0.261905 0
1.232394 0.261905 0
1.257042 0.261905 0
1.281690 0.261905 0
1.306338 0.261905 0
1.330986 0.261905 0
1.355634 0.261905 0
1.380282 0.261905 0
1.404930 0.261905 0
1.429577 0.261905 0
1.454225 0.261905 0
1.478873 0.261905 0
1.503521 0.261905 0
1.528169 0.261905 0
1.552817 0.261905 0
1.577465 0.261905 0
1.602113 0.261905 0
1.626761 0.261905 0
1.651408 0.261905 0
1.676056 0.261905 0
1.700704 0.261905 0
1.725352 0.261905 0
1.750000 0.261905 0
1.774648 0.261905 0
1.799296 0.261905 0
1.823944 0.261905 0
1.848592 0.261905 0
1.873239 0.261905 0
1.897887 0.261905 0
1.922535 0.261905 0
1.947183 0.261905 0
1.971831 0.261905 0
1.996479 0.261905 0
2.021127 0.261905 0
2.045775 0.261905 0
2.070423 0.261905 0
2.095070 0.261905 0
2.119718 0.261905 0
2.144366 0.261905 0
2.169014 0.261905 0
2.193662 0.261905 0
2.218310 0.261905 0
2.242958 0.261905 0
2.267606 0.261905 0
2.292254 0.261905 0
2.316901 0.261905 0
2.341549 0.261905 0
2.366197 0.261905 0
2.390845 0.261905 0
2.415493 0.261905 0
2.440141 0.261905 0
2.464789 0.261905 0
2.489437 0.261905 0
2.514085 0.261905 0
2.538732 0.261905 0
2.563380 0.261905 0
2.588028 0.261905 0
2.612676 0.261905 0
2.637324 0.261905 0
2.661972 0.261905 0
2.686620 0.261905 0
2.711268 0.261905 0
2.735915 0.261905 0
2.760563 0.261905 0
2.785211 0.261905 0
2.809859 0.261905 0
2.834507 0.261905 0
2.859155 0.261905 0
2.883803 0.261905 0
2.908451 0.261905 0
2.933099 0.261905 0
2.957746 0.261905 0
2.982394 0.261905 0
3.007042 0.261905 0
3.031690 0.261905 0
3.056338 0.261905 0
3.080986 0.261905 0
3.105634 0.261905 0
3.130282 0.261905 0
3.154930 0.261905 0
3.179577 0.261905 0
3.204225 0.261905 0
3.228873 0.261905 0
3.253521 0.261905 0
3.278169 0.261905 0
3.302817 0.261905 0
3.327465 0.261905 0
3.352113 0.261905 0
3.376761 0.261905 0
3.401408 0.261905 0
3.426056 0.261905 0
3.450704 0.261905 0
3.475352 0.261905 0
0.000000 0.273810 0
0.024648 0.273810 0
0.049296 0.273810 0
0.073944 0.273810 0
0.098592 0.273810 0
0.123239 0.273810 0
0.147887 0.273810 0
0.172535 0.273810 0
0.197183 0.273810 0
0.221831 0.273810 0
0.246479 0.273810 0
0.271127 0.273810 0
0.295775 0.273810 0
0.320423 0.273810 0
0.345070 0.273810 0
0.369718 0.273810 0
0.394366 0.273810 0
0.419014 0.273810 0
0.443662 0.273810 0
0.468310 0.273810 0
0.492958 0.273810 0
0.517606 0.273810 0
0.542254 0.273810 0
0.566901 0.273810 0
0.591549 0.273810 0
0.616197 0.273810 0
0.640845 0.273810 0
0.665493 0.273810 0
0.690141 0.273810 0
0.714789 0.273810 0
0.739437 0.273810 0
0.764085 0.273810 0
0.788732 0.273810 0
0.813380 0.273810 0
0.838028 0.273810 0
0.862676 0.273810 0
0.887324 0.273810 0
0.911972 0.273810 0
0.936620 0.273810 0
0.961268 0.273810 0
0.985915 0.273810 0
1.010563 0.273810 0
1.035211 0.273810 0
1.059859 0.273810 0
1.084507 0.273810 0
1.109155 0.273810 0
1.133803 0.273810 0
1.158451 0.273810 0
1.183099 0.273810 0
1.207746 0.273810 0
1.232394 0.273810 0
1.257042 0.273810 0
1.281690 0.273810 0
1.306338 0.273810 0
1.330986 0.273810 0
1.355634 0.273810 0
1.380282 0.273810 0
1.404930 0.273810 0
1.429577 0.273810 0
1.454225 0.273810 0
1.478873 0.273810 0
1.503521 0.273810 0
1.528169 0.273810 0
1.552817 0.273810 0
1.577465 0.273810 0
1.602113 0.273810 0
1.626761 0.273810 0
1.651408 0.273810 0
1.676056 0.273810 0
1.700704 0.273810 0
1.725352 0.273810 0
1.750000 0.273810 0
1.774648 0.273810 0
1.799296 0.273810 0
1.823944 0.273810 0
1.848592 0.273810 0
1.873239 0.273810 0
1.897887 0.273810 0
1.922535 0.273810 0
1.947183 0.273810 0
1.971831 0.273810 0
1.996479 0.273810 0
2.021127 0.273810 0
2.045775 0.273810 0
2.070423 0.273810 0
2.095070 0.273810 0
2.119718 0.273810 0
2.144366 0.273810 0
2.169014 0.273810 0
2.193662 0.273810 0
2.218310 0.273810 0
2.242958 0.273810 0
2.267606 0.273810 0
2.292254 0.273810 0
2.316901 0.273810 0
2.341549 0.273810 0
2.366197 0.273810 0
2.390845 0.273810 0
2.415493 0.273810 0
2.440141 0.273810 0
2.464789 0.273810 0
2.489437 0.273810 0
2.514085 0.273810 0
2.538732 0.273810 0
2.563380 0.273810 0
2.588028 0.273810 0
2.612676 0.273810 0
2.637324 0.273810 0
2.661972 0.273810 0
2.686620 0.273810 0
2.711268 0.273810 0
2.735915 0.273810 0
2.760563 0.273810 0
2.785211 0.273810 0
2.809859 0.273810 0
2.834507 0.273810 0
2.859155 0.273810 0
2.883803 0.273810 0
2.908451 0.273810 0
2.933099 0.273810 0
2.957746 0.273810 0
2.982394 0.273810 0
3.007042 0.273810 0
3.031690 0.273810 0
3.056338 0.273810 0
3.080986 0.273810 0
3.105634 0.273810 0
3.130282 0.273810 0
3.154930 0.273810 0
3.179577 0.273810 0
3.204225 0.273810 0
3.228873 0.273810 0
3.253521 0.273810 0
3.278169 0.273810 0
3.302817 0.273810 0
3.327465 0.273810 0
3.352113 0.273810 0
3.376761 0.273810 0
3.401408 0.273810 0
3.426056 0.273810 0
3.450704 0.273810 0
3.475352 0.273810 0
0.000000 0.285714 0
0.024648 0.285714 0
0.049296 0.285714 0
0.073944 0.285714 0
0.098592 0.285714 0
0.123239 0.285714 0
0.147887 0.285714 0
0.172535 0.285714 0
0.197183 0.285714 0
0.221831 0.285714 0
0.246479 0.285714 0
0.271127 0.285714 0
0.295775 0.285714 0
0.320423 0.285714 0
0.345070 0.285714 0
0.369718 0.285714 0
0.394366 0.285714 0
0.419014 0.285714 0
0.443662 0.285714 0
0.468310 0.285714 0
0.492958 0.285714 0
0.517606 0.285714 0
0.542254 0.285714 0
0.566901 0.285714 0
0.591549 0.285714 0
0.616197 0.285714 0
0.640845 0.285714 0
0.665493 0.285714 0
0.690141 0.285714 0
0.714789 0.285714 0
0.739437 0.285714 0
0.764085 0.285714 0
0.788732 0.285714 0
0.813380 0.285714 0
0.838028 0.285714 0
0.862676 0.285714 0
0.887324 0.285714 0
0.911972 0.285714 0
0.936620 0.285714 0
0.961268 0.285714 0
0.985915 0.285714 0
1.010563 0.285714 0
1.035211 0.285714 0
1.059859 0.285714 0
1.084507 0.285714 0
1.109155 0.285714 0
1.133803 0.285714 0
1.158451 0.285714 0
1.183099 0.285714 0
1.207746 0.285714 0
1.232394 0.285714 0
1.257042 0.285714 0
1.281690 0.285714 0
1.306338 0.285714 0
1.330986 0.285714 0
1.355634 0.285714 0
1.380282 0.285714 0
1.404930 0.285714 0
1.429577 0.285714 0
1.454225 0.285714 0
1.478873 0.285714 0
1.503521 0.285714 0
1.528169 0.285714 0
1.552817 0.285714 0
1.577465 0.285714 0
[...]
POINT_DATA 5964 

VECTORS velocity float
1.000000 0.000000 0
0.999860 0.000000 0
0.999575 0.000000 0
0.999135 0.000000 0
0.998525 0.000000 0
0.997718 0.000000 0
0.996682 0.000000 0
0.995367 0.000000 0
0.993709 0.000000 0
0.991619 0.000000 0
0.988978 0.000000 0
0.985619 0.000000 0
0.981290 0.000000 0
0.975593 0.000000 0
0.967857 0.000000 0
0.956784 0.000000 0
0.939947 0.000000 0
0.909237 0.000000 0
0.852599 0.000000 0
-0.000006 0.000000 0
-0.000006 0.000000 0
-0.000006 0.000000 0
-0.000007 0.000000 0
-0.000008 0.000000 0
-0.000009 0.000000 0
-0.000012 0.000000 0
-0.000017 0.000000 0
-0.000022 0.000000 0
-0.000027 0.000000 0
-0.000032 0.000000 0
-0.000035 0.000000 0
-0.000037 0.000000 0
-0.000037 0.000000 0
-0.000037 0.000000 0
-0.000036 0.000000 0
-0.000035 0.000000 0
-0.000035 0.000000 0
-0.000034 0.000000 0
-0.000034 0.000000 0
-0.000033 0.000000 0
-0.000033 0.000000 0
-0.000033 0.000000 0
-0.000033 0.000000 0
-0.000033 0.000000 0
-0.000033 0.000000 0
-0.000033 0.000000 0
-0.000033 0.000000 0
-0.000033 0.000000 0
-0.000033 0.000000 0
-0.000033 0.000000 0
-0.000032 0.000000 0
-0.000032 0.000000 0
-0.000032 0.000000 0
-0.000032 0.000000 0
-0.000032 0.000000 0
-0.000032 0.000000 0
-0.000032 0.000000 0
-0.000032 0.000000 0
-0.000032 0.000000 0
-0.000032 0.000000 0
-0.000032 0.000000 0
-0.000032 0.000000 0
-0.000032 0.000000 0
-0.000032 0.000000 0
-0.000032 0.000000 0
-0.000032 0.000000 0
-0.000032 0.000000 0
-0.000032 0.000000 0
-0.000032 0.000000 0
-0.000032 0.000000 0
-0.000032 0.000000 0
-0.000032 0.000000 0
-0.000032 0.000000 0
-0.000032 0.000000 0
-0.000032 0.000000 0
-0.000032 0.000000 0
-0.000032 0.000000 0
-0.000032 0.000000 0
-0.000032 0.000000 0
-0.000032 0.000000 0
-0.000032 0.000000 0
-0.000032 0.000000 0
-0.000032 0.000000 0
-0.000032 0.000000 0
-0.000032 0.000000 0
-0.000032 0.000000 0
-0.000032 0.000000 0
-0.000032 0.000000 0
-0.000032 0.000000 0
-0.000032 0.000000 0
-0.000032 0.000000 0
-0.000032 0.000000 0
-0.000032 0.000000 0
-0.000032 0.000000 0
-0.000032 0.000000 0
-0.000032 0.000000 0
-0.000032 0.000000 0
-0.000032 0.000000 0
-0.000032 0.000000 0
-0.000032 0.000000 0
-0.000032 0.000000 0
-0.000032 0.000000 0
-0.000032 0.000000 0
-0.000032 0.000000 0
-0.000032 0.000000 0
-0.000032 0.000000 0
-0.000032 0.000000 0
-0.000032 0.000000 0
-0.000032 0.000000 0
-0.000032 0.000000 0
-0.000032 0.000000 0
-0.000032 0.000000 0
-0.000032 0.000000 0
-0.000032 0.000000 0
-0.000032 0.000000 0
-0.000032 0.000000 0
-0.000032 0.000000 0
-0.000032 0.000000 0
-0.000032 0.000000 0
-0.000032 0.000000 0
-0.000032 0.000000 0
-0.000031 0.000000 0
-0.000031 0.000000 0
-0.000031 0.000000 0
-0.000031 0.000000 0
-0.000031 0.000000 0
-0.000030 0.000000 0
-0.000030 0.000000 0
-0.000030 0.000000 0
-0.000029 0.000000 0
-0.000029 0.000000 0
-0.000028 0.000000 0
-0.000027 0.000000 0
-0.000026 0.000000 0
-0.000025 0.000000 0
-0.000023 0.000000 0
-0.000021 0.000000 0
-0.000018 0.000000 0
-0.000014 0.000000 0
-0.000009 0.000000 0
-0.000000 0.000000 0
0.497321 0.000000 0
1.000000 0.000034 0
0.999860 0.000103 0
0.999577 0.000175 0
0.999139 0.000254 0
0.998531 0.000342 0
0.997729 0.000445 0
0.996698 0.000568 0
0.995391 0.000718 0
0.993743 0.000905 0
0.991668 0.001142 0
0.989048 0.001449 0
0.985720 0.001857 0
0.981440 0.002421 0
0.975826 0.003244 0
0.968239 0.004543 0
0.957485 0.006741 0
0.941375 0.011483 0
0.913656 0.021095 0
0.865678 0.078381 0
0.721032 0.110746 0
0.584090 0.072568 0
0.482266 0.040825 0
0.412328 0.022251 0
0.364916 0.012750 0
0.332401 0.007906 0
0.309974 0.005138 0
0.294830 0.003288 0
0.285223 0.001921 0
0.279842 0.000898 0
0.277524 0.000180 0
0.277235 -0.000245 0
0.278043 -0.000427 0
0.279257 -0.000459 0
0.280478 -0.000409 0
0.281517 -0.000328 0
0.282325 -0.000248 0
0.282918 -0.000180 0
0.283340 -0.000129 0
0.283639 -0.000093 0
0.283852 -0.000067 0
0.284006 -0.000050 0
0.284122 -0.000039 0
0.284211 -0.000030 0
0.284281 -0.000024 0
0.284338 -0.000020 0
0.284384 -0.000016 0
0.284422 -0.000014 0
0.284454 -0.000011 0
0.284481 -0.000010 0
0.284504 -0.000008 0
0.284523 -0.000007 0
0.284540 -0.000006 0
0.284553 -0.000005 0
0.284565 -0.000004 0
0.284576 -0.000004 0
0.284584 -0.000003 0
0.284592 -0.000003 0
0.284598 -0.000002 0
0.284604 -0.000002 0
0.284609 -0.000002 0
0.284613 -0.000001 0
0.284616 -0.000001 0
0.284620 -0.000001 0
0.284622 -0.000001 0
0.284625 -0.000001 0
0.284627 -0.000001 0
0.284629 -0.000001 0
0.284631 -0.000001 0
0.284633 -0.000001 0
0.284634 -0.000000 0
0.284636 -0.000000 0
0.284637 -0.000000 0
0.284639 -0.000000 0
0.284640 -0.000000 0
0.284642 -0.000000 0
0.284643 -0.000000 0
0.284645 -0.000000 0
0.284646 -0.000000 0
0.284648 -0.000001 0
0.284650 -0.000001 0
0.284652 -0.000001 0
0.284654 -0.000001 0
0.284656 -0.000001 0
0.284658 -0.000001 0
0.284661 -0.000001 0
0.284664 -0.000001 0
0.284668 -0.000001 0
0.284672 -0.000001 0
0.284677 -0.000002 0
0.284682 -0.000002 0
0.284688 -0.000002 0
0.284695 -0.000002 0
0.284702 -0.000003 0
0.284711 -0.000003 0
0.284722 -0.000004 0
0.284734 -0.000004 0
0.284748 -0.000005 0
0.284764 -0.000006 0
0.284783 -0.000006 0
0.284805 -0.000008 0
0.284830 -0.000009 0
0.284860 -0.000010 0
0.284894 -0.000012 0
0.284935 -0.000014 0
0.284982 -0.000016 0
0.285038 -0.000019 0
0.285102 -0.000023 0
0.285178 -0.000026 0
0.285267 -0.000031 0
0.285372 -0.000036 0
0.285494 -0.000043 0
0.285638 -0.000050 0
0.285808 -0.000059 0
0.286007 -0.000070 0
0.286242 -0.000082 0
0.286520 -0.000097 0
0.286847 -0.000115 0
0.287234 -0.000136 0
0.287693 -0.000161 0
0.288237 -0.000191 0
0.288884 -0.000228 0
0.289655 -0.000272 0
0.290576 -0.000326 0
0.291681 -0.000392 0
0.293011 -0.000474 0
0.294619 -0.000576 0
0.296574 -0.000703 0
0.298965 -0.000866 0
0.301910 -0.001075 0
0.305571 -0.001350 0
0.310171 -0.001716 0
0.316025 -0.002218 0
0.323596 -0.002926 0
0.333583 -0.003965 0
0.347101 -0.005567 0
0.366017 -0.008218 0
0.393727 -0.013010 0
0.436769 -0.023284 0
0.510779 -0.044757 0
0.643771 -0.162641 0
0.995029 -0.266202 0
0.995030 -0.133099 0
1.000000 0.000067 0
0.999862 0.000204 0
0.999583 0.000348 0
0.999151 0.000505 0
0.998552 0.000681 0
0.997761 0.000886 0
0.996746 0.001129 0
0.995461 0.001427 0
0.993844 0.001798 0
0.991812 0.002267 0
0.989254 0.002873 0
0.986019 0.003675 0
0.981883 0.004779 0
0.976508 0.006376 0
0.969348 0.008859 0
0.959474 0.012975 0
0.945301 0.021169 0
0.924149 0.036561 0
0.893012 0.093036 0
0.897764 0.136005 0
0.851672 0.115323 0
0.784534 0.082960 0
0.718240 0.056679 0
0.661926 0.038604 0
0.617449 0.026536 0
0.583907 0.018147 0
0.559791 0.011955 0
0.543571 0.007239 0
0.533707 0.003719 0
0.528616 0.001259 0
0.526770 -0.000251 0
0.526917 -0.000977 0
0.527992 -0.001176 0
0.529321 -0.001092 0
0.530553 -0.000892 0
0.531548 -0.000676 0
0.532291 -0.000490 0
0.532822 -0.000348 0
0.533191 -0.000247 0
0.533448 -0.000177 0
0.533630 -0.000131 0
0.533761 -0.000099 0
0.533859 -0.000077 0
0.533935 -0.000061 0
0.533995 -0.000050 0
0.534043 -0.000041 0
0.534083 -0.000034 0
0.534116 -0.000028 0
0.534144 -0.000024 0
0.534168 -0.000020 0
0.534188 -0.000017 0
0.534205 -0.000015 0
0.534220 -0.000012 0
0.534233 -0.000011 0
0.534244 -0.000009 0
0.534253 -0.000008 0
0.534262 -0.000007 0
0.534269 -0.000006 0
0.534275 -0.000005 0
0.534281 -0.000004 0
0.534286 -0.000004 0
0.534290 -0.000003 0
0.534294 -0.000003 0
0.534297 -0.000003 0
0.534300 -0.000002 0
0.534303 -0.000002 0
0.534306 -0.000002 0
0.534308 -0.000002 0
0.534311 -0.000002 0
0.534313 -0.000001 0
0.534315 -0.000001 0
0.534317 -0.000001 0
0.534319 -0.000001 0
0.534321 -0.000001 0
0.534323 -0.000001 0
0.534325 -0.000001 0
0.534328 -0.000001 0
0.534330 -0.000002 0
0.534332 -0.000002 0
0.534335 -0.000002 0
0.534338 -0.000002 0
0.534341 -0.000002 0
0.534345 -0.000002 0
0.534349 -0.000003 0
0.534353 -0.000003 0
0.534358 -0.000003 0
0.534363 -0.000004 0
0.534369 -0.000004 0
0.534376 -0.000005 0
0.534383 -0.000005 0
0.534392 -0.000006 0
0.534402 -0.000007 0
0.534414 -0.000008 0
0.534427 -0.000009 0
0.534442 -0.000011 0
0.534460 -0.000013 0
0.534480 -0.000015 0
0.534504 -0.000017 0
0.534531 -0.000020 0
0.534563 -0.000023 0
0.534600 -0.000027 0
0.534644 -0.000031 0
0.534694 -0.000036 0
0.534753 -0.000042 0
0.534822 -0.000050 0
0.534902 -0.000058 0
0.534997 -0.000068 0
0.535107 -0.000080 0
0.535236 -0.000093 0
0.535388 -0.000110 0
0.535566 -0.000129 0
0.535775 -0.000151 0
0.536022 -0.000178 0
0.536311 -0.000210 0
0.536652 -0.000247 0
0.537054 -0.000292 0
0.537529 -0.000345 0
0.538090 -0.000408 0
0.538755 -0.000484 0
0.539542 -0.000575 0
0.540478 -0.000685 0
0.541592 -0.000817 0
0.542922 -0.000979 0
0.544514 -0.001176 0
0.546427 -0.001419 0
0.548736 -0.001721 0
0.551534 -0.002099 0
0.554945 -0.002577 0
0.559131 -0.003191 0
0.564309 -0.003990 0
0.570774 -0.005049 0
0.578937 -0.006484 0
0.589385 -0.008480 0
0.602980 -0.011353 0
0.621035 -0.015666 0
0.645615 -0.022520 0
0.680126 -0.034172 0
0.730233 -0.056535 0
0.805584 -0.099981 0
0.920888 -0.233890 0
0.995946 -0.339295 0
0.995946 -0.169639 0
1.000000 0.000100 0
0.999865 0.000304 0
0.999592 0.000519 0
0.999170 0.000752 0
0.998585 0.001013 0
0.997814 0.001317 0
0.996826 0.001679 0
0.995577 0.002120 0
0.994010 0.002668 0
0.992047 0.003359 0
0.989590 0.004247 0
0.986503 0.005417 0
0.982596 0.007015 0
0.977593 0.009299 0
0.971081 0.012770 0
0.962462 0.018355 0
0.950889 0.028544 0
0.936407 0.046350 0
0.919601 0.091125 0
0.951762 0.130714 0
0.957846 0.127257 0
0.935890 0.105272 0
0.899722 0.081470 0
0.860382 0.061431 0
0.823949 0.045588 0
0.793150 0.032987 0
0.768902 0.022771 0
0.751141 0.014519 0
0.739192 0.008121 0
0.731988 0.003530 0
0.728258 0.000575 0
0.726866 -0.001017 0
0.726865 -0.001620 0
0.727502 -0.001646 0
0.728313 -0.001404 0
0.729061 -0.001088 0
0.729656 -0.000795 0
0.730090 -0.000564 0
0.730389 -0.000395 0
0.730589 -0.000279 0
0.730723 -0.000201 0
0.730812 -0.000149 0
0.730873 -0.000114 0
0.730916 -0.000090 0
0.730949 -0.000072 0
0.730974 -0.000059 0
0.730994 -0.000049 0
0.731011 -0.000041 0
0.731025 -0.000035 0
0.731037 -0.000029 0
0.731048 -0.000025 0
0.731057 -0.000021 0
0.731065 -0.000018 0
0.731072 -0.000016 0
0.731079 -0.000013 0
0.731084 -0.000012 0
0.731090 -0.000010 0
0.731094 -0.000009 0
0.731098 -0.000008 0
0.731102 -0.000007 0
0.731106 -0.000006 0
0.731109 -0.000005 0
0.731112 -0.000005 0
0.731114 -0.000004 0
0.731117 -0.000004 0
0.731119 -0.000003 0
0.731121 -0.000003 0
0.731124 -0.000003 0
0.731126 -0.000003 0
0.731128 -0.000003 0
0.731130 -0.000002 0
0.731132 -0.000002 0
0.731134 -0.000002 0
0.731136 -0.000002 0
0.731138 -0.000002 0
0.731140 -0.000003 0
0.731143 -0.000003 0
0.731145 -0.000003 0
0.731148 -0.000003 0
0.731151 -0.000003 0
0.731154 -0.000004 0
0.731157 -0.000004 0
0.731161 -0.000004 0
0.731165 -0.000005 0
0.731170 -0.000005 0
0.731175 -0.000006 0
0.731180 -0.000007 0
0.731187 -0.000008 0
0.731194 -0.000009 0
0.731203 -0.000010 0
0.731212 -0.000011 0
0.731223 -0.000013 0
0.731235 -0.000015 0
0.731250 -0.000017 0
0.731266 -0.000019 0
0.731285 -0.000022 0
0.731307 -0.000026 0
0.731333 -0.000030 0
0.731362 -0.000035 0
0.731397 -0.000041 0
0.731437 -0.000048 0
0.731483 -0.000056 0
0.731537 -0.000065 0
0.731601 -0.000076 0
0.731675 -0.000089 0
0.731762 -0.000104 0
0.731863 -0.000121 0
0.731982 -0.000142 0
0.732121 -0.000167 0
0.732285 -0.000196 0
0.732477 -0.000230 0
0.732702 -0.000270 0
0.732967 -0.000318 0
0.733278 -0.000374 0
0.733645 -0.000441 0
0.734077 -0.000521 0
0.734587 -0.000615 0
0.735189 -0.000728 0
0.735901 -0.000862 0
0.736745 -0.001024 0
0.737746 -0.001218 0
0.738936 -0.001453 0
0.740354 -0.001738 0
0.742049 -0.002086 0
0.744079 -0.002513 0
0.746522 -0.003042 0
0.749472 -0.003703 0
0.753054 -0.004535 0
0.757425 -0.005598 0
0.762797 -0.006973 0
0.769450 -0.008781 0
0.777766 -0.011207 0
0.788270 -0.014539 0
0.801705 -0.019251 0
0.819128 -0.026159 0
0.842063 -0.036759 0
0.872652 -0.053880 0
0.913613 -0.083880 0
0.966162 -0.136842 0
1.026788 -0.254585 0
0.996980 -0.338680 0
0.996981 -0.169325 0
1.000000 0.000132 0
0.999870 0.000402 0
0.999605 0.000684 0
0.999197 0.000991 0
0.998631 0.001336 0
0.997887 0.001735 0
0.996935 0.002210 0
0.995736 0.002788 0
0.994236 0.003503 0
0.992368 0.004402 0
0.990045 0.005551 0
0.987154 0.007053 0
0.983544 0.009082 0
0.979014 0.011938 0
0.973297 0.016167 0
0.966115 0.022728 0
0.957280 0.033754 0
0.948267 0.051673 0
0.941621 0.085620 0
0.971663 0.117533 0
0.996180 0.122988 0
1.001623 0.111034 0
0.991668 0.093149 0
0.973301 0.075202 0
0.952020 0.059009 0
0.931292 0.044734 0
0.913069 0.032245 0
0.898282 0.021589 0
0.887158 0.012970 0
0.879431 0.006540 0
0.874518 0.002223 0
0.871685 -0.000304 0
0.870329 -0.001483 0
0.869883 -0.001791 0
0.869902 -0.001645 0
0.870102 -0.001325 0
0.870328 -0.000987 0
0.870513 -0.000702 0
0.870639 -0.000488 0
0.870714 -0.000339 0
0.870750 -0.000238 0
0.870763 -0.000171 0
0.870762 -0.000127 0
0.870754 -0.000098 0
0.870744 -0.000077 0
0.870733 -0.000063 0
0.870724 -0.000052 0
0.870715 -0.000043 0
0.870709 -0.000037 0
0.870703 -0.000031 0
0.870699 -0.000027 0
0.870696 -0.000023 0
0.870694 -0.000020 0
0.870693 -0.000017 0
0.870692 -0.000015 0
0.870692 -0.000013 0
0.870692 -0.000011 0
0.870693 -0.000010 0
0.870693 -0.000009 0
0.870694 -0.000008 0
0.870695 -0.000007 0
0.870696 -0.000006 0
0.870697 -0.000006 0
0.870699 -0.000005 0
0.870700 -0.000005 0
0.870701 -0.000004 0
0.870702 -0.000004 0
0.870704 -0.000004 0
0.870705 -0.000004 0
0.870707 -0.000003 0
0.870708 -0.000003 0
0.870710 -0.000003 0
0.870711 -0.000003 0
0.870713 -0.000003 0
0.870715 -0.000003 0
0.870717 -0.000004 0
0.870719 -0.000004 0
0.870721 -0.000004 0
0.870723 -0.000004 0
0.870726 -0.000005 0
0.870728 -0.000005 0
0.870732 -0.000006 0
0.870735 -0.000006 0
0.870739 -0.000007 0
0.870743 -0.000008 0
0.870748 -0.000008 0
0.870753 -0.000010 0
0.870759 -0.000011 0
0.870766 -0.000012 0
0.870774 -0.000014 0
0.870783 -0.000016 0
0.870793 -0.000018 0
0.870805 -0.000021 0
0.870818 -0.000024 0
0.870834 -0.000028 0
0.870852 -0.000032 0
0.870873 -0.000037 0
0.870897 -0.000043 0
0.870925 -0.000051 0
0.870958 -0.000059 0
0.870997 -0.000068 0
0.871041 -0.000080 0
0.871093 -0.000093 0
0.871154 -0.000109 0
0.871225 -0.000127 0
0.871308 -0.000149 0
0.871405 -0.000174 0
0.871519 -0.000204 0
0.871653 -0.000240 0
0.871809 -0.000281 0
0.871993 -0.000330 0
0.872209 -0.000388 0
0.872463 -0.000457 0
0.872761 -0.000537 0
0.873113 -0.000633 0
0.873526 -0.000747 0
0.874014 -0.000882 0
0.874589 -0.001043 0
0.875269 -0.001236 0
0.876073 -0.001466 0
0.877026 -0.001743 0
0.878157 -0.002077 0
0.879502 -0.002482 0
0.881104 -0.002975 0
0.883018 -0.003580 0
0.885313 -0.004326 0
0.888072 -0.005253 0
0.891402 -0.006418 0
0.895442 -0.007897 0
0.900367 -0.009798 0
0.906406 -0.012279 0
0.913860 -0.015574 0
0.923127 -0.020043 0
0.934727 -0.026257 0
0.949338 -0.035158 0
0.967780 -0.048372 0
0.990838 -0.068730 0
1.018601 -0.101700 0
1.047139 -0.154644 0
1.064651 -0.248775 0
0.997896 -0.310475 0
0.997896 -0.155217 0
1.000000 0.000163 0
0.999875 0.000495 0
0.999621 0.000844 0
0.999230 0.001222 0
0.998689 0.001646 0
0.997978 0.002136 0
0.997072 0.002718 0
0.995934 0.003424 0
0.994518 0.004294 0
0.992765 0.005383 0
0.990605 0.006765 0
0.987947 0.008557 0
0.984685 0.010947 0
0.980693 0.014248 0
0.975845 0.019000 0
0.970123 0.026091 0
0.963820 0.037165 0
0.958904 0.053913 0
0.958595 0.079825 0
0.982157 0.104362 0
1.009058 0.112786 0
1.026256 0.107451 0
1.032004 0.095149 0
1.029225 0.080580 0
1.021403 0.065878 0
1.011260 0.051800 0
1.000643 0.038714 0
0.990717 0.027034 0
0.982156 0.017226 0
0.975272 0.009635 0
0.970096 0.004316 0
0.966439 0.001006 0
0.964010 -0.000749 0
0.962528 -0.001439 0
0.961687 -0.001510 0
0.961232 -0.001293 0
0.960986 -0.000994 0
0.960839 -0.000714 0
0.960733 -0.000492 0
0.960643 -0.000333 0
0.960559 -0.000225 0
0.960481 -0.000155 0
0.960409 -0.000110 0
0.960344 -0.000081 0
0.960287 -0.000062 0
0.960238 -0.000049 0
0.960197 -0.000040 0
0.960162 -0.000034 0
0.960134 -0.000029 0
0.960110 -0.000025 0
0.960091 -0.000022 0
0.960075 -0.000019 0
0.960063 -0.000017 0
0.960052 -0.000015 0
0.960044 -0.000013 0
0.960038 -0.000012 0
0.960033 -0.000010 0
0.960029 -0.000009 0
0.960026 -0.000008 0
0.960023 -0.000008 0
0.960022 -0.000007 0
0.960020 -0.000006 0
0.960020 -0.000006 0
0.960019 -0.000005 0
0.960019 -0.000005 0
0.960019 -0.000005 0
0.960019 -0.000004 0
0.960020 -0.000004 0
0.960020 -0.000004 0
0.960021 -0.000004 0
0.960022 -0.000004 0
0.960023 -0.000004 0
0.960024 -0.000004 0
0.960025 -0.000004 0
0.960026 -0.000004 0
0.960027 -0.000004 0
0.960029 -0.000005 0
0.960031 -0.000005 0
0.960032 -0.000005 0
0.960034 -0.000006 0
0.960037 -0.000006 0
0.960039 -0.000007 0
0.960042 -0.000008 0
0.960045 -0.000009 0
0.960049 -0.000010 0
0.960053 -0.000011 0
0.960057 -0.000012 0
0.960063 -0.000014 0
0.960069 -0.000016 0
0.960076 -0.000018 0
0.960083 -0.000020 0
0.960092 -0.000023 0
0.960103 -0.000027 0
0.960115 -0.000031 0
0.960129 -0.000036 0
0.960145 -0.000041 0
0.960164 -0.000048 0
0.960186 -0.000056 0
0.960211 -0.000065 0
0.960241 -0.000075 0
0.960276 -0.000088 0
0.960316 -0.000102 0
0.960363 -0.000119 0
0.960419 -0.000139 0
0.960483 -0.000163 0
0.960559 -0.000191 0
0.960648 -0.000223 0
0.960752 -0.000262 0
0.960874 -0.000307 0
0.961017 -0.000360 0
0.961185 -0.000423 0
0.961382 -0.000497 0
0.961613 -0.000585 0
0.961886 -0.000688 0
0.962206 -0.000811 0
0.962583 -0.000956 0
0.963027 -0.001128 0
0.963550 -0.001334 0
0.964168 -0.001579 0
0.964898 -0.001872 0
0.965760 -0.002224 0
0.966782 -0.002648 0
0.967994 -0.003161 0
0.969434 -0.003784 0
0.971148 -0.004546 0
0.973194 -0.005483 0
0.975641 -0.006644 0
0.978576 -0.008095 0
0.982108 -0.009928 0
0.986373 -0.012269 0
0.991541 -0.015299 0
0.997823 -0.019283 0
1.005478 -0.024618 0
1.014810 -0.031912 0
1.026132 -0.042123 0
1.039659 -0.056803 0
1.055142 -0.078426 0
1.070989 -0.111073 0
1.081225 -0.159084 0
1.072946 -0.230800 0
0.998611 -0.274178 0
0.998612 -0.137066 0
1.000000 0.000193 0
0.999881 0.000585 0
0.999640 0.000996 0
0.999269 0.001441 0
0.998757 0.001941 0
0.998086 0.002516 0
0.997234 0.003197 0
0.996168 0.004021 0
0.994849 0.005033 0
0.993229 0.006292 0
0.991253 0.007878 0
0.988858 0.009912 0
0.985977 0.012586 0
0.982555 0.016208 0
0.978585 0.021272 0
0.974240 0.028536 0
0.970098 0.039172 0
0.968113 0.054197 0
0.971350 0.074389 0
0.989755 0.093159 0
1.013661 0.101689 0
1.033735 0.099951 0
1.046642 0.091715 0
1.052842 0.080322 0
1.054018 0.067686 0
1.051833 0.054761 0
1.047590 0.042167 0
1.042266 0.030517 0
1.036608 0.020429 0
1.031191 0.012365 0
1.026420 0.006489 0
1.022515 0.002636 0
1.019498 0.000406 0
1.017296 -0.000669 0
1.015768 -0.001019 0
1.014738 -0.000986 0
1.014048 -0.000797 0
1.013575 -0.000580 0
1.013236 -0.000394 0
1.012979 -0.000255 0
1.012775 -0.000159 0
1.012608 -0.000098 0
1.012469 -0.000061 0
1.012352 -0.000039 0
1.012254 -0.000026 0
1.012171 -0.000019 0
1.012103 -0.000015 0
1.012045 -0.000013 0
1.011998 -0.000011 0
1.011959 -0.000011 0
1.011927 -0.000010 0
1.011901 -0.000009 0
1.011879 -0.000009 0
1.011861 -0.000008 0
1.011847 -0.000008 0
1.011835 -0.000007 0
1.011825 -0.000007 0
1.011818 -0.000007 0
1.011811 -0.000006 0
1.011806 -0.000006 0
1.011802 -0.000006 0
1.011799 -0.000005 0
1.011797 -0.000005 0
1.011795 -0.000005 0
1.011793 -0.000005 0
1.011792 -0.000004 0
1.011792 -0.000004 0
1.011791 -0.000004 0
1.011791 -0.000004 0
1.011791 -0.000004 0
1.011791 -0.000004 0
1.011791 -0.000004 0
1.011792 -0.000004 0
1.011792 -0.000005 0
1.011793 -0.000005 0
1.011794 -0.000005 0
1.011795 -0.000005 0
1.011796 -0.000006 0
1.011797 -0.000006 0
1.011799 -0.000007 0
1.011801 -0.000007 0
1.011802 -0.000008 0
1.011805 -0.000009 0
1.011807 -0.000010 0
1.011810 -0.000011 0
1.011813 -0.000013 0
1.011817 -0.000014 0
1.011822 -0.000016 0
1.011827 -0.000018 0
1.011832 -0.000021 0
1.011839 -0.000024 0
1.011847 -0.000028 0
1.011856 -0.000032 0
1.011867 -0.000037 0
1.011879 -0.000043 0
1.011893 -0.000049 0
1.011910 -0.000057 0
1.011929 -0.000066 0
1.011952 -0.000077 0
1.011978 -0.000090 0
1.012009 -0.000105 0
1.012045 -0.000122 0
1.012087 -0.000143 0
1.012137 -0.000167 0
1.012195 -0.000195 0
1.012263 -0.000228 0
1.012343 -0.000267 0
1.012436 -0.000313 0