# vtk DataFile Version 2.0
generated by CFD-lab course output (written by Tobias Neckel) 
ASCII

DATASET STRUCTURED_GRID
DIMENSIONS  142 42 1 
POINTS 5964 float

0.000000 0.250000 0
0.024648 0.250000 0
0.049296 0.250000 0
0.073944 0.250000 0
0.098592 0.250000 0
0.123239 0.250000 0
0.147887 0.250000 0
0.172535 0.250000 0
0.197183 0.250000 0
0.221831 0.250000 0
0.246479 0.250000 0
0.271127 0.250000 0
0.295775 0.250000 0
0.320423 0.250000 0
0.345070 0.250000 0
0.369718 0.250000 0
0.394366 0.250000 0
0.419014 0.250000 0
0.443662 0.250000 0
0.468310 0.250000 0
0.492958 0.250000 0
0.517606 0.250000 0
0.542254 0.250000 0
0.566901 0.250000 0
0.591549 0.250000 0
0.616197 0.250000 0
0.640845 0.250000 0
0.665493 0.250000 0
0.690141 0.250000 0
0.714789 0.250000 0
0.739437 0.250000 0
0.764085 0.250000 0
0.788732 0.250000 0
0.813380 0.250000 0
0.838028 0.250000 0
0.862676 0.250000 0
0.887324 0.250000 0
0.911972 0.250000 0
0.936620 0.250000 0
0.961268 0.250000 0
0.985915 0.250000 0
1.010563 0.250000 0
1.035211 0.250000 0
1.059859 0.250000 0
1.084507 0.250000 0
1.109155 0.250000 0
1.133803 0.250000 0
1.158451 0.250000 0
1.183099 0.250000 0
1.207746 0.250000 0
1.232394 0.250000 0
1.257042 0.250000 0
1.281690 0.250000 0
1.306338 0.250000 0
1.330986 0.250000 0
1.355634 0.250000 0
1.380282 0.250000 0
1.404930 0.250000 0
1.429577 0.250000 0
1.454225 0.250000 0
1.478873 0.250000 0
1.503521 0.250000 0
1.528169 0.250000 0
1.552817 0.250000 0
1.577465 0.250000 0
1.602113 0.250000 0
1.626761 0.250000 0
1.651408 0.250000 0
1.676056 0.250000 0
1.700704 0.250000 0
1.725352 0.250000 0
1.750000 0.250000 0
1.774648 0.250000 0
1.799296 0.250000 0
1.823944 0.250000 0
1.848592 0.250000 0
1.873239 0.250000 0
1.897887 0.250000 0
1.922535 0.250000 0
1.947183 0.250000 0
1.971831 0.250000 0
1.996479 0.250000 0
2.021127 0.250000 0
2.045775 0.250000 0
2.070423 0.250000 0
2.095070 0.250000 0
2.119718 0.250000 0
2.144366 0.250000 0
2.169014 0.250000 0
2.193662 0.250000 0
2.218310 0.250000 0
2.242958 0.250000 0
2.267606 0.250000 0
2.292254 0.250000 0
2.316901 0.250000 0
2.341549 0.250000 0
2.366197 0.250000 0
2.390845 0.250000 0
2.415493 0.250000 0
2.440141 0.250000 0
2.464789 0.250000 0
2.489437 0.250000 0
2.514085 0.250000 0
2.538732 0.250000 0
2.563380 0.250000 0
2.588028 0.250000 0
2.612676 0.250000 0
2.637324 0.250000 0
2.661972 0.250000 0
2.686620 0.250000 0
2.711268 0.250000 0
2.735915 0.250000 0
2.760563 0.250000 0
2.785211 0.250000 0
2.809859 0.250000 0
2.834507 0.250000 0
2.859155 0.250000 0
2.883803 0.250000 0
2.908451 0.250000 0
2.933099 0.250000 0
2.957746 0.250000 0
2.982394 0.250000 0
3.007042 0.250000 0
3.031690 0.250000 0
3.056338 0.250000 0
3.080986 0.250000 0
3.105634 0.250000 0
3.130282 0.250000 0
3.154930 0.250000 0
3.179577 0.250000 0
3.204225 0.250000 0
3.228873 0.250000 0
3.253521 0.250000 0
3.278169 0.250000 0
3.302817 0.250000 0
3.327465 0.250000 0
3.352113 0.250000 0
3.376761 0.250000 0
3.401408 0.250000 0
3.426056 0.250000 0
3.450704 0.250000 0
3.475352 0.250000 0
0.000000 0.261905 0
0.024648 0.261905 0
0.049296 0.261905 0
0.073944 0.261905 0
0.098592 0.261905 0
0.123239 0.261905 0
0.147887 0.261905 0
0.172535 0.261905 0
0.197183 0.261905 0
0.221831 0.261905 0
0.246479 0.261905 0
0.271127 0.261905 0
0.295775 0.261905 0
0.320423 0.261905 0
0.345070 0.261905 0
0.369718 0.261905 0
0.394366 0.261905 0
0.419014 0.261905 0
0.443662 0.261905 0
0.468310 0.261905 0
0.492958 0.261905 0
0.517606 0.261905 0
0.542254 0.261905 0
0.566901 0.261905 0
0.591549 0.261905 0
0.616197 0.261905 0
0.640845 0.261905 0
0.665493 0.261905 0
0.690141 0.261905 0
0.714789 0.261905 0
0.739437 0.261905 0
0.764085 0.261905 0
0.788732 0.261905 0
0.813380 0.261905 0
0.838028 0.261905 0
0.862676 0.261905 0
0.887324 0.261905 0
0.911972 0.261905 0
0.936620 0.261905 0
0.961268 0.261905 0
0.985915 0.261905 0
1.010563 0.261905 0
1.035211 0.261905 0
1.059859 0.261905 0
1.084507 0.261905 0
1.109155 0.261905 0
1.133803 0.261905 0
1.158451 0.261905 0
1.183099 0.261905 0
1.207746 0.261905 0
1.232394 0.261905 0
1.257042 0.261905 0
1.281690 0.261905 0
1.306338 0.261905 0
1.330986 0.261905 0
1.355634 0.261905 0
1.380282 0.261905 0
1.404930 0.261905 0
1.429577 0.261905 0
1.454225 0.261905 0
1.478873 0.261905 0
1.503521 0.261905 0
1.528169 0.261905 0
1.552817 0.261905 0
1.577465 0.261905 0
1.602113 0.261905 0
1.626761 0.261905 0
1.651408 0.261905 0
1.676056 0.261905 0
1.700704 0.261905 0
1.725352 0.261905 0
1.750000 0.261905 0
1.774648 0.261905 0
1.799296 0.261905 0
1.823944 0.261905 0
1.848592 0.261905 0
1.873239 0.261905 0
1.897887 0.261905 0
1.922535 0.261905 0
1.947183 0.261905 0
1.971831 0.261905 0
1.996479 0.261905 0
2.021127 0.261905 0
2.045775 0.261905 0
2.070423 0.261905 0
2.095070 0.261905 0
2.119718 0.261905 0
2.144366 0.261905 0
2.169014 0.261905 0
2.193662 0.261905 0
2.218310 0.261905 0
2.242958 0.261905 0
2.267606 0.261905 0
2.292254 0.261905 0
2.316901 0.261905 0
2.341549 0.261905 0
2.366197 0.261905 0
2.390845 0.261905 0
2.415493 0.261905 0
2.440141 0.261905 0
2.464789 0.261905 0
2.489437 0.261905 0
2.514085 0.261905 0
2.538732 0.261905 0
2.563380 0.261905 0
2.588028 0.261905 0
2.612676 0.261905 0
2.637324 0.261905 0
2.661972 0.261905 0
2.686620 0.261905 0
2.711268 0.261905 0
2.735915 0.261905 0
2.760563 0.261905 0
2.785211 0.261905 0
2.809859 0.261905 0
2.834507 0.261905 0
2.859155 0.261905 0
2.883803 0.261905 0
2.908451 0.261905 0
2.933099 0.261905 0
2.957746 0.261905 0
2.982394 0.261905 0
3.007042 0.261905 0
3.031690 0.261905 0
3.056338 0.261905 0
3.080986 0.261905 0
3.105634 0.261905 0
3.130282 0.261905 0
3.154930 0.261905 0
3.179577 0.261905 0
3.204225 0.261905 0
3.228873 0.261905 0
3.253521 0.261905 0
3.278169 0.261905 0
3.302817 0.261905 0
3.327465 0.261905 0
3.352113 0.261905 0
3.376761 0.261905 0
3.401408 0.261905 0
3.426056 0.261905 0
3.450704 0.261905 0
3.475352 0.261905 0
0.000000 0.273810 0
0.024648 0.273810 0
0.049296 0.273810 0
0.073944 0.273810 0
0.098592 0.273810 0
0.123239 0.273810 0
0.147887 0.273810 0
0.172535 0.273810 0
0.197183 0.273810 0
0.221831 0.273810 0
0.246479 0.273810 0
0.271127 0.273810 0
0.295775 0.273810 0
0.320423 0.273810 0
0.345070 0.273810 0
0.369718 0.273810 0
0.394366 0.273810 0
0.419014 0.273810 0
0.443662 0.273810 0
0.468310 0.273810 0
0.492958 0.273810 0
0.517606 0.273810 0
0.542254 0.273810 0
0.566901 0.273810 0
0.591549 0.273810 0
0.616197 0.273810 0
0.640845 0.273810 0
0.665493 0.273810 0
0.690141 0.273810 0
0.714789 0.273810 0
0.739437 0.273810 0
0.764085 0.273810 0
0.788732 0.273810 0
0.813380 0.273810 0
0.838028 0.273810 0
0.862676 0.273810 0
0.887324 0.273810 0
0.911972 0.273810 0
0.936620 0.273810 0
0.961268 0.273810 0
0.985915 0.273810 0
1.010563 0.273810 0
1.035211 0.273810 0
1.059859 0.273810 0
1.084507 0.273810 0
1.109155 0.273810 0
1.133803 0.273810 0
1.158451 0.273810 0
1.183099 0.273810 0
1.207746 0.273810 0
1.232394 0.273810 0
1.257042 0.273810 0
1.281690 0.273810 0
1.306338 0.273810 0
1.330986 0.273810 0
1.355634 0.273810 0
1.380282 0.273810 0
1.404930 0.273810 0
1.429577 0.273810 0
1.454225 0.273810 0
1.478873 0.273810 0
1.503521 0.273810 0
1.528169 0.273810 0
1.552817 0.273810 0
1.577465 0.273810 0
1.602113 0.273810 0
1.626761 0.273810 0
1.651408 0.273810 0
1.676056 0.273810 0
1.700704 0.273810 0
1.725352 0.273810 0
1.750000 0.273810 0
1.774648 0.273810 0
1.799296 0.273810 0
1.823944 0.273810 0
1.848592 0.273810 0
1.873239 0.273810 0
1.897887 0.273810 0
1.922535 0.273810 0
1.947183 0.273810 0
1.971831 0.273810 0
1.996479 0.273810 0
2.021127 0.273810 0
2.045775 0.273810 0
2.070423 0.273810 0
2.095070 0.273810 0
2.119718 0.273810 0
2.144366 0.273810 0
2.169014 0.273810 0
2.193662 0.273810 0
2.218310 0.273810 0
2.242958 0.273810 0
2.267606 0.273810 0
2.292254 0.273810 0
2.316901 0.273810 0
2.341549 0.273810 0
2.366197 0.273810 0
2.390845 0.273810 0
2.415493 0.273810 0
2.440141 0.273810 0
2.464789 0.273810 0
2.489437 0.273810 0
2.514085 0.273810 0
2.538732 0.273810 0
2.563380 0.273810 0
2.588028 0.273810 0
2.612676 0.273810 0
2.637324 0.273810 0
2.661972 0.273810 0
2.686620 0.273810 0
2.711268 0.273810 0
2.735915 0.273810 0
2.760563 0.273810 0
2.785211 0.273810 0
2.809859 0.273810 0
2.834507 0.273810 0
2.859155 0.273810 0
2.883803 0.273810 0
2.908451 0.273810 0
2.933099 0.273810 0
2.957746 0.273810 0
2.982394 0.273810 0
3.007042 0.273810 0
3.031690 0.273810 0
3.056338 0.273810 0
3.080986 0.273810 0
3.105634 0.273810 0
3.130282 0.273810 0
3.154930 0.273810 0
3.179577 0.273810 0
3.204225 0.273810 0
3.228873 0.273810 0
3.253521 0.273810 0
3.278169 0.273810 0
3.302817 0.273810 0
3.327465 0.273810 0
3.352113 0.273810 0
3.376761 0.273810 0
3.401408 0.273810 0
3.426056 0.273810 0
3.450704 0.273810 0
3.475352 0.273810 0
0.000000 0.285714 0
0.024648 0.285714 0
0.049296 0.285714 0
0.073944 0.285714 0
0.098592 0.285714 0
0.123239 0.285714 0
0.147887 0.285714 0
0.172535 0.285714 0
0.197183 0.285714 0
0.221831 0.285714 0
0.246479 0.285714 0
0.271127 0.285714 0
0.295775 0.285714 0
0.320423 0.285714 0
0.345070 0.285714 0
0.369718 0.285714 0
0.394366 0.285714 0
0.419014 0.285714 0
0.443662 0.285714 0
0.468310 0.285714 0
0.492958 0.285714 0
0.517606 0.285714 0
0.542254 0.285714 0
0.566901 0.285714 0
0.591549 0.285714 0
0.616197 0.285714 0
0.640845 0.285714 0
0.665493 0.285714 0
0.690141 0.285714 0
0.714789 0.285714 0
0.739437 0.285714 0
0.764085 0.285714 0
0.788732 0.285714 0
0.813380 0.285714 0
0.838028 0.285714 0
0.862676 0.285714 0
0.887324 0.285714 0
0.911972 0.285714 0
0.936620 0.285714 0
0.961268 0.285714 0
0.985915 0.285714 0
1.010563 0.285714 0
1.035211 0.285714 0
1.059859 0.285714 0
1.084507 0.285714 0
1.109155 0.285714 0
1.133803 0.285714 0
1.158451 0.285714 0
1.183099 0.285714 0
1.207746 0.285714 0
1.232394 0.285714 0
1.257042 0.285714 0
1.281690 0.285714 0
1.306338 0.285714 0
1.330986 0.285714 0
1.355634 0.285714 0
1.380282 0.285714 0
1.404930 0.285714 0
1.429577 0.285714 0
1.454225 0.285714 0
1.478873 0.285714 0
1.503521 0.285714 0
1.528169 0.285714 0
1.552817 0.285714 0
1.577465 0.285714 0
[...]
POINT_DATA 5964 

VECTORS velocity float
1.000000 0.000000 0
0.999854 0.000000 0
0.999556 0.000000 0
0.999097 0.000000 0
0.998458 0.000000 0
0.997615 0.000000 0
0.996532 0.000000 0
0.995162 0.000000 0
0.993440 0.000000 0
0.991275 0.000000 0
0.988543 0.000000 0
0.985062 0.000000 0
0.980561 0.000000 0
0.974614 0.000000 0
0.966517 0.000000 0
0.954934 0.000000 0
0.937383 0.000000 0
0.905760 0.000000 0
0.847693 0.000000 0
-0.000000 0.000000 0
-0.000000 0.000000 0
-0.000000 0.000000 0
-0.000000 0.000000 0
-0.000000 0.000000 0
-0.000000 0.000000 0
-0.000000 0.000000 0
-0.000000 0.000000 0
-0.000000 0.000000 0
-0.000000 0.000000 0
-0.000000 0.000000 0
-0.000000 0.000000 0
-0.000000 0.000000 0
-0.000000 0.000000 0
-0.000000 0.000000 0
-0.000000 0.000000 0
-0.000000 0.000000 0
-0.000000 0.000000 0
-0.000000 0.000000 0
-0.000000 0.000000 0
-0.000000 0.000000 0
-0.000000 0.000000 0
-0.000000 0.000000 0
-0.000000 0.000000 0
-0.000000 0.000000 0
-0.000000 0.000000 0
-0.000000 0.000000 0
-0.000000 0.000000 0
-0.000000 0.000000 0
-0.000000 0.000000 0
-0.000000 0.000000 0
-0.000000 0.000000 0
-0.000000 0.000000 0
-0.000000 0.000000 0
-0.000000 0.000000 0
-0.000000 0.000000 0
-0.000000 0.000000 0
-0.000000 0.000000 0
-0.000000 0.000000 0
-0.000000 0.000000 0
-0.000000 0.000000 0
-0.000000 0.000000 0
-0.000000 0.000000 0
-0.000000 0.000000 0
-0.000000 0.000000 0
-0.000000 0.000000 0
-0.000000 0.000000 0
-0.000000 0.000000 0
-0.000000 0.000000 0
-0.000000 0.000000 0
-0.000000 0.000000 0
-0.000000 0.000000 0
-0.000000 0.000000 0
-0.000000 0.000000 0
-0.000000 0.000000 0
-0.000000 0.000000 0
-0.000000 0.000000 0
-0.000000 0.000000 0
-0.000000 0.000000 0
-0.000000 0.000000 0
-0.000000 0.000000 0
-0.000000 0.000000 0
-0.000000 0.000000 0
-0.000000 0.000000 0
-0.000000 0.000000 0
-0.000000 0.000000 0
-0.000000 0.000000 0
-0.000000 0.000000 0
-0.000000 0.000000 0
-0.000000 0.000000 0
-0.000000 0.000000 0
-0.000000 0.000000 0
-0.000000 0.000000 0
-0.000000 0.000000 0
-0.000000 0.000000 0
-0.000000 0.000000 0
-0.000000 0.000000 0
-0.000000 0.000000 0
-0.000000 0.000000 0
-0.000000 0.000000 0
-0.000000 0.000000 0
-0.000000 0.000000 0
-0.000000 0.000000 0
-0.000000 0.000000 0
-0.000000 0.000000 0
-0.000000 0.000000 0
-0.000000 0.000000 0
-0.000000 0.000000 0
-0.000000 0.000000 0
-0.000000 0.000000 0
-0.000000 0.000000 0
-0.000000 0.000000 0
-0.000000 0.000000 0
-0.000000 0.000000 0
-0.000000 0.000000 0
-0.000000 0.000000 0
-0.000000 0.000000 0
-0.000000 0.000000 0
-0.000000 0.000000 0
-0.000000 0.000000 0
-0.000000 0.000000 0
-0.000000 0.000000 0
-0.000000 0.000000 0
-0.000000 0.000000 0
-0.000000 0.000000 0
-0.000000 0.000000 0
-0.000000 0.000000 0
-0.000000 0.000000 0
-0.000000 0.000000 0
-0.000000 0.000000 0
-0.000000 0.000000 0
-0.000000 0.000000 0
-0.000000 0.000000 0
-0.000000 0.000000 0
-0.000000 0.000000 0
-0.000000 0.000000 0
-0.000000 0.000000 0
-0.000000 0.000000 0
-0.000000 0.000000 0
-0.000000 0.000000 0
0.000000 0.000000 0
-0.000000 0.000000 0
0.496447 0.000000 0
1.000000 0.000035 0
0.999854 0.000107 0
0.999558 0.000183 0
0.999101 0.000265 0
0.998465 0.000358 0
0.997626 0.000465 0
0.996549 0.000592 0
0.995186 0.000747 0
0.993475 0.000939 0
0.991325 0.001182 0
0.988614 0.001500 0
0.985165 0.001928 0
0.980713 0.002523 0
0.974850 0.003392 0
0.966903 0.004753 0
0.955641 0.007036 0
0.938825 0.011875 0
0.910180 0.021660 0
0.860874 0.078853 0
0.714887 0.110956 0
0.576504 0.072745 0
0.473017 0.041074 0
0.401066 0.022638 0
0.351163 0.013309 0
0.315500 0.008679 0
0.288995 0.006202 0
0.268555 0.004718 0
0.252294 0.003739 0
0.239028 0.003050 0
0.227980 0.002542 0
0.218625 0.002156 0
0.210591 0.001855 0
0.203609 0.001615 0
0.197481 0.001420 0
0.192053 0.001260 0
0.187209 0.001127 0
0.182855 0.001015 0
0.178918 0.000919 0
0.175338 0.000838 0
0.172066 0.000767 0
0.169061 0.000706 0
0.166289 0.000652 0
0.163722 0.000605 0
0.161337 0.000563 0
0.159112 0.000526 0
0.157031 0.000493 0
0.155078 0.000464 0
0.153241 0.000437 0
0.151508 0.000413 0
0.149868 0.000391 0
0.148315 0.000371 0
0.146839 0.000353 0
0.145435 0.000337 0
0.144096 0.000322 0
0.142818 0.000307 0
0.141595 0.000295 0
0.140423 0.000283 0
0.139299 0.000271 0
0.138219 0.000261 0
0.137181 0.000251 0
0.136181 0.000242 0
0.135217 0.000234 0
0.134287 0.000226 0
0.133389 0.000218 0
0.132520 0.000211 0
0.131681 0.000204 0
0.130868 0.000198 0
0.130080 0.000192 0
0.129316 0.000186 0
0.128576 0.000181 0
0.127857 0.000175 0
0.127159 0.000170 0
0.126481 0.000166 0
0.125822 0.000161 0
0.125181 0.000157 0
0.124558 0.000152 0
0.123952 0.000148 0
0.123363 0.000144 0
0.122789 0.000140 0
0.122230 0.000137 0
0.121687 0.000133 0
0.121158 0.000129 0
0.120644 0.000126 0
0.120143 0.000122 0
0.119657 0.000119 0
0.119184 0.000116 0
0.118724 0.000112 0
0.118278 0.000109 0
0.117845 0.000105 0
0.117426 0.000102 0
0.117021 0.000098 0
0.116630 0.000095 0
0.116252 0.000091 0
0.115890 0.000087 0
0.115543 0.000083 0
0.115211 0.000079 0
0.114896 0.000075 0
0.114599 0.000070 0
0.114321 0.000065 0
0.114062 0.000060 0
0.113825 0.000054 0
0.113611 0.000047 0
0.113423 0.000040 0
0.113263 0.000032 0
0.113133 0.000023 0
0.113038 0.000014 0
0.112982 0.000002 0
0.112969 -0.000011 0
0.113007 -0.000025 0
0.113100 -0.000040 0
0.113253 -0.000057 0
0.113475 -0.000077 0
0.113775 -0.000100 0
0.114164 -0.000126 0
0.114655 -0.000156 0
0.115262 -0.000191 0
0.116004 -0.000231 0
0.116901 -0.000278 0
0.117976 -0.000332 0
0.119258 -0.000394 0
0.120781 -0.000468 0
0.122585 -0.000555 0
0.124721 -0.000658 0
0.127247 -0.000780 0
0.130239 -0.000928 0
0.133788 -0.001106 0
0.138011 -0.001325 0
0.143056 -0.001597 0
0.149115 -0.001938 0
0.156444 -0.002375 0
0.165383 -0.002943 0
0.176407 -0.003702 0
0.190185 -0.004743 0
0.207697 -0.006222 0
0.230440 -0.008422 0
0.260801 -0.011899 0
0.302873 -0.017812 0
0.363968 -0.029562 0
0.460718 -0.051926 0
0.618227 -0.166946 0
0.993202 -0.267588 0
0.993202 -0.133794 0
1.000000 0.000070 0
0.999856 0.000213 0
0.999564 0.000364 0
0.999113 0.000528 0
0.998486 0.000712 0
0.997659 0.000926 0
0.996599 0.001178 0
0.995259 0.001485 0
0.993579 0.001865 0
0.991473 0.002348 0
0.988825 0.002975 0
0.985469 0.003816 0
0.981163 0.004982 0
0.975541 0.006670 0
0.968025 0.009278 0
0.957649 0.013561 0
0.942785 0.021957 0
0.920695 0.037650 0
0.888370 0.094326 0
0.890999 0.137349 0
0.842149 0.116821 0
0.771618 0.084735 0
0.701222 0.058855 0
0.639920 0.041328 0
0.589258 0.030027 0
0.547924 0.022674 0
0.514041 0.017726 0
0.485953 0.014261 0
0.462370 0.011743 0
0.442322 0.009855 0
0.425083 0.008399 0
0.410106 0.007252 0
0.396972 0.006332 0
0.385361 0.005582 0
0.375018 0.004961 0
0.365743 0.004442 0
0.357376 0.004004 0
0.349785 0.003631 0
0.342865 0.003310 0
0.336526 0.003032 0
0.330695 0.002790 0
0.325309 0.002578 0
0.320317 0.002392 0
0.315672 0.002227 0
0.311338 0.002080 0
0.307282 0.001948 0
0.303474 0.001831 0
0.299890 0.001725 0
0.296509 0.001629 0
0.293311 0.001542 0
0.290281 0.001463 0
0.287403 0.001391 0
0.284664 0.001325 0
0.282054 0.001264 0
0.279562 0.001208 0
0.277178 0.001157 0
0.274896 0.001109 0
0.272706 0.001064 0
0.270604 0.001023 0
0.268582 0.000985 0
0.266636 0.000949 0
0.264761 0.000915 0
0.262952 0.000883 0
0.261205 0.000853 0
0.259518 0.000825 0
0.257885 0.000798 0
0.256305 0.000773 0
0.254775 0.000749 0
0.253292 0.000727 0
0.251854 0.000705 0
0.250458 0.000684 0
0.249103 0.000665 0
0.247787 0.000646 0
0.246508 0.000628 0
0.245265 0.000610 0
0.244056 0.000594 0
0.242880 0.000577 0
0.241736 0.000562 0
0.240623 0.000547 0
0.239540 0.000532 0
0.238486 0.000518 0
0.237460 0.000504 0
0.236462 0.000490 0
0.235490 0.000477 0
0.234545 0.000464 0
0.233627 0.000450 0
0.232734 0.000437 0
0.231868 0.000424 0
0.231026 0.000411 0
0.230211 0.000398 0
0.229422 0.000385 0
0.228659 0.000371 0
0.227923 0.000357 0
0.227215 0.000343 0
0.226535 0.000328 0
0.225884 0.000312 0
0.225265 0.000296 0
0.224677 0.000278 0
0.224124 0.000259 0
0.223608 0.000239 0
0.223131 0.000218 0
0.222696 0.000194 0
0.222307 0.000168 0
0.221969 0.000140 0
0.221685 0.000108 0
0.221462 0.000073 0
0.221307 0.000033 0
0.221228 -0.000012 0
0.221239 -0.000063 0
0.221347 -0.000119 0
0.221563 -0.000181 0
0.221900 -0.000252 0
0.222374 -0.000333 0
0.223002 -0.000425 0
0.223807 -0.000531 0
0.224814 -0.000652 0
0.226051 -0.000791 0
0.227552 -0.000952 0
0.229358 -0.001138 0
0.231515 -0.001355 0
0.234079 -0.001607 0
0.237116 -0.001903 0
0.240705 -0.002252 0
0.244943 -0.002665 0
0.249948 -0.003159 0
0.255863 -0.003754 0
0.262869 -0.004476 0
0.271192 -0.005363 0
0.281120 -0.006466 0
0.293028 -0.007857 0
0.307408 -0.009642 0
0.324921 -0.011979 0
0.346472 -0.015113 0
0.373338 -0.019443 0
0.407363 -0.025649 0
0.451303 -0.034985 0
0.509441 -0.049829 0
0.588397 -0.076238 0
0.699406 -0.122806 0
0.856546 -0.257186 0
0.993903 -0.362220 0
0.993903 -0.181110 0
1.000000 0.000105 0
0.999859 0.000318 0
0.999574 0.000542 0
0.999133 0.000786 0
0.998521 0.001060 0
0.997714 0.001377 0
0.996681 0.001752 0
0.995379 0.002205 0
0.993750 0.002767 0
0.991715 0.003479 0
0.989168 0.004400 0
0.985962 0.005628 0
0.981887 0.007318 0
0.976642 0.009737 0
0.969782 0.013395 0
0.960673 0.019226 0
0.948431 0.029724 0
0.933028 0.047942 0
0.915086 0.093196 0
0.945330 0.133281 0
0.948626 0.130405 0
0.922939 0.109141 0
0.881981 0.086247 0
0.836590 0.067387 0
0.792539 0.053113 0
0.752207 0.042531 0
0.716223 0.034649 0
0.684456 0.028696 0
0.656486 0.024123 0
0.631829 0.020552 0
0.610018 0.017717 0
0.590642 0.015432 0
0.573344 0.013567 0
0.557828 0.012024 0
0.543841 0.010735 0
0.531174 0.009648 0
0.519653 0.008722 0
0.509128 0.007928 0
0.499475 0.007242 0
0.490589 0.006645 0
0.482379 0.006124 0
0.474768 0.005665 0
0.467691 0.005260 0
0.461090 0.004900 0
0.454915 0.004579 0
0.449124 0.004292 0
0.443679 0.004034 0
0.438547 0.003801 0
0.433699 0.003591 0
0.429109 0.003399 0
0.424755 0.003225 0
0.420617 0.003066 0
0.416678 0.002920 0
0.412921 0.002786 0
0.409331 0.002662 0
0.405898 0.002548 0
0.402608 0.002443 0
0.399452 0.002344 0
0.396420 0.002253 0
0.393505 0.002168 0
0.390698 0.002088 0
0.387993 0.002013 0
0.385383 0.001943 0
0.382863 0.001877 0
0.380428 0.001815 0
0.378073 0.001756 0
0.375793 0.001700 0
0.373584 0.001647 0
0.371443 0.001597 0
0.369367 0.001549 0
0.367353 0.001504 0
0.365397 0.001461 0
0.363496 0.001419 0
0.361650 0.001379 0
0.359855 0.001341 0
0.358109 0.001304 0
0.356411 0.001269 0
0.354759 0.001234 0
0.353150 0.001201 0
0.351585 0.001169 0
0.350062 0.001138 0
0.348579 0.001107 0
0.347135 0.001077 0
0.345730 0.001048 0
0.344364 0.001019 0
0.343034 0.000990 0
0.341742 0.000962 0
0.340486 0.000934 0
0.339266 0.000905 0
0.338083 0.000877 0
0.336937 0.000848 0
0.335828 0.000819 0
0.334757 0.000789 0
0.333724 0.000758 0
0.332731 0.000726 0
0.331779 0.000693 0
0.330869 0.000658 0
0.330004 0.000621 0
0.329186 0.000581 0
0.328417 0.000539 0
0.327702 0.000494 0
0.327044 0.000445 0
0.326448 0.000391 0
0.325918 0.000333 0
0.325462 0.000268 0
0.325087 0.000196 0
0.324801 0.000115 0
0.324614 0.000022 0
0.324539 -0.000082 0
0.324595 -0.000197 0
0.324792 -0.000325 0
0.325148 -0.000469 0
0.325681 -0.000632 0
0.326414 -0.000819 0
0.327375 -0.001031 0
0.328593 -0.001275 0
0.330105 -0.001554 0
0.331953 -0.001875 0
0.334185 -0.002246 0
0.336859 -0.002675 0
0.340041 -0.003173 0
0.343812 -0.003755 0
0.348267 -0.004438 0
0.353518 -0.005244 0
0.359704 -0.006202 0
0.366991 -0.007347 0
0.375584 -0.008729 0
0.385736 -0.010412 0
0.397765 -0.012485 0
0.412073 -0.015071 0
0.429177 -0.018347 0
0.449751 -0.022569 0
0.474685 -0.028128 0
0.505175 -0.035632 0
0.542855 -0.046079 0
0.589970 -0.061201 0
0.649604 -0.084028 0
0.725645 -0.121314 0
0.821585 -0.181440 0
0.936690 -0.309187 0
0.994681 -0.400273 0
0.994681 -0.200137 0
1.000000 0.000138 0
0.999864 0.000419 0
0.999587 0.000715 0
0.999160 0.001037 0
0.998568 0.001398 0
0.997789 0.001814 0
0.996794 0.002306 0
0.995543 0.002901 0
0.993983 0.003635 0
0.992045 0.004560 0
0.989634 0.005754 0
0.986627 0.007333 0
0.982854 0.009484 0
0.978089 0.012517 0
0.972036 0.016991 0
0.964382 0.023874 0
0.954906 0.035310 0
0.945019 0.053755 0
0.937268 0.088384 0
0.965707 0.121150 0
0.987884 0.127636 0
0.990071 0.116924 0
0.975766 0.100561 0
0.951737 0.084528 0
0.923219 0.070783 0
0.893429 0.059534 0
0.864150 0.050449 0
0.836293 0.043114 0
0.810267 0.037162 0
0.786202 0.032298 0
0.764074 0.028292 0
0.743779 0.024966 0
0.725178 0.022181 0
0.708121 0.019831 0
0.692459 0.017834 0
0.678052 0.016125 0
0.664771 0.014653 0
0.652499 0.013376 0
0.641132 0.012264 0
0.630577 0.011289 0
0.620753 0.010431 0
0.611586 0.009672 0
0.603013 0.008998 0
0.594976 0.008397 0
0.587424 0.007859 0
0.580314 0.007375 0
0.573606 0.006940 0
0.567264 0.006545 0
0.561256 0.006187 0
0.555554 0.005862 0
0.550134 0.005564 0
0.544973 0.005292 0
0.540051 0.005042 0
0.535349 0.004812 0
0.530851 0.004600 0
0.526543 0.004404 0
0.522410 0.004222 0
0.518442 0.004053 0
0.514627 0.003895 0
0.510954 0.003748 0
0.507416 0.003611 0
0.504004 0.003482 0
0.500710 0.003361 0
0.497527 0.003246 0
0.494449 0.003139 0
0.491471 0.003037 0
0.488586 0.002941 0
0.485791 0.002850 0
0.483081 0.002763 0
0.480451 0.002681 0
0.477898 0.002602 0
0.475418 0.002527 0
0.473008 0.002455 0
0.470666 0.002387 0
0.468387 0.002321 0
0.466171 0.002257 0
0.464014 0.002196 0
0.461915 0.002137 0
0.459871 0.002079 0
0.457880 0.002024 0
0.455942 0.001970 0
0.454055 0.001917 0
0.452217 0.001866 0
0.450428 0.001815 0
0.448686 0.001766 0
0.446991 0.001717 0
0.445341 0.001668 0
0.443738 0.001620 0
0.442180 0.001572 0
0.440667 0.001523 0
0.439199 0.001474 0
0.437778 0.001424 0
0.436403 0.001374 0
0.435075 0.001321 0
0.433796 0.001268 0
0.432567 0.001211 0
0.431390 0.001153 0
0.430266 0.001091 0
0.429200 0.001026 0
0.428193 0.000956 0
0.427250 0.000881 0
0.426375 0.000800 0
0.425573 0.000712 0
0.424851 0.000616 0
0.424214 0.000510 0
0.423673 0.000393 0
0.423235 0.000262 0
0.422912 0.000114 0
0.422714 -0.000054 0
0.422665 -0.000241 0
0.422781 -0.000448 0
0.423078 -0.000681 0
0.423580 -0.000944 0
0.424309 -0.001243 0
0.425297 -0.001583 0
0.426575 -0.001971 0
0.428185 -0.002414 0
0.430170 -0.002923 0
0.432584 -0.003508 0
0.435487 -0.004183 0
0.438953 -0.004966 0
0.443065 -0.005876 0
0.447924 -0.006940 0
0.453647 -0.008189 0
0.460376 -0.009666 0
0.468281 -0.011423 0
0.477568 -0.013530 0
0.488486 -0.016077 0
0.501342 -0.019187 0
0.516520 -0.023030 0
0.534494 -0.027841 0
0.555866 -0.033959 0
0.581401 -0.041882 0
0.612074 -0.052369 0
0.649127 -0.066604 0
0.694094 -0.086544 0
0.748724 -0.115359 0
0.814467 -0.159304 0
0.890002 -0.224739 0
0.968043 -0.340790 0
0.995416 -0.418238 0
0.995416 -0.209119 0
1.000000 0.000170 0
0.999869 0.000517 0
0.999604 0.000882 0
0.999195 0.001278 0
0.998628 0.001722 0
0.997884 0.002234 0
0.996936 0.002837 0
0.995748 0.003563 0
0.994274 0.004457 0
0.992454 0.005579 0
0.990209 0.007017 0
0.987440 0.008903 0
0.984022 0.011442 0
0.979805 0.014962 0
0.974637 0.020015 0
0.968468 0.027500 0
0.961560 0.039076 0
0.955831 0.056461 0
0.954477 0.083204 0
0.976671 0.108834 0
1.001710 0.118637 0
1.016359 0.114993 0
1.018677 0.104763 0
1.011392 0.092767 0
0.997798 0.081275 0
0.980475 0.071061 0
0.961201 0.062245 0
0.941142 0.054721 0
0.921051 0.048317 0
0.901398 0.042863 0
0.882464 0.038207 0
0.864407 0.034219 0
0.847302 0.030789 0
0.831166 0.027827 0
0.815986 0.025259 0
0.801727 0.023021 0
0.788339 0.021064 0
0.775771 0.019345 0
0.763967 0.017830 0
0.752871 0.016488 0
0.742430 0.015296 0
0.732595 0.014233 0
0.723316 0.013282 0
0.714552 0.012429 0
0.706261 0.011660 0
0.698407 0.010966 0
0.690955 0.010337 0
0.683875 0.009766 0
0.677138 0.009246 0
0.670720 0.008771 0
0.664595 0.008336 0
0.658744 0.007936 0
0.653146 0.007569 0
0.647784 0.007229 0
0.642643 0.006916 0
0.637706 0.006625 0
0.632961 0.006355 0
0.628395 0.006104 0
0.623998 0.005869 0
0.619758 0.005650 0
0.615667 0.005445 0
0.611716 0.005252 0
0.607896 0.005071 0
0.604201 0.004901 0
0.600624 0.004740 0
0.597159 0.004587 0
0.593800 0.004443 0
0.590541 0.004306 0
0.587378 0.004177 0
0.584306 0.004053 0
0.581322 0.003935 0
0.578421 0.003822 0
0.575600 0.003714 0
0.572855 0.003611 0
0.570184 0.003512 0
0.567583 0.003416 0
0.565051 0.003324 0
0.562584 0.003236 0
0.560181 0.003150 0
0.557839 0.003066 0
0.555558 0.002985 0
0.553334 0.002906 0
0.551168 0.002829 0
0.549056 0.002753 0
0.547000 0.002679 0
0.544997 0.002606 0
0.543046 0.002533 0
0.541149 0.002461 0
0.539303 0.002389 0
0.537509 0.002316 0
0.535767 0.002243 0
0.534077 0.002170 0
0.532440 0.002094 0
0.530857 0.002017 0
0.529329 0.001938 0
0.527858 0.001855 0
0.526445 0.001769 0
0.525092 0.001678 0
0.523803 0.001583 0
0.522582 0.001481 0
0.521431 0.001372 0
0.520355 0.001255 0
0.519361 0.001128 0
0.518453 0.000989 0
0.517641 0.000837 0
0.516931 0.000669 0
0.516334 0.000483 0
0.515861 0.000274 0
0.515523 0.000037 0
0.515338 -0.000229 0
0.515331 -0.000524 0
0.515518 -0.000855 0
0.515922 -0.001227 0
0.516569 -0.001648 0
0.517489 -0.002126 0
0.518716 -0.002670 0
0.520289 -0.003290 0
0.522256 -0.004000 0
0.524668 -0.004814 0
0.527589 -0.005751 0
0.531088 -0.006833 0
0.535252 -0.008088 0
0.540176 -0.009549 0
0.545977 -0.011259 0
0.552791 -0.013270 0
0.560780 -0.015650 0
0.570135 -0.018487 0
0.581089 -0.021895 0
0.593918 -0.026025 0
0.608960 -0.031083 0
0.626623 -0.037351 0
0.647407 -0.045225 0
0.671916 -0.055276 0
0.700873 -0.068344 0
0.735117 -0.085694 0
0.775528 -0.109306 0
0.822770 -0.142167 0
0.876604 -0.189550 0
0.933456 -0.255617 0
0.984823 -0.360101 0
0.996083 -0.426714 0
0.996083 -0.213357 0
1.000000 0.000201 0
0.999876 0.000611 0
0.999624 0.001041 0
0.999236 0.001508 0
0.998699 0.002031 0
0.997996 0.002631 0
0.997104 0.003338 0
0.995990 0.004186 0
0.994616 0.005226 0
0.992932 0.006524 0
0.990877 0.008175 0
0.988376 0.010321 0
0.985348 0.013171 0
0.981715 0.017050 0
0.977446 0.022466 0
0.972684 0.030190 0
0.967982 0.041413 0
0.965254 0.057176 0
0.967534 0.078318 0
0.984749 0.098336 0
1.007163 0.108468 0
1.025317 0.108730 0
1.035732 0.102960 0
1.038731 0.094612 0
1.035896 0.085716 0
1.028851 0.077210 0
1.018913 0.069447 0
1.007070 0.062506 0
0.994050 0.056358 0
0.980383 0.050936 0
0.966452 0.046158 0
0.952530 0.041949 0
0.938809 0.038236 0
0.925420 0.034957 0
0.912447 0.032054 0
0.899943 0.029478 0
0.887935 0.027189 0
0.876435 0.025148 0
0.865440 0.023325 0
0.854941 0.021691 0
0.844921 0.020225 0
0.835362 0.018904 0
0.826241 0.017713 0
0.817537 0.016635 0
0.809226 0.015657 0
0.801286 0.014768 0
0.793695 0.013958 0
0.786433 0.013219 0
0.779479 0.012541 0
0.772815 0.011920 0
0.766423 0.011349 0
0.760286 0.010822 0
0.754388 0.010336 0
0.748716 0.009886 0
0.743256 0.009468 0
0.737995 0.009080 0
0.732922 0.008719 0
0.728026 0.008382 0
0.723297 0.008067 0
0.718726 0.007772 0
0.714304 0.007495 0
0.710024 0.007235 0
0.705878 0.006990 0
0.701859 0.006759 0
0.697961 0.006540 0
0.694178 0.006334 0
0.690505 0.006138 0
0.686935 0.005951 0
0.683466 0.005774 0
0.680092 0.005606 0
0.676809 0.005445 0
0.673614 0.005291 0
0.670503 0.005144 0
0.667473 0.005002 0
0.664520 0.004867 0
0.661642 0.004736 0
0.658837 0.004610 0
0.656101 0.004489 0
0.653434 0.004371 0
0.650832 0.004257 0
0.648294 0.004146 0
0.645818 0.004038 0
0.643403 0.003932 0
0.641048 0.003828 0
0.638751 0.003727 0
0.636512 0.003626 0
0.634330 0.003527 0
0.632203 0.003428 0
0.630133 0.003330 0
0.628119 0.003231 0
0.626160 0.003132 0
0.624257 0.003031 0
0.622412 0.002929 0
0.620624 0.002824 0
0.618894 0.002716 0
0.617226 0.002605 0
0.615619 0.002489 0
0.614077 0.002367 0
0.612603 0.002238 0
0.611200 0.002102 0
0.609871 0.001956 0
0.608622 0.001800 0
0.607458 0.001631 0
0.606386 0.001447 0
0.605412 0.001245 0
0.604546 0.001024 0
0.603796 0.000778 0
0.603175 0.000506 0
0.602694 0.000199 0
0.602363 -0.000148 0
0.602212 -0.000535 0
0.602259 -0.000967 0
0.602527 -0.001452 0
0.603041 -0.002000 0
0.603830 -0.002620 0
0.604929 -0.003323 0
0.606375 -0.004124 0
0.608214 -0.005038 0
0.610497 -0.006084 0
0.613284 -0.007284 0
0.616642 -0.008667 0
0.620652 -0.010265 0
0.625407 -0.012120 0
0.631012 -0.014283 0
0.637596 -0.016816 0
0.645303 -0.019800 0
0.654309 -0.023339 0
0.664816 -0.027563 0
0.677064 -0.032648 0
0.691338 -0.038826 0