# vtk DataFile Version 2.0
generated by CFD-lab course output (written by Tobias Neckel) 
ASCII

DATASET STRUCTURED_GRID
DIMENSIONS  142 42 1 
POINTS 5964 float

0.000000 0.250000 0
0.024648 0.250000 0
0.049296 0.250000 0
0.073944 0.250000 0
0.098592 0.250000 0
0.123239 0.250000 0
0.147887 0.250000 0
0.172535 0.250000 0
0.197183 0.250000 0
0.221831 0.250000 0
0.246479 0.250000 0
0.271127 0.250000 0
0.295775 0.250000 0
0.320423 0.250000 0
0.345070 0.250000 0
0.369718 0.250000 0
0.394366 0.250000 0
0.419014 0.250000 0
0.443662 0.250000 0
0.468310 0.250000 0
0.492958 0.250000 0
0.517606 0.250000 0
0.542254 0.250000 0
0.566901 0.250000 0
0.591549 0.250000 0
0.616197 0.250000 0
0.640845 0.250000 0
0.665493 0.250000 0
0.690141 0.250000 0
0.714789 0.250000 0
0.739437 0.250000 0
0.764085 0.250000 0
0.788732 0.250000 0
0.813380 0.250000 0
0.838028 0.250000 0
0.862676 0.250000 0
0.887324 0.250000 0
0.911972 0.250000 0
0.936620 0.250000 0
0.961268 0.250000 0
0.985915 0.250000 0
1.010563 0.250000 0
1.035211 0.250000 0
1.059859 0.250000 0
1.084507 0.250000 0
1.109155 0.250000 0
1.133803 0.250000 0
1.158451 0.250000 0
1.183099 0.250000 0
1.207746 0.250000 0
1.232394 0.250000 0
1.257042 0.250000 0
1.281690 0.250000 0
1.306338 0.250000 0
1.330986 0.250000 0
1.355634 0.250000 0
1.380282 0.250000 0
1.404930 0.250000 0
1.429577 0.250000 0
1.454225 0.250000 0
1.478873 0.250000 0
1.503521 0.250000 0
1.528169 0.250000 0
1.552817 0.250000 0
1.577465 0.250000 0
1.602113 0.250000 0
1.626761 0.250000 0
1.651408 0.250000 0
1.676056 0.250000 0
1.700704 0.250000 0
1.725352 0.250000 0
1.750000 0.250000 0
1.774648 0.250000 0
1.799296 0.250000 0
1.823944 0.250000 0
1.848592 0.250000 0
1.873239 0.250000 0
1.897887 0.250000 0
1.922535 0.250000 0
1.947183 0.250000 0
1.971831 0.250000 0
1.996479 0.250000 0
2.021127 0.250000 0
2.045775 0.250000 0
2.070423 0.250000 0
2.095070 0.250000 0
2.119718 0.250000 0
2.144366 0.250000 0
2.169014 0.250000 0
2.193662 0.250000 0
2.218310 0.250000 0
2.242958 0.250000 0
2.267606 0.250000 0
2.292254 0.250000 0
2.316901 0.250000 0
2.341549 0.250000 0
2.366197 0.250000 0
2.390845 0.250000 0
2.415493 0.250000 0
2.440141 0.250000 0
2.464789 0.250000 0
2.489437 0.250000 0
2.514085 0.250000 0
2.538732 0.250000 0
2.563380 0.250000 0
2.588028 0.250000 0
2.612676 0.250000 0
2.637324 0.250000 0
2.661972 0.250000 0
2.686620 0.250000 0
2.711268 0.250000 0
2.735915 0.250000 0
2.760563 0.250000 0
2.785211 0.250000 0
2.809859 0.250000 0
2.834507 0.250000 0
2.859155 0.250000 0
2.883803 0.250000 0
2.908451 0.250000 0
2.933099 0.250000 0
2.957746 0.250000 0
2.982394 0.250000 0
3.007042 0.250000 0
3.031690 0.250000 0
3.056338 0.250000 0
3.080986 0.250000 0
3.105634 0.250000 0
3.130282 0.250000 0
3.154930 0.250000 0
3.179577 0.250000 0
3.204225 0.250000 0
3.228873 0.250000 0
3.253521 0.250000 0
3.278169 0.250000 0
3.302817 0.250000 0
3.327465 0.250000 0
3.352113 0.250000 0
3.376761 0.250000 0
3.401408 0.250000 0
3.426056 0.250000 0
3.450704 0.250000 0
3.475352 0.250000 0
0.000000 0.261905 0
0.024648 0.261905 0
0.049296 0.261905 0
0.073944 0.261905 0
0.098592 0.261905 0
0.123239 0.261905 0
0.147887 0.261905 0
0.172535 0.261905 0
0.197183 0.261905 0
0.221831 0.261905 0
0.246479 0.261905 0
0.271127 0.261905 0
0.295775 0.261905 0
0.320423 0.261905 0
0.345070 0.261905 0
0.369718 0.261905 0
0.394366 0.261905 0
0.419014 0.261905 0
0.443662 0.261905 0
0.468310 0.261905 0
0.492958 0.261905 0
0.517606 0.261905 0
0.542254 0.261905 0
0.566901 0.261905 0
0.591549 0.261905 0
0.616197 0.261905 0
0.640845 0.261905 0
0.665493 0.261905 0
0.690141 0.261905 0
0.714789 0.261905 0
0.739437 0.261905 0
0.764085 0.261905 0
0.788732 0.261905 0
0.813380 0.261905 0
0.838028 0.261905 0
0.862676 0.261905 0
0.887324 0.261905 0
0.911972 0.261905 0
0.936620 0.261905 0
0.961268 0.261905 0
0.985915 0.261905 0
1.010563 0.261905 0
1.035211 0.261905 0
1.059859 0.261905 0
1.084507 0.261905 0
1.109155 0.261905 0
1.133803 0.261905 0
1.158451 0.261905 0
1.183099 0.261905 0
1.207746 0.261905 0
1.232394 0.261905 0
1.257042 0.261905 0
1.281690 0.261905 0
1.306338 0.261905 0
1.330986 0.261905 0
1.355634 0.261905 0
1.380282 0.261905 0
1.404930 0.261905 0
1.429577 0.261905 0
1.454225 0.261905 0
1.478873 0.261905 0
1.503521 0.261905 0
1.528169 0.261905 0
1.552817 0.261905 0
1.577465 0.261905 0
1.602113 0.261905 0
1.626761 0.261905 0
1.651408 0.261905 0
1.676056 0.261905 0
1.700704 0.261905 0
1.725352 0.261905 0
1.750000 0.261905 0
1.774648 0.261905 0
1.799296 0.261905 0
1.823944 0.261905 0
1.848592 0.261905 0
1.873239 0.261905 0
1.897887 0.261905 0
1.922535 0.261905 0
1.947183 0.261905 0
1.971831 0.261905 0
1.996479 0.261905 0
2.021127 0.261905 0
2.045775 0.261905 0
2.070423 0.261905 0
2.095070 0.261905 0
2.119718 0.261905 0
2.144366 0.261905 0
2.169014 0.261905 0
2.193662 0.261905 0
2.218310 0.261905 0
2.242958 0.261905 0
2.267606 0.261905 0
2.292254 0.261905 0
2.316901 0.261905 0
2.341549 0.261905 0
2.366197 0.261905 0
2.390845 0.261905 0
2.415493 0.261905 0
2.440141 0.261905 0
2.464789 0.261905 0
2.489437 0.261905 0
2.514085 0.261905 0
2.538732 0.261905 0
2.563380 0.261905 0
2.588028 0.261905 0
2.612676 0.261905 0
2.637324 0.261905 0
2.661972 0.261905 0
2.686620 0.261905 0
2.711268 0.261905 0
2.735915 0.261905 0
2.760563 0.261905 0
2.785211 0.261905 0
2.809859 0.261905 0
2.834507 0.261905 0
2.859155 0.261905 0
2.883803 0.261905 0
2.908451 0.261905 0
2.933099 0.261905 0
2.957746 0.261905 0
2.982394 0.261905 0
3.007042 0.261905 0
3.031690 0.261905 0
3.056338 0.261905 0
3.080986 0.261905 0
3.105634 0.261905 0
3.130282 0.261905 0
3.154930 0.261905 0
3.179577 0.261905 0
3.204225 0.261905 0
3.228873 0.261905 0
3.253521 0.261905 0
3.278169 0.261905 0
3.302817 0.261905 0
3.327465 0.261905 0
3.352113 0.261905 0
3.376761 0.261905 0
3.401408 0.261905 0
3.426056 0.261905 0
3.450704 0.261905 0
3.475352 0.261905 0
0.000000 0.273810 0
0.024648 0.273810 0
0.049296 0.273810 0
0.073944 0.273810 0
0.098592 0.273810 0
0.123239 0.273810 0
0.147887 0.273810 0
0.172535 0.273810 0
0.197183 0.273810 0
0.221831 0.273810 0
0.246479 0.273810 0
0.271127 0.273810 0
0.295775 0.273810 0
0.320423 0.273810 0
0.345070 0.273810 0
0.369718 0.273810 0
0.394366 0.273810 0
0.419014 0.273810 0
0.443662 0.273810 0
0.468310 0.273810 0
0.492958 0.273810 0
0.517606 0.273810 0
0.542254 0.273810 0
0.566901 0.273810 0
0.591549 0.273810 0
0.616197 0.273810 0
0.640845 0.273810 0
0.665493 0.273810 0
0.690141 0.273810 0
0.714789 0.273810 0
0.739437 0.273810 0
0.764085 0.273810 0
0.788732 0.273810 0
0.813380 0.273810 0
0.838028 0.273810 0
0.862676 0.273810 0
0.887324 0.273810 0
0.911972 0.273810 0
0.936620 0.273810 0
0.961268 0.273810 0
0.985915 0.273810 0
1.010563 0.273810 0
1.035211 0.273810 0
1.059859 0.273810 0
1.084507 0.273810 0
1.109155 0.273810 0
1.133803 0.273810 0
1.158451 0.273810 0
1.183099 0.273810 0
1.207746 0.273810 0
1.232394 0.273810 0
1.257042 0.273810 0
1.281690 0.273810 0
1.306338 0.273810 0
1.330986 0.273810 0
1.355634 0.273810 0
1.380282 0.273810 0
1.404930 0.273810 0
1.429577 0.273810 0
1.454225 0.273810 0
1.478873 0.273810 0
1.503521 0.273810 0
1.528169 0.273810 0
1.552817 0.273810 0
1.577465 0.273810 0
1.602113 0.273810 0
1.626761 0.273810 0
1.651408 0.273810 0
1.676056 0.273810 0
1.700704 0.273810 0
1.725352 0.273810 0
1.750000 0.273810 0
1.774648 0.273810 0
1.799296 0.273810 0
1.823944 0.273810 0
1.848592 0.273810 0
1.873239 0.273810 0
1.897887 0.273810 0
1.922535 0.273810 0
1.947183 0.273810 0
1.971831 0.273810 0
1.996479 0.273810 0
2.021127 0.273810 0
2.045775 0.273810 0
2.070423 0.273810 0
2.095070 0.273810 0
2.119718 0.273810 0
2.144366 0.273810 0
2.169014 0.273810 0
2.193662 0.273810 0
2.218310 0.273810 0
2.242958 0.273810 0
2.267606 0.273810 0
2.292254 0.273810 0
2.316901 0.273810 0
2.341549 0.273810 0
2.366197 0.273810 0
2.390845 0.273810 0
2.415493 0.273810 0
2.440141 0.273810 0
2.464789 0.273810 0
2.489437 0.273810 0
2.514085 0.273810 0
2.538732 0.273810 0
2.563380 0.273810 0
2.588028 0.273810 0
2.612676 0.273810 0
2.637324 0.273810 0
2.661972 0.273810 0
2.686620 0.273810 0
2.711268 0.273810 0
2.735915 0.273810 0
2.760563 0.273810 0
2.785211 0.273810 0
2.809859 0.273810 0
2.834507 0.273810 0
2.859155 0.273810 0
2.883803 0.273810 0
2.908451 0.273810 0
2.933099 0.273810 0
2.957746 0.273810 0
2.982394 0.273810 0
3.007042 0.273810 0
3.031690 0.273810 0
3.056338 0.273810 0
3.080986 0.273810 0
3.105634 0.273810 0
3.130282 0.273810 0
3.154930 0.273810 0
3.179577 0.273810 0
3.204225 0.273810 0
3.228873 0.273810 0
3.253521 0.273810 0
3.278169 0.273810 0
3.302817 0.273810 0
3.327465 0.273810 0
3.352113 0.273810 0
3.376761 0.273810 0
3.401408 0.273810 0
3.426056 0.273810 0
3.450704 0.273810 0
3.475352 0.273810 0
0.000000 0.285714 0
0.024648 0.285714 0
0.049296 0.285714 0
0.073944 0.285714 0
0.098592 0.285714 0
0.123239 0.285714 0
0.147887 0.285714 0
0.172535 0.285714 0
0.197183 0.285714 0
0.221831 0.285714 0
0.246479 0.285714 0
0.271127 0.285714 0
0.295775 0.285714 0
0.320423 0.285714 0
0.345070 0.285714 0
0.369718 0.285714 0
0.394366 0.285714 0
0.419014 0.285714 0
0.443662 0.285714 0
0.468310 0.285714 0
0.492958 0.285714 0
0.517606 0.285714 0
0.542254 0.285714 0
0.566901 0.285714 0
0.591549 0.285714 0
0.616197 0.285714 0
0.640845 0.285714 0
0.665493 0.285714 0
0.690141 0.285714 0
0.714789 0.285714 0
0.739437 0.285714 0
0.764085 0.285714 0
0.788732 0.285714 0
0.813380 0.285714 0
0.838028 0.285714 0
0.862676 0.285714 0
0.887324 0.285714 0
0.911972 0.285714 0
0.936620 0.285714 0
0.961268 0.285714 0
0.985915 0.285714 0
1.010563 0.285714 0
1.035211 0.285714 0
1.059859 0.285714 0
1.084507 0.285714 0
1.109155 0.285714 0
1.133803 0.285714 0
1.158451 0.285714 0
1.183099 0.285714 0
1.207746 0.285714 0
1.232394 0.285714 0
1.257042 0.285714 0
1.281690 0.285714 0
1.306338 0.285714 0
1.330986 0.285714 0
1.355634 0.285714 0
1.380282 0.285714 0
1.404930 0.285714 0
1.429577 0.285714 0
1.454225 0.285714 0
1.478873 0.285714 0
1.503521 0.285714 0
1.528169 0.285714 0
1.552817 0.285714 0
1.577465 0.285714 0
[...]
POINT_DATA 5964 

VECTORS velocity float
1.000000 0.000000 0
0.999854 0.000000 0
0.999556 0.000000 0
0.999097 0.000000 0
0.998458 0.000000 0
0.997615 0.000000 0
0.996532 0.000000 0
0.995162 0.000000 0
0.993440 0.000000 0
0.991275 0.000000 0
0.988543 0.000000 0
0.985062 0.000000 0
0.980561 0.000000 0
0.974615 0.000000 0
0.966517 0.000000 0
0.954934 0.000000 0
0.937383 0.000000 0
0.905760 0.000000 0
0.847693 0.000000 0
-0.000000 0.000000 0
-0.000000 0.000000 0
-0.000000 0.000000 0
-0.000000 0.000000 0
-0.000000 0.000000 0
-0.000000 0.000000 0
-0.000000 0.000000 0
-0.000000 0.000000 0
-0.000000 0.000000 0
-0.000000 0.000000 0
-0.000000 0.000000 0
-0.000000 0.000000 0
-0.000000 0.000000 0
-0.000000 0.000000 0
-0.000000 0.000000 0
-0.000000 0.000000 0
-0.000000 0.000000 0
-0.000000 0.000000 0
-0.000000 0.000000 0
-0.000000 0.000000 0
-0.000000 0.000000 0
-0.000000 0.000000 0
-0.000000 0.000000 0
-0.000000 0.000000 0
-0.000000 0.000000 0
-0.000000 0.000000 0
-0.000000 0.000000 0
-0.000000 0.000000 0
-0.000000 0.000000 0
-0.000000 0.000000 0
-0.000000 0.000000 0
-0.000000 0.000000 0
-0.000000 0.000000 0
-0.000000 0.000000 0
-0.000000 0.000000 0
-0.000000 0.000000 0
-0.000000 0.000000 0
-0.000000 0.000000 0
-0.000000 0.000000 0
-0.000000 0.000000 0
-0.000000 0.000000 0
-0.000000 0.000000 0
-0.000000 0.000000 0
-0.000000 0.000000 0
-0.000000 0.000000 0
-0.000000 0.000000 0
-0.000000 0.000000 0
-0.000000 0.000000 0
-0.000000 0.000000 0
-0.000000 0.000000 0
-0.000000 0.000000 0
-0.000000 0.000000 0
-0.000000 0.000000 0
-0.000000 0.000000 0
-0.000000 0.000000 0
-0.000000 0.000000 0
-0.000000 0.000000 0
-0.000000 0.000000 0
-0.000000 0.000000 0
-0.000000 0.000000 0
-0.000000 0.000000 0
-0.000000 0.000000 0
-0.000000 0.000000 0
-0.000000 0.000000 0
-0.000000 0.000000 0
-0.000000 0.000000 0
-0.000000 0.000000 0
-0.000000 0.000000 0
-0.000000 0.000000 0
-0.000000 0.000000 0
-0.000000 0.000000 0
-0.000000 0.000000 0
-0.000000 0.000000 0
-0.000000 0.000000 0
-0.000000 0.000000 0
-0.000000 0.000000 0
-0.000000 0.000000 0
-0.000000 0.000000 0
-0.000000 0.000000 0
-0.000000 0.000000 0
-0.000000 0.000000 0
-0.000000 0.000000 0
-0.000000 0.000000 0
-0.000000 0.000000 0
-0.000000 0.000000 0
-0.000000 0.000000 0
-0.000000 0.000000 0
-0.000000 0.000000 0
-0.000000 0.000000 0
-0.000000 0.000000 0
-0.000000 0.000000 0
-0.000000 0.000000 0
-0.000000 0.000000 0
-0.000000 0.000000 0
-0.000000 0.000000 0
-0.000001 0.000000 0
-0.000001 0.000000 0
-0.000001 0.000000 0
-0.000001 0.000000 0
-0.000001 0.000000 0
-0.000001 0.000000 0
-0.000001 0.000000 0
-0.000001 0.000000 0
-0.000001 0.000000 0
-0.000001 0.000000 0
-0.000001 0.000000 0
-0.000001 0.000000 0
-0.000001 0.000000 0
-0.000001 0.000000 0
-0.000001 0.000000 0
-0.000001 0.000000 0
-0.000001 0.000000 0
-0.000001 0.000000 0
-0.000001 0.000000 0
-0.000001 0.000000 0
-0.000000 0.000000 0
-0.000000 0.000000 0
-0.000000 0.000000 0
-0.000000 0.000000 0
0.000000 0.000000 0
0.000000 0.000000 0
-0.000000 0.000000 0
0.496494 0.000000 0
1.000000 0.000035 0
0.999854 0.000107 0
0.999558 0.000183 0
0.999101 0.000265 0
0.998465 0.000358 0
0.997626 0.000465 0
0.996549 0.000592 0
0.995186 0.000747 0
0.993475 0.000939 0
0.991325 0.001182 0
0.988614 0.001500 0
0.985165 0.001928 0
0.980713 0.002523 0
0.974850 0.003392 0
0.966903 0.004753 0
0.955641 0.007036 0
0.938825 0.011875 0
0.910180 0.021660 0
0.860875 0.078853 0
0.714887 0.110956 0
0.576504 0.072745 0
0.473017 0.041074 0
0.401066 0.022638 0
0.351163 0.013309 0
0.315500 0.008679 0
0.288995 0.006202 0
0.268555 0.004718 0
0.252295 0.003739 0
0.239029 0.003050 0
0.227981 0.002542 0
0.218626 0.002156 0
0.210592 0.001855 0
0.203611 0.001615 0
0.197483 0.001420 0
0.192055 0.001260 0
0.187211 0.001127 0
0.182858 0.001015 0
0.178922 0.000919 0
0.175342 0.000838 0
0.172070 0.000767 0
0.169065 0.000706 0
0.166294 0.000652 0
0.163728 0.000605 0
0.161344 0.000563 0
0.159120 0.000526 0
0.157040 0.000493 0
0.155088 0.000464 0
0.153251 0.000437 0
0.151519 0.000413 0
0.149881 0.000391 0
0.148329 0.000371 0
0.146855 0.000353 0
0.145453 0.000336 0
0.144116 0.000321 0
0.142839 0.000307 0
0.141618 0.000294 0
0.140449 0.000282 0
0.139328 0.000271 0
0.138251 0.000260 0
0.137215 0.000251 0
0.136219 0.000241 0
0.135259 0.000233 0
0.134333 0.000225 0
0.133439 0.000217 0
0.132575 0.000210 0
0.131741 0.000203 0
0.130933 0.000197 0
0.130151 0.000190 0
0.129394 0.000185 0
0.128660 0.000179 0
0.127949 0.000174 0
0.127259 0.000169 0
0.126590 0.000164 0
0.125940 0.000159 0
0.125310 0.000154 0
0.124698 0.000150 0
0.124104 0.000146 0
0.123526 0.000141 0
0.122966 0.000137 0
0.122422 0.000133 0
0.121894 0.000129 0
0.121382 0.000126 0
0.120886 0.000122 0
0.120404 0.000118 0
0.119938 0.000114 0
0.119486 0.000111 0
0.119050 0.000107 0
0.118628 0.000103 0
0.118222 0.000100 0
0.117831 0.000096 0
0.117455 0.000092 0
0.117095 0.000088 0
0.116752 0.000084 0
0.116425 0.000079 0
0.116116 0.000075 0
0.115825 0.000070 0
0.115554 0.000065 0
0.115303 0.000060 0
0.115073 0.000054 0
0.114867 0.000048 0
0.114685 0.000041 0
0.114531 0.000034 0
0.114406 0.000026 0
0.114313 0.000017 0
0.114257 0.000006 0
0.114241 -0.000005 0
0.114270 -0.000017 0
0.114347 -0.000031 0
0.114477 -0.000046 0
0.114666 -0.000063 0
0.114921 -0.000082 0
0.115249 -0.000103 0
0.115660 -0.000127 0
0.116165 -0.000155 0
0.116774 -0.000186 0
0.117503 -0.000222 0
0.118367 -0.000262 0
0.119385 -0.000309 0
0.120581 -0.000363 0
0.121983 -0.000425 0
0.123621 -0.000498 0
0.125536 -0.000584 0
0.127776 -0.000686 0
0.130400 -0.000806 0
0.133479 -0.000951 0
0.137104 -0.001127 0
0.141389 -0.001343 0
0.146479 -0.001610 0
0.152563 -0.001945 0
0.159891 -0.002374 0
0.168800 -0.002933 0
0.179755 -0.003679 0
0.193415 -0.004704 0
0.210748 -0.006162 0
0.233234 -0.008333 0
0.263242 -0.011772 0
0.304846 -0.017642 0
0.365351 -0.029350 0
0.461415 -0.051713 0
0.618311 -0.166972 0
0.993298 -0.267835 0
0.993298 -0.133918 0
1.000000 0.000070 0
0.999856 0.000213 0
0.999564 0.000364 0
0.999113 0.000528 0
0.998486 0.000712 0
0.997659 0.000926 0
0.996599 0.001178 0
0.995259 0.001485 0
0.993579 0.001865 0
0.991473 0.002348 0
0.988825 0.002975 0
0.985469 0.003816 0
0.981163 0.004982 0
0.975541 0.006670 0
0.968025 0.009278 0
0.957649 0.013561 0
0.942785 0.021957 0
0.920695 0.037650 0
0.888371 0.094325 0
0.890999 0.137349 0
0.842149 0.116821 0
0.771619 0.084735 0
0.701223 0.058855 0
0.639921 0.041328 0
0.589259 0.030027 0
0.547925 0.022674 0
0.514042 0.017726 0
0.485955 0.014261 0
0.462372 0.011743 0
0.442325 0.009854 0
0.425086 0.008399 0
0.410109 0.007252 0
0.396976 0.006332 0
0.385364 0.005581 0
0.375022 0.004961 0
0.365748 0.004442 0
0.357381 0.004004 0
0.349792 0.003630 0
0.342872 0.003309 0
0.336534 0.003032 0
0.330704 0.002790 0
0.325319 0.002578 0
0.320328 0.002391 0
0.315685 0.002226 0
0.311353 0.002079 0
0.307298 0.001948 0
0.303492 0.001830 0
0.299910 0.001724 0
0.296531 0.001628 0
0.293336 0.001541 0
0.290308 0.001462 0
0.287433 0.001389 0
0.284698 0.001323 0
0.282092 0.001262 0
0.279603 0.001206 0
0.277224 0.001154 0
0.274946 0.001106 0
0.272762 0.001062 0
0.270665 0.001020 0
0.268650 0.000981 0
0.266711 0.000945 0
0.264843 0.000911 0
0.263042 0.000879 0
0.261305 0.000849 0
0.259627 0.000820 0
0.258005 0.000793 0
0.256436 0.000768 0
0.254918 0.000743 0
0.253448 0.000720 0
0.252025 0.000698 0
0.250644 0.000677 0
0.249306 0.000656 0
0.248008 0.000637 0
0.246749 0.000618 0
0.245527 0.000600 0
0.244341 0.000583 0
0.243190 0.000566 0
0.242072 0.000549 0
0.240987 0.000533 0
0.239935 0.000518 0
0.238913 0.000502 0
0.237922 0.000487 0
0.236962 0.000472 0
0.236031 0.000458 0
0.235129 0.000443 0
0.234257 0.000429 0
0.233413 0.000414 0
0.232599 0.000400 0
0.231814 0.000385 0
0.231059 0.000370 0
0.230333 0.000355 0
0.229638 0.000340 0
0.228975 0.000324 0
0.228344 0.000307 0
0.227746 0.000290 0
0.227183 0.000272 0
0.226656 0.000253 0
0.226168 0.000232 0
0.225720 0.000211 0
0.225315 0.000187 0
0.224957 0.000162 0
0.224648 0.000135 0
0.224393 0.000105 0
0.224197 0.000072 0
0.224065 0.000035 0
0.224004 -0.000006 0
0.224026 -0.000051 0
0.224134 -0.000100 0
0.224336 -0.000154 0
0.224642 -0.000214 0
0.225064 -0.000282 0
0.225614 -0.000357 0
0.226307 -0.000442 0
0.227161 -0.000538 0
0.228195 -0.000646 0
0.229432 -0.000769 0
0.230900 -0.000909 0
0.232629 -0.001070 0
0.234659 -0.001254 0
0.237033 -0.001468 0
0.239805 -0.001716 0
0.243039 -0.002007 0
0.246810 -0.002349 0
0.251214 -0.002754 0
0.256364 -0.003238 0
0.262401 -0.003820 0
0.269501 -0.004528 0
0.277886 -0.005397 0
0.287839 -0.006478 0
0.299726 -0.007843 0
0.314031 -0.009594 0
0.331404 -0.011889 0
0.352737 -0.014970 0
0.379289 -0.019232 0
0.412886 -0.025354 0
0.456260 -0.034588 0
0.513677 -0.049318 0
0.591752 -0.075622 0
0.701727 -0.122178 0
0.857814 -0.256896 0
0.994006 -0.362233 0
0.994006 -0.181116 0
1.000000 0.000105 0
0.999859 0.000318 0
0.999574 0.000542 0
0.999133 0.000786 0
0.998521 0.001060 0
0.997714 0.001377 0
0.996681 0.001752 0
0.995379 0.002205 0
0.993750 0.002767 0
0.991715 0.003479 0
0.989168 0.004400 0
0.985962 0.005628 0
0.981888 0.007318 0
0.976642 0.009737 0
0.969783 0.013395 0
0.960673 0.019226 0
0.948431 0.029724 0
0.933029 0.047942 0
0.915087 0.093196 0
0.945331 0.133281 0
0.948626 0.130405 0
0.922939 0.109141 0
0.881982 0.086247 0
0.836591 0.067387 0
0.792541 0.053113 0
0.752208 0.042531 0
0.716225 0.034649 0
0.684458 0.028695 0
0.656488 0.024123 0
0.631831 0.020551 0
0.610021 0.017716 0
0.590645 0.015432 0
0.573348 0.013566 0
0.557832 0.012024 0
0.543846 0.010735 0
0.531181 0.009647 0
0.519660 0.008721 0
0.509136 0.007927 0
0.499484 0.007241 0
0.490599 0.006644 0
0.482391 0.006122 0
0.474782 0.005664 0
0.467706 0.005258 0
0.461107 0.004898 0
0.454934 0.004577 0
0.449146 0.004290 0
0.443703 0.004032 0
0.438574 0.003799 0
0.433729 0.003588 0
0.429143 0.003397 0
0.424793 0.003222 0
0.420659 0.003063 0
0.416725 0.002916 0
0.412972 0.002782 0
0.409389 0.002658 0
0.405962 0.002543 0
0.402679 0.002437 0
0.399530 0.002338 0
0.396507 0.002246 0
0.393601 0.002160 0
0.390804 0.002080 0
0.388110 0.002005 0
0.385512 0.001934 0
0.383005 0.001867 0
0.380584 0.001804 0
0.378243 0.001744 0
0.375980 0.001687 0
0.373789 0.001634 0
0.371668 0.001582 0
0.369614 0.001533 0
0.367622 0.001487 0
0.365691 0.001442 0
0.363818 0.001399 0
0.362001 0.001357 0
0.360237 0.001317 0
0.358525 0.001279 0
0.356864 0.001241 0
0.355251 0.001205 0
0.353686 0.001170 0
0.352166 0.001135 0
0.350692 0.001101 0
0.349262 0.001068 0
0.347876 0.001036 0
0.346532 0.001003 0
0.345231 0.000971 0
0.343971 0.000939 0
0.342754 0.000908 0
0.341578 0.000876 0
0.340444 0.000844 0
0.339353 0.000811 0
0.338305 0.000778 0
0.337300 0.000744 0
0.336339 0.000709 0
0.335425 0.000673 0
0.334557 0.000636 0
0.333739 0.000597 0
0.332971 0.000556 0
0.332257 0.000512 0
0.331600 0.000466 0
0.331002 0.000416 0
0.330467 0.000363 0
0.330001 0.000306 0
0.329607 0.000244 0
0.329292 0.000175 0
0.329064 0.000099 0
0.328928 0.000014 0
0.328900 -0.000080 0
0.328987 -0.000181 0
0.329200 -0.000291 0
0.329549 -0.000414 0
0.330048 -0.000551 0
0.330713 -0.000704 0
0.331562 -0.000875 0
0.332617 -0.001067 0
0.333901 -0.001283 0
0.335443 -0.001528 0
0.337277 -0.001807 0
0.339441 -0.002125 0
0.341980 -0.002490 0
0.344949 -0.002911 0
0.348412 -0.003399 0
0.352445 -0.003968 0
0.357139 -0.004634 0
0.362604 -0.005421 0
0.368973 -0.006355 0
0.376409 -0.007473 0
0.385112 -0.008822 0
0.395329 -0.010467 0
0.407370 -0.012494 0
0.421631 -0.015025 0
0.438617 -0.018233 0
0.458991 -0.022374 0
0.483628 -0.027832 0
0.513708 -0.035213 0
0.550846 -0.045509 0
0.597264 -0.060454 0
0.656025 -0.083084 0
0.731000 -0.120177 0
0.825634 -0.180219 0
0.939199 -0.308141 0
0.994793 -0.399395 0
0.994793 -0.199697 0
1.000000 0.000138 0
0.999864 0.000419 0
0.999587 0.000715 0
0.999160 0.001037 0
0.998568 0.001398 0
0.997790 0.001814 0
0.996794 0.002306 0
0.995543 0.002901 0
0.993983 0.003635 0
0.992045 0.004560 0
0.989634 0.005754 0
0.986627 0.007333 0
0.982854 0.009483 0
0.978089 0.012517 0
0.972036 0.016990 0
0.964382 0.023874 0
0.954906 0.035310 0
0.945019 0.053755 0
0.937269 0.088384 0
0.965708 0.121150 0
0.987884 0.127636 0
0.990072 0.116924 0
0.975767 0.100560 0
0.951737 0.084527 0
0.923220 0.070783 0
0.893431 0.059534 0
0.864152 0.050449 0
0.836295 0.043114 0
0.810270 0.037161 0
0.786205 0.032298 0
0.764077 0.028292 0
0.743782 0.024965 0
0.725182 0.022180 0
0.708126 0.019831 0
0.692465 0.017833 0
0.678059 0.016124 0
0.664779 0.014651 0
0.652508 0.013375 0
0.641142 0.012262 0
0.630589 0.011288 0
0.620766 0.010429 0
0.611601 0.009670 0
0.603030 0.008996 0
0.594995 0.008394 0
0.587446 0.007856 0
0.580339 0.007372 0
0.573634 0.006936 0
0.567295 0.006541 0
0.561291 0.006183 0
0.555594 0.005857 0
0.550179 0.005559 0
0.545023 0.005286 0
0.540106 0.005036 0
0.535411 0.004805 0
0.530920 0.004592 0
0.526619 0.004395 0
0.522495 0.004213 0
0.518536 0.004043 0
0.514731 0.003884 0
0.511070 0.003736 0
0.507544 0.003597 0
0.504145 0.003467 0
0.500865 0.003345 0
0.497699 0.003229 0
0.494639 0.003120 0
0.491679 0.003017 0
0.488816 0.002919 0
0.486043 0.002826 0
0.483358 0.002737 0
0.480755 0.002652 0
0.478231 0.002571 0
0.475782 0.002494 0
0.473407 0.002419 0
0.471101 0.002348 0
0.468863 0.002279 0
0.466690 0.002212 0
0.464581 0.002147 0
0.462532 0.002084 0
0.460543 0.002023 0
0.458611 0.001963 0
0.456737 0.001905 0
0.454918 0.001848 0
0.453154 0.001791 0
0.451443 0.001735 0
0.449786 0.001680 0
0.448182 0.001625 0
0.446630 0.001570 0
0.445130 0.001515 0
0.443684 0.001460 0
0.442290 0.001404 0
0.440950 0.001347 0
0.439665 0.001289 0
0.438434 0.001229 0
0.437261 0.001168 0
0.436146 0.001104 0
0.435092 0.001038 0
0.434100 0.000968 0
0.433174 0.000895 0
0.432317 0.000817 0
0.431532 0.000734 0
0.430824 0.000646 0
0.430197 0.000550 0
0.429658 0.000447 0
0.429212 0.000335 0
0.428868 0.000211 0
0.428633 0.000073 0
0.428517 -0.000080 0
0.428537 -0.000245 0
0.428704 -0.000425 0
0.429028 -0.000624 0
0.429525 -0.000844 0
0.430212 -0.001089 0
0.431108 -0.001362 0
0.432237 -0.001668 0
0.433625 -0.002012 0
0.435302 -0.002400 0
0.437304 -0.002840 0
0.439674 -0.003341 0
0.442459 -0.003915 0
0.445719 -0.004575 0
0.449519 -0.005337 0
0.453941 -0.006222 0
0.459081 -0.007256 0
0.465051 -0.008470 0
0.471990 -0.009906 0
0.480060 -0.011615 0
0.489463 -0.013666 0
0.500442 -0.016148 0
0.513297 -0.019182 0
0.528400 -0.022935 0
0.546218 -0.027639 0
0.567341 -0.033629 0
0.592519 -0.041398 0
0.622711 -0.051698 0
0.659138 -0.065711 0
0.703311 -0.085389 0
0.756950 -0.113911 0
0.821460 -0.157541 0
0.895428 -0.222737 0
0.971457 -0.338599 0
0.995539 -0.415935 0
0.995539 -0.207967 0
1.000000 0.000170 0
0.999869 0.000517 0
0.999604 0.000882 0
0.999195 0.001278 0
0.998628 0.001722 0
0.997884 0.002234 0
0.996936 0.002837 0
0.995748 0.003563 0
0.994274 0.004457 0
0.992454 0.005579 0
0.990209 0.007017 0
0.987441 0.008903 0
0.984022 0.011442 0
0.979806 0.014962 0
0.974637 0.020015 0
0.968468 0.027500 0
0.961560 0.039076 0
0.955831 0.056461 0
0.954477 0.083204 0
0.976671 0.108834 0
1.001711 0.118637 0
1.016359 0.114993 0
1.018677 0.104762 0
1.011392 0.092767 0
0.997799 0.081275 0
0.980476 0.071060 0
0.961202 0.062245 0
0.941144 0.054720 0
0.921053 0.048316 0
0.901400 0.042862 0
0.882467 0.038206 0
0.864411 0.034218 0
0.847306 0.030788 0
0.831171 0.027826 0
0.815992 0.025257 0
0.801733 0.023020 0
0.788347 0.021062 0
0.775780 0.019343 0
0.763977 0.017828 0
0.752883 0.016486 0
0.742444 0.015293 0
0.732610 0.014230 0
0.723334 0.013279 0
0.714572 0.012425 0
0.706284 0.011656 0
0.698433 0.010961 0
0.690984 0.010332 0
0.683908 0.009760 0
0.677176 0.009240 0
0.670761 0.008764 0
0.664642 0.008328 0
0.658797 0.007927 0
0.653205 0.007559 0
0.647851 0.007219 0
0.642716 0.006904 0
0.637788 0.006612 0
0.633053 0.006341 0
0.628497 0.006088 0
0.624111 0.005853 0
0.619884 0.005632 0
0.615807 0.005425 0
0.611871 0.005230 0
0.608068 0.005047 0
0.604391 0.004874 0
0.600834 0.004711 0
0.597390 0.004556 0
0.594054 0.004410 0
0.590822 0.004270 0
0.587687 0.004137 0
0.584646 0.004010 0
0.581695 0.003888 0
0.578830 0.003772 0
0.576048 0.003660 0
0.573346 0.003552 0
0.570721 0.003448 0
0.568171 0.003347 0
0.565693 0.003250 0
0.563285 0.003155 0
0.560945 0.003063 0
0.558672 0.002973 0
0.556465 0.002885 0
0.554321 0.002799 0
0.552240 0.002714 0
0.550221 0.002630 0
0.548264 0.002547 0
0.546367 0.002464 0
0.544532 0.002381 0
0.542756 0.002299 0
0.541042 0.002215 0
0.539388 0.002131 0
0.537796 0.002046 0
0.536267 0.001959 0
0.534801 0.001870 0
0.533400 0.001778 0
0.532067 0.001683 0
0.530802 0.001585 0
0.529608 0.001482 0
0.528489 0.001373 0
0.527447 0.001259 0
0.526487 0.001138 0
0.525613 0.001008 0
0.524830 0.000869 0
0.524144 0.000719 0
0.523561 0.000557 0
0.523088 0.000379 0
0.522735 0.000184 0
0.522508 -0.000034 0
0.522427 -0.000271 0
0.522503 -0.000528 0
0.522749 -0.000811 0
0.523181 -0.001123 0
0.523815 -0.001468 0
0.524672 -0.001853 0
0.525774 -0.002282 0
0.527149 -0.002763 0
0.528828 -0.003305 0
0.530846 -0.003918 0
0.533245 -0.004615 0
0.536075 -0.005409 0
0.539393 -0.006321 0
0.543266 -0.007370 0
0.547772 -0.008586 0
0.553006 -0.010000 0
0.559077 -0.011656 0
0.566117 -0.013604 0
0.574280 -0.015912 0
0.583753 -0.018666 0
0.594761 -0.021978 0
0.607574 -0.025997 0
0.622519 -0.030926 0
0.639996 -0.037042 0
0.660490 -0.044737 0
0.684592 -0.054575 0
0.713011 -0.067389 0
0.746561 -0.084439 0
0.786095 -0.107696 0
0.832239 -0.140149 0
0.884689 -0.187061 0
0.939746 -0.252666 0
0.988731 -0.356493 0
0.996216 -0.422657 0
0.996216 -0.211328 0
1.000000 0.000201 0
0.999876 0.000611 0
0.999624 0.001041 0
0.999236 0.001508 0
0.998699 0.002031 0
0.997996 0.002631 0
0.997104 0.003338 0
0.995990 0.004186 0
0.994616 0.005226 0
0.992932 0.006524 0
0.990877 0.008175 0
0.988376 0.010321 0
0.985348 0.013171 0
0.981715 0.017050 0
0.977446 0.022466 0
0.972684 0.030190 0
0.967982 0.041413 0
0.965254 0.057176 0
0.967534 0.078318 0
0.984749 0.098336 0
1.007163 0.108467 0
1.025317 0.108729 0
1.035733 0.102959 0
1.038732 0.094612 0
1.035896 0.085715 0
1.028852 0.077210 0
1.018914 0.069446 0
1.007071 0.062505 0
0.994052 0.056358 0
0.980385 0.050935 0
0.966455 0.046157 0
0.952534 0.041948 0
0.938813 0.038235 0
0.925424 0.034955 0
0.912452 0.032052 0
0.899949 0.029476 0
0.887942 0.027186 0
0.876443 0.025145 0
0.865450 0.023322 0
0.854952 0.021688 0
0.844934 0.020221 0
0.835376 0.018900 0
0.826258 0.017708 0
0.817556 0.016630 0
0.809248 0.015651 0
0.801311 0.014762 0
0.793724 0.013951 0
0.786466 0.013211 0
0.779516 0.012533 0
0.772856 0.011910 0
0.766469 0.011338 0
0.760338 0.010810 0
0.754447 0.010323 0
0.748782 0.009871 0
0.743330 0.009453 0
0.738077 0.009063 0
0.733014 0.008700 0
0.728129 0.008361 0
0.723412 0.008044 0
0.718854 0.007747 0
0.714447 0.007468 0
0.710182 0.007205 0
0.706054 0.006957 0
0.702054 0.006723 0
0.698177 0.006501 0
0.694416 0.006291 0
0.690768 0.006091 0
0.687226 0.005901 0
0.683787 0.005720 0
0.680445 0.005546 0
0.677198 0.005380 0
0.674042 0.005221 0
0.670973 0.005068 0
0.667988 0.004921 0
0.665085 0.004778 0
0.662261 0.004641 0
0.659514 0.004507 0
0.656842 0.004377 0
0.654243 0.004251 0
0.651715 0.004128 0
0.649257 0.004007 0
0.646868 0.003888 0
0.644546 0.003771 0
0.642292 0.003656 0
0.640103 0.003542 0
0.637980 0.003428 0
0.635922 0.003314 0
0.633930 0.003201 0
0.632003 0.003087 0
0.630143 0.002971 0
0.628349 0.002854 0
0.626622 0.002735 0
0.624964 0.002614 0
0.623377 0.002488 0
0.621861 0.002359 0
0.620419 0.002225 0
0.619054 0.002085 0
0.617769 0.001938 0
0.616566 0.001784 0
0.615451 0.001620 0
0.614426 0.001446 0
0.613498 0.001260 0
0.612671 0.001060 0
0.611953 0.000844 0
0.611351 0.000610 0
0.610872 0.000353 0
0.610524 0.000069 0
0.610320 -0.000242 0
0.610277 -0.000581 0
0.610410 -0.000951 0
0.610731 -0.001359 0
0.611259 -0.001809 0
0.612012 -0.002308 0
0.613014 -0.002864 0
0.614291 -0.003486 0
0.615872 -0.004185 0
0.617793 -0.004974 0
0.620093 -0.005867 0
0.622820 -0.006884 0
0.626028 -0.008047 0
0.629782 -0.009384 0
0.634154 -0.010926 0
0.639234 -0.012716 0
0.645121 -0.014803 0
0.651938 -0.017249 0
0.659823 -0.020134 0
0.668945 -0.023558 0
0.679499 -0.027653 0
0.691717 -0.032589 0