# vtk DataFile Version 2.0
generated by CFD-lab course output (written by Tobias Neckel) 
ASCII

DATASET STRUCTURED_GRID
DIMENSIONS  142 42 1 
POINTS 5964 float

0.000000 0.250000 0
0.024648 0.250000 0
0.049296 0.250000 0
0.073944 0.250000 0
0.098592 0.250000 0
0.123239 0.250000 0
0.147887 0.250000 0
0.172535 0.250000 0
0.197183 0.250000 0
0.221831 0.250000 0
0.246479 0.250000 0
0.271127 0.250000 0
0.295775 0.250000 0
0.320423 0.250000 0
0.345070 0.250000 0
0.369718 0.250000 0
0.394366 0.250000 0
0.419014 0.250000 0
0.443662 0.250000 0
0.468310 0.250000 0
0.492958 0.250000 0
0.517606 0.250000 0
0.542254 0.250000 0
0.566901 0.250000 0
0.591549 0.250000 0
0.616197 0.250000 0
0.640845 0.250000 0
0.665493 0.250000 0
0.690141 0.250000 0
0.714789 0.250000 0
0.739437 0.250000 0
0.764085 0.250000 0
0.788732 0.250000 0
0.813380 0.250000 0
0.838028 0.250000 0
0.862676 0.250000 0
0.887324 0.250000 0
0.911972 0.250000 0
0.936620 0.250000 0
0.961268 0.250000 0
0.985915 0.250000 0
1.010563 0.250000 0
1.035211 0.250000 0
1.059859 0.250000 0
1.084507 0.250000 0
1.109155 0.250000 0
1.133803 0.250000 0
1.158451 0.250000 0
1.183099 0.250000 0
1.207746 0.250000 0
1.232394 0.250000 0
1.257042 0.250000 0
1.281690 0.250000 0
1.306338 0.250000 0
1.330986 0.250000 0
1.355634 0.250000 0
1.380282 0.250000 0
1.404930 0.250000 0
1.429577 0.250000 0
1.454225 0.250000 0
1.478873 0.250000 0
1.503521 0.250000 0
1.528169 0.250000 0
1.552817 0.250000 0
1.577465 0.250000 0
1.602113 0.250000 0
1.626761 0.250000 0
1.651408 0.250000 0
1.676056 0.250000 0
1.700704 0.250000 0
1.725352 0.250000 0
1.750000 0.250000 0
1.774648 0.250000 0
1.799296 0.250000 0
1.823944 0.250000 0
1.848592 0.250000 0
1.873239 0.250000 0
1.897887 0.250000 0
1.922535 0.250000 0
1.947183 0.250000 0
1.971831 0.250000 0
1.996479 0.250000 0
2.021127 0.250000 0
2.045775 0.250000 0
2.070423 0.250000 0
2.095070 0.250000 0
2.119718 0.250000 0
2.144366 0.250000 0
2.169014 0.250000 0
2.193662 0.250000 0
2.218310 0.250000 0
2.242958 0.250000 0
2.267606 0.250000 0
2.292254 0.250000 0
2.316901 0.250000 0
2.341549 0.250000 0
2.366197 0.250000 0
2.390845 0.250000 0
2.415493 0.250000 0
2.440141 0.250000 0
2.464789 0.250000 0
2.489437 0.250000 0
2.514085 0.250000 0
2.538732 0.250000 0
2.563380 0.250000 0
2.588028 0.250000 0
2.612676 0.250000 0
2.637324 0.250000 0
2.661972 0.250000 0
2.686620 0.250000 0
2.711268 0.250000 0
2.735915 0.250000 0
2.760563 0.250000 0
2.785211 0.250000 0
2.809859 0.250000 0
2.834507 0.250000 0
2.859155 0.250000 0
2.883803 0.250000 0
2.908451 0.250000 0
2.933099 0.250000 0
2.957746 0.250000 0
2.982394 0.250000 0
3.007042 0.250000 0
3.031690 0.250000 0
3.056338 0.250000 0
3.080986 0.250000 0
3.105634 0.250000 0
3.130282 0.250000 0
3.154930 0.250000 0
3.179577 0.250000 0
3.204225 0.250000 0
3.228873 0.250000 0
3.253521 0.250000 0
3.278169 0.250000 0
3.302817 0.250000 0
3.327465 0.250000 0
3.352113 0.250000 0
3.376761 0.250000 0
3.401408 0.250000 0
3.426056 0.250000 0
3.450704 0.250000 0
3.475352 0.250000 0
0.000000 0.261905 0
0.024648 0.261905 0
0.049296 0.261905 0
0.073944 0.261905 0
0.098592 0.261905 0
0.123239 0.261905 0
0.147887 0.261905 0
0.172535 0.261905 0
0.197183 0.261905 0
0.221831 0.261905 0
0.246479 0.261905 0
0.271127 0.261905 0
0.295775 0.261905 0
0.320423 0.261905 0
0.345070 0.261905 0
0.369718 0.261905 0
0.394366 0.261905 0
0.419014 0.261905 0
0.443662 0.261905 0
0.468310 0.261905 0
0.492958 0.261905 0
0.517606 0.261905 0
0.542254 0.261905 0
0.566901 0.261905 0
0.591549 0.261905 0
0.616197 0.261905 0
0.640845 0.261905 0
0.665493 0.261905 0
0.690141 0.261905 0
0.714789 0.261905 0
0.739437 0.261905 0
0.764085 0.261905 0
0.788732 0.261905 0
0.813380 0.261905 0
0.838028 0.261905 0
0.862676 0.261905 0
0.887324 0.261905 0
0.911972 0.261905 0
0.936620 0.261905 0
0.961268 0.261905 0
0.985915 0.261905 0
1.010563 0.261905 0
1.035211 0.261905 0
1.059859 0.261905 0
1.084507 0.261905 0
1.109155 0.261905 0
1.133803 0.261905 0
1.158451 0.261905 0
1.183099 0.261905 0
1.207746 0.261905 0
1.232394 0.261905 0
1.257042 0.261905 0
1.281690 0.261905 0
1.306338 0.261905 0
1.330986 0.261905 0
1.355634 0.261905 0
1.380282 0.261905 0
1.404930 0.261905 0
1.429577 0.261905 0
1.454225 0.261905 0
1.478873 0.261905 0
1.503521 0.261905 0
1.528169 0.261905 0
1.552817 0.261905 0
1.577465 0.261905 0
1.602113 0.261905 0
1.626761 0.261905 0
1.651408 0.261905 0
1.676056 0.261905 0
1.700704 0.261905 0
1.725352 0.261905 0
1.750000 0.261905 0
1.774648 0.261905 0
1.799296 0.261905 0
1.823944 0.261905 0
1.848592 0.261905 0
1.873239 0.261905 0
1.897887 0.261905 0
1.922535 0.261905 0
1.947183 0.261905 0
1.971831 0.261905 0
1.996479 0.261905 0
2.021127 0.261905 0
2.045775 0.261905 0
2.070423 0.261905 0
2.095070 0.261905 0
2.119718 0.261905 0
2.144366 0.261905 0
2.169014 0.261905 0
2.193662 0.261905 0
2.218310 0.261905 0
2.242958 0.261905 0
2.267606 0.261905 0
2.292254 0.261905 0
2.316901 0.261905 0
2.341549 0.261905 0
2.366197 0.261905 0
2.390845 0.261905 0
2.415493 0.261905 0
2.440141 0.261905 0
2.464789 0.261905 0
2.489437 0.261905 0
2.514085 0.261905 0
2.538732 0.261905 0
2.563380 0.261905 0
2.588028 0.261905 0
2.612676 0.261905 0
2.637324 0.261905 0
2.661972 0.261905 0
2.686620 0.261905 0
2.711268 0.261905 0
2.735915 0.261905 0
2.760563 0.261905 0
2.785211 0.261905 0
2.809859 0.261905 0
2.834507 0.261905 0
2.859155 0.261905 0
2.883803 0.261905 0
2.908451 0.261905 0
2.933099 0.261905 0
2.957746 0.261905 0
2.982394 0.261905 0
3.007042 0.261905 0
3.031690 0.261905 0
3.056338 0.261905 0
3.080986 0.261905 0
3.105634 0.261905 0
3.130282 0.261905 0
3.154930 0.261905 0
3.179577 0.261905 0
3.204225 0.261905 0
3.228873 0.261905 0
3.253521 0.261905 0
3.278169 0.261905 0
3.302817 0.261905 0
3.327465 0.261905 0
3.352113 0.261905 0
3.376761 0.261905 0
3.401408 0.261905 0
3.426056 0.261905 0
3.450704 0.261905 0
3.475352 0.261905 0
0.000000 0.273810 0
0.024648 0.273810 0
0.049296 0.273810 0
0.073944 0.273810 0
0.098592 0.273810 0
0.123239 0.273810 0
0.147887 0.273810 0
0.172535 0.273810 0
0.197183 0.273810 0
0.221831 0.273810 0
0.246479 0.273810 0
0.271127 0.273810 0
0.295775 0.273810 0
0.320423 0.273810 0
0.345070 0.273810 0
0.369718 0.273810 0
0.394366 0.273810 0
0.419014 0.273810 0
0.443662 0.273810 0
0.468310 0.273810 0
0.492958 0.273810 0
0.517606 0.273810 0
0.542254 0.273810 0
0.566901 0.273810 0
0.591549 0.273810 0
0.616197 0.273810 0
0.640845 0.273810 0
0.665493 0.273810 0
0.690141 0.273810 0
0.714789 0.273810 0
0.739437 0.273810 0
0.764085 0.273810 0
0.788732 0.273810 0
0.813380 0.273810 0
0.838028 0.273810 0
0.862676 0.273810 0
0.887324 0.273810 0
0.911972 0.273810 0
0.936620 0.273810 0
0.961268 0.273810 0
0.985915 0.273810 0
1.010563 0.273810 0
1.035211 0.273810 0
1.059859 0.273810 0
1.084507 0.273810 0
1.109155 0.273810 0
1.133803 0.273810 0
1.158451 0.273810 0
1.183099 0.273810 0
1.207746 0.273810 0
1.232394 0.273810 0
1.257042 0.273810 0
1.281690 0.273810 0
1.306338 0.273810 0
1.330986 0.273810 0
1.355634 0.273810 0
1.380282 0.273810 0
1.404930 0.273810 0
1.429577 0.273810 0
1.454225 0.273810 0
1.478873 0.273810 0
1.503521 0.273810 0
1.528169 0.273810 0
1.552817 0.273810 0
1.577465 0.273810 0
1.602113 0.273810 0
1.626761 0.273810 0
1.651408 0.273810 0
1.676056 0.273810 0
1.700704 0.273810 0
1.725352 0.273810 0
1.750000 0.273810 0
1.774648 0.273810 0
1.799296 0.273810 0
1.823944 0.273810 0
1.848592 0.273810 0
1.873239 0.273810 0
1.897887 0.273810 0
1.922535 0.273810 0
1.947183 0.273810 0
1.971831 0.273810 0
1.996479 0.273810 0
2.021127 0.273810 0
2.045775 0.273810 0
2.070423 0.273810 0
2.095070 0.273810 0
2.119718 0.273810 0
2.144366 0.273810 0
2.169014 0.273810 0
2.193662 0.273810 0
2.218310 0.273810 0
2.242958 0.273810 0
2.267606 0.273810 0
2.292254 0.273810 0
2.316901 0.273810 0
2.341549 0.273810 0
2.366197 0.273810 0
2.390845 0.273810 0
2.415493 0.273810 0
2.440141 0.273810 0
2.464789 0.273810 0
2.489437 0.273810 0
2.514085 0.273810 0
2.538732 0.273810 0
2.563380 0.273810 0
2.588028 0.273810 0
2.612676 0.273810 0
2.637324 0.273810 0
2.661972 0.273810 0
2.686620 0.273810 0
2.711268 0.273810 0
2.735915 0.273810 0
2.760563 0.273810 0
2.785211 0.273810 0
2.809859 0.273810 0
2.834507 0.273810 0
2.859155 0.273810 0
2.883803 0.273810 0
2.908451 0.273810 0
2.933099 0.273810 0
2.957746 0.273810 0
2.982394 0.273810 0
3.007042 0.273810 0
3.031690 0.273810 0
3.056338 0.273810 0
3.080986 0.273810 0
3.105634 0.273810 0
3.130282 0.273810 0
3.154930 0.273810 0
3.179577 0.273810 0
3.204225 0.273810 0
3.228873 0.273810 0
3.253521 0.273810 0
3.278169 0.273810 0
3.302817 0.273810 0
3.327465 0.273810 0
3.352113 0.273810 0
3.376761 0.273810 0
3.401408 0.273810 0
3.426056 0.273810 0
3.450704 0.273810 0
3.475352 0.273810 0
0.000000 0.285714 0
0.024648 0.285714 0
0.049296 0.285714 0
0.073944 0.285714 0
0.098592 0.285714 0
0.123239 0.285714 0
0.147887 0.285714 0
0.172535 0.285714 0
0.197183 0.285714 0
0.221831 0.285714 0
0.246479 0.285714 0
0.271127 0.285714 0
0.295775 0.285714 0
0.320423 0.285714 0
0.345070 0.285714 0
0.369718 0.285714 0
0.394366 0.285714 0
0.419014 0.285714 0
0.443662 0.285714 0
0.468310 0.285714 0
0.492958 0.285714 0
0.517606 0.285714 0
0.542254 0.285714 0
0.566901 0.285714 0
0.591549 0.285714 0
0.616197 0.285714 0
0.640845 0.285714 0
0.665493 0.285714 0
0.690141 0.285714 0
0.714789 0.285714 0
0.739437 0.285714 0
0.764085 0.285714 0
0.788732 0.285714 0
0.813380 0.285714 0
0.838028 0.285714 0
0.862676 0.285714 0
0.887324 0.285714 0
0.911972 0.285714 0
0.936620 0.285714 0
0.961268 0.285714 0
0.985915 0.285714 0
1.010563 0.285714 0
1.035211 0.285714 0
1.059859 0.285714 0
1.084507 0.285714 0
1.109155 0.285714 0
1.133803 0.285714 0
1.158451 0.285714 0
1.183099 0.285714 0
1.207746 0.285714 0
1.232394 0.285714 0
1.257042 0.285714 0
1.281690 0.285714 0
1.306338 0.285714 0
1.330986 0.285714 0
1.355634 0.285714 0
1.380282 0.285714 0
1.404930 0.285714 0
1.429577 0.285714 0
1.454225 0.285714 0
1.478873 0.285714 0
1.503521 0.285714 0
1.528169 0.285714 0
1.552817 0.285714 0
1.577465 0.285714 0
[...]
POINT_DATA 5964 

VECTORS velocity float
1.000000 0.000000 0
0.999854 0.000000 0
0.999558 0.000000 0
0.999101 0.000000 0
0.998465 0.000000 0
0.997625 0.000000 0
0.996547 0.000000 0
0.995184 0.000000 0
0.993469 0.000000 0
0.991315 0.000000 0
0.988595 0.000000 0
0.985129 0.000000 0
0.980647 0.000000 0
0.974723 0.000000 0
0.966653 0.000000 0
0.955104 0.000000 0
0.937595 0.000000 0
0.906020 0.000000 0
0.848023 0.000000 0
-0.000000 0.000000 0
-0.000000 0.000000 0
-0.000000 0.000000 0
-0.000000 0.000000 0
-0.000000 0.000000 0
-0.000000 0.000000 0
-0.000000 0.000000 0
-0.000000 0.000000 0
-0.000000 0.000000 0
-0.000000 0.000000 0
-0.000000 0.000000 0
-0.000000 0.000000 0
-0.000001 0.000000 0
-0.000001 0.000000 0
-0.000001 0.000000 0
-0.000001 0.000000 0
-0.000001 0.000000 0
-0.000001 0.000000 0
-0.000001 0.000000 0
-0.000001 0.000000 0
-0.000001 0.000000 0
-0.000002 0.000000 0
-0.000002 0.000000 0
-0.000002 0.000000 0
-0.000003 0.000000 0
-0.000003 0.000000 0
-0.000004 0.000000 0
-0.000004 0.000000 0
-0.000005 0.000000 0
-0.000005 0.000000 0
-0.000005 0.000000 0
-0.000006 0.000000 0
-0.000006 0.000000 0
-0.000006 0.000000 0
-0.000006 0.000000 0
-0.000006 0.000000 0
-0.000006 0.000000 0
-0.000006 0.000000 0
-0.000006 0.000000 0
-0.000006 0.000000 0
-0.000006 0.000000 0
-0.000006 0.000000 0
-0.000006 0.000000 0
-0.000006 0.000000 0
-0.000006 0.000000 0
-0.000006 0.000000 0
-0.000006 0.000000 0
-0.000006 0.000000 0
-0.000005 0.000000 0
-0.000005 0.000000 0
-0.000005 0.000000 0
-0.000005 0.000000 0
-0.000005 0.000000 0
-0.000005 0.000000 0
-0.000005 0.000000 0
-0.000005 0.000000 0
-0.000005 0.000000 0
-0.000005 0.000000 0
-0.000005 0.000000 0
-0.000005 0.000000 0
-0.000005 0.000000 0
-0.000005 0.000000 0
-0.000005 0.000000 0
-0.000005 0.000000 0
-0.000005 0.000000 0
-0.000005 0.000000 0
-0.000005 0.000000 0
-0.000005 0.000000 0
-0.000005 0.000000 0
-0.000005 0.000000 0
-0.000005 0.000000 0
-0.000005 0.000000 0
-0.000005 0.000000 0
-0.000005 0.000000 0
-0.000005 0.000000 0
-0.000005 0.000000 0
-0.000005 0.000000 0
-0.000005 0.000000 0
-0.000005 0.000000 0
-0.000005 0.000000 0
-0.000005 0.000000 0
-0.000005 0.000000 0
-0.000005 0.000000 0
-0.000005 0.000000 0
-0.000005 0.000000 0
-0.000005 0.000000 0
-0.000005 0.000000 0
-0.000005 0.000000 0
-0.000005 0.000000 0
-0.000005 0.000000 0
-0.000005 0.000000 0
-0.000005 0.000000 0
-0.000005 0.000000 0
-0.000005 0.000000 0
-0.000005 0.000000 0
-0.000005 0.000000 0
-0.000005 0.000000 0
-0.000005 0.000000 0
-0.000005 0.000000 0
-0.000005 0.000000 0
-0.000005 0.000000 0
-0.000005 0.000000 0
-0.000005 0.000000 0
-0.000005 0.000000 0
-0.000005 0.000000 0
-0.000005 0.000000 0
-0.000005 0.000000 0
-0.000005 0.000000 0
-0.000005 0.000000 0
-0.000004 0.000000 0
-0.000004 0.000000 0
-0.000004 0.000000 0
-0.000004 0.000000 0
-0.000004 0.000000 0
-0.000004 0.000000 0
-0.000003 0.000000 0
-0.000003 0.000000 0
-0.000002 0.000000 0
-0.000002 0.000000 0
-0.000001 0.000000 0
-0.000000 0.000000 0
-0.000000 0.000000 0
0.496969 0.000000 0
1.000000 0.000035 0
0.999855 0.000107 0
0.999560 0.000182 0
0.999105 0.000264 0
0.998472 0.000356 0
0.997636 0.000463 0
0.996564 0.000590 0
0.995208 0.000743 0
0.993504 0.000934 0
0.991364 0.001177 0
0.988666 0.001494 0
0.985231 0.001919 0
0.980799 0.002513 0
0.974958 0.003379 0
0.967039 0.004738 0
0.955811 0.007017 0
0.939036 0.011854 0
0.910440 0.021631 0
0.861199 0.078835 0
0.715267 0.110956 0
0.576936 0.072746 0
0.473508 0.041070 0
0.401628 0.022626 0
0.351812 0.013288 0
0.316253 0.008652 0
0.289871 0.006169 0
0.269572 0.004680 0
0.253474 0.003697 0
0.240392 0.003002 0
0.229552 0.002489 0
0.220431 0.002096 0
0.212661 0.001788 0
0.205975 0.001541 0
0.200177 0.001338 0
0.195120 0.001170 0
0.190690 0.001027 0
0.186799 0.000904 0
0.183378 0.000797 0
0.180376 0.000701 0
0.177752 0.000614 0
0.175478 0.000534 0
0.173531 0.000457 0
0.171899 0.000382 0
0.170572 0.000308 0
0.169542 0.000235 0
0.168800 0.000162 0
0.168337 0.000091 0
0.168133 0.000026 0
0.168158 -0.000029 0
0.168366 -0.000074 0
0.168713 -0.000108 0
0.169156 -0.000131 0
0.169658 -0.000144 0
0.170184 -0.000148 0
0.170705 -0.000145 0
0.171200 -0.000136 0
0.171654 -0.000124 0
0.172058 -0.000109 0
0.172408 -0.000094 0
0.172703 -0.000079 0
0.172946 -0.000065 0
0.173143 -0.000052 0
0.173298 -0.000041 0
0.173418 -0.000031 0
0.173510 -0.000024 0
0.173578 -0.000018 0
0.173628 -0.000013 0
0.173664 -0.000009 0
0.173689 -0.000006 0
0.173706 -0.000004 0
0.173718 -0.000003 0
0.173726 -0.000002 0
0.173732 -0.000001 0
0.173735 -0.000001 0
0.173738 -0.000000 0
0.173740 -0.000000 0
0.173742 -0.000000 0
0.173744 -0.000000 0
0.173746 -0.000001 0
0.173748 -0.000001 0
0.173751 -0.000001 0
0.173754 -0.000001 0
0.173758 -0.000001 0
0.173763 -0.000001 0
0.173769 -0.000002 0
0.173776 -0.000002 0
0.173783 -0.000003 0
0.173793 -0.000003 0
0.173804 -0.000003 0
0.173816 -0.000004 0
0.173831 -0.000005 0
0.173848 -0.000005 0
0.173868 -0.000006 0
0.173892 -0.000007 0
0.173919 -0.000009 0
0.173950 -0.000010 0
0.173986 -0.000011 0
0.174027 -0.000013 0
0.174076 -0.000015 0
0.174132 -0.000018 0
0.174196 -0.000021 0
0.174271 -0.000024 0
0.174357 -0.000027 0
0.174458 -0.000032 0
0.174573 -0.000037 0
0.174707 -0.000043 0
0.174862 -0.000049 0
0.175042 -0.000057 0
0.175249 -0.000066 0
0.175490 -0.000076 0
0.175768 -0.000088 0
0.176091 -0.000102 0
0.176465 -0.000119 0
0.176899 -0.000138 0
0.177402 -0.000160 0
0.177986 -0.000185 0
0.178664 -0.000216 0
0.179453 -0.000251 0
0.180371 -0.000292 0
0.181441 -0.000341 0
0.182689 -0.000399 0
0.184150 -0.000467 0
0.185861 -0.000549 0
0.187871 -0.000647 0
0.190240 -0.000765 0
0.193041 -0.000910 0
0.196369 -0.001087 0
0.200342 -0.001307 0
0.205116 -0.001584 0
0.210898 -0.001940 0
0.217969 -0.002405 0
0.226720 -0.003030 0
0.237713 -0.003895 0
0.251789 -0.005140 0
0.270264 -0.007029 0
0.295306 -0.010097 0
0.330772 -0.015510 0
0.383851 -0.026758 0
0.471382 -0.049101 0
0.620487 -0.167019 0
0.994267 -0.270347 0
0.994268 -0.135174 0
1.000000 0.000070 0
0.999857 0.000212 0
0.999566 0.000362 0
0.999117 0.000526 0
0.998493 0.000709 0
0.997669 0.000921 0
0.996614 0.001173 0
0.995281 0.001478 0
0.993608 0.001856 0
0.991512 0.002337 0
0.988876 0.002962 0
0.985535 0.003800 0
0.981247 0.004962 0
0.975648 0.006646 0
0.968159 0.009248 0
0.957816 0.013525 0
0.942993 0.021914 0
0.920953 0.037595 0
0.888687 0.094268 0
0.891418 0.137297 0
0.842690 0.116768 0
0.772298 0.084673 0
0.702058 0.058778 0
0.640932 0.041235 0
0.590473 0.029917 0
0.549371 0.022547 0
0.515754 0.017579 0
0.487970 0.014094 0
0.464734 0.011554 0
0.445080 0.009641 0
0.428287 0.008159 0
0.413815 0.006982 0
0.401253 0.006029 0
0.390285 0.005243 0
0.380669 0.004582 0
0.372213 0.004019 0
0.364767 0.003531 0
0.358214 0.003102 0
0.352462 0.002717 0
0.347439 0.002366 0
0.343093 0.002039 0
0.339383 0.001728 0
0.336278 0.001429 0
0.333756 0.001139 0
0.331793 0.000855 0
0.330366 0.000582 0
0.329443 0.000323 0
0.328983 0.000086 0
0.328936 -0.000113 0
0.329223 -0.000268 0
0.329761 -0.000382 0
0.330473 -0.000457 0
0.331291 -0.000496 0
0.332157 -0.000506 0
0.333019 -0.000491 0
0.333842 -0.000459 0
0.334598 -0.000414 0
0.335272 -0.000364 0
0.335856 -0.000311 0
0.336350 -0.000260 0
0.336757 -0.000212 0
0.337087 -0.000170 0
0.337348 -0.000133 0
0.337551 -0.000102 0
0.337706 -0.000077 0
0.337822 -0.000057 0
0.337907 -0.000041 0
0.337970 -0.000029 0
0.338014 -0.000021 0
0.338046 -0.000014 0
0.338068 -0.000010 0
0.338083 -0.000006 0
0.338094 -0.000004 0
0.338102 -0.000003 0
0.338108 -0.000002 0
0.338113 -0.000002 0
0.338117 -0.000002 0
0.338121 -0.000002 0
0.338125 -0.000002 0
0.338130 -0.000002 0
0.338135 -0.000003 0
0.338141 -0.000004 0
0.338148 -0.000004 0
0.338156 -0.000005 0
0.338166 -0.000006 0
0.338177 -0.000007 0
0.338190 -0.000008 0
0.338205 -0.000010 0
0.338222 -0.000011 0
0.338243 -0.000013 0
0.338266 -0.000015 0
0.338294 -0.000018 0
0.338326 -0.000021 0
0.338363 -0.000024 0
0.338406 -0.000028 0
0.338456 -0.000032 0
0.338514 -0.000038 0
0.338581 -0.000043 0
0.338658 -0.000050 0
0.338747 -0.000058 0
0.338851 -0.000067 0
0.338971 -0.000078 0
0.339109 -0.000090 0
0.339270 -0.000104 0
0.339455 -0.000121 0
0.339670 -0.000140 0
0.339919 -0.000162 0
0.340206 -0.000187 0
0.340539 -0.000216 0
0.340925 -0.000251 0
0.341372 -0.000290 0
0.341890 -0.000336 0
0.342490 -0.000390 0
0.343185 -0.000452 0
0.343992 -0.000525 0
0.344929 -0.000610 0
0.346016 -0.000709 0
0.347280 -0.000824 0
0.348751 -0.000960 0
0.350464 -0.001120 0
0.352462 -0.001309 0
0.354795 -0.001532 0
0.357525 -0.001797 0
0.360727 -0.002115 0
0.364492 -0.002497 0
0.368932 -0.002960 0
0.374190 -0.003526 0
0.380443 -0.004225 0
0.387921 -0.005099 0
0.396923 -0.006208 0
0.407846 -0.007642 0
0.421233 -0.009536 0
0.437840 -0.012108 0
0.458755 -0.015722 0
0.485601 -0.021018 0
0.520874 -0.029225 0
0.568605 -0.042767 0
0.635291 -0.067914 0
0.732147 -0.114293 0
0.874652 -0.252550 0
0.995047 -0.361066 0
0.995047 -0.180533 0
1.000000 0.000104 0
0.999860 0.000316 0
0.999576 0.000540 0
0.999137 0.000783 0
0.998527 0.001055 0
0.997724 0.001370 0
0.996696 0.001743 0
0.995400 0.002195 0
0.993778 0.002755 0
0.991753 0.003463 0
0.989219 0.004381 0
0.986027 0.005604 0
0.981970 0.007288 0
0.976747 0.009701 0
0.969914 0.013350 0
0.960838 0.019172 0
0.948635 0.029658 0
0.933282 0.047861 0
0.915397 0.093100 0
0.945735 0.133172 0
0.949158 0.130280 0
0.923630 0.108994 0
0.882863 0.086074 0
0.837695 0.067183 0
0.793905 0.052876 0
0.753874 0.042258 0
0.718240 0.034336 0
0.686873 0.028339 0
0.659363 0.023718 0
0.635231 0.020092 0
0.614021 0.017197 0
0.595327 0.014846 0
0.578806 0.012906 0
0.564171 0.011280 0
0.551185 0.009899 0
0.539653 0.008707 0
0.529416 0.007665 0
0.520346 0.006740 0
0.512338 0.005905 0
0.505310 0.005139 0
0.499197 0.004425 0
0.493950 0.003748 0
0.489526 0.003100 0
0.485891 0.002474 0
0.483009 0.001872 0
0.480842 0.001297 0
0.479340 0.000759 0
0.478446 0.000271 0
0.478094 -0.000145 0
0.478209 -0.000472 0
0.478683 -0.000711 0
0.479416 -0.000870 0
0.480319 -0.000957 0
0.481314 -0.000982 0
0.482335 -0.000958 0
0.483330 -0.000899 0
0.484261 -0.000814 0
0.485103 -0.000717 0
0.485843 -0.000615 0
0.486476 -0.000514 0
0.487005 -0.000421 0
0.487437 -0.000337 0
0.487783 -0.000265 0
0.488055 -0.000204 0
0.488265 -0.000155 0
0.488424 -0.000115 0
0.488543 -0.000084 0
0.488631 -0.000061 0
0.488695 -0.000043 0
0.488742 -0.000030 0
0.488775 -0.000021 0
0.488800 -0.000015 0
0.488818 -0.000010 0
0.488831 -0.000007 0
0.488841 -0.000006 0
0.488849 -0.000005 0
0.488856 -0.000004 0
0.488863 -0.000004 0
0.488869 -0.000005 0
0.488876 -0.000005 0
0.488883 -0.000006 0
0.488890 -0.000007 0
0.488899 -0.000008 0
0.488909 -0.000010 0
0.488921 -0.000012 0
0.488934 -0.000014 0
0.488950 -0.000016 0
0.488968 -0.000019 0
0.488989 -0.000022 0
0.489014 -0.000025 0
0.489042 -0.000030 0
0.489074 -0.000034 0
0.489112 -0.000040 0
0.489156 -0.000046 0
0.489207 -0.000053 0
0.489266 -0.000062 0
0.489335 -0.000072 0
0.489414 -0.000083 0
0.489505 -0.000096 0
0.489611 -0.000111 0
0.489733 -0.000128 0
0.489875 -0.000149 0
0.490039 -0.000172 0
0.490229 -0.000199 0
0.490448 -0.000230 0
0.490703 -0.000266 0
0.490997 -0.000308 0
0.491338 -0.000357 0
0.491732 -0.000413 0
0.492189 -0.000478 0
0.492718 -0.000554 0
0.493330 -0.000642 0
0.494040 -0.000744 0
0.494863 -0.000863 0
0.495818 -0.001002 0
0.496925 -0.001163 0
0.498211 -0.001351 0
0.499704 -0.001572 0
0.501440 -0.001830 0
0.503460 -0.002133 0
0.505813 -0.002491 0
0.508559 -0.002913 0
0.511766 -0.003414 0
0.515520 -0.004012 0
0.519923 -0.004729 0
0.525103 -0.005594 0
0.531213 -0.006646 0
0.538449 -0.007939 0
0.547057 -0.009544 0
0.557351 -0.011563 0
0.569740 -0.014147 0
0.584766 -0.017517 0
0.603160 -0.022018 0
0.625926 -0.028209 0
0.654467 -0.037032 0
0.690768 -0.050188 0
0.737617 -0.070773 0
0.798610 -0.105747 0
0.876601 -0.164711 0
0.970571 -0.293998 0
0.995954 -0.386643 0
0.995954 -0.193320 0
1.000000 0.000138 0
0.999864 0.000417 0
0.999589 0.000712 0
0.999164 0.001032 0
0.998574 0.001391 0
0.997799 0.001806 0
0.996809 0.002295 0
0.995564 0.002887 0
0.994011 0.003618 0
0.992082 0.004539 0
0.989683 0.005728 0
0.986691 0.007301 0
0.982935 0.009444 0
0.978191 0.012469 0
0.972165 0.016932 0
0.964542 0.023803 0
0.955105 0.035223 0
0.945266 0.053648 0
0.937572 0.088253 0
0.966090 0.120991 0
0.988377 0.127444 0
0.990709 0.116693 0
0.976585 0.100285 0
0.952777 0.084202 0
0.924526 0.070402 0
0.895054 0.059092 0
0.866149 0.049941 0
0.838728 0.042531 0
0.813210 0.036497 0
0.789731 0.031541 0
0.768276 0.027432 0
0.748755 0.023991 0
0.731040 0.021077 0
0.714996 0.018583 0
0.700490 0.016424 0
0.687399 0.014534 0
0.675617 0.012857 0
0.665049 0.011351 0
0.655615 0.009980 0
0.647249 0.008713 0
0.639897 0.007526 0
0.633513 0.006400 0
0.628056 0.005322 0
0.623490 0.004286 0
0.619775 0.003294 0
0.616868 0.002354 0
0.614715 0.001480 0
0.613248 0.000688 0
0.612391 0.000001 0
0.612089 -0.000552 0
0.612241 -0.000964 0
0.612741 -0.001247 0
0.613490 -0.001413 0
0.614398 -0.001479 0
0.615388 -0.001464 0
0.616396 -0.001389 0
0.617373 -0.001271 0
0.618283 -0.001128 0
0.619103 -0.000974 0
0.619820 -0.000821 0
0.620432 -0.000677 0
0.620943 -0.000546 0
0.621359 -0.000432 0
0.621692 -0.000335 0
0.621954 -0.000255 0
0.622156 -0.000191 0
0.622310 -0.000141 0
0.622426 -0.000103 0
0.622513 -0.000074 0
0.622577 -0.000053 0
0.622624 -0.000038 0
0.622659 -0.000027 0
0.622686 -0.000019 0
0.622705 -0.000014 0
0.622721 -0.000011 0
0.622733 -0.000009 0
0.622744 -0.000008 0
0.622753 -0.000008 0
0.622761 -0.000008 0
0.622770 -0.000009 0
0.622778 -0.000010 0
0.622788 -0.000012 0
0.622798 -0.000013 0
0.622809 -0.000016 0
0.622822 -0.000018 0
0.622836 -0.000021 0
0.622853 -0.000025 0
0.622872 -0.000029 0
0.622894 -0.000033 0
0.622920 -0.000039 0
0.622949 -0.000045 0
0.622983 -0.000052 0
0.623023 -0.000060 0
0.623069 -0.000070 0
0.623122 -0.000081 0
0.623183 -0.000094 0
0.623254 -0.000109 0
0.623336 -0.000126 0
0.623432 -0.000146 0
0.623542 -0.000168 0
0.623669 -0.000195 0
0.623817 -0.000226 0
0.623987 -0.000261 0
0.624185 -0.000302 0
0.624413 -0.000350 0
0.624677 -0.000405 0
0.624984 -0.000468 0
0.625338 -0.000542 0
0.625748 -0.000628 0
0.626223 -0.000727 0
0.626773 -0.000842 0
0.627410 -0.000975 0
0.628148 -0.001130 0
0.629003 -0.001311 0
0.629994 -0.001521 0
0.631144 -0.001765 0
0.632478 -0.002051 0
0.634026 -0.002384 0
0.635824 -0.002774 0
0.637915 -0.003232 0
0.640348 -0.003771 0
0.643182 -0.004407 0
0.646487 -0.005160 0
0.650347 -0.006055 0
0.654865 -0.007126 0
0.660162 -0.008413 0
0.666389 -0.009972 0
0.673731 -0.011877 0
0.682417 -0.014228 0
0.692734 -0.017164 0
0.705049 -0.020883 0
0.719827 -0.025678 0
0.737672 -0.031988 0
0.759365 -0.040503 0
0.785913 -0.052337 0
0.818562 -0.069386 0
0.858672 -0.094854 0
0.907139 -0.135042 0
0.961424 -0.197350 0
1.012543 -0.310196 0
0.996825 -0.385580 0
0.996825 -0.192787 0
1.000000 0.000170 0
0.999870 0.000515 0
0.999605 0.000878 0
0.999198 0.001272 0
0.998634 0.001714 0
0.997894 0.002223 0
0.996950 0.002823 0
0.995768 0.003546 0
0.994301 0.004436 0
0.992490 0.005553 0
0.990257 0.006985 0
0.987502 0.008864 0
0.984100 0.011394 0
0.979904 0.014903 0
0.974761 0.019943 0
0.968623 0.027412 0
0.961752 0.038969 0
0.956069 0.056329 0
0.954769 0.083042 0
0.977033 0.108633 0
1.002164 0.118389 0
1.016932 0.114689 0
1.019403 0.104395 0
1.012310 0.092328 0
0.998953 0.080756 0
0.981920 0.070454 0
0.962994 0.061541 0
0.943351 0.053908 0
0.923751 0.047383 0
0.904671 0.041795 0
0.886407 0.036988 0
0.869126 0.032831 0
0.852915 0.029211 0
0.837810 0.026036 0
0.823814 0.023227 0
0.810911 0.020721 0
0.799075 0.018460 0
0.788276 0.016401 0
0.778486 0.014502 0
0.769676 0.012731 0
0.761818 0.011060 0
0.754887 0.009468 0
0.748858 0.007941 0
0.743705 0.006474 0
0.739394 0.005070 0
0.735889 0.003742 0
0.733141 0.002508 0
0.731092 0.001393 0
0.729669 0.000414 0
0.728810 -0.000399 0
0.728466 -0.001026 0
0.728538 -0.001473 0
0.728932 -0.001757 0
0.729560 -0.001899 0
0.730342 -0.001924 0
0.731206 -0.001857 0
0.732094 -0.001726 0
0.732962 -0.001552 0
0.733774 -0.001357 0
0.734511 -0.001157 0
0.735158 -0.000963 0
0.735713 -0.000785 0
0.736178 -0.000627 0
0.736560 -0.000492 0
0.736866 -0.000379 0
0.737109 -0.000287 0
0.737298 -0.000215 0
0.737444 -0.000158 0
0.737554 -0.000116 0
0.737638 -0.000084 0
0.737701 -0.000061 0
0.737749 -0.000044 0
0.737785 -0.000032 0
0.737812 -0.000024 0
0.737834 -0.000019 0
0.737851 -0.000016 0
0.737865 -0.000014 0
0.737877 -0.000013 0
0.737888 -0.000013 0
0.737899 -0.000014 0
0.737909 -0.000015 0
0.737919 -0.000017 0
0.737930 -0.000019 0
0.737942 -0.000022 0
0.737955 -0.000025 0
0.737970 -0.000029 0
0.737986 -0.000033 0
0.738005 -0.000039 0
0.738027 -0.000045 0
0.738052 -0.000052 0
0.738081 -0.000060 0
0.738114 -0.000070 0
0.738153 -0.000081 0
0.738197 -0.000094 0
0.738249 -0.000109 0
0.738308 -0.000126 0
0.738377 -0.000146 0
0.738456 -0.000169 0
0.738548 -0.000195 0
0.738655 -0.000226 0
0.738778 -0.000261 0
0.738921 -0.000302 0
0.739086 -0.000350 0
0.739277 -0.000405 0
0.739498 -0.000468 0
0.739754 -0.000542 0
0.740049 -0.000627 0
0.740392 -0.000726 0
0.740788 -0.000841 0
0.741247 -0.000973 0
0.741779 -0.001127 0
0.742394 -0.001306 0
0.743106 -0.001514 0
0.743932 -0.001755 0
0.744888 -0.002036 0
0.745996 -0.002363 0
0.747281 -0.002743 0
0.748772 -0.003188 0
0.750502 -0.003708 0
0.752511 -0.004318 0
0.754845 -0.005034 0
0.757561 -0.005878 0
0.760722 -0.006875 0
0.764406 -0.008059 0
0.768706 -0.009469 0
0.773733 -0.011160 0
0.779620 -0.013200 0
0.786529 -0.015680 0
0.794657 -0.018722 0
0.804245 -0.022495 0
0.815588 -0.027232 0
0.829050 -0.033273 0
0.845074 -0.041115 0
0.864186 -0.051509 0
0.886976 -0.065623 0
0.913994 -0.085330 0
0.945426 -0.113555 0
0.980271 -0.155376 0
1.013419 -0.215621 0
1.034002 -0.311096 0
0.997597 -0.371453 0
0.997597 -0.185722 0
1.000000 0.000201 0
0.999876 0.000608 0
0.999625 0.001036 0
0.999239 0.001501 0
0.998705 0.002021 0
0.998006 0.002619 0
0.997117 0.003322 0
0.996009 0.004167 0
0.994642 0.005201 0
0.992967 0.006493 0
0.990922 0.008137 0
0.988435 0.010274 0
0.985423 0.013114 0
0.981809 0.016980 0
0.977564 0.022381 0
0.972832 0.030086 0
0.968164 0.041286 0
0.965480 0.057021 0
0.967812 0.078127 0
0.985091 0.098099 0
1.007581 0.108174 0
1.025832 0.108367 0
1.036371 0.102517 0
1.039524 0.094079 0
1.036882 0.085080 0
1.030078 0.076460 0
1.020434 0.068569 0
1.008948 0.061485 0
0.996356 0.055179 0
0.983198 0.049578 0
0.969868 0.044601 0
0.956650 0.040167 0
0.943750 0.036202 0
0.931313 0.032639 0
0.919441 0.029417 0
0.908207 0.026483 0
0.897658 0.023789 0
0.887830 0.021295 0
0.878744 0.018964 0
0.870414 0.016763 0
0.862849 0.014668 0
0.856052 0.012659 0
0.850018 0.010723 0
0.844739 0.008858 0
0.840199 0.007069 0
0.836373 0.005374 0
0.833231 0.003796 0
0.830730 0.002365 0
0.828819 0.001103 0
0.827435 0.000029 0
0.826549 -0.000833 0
0.826108 -0.001472 0
0.826036 -0.001907 0
0.826256 -0.002160 0
0.826695 -0.002259 0
0.827284 -0.002235 0
0.827963 -0.002119 0
0.828680 -0.001939 0
0.829393 -0.001723 0
0.830071 -0.001490 0
0.830694 -0.001258 0
0.831247 -0.001038 0
0.831727 -0.000840 0
0.832133 -0.000667 0
0.832468 -0.000521 0
0.832741 -0.000400 0
0.832959 -0.000303 0
0.833131 -0.000227 0
0.833265 -0.000168 0
0.833368 -0.000124 0
0.833447 -0.000091 0
0.833508 -0.000067 0
0.833555 -0.000050 0
0.833591 -0.000038 0
0.833619 -0.000030 0
0.833642 -0.000024 0
0.833660 -0.000021 0
0.833676 -0.000019 0
0.833689 -0.000019 0
0.833701 -0.000019 0
0.833713 -0.000020 0
0.833724 -0.000022 0
0.833736 -0.000024 0
0.833748 -0.000028 0
0.833761 -0.000032 0
0.833775 -0.000036 0
0.833791 -0.000042 0
0.833809 -0.000048 0
0.833830 -0.000056 0
0.833853 -0.000065 0
0.833880 -0.000075 0
0.833911 -0.000087 0
0.833947 -0.000100 0
0.833988 -0.000116 0
0.834036 -0.000135 0
0.834091 -0.000156 0
0.834154 -0.000180 0
0.834228 -0.000209 0
0.834313 -0.000241 0
0.834411 -0.000279 0
0.834525 -0.000323 0
0.834657 -0.000374 0
0.834809 -0.000433 0
0.834985 -0.000501 0
0.835189 -0.000580 0
0.835424 -0.000671 0
0.835697 -0.000777 0
0.836013 -0.000899 0
0.836378 -0.001041 0
0.836801 -0.001205 0
0.837290 -0.001396 0
0.837856 -0.001617 0
0.838512 -0.001873 0