# vtk DataFile Version 2.0
generated by CFD-lab course output (written by Tobias Neckel) 
ASCII

DATASET STRUCTURED_GRID
DIMENSIONS  142 42 1 
POINTS 5964 float

0.000000 0.250000 0
0.024648 0.250000 0
0.049296 0.250000 0
0.073944 0.250000 0
0.098592 0.250000 0
0.123239 0.250000 0
0.147887 0.250000 0
0.172535 0.250000 0
0.197183 0.250000 0
0.221831 0.250000 0
0.246479 0.250000 0
0.271127 0.250000 0
0.295775 0.250000 0
0.320423 0.250000 0
0.345070 0.250000 0
0.369718 0.250000 0
0.394366 0.250000 0
0.419014 0.250000 0
0.443662 0.250000 0
0.468310 0.250000 0
0.492958 0.250000 0
0.517606 0.250000 0
0.542254 0.250000 0
0.566901 0.250000 0
0.591549 0.250000 0
0.616197 0.250000 0
0.640845 0.250000 0
0.665493 0.250000 0
0.690141 0.250000 0
0.714789 0.250000 0
0.739437 0.250000 0
0.764085 0.250000 0
0.788732 0.250000 0
0.813380 0.250000 0
0.838028 0.250000 0
0.862676 0.250000 0
0.887324 0.250000 0
0.911972 0.250000 0
0.936620 0.250000 0
0.961268 0.250000 0
0.985915 0.250000 0
1.010563 0.250000 0
1.035211 0.250000 0
1.059859 0.250000 0
1.084507 0.250000 0
1.109155 0.250000 0
1.133803 0.250000 0
1.158451 0.250000 0
1.183099 0.250000 0
1.207746 0.250000 0
1.232394 0.250000 0
1.257042 0.250000 0
1.281690 0.250000 0
1.306338 0.250000 0
1.330986 0.250000 0
1.355634 0.250000 0
1.380282 0.250000 0
1.404930 0.250000 0
1.429577 0.250000 0
1.454225 0.250000 0
1.478873 0.250000 0
1.503521 0.250000 0
1.528169 0.250000 0
1.552817 0.250000 0
1.577465 0.250000 0
1.602113 0.250000 0
1.626761 0.250000 0
1.651408 0.250000 0
1.676056 0.250000 0
1.700704 0.250000 0
1.725352 0.250000 0
1.750000 0.250000 0
1.774648 0.250000 0
1.799296 0.250000 0
1.823944 0.250000 0
1.848592 0.250000 0
1.873239 0.250000 0
1.897887 0.250000 0
1.922535 0.250000 0
1.947183 0.250000 0
1.971831 0.250000 0
1.996479 0.250000 0
2.021127 0.250000 0
2.045775 0.250000 0
2.070423 0.250000 0
2.095070 0.250000 0
2.119718 0.250000 0
2.144366 0.250000 0
2.169014 0.250000 0
2.193662 0.250000 0
2.218310 0.250000 0
2.242958 0.250000 0
2.267606 0.250000 0
2.292254 0.250000 0
2.316901 0.250000 0
2.341549 0.250000 0
2.366197 0.250000 0
2.390845 0.250000 0
2.415493 0.250000 0
2.440141 0.250000 0
2.464789 0.250000 0
2.489437 0.250000 0
2.514085 0.250000 0
2.538732 0.250000 0
2.563380 0.250000 0
2.588028 0.250000 0
2.612676 0.250000 0
2.637324 0.250000 0
2.661972 0.250000 0
2.686620 0.250000 0
2.711268 0.250000 0
2.735915 0.250000 0
2.760563 0.250000 0
2.785211 0.250000 0
2.809859 0.250000 0
2.834507 0.250000 0
2.859155 0.250000 0
2.883803 0.250000 0
2.908451 0.250000 0
2.933099 0.250000 0
2.957746 0.250000 0
2.982394 0.250000 0
3.007042 0.250000 0
3.031690 0.250000 0
3.056338 0.250000 0
3.080986 0.250000 0
3.105634 0.250000 0
3.130282 0.250000 0
3.154930 0.250000 0
3.179577 0.250000 0
3.204225 0.250000 0
3.228873 0.250000 0
3.253521 0.250000 0
3.278169 0.250000 0
3.302817 0.250000 0
3.327465 0.250000 0
3.352113 0.250000 0
3.376761 0.250000 0
3.401408 0.250000 0
3.426056 0.250000 0
3.450704 0.250000 0
3.475352 0.250000 0
0.000000 0.261905 0
0.024648 0.261905 0
0.049296 0.261905 0
0.073944 0.261905 0
0.098592 0.261905 0
0.123239 0.261905 0
0.147887 0.261905 0
0.172535 0.261905 0
0.197183 0.261905 0
0.221831 0.261905 0
0.246479 0.261905 0
0.271127 0.261905 0
0.295775 0.261905 0
0.320423 0.261905 0
0.345070 0.261905 0
0.369718 0.261905 0
0.394366 0.261905 0
0.419014 0.261905 0
0.443662 0.261905 0
0.468310 0.261905 0
0.492958 0.261905 0
0.517606 0.261905 0
0.542254 0.261905 0
0.566901 0.261905 0
0.591549 0.261905 0
0.616197 0.261905 0
0.640845 0.261905 0
0.665493 0.261905 0
0.690141 0.261905 0
0.714789 0.261905 0
0.739437 0.261905 0
0.764085 0.261905 0
0.788732 0.261905 0
0.813380 0.261905 0
0.838028 0.261905 0
0.862676 0.261905 0
0.887324 0.261905 0
0.911972 0.261905 0
0.936620 0.261905 0
0.961268 0.261905 0
0.985915 0.261905 0
1.010563 0.261905 0
1.035211 0.261905 0
1.059859 0.261905 0
1.084507 0.261905 0
1.109155 0.261905 0
1.133803 0.261905 0
1.158451 0.261905 0
1.183099 0.261905 0
1.207746 0.261905 0
1.232394 0.261905 0
1.257042 0.261905 0
1.281690 0.261905 0
1.306338 0.261905 0
1.330986 0.261905 0
1.355634 0.261905 0
1.380282 0.261905 0
1.404930 0.261905 0
1.429577 0.261905 0
1.454225 0.261905 0
1.478873 0.261905 0
1.503521 0.261905 0
1.528169 0.261905 0
1.552817 0.261905 0
1.577465 0.261905 0
1.602113 0.261905 0
1.626761 0.261905 0
1.651408 0.261905 0
1.676056 0.261905 0
1.700704 0.261905 0
1.725352 0.261905 0
1.750000 0.261905 0
1.774648 0.261905 0
1.799296 0.261905 0
1.823944 0.261905 0
1.848592 0.261905 0
1.873239 0.261905 0
1.897887 0.261905 0
1.922535 0.261905 0
1.947183 0.261905 0
1.971831 0.261905 0
1.996479 0.261905 0
2.021127 0.261905 0
2.045775 0.261905 0
2.070423 0.261905 0
2.095070 0.261905 0
2.119718 0.261905 0
2.144366 0.261905 0
2.169014 0.261905 0
2.193662 0.261905 0
2.218310 0.261905 0
2.242958 0.261905 0
2.267606 0.261905 0
2.292254 0.261905 0
2.316901 0.261905 0
2.341549 0.261905 0
2.366197 0.261905 0
2.390845 0.261905 0
2.415493 0.261905 0
2.440141 0.261905 0
2.464789 0.261905 0
2.489437 0.261905 0
2.514085 0.261905 0
2.538732 0.261905 0
2.563380 0.261905 0
2.588028 0.261905 0
2.612676 0.261905 0
2.637324 0.261905 0
2.661972 0.261905 0
2.686620 0.261905 0
2.711268 0.261905 0
2.735915 0.261905 0
2.760563 0.261905 0
2.785211 0.261905 0
2.809859 0.261905 0
2.834507 0.261905 0
2.859155 0.261905 0
2.883803 0.261905 0
2.908451 0.261905 0
2.933099 0.261905 0
2.957746 0.261905 0
2.982394 0.261905 0
3.007042 0.261905 0
3.031690 0.261905 0
3.056338 0.261905 0
3.080986 0.261905 0
3.105634 0.261905 0
3.130282 0.261905 0
3.154930 0.261905 0
3.179577 0.261905 0
3.204225 0.261905 0
3.228873 0.261905 0
3.253521 0.261905 0
3.278169 0.261905 0
3.302817 0.261905 0
3.327465 0.261905 0
3.352113 0.261905 0
3.376761 0.261905 0
3.401408 0.261905 0
3.426056 0.261905 0
3.450704 0.261905 0
3.475352 0.261905 0
0.000000 0.273810 0
0.024648 0.273810 0
0.049296 0.273810 0
0.073944 0.273810 0
0.098592 0.273810 0
0.123239 0.273810 0
0.147887 0.273810 0
0.172535 0.273810 0
0.197183 0.273810 0
0.221831 0.273810 0
0.246479 0.273810 0
0.271127 0.273810 0
0.295775 0.273810 0
0.320423 0.273810 0
0.345070 0.273810 0
0.369718 0.273810 0
0.394366 0.273810 0
0.419014 0.273810 0
0.443662 0.273810 0
0.468310 0.273810 0
0.492958 0.273810 0
0.517606 0.273810 0
0.542254 0.273810 0
0.566901 0.273810 0
0.591549 0.273810 0
0.616197 0.273810 0
0.640845 0.273810 0
0.665493 0.273810 0
0.690141 0.273810 0
0.714789 0.273810 0
0.739437 0.273810 0
0.764085 0.273810 0
0.788732 0.273810 0
0.813380 0.273810 0
0.838028 0.273810 0
0.862676 0.273810 0
0.887324 0.273810 0
0.911972 0.273810 0
0.936620 0.273810 0
0.961268 0.273810 0
0.985915 0.273810 0
1.010563 0.273810 0
1.035211 0.273810 0
1.059859 0.273810 0
1.084507 0.273810 0
1.109155 0.273810 0
1.133803 0.273810 0
1.158451 0.273810 0
1.183099 0.273810 0
1.207746 0.273810 0
1.232394 0.273810 0
1.257042 0.273810 0
1.281690 0.273810 0
1.306338 0.273810 0
1.330986 0.273810 0
1.355634 0.273810 0
1.380282 0.273810 0
1.404930 0.273810 0
1.429577 0.273810 0
1.454225 0.273810 0
1.478873 0.273810 0
1.503521 0.273810 0
1.528169 0.273810 0
1.552817 0.273810 0
1.577465 0.273810 0
1.602113 0.273810 0
1.626761 0.273810 0
1.651408 0.273810 0
1.676056 0.273810 0
1.700704 0.273810 0
1.725352 0.273810 0
1.750000 0.273810 0
1.774648 0.273810 0
1.799296 0.273810 0
1.823944 0.273810 0
1.848592 0.273810 0
1.873239 0.273810 0
1.897887 0.273810 0
1.922535 0.273810 0
1.947183 0.273810 0
1.971831 0.273810 0
1.996479 0.273810 0
2.021127 0.273810 0
2.045775 0.273810 0
2.070423 0.273810 0
2.095070 0.273810 0
2.119718 0.273810 0
2.144366 0.273810 0
2.169014 0.273810 0
2.193662 0.273810 0
2.218310 0.273810 0
2.242958 0.273810 0
2.267606 0.273810 0
2.292254 0.273810 0
2.316901 0.273810 0
2.341549 0.273810 0
2.366197 0.273810 0
2.390845 0.273810 0
2.415493 0.273810 0
2.440141 0.273810 0
2.464789 0.273810 0
2.489437 0.273810 0
2.514085 0.273810 0
2.538732 0.273810 0
2.563380 0.273810 0
2.588028 0.273810 0
2.612676 0.273810 0
2.637324 0.273810 0
2.661972 0.273810 0
2.686620 0.273810 0
2.711268 0.273810 0
2.735915 0.273810 0
2.760563 0.273810 0
2.785211 0.273810 0
2.809859 0.273810 0
2.834507 0.273810 0
2.859155 0.273810 0
2.883803 0.273810 0
2.908451 0.273810 0
2.933099 0.273810 0
2.957746 0.273810 0
2.982394 0.273810 0
3.007042 0.273810 0
3.031690 0.273810 0
3.056338 0.273810 0
3.080986 0.273810 0
3.105634 0.273810 0
3.130282 0.273810 0
3.154930 0.273810 0
3.179577 0.273810 0
3.204225 0.273810 0
3.228873 0.273810 0
3.253521 0.273810 0
3.278169 0.273810 0
3.302817 0.273810 0
3.327465 0.273810 0
3.352113 0.273810 0
3.376761 0.273810 0
3.401408 0.273810 0
3.426056 0.273810 0
3.450704 0.273810 0
3.475352 0.273810 0
0.000000 0.285714 0
0.024648 0.285714 0
0.049296 0.285714 0
0.073944 0.285714 0
0.098592 0.285714 0
0.123239 0.285714 0
0.147887 0.285714 0
0.172535 0.285714 0
0.197183 0.285714 0
0.221831 0.285714 0
0.246479 0.285714 0
0.271127 0.285714 0
0.295775 0.285714 0
0.320423 0.285714 0
0.345070 0.285714 0
0.369718 0.285714 0
0.394366 0.285714 0
0.419014 0.285714 0
0.443662 0.285714 0
0.468310 0.285714 0
0.492958 0.285714 0
0.517606 0.285714 0
0.542254 0.285714 0
0.566901 0.285714 0
0.591549 0.285714 0
0.616197 0.285714 0
0.640845 0.285714 0
0.665493 0.285714 0
0.690141 0.285714 0
0.714789 0.285714 0
0.739437 0.285714 0
0.764085 0.285714 0
0.788732 0.285714 0
0.813380 0.285714 0
0.838028 0.285714 0
0.862676 0.285714 0
0.887324 0.285714 0
0.911972 0.285714 0
0.936620 0.285714 0
0.961268 0.285714 0
0.985915 0.285714 0
1.010563 0.285714 0
1.035211 0.285714 0
1.059859 0.285714 0
1.084507 0.285714 0
1.109155 0.285714 0
1.133803 0.285714 0
1.158451 0.285714 0
1.183099 0.285714 0
1.207746 0.285714 0
1.232394 0.285714 0
1.257042 0.285714 0
1.281690 0.285714 0
1.306338 0.285714 0
1.330986 0.285714 0
1.355634 0.285714 0
1.380282 0.285714 0
1.404930 0.285714 0
1.429577 0.285714 0
1.454225 0.285714 0
1.478873 0.285714 0
1.503521 0.285714 0
1.528169 0.285714 0
1.552817 0.285714 0
1.577465 0.285714 0
[...]
POINT_DATA 5964 

VECTORS velocity float
1.000000 0.000000 0
0.999860 0.000000 0
0.999576 0.000000 0
0.999137 0.000000 0
0.998528 0.000000 0
0.997722 0.000000 0
0.996685 0.000000 0
0.995369 0.000000 0
0.993707 0.000000 0
0.991616 0.000000 0
0.988979 0.000000 0
0.985634 0.000000 0
0.981336 0.000000 0
0.975691 0.000000 0
0.968029 0.000000 0
0.957055 0.000000 0
0.940346 0.000000 0
0.909789 0.000000 0
0.853376 0.000000 0
-0.000007 0.000000 0
-0.000007 0.000000 0
-0.000007 0.000000 0
-0.000008 0.000000 0
-0.000009 0.000000 0
-0.000012 0.000000 0
-0.000016 0.000000 0
-0.000021 0.000000 0
-0.000028 0.000000 0
-0.000034 0.000000 0
-0.000038 0.000000 0
-0.000040 0.000000 0
-0.000041 0.000000 0
-0.000041 0.000000 0
-0.000040 0.000000 0
-0.000039 0.000000 0
-0.000038 0.000000 0
-0.000038 0.000000 0
-0.000037 0.000000 0
-0.000037 0.000000 0
-0.000037 0.000000 0
-0.000037 0.000000 0
-0.000036 0.000000 0
-0.000036 0.000000 0
-0.000036 0.000000 0
-0.000036 0.000000 0
-0.000036 0.000000 0
-0.000036 0.000000 0
-0.000036 0.000000 0
-0.000036 0.000000 0
-0.000036 0.000000 0
-0.000036 0.000000 0
-0.000036 0.000000 0
-0.000036 0.000000 0
-0.000036 0.000000 0
-0.000036 0.000000 0
-0.000036 0.000000 0
-0.000036 0.000000 0
-0.000036 0.000000 0
-0.000036 0.000000 0
-0.000036 0.000000 0
-0.000036 0.000000 0
-0.000036 0.000000 0
-0.000036 0.000000 0
-0.000036 0.000000 0
-0.000036 0.000000 0
-0.000036 0.000000 0
-0.000036 0.000000 0
-0.000036 0.000000 0
-0.000036 0.000000 0
-0.000036 0.000000 0
-0.000036 0.000000 0
-0.000036 0.000000 0
-0.000036 0.000000 0
-0.000036 0.000000 0
-0.000036 0.000000 0
-0.000036 0.000000 0
-0.000036 0.000000 0
-0.000036 0.000000 0
-0.000036 0.000000 0
-0.000036 0.000000 0
-0.000036 0.000000 0
-0.000036 0.000000 0
-0.000036 0.000000 0
-0.000036 0.000000 0
-0.000036 0.000000 0
-0.000036 0.000000 0
-0.000036 0.000000 0
-0.000036 0.000000 0
-0.000036 0.000000 0
-0.000036 0.000000 0
-0.000036 0.000000 0
-0.000036 0.000000 0
-0.000036 0.000000 0
-0.000036 0.000000 0
-0.000036 0.000000 0
-0.000036 0.000000 0
-0.000036 0.000000 0
-0.000036 0.000000 0
-0.000036 0.000000 0
-0.000036 0.000000 0
-0.000036 0.000000 0
-0.000036 0.000000 0
-0.000036 0.000000 0
-0.000036 0.000000 0
-0.000036 0.000000 0
-0.000036 0.000000 0
-0.000036 0.000000 0
-0.000036 0.000000 0
-0.000036 0.000000 0
-0.000036 0.000000 0
-0.000036 0.000000 0
-0.000036 0.000000 0
-0.000036 0.000000 0
-0.000036 0.000000 0
-0.000036 0.000000 0
-0.000036 0.000000 0
-0.000036 0.000000 0
-0.000035 0.000000 0
-0.000035 0.000000 0
-0.000035 0.000000 0
-0.000035 0.000000 0
-0.000035 0.000000 0
-0.000035 0.000000 0
-0.000035 0.000000 0
-0.000034 0.000000 0
-0.000034 0.000000 0
-0.000034 0.000000 0
-0.000033 0.000000 0
-0.000033 0.000000 0
-0.000033 0.000000 0
-0.000032 0.000000 0
-0.000031 0.000000 0
-0.000030 0.000000 0
-0.000029 0.000000 0
-0.000028 0.000000 0
-0.000026 0.000000 0
-0.000024 0.000000 0
-0.000021 0.000000 0
-0.000016 0.000000 0
-0.000010 0.000000 0
-0.000000 0.000000 0
0.497337 0.000000 0
1.000000 0.000034 0
0.999861 0.000102 0
0.999578 0.000175 0
0.999141 0.000253 0
0.998534 0.000342 0
0.997733 0.000445 0
0.996702 0.000568 0
0.995392 0.000719 0
0.993741 0.000906 0
0.991665 0.001142 0
0.989049 0.001445 0
0.985736 0.001846 0
0.981487 0.002401 0
0.975923 0.003214 0
0.968410 0.004501 0
0.957755 0.006686 0
0.941772 0.011415 0
0.914208 0.021004 0
0.866438 0.078309 0
0.721992 0.110721 0
0.585257 0.072550 0
0.483672 0.040797 0
0.414040 0.022195 0
0.367056 0.012644 0
0.335187 0.007720 0
0.313698 0.004857 0
0.299768 0.002930 0
0.291507 0.001538 0
0.287390 0.000552 0
0.286073 -0.000070 0
0.286427 -0.000377 0
0.287506 -0.000467 0
0.288739 -0.000439 0
0.289839 -0.000360 0
0.290707 -0.000273 0
0.291345 -0.000198 0
0.291797 -0.000140 0
0.292111 -0.000099 0
0.292330 -0.000071 0
0.292487 -0.000052 0
0.292602 -0.000040 0
0.292689 -0.000031 0
0.292757 -0.000025 0
0.292811 -0.000020 0
0.292854 -0.000016 0
0.292891 -0.000014 0
0.292921 -0.000011 0
0.292946 -0.000010 0
0.292967 -0.000008 0
0.292985 -0.000007 0
0.293001 -0.000006 0
0.293014 -0.000005 0
0.293025 -0.000004 0
0.293035 -0.000004 0
0.293043 -0.000003 0
0.293050 -0.000003 0
0.293056 -0.000002 0
0.293061 -0.000002 0
0.293066 -0.000002 0
0.293070 -0.000001 0
0.293074 -0.000001 0
0.293077 -0.000001 0
0.293079 -0.000001 0
0.293082 -0.000001 0
0.293084 -0.000001 0
0.293086 -0.000001 0
0.293088 -0.000001 0
0.293090 -0.000001 0
0.293091 -0.000001 0
0.293093 -0.000000 0
0.293094 -0.000000 0
0.293095 -0.000000 0
0.293097 -0.000000 0
0.293098 -0.000000 0
0.293100 -0.000000 0
0.293101 -0.000000 0
0.293103 -0.000000 0
0.293104 -0.000000 0
0.293106 -0.000001 0
0.293108 -0.000001 0
0.293110 -0.000001 0
0.293112 -0.000001 0
0.293114 -0.000001 0
0.293116 -0.000001 0
0.293119 -0.000001 0
0.293122 -0.000001 0
0.293126 -0.000001 0
0.293130 -0.000001 0
0.293134 -0.000001 0
0.293139 -0.000002 0
0.293145 -0.000002 0
0.293152 -0.000002 0
0.293159 -0.000003 0
0.293168 -0.000003 0
0.293178 -0.000003 0
0.293189 -0.000004 0
0.293203 -0.000005 0
0.293218 -0.000005 0
0.293236 -0.000006 0
0.293257 -0.000007 0
0.293281 -0.000008 0
0.293310 -0.000010 0
0.293343 -0.000011 0
0.293381 -0.000013 0
0.293426 -0.000016 0
0.293479 -0.000018 0
0.293541 -0.000022 0
0.293613 -0.000025 0
0.293698 -0.000030 0
0.293797 -0.000035 0
0.293914 -0.000041 0
0.294051 -0.000048 0
0.294213 -0.000057 0
0.294403 -0.000067 0
0.294627 -0.000079 0
0.294891 -0.000093 0
0.295204 -0.000110 0
0.295573 -0.000130 0
0.296012 -0.000155 0
0.296532 -0.000184 0
0.297151 -0.000219 0
0.297889 -0.000262 0
0.298772 -0.000315 0
0.299831 -0.000379 0
0.301108 -0.000458 0
0.302652 -0.000557 0
0.304532 -0.000681 0
0.306834 -0.000840 0
0.309674 -0.001044 0
0.313210 -0.001313 0
0.317659 -0.001672 0
0.323331 -0.002165 0
0.330682 -0.002862 0
0.340400 -0.003887 0
0.353586 -0.005469 0
0.372085 -0.008093 0
0.399255 -0.012842 0
0.441581 -0.023041 0
0.514573 -0.044429 0
0.646236 -0.162145 0
0.995068 -0.265572 0
0.995068 -0.132783 0
1.000000 0.000067 0
0.999863 0.000204 0
0.999583 0.000348 0
0.999153 0.000504 0
0.998555 0.000680 0
0.997765 0.000885 0
0.996750 0.001130 0
0.995463 0.001430 0
0.993843 0.001801 0
0.991809 0.002266 0
0.989256 0.002864 0
0.986036 0.003653 0
0.981931 0.004739 0
0.976607 0.006316 0
0.969520 0.008775 0
0.959743 0.012866 0
0.945695 0.021033 0
0.924699 0.036386 0
0.893747 0.092839 0
0.898821 0.135809 0
0.853144 0.115107 0
0.786519 0.082697 0
0.720871 0.056325 0
0.665416 0.038086 0
0.622125 0.025772 0
0.590171 0.017107 0
0.567988 0.010718 0
0.553838 0.005978 0
0.545888 0.002625 0
0.542296 0.000465 0
0.541463 -0.000692 0
0.542101 -0.001117 0
0.543280 -0.001127 0
0.544487 -0.000951 0
0.545498 -0.000728 0
0.546260 -0.000526 0
0.546800 -0.000370 0
0.547169 -0.000258 0
0.547419 -0.000182 0
0.547590 -0.000131 0
0.547709 -0.000097 0
0.547796 -0.000075 0
0.547860 -0.000059 0
0.547910 -0.000047 0
0.547950 -0.000039 0
0.547983 -0.000032 0
0.548010 -0.000027 0
0.548032 -0.000022 0
0.548051 -0.000019 0
0.548067 -0.000016 0
0.548081 -0.000014 0
0.548094 -0.000012 0
0.548104 -0.000010 0
0.548113 -0.000009 0
0.548121 -0.000007 0
0.548128 -0.000006 0
0.548134 -0.000006 0
0.548139 -0.000005 0
0.548144 -0.000004 0
0.548148 -0.000004 0
0.548152 -0.000003 0
0.548156 -0.000003 0
0.548159 -0.000002 0
0.548162 -0.000002 0
0.548164 -0.000002 0
0.548167 -0.000002 0
0.548169 -0.000002 0
0.548171 -0.000002 0
0.548173 -0.000001 0
0.548175 -0.000001 0
0.548177 -0.000001 0
0.548179 -0.000001 0
0.548181 -0.000001 0
0.548183 -0.000001 0
0.548185 -0.000001 0
0.548187 -0.000001 0
0.548189 -0.000001 0
0.548192 -0.000002 0
0.548194 -0.000002 0
0.548197 -0.000002 0
0.548200 -0.000002 0
0.548203 -0.000002 0
0.548206 -0.000002 0
0.548210 -0.000003 0
0.548214 -0.000003 0
0.548219 -0.000003 0
0.548224 -0.000004 0
0.548230 -0.000004 0
0.548237 -0.000005 0
0.548244 -0.000005 0
0.548253 -0.000006 0
0.548262 -0.000007 0
0.548273 -0.000008 0
0.548286 -0.000009 0
0.548301 -0.000010 0
0.548318 -0.000012 0
0.548337 -0.000014 0
0.548359 -0.000016 0
0.548386 -0.000019 0
0.548416 -0.000022 0
0.548451 -0.000025 0
0.548492 -0.000030 0
0.548540 -0.000035 0
0.548596 -0.000040 0
0.548661 -0.000047 0
0.548737 -0.000055 0
0.548826 -0.000065 0
0.548931 -0.000076 0
0.549053 -0.000089 0
0.549197 -0.000104 0
0.549365 -0.000123 0
0.549563 -0.000144 0
0.549797 -0.000170 0
0.550071 -0.000200 0
0.550394 -0.000236 0
0.550775 -0.000279 0
0.551226 -0.000329 0
0.551758 -0.000390 0
0.552389 -0.000463 0
0.553137 -0.000550 0
0.554026 -0.000655 0
0.555086 -0.000783 0
0.556352 -0.000938 0
0.557868 -0.001128 0
0.559692 -0.001363 0
0.561895 -0.001654 0
0.564568 -0.002020 0
0.567829 -0.002484 0
0.571837 -0.003079 0
0.576802 -0.003856 0
0.583010 -0.004889 0
0.590863 -0.006290 0
0.600933 -0.008244 0
0.614066 -0.011062 0
0.631548 -0.015303 0
0.655411 -0.022058 0
0.689008 -0.033566 0
0.737930 -0.055698 0
0.811675 -0.098847 0
0.924810 -0.232075 0
0.995994 -0.336948 0
0.995995 -0.168465 0
1.000000 0.000100 0
0.999866 0.000304 0
0.999593 0.000517 0
0.999172 0.000750 0
0.998588 0.001012 0
0.997818 0.001317 0
0.996829 0.001680 0
0.995579 0.002123 0
0.994009 0.002671 0
0.992046 0.003357 0
0.989593 0.004233 0
0.986521 0.005384 0
0.982645 0.006956 0
0.977692 0.009208 0
0.971252 0.012646 0
0.962728 0.018193 0
0.951276 0.028341 0
0.936946 0.046094 0
0.920316 0.090808 0
0.952766 0.130332 0
0.959269 0.126791 0
0.937875 0.104684 0
0.902450 0.080687 0
0.864105 0.060337 0
0.828995 0.044063 0
0.799883 0.031005 0
0.777619 0.020479 0
0.761951 0.012212 0
0.751955 0.006127 0
0.746330 0.002067 0
0.743695 -0.000283 0
0.742959 -0.001345 0
0.743207 -0.001591 0
0.743825 -0.001431 0
0.744475 -0.001130 0
0.745014 -0.000827 0
0.745408 -0.000579 0
0.745672 -0.000398 0
0.745841 -0.000275 0
0.745944 -0.000193 0
0.746005 -0.000139 0
0.746042 -0.000104 0
0.746065 -0.000080 0
0.746079 -0.000063 0
0.746088 -0.000051 0
0.746095 -0.000042 0
0.746100 -0.000035 0
0.746105 -0.000030 0
0.746109 -0.000025 0
0.746113 -0.000021 0
0.746116 -0.000018 0
0.746119 -0.000016 0
0.746122 -0.000014 0
0.746126 -0.000012 0
0.746128 -0.000010 0
0.746131 -0.000009 0
0.746134 -0.000008 0
0.746136 -0.000007 0
0.746139 -0.000006 0
0.746141 -0.000005 0
0.746143 -0.000005 0
0.746145 -0.000004 0
0.746147 -0.000004 0
0.746149 -0.000003 0
0.746151 -0.000003 0
0.746153 -0.000003 0
0.746155 -0.000003 0
0.746156 -0.000003 0
0.746158 -0.000002 0
0.746160 -0.000002 0
0.746162 -0.000002 0
0.746164 -0.000002 0
0.746165 -0.000002 0
0.746167 -0.000002 0
0.746170 -0.000002 0
0.746172 -0.000003 0
0.746174 -0.000003 0
0.746176 -0.000003 0
0.746179 -0.000003 0
0.746182 -0.000003 0
0.746185 -0.000004 0
0.746188 -0.000004 0
0.746192 -0.000004 0
0.746196 -0.000005 0
0.746200 -0.000005 0
0.746205 -0.000006 0
0.746211 -0.000006 0
0.746217 -0.000007 0
0.746224 -0.000008 0
0.746232 -0.000009 0
0.746241 -0.000011 0
0.746252 -0.000012 0
0.746264 -0.000014 0
0.746277 -0.000016 0
0.746293 -0.000019 0
0.746311 -0.000021 0
0.746332 -0.000025 0
0.746356 -0.000029 0
0.746384 -0.000033 0
0.746416 -0.000039 0
0.746454 -0.000045 0
0.746498 -0.000053 0
0.746549 -0.000062 0
0.746609 -0.000072 0
0.746679 -0.000084 0
0.746761 -0.000098 0
0.746856 -0.000115 0
0.746968 -0.000135 0
0.747099 -0.000158 0
0.747253 -0.000186 0
0.747434 -0.000218 0
0.747646 -0.000256 0
0.747895 -0.000302 0
0.748189 -0.000355 0
0.748535 -0.000419 0
0.748942 -0.000495 0
0.749424 -0.000585 0
0.749992 -0.000692 0
0.750665 -0.000821 0
0.751462 -0.000975 0
0.752409 -0.001161 0
0.753535 -0.001385 0
0.754877 -0.001658 0
0.756483 -0.001992 0
0.758408 -0.002403 0
0.760726 -0.002911 0
0.763528 -0.003548 0
0.766933 -0.004351 0
0.771094 -0.005378 0
0.776214 -0.006709 0
0.782564 -0.008463 0
0.790513 -0.010822 0
0.800573 -0.014069 0
0.813463 -0.018673 0
0.830215 -0.025439 0
0.852315 -0.035846 0
0.881855 -0.052698 0
0.921482 -0.082288 0
0.972299 -0.134691 0
1.030587 -0.251169 0
0.997034 -0.334306 0
0.997035 -0.167136 0
1.000000 0.000132 0
0.999870 0.000401 0
0.999606 0.000683 0
0.999198 0.000989 0
0.998634 0.001334 0
0.997890 0.001735 0
0.996938 0.002212 0
0.995737 0.002792 0
0.994235 0.003507 0
0.992367 0.004399 0
0.990049 0.005532 0
0.987173 0.007009 0
0.983593 0.009004 0
0.979111 0.011818 0
0.973464 0.016002 0
0.966373 0.022515 0
0.957654 0.033486 0
0.948785 0.051339 0
0.942309 0.085198 0
0.972589 0.116994 0
0.997449 0.122299 0
1.003369 0.110140 0
0.994057 0.091955 0
0.976546 0.073564 0
0.956366 0.056790 0
0.936980 0.041921 0
0.920283 0.029039 0
0.907089 0.018374 0
0.897477 0.010169 0
0.891038 0.004454 0
0.887083 0.000936 0
0.884899 -0.000881 0
0.883901 -0.001545 0
0.883568 -0.001563 0
0.883546 -0.001302 0
0.883626 -0.000977 0
0.883708 -0.000687 0
0.883757 -0.000467 0
0.883770 -0.000313 0
0.883756 -0.000211 0
0.883726 -0.000145 0
0.883689 -0.000103 0
0.883651 -0.000076 0
0.883615 -0.000059 0
0.883583 -0.000047 0
0.883555 -0.000038 0
0.883531 -0.000031 0
0.883511 -0.000027 0
0.883495 -0.000023 0
0.883482 -0.000020 0
0.883471 -0.000017 0
0.883462 -0.000015 0
0.883456 -0.000013 0
0.883450 -0.000011 0
0.883446 -0.000010 0
0.883443 -0.000009 0
0.883441 -0.000008 0
0.883439 -0.000007 0
0.883438 -0.000006 0
0.883438 -0.000006 0
0.883437 -0.000005 0
0.883437 -0.000005 0
0.883438 -0.000004 0
0.883438 -0.000004 0
0.883439 -0.000004 0
0.883439 -0.000004 0
0.883440 -0.000003 0
0.883441 -0.000003 0
0.883442 -0.000003 0
0.883443 -0.000003 0
0.883445 -0.000003 0
0.883446 -0.000003 0
0.883447 -0.000003 0
0.883449 -0.000003 0
0.883451 -0.000003 0
0.883452 -0.000004 0
0.883454 -0.000004 0
0.883456 -0.000004 0
0.883459 -0.000004 0
0.883461 -0.000005 0
0.883464 -0.000005 0
0.883467 -0.000005 0
0.883470 -0.000006 0
0.883474 -0.000007 0
0.883478 -0.000007 0
0.883482 -0.000008 0
0.883487 -0.000009 0
0.883493 -0.000010 0
0.883500 -0.000012 0
0.883507 -0.000013 0
0.883516 -0.000015 0
0.883525 -0.000018 0
0.883537 -0.000020 0
0.883549 -0.000023 0
0.883564 -0.000027 0
0.883581 -0.000031 0
0.883601 -0.000036 0
0.883624 -0.000041 0
0.883650 -0.000048 0
0.883681 -0.000056 0
0.883717 -0.000065 0
0.883759 -0.000076 0
0.883808 -0.000088 0
0.883865 -0.000103 0
0.883931 -0.000120 0
0.884009 -0.000141 0
0.884101 -0.000165 0
0.884207 -0.000193 0
0.884333 -0.000227 0
0.884480 -0.000266 0
0.884653 -0.000312 0
0.884855 -0.000367 0
0.885094 -0.000432 0
0.885374 -0.000509 0
0.885705 -0.000600 0
0.886094 -0.000708 0
0.886553 -0.000836 0
0.887095 -0.000990 0
0.887735 -0.001173 0
0.888493 -0.001392 0
0.889392 -0.001656 0
0.890459 -0.001975 0
0.891728 -0.002362 0
0.893242 -0.002834 0
0.895052 -0.003412 0
0.897223 -0.004127 0
0.899836 -0.005018 0
0.902993 -0.006138 0
0.906826 -0.007562 0
0.911503 -0.009396 0
0.917246 -0.011795 0
0.924343 -0.014988 0
0.933178 -0.019329 0
0.944255 -0.025379 0
0.958226 -0.034069 0
0.975883 -0.047000 0
0.997973 -0.066974 0
1.024539 -0.099381 0
1.051593 -0.151544 0
1.067190 -0.244022 0
0.997946 -0.304510 0
0.997947 -0.152232 0
1.000000 0.000163 0
0.999875 0.000494 0
0.999622 0.000842 0
0.999231 0.001219 0
0.998691 0.001644 0
0.997982 0.002135 0
0.997075 0.002720 0
0.995935 0.003429 0
0.994517 0.004299 0
0.992764 0.005379 0
0.990608 0.006742 0
0.987966 0.008502 0
0.984733 0.010849 0
0.980787 0.014100 0
0.976005 0.018798 0
0.970369 0.025830 0
0.964174 0.036836 0
0.959391 0.053505 0
0.959243 0.079311 0
0.983003 0.103700 0
1.010166 0.111925 0
1.027716 0.106322 0
1.033929 0.093642 0
1.031745 0.078542 0
1.024640 0.063173 0
1.015305 0.048433 0
1.005550 0.034916 0
0.996502 0.023227 0
0.988796 0.013879 0
0.982701 0.007087 0
0.978200 0.002682 0
0.975056 0.000192 0
0.972996 -0.000948 0
0.971726 -0.001260 0
0.970967 -0.001158 0
0.970507 -0.000905 0
0.970206 -0.000643 0
0.969988 -0.000428 0
0.969811 -0.000274 0
0.969660 -0.000171 0
0.969527 -0.000107 0
0.969410 -0.000067 0
0.969309 -0.000044 0
0.969221 -0.000030 0
0.969147 -0.000022 0
0.969084 -0.000017 0
0.969032 -0.000014 0
0.968989 -0.000012 0
0.968952 -0.000011 0
0.968923 -0.000010 0
0.968898 -0.000009 0
0.968878 -0.000008 0
0.968862 -0.000008 0
0.968848 -0.000007 0
0.968837 -0.000007 0
0.968829 -0.000006 0
0.968821 -0.000006 0
0.968816 -0.000006 0
0.968811 -0.000005 0
0.968808 -0.000005 0
0.968805 -0.000005 0
0.968803 -0.000004 0
0.968801 -0.000004 0
0.968800 -0.000004 0
0.968799 -0.000004 0
0.968799 -0.000004 0
0.968799 -0.000004 0
0.968799 -0.000004 0
0.968799 -0.000004 0
0.968799 -0.000004 0
0.968800 -0.000004 0
0.968801 -0.000004 0
0.968801 -0.000004 0
0.968802 -0.000004 0
0.968803 -0.000004 0
0.968805 -0.000004 0
0.968806 -0.000005 0
0.968808 -0.000005 0
0.968809 -0.000005 0
0.968811 -0.000006 0
0.968813 -0.000006 0
0.968816 -0.000007 0
0.968818 -0.000008 0
0.968821 -0.000008 0
0.968825 -0.000009 0
0.968829 -0.000010 0
0.968833 -0.000012 0
0.968838 -0.000013 0
0.968844 -0.000015 0
0.968850 -0.000017 0
0.968857 -0.000020 0
0.968866 -0.000022 0
0.968876 -0.000026 0
0.968887 -0.000029 0
0.968900 -0.000034 0
0.968915 -0.000039 0
0.968933 -0.000045 0
0.968953 -0.000053 0
0.968977 -0.000061 0
0.969005 -0.000071 0
0.969038 -0.000083 0
0.969076 -0.000097 0
0.969120 -0.000113 0
0.969172 -0.000132 0
0.969232 -0.000154 0
0.969303 -0.000180 0
0.969387 -0.000211 0
0.969484 -0.000247 0
0.969599 -0.000290 0
0.969733 -0.000340 0
0.969890 -0.000399 0
0.970076 -0.000470 0
0.970293 -0.000552 0
0.970549 -0.000650 0
0.970851 -0.000767 0
0.971206 -0.000904 0
0.971624 -0.001068 0
0.972117 -0.001263 0
0.972699 -0.001496 0
0.973387 -0.001775 0
0.974202 -0.002110 0
0.975167 -0.002514 0
0.976312 -0.003003 0
0.977673 -0.003598 0
0.979295 -0.004325 0
0.981232 -0.005222 0
0.983550 -0.006334 0
0.986333 -0.007727 0
0.989685 -0.009488 0
0.993736 -0.011742 0
0.998650 -0.014665 0
1.004628 -0.018517 0
1.011919 -0.023687 0
1.020815 -0.030771 0
1.031613 -0.040715 0
1.044511 -0.055043 0
1.059242 -0.076198 0
1.074197 -0.108186 0
1.083406 -0.155292 0
1.073927 -0.225259 0
0.998652 -0.267400 0
0.998653 -0.133675 0
1.000000 0.000193 0
0.999881 0.000583 0
0.999641 0.000993 0
0.999271 0.001439 0
0.998760 0.001938 0
0.998090 0.002515 0
0.997237 0.003200 0
0.996169 0.004027 0
0.994848 0.005039 0
0.993228 0.006287 0
0.991256 0.007850 0
0.988875 0.009846 0
0.986022 0.012471 0
0.982643 0.016034 0
0.978736 0.021034 0
0.974470 0.028229 0
0.970428 0.038788 0
0.968563 0.053721 0
0.971944 0.073794 0
0.990517 0.092399 0
1.014621 0.100703 0
1.034936 0.098662 0
1.048136 0.090009 0
1.054671 0.078051 0
1.056186 0.064731 0
1.054302 0.051142 0
1.050303 0.038121 0
1.045191 0.026466 0
1.039762 0.016835 0
1.034627 0.009572 0
1.030192 0.004629 0
1.026633 0.001633 0
1.023932 0.000063 0
1.021987 -0.000583 0
1.020633 -0.000713 0
1.019701 -0.000609 0
1.019049 -0.000437 0
1.018578 -0.000276 0
1.018222 -0.000154 0
1.017941 -0.000073 0
1.017714 -0.000024 0
1.017526 0.000002 0
1.017369 0.000015 0
1.017239 0.000019 0
1.017129 0.000020 0
1.017039 0.000018 0
1.016963 0.000015 0
1.016900 0.000012 0
1.016848 0.000009 0
1.016805 0.000007 0
1.016770 0.000005 0
1.016740 0.000003 0
1.016716 0.000001 0
1.016696 0.000000 0
1.016680 -0.000001 0
1.016667 -0.000001 0
1.016656 -0.000002 0
1.016647 -0.000002 0
1.016639 -0.000002 0
1.016633 -0.000003 0
1.016629 -0.000003 0
1.016625 -0.000003 0
1.016622 -0.000003 0
1.016619 -0.000003 0
1.016617 -0.000003 0
1.016616 -0.000003 0
1.016615 -0.000003 0
1.016614 -0.000003 0
1.016614 -0.000003 0
1.016613 -0.000004 0
1.016613 -0.000004 0
1.016613 -0.000004 0
1.016614 -0.000004 0
1.016614 -0.000004 0
1.016615 -0.000005 0
1.016615 -0.000005 0
1.016616 -0.000005 0
1.016617 -0.000006 0
1.016618 -0.000006 0
1.016620 -0.000007 0
1.016621 -0.000007 0
1.016623 -0.000008 0
1.016625 -0.000009 0
1.016627 -0.000010 0
1.016630 -0.000011 0
1.016633 -0.000012 0
1.016637 -0.000014 0
1.016641 -0.000016 0
1.016646 -0.000018 0
1.016651 -0.000020 0
1.016657 -0.000023 0
1.016665 -0.000026 0
1.016673 -0.000030 0
1.016683 -0.000035 0
1.016694 -0.000040 0
1.016708 -0.000047 0
1.016723 -0.000054 0
1.016741 -0.000063 0
1.016763 -0.000073 0
1.016787 -0.000085 0
1.016816 -0.000099 0
1.016850 -0.000115 0
1.016890 -0.000135 0
1.016936 -0.000157 0
1.016991 -0.000184 0
1.017055 -0.000215 0
1.017130 -0.000252 0
1.017218 -0.000296 0