# vtk DataFile Version 2.0
generated by CFD-lab course output (written by Tobias Neckel) 
ASCII

DATASET STRUCTURED_GRID
DIMENSIONS  142 42 1 
POINTS 5964 float

0.000000 0.250000 0
0.024648 0.250000 0
0.049296 0.250000 0
0.073944 0.250000 0
0.098592 0.250000 0
0.123239 0.250000 0
0.147887 0.250000 0
0.172535 0.250000 0
0.197183 0.250000 0
0.221831 0.250000 0
0.246479 0.250000 0
0.271127 0.250000 0
0.295775 0.250000 0
0.320423 0.250000 0
0.345070 0.250000 0
0.369718 0.250000 0
0.394366 0.250000 0
0.419014 0.250000 0
0.443662 0.250000 0
0.468310 0.250000 0
0.492958 0.250000 0
0.517606 0.250000 0
0.542254 0.250000 0
0.566901 0.250000 0
0.591549 0.250000 0
0.616197 0.250000 0
0.640845 0.250000 0
0.665493 0.250000 0
0.690141 0.250000 0
0.714789 0.250000 0
0.739437 0.250000 0
0.764085 0.250000 0
0.788732 0.250000 0
0.813380 0.250000 0
0.838028 0.250000 0
0.862676 0.250000 0
0.887324 0.250000 0
0.911972 0.250000 0
0.936620 0.250000 0
0.961268 0.250000 0
0.985915 0.250000 0
1.010563 0.250000 0
1.035211 0.250000 0
1.059859 0.250000 0
1.084507 0.250000 0
1.109155 0.250000 0
1.133803 0.250000 0
1.158451 0.250000 0
1.183099 0.250000 0
1.207746 0.250000 0
1.232394 0.250000 0
1.257042 0.250000 0
1.281690 0.250000 0
1.306338 0.250000 0
1.330986 0.250000 0
1.355634 0.250000 0
1.380282 0.250000 0
1.404930 0.250000 0
1.429577 0.250000 0
1.454225 0.250000 0
1.478873 0.250000 0
1.503521 0.250000 0
1.528169 0.250000 0
1.552817 0.250000 0
1.577465 0.250000 0
1.602113 0.250000 0
1.626761 0.250000 0
1.651408 0.250000 0
1.676056 0.250000 0
1.700704 0.250000 0
1.725352 0.250000 0
1.750000 0.250000 0
1.774648 0.250000 0
1.799296 0.250000 0
1.823944 0.250000 0
1.848592 0.250000 0
1.873239 0.250000 0
1.897887 0.250000 0
1.922535 0.250000 0
1.947183 0.250000 0
1.971831 0.250000 0
1.996479 0.250000 0
2.021127 0.250000 0
2.045775 0.250000 0
2.070423 0.250000 0
2.095070 0.250000 0
2.119718 0.250000 0
2.144366 0.250000 0
2.169014 0.250000 0
2.193662 0.250000 0
2.218310 0.250000 0
2.242958 0.250000 0
2.267606 0.250000 0
2.292254 0.250000 0
2.316901 0.250000 0
2.341549 0.250000 0
2.366197 0.250000 0
2.390845 0.250000 0
2.415493 0.250000 0
2.440141 0.250000 0
2.464789 0.250000 0
2.489437 0.250000 0
2.514085 0.250000 0
2.538732 0.250000 0
2.563380 0.250000 0
2.588028 0.250000 0
2.612676 0.250000 0
2.637324 0.250000 0
2.661972 0.250000 0
2.686620 0.250000 0
2.711268 0.250000 0
2.735915 0.250000 0
2.760563 0.250000 0
2.785211 0.250000 0
2.809859 0.250000 0
2.834507 0.250000 0
2.859155 0.250000 0
2.883803 0.250000 0
2.908451 0.250000 0
2.933099 0.250000 0
2.957746 0.250000 0
2.982394 0.250000 0
3.007042 0.250000 0
3.031690 0.250000 0
3.056338 0.250000 0
3.080986 0.250000 0
3.105634 0.250000 0
3.130282 0.250000 0
3.154930 0.250000 0
3.179577 0.250000 0
3.204225 0.250000 0
3.228873 0.250000 0
3.253521 0.250000 0
3.278169 0.250000 0
3.302817 0.250000 0
3.327465 0.250000 0
3.352113 0.250000 0
3.376761 0.250000 0
3.401408 0.250000 0
3.426056 0.250000 0
3.450704 0.250000 0
3.475352 0.250000 0
0.000000 0.261905 0
0.024648 0.261905 0
0.049296 0.261905 0
0.073944 0.261905 0
0.098592 0.261905 0
0.123239 0.261905 0
0.147887 0.261905 0
0.172535 0.261905 0
0.197183 0.261905 0
0.221831 0.261905 0
0.246479 0.261905 0
0.271127 0.261905 0
0.295775 0.261905 0
0.320423 0.261905 0
0.345070 0.261905 0
0.369718 0.261905 0
0.394366 0.261905 0
0.419014 0.261905 0
0.443662 0.261905 0
0.468310 0.261905 0
0.492958 0.261905 0
0.517606 0.261905 0
0.542254 0.261905 0
0.566901 0.261905 0
0.591549 0.261905 0
0.616197 0.261905 0
0.640845 0.261905 0
0.665493 0.261905 0
0.690141 0.261905 0
0.714789 0.261905 0
0.739437 0.261905 0
0.764085 0.261905 0
0.788732 0.261905 0
0.813380 0.261905 0
0.838028 0.261905 0
0.862676 0.261905 0
0.887324 0.261905 0
0.911972 0.261905 0
0.936620 0.261905 0
0.961268 0.261905 0
0.985915 0.261905 0
1.010563 0.261905 0
1.035211 0.261905 0
1.059859 0.261905 0
1.084507 0.261905 0
1.109155 0.261905 0
1.133803 0.261905 0
1.158451 0.261905 0
1.183099 0.261905 0
1.207746 0.261905 0
1.232394 0.261905 0
1.257042 0.261905 0
1.281690 0.261905 0
1.306338 0.261905 0
1.330986 0.261905 0
1.355634 0.261905 0
1.380282 0.261905 0
1.404930 0.261905 0
1.429577 0.261905 0
1.454225 0.261905 0
1.478873 0.261905 0
1.503521 0.261905 0
1.528169 0.261905 0
1.552817 0.261905 0
1.577465 0.261905 0
1.602113 0.261905 0
1.626761 0.261905 0
1.651408 0.261905 0
1.676056 0.261905 0
1.700704 0.261905 0
1.725352 0.261905 0
1.750000 0.261905 0
1.774648 0.261905 0
1.799296 0.261905 0
1.823944 0.261905 0
1.848592 0.261905 0
1.873239 0.261905 0
1.897887 0.261905 0
1.922535 0.261905 0
1.947183 0.261905 0
1.971831 0.261905 0
1.996479 0.261905 0
2.021127 0.261905 0
2.045775 0.261905 0
2.070423 0.261905 0
2.095070 0.261905 0
2.119718 0.261905 0
2.144366 0.261905 0
2.169014 0.261905 0
2.193662 0.261905 0
2.218310 0.261905 0
2.242958 0.261905 0
2.267606 0.261905 0
2.292254 0.261905 0
2.316901 0.261905 0
2.341549 0.261905 0
2.366197 0.261905 0
2.390845 0.261905 0
2.415493 0.261905 0
2.440141 0.261905 0
2.464789 0.261905 0
2.489437 0.261905 0
2.514085 0.261905 0
2.538732 0.261905 0
2.563380 0.261905 0
2.588028 0.261905 0
2.612676 0.261905 0
2.637324 0.261905 0
2.661972 0.261905 0
2.686620 0.261905 0
2.711268 0.261905 0
2.735915 0.261905 0
2.760563 0.261905 0
2.785211 0.261905 0
2.809859 0.261905 0
2.834507 0.261905 0
2.859155 0.261905 0
2.883803 0.261905 0
2.908451 0.261905 0
2.933099 0.261905 0
2.957746 0.261905 0
2.982394 0.261905 0
3.007042 0.261905 0
3.031690 0.261905 0
3.056338 0.261905 0
3.080986 0.261905 0
3.105634 0.261905 0
3.130282 0.261905 0
3.154930 0.261905 0
3.179577 0.261905 0
3.204225 0.261905 0
3.228873 0.261905 0
3.253521 0.261905 0
3.278169 0.261905 0
3.302817 0.261905 0
3.327465 0.261905 0
3.352113 0.261905 0
3.376761 0.261905 0
3.401408 0.261905 0
3.426056 0.261905 0
3.450704 0.261905 0
3.475352 0.261905 0
0.000000 0.273810 0
0.024648 0.273810 0
0.049296 0.273810 0
0.073944 0.273810 0
0.098592 0.273810 0
0.123239 0.273810 0
0.147887 0.273810 0
0.172535 0.273810 0
0.197183 0.273810 0
0.221831 0.273810 0
0.246479 0.273810 0
0.271127 0.273810 0
0.295775 0.273810 0
0.320423 0.273810 0
0.345070 0.273810 0
0.369718 0.273810 0
0.394366 0.273810 0
0.419014 0.273810 0
0.443662 0.273810 0
0.468310 0.273810 0
0.492958 0.273810 0
0.517606 0.273810 0
0.542254 0.273810 0
0.566901 0.273810 0
0.591549 0.273810 0
0.616197 0.273810 0
0.640845 0.273810 0
0.665493 0.273810 0
0.690141 0.273810 0
0.714789 0.273810 0
0.739437 0.273810 0
0.764085 0.273810 0
0.788732 0.273810 0
0.813380 0.273810 0
0.838028 0.273810 0
0.862676 0.273810 0
0.887324 0.273810 0
0.911972 0.273810 0
0.936620 0.273810 0
0.961268 0.273810 0
0.985915 0.273810 0
1.010563 0.273810 0
1.035211 0.273810 0
1.059859 0.273810 0
1.084507 0.273810 0
1.109155 0.273810 0
1.133803 0.273810 0
1.158451 0.273810 0
1.183099 0.273810 0
1.207746 0.273810 0
1.232394 0.273810 0
1.257042 0.273810 0
1.281690 0.273810 0
1.306338 0.273810 0
1.330986 0.273810 0
1.355634 0.273810 0
1.380282 0.273810 0
1.404930 0.273810 0
1.429577 0.273810 0
1.454225 0.273810 0
1.478873 0.273810 0
1.503521 0.273810 0
1.528169 0.273810 0
1.552817 0.273810 0
1.577465 0.273810 0
1.602113 0.273810 0
1.626761 0.273810 0
1.651408 0.273810 0
1.676056 0.273810 0
1.700704 0.273810 0
1.725352 0.273810 0
1.750000 0.273810 0
1.774648 0.273810 0
1.799296 0.273810 0
1.823944 0.273810 0
1.848592 0.273810 0
1.873239 0.273810 0
1.897887 0.273810 0
1.922535 0.273810 0
1.947183 0.273810 0
1.971831 0.273810 0
1.996479 0.273810 0
2.021127 0.273810 0
2.045775 0.273810 0
2.070423 0.273810 0
2.095070 0.273810 0
2.119718 0.273810 0
2.144366 0.273810 0
2.169014 0.273810 0
2.193662 0.273810 0
2.218310 0.273810 0
2.242958 0.273810 0
2.267606 0.273810 0
2.292254 0.273810 0
2.316901 0.273810 0
2.341549 0.273810 0
2.366197 0.273810 0
2.390845 0.273810 0
2.415493 0.273810 0
2.440141 0.273810 0
2.464789 0.273810 0
2.489437 0.273810 0
2.514085 0.273810 0
2.538732 0.273810 0
2.563380 0.273810 0
2.588028 0.273810 0
2.612676 0.273810 0
2.637324 0.273810 0
2.661972 0.273810 0
2.686620 0.273810 0
2.711268 0.273810 0
2.735915 0.273810 0
2.760563 0.273810 0
2.785211 0.273810 0
2.809859 0.273810 0
2.834507 0.273810 0
2.859155 0.273810 0
2.883803 0.273810 0
2.908451 0.273810 0
2.933099 0.273810 0
2.957746 0.273810 0
2.982394 0.273810 0
3.007042 0.273810 0
3.031690 0.273810 0
3.056338 0.273810 0
3.080986 0.273810 0
3.105634 0.273810 0
3.130282 0.273810 0
3.154930 0.273810 0
3.179577 0.273810 0
3.204225 0.273810 0
3.228873 0.273810 0
3.253521 0.273810 0
3.278169 0.273810 0
3.302817 0.273810 0
3.327465 0.273810 0
3.352113 0.273810 0
3.376761 0.273810 0
3.401408 0.273810 0
3.426056 0.273810 0
3.450704 0.273810 0
3.475352 0.273810 0
0.000000 0.285714 0
0.024648 0.285714 0
0.049296 0.285714 0
0.073944 0.285714 0
0.098592 0.285714 0
0.123239 0.285714 0
0.147887 0.285714 0
0.172535 0.285714 0
0.197183 0.285714 0
0.221831 0.285714 0
0.246479 0.285714 0
0.271127 0.285714 0
0.295775 0.285714 0
0.320423 0.285714 0
0.345070 0.285714 0
0.369718 0.285714 0
0.394366 0.285714 0
0.419014 0.285714 0
0.443662 0.285714 0
0.468310 0.285714 0
0.492958 0.285714 0
0.517606 0.285714 0
0.542254 0.285714 0
0.566901 0.285714 0
0.591549 0.285714 0
0.616197 0.285714 0
0.640845 0.285714 0
0.665493 0.285714 0
0.690141 0.285714 0
0.714789 0.285714 0
0.739437 0.285714 0
0.764085 0.285714 0
0.788732 0.285714 0
0.813380 0.285714 0
0.838028 0.285714 0
0.862676 0.285714 0
0.887324 0.285714 0
0.911972 0.285714 0
0.936620 0.285714 0
0.961268 0.285714 0
0.985915 0.285714 0
1.010563 0.285714 0
1.035211 0.285714 0
1.059859 0.285714 0
1.084507 0.285714 0
1.109155 0.285714 0
1.133803 0.285714 0
1.158451 0.285714 0
1.183099 0.285714 0
1.207746 0.285714 0
1.232394 0.285714 0
1.257042 0.285714 0
1.281690 0.285714 0
1.306338 0.285714 0
1.330986 0.285714 0
1.355634 0.285714 0
1.380282 0.285714 0
1.404930 0.285714 0
1.429577 0.285714 0
1.454225 0.285714 0
1.478873 0.285714 0
1.503521 0.285714 0
1.528169 0.285714 0
1.552817 0.285714 0
1.577465 0.285714 0
[...]
POINT_DATA 5964 

VECTORS velocity float
1.000000 0.000000 0
0.999854 0.000000 0
0.999556 0.000000 0
0.999097 0.000000 0
0.998458 0.000000 0
0.997615 0.000000 0
0.996532 0.000000 0
0.995162 0.000000 0
0.993440 0.000000 0
0.991275 0.000000 0
0.988543 0.000000 0
0.985062 0.000000 0
0.980562 0.000000 0
0.974615 0.000000 0
0.966517 0.000000 0
0.954935 0.000000 0
0.937385 0.000000 0
0.905761 0.000000 0
0.847695 0.000000 0
-0.000000 0.000000 0
-0.000000 0.000000 0
-0.000000 0.000000 0
-0.000000 0.000000 0
-0.000000 0.000000 0
-0.000000 0.000000 0
-0.000000 0.000000 0
-0.000000 0.000000 0
-0.000000 0.000000 0
-0.000000 0.000000 0
-0.000000 0.000000 0
-0.000000 0.000000 0
-0.000000 0.000000 0
-0.000000 0.000000 0
-0.000000 0.000000 0
-0.000000 0.000000 0
-0.000000 0.000000 0
-0.000000 0.000000 0
-0.000000 0.000000 0
-0.000000 0.000000 0
-0.000000 0.000000 0
-0.000000 0.000000 0
-0.000000 0.000000 0
-0.000000 0.000000 0
-0.000000 0.000000 0
-0.000000 0.000000 0
-0.000000 0.000000 0
-0.000000 0.000000 0
-0.000000 0.000000 0
-0.000000 0.000000 0
-0.000000 0.000000 0
-0.000000 0.000000 0
-0.000000 0.000000 0
-0.000000 0.000000 0
-0.000000 0.000000 0
-0.000000 0.000000 0
-0.000000 0.000000 0
-0.000000 0.000000 0
-0.000000 0.000000 0
-0.000000 0.000000 0
-0.000000 0.000000 0
-0.000000 0.000000 0
-0.000000 0.000000 0
-0.000000 0.000000 0
-0.000000 0.000000 0
-0.000000 0.000000 0
-0.000000 0.000000 0
-0.000000 0.000000 0
-0.000000 0.000000 0
-0.000000 0.000000 0
-0.000000 0.000000 0
-0.000000 0.000000 0
-0.000000 0.000000 0
-0.000000 0.000000 0
-0.000000 0.000000 0
-0.000000 0.000000 0
-0.000000 0.000000 0
-0.000000 0.000000 0
-0.000000 0.000000 0
-0.000000 0.000000 0
-0.000000 0.000000 0
-0.000000 0.000000 0
-0.000000 0.000000 0
-0.000000 0.000000 0
-0.000000 0.000000 0
-0.000000 0.000000 0
-0.000000 0.000000 0
-0.000000 0.000000 0
-0.000000 0.000000 0
-0.000000 0.000000 0
-0.000001 0.000000 0
-0.000001 0.000000 0
-0.000001 0.000000 0
-0.000001 0.000000 0
-0.000001 0.000000 0
-0.000001 0.000000 0
-0.000001 0.000000 0
-0.000001 0.000000 0
-0.000001 0.000000 0
-0.000001 0.000000 0
-0.000001 0.000000 0
-0.000001 0.000000 0
-0.000001 0.000000 0
-0.000001 0.000000 0
-0.000001 0.000000 0
-0.000001 0.000000 0
-0.000001 0.000000 0
-0.000001 0.000000 0
-0.000001 0.000000 0
-0.000001 0.000000 0
-0.000001 0.000000 0
-0.000001 0.000000 0
-0.000001 0.000000 0
-0.000001 0.000000 0
-0.000001 0.000000 0
-0.000001 0.000000 0
-0.000001 0.000000 0
-0.000001 0.000000 0
-0.000001 0.000000 0
-0.000001 0.000000 0
-0.000001 0.000000 0
-0.000001 0.000000 0
-0.000001 0.000000 0
-0.000001 0.000000 0
-0.000001 0.000000 0
-0.000001 0.000000 0
-0.000001 0.000000 0
-0.000001 0.000000 0
-0.000001 0.000000 0
-0.000001 0.000000 0
-0.000001 0.000000 0
-0.000001 0.000000 0
-0.000001 0.000000 0
-0.000001 0.000000 0
-0.000001 0.000000 0
-0.000001 0.000000 0
-0.000000 0.000000 0
-0.000000 0.000000 0
-0.000000 0.000000 0
0.000000 0.000000 0
0.000000 0.000000 0
-0.000000 0.000000 0
0.496583 0.000000 0
1.000000 0.000035 0
0.999854 0.000107 0
0.999558 0.000183 0
0.999101 0.000265 0
0.998465 0.000358 0
0.997626 0.000465 0
0.996549 0.000592 0
0.995186 0.000747 0
0.993475 0.000939 0
0.991325 0.001182 0
0.988614 0.001500 0
0.985165 0.001928 0
0.980714 0.002523 0
0.974851 0.003392 0
0.966904 0.004753 0
0.955642 0.007036 0
0.938826 0.011875 0
0.910182 0.021660 0
0.860876 0.078853 0
0.714889 0.110956 0
0.576507 0.072745 0
0.473020 0.041074 0
0.401069 0.022638 0
0.351167 0.013309 0
0.315504 0.008679 0
0.289000 0.006202 0
0.268561 0.004718 0
0.252301 0.003739 0
0.239036 0.003050 0
0.227989 0.002542 0
0.218635 0.002156 0
0.210603 0.001855 0
0.203623 0.001614 0
0.197496 0.001420 0
0.192071 0.001260 0
0.187229 0.001126 0
0.182878 0.001014 0
0.178944 0.000919 0
0.175367 0.000837 0
0.172098 0.000766 0
0.169097 0.000705 0
0.166330 0.000651 0
0.163768 0.000604 0
0.161388 0.000562 0
0.159169 0.000525 0
0.157094 0.000492 0
0.155149 0.000462 0
0.153319 0.000435 0
0.151594 0.000411 0
0.149964 0.000389 0
0.148421 0.000369 0
0.146957 0.000351 0
0.145565 0.000334 0
0.144240 0.000318 0
0.142976 0.000304 0
0.141769 0.000291 0
0.140615 0.000278 0
0.139509 0.000267 0
0.138450 0.000256 0
0.137434 0.000246 0
0.136458 0.000236 0
0.135521 0.000227 0
0.134619 0.000219 0
0.133751 0.000211 0
0.132916 0.000203 0
0.132112 0.000196 0
0.131338 0.000189 0
0.130592 0.000182 0
0.129873 0.000176 0
0.129181 0.000170 0
0.128514 0.000164 0
0.127871 0.000158 0
0.127253 0.000152 0
0.126658 0.000146 0
0.126087 0.000141 0
0.125537 0.000136 0
0.125010 0.000130 0
0.124505 0.000125 0
0.124022 0.000120 0
0.123561 0.000115 0
0.123121 0.000110 0
0.122704 0.000104 0
0.122308 0.000099 0
0.121936 0.000094 0
0.121585 0.000088 0
0.121259 0.000082 0
0.120956 0.000076 0
0.120677 0.000070 0
0.120423 0.000064 0
0.120195 0.000058 0
0.119992 0.000051 0
0.119816 0.000044 0
0.119667 0.000037 0
0.119544 0.000030 0
0.119450 0.000023 0
0.119383 0.000015 0
0.119345 0.000008 0
0.119336 0.000000 0
0.119355 -0.000007 0
0.119401 -0.000015 0
0.119474 -0.000022 0
0.119573 -0.000030 0
0.119701 -0.000038 0
0.119857 -0.000046 0
0.120042 -0.000055 0
0.120259 -0.000064 0
0.120510 -0.000074 0
0.120798 -0.000085 0
0.121127 -0.000098 0
0.121501 -0.000111 0
0.121927 -0.000127 0
0.122412 -0.000145 0
0.122964 -0.000165 0
0.123592 -0.000188 0
0.124310 -0.000216 0
0.125131 -0.000247 0
0.126071 -0.000283 0
0.127150 -0.000326 0
0.128391 -0.000376 0
0.129820 -0.000434 0
0.131472 -0.000503 0
0.133385 -0.000585 0
0.135605 -0.000682 0
0.138192 -0.000798 0
0.141216 -0.000938 0
0.144764 -0.001108 0
0.148948 -0.001316 0
0.153908 -0.001574 0
0.159829 -0.001899 0
0.166951 -0.002315 0
0.175602 -0.002856 0
0.186233 -0.003580 0
0.199486 -0.004575 0
0.216307 -0.005994 0
0.238149 -0.008116 0
0.267353 -0.011493 0
0.307970 -0.017294 0
0.367312 -0.028947 0
0.462124 -0.051341 0
0.618008 -0.167118 0
0.993478 -0.268450 0
0.993478 -0.134225 0
1.000000 0.000070 0
0.999856 0.000213 0
0.999564 0.000364 0
0.999113 0.000528 0
0.998486 0.000712 0
0.997659 0.000926 0
0.996599 0.001178 0
0.995259 0.001485 0
0.993579 0.001865 0
0.991473 0.002347 0
0.988825 0.002975 0
0.985469 0.003816 0
0.981163 0.004982 0
0.975541 0.006670 0
0.968026 0.009278 0
0.957650 0.013561 0
0.942786 0.021957 0
0.920696 0.037649 0
0.888372 0.094325 0
0.891001 0.137349 0
0.842152 0.116821 0
0.771622 0.084735 0
0.701227 0.058854 0
0.639926 0.041327 0
0.589265 0.030026 0
0.547932 0.022673 0
0.514051 0.017725 0
0.485965 0.014260 0
0.462384 0.011742 0
0.442338 0.009853 0
0.425101 0.008398 0
0.410127 0.007251 0
0.396997 0.006330 0
0.385388 0.005580 0
0.375049 0.004959 0
0.365779 0.004440 0
0.357417 0.004002 0
0.349832 0.003628 0
0.342918 0.003306 0
0.336586 0.003028 0
0.330762 0.002786 0
0.325385 0.002574 0
0.320401 0.002387 0
0.315768 0.002221 0
0.311445 0.002074 0
0.307401 0.001942 0
0.303607 0.001823 0
0.300038 0.001717 0
0.296674 0.001620 0
0.293495 0.001533 0
0.290485 0.001453 0
0.287630 0.001380 0
0.284916 0.001312 0
0.282332 0.001251 0
0.279870 0.001193 0
0.277518 0.001141 0
0.275271 0.001091 0
0.273119 0.001045 0
0.271059 0.001002 0
0.269082 0.000962 0
0.267186 0.000924 0
0.265364 0.000888 0
0.263613 0.000854 0
0.261930 0.000822 0
0.260310 0.000792 0
0.258752 0.000762 0
0.257251 0.000734 0
0.255807 0.000708 0
0.254417 0.000682 0
0.253079 0.000657 0
0.251792 0.000632 0
0.250553 0.000609 0
0.249362 0.000586 0
0.248218 0.000563 0
0.247120 0.000541 0
0.246066 0.000520 0
0.245057 0.000498 0
0.244091 0.000477 0
0.243169 0.000456 0
0.242291 0.000435 0
0.241457 0.000414 0
0.240666 0.000393 0
0.239919 0.000371 0
0.239217 0.000349 0
0.238560 0.000327 0
0.237948 0.000304 0
0.237384 0.000281 0
0.236866 0.000257 0
0.236397 0.000233 0
0.235976 0.000208 0
0.235604 0.000183 0
0.235282 0.000157 0
0.235010 0.000131 0
0.234788 0.000105 0
0.234617 0.000078 0
0.234497 0.000050 0
0.234427 0.000023 0
0.234409 -0.000005 0
0.234441 -0.000031 0
0.234521 -0.000057 0
0.234648 -0.000083 0
0.234822 -0.000110 0
0.235043 -0.000137 0
0.235313 -0.000165 0
0.235633 -0.000194 0
0.236006 -0.000226 0
0.236437 -0.000260 0
0.236930 -0.000298 0
0.237492 -0.000340 0
0.238132 -0.000387 0
0.238858 -0.000440 0
0.239683 -0.000501 0
0.240621 -0.000570 0
0.241690 -0.000650 0
0.242907 -0.000743 0
0.244298 -0.000850 0
0.245889 -0.000975 0
0.247712 -0.001120 0
0.249806 -0.001290 0
0.252214 -0.001488 0
0.254992 -0.001721 0
0.258200 -0.001996 0
0.261917 -0.002322 0
0.266233 -0.002710 0
0.271260 -0.003174 0
0.277136 -0.003734 0
0.284032 -0.004417 0
0.292162 -0.005255 0
0.301800 -0.006300 0
0.313301 -0.007618 0
0.327134 -0.009313 0
0.343930 -0.011536 0
0.364557 -0.014526 0
0.390247 -0.018674 0
0.422795 -0.024655 0
0.464902 -0.033723 0
0.520813 -0.048279 0
0.597159 -0.074455 0
0.705243 -0.121085 0
0.859553 -0.256640 0
0.994195 -0.362699 0
0.994195 -0.181350 0
1.000000 0.000105 0
0.999859 0.000318 0
0.999574 0.000542 0
0.999133 0.000786 0
0.998521 0.001060 0
0.997714 0.001377 0
0.996681 0.001752 0
0.995379 0.002205 0
0.993750 0.002767 0
0.991715 0.003478 0
0.989169 0.004400 0
0.985963 0.005628 0
0.981888 0.007318 0
0.976643 0.009737 0
0.969783 0.013394 0
0.960674 0.019226 0
0.948432 0.029723 0
0.933030 0.047941 0
0.915088 0.093196 0
0.945333 0.133280 0
0.948629 0.130404 0
0.922943 0.109140 0
0.881986 0.086246 0
0.836596 0.067386 0
0.792547 0.053112 0
0.752216 0.042530 0
0.716235 0.034647 0
0.684470 0.028694 0
0.656502 0.024121 0
0.631848 0.020549 0
0.610041 0.017714 0
0.590668 0.015429 0
0.573375 0.013563 0
0.557863 0.012020 0
0.543881 0.010731 0
0.531221 0.009643 0
0.519706 0.008716 0
0.509188 0.007922 0
0.499544 0.007235 0
0.490667 0.006637 0
0.482468 0.006115 0
0.474869 0.005655 0
0.467804 0.005249 0
0.461218 0.004888 0
0.455059 0.004566 0
0.449286 0.004278 0
0.443860 0.004018 0
0.438749 0.003784 0
0.433925 0.003571 0
0.429362 0.003378 0
0.425037 0.003202 0
0.420931 0.003041 0
0.417026 0.002892 0
0.413308 0.002756 0
0.409761 0.002629 0
0.406373 0.002512 0
0.403134 0.002403 0
0.400033 0.002301 0
0.397062 0.002206 0
0.394213 0.002117 0
0.391478 0.002032 0
0.388851 0.001953 0
0.386326 0.001878 0
0.383899 0.001806 0
0.381564 0.001738 0
0.379317 0.001673 0
0.377155 0.001611 0
0.375074 0.001551 0
0.373071 0.001493 0
0.371144 0.001438 0
0.369291 0.001384 0
0.367508 0.001331 0
0.365795 0.001280 0
0.364150 0.001230 0
0.362572 0.001180 0
0.361059 0.001132 0
0.359611 0.001084 0
0.358228 0.001037 0
0.356908 0.000989 0
0.355651 0.000942 0
0.354459 0.000895 0
0.353330 0.000847 0
0.352265 0.000799 0
0.351265 0.000750 0
0.350331 0.000701 0
0.349462 0.000650 0
0.348661 0.000599 0
0.347926 0.000547 0
0.347260 0.000494 0
0.346663 0.000441 0
0.346134 0.000386 0
0.345676 0.000331 0
0.345286 0.000276 0
0.344966 0.000220 0
0.344714 0.000164 0
0.344531 0.000107 0
0.344417 0.000050 0
0.344370 -0.000007 0
0.344391 -0.000061 0
0.344477 -0.000115 0
0.344625 -0.000168 0
0.344836 -0.000221 0
0.345108 -0.000275 0
0.345443 -0.000331 0
0.345844 -0.000390 0
0.346312 -0.000453 0
0.346854 -0.000520 0
0.347475 -0.000595 0
0.348183 -0.000678 0
0.348988 -0.000771 0
0.349903 -0.000876 0
0.350942 -0.000996 0
0.352123 -0.001134 0
0.353465 -0.001292 0
0.354995 -0.001475 0
0.356739 -0.001687 0
0.358732 -0.001932 0
0.361014 -0.002218 0
0.363629 -0.002551 0
0.366633 -0.002939 0
0.370088 -0.003394 0
0.374072 -0.003930 0
0.378674 -0.004562 0
0.384002 -0.005311 0
0.390186 -0.006204 0
0.397384 -0.007276 0
0.405789 -0.008573 0
0.415641 -0.010156 0
0.427240 -0.012109 0
0.440969 -0.014551 0
0.457316 -0.017650 0
0.476924 -0.021655 0
0.500645 -0.026946 0
0.529631 -0.034122 0
0.565465 -0.044174 0
0.610341 -0.058835 0
0.667293 -0.081173 0
0.740177 -0.118025 0
0.832398 -0.178076 0
0.943282 -0.306680 0
0.995001 -0.398512 0
0.995001 -0.199256 0
1.000000 0.000138 0
0.999864 0.000419 0
0.999587 0.000715 0
0.999160 0.001037 0
0.998568 0.001398 0
0.997790 0.001814 0
0.996794 0.002306 0
0.995543 0.002901 0
0.993983 0.003635 0
0.992045 0.004560 0
0.989635 0.005754 0
0.986628 0.007332 0
0.982855 0.009483 0
0.978089 0.012517 0
0.972037 0.016990 0
0.964383 0.023874 0
0.954907 0.035309 0
0.945020 0.053754 0
0.937270 0.088383 0
0.965710 0.121149 0
0.987887 0.127635 0
0.990075 0.116923 0
0.975771 0.100559 0
0.951743 0.084526 0
0.923226 0.070781 0
0.893439 0.059532 0
0.864162 0.050447 0
0.836307 0.043111 0
0.810284 0.037158 0
0.786222 0.032294 0
0.764097 0.028288 0
0.743806 0.024960 0
0.725210 0.022175 0
0.708159 0.019825 0
0.692503 0.017827 0
0.678103 0.016117 0
0.664829 0.014643 0
0.652566 0.013366 0
0.641209 0.012252 0
0.630665 0.011276 0
0.620853 0.010417 0
0.611700 0.009656 0
0.603142 0.008980 0
0.595122 0.008377 0
0.587590 0.007837 0
0.580501 0.007351 0
0.573816 0.006912 0
0.567499 0.006515 0
0.561520 0.006154 0
0.555851 0.005825 0
0.550466 0.005525 0
0.545344 0.005249 0
0.540464 0.004994 0
0.535809 0.004760 0
0.531363 0.004543 0
0.527111 0.004341 0
0.523041 0.004153 0
0.519141 0.003978 0
0.515401 0.003814 0
0.511810 0.003659 0
0.508361 0.003514 0
0.505046 0.003377 0
0.501858 0.003246 0
0.498791 0.003123 0
0.495839 0.003005 0
0.492998 0.002892 0
0.490262 0.002784 0
0.487628 0.002680 0
0.485092 0.002580 0
0.482651 0.002483 0
0.480303 0.002389 0
0.478044 0.002297 0
0.475872 0.002208 0
0.473787 0.002120 0
0.471785 0.002034 0
0.469867 0.001950 0
0.468031 0.001866 0
0.466276 0.001783 0
0.464602 0.001700 0
0.463008 0.001618 0
0.461495 0.001535 0
0.460063 0.001452 0
0.458712 0.001368 0
0.457442 0.001284 0
0.456255 0.001198 0
0.455150 0.001111 0
0.454128 0.001023 0
0.453191 0.000934 0
0.452338 0.000843 0
0.451570 0.000752 0
0.450887 0.000660 0
0.450289 0.000567 0
0.449775 0.000474 0
0.449346 0.000381 0
0.449000 0.000288 0
0.448736 0.000194 0
0.448553 0.000101 0
0.448449 0.000008 0
0.448427 -0.000083 0
0.448484 -0.000170 0
0.448616 -0.000257 0
0.448821 -0.000343 0
0.449100 -0.000430 0
0.449453 -0.000520 0
0.449881 -0.000614 0
0.450388 -0.000714 0
0.450979 -0.000822 0
0.451660 -0.000940 0
0.452440 -0.001071 0
0.453328 -0.001218 0
0.454339 -0.001384 0
0.455488 -0.001573 0
0.456793 -0.001789 0
0.458278 -0.002038 0
0.459968 -0.002324 0
0.461894 -0.002656 0
0.464093 -0.003040 0
0.466606 -0.003485 0
0.469484 -0.004004 0
0.472783 -0.004608 0
0.476571 -0.005315 0
0.480928 -0.006143 0
0.485949 -0.007118 0
0.491744 -0.008270 0
0.498446 -0.009637 0
0.506217 -0.011270 0
0.515247 -0.013235 0
0.525774 -0.015617 0
0.538087 -0.018533 0
0.552545 -0.022145 0
0.569597 -0.026679 0
0.589815 -0.032463 0
0.613924 -0.039982 0
0.642857 -0.049982 0
0.677803 -0.063637 0
0.720237 -0.082906 0
0.771831 -0.110989 0
0.833929 -0.154200 0
0.904968 -0.219183 0
0.977386 -0.335176 0
0.995768 -0.412657 0
0.995768 -0.206328 0
1.000000 0.000170 0
0.999869 0.000517 0
0.999604 0.000882 0
0.999195 0.001278 0
0.998628 0.001722 0
0.997884 0.002233 0
0.996936 0.002836 0
0.995748 0.003563 0
0.994274 0.004457 0
0.992454 0.005579 0
0.990209 0.007017 0
0.987441 0.008903 0
0.984023 0.011442 0
0.979806 0.014962 0
0.974638 0.020014 0
0.968469 0.027500 0
0.961561 0.039076 0
0.955833 0.056460 0
0.954478 0.083203 0
0.976673 0.108833 0
1.001713 0.118636 0
1.016362 0.114992 0
1.018681 0.104761 0
1.011397 0.092764 0
0.997804 0.081272 0
0.980483 0.071057 0
0.961211 0.062242 0
0.941155 0.054716 0
0.921067 0.048312 0
0.901416 0.042857 0
0.882486 0.038200 0
0.864434 0.034211 0
0.847333 0.030780 0
0.831203 0.027818 0
0.816029 0.025248 0
0.801777 0.023009 0
0.788398 0.021051 0
0.775839 0.019330 0
0.764045 0.017813 0
0.752960 0.016469 0
0.742533 0.015275 0
0.732711 0.014210 0
0.723449 0.013256 0
0.714703 0.012400 0
0.706433 0.011628 0
0.698601 0.010930 0
0.691175 0.010298 0
0.684123 0.009722 0
0.677418 0.009198 0
0.671034 0.008717 0
0.664948 0.008277 0
0.659140 0.007871 0
0.653589 0.007497 0
0.648279 0.007151 0
0.643195 0.006830 0
0.638321 0.006531 0
0.633646 0.006252 0
0.629156 0.005992 0
0.624842 0.005747 0
0.620695 0.005517 0
0.616704 0.005299 0
0.612862 0.005094 0
0.609163 0.004899 0
0.605599 0.004713 0
0.602165 0.004536 0
0.598855 0.004367 0
0.595665 0.004204 0
0.592590 0.004048 0
0.589627 0.003897 0
0.586772 0.003751 0
0.584023 0.003609 0
0.581375 0.003471 0
0.578829 0.003336 0
0.576381 0.003204 0
0.574029 0.003074 0
0.571774 0.002945 0
0.569612 0.002819 0
0.567545 0.002693 0
0.565571 0.002568 0
0.563690 0.002442 0
0.561902 0.002317 0
0.560208 0.002191 0
0.558606 0.002065 0
0.557099 0.001937 0
0.555686 0.001808 0
0.554368 0.001677 0
0.553145 0.001545 0
0.552018 0.001412 0
0.550988 0.001277 0
0.550054 0.001142 0
0.549217 0.001005 0
0.548476 0.000868 0
0.547830 0.000731 0
0.547280 0.000595 0
0.546823 0.000458 0
0.546458 0.000323 0
0.546183 0.000188 0
0.545997 0.000054 0
0.545898 -0.000078 0
0.545889 -0.000206 0
0.545966 -0.000331 0
0.546127 -0.000455 0
0.546370 -0.000580 0
0.546695 -0.000708 0
0.547104 -0.000842 0
0.547599 -0.000983 0
0.548186 -0.001135 0
0.548869 -0.001300 0
0.549658 -0.001484 0
0.550562 -0.001688 0
0.551594 -0.001919 0
0.552770 -0.002182 0
0.554109 -0.002482 0
0.555633 -0.002826 0
0.557369 -0.003222 0
0.559347 -0.003679 0
0.561603 -0.004208 0
0.564181 -0.004822 0
0.567127 -0.005534 0
0.570501 -0.006362 0
0.574368 -0.007329 0
0.578808 -0.008459 0
0.583910 -0.009785 0
0.589783 -0.011347 0
0.596555 -0.013194 0
0.604375 -0.015391 0
0.613424 -0.018019 0
0.623917 -0.021187 0
0.636113 -0.025039 0
0.650328 -0.029770 0
0.666945 -0.035651 0
0.686429 -0.043064 0
0.709349 -0.052565 0
0.736383 -0.064975 0
0.768312 -0.081548 0
0.805941 -0.104251 0
0.849827 -0.136085 0
0.899561 -0.182329 0
0.951218 -0.247364 0
0.995821 -0.350536 0
0.996466 -0.416267 0
0.996466 -0.208133 0
1.000000 0.000201 0
0.999876 0.000611 0
0.999624 0.001041 0
0.999236 0.001508 0
0.998699 0.002031 0
0.997997 0.002631 0
0.997104 0.003338 0
0.995990 0.004186 0
0.994617 0.005226 0
0.992933 0.006523 0
0.990877 0.008175 0
0.988376 0.010321 0
0.985348 0.013171 0
0.981715 0.017049 0
0.977446 0.022466 0
0.972685 0.030190 0
0.967983 0.041412 0
0.965255 0.057175 0
0.967536 0.078317 0
0.984751 0.098335 0
1.007165 0.108466 0
1.025320 0.108727 0
1.035736 0.102957 0
1.038736 0.094609 0
1.035901 0.085712 0
1.028858 0.077206 0
1.018922 0.069442 0
1.007081 0.062500 0
0.994064 0.056352 0
0.980399 0.050928 0
0.966472 0.046150 0
0.952554 0.041939 0
0.938837 0.038225 0
0.925453 0.034944 0
0.912486 0.032039 0
0.899988 0.029463 0
0.887988 0.027171 0
0.876497 0.025128 0
0.865512 0.023302 0
0.855024 0.021666 0
0.845018 0.020197 0
0.835473 0.018873 0
0.826368 0.017678 0
0.817682 0.016596 0
0.809391 0.015614 0
0.801475 0.014720 0
0.793910 0.013905 0
0.786676 0.013160 0
0.779754 0.012476 0
0.773125 0.011848 0
0.766772 0.011270 0
0.760678 0.010735 0
0.754829 0.010240 0
0.749210 0.009780 0
0.743809 0.009353 0
0.738613 0.008953 0
0.733612 0.008580 0
0.728795 0.008230 0
0.724154 0.007901 0
0.719678 0.007590 0
0.715362 0.007297 0
0.711197 0.007019 0
0.707177 0.006754 0
0.703296 0.006503 0
0.699548 0.006262 0
0.695930 0.006031 0
0.692435 0.005810 0
0.689061 0.005596 0
0.685804 0.005390 0
0.682661 0.005190 0
0.679629 0.004995 0
0.676705 0.004806 0
0.673887 0.004620 0
0.671175 0.004438 0
0.668566 0.004260 0
0.666059 0.004083 0
0.663653 0.003908 0
0.661348 0.003735 0
0.659143 0.003562 0
0.657038 0.003390 0
0.655033 0.003217 0
0.653128 0.003044 0
0.651324 0.002870 0
0.649621 0.002694 0
0.648019 0.002517 0
0.646519 0.002338 0
0.645122 0.002158 0
0.643828 0.001975 0
0.642636 0.001792 0
0.641548 0.001607 0
0.640563 0.001422 0
0.639681 0.001237 0
0.638902 0.001052 0
0.638223 0.000867 0
0.637644 0.000684 0
0.637164 0.000503 0
0.636779 0.000324 0
0.636489 0.000146 0
0.636289 -0.000031 0
0.636184 -0.000203 0
0.636173 -0.000371 0
0.636254 -0.000538 0
0.636423 -0.000705 0
0.636682 -0.000875 0
0.637031 -0.001051 0
0.637472 -0.001236 0
0.638008 -0.001435 0
0.638646 -0.001651 0
0.639393 -0.001888 0
0.640257 -0.002153 0
0.641252 -0.002450 0
0.642392 -0.002787 0
0.643694 -0.003172 0
0.645180 -0.003612 0
0.646876 -0.004118 0
0.648809 -0.004701 0
0.651015 -0.005374 0
0.653534 -0.006153 0
0.656413 -0.007057 0
0.659704 -0.008106 0
0.663472 -0.009327 0
0.667790 -0.010752 0
0.672742 -0.012419 0
0.678428 -0.014377 0
0.684963 -0.016685 0
0.692484 -0.019418 0
0.701149 -0.022673 0