# vtk DataFile Version 2.0
generated by CFD-lab course output (written by Tobias Neckel) 
ASCII

DATASET STRUCTURED_GRID
DIMENSIONS  142 42 1 
POINTS 5964 float

0.000000 0.250000 0
0.024648 0.250000 0
0.049296 0.250000 0
0.073944 0.250000 0
0.098592 0.250000 0
0.123239 0.250000 0
0.147887 0.250000 0
0.172535 0.250000 0
0.197183 0.250000 0
0.221831 0.250000 0
0.246479 0.250000 0
0.271127 0.250000 0
0.295775 0.250000 0
0.320423 0.250000 0
0.345070 0.250000 0
0.369718 0.250000 0
0.394366 0.250000 0
0.419014 0.250000 0
0.443662 0.250000 0
0.468310 0.250000 0
0.492958 0.250000 0
0.517606 0.250000 0
0.542254 0.250000 0
0.566901 0.250000 0
0.591549 0.250000 0
0.616197 0.250000 0
0.640845 0.250000 0
0.665493 0.250000 0
0.690141 0.250000 0
0.714789 0.250000 0
0.739437 0.250000 0
0.764085 0.250000 0
0.788732 0.250000 0
0.813380 0.250000 0
0.838028 0.250000 0
0.862676 0.250000 0
0.887324 0.250000 0
0.911972 0.250000 0
0.936620 0.250000 0
0.961268 0.250000 0
0.985915 0.250000 0
1.010563 0.250000 0
1.035211 0.250000 0
1.059859 0.250000 0
1.084507 0.250000 0
1.109155 0.250000 0
1.133803 0.250000 0
1.158451 0.250000 0
1.183099 0.250000 0
1.207746 0.250000 0
1.232394 0.250000 0
1.257042 0.250000 0
1.281690 0.250000 0
1.306338 0.250000 0
1.330986 0.250000 0
1.355634 0.250000 0
1.380282 0.250000 0
1.404930 0.250000 0
1.429577 0.250000 0
1.454225 0.250000 0
1.478873 0.250000 0
1.503521 0.250000 0
1.528169 0.250000 0
1.552817 0.250000 0
1.577465 0.250000 0
1.602113 0.250000 0
1.626761 0.250000 0
1.651408 0.250000 0
1.676056 0.250000 0
1.700704 0.250000 0
1.725352 0.250000 0
1.750000 0.250000 0
1.774648 0.250000 0
1.799296 0.250000 0
1.823944 0.250000 0
1.848592 0.250000 0
1.873239 0.250000 0
1.897887 0.250000 0
1.922535 0.250000 0
1.947183 0.250000 0
1.971831 0.250000 0
1.996479 0.250000 0
2.021127 0.250000 0
2.045775 0.250000 0
2.070423 0.250000 0
2.095070 0.250000 0
2.119718 0.250000 0
2.144366 0.250000 0
2.169014 0.250000 0
2.193662 0.250000 0
2.218310 0.250000 0
2.242958 0.250000 0
2.267606 0.250000 0
2.292254 0.250000 0
2.316901 0.250000 0
2.341549 0.250000 0
2.366197 0.250000 0
2.390845 0.250000 0
2.415493 0.250000 0
2.440141 0.250000 0
2.464789 0.250000 0
2.489437 0.250000 0
2.514085 0.250000 0
2.538732 0.250000 0
2.563380 0.250000 0
2.588028 0.250000 0
2.612676 0.250000 0
2.637324 0.250000 0
2.661972 0.250000 0
2.686620 0.250000 0
2.711268 0.250000 0
2.735915 0.250000 0
2.760563 0.250000 0
2.785211 0.250000 0
2.809859 0.250000 0
2.834507 0.250000 0
2.859155 0.250000 0
2.883803 0.250000 0
2.908451 0.250000 0
2.933099 0.250000 0
2.957746 0.250000 0
2.982394 0.250000 0
3.007042 0.250000 0
3.031690 0.250000 0
3.056338 0.250000 0
3.080986 0.250000 0
3.105634 0.250000 0
3.130282 0.250000 0
3.154930 0.250000 0
3.179577 0.250000 0
3.204225 0.250000 0
3.228873 0.250000 0
3.253521 0.250000 0
3.278169 0.250000 0
3.302817 0.250000 0
3.327465 0.250000 0
3.352113 0.250000 0
3.376761 0.250000 0
3.401408 0.250000 0
3.426056 0.250000 0
3.450704 0.250000 0
3.475352 0.250000 0
0.000000 0.261905 0
0.024648 0.261905 0
0.049296 0.261905 0
0.073944 0.261905 0
0.098592 0.261905 0
0.123239 0.261905 0
0.147887 0.261905 0
0.172535 0.261905 0
0.197183 0.261905 0
0.221831 0.261905 0
0.246479 0.261905 0
0.271127 0.261905 0
0.295775 0.261905 0
0.320423 0.261905 0
0.345070 0.261905 0
0.369718 0.261905 0
0.394366 0.261905 0
0.419014 0.261905 0
0.443662 0.261905 0
0.468310 0.261905 0
0.492958 0.261905 0
0.517606 0.261905 0
0.542254 0.261905 0
0.566901 0.261905 0
0.591549 0.261905 0
0.616197 0.261905 0
0.640845 0.261905 0
0.665493 0.261905 0
0.690141 0.261905 0
0.714789 0.261905 0
0.739437 0.261905 0
0.764085 0.261905 0
0.788732 0.261905 0
0.813380 0.261905 0
0.838028 0.261905 0
0.862676 0.261905 0
0.887324 0.261905 0
0.911972 0.261905 0
0.936620 0.261905 0
0.961268 0.261905 0
0.985915 0.261905 0
1.010563 0.261905 0
1.035211 0.261905 0
1.059859 0.261905 0
1.084507 0.261905 0
1.109155 0.261905 0
1.133803 0.261905 0
1.158451 0.261905 0
1.183099 0.261905 0
1.207746 0.261905 0
1.232394 0.261905 0
1.257042 0.261905 0
1.281690 0.261905 0
1.306338 0.261905 0
1.330986 0.261905 0
1.355634 0.261905 0
1.380282 0.261905 0
1.404930 0.261905 0
1.429577 0.261905 0
1.454225 0.261905 0
1.478873 0.261905 0
1.503521 0.261905 0
1.528169 0.261905 0
1.552817 0.261905 0
1.577465 0.261905 0
1.602113 0.261905 0
1.626761 0.261905 0
1.651408 0.261905 0
1.676056 0.261905 0
1.700704 0.261905 0
1.725352 0.261905 0
1.750000 0.261905 0
1.774648 0.261905 0
1.799296 0.261905 0
1.823944 0.261905 0
1.848592 0.261905 0
1.873239 0.261905 0
1.897887 0.261905 0
1.922535 0.261905 0
1.947183 0.261905 0
1.971831 0.261905 0
1.996479 0.261905 0
2.021127 0.261905 0
2.045775 0.261905 0
2.070423 0.261905 0
2.095070 0.261905 0
2.119718 0.261905 0
2.144366 0.261905 0
2.169014 0.261905 0
2.193662 0.261905 0
2.218310 0.261905 0
2.242958 0.261905 0
2.267606 0.261905 0
2.292254 0.261905 0
2.316901 0.261905 0
2.341549 0.261905 0
2.366197 0.261905 0
2.390845 0.261905 0
2.415493 0.261905 0
2.440141 0.261905 0
2.464789 0.261905 0
2.489437 0.261905 0
2.514085 0.261905 0
2.538732 0.261905 0
2.563380 0.261905 0
2.588028 0.261905 0
2.612676 0.261905 0
2.637324 0.261905 0
2.661972 0.261905 0
2.686620 0.261905 0
2.711268 0.261905 0
2.735915 0.261905 0
2.760563 0.261905 0
2.785211 0.261905 0
2.809859 0.261905 0
2.834507 0.261905 0
2.859155 0.261905 0
2.883803 0.261905 0
2.908451 0.261905 0
2.933099 0.261905 0
2.957746 0.261905 0
2.982394 0.261905 0
3.007042 0.261905 0
3.031690 0.261905 0
3.056338 0.261905 0
3.080986 0.261905 0
3.105634 0.261905 0
3.130282 0.261905 0
3.154930 0.261905 0
3.179577 0.261905 0
3.204225 0.261905 0
3.228873 0.261905 0
3.253521 0.261905 0
3.278169 0.261905 0
3.302817 0.261905 0
3.327465 0.261905 0
3.352113 0.261905 0
3.376761 0.261905 0
3.401408 0.261905 0
3.426056 0.261905 0
3.450704 0.261905 0
3.475352 0.261905 0
0.000000 0.273810 0
0.024648 0.273810 0
0.049296 0.273810 0
0.073944 0.273810 0
0.098592 0.273810 0
0.123239 0.273810 0
0.147887 0.273810 0
0.172535 0.273810 0
0.197183 0.273810 0
0.221831 0.273810 0
0.246479 0.273810 0
0.271127 0.273810 0
0.295775 0.273810 0
0.320423 0.273810 0
0.345070 0.273810 0
0.369718 0.273810 0
0.394366 0.273810 0
0.419014 0.273810 0
0.443662 0.273810 0
0.468310 0.273810 0
0.492958 0.273810 0
0.517606 0.273810 0
0.542254 0.273810 0
0.566901 0.273810 0
0.591549 0.273810 0
0.616197 0.273810 0
0.640845 0.273810 0
0.665493 0.273810 0
0.690141 0.273810 0
0.714789 0.273810 0
0.739437 0.273810 0
0.764085 0.273810 0
0.788732 0.273810 0
0.813380 0.273810 0
0.838028 0.273810 0
0.862676 0.273810 0
0.887324 0.273810 0
0.911972 0.273810 0
0.936620 0.273810 0
0.961268 0.273810 0
0.985915 0.273810 0
1.010563 0.273810 0
1.035211 0.273810 0
1.059859 0.273810 0
1.084507 0.273810 0
1.109155 0.273810 0
1.133803 0.273810 0
1.158451 0.273810 0
1.183099 0.273810 0
1.207746 0.273810 0
1.232394 0.273810 0
1.257042 0.273810 0
1.281690 0.273810 0
1.306338 0.273810 0
1.330986 0.273810 0
1.355634 0.273810 0
1.380282 0.273810 0
1.404930 0.273810 0
1.429577 0.273810 0
1.454225 0.273810 0
1.478873 0.273810 0
1.503521 0.273810 0
1.528169 0.273810 0
1.552817 0.273810 0
1.577465 0.273810 0
1.602113 0.273810 0
1.626761 0.273810 0
1.651408 0.273810 0
1.676056 0.273810 0
1.700704 0.273810 0
1.725352 0.273810 0
1.750000 0.273810 0
1.774648 0.273810 0
1.799296 0.273810 0
1.823944 0.273810 0
1.848592 0.273810 0
1.873239 0.273810 0
1.897887 0.273810 0
1.922535 0.273810 0
1.947183 0.273810 0
1.971831 0.273810 0
1.996479 0.273810 0
2.021127 0.273810 0
2.045775 0.273810 0
2.070423 0.273810 0
2.095070 0.273810 0
2.119718 0.273810 0
2.144366 0.273810 0
2.169014 0.273810 0
2.193662 0.273810 0
2.218310 0.273810 0
2.242958 0.273810 0
2.267606 0.273810 0
2.292254 0.273810 0
2.316901 0.273810 0
2.341549 0.273810 0
2.366197 0.273810 0
2.390845 0.273810 0
2.415493 0.273810 0
2.440141 0.273810 0
2.464789 0.273810 0
2.489437 0.273810 0
2.514085 0.273810 0
2.538732 0.273810 0
2.563380 0.273810 0
2.588028 0.273810 0
2.612676 0.273810 0
2.637324 0.273810 0
2.661972 0.273810 0
2.686620 0.273810 0
2.711268 0.273810 0
2.735915 0.273810 0
2.760563 0.273810 0
2.785211 0.273810 0
2.809859 0.273810 0
2.834507 0.273810 0
2.859155 0.273810 0
2.883803 0.273810 0
2.908451 0.273810 0
2.933099 0.273810 0
2.957746 0.273810 0
2.982394 0.273810 0
3.007042 0.273810 0
3.031690 0.273810 0
3.056338 0.273810 0
3.080986 0.273810 0
3.105634 0.273810 0
3.130282 0.273810 0
3.154930 0.273810 0
3.179577 0.273810 0
3.204225 0.273810 0
3.228873 0.273810 0
3.253521 0.273810 0
3.278169 0.273810 0
3.302817 0.273810 0
3.327465 0.273810 0
3.352113 0.273810 0
3.376761 0.273810 0
3.401408 0.273810 0
3.426056 0.273810 0
3.450704 0.273810 0
3.475352 0.273810 0
0.000000 0.285714 0
0.024648 0.285714 0
0.049296 0.285714 0
0.073944 0.285714 0
0.098592 0.285714 0
0.123239 0.285714 0
0.147887 0.285714 0
0.172535 0.285714 0
0.197183 0.285714 0
0.221831 0.285714 0
0.246479 0.285714 0
0.271127 0.285714 0
0.295775 0.285714 0
0.320423 0.285714 0
0.345070 0.285714 0
0.369718 0.285714 0
0.394366 0.285714 0
0.419014 0.285714 0
0.443662 0.285714 0
0.468310 0.285714 0
0.492958 0.285714 0
0.517606 0.285714 0
0.542254 0.285714 0
0.566901 0.285714 0
0.591549 0.285714 0
0.616197 0.285714 0
0.640845 0.285714 0
0.665493 0.285714 0
0.690141 0.285714 0
0.714789 0.285714 0
0.739437 0.285714 0
0.764085 0.285714 0
0.788732 0.285714 0
0.813380 0.285714 0
0.838028 0.285714 0
0.862676 0.285714 0
0.887324 0.285714 0
0.911972 0.285714 0
0.936620 0.285714 0
0.961268 0.285714 0
0.985915 0.285714 0
1.010563 0.285714 0
1.035211 0.285714 0
1.059859 0.285714 0
1.084507 0.285714 0
1.109155 0.285714 0
1.133803 0.285714 0
1.158451 0.285714 0
1.183099 0.285714 0
1.207746 0.285714 0
1.232394 0.285714 0
1.257042 0.285714 0
1.281690 0.285714 0
1.306338 0.285714 0
1.330986 0.285714 0
1.355634 0.285714 0
1.380282 0.285714 0
1.404930 0.285714 0
1.429577 0.285714 0
1.454225 0.285714 0
1.478873 0.285714 0
1.503521 0.285714 0
1.528169 0.285714 0
1.552817 0.285714 0
1.577465 0.285714 0
[...]
POINT_DATA 5964 

VECTORS velocity float
1.000000 0.000000 0
0.999859 0.000000 0
0.999554 0.000000 0
0.999071 0.000000 0
0.998411 0.000000 0
0.997586 0.000000 0
0.996604 0.000000 0
0.995453 0.000000 0
0.994098 0.000000 0
0.992474 0.000000 0
0.990485 0.000000 0
0.987988 0.000000 0
0.984766 0.000000 0
0.980465 0.000000 0
0.974481 0.000000 0
0.965643 0.000000 0
0.951660 0.000000 0
0.924697 0.000000 0
0.874079 0.000000 0
-0.000042 0.000000 0
-0.000059 0.000000 0
-0.000094 0.000000 0
-0.000134 0.000000 0
-0.000164 0.000000 0
-0.000178 0.000000 0
-0.000182 0.000000 0
-0.000180 0.000000 0
-0.000178 0.000000 0
-0.000175 0.000000 0
-0.000174 0.000000 0
-0.000172 0.000000 0
-0.000171 0.000000 0
-0.000171 0.000000 0
-0.000170 0.000000 0
-0.000170 0.000000 0
-0.000170 0.000000 0
-0.000169 0.000000 0
-0.000169 0.000000 0
-0.000169 0.000000 0
-0.000169 0.000000 0
-0.000168 0.000000 0
-0.000168 0.000000 0
-0.000168 0.000000 0
-0.000168 0.000000 0
-0.000168 0.000000 0
-0.000167 0.000000 0
-0.000167 0.000000 0
-0.000167 0.000000 0
-0.000167 0.000000 0
-0.000167 0.000000 0
-0.000167 0.000000 0
-0.000167 0.000000 0
-0.000166 0.000000 0
-0.000166 0.000000 0
-0.000166 0.000000 0
-0.000166 0.000000 0
-0.000166 0.000000 0
-0.000166 0.000000 0
-0.000166 0.000000 0
-0.000166 0.000000 0
-0.000165 0.000000 0
-0.000165 0.000000 0
-0.000165 0.000000 0
-0.000165 0.000000 0
-0.000165 0.000000 0
-0.000165 0.000000 0
-0.000165 0.000000 0
-0.000165 0.000000 0
-0.000165 0.000000 0
-0.000164 0.000000 0
-0.000164 0.000000 0
-0.000164 0.000000 0
-0.000164 0.000000 0
-0.000164 0.000000 0
-0.000164 0.000000 0
-0.000164 0.000000 0
-0.000164 0.000000 0
-0.000164 0.000000 0
-0.000164 0.000000 0
-0.000164 0.000000 0
-0.000163 0.000000 0
-0.000163 0.000000 0
-0.000163 0.000000 0
-0.000163 0.000000 0
-0.000163 0.000000 0
-0.000163 0.000000 0
-0.000163 0.000000 0
-0.000163 0.000000 0
-0.000163 0.000000 0
-0.000163 0.000000 0
-0.000163 0.000000 0
-0.000163 0.000000 0
-0.000162 0.000000 0
-0.000162 0.000000 0
-0.000162 0.000000 0
-0.000162 0.000000 0
-0.000162 0.000000 0
-0.000162 0.000000 0
-0.000162 0.000000 0
-0.000162 0.000000 0
-0.000162 0.000000 0
-0.000162 0.000000 0
-0.000162 0.000000 0
-0.000162 0.000000 0
-0.000162 0.000000 0
-0.000162 0.000000 0
-0.000161 0.000000 0
-0.000161 0.000000 0
-0.000161 0.000000 0
-0.000161 0.000000 0
-0.000161 0.000000 0
-0.000161 0.000000 0
-0.000161 0.000000 0
-0.000161 0.000000 0
-0.000161 0.000000 0
-0.000161 0.000000 0
-0.000161 0.000000 0
-0.000161 0.000000 0
-0.000160 0.000000 0
-0.000160 0.000000 0
-0.000160 0.000000 0
-0.000160 0.000000 0
-0.000160 0.000000 0
-0.000159 0.000000 0
-0.000159 0.000000 0
-0.000159 0.000000 0
-0.000158 0.000000 0
-0.000157 0.000000 0
-0.000157 0.000000 0
-0.000156 0.000000 0
-0.000154 0.000000 0
-0.000153 0.000000 0
-0.000151 0.000000 0
-0.000148 0.000000 0
-0.000144 0.000000 0
-0.000139 0.000000 0
-0.000131 0.000000 0
-0.000119 0.000000 0
-0.000099 0.000000 0
-0.000071 0.000000 0
0.000013 0.000000 0
0.497585 0.000000 0
1.000000 0.000037 0
0.999860 0.000113 0
0.999557 0.000195 0
0.999079 0.000281 0
0.998426 0.000364 0
0.997611 0.000442 0
0.996639 0.000521 0
0.995500 0.000611 0
0.994159 0.000725 0
0.992553 0.000878 0
0.990587 0.001089 0
0.988122 0.001387 0
0.984946 0.001823 0
0.980722 0.002490 0
0.974876 0.003586 0
0.966336 0.005518 0
0.953043 0.009896 0
0.929092 0.018745 0
0.886550 0.076431 0
0.747607 0.109514 0
0.619445 0.070070 0
0.532758 0.036104 0
0.484478 0.015704 0
0.461857 0.005669 0
0.452975 0.001532 0
0.450092 0.000158 0
0.449294 -0.000139 0
0.449017 -0.000111 0
0.448786 -0.000039 0
0.448523 0.000010 0
0.448248 0.000035 0
0.447984 0.000044 0
0.447747 0.000045 0
0.447541 0.000042 0
0.447364 0.000038 0
0.447213 0.000034 0
0.447086 0.000030 0
0.446979 0.000026 0
0.446889 0.000023 0
0.446814 0.000020 0
0.446750 0.000018 0
0.446697 0.000015 0
0.446653 0.000014 0
0.446616 0.000012 0
0.446585 0.000011 0
0.446560 0.000010 0
0.446538 0.000009 0
0.446521 0.000008 0
0.446506 0.000007 0
0.446495 0.000006 0
0.446485 0.000006 0
0.446477 0.000006 0
0.446471 0.000005 0
0.446467 0.000005 0
0.446463 0.000005 0
0.446461 0.000004 0
0.446459 0.000004 0
0.446458 0.000004 0
0.446458 0.000004 0
0.446458 0.000004 0
0.446459 0.000003 0
0.446460 0.000003 0
0.446461 0.000003 0
0.446463 0.000003 0
0.446465 0.000003 0
0.446467 0.000003 0
0.446470 0.000003 0
0.446472 0.000003 0
0.446475 0.000002 0
0.446478 0.000002 0
0.446482 0.000002 0
0.446485 0.000002 0
0.446489 0.000002 0
0.446492 0.000002 0
0.446496 0.000002 0
0.446500 0.000002 0
0.446504 0.000002 0
0.446509 0.000002 0
0.446513 0.000002 0
0.446518 0.000001 0
0.446523 0.000001 0
0.446528 0.000001 0
0.446533 0.000001 0
0.446539 0.000001 0
0.446544 0.000001 0
0.446550 0.000001 0
0.446556 0.000001 0
0.446563 0.000000 0
0.446570 0.000000 0
0.446577 0.000000 0
0.446585 -0.000000 0
0.446593 -0.000000 0
0.446602 -0.000001 0
0.446611 -0.000001 0
0.446621 -0.000001 0
0.446632 -0.000002 0
0.446644 -0.000002 0
0.446657 -0.000003 0
0.446672 -0.000003 0
0.446688 -0.000004 0
0.446706 -0.000005 0
0.446726 -0.000005 0
0.446749 -0.000006 0
0.446774 -0.000008 0
0.446803 -0.000009 0
0.446836 -0.000011 0
0.446874 -0.000013 0
0.446918 -0.000015 0
0.446968 -0.000017 0
0.447026 -0.000020 0
0.447093 -0.000024 0
0.447171 -0.000028 0
0.447262 -0.000033 0
0.447369 -0.000039 0
0.447494 -0.000047 0
0.447641 -0.000055 0
0.447813 -0.000065 0
0.448017 -0.000078 0
0.448259 -0.000092 0
0.448545 -0.000110 0
0.448885 -0.000132 0
0.449292 -0.000158 0
0.449779 -0.000190 0
0.450364 -0.000230 0
0.451072 -0.000279 0
0.451931 -0.000342 0
0.452982 -0.000421 0
0.454276 -0.000523 0
0.455885 -0.000658 0
0.457906 -0.000837 0
0.460480 -0.001082 0
0.463809 -0.001428 0
0.468202 -0.001930 0
0.474143 -0.002691 0
0.482429 -0.003909 0
0.494452 -0.005998 0
0.512828 -0.009925 0
0.542864 -0.018618 0
0.597339 -0.038063 0
0.702820 -0.149483 0
0.995695 -0.247519 0
0.995668 -0.123739 0
1.000000 0.000072 0
0.999862 0.000221 0
0.999564 0.000383 0
0.999097 0.000552 0
0.998462 0.000716 0
0.997669 0.000870 0
0.996725 0.001025 0
0.995618 0.001204 0
0.994316 0.001430 0
0.992759 0.001732 0
0.990857 0.002146 0
0.988483 0.002731 0
0.985443 0.003580 0
0.981439 0.004870 0
0.975989 0.006954 0
0.968269 0.010551 0
0.956822 0.017995 0
0.939372 0.032122 0
0.912803 0.087662 0
0.926535 0.129016 0
0.895033 0.103776 0
0.850441 0.065194 0
0.814118 0.034251 0
0.791435 0.015222 0
0.779480 0.005688 0
0.773725 0.001784 0
0.770898 0.000525 0
0.769298 0.000251 0
0.768191 0.000244 0
0.767312 0.000266 0
0.766580 0.000266 0
0.765964 0.000247 0
0.765449 0.000220 0
0.765018 0.000191 0
0.764659 0.000164 0
0.764360 0.000140 0
0.764110 0.000119 0
0.763902 0.000101 0
0.763728 0.000086 0
0.763583 0.000073 0
0.763461 0.000062 0
0.763360 0.000053 0
0.763275 0.000045 0
0.763204 0.000038 0
0.763144 0.000033 0
0.763095 0.000028 0
0.763054 0.000024 0
0.763019 0.000021 0
0.762991 0.000018 0
0.762967 0.000015 0
0.762948 0.000013 0
0.762932 0.000012 0
0.762919 0.000010 0
0.762909 0.000009 0
0.762901 0.000008 0
0.762895 0.000007 0
0.762890 0.000006 0
0.762886 0.000005 0
0.762884 0.000005 0
0.762883 0.000004 0
0.762882 0.000004 0
0.762882 0.000003 0
0.762883 0.000003 0
0.762884 0.000003 0
0.762886 0.000002 0
0.762888 0.000002 0
0.762891 0.000002 0
0.762894 0.000002 0
0.762897 0.000001 0
0.762901 0.000001 0
0.762904 0.000001 0
0.762908 0.000001 0
0.762912 0.000001 0
0.762917 0.000000 0
0.762921 0.000000 0
0.762926 -0.000000 0
0.762931 -0.000000 0
0.762936 -0.000000 0
0.762942 -0.000001 0
0.762947 -0.000001 0
0.762953 -0.000001 0
0.762959 -0.000001 0
0.762966 -0.000002 0
0.762972 -0.000002 0
0.762979 -0.000002 0
0.762986 -0.000002 0
0.762994 -0.000003 0
0.763002 -0.000003 0
0.763010 -0.000004 0
0.763019 -0.000004 0
0.763028 -0.000005 0
0.763038 -0.000005 0
0.763049 -0.000006 0
0.763061 -0.000007 0
0.763073 -0.000007 0
0.763087 -0.000008 0
0.763102 -0.000010 0
0.763119 -0.000011 0
0.763137 -0.000012 0
0.763158 -0.000014 0
0.763180 -0.000016 0
0.763206 -0.000018 0
0.763235 -0.000021 0
0.763268 -0.000024 0
0.763305 -0.000028 0
0.763347 -0.000032 0
0.763396 -0.000037 0
0.763453 -0.000043 0
0.763518 -0.000050 0
0.763593 -0.000059 0
0.763681 -0.000068 0
0.763782 -0.000080 0
0.763901 -0.000094 0
0.764041 -0.000110 0
0.764204 -0.000130 0
0.764395 -0.000153 0
0.764621 -0.000181 0
0.764888 -0.000214 0
0.765203 -0.000254 0
0.765577 -0.000302 0
0.766021 -0.000360 0
0.766550 -0.000430 0
0.767184 -0.000517 0
0.767944 -0.000624 0
0.768860 -0.000756 0
0.769970 -0.000922 0
0.771322 -0.001132 0
0.772980 -0.001401 0
0.775030 -0.001753 0
0.777588 -0.002219 0
0.780819 -0.002851 0
0.784955 -0.003729 0
0.790342 -0.004991 0
0.797504 -0.006871 0
0.807268 -0.009809 0
0.820993 -0.014682 0
0.841002 -0.023383 0
0.871335 -0.040818 0
0.918617 -0.077258 0
0.993748 -0.192403 0
0.996777 -0.282810 0
0.996751 -0.141353 0
1.000000 0.000106 0
0.999865 0.000327 0
0.999575 0.000566 0
0.999122 0.000815 0
0.998508 0.001056 0
0.997743 0.001283 0
0.996834 0.001513 0
0.995769 0.001776 0
0.994520 0.002108 0
0.993031 0.002551 0
0.991223 0.003156 0
0.988982 0.004004 0
0.986145 0.005227 0
0.982473 0.007058 0
0.977609 0.009949 0
0.971042 0.014777 0
0.962052 0.023855 0
0.950987 0.040008 0
0.938289 0.082633 0
0.978022 0.118098 0
0.996456 0.106824 0
0.992357 0.075187 0
0.978941 0.044205 0
0.965377 0.022401 0
0.955135 0.010088 0
0.948351 0.004304 0
0.944039 0.002001 0
0.941228 0.001198 0
0.939279 0.000922 0
0.937837 0.000790 0
0.936719 0.000688 0
0.935828 0.000592 0
0.935106 0.000504 0
0.934517 0.000425 0
0.934032 0.000358 0
0.933633 0.000301 0
0.933302 0.000253 0
0.933027 0.000212 0
0.932799 0.000179 0
0.932609 0.000151 0
0.932450 0.000127 0
0.932318 0.000107 0
0.932207 0.000091 0
0.932114 0.000077 0
0.932037 0.000065 0
0.931973 0.000055 0
0.931919 0.000047 0
0.931874 0.000040 0
0.931836 0.000034 0
0.931805 0.000029 0
0.931780 0.000024 0
0.931759 0.000021 0
0.931741 0.000018 0
0.931727 0.000015 0
0.931716 0.000013 0
0.931707 0.000011 0
0.931700 0.000010 0
0.931694 0.000008 0
0.931690 0.000007 0
0.931687 0.000006 0
0.931685 0.000005 0
0.931684 0.000004 0
0.931683 0.000003 0
0.931684 0.000003 0
0.931685 0.000002 0
0.931686 0.000002 0
0.931688 0.000001 0
0.931690 0.000001 0
0.931692 0.000001 0
0.931695 0.000000 0
0.931697 -0.000000 0
0.931700 -0.000000 0
0.931704 -0.000001 0
0.931707 -0.000001 0
0.931711 -0.000001 0
0.931715 -0.000002 0
0.931719 -0.000002 0
0.931723 -0.000002 0
0.931727 -0.000003 0
0.931732 -0.000003 0
0.931736 -0.000003 0
0.931741 -0.000004 0
0.931746 -0.000004 0
0.931751 -0.000004 0
0.931757 -0.000005 0
0.931763 -0.000005 0
0.931769 -0.000006 0
0.931775 -0.000006 0
0.931782 -0.000007 0
0.931789 -0.000008 0
0.931797 -0.000009 0
0.931805 -0.000010 0
0.931815 -0.000011 0
0.931824 -0.000012 0
0.931835 -0.000013 0
0.931847 -0.000015 0
0.931860 -0.000017 0
0.931875 -0.000019 0
0.931891 -0.000021 0
0.931910 -0.000024 0
0.931931 -0.000027 0
0.931954 -0.000031 0
0.931981 -0.000036 0
0.932012 -0.000041 0
0.932048 -0.000047 0
0.932089 -0.000054 0
0.932136 -0.000063 0
0.932191 -0.000073 0
0.932254 -0.000085 0
0.932328 -0.000099 0
0.932415 -0.000115 0
0.932516 -0.000135 0
0.932634 -0.000158 0
0.932773 -0.000185 0
0.932937 -0.000218 0
0.933129 -0.000256 0
0.933356 -0.000303 0
0.933624 -0.000358 0
0.933941 -0.000425 0
0.934317 -0.000505 0
0.934764 -0.000602 0
0.935297 -0.000719 0
0.935934 -0.000863 0
0.936697 -0.001039 0
0.937614 -0.001258 0
0.938723 -0.001530 0
0.940068 -0.001875 0
0.941710 -0.002314 0
0.943727 -0.002883 0
0.946227 -0.003633 0
0.949354 -0.004641 0
0.953308 -0.006027 0
0.958375 -0.007990 0
0.964966 -0.010866 0
0.973688 -0.015254 0
0.985431 -0.022291 0
1.001451 -0.034239 0
1.023227 -0.056106 0
1.050330 -0.097188 0
1.075916 -0.187234 0
0.997826 -0.250349 0
0.997799 -0.125107 0
1.000000 0.000139 0
0.999869 0.000430 0
0.999588 0.000744 0
0.999151 0.001069 0
0.998561 0.001383 0
0.997827 0.001680 0
0.996956 0.001981 0
0.995940 0.002323 0
0.994752 0.002754 0
0.993346 0.003326 0
0.991652 0.004104 0
0.989578 0.005185 0
0.986994 0.006726 0
0.983730 0.008995 0
0.979569 0.012478 0
0.974295 0.018067 0
0.967844 0.027683 0
0.961830 0.043601 0
0.958895 0.074606 0
0.994531 0.100924 0
1.026751 0.096854 0
1.041532 0.073655 0
1.042298 0.047284 0
1.036202 0.026722 0
1.028591 0.013914 0
1.022026 0.007145 0
1.017130 0.003967 0
1.013668 0.002552 0
1.011215 0.001884 0
1.009426 0.001504 0
1.008073 0.001238 0
1.007019 0.001028 0
1.006180 0.000855 0
1.005502 0.000711 0
1.004950 0.000593 0
1.004496 0.000494 0
1.004123 0.000413 0
1.003813 0.000345 0
1.003557 0.000289 0
1.003343 0.000243 0
1.003165 0.000204 0
1.003017 0.000172 0
1.002893 0.000145 0
1.002789 0.000122 0
1.002702 0.000103 0
1.002630 0.000087 0
1.002569 0.000073 0
1.002519 0.000062 0
1.002477 0.000052 0
1.002442 0.000044 0
1.002412 0.000038 0
1.002388 0.000032 0
1.002368 0.000027 0
1.002352 0.000023 0
1.002338 0.000019 0
1.002327 0.000016 0
1.002318 0.000014 0
1.002311 0.000012 0
1.002306 0.000010 0
1.002301 0.000008 0
1.002298 0.000007 0
1.002296 0.000006 0
1.002294 0.000005 0
1.002293 0.000004 0
1.002293 0.000003 0
1.002293 0.000002 0
1.002294 0.000001 0
1.002295 0.000001 0
1.002296 0.000000 0
1.002297 -0.000000 0
1.002299 -0.000001 0
1.002301 -0.000001 0
1.002303 -0.000001 0
1.002305 -0.000002 0
1.002307 -0.000002 0
1.002310 -0.000003 0
1.002312 -0.000003 0
1.002315 -0.000003 0
1.002318 -0.000004 0
1.002320 -0.000004 0
1.002323 -0.000005 0
1.002327 -0.000005 0
1.002330 -0.000006 0
1.002333 -0.000006 0
1.002337 -0.000007 0
1.002341 -0.000007 0
1.002345 -0.000008 0
1.002349 -0.000009 0
1.002354 -0.000009 0
1.002359 -0.000010 0
1.002365 -0.000012 0
1.002371 -0.000013 0
1.002378 -0.000014 0
1.002385 -0.000016 0
1.002393 -0.000018 0
1.002403 -0.000020 0
1.002413 -0.000022 0
1.002425 -0.000025 0
1.002439 -0.000028 0
1.002454 -0.000032 0
1.002472 -0.000037 0
1.002492 -0.000042 0
1.002516 -0.000048 0
1.002543 -0.000056 0
1.002574 -0.000064 0
1.002611 -0.000074 0
1.002654 -0.000086 0
1.002704 -0.000100 0
1.002762 -0.000116 0
1.002831 -0.000136 0
1.002911 -0.000159 0
1.003006 -0.000186 0
1.003117 -0.000218 0
1.003247 -0.000256 0
1.003401 -0.000301 0
1.003583 -0.000355 0
1.003798 -0.000419 0
1.004052 -0.000496 0
1.004353 -0.000588 0
1.004710 -0.000699 0
1.005135 -0.000833 0
1.005640 -0.000995 0
1.006243 -0.001193 0
1.006965 -0.001435 0
1.007831 -0.001734 0
1.008874 -0.002106 0
1.010135 -0.002574 0
1.011667 -0.003169 0
1.013538 -0.003935 0
1.015837 -0.004936 0
1.018681 -0.006270 0
1.022229 -0.008086 0
1.026691 -0.010622 0
1.032348 -0.014267 0
1.039565 -0.019693 0
1.048767 -0.028091 0
1.060267 -0.041638 0
1.073615 -0.064427 0
1.084782 -0.102706 0
1.080938 -0.167044 0
0.998607 -0.207343 0
0.998580 -0.103604 0
1.000000 0.000171 0
0.999874 0.000529 0
0.999605 0.000915 0
0.999186 0.001313 0
0.998622 0.001697 0
0.997922 0.002060 0
0.997095 0.002426 0
0.996134 0.002842 0
0.995017 0.003363 0
0.993706 0.004050 0
0.992145 0.004978 0
0.990261 0.006256 0
0.987966 0.008053 0
0.985157 0.010646 0
0.981747 0.014508 0
0.977759 0.020442 0
0.973587 0.029877 0
0.971216 0.044332 0
0.974065 0.066841 0
1.001591 0.085326 0
1.032292 0.084125 0
1.051907 0.067680 0
1.058770 0.046781 0
1.057195 0.029022 0
1.052051 0.016937 0
1.046482 0.009842 0
1.041816 0.006039 0
1.038288 0.004057 0
1.035704 0.002972 0
1.033798 0.002309 0
1.032358 0.001852 0
1.031242 0.001508 0
1.030359 0.001238 0
1.029649 0.001021 0
1.029073 0.000845 0
1.028601 0.000702 0
1.028212 0.000584 0
1.027890 0.000488 0
1.027624 0.000408 0
1.027402 0.000341 0
1.027217 0.000286 0
1.027063 0.000240 0
1.026934 0.000202 0
1.026827 0.000170 0
1.026737 0.000143 0
1.026661 0.000121 0
1.026598 0.000102 0
1.026546 0.000086 0
1.026502 0.000073 0
1.026465 0.000061 0
1.026434 0.000052 0
1.026409 0.000044 0
1.026388 0.000037 0
1.026370 0.000031 0
1.026355 0.000026 0
1.026344 0.000022 0
1.026334 0.000019 0
1.026326 0.000016 0
1.026320 0.000013 0
1.026314 0.000011 0
1.026310 0.000009 0
1.026307 0.000007 0
1.026305 0.000006 0
1.026303 0.000005 0
1.026302 0.000004 0
1.026302 0.000003 0
1.026301 0.000002 0
1.026302 0.000001 0
1.026302 0.000001 0
1.026303 0.000000 0
1.026303 -0.000001 0
1.026304 -0.000001 0
1.026305 -0.000002 0
1.026307 -0.000002 0
1.026308 -0.000002 0
1.026310 -0.000003 0
1.026311 -0.000003 0
1.026313 -0.000004 0
1.026314 -0.000004 0
1.026316 -0.000005 0
1.026318 -0.000005 0
1.026320 -0.000006 0
1.026322 -0.000006 0
1.026325 -0.000007 0
1.026327 -0.000008 0
1.026330 -0.000008 0
1.026333 -0.000009 0
1.026336 -0.000010 0
1.026339 -0.000011 0
1.026343 -0.000012 0
1.026347 -0.000013 0
1.026352 -0.000015 0
1.026357 -0.000017 0
1.026363 -0.000019 0
1.026369 -0.000021 0
1.026377 -0.000024 0
1.026386 -0.000027 0
1.026396 -0.000030 0
1.026407 -0.000034 0
1.026420 -0.000039 0
1.026436 -0.000045 0
1.026454 -0.000052 0
1.026475 -0.000059 0
1.026499 -0.000069 0
1.026528 -0.000079 0
1.026562 -0.000092 0
1.026601 -0.000107 0
1.026647 -0.000125 0
1.026701 -0.000145 0
1.026765 -0.000170 0
1.026840 -0.000199 0
1.026929 -0.000233 0
1.027033 -0.000274 0
1.027156 -0.000322 0
1.027301 -0.000379 0
1.027473 -0.000448 0
1.027676 -0.000529 0
1.027916 -0.000626 0
1.028201 -0.000742 0
1.028538 -0.000882 0
1.028939 -0.001050 0
1.029416 -0.001254 0
1.029985 -0.001503 0
1.030664 -0.001806 0
1.031477 -0.002180 0
1.032452 -0.002643 0
1.033626 -0.003223 0
1.035045 -0.003957 0
1.036765 -0.004897 0
1.038860 -0.006117 0
1.041423 -0.007728 0
1.044569 -0.009896 0
1.048444 -0.012878 0
1.053214 -0.017084 0
1.059044 -0.023184 0
1.066000 -0.032290 0
1.073758 -0.046241 0
1.080812 -0.067946 0
1.082148 -0.100724 0
1.065809 -0.145612 0
0.999135 -0.170835 0
0.999107 -0.085357 0
1.000000 0.000202 0
0.999880 0.000623 0
0.999624 0.001078 0
0.999227 0.001546 0
0.998692 0.001996 0
0.998032 0.002419 0
0.997254 0.002846 0
0.996356 0.003329 0
0.995319 0.003929 0
0.994115 0.004715 0
0.992701 0.005769 0
0.991027 0.007205 0
0.989042 0.009193 0
0.986706 0.012001 0
0.984039 0.016053 0
0.981235 0.022010 0
0.978937 0.030845 0
0.979048 0.043372 0
0.984771 0.059937 0
1.005824 0.072802 0
1.031052 0.072554 0
1.049599 0.060869 0
1.058274 0.044732 0
1.059268 0.029968 0
1.056238 0.019090 0
1.052011 0.012091 0
1.048058 0.007927 0
1.044860 0.005506 0
1.042414 0.004054 0
1.040563 0.003122 0
1.039146 0.002474 0
1.038043 0.001995 0
1.037167 0.001626 0
1.036463 0.001335 0
1.035891 0.001101 0
1.035422 0.000912 0
1.035036 0.000758 0
1.034717 0.000631 0
1.034452 0.000527 0
1.034232 0.000441 0
1.034048 0.000369 0
1.033895 0.000310 0
1.033767 0.000260 0
1.033660 0.000219 0
1.033570 0.000184 0
1.033495 0.000155 0
1.033432 0.000131 0
1.033379 0.000110 0
1.033335 0.000093 0
1.033299 0.000079 0
1.033268 0.000066 0
1.033242 0.000056 0
1.033221 0.000047 0
1.033203 0.000040 0
1.033189 0.000034 0
1.033177 0.000028 0
1.033167 0.000024 0
1.033159 0.000020 0
1.033152 0.000017 0
1.033147 0.000014 0
1.033142 0.000012 0
1.033139 0.000010 0
1.033136 0.000008 0
1.033134 0.000006 0
1.033133 0.000005 0
1.033132 0.000004 0
1.033131 0.000003 0
1.033131 0.000002 0
1.033131 0.000001 0
1.033131 0.000000 0
1.033132 -0.000000 0
1.033132 -0.000001 0
1.033133 -0.000001 0
1.033134 -0.000002 0
1.033135 -0.000002 0
1.033136 -0.000003 0
1.033137 -0.000003 0
1.033138 -0.000004 0
1.033140 -0.000004 0
1.033141 -0.000005 0
1.033142 -0.000005 0
1.033144 -0.000006 0
1.033146 -0.000007 0
1.033147 -0.000007 0
1.033149 -0.000008 0
1.033151 -0.000009 0
1.033154 -0.000010 0
1.033156 -0.000011 0
1.033159 -0.000012 0
1.033162 -0.000013 0
1.033165 -0.000015 0
1.033169 -0.000017 0
1.033174 -0.000019 0
1.033179 -0.000021 0
1.033184 -0.000024 0
1.033191 -0.000027 0
1.033199 -0.000030 0
1.033208 -0.000035 0
1.033218 -0.000040 0
1.033230 -0.000045 0
1.033245 -0.000052 0
1.033261 -0.000060 0
1.033281 -0.000070 0
1.033303 -0.000081 0
1.033330 -0.000093 0
1.033362 -0.000109 0
1.033399 -0.000127 0
1.033442 -0.000148 0
1.033493 -0.000173 0
1.033554 -0.000202 0
1.033625 -0.000237 0
1.033709 -0.000278 0
1.033808 -0.000327 0
1.033925 -0.000385 0
1.034063 -0.000454 0
1.034226 -0.000535 0
1.034418 -0.000633 0
1.034647 -0.000749 0
1.034917 -0.000888 0
1.035237 -0.001055 0