# vtk DataFile Version 2.0
generated by CFD-lab course output (written by Tobias Neckel) 
ASCII

DATASET STRUCTURED_GRID
DIMENSIONS  142 42 1 
POINTS 5964 float

0.000000 0.250000 0
0.024648 0.250000 0
0.049296 0.250000 0
0.073944 0.250000 0
0.098592 0.250000 0
0.123239 0.250000 0
0.147887 0.250000 0
0.172535 0.250000 0
0.197183 0.250000 0
0.221831 0.250000 0
0.246479 0.250000 0
0.271127 0.250000 0
0.295775 0.250000 0
0.320423 0.250000 0
0.345070 0.250000 0
0.369718 0.250000 0
0.394366 0.250000 0
0.419014 0.250000 0
0.443662 0.250000 0
0.468310 0.250000 0
0.492958 0.250000 0
0.517606 0.250000 0
0.542254 0.250000 0
0.566901 0.250000 0
0.591549 0.250000 0
0.616197 0.250000 0
0.640845 0.250000 0
0.665493 0.250000 0
0.690141 0.250000 0
0.714789 0.250000 0
0.739437 0.250000 0
0.764085 0.250000 0
0.788732 0.250000 0
0.813380 0.250000 0
0.838028 0.250000 0
0.862676 0.250000 0
0.887324 0.250000 0
0.911972 0.250000 0
0.936620 0.250000 0
0.961268 0.250000 0
0.985915 0.250000 0
1.010563 0.250000 0
1.035211 0.250000 0
1.059859 0.250000 0
1.084507 0.250000 0
1.109155 0.250000 0
1.133803 0.250000 0
1.158451 0.250000 0
1.183099 0.250000 0
1.207746 0.250000 0
1.232394 0.250000 0
1.257042 0.250000 0
1.281690 0.250000 0
1.306338 0.250000 0
1.330986 0.250000 0
1.355634 0.250000 0
1.380282 0.250000 0
1.404930 0.250000 0
1.429577 0.250000 0
1.454225 0.250000 0
1.478873 0.250000 0
1.503521 0.250000 0
1.528169 0.250000 0
1.552817 0.250000 0
1.577465 0.250000 0
1.602113 0.250000 0
1.626761 0.250000 0
1.651408 0.250000 0
1.676056 0.250000 0
1.700704 0.250000 0
1.725352 0.250000 0
1.750000 0.250000 0
1.774648 0.250000 0
1.799296 0.250000 0
1.823944 0.250000 0
1.848592 0.250000 0
1.873239 0.250000 0
1.897887 0.250000 0
1.922535 0.250000 0
1.947183 0.250000 0
1.971831 0.250000 0
1.996479 0.250000 0
2.021127 0.250000 0
2.045775 0.250000 0
2.070423 0.250000 0
2.095070 0.250000 0
2.119718 0.250000 0
2.144366 0.250000 0
2.169014 0.250000 0
2.193662 0.250000 0
2.218310 0.250000 0
2.242958 0.250000 0
2.267606 0.250000 0
2.292254 0.250000 0
2.316901 0.250000 0
2.341549 0.250000 0
2.366197 0.250000 0
2.390845 0.250000 0
2.415493 0.250000 0
2.440141 0.250000 0
2.464789 0.250000 0
2.489437 0.250000 0
2.514085 0.250000 0
2.538732 0.250000 0
2.563380 0.250000 0
2.588028 0.250000 0
2.612676 0.250000 0
2.637324 0.250000 0
2.661972 0.250000 0
2.686620 0.250000 0
2.711268 0.250000 0
2.735915 0.250000 0
2.760563 0.250000 0
2.785211 0.250000 0
2.809859 0.250000 0
2.834507 0.250000 0
2.859155 0.250000 0
2.883803 0.250000 0
2.908451 0.250000 0
2.933099 0.250000 0
2.957746 0.250000 0
2.982394 0.250000 0
3.007042 0.250000 0
3.031690 0.250000 0
3.056338 0.250000 0
3.080986 0.250000 0
3.105634 0.250000 0
3.130282 0.250000 0
3.154930 0.250000 0
3.179577 0.250000 0
3.204225 0.250000 0
3.228873 0.250000 0
3.253521 0.250000 0
3.278169 0.250000 0
3.302817 0.250000 0
3.327465 0.250000 0
3.352113 0.250000 0
3.376761 0.250000 0
3.401408 0.250000 0
3.426056 0.250000 0
3.450704 0.250000 0
3.475352 0.250000 0
0.000000 0.261905 0
0.024648 0.261905 0
0.049296 0.261905 0
0.073944 0.261905 0
0.098592 0.261905 0
0.123239 0.261905 0
0.147887 0.261905 0
0.172535 0.261905 0
0.197183 0.261905 0
0.221831 0.261905 0
0.246479 0.261905 0
0.271127 0.261905 0
0.295775 0.261905 0
0.320423 0.261905 0
0.345070 0.261905 0
0.369718 0.261905 0
0.394366 0.261905 0
0.419014 0.261905 0
0.443662 0.261905 0
0.468310 0.261905 0
0.492958 0.261905 0
0.517606 0.261905 0
0.542254 0.261905 0
0.566901 0.261905 0
0.591549 0.261905 0
0.616197 0.261905 0
0.640845 0.261905 0
0.665493 0.261905 0
0.690141 0.261905 0
0.714789 0.261905 0
0.739437 0.261905 0
0.764085 0.261905 0
0.788732 0.261905 0
0.813380 0.261905 0
0.838028 0.261905 0
0.862676 0.261905 0
0.887324 0.261905 0
0.911972 0.261905 0
0.936620 0.261905 0
0.961268 0.261905 0
0.985915 0.261905 0
1.010563 0.261905 0
1.035211 0.261905 0
1.059859 0.261905 0
1.084507 0.261905 0
1.109155 0.261905 0
1.133803 0.261905 0
1.158451 0.261905 0
1.183099 0.261905 0
1.207746 0.261905 0
1.232394 0.261905 0
1.257042 0.261905 0
1.281690 0.261905 0
1.306338 0.261905 0
1.330986 0.261905 0
1.355634 0.261905 0
1.380282 0.261905 0
1.404930 0.261905 0
1.429577 0.261905 0
1.454225 0.261905 0
1.478873 0.261905 0
1.503521 0.261905 0
1.528169 0.261905 0
1.552817 0.261905 0
1.577465 0.261905 0
1.602113 0.261905 0
1.626761 0.261905 0
1.651408 0.261905 0
1.676056 0.261905 0
1.700704 0.261905 0
1.725352 0.261905 0
1.750000 0.261905 0
1.774648 0.261905 0
1.799296 0.261905 0
1.823944 0.261905 0
1.848592 0.261905 0
1.873239 0.261905 0
1.897887 0.261905 0
1.922535 0.261905 0
1.947183 0.261905 0
1.971831 0.261905 0
1.996479 0.261905 0
2.021127 0.261905 0
2.045775 0.261905 0
2.070423 0.261905 0
2.095070 0.261905 0
2.119718 0.261905 0
2.144366 0.261905 0
2.169014 0.261905 0
2.193662 0.261905 0
2.218310 0.261905 0
2.242958 0.261905 0
2.267606 0.261905 0
2.292254 0.261905 0
2.316901 0.261905 0
2.341549 0.261905 0
2.366197 0.261905 0
2.390845 0.261905 0
2.415493 0.261905 0
2.440141 0.261905 0
2.464789 0.261905 0
2.489437 0.261905 0
2.514085 0.261905 0
2.538732 0.261905 0
2.563380 0.261905 0
2.588028 0.261905 0
2.612676 0.261905 0
2.637324 0.261905 0
2.661972 0.261905 0
2.686620 0.261905 0
2.711268 0.261905 0
2.735915 0.261905 0
2.760563 0.261905 0
2.785211 0.261905 0
2.809859 0.261905 0
2.834507 0.261905 0
2.859155 0.261905 0
2.883803 0.261905 0
2.908451 0.261905 0
2.933099 0.261905 0
2.957746 0.261905 0
2.982394 0.261905 0
3.007042 0.261905 0
3.031690 0.261905 0
3.056338 0.261905 0
3.080986 0.261905 0
3.105634 0.261905 0
3.130282 0.261905 0
3.154930 0.261905 0
3.179577 0.261905 0
3.204225 0.261905 0
3.228873 0.261905 0
3.253521 0.261905 0
3.278169 0.261905 0
3.302817 0.261905 0
3.327465 0.261905 0
3.352113 0.261905 0
3.376761 0.261905 0
3.401408 0.261905 0
3.426056 0.261905 0
3.450704 0.261905 0
3.475352 0.261905 0
0.000000 0.273810 0
0.024648 0.273810 0
0.049296 0.273810 0
0.073944 0.273810 0
0.098592 0.273810 0
0.123239 0.273810 0
0.147887 0.273810 0
0.172535 0.273810 0
0.197183 0.273810 0
0.221831 0.273810 0
0.246479 0.273810 0
0.271127 0.273810 0
0.295775 0.273810 0
0.320423 0.273810 0
0.345070 0.273810 0
0.369718 0.273810 0
0.394366 0.273810 0
0.419014 0.273810 0
0.443662 0.273810 0
0.468310 0.273810 0
0.492958 0.273810 0
0.517606 0.273810 0
0.542254 0.273810 0
0.566901 0.273810 0
0.591549 0.273810 0
0.616197 0.273810 0
0.640845 0.273810 0
0.665493 0.273810 0
0.690141 0.273810 0
0.714789 0.273810 0
0.739437 0.273810 0
0.764085 0.273810 0
0.788732 0.273810 0
0.813380 0.273810 0
0.838028 0.273810 0
0.862676 0.273810 0
0.887324 0.273810 0
0.911972 0.273810 0
0.936620 0.273810 0
0.961268 0.273810 0
0.985915 0.273810 0
1.010563 0.273810 0
1.035211 0.273810 0
1.059859 0.273810 0
1.084507 0.273810 0
1.109155 0.273810 0
1.133803 0.273810 0
1.158451 0.273810 0
1.183099 0.273810 0
1.207746 0.273810 0
1.232394 0.273810 0
1.257042 0.273810 0
1.281690 0.273810 0
1.306338 0.273810 0
1.330986 0.273810 0
1.355634 0.273810 0
1.380282 0.273810 0
1.404930 0.273810 0
1.429577 0.273810 0
1.454225 0.273810 0
1.478873 0.273810 0
1.503521 0.273810 0
1.528169 0.273810 0
1.552817 0.273810 0
1.577465 0.273810 0
1.602113 0.273810 0
1.626761 0.273810 0
1.651408 0.273810 0
1.676056 0.273810 0
1.700704 0.273810 0
1.725352 0.273810 0
1.750000 0.273810 0
1.774648 0.273810 0
1.799296 0.273810 0
1.823944 0.273810 0
1.848592 0.273810 0
1.873239 0.273810 0
1.897887 0.273810 0
1.922535 0.273810 0
1.947183 0.273810 0
1.971831 0.273810 0
1.996479 0.273810 0
2.021127 0.273810 0
2.045775 0.273810 0
2.070423 0.273810 0
2.095070 0.273810 0
2.119718 0.273810 0
2.144366 0.273810 0
2.169014 0.273810 0
2.193662 0.273810 0
2.218310 0.273810 0
2.242958 0.273810 0
2.267606 0.273810 0
2.292254 0.273810 0
2.316901 0.273810 0
2.341549 0.273810 0
2.366197 0.273810 0
2.390845 0.273810 0
2.415493 0.273810 0
2.440141 0.273810 0
2.464789 0.273810 0
2.489437 0.273810 0
2.514085 0.273810 0
2.538732 0.273810 0
2.563380 0.273810 0
2.588028 0.273810 0
2.612676 0.273810 0
2.637324 0.273810 0
2.661972 0.273810 0
2.686620 0.273810 0
2.711268 0.273810 0
2.735915 0.273810 0
2.760563 0.273810 0
2.785211 0.273810 0
2.809859 0.273810 0
2.834507 0.273810 0
2.859155 0.273810 0
2.883803 0.273810 0
2.908451 0.273810 0
2.933099 0.273810 0
2.957746 0.273810 0
2.982394 0.273810 0
3.007042 0.273810 0
3.031690 0.273810 0
3.056338 0.273810 0
3.080986 0.273810 0
3.105634 0.273810 0
3.130282 0.273810 0
3.154930 0.273810 0
3.179577 0.273810 0
3.204225 0.273810 0
3.228873 0.273810 0
3.253521 0.273810 0
3.278169 0.273810 0
3.302817 0.273810 0
3.327465 0.273810 0
3.352113 0.273810 0
3.376761 0.273810 0
3.401408 0.273810 0
3.426056 0.273810 0
3.450704 0.273810 0
3.475352 0.273810 0
0.000000 0.285714 0
0.024648 0.285714 0
0.049296 0.285714 0
0.073944 0.285714 0
0.098592 0.285714 0
0.123239 0.285714 0
0.147887 0.285714 0
0.172535 0.285714 0
0.197183 0.285714 0
0.221831 0.285714 0
0.246479 0.285714 0
0.271127 0.285714 0
0.295775 0.285714 0
0.320423 0.285714 0
0.345070 0.285714 0
0.369718 0.285714 0
0.394366 0.285714 0
0.419014 0.285714 0
0.443662 0.285714 0
0.468310 0.285714 0
0.492958 0.285714 0
0.517606 0.285714 0
0.542254 0.285714 0
0.566901 0.285714 0
0.591549 0.285714 0
0.616197 0.285714 0
0.640845 0.285714 0
0.665493 0.285714 0
0.690141 0.285714 0
0.714789 0.285714 0
0.739437 0.285714 0
0.764085 0.285714 0
0.788732 0.285714 0
0.813380 0.285714 0
0.838028 0.285714 0
0.862676 0.285714 0
0.887324 0.285714 0
0.911972 0.285714 0
0.936620 0.285714 0
0.961268 0.285714 0
0.985915 0.285714 0
1.010563 0.285714 0
1.035211 0.285714 0
1.059859 0.285714 0
1.084507 0.285714 0
1.109155 0.285714 0
1.133803 0.285714 0
1.158451 0.285714 0
1.183099 0.285714 0
1.207746 0.285714 0
1.232394 0.285714 0
1.257042 0.285714 0
1.281690 0.285714 0
1.306338 0.285714 0
1.330986 0.285714 0
1.355634 0.285714 0
1.380282 0.285714 0
1.404930 0.285714 0
1.429577 0.285714 0
1.454225 0.285714 0
1.478873 0.285714 0
1.503521 0.285714 0
1.528169 0.285714 0
1.552817 0.285714 0
1.577465 0.285714 0
[...]
POINT_DATA 5964 

VECTORS velocity float
1.000000 0.000000 0
0.999854 0.000000 0
0.999556 0.000000 0
0.999097 0.000000 0
0.998458 0.000000 0
0.997615 0.000000 0
0.996532 0.000000 0
0.995162 0.000000 0
0.993440 0.000000 0
0.991275 0.000000 0
0.988543 0.000000 0
0.985062 0.000000 0
0.980561 0.000000 0
0.974614 0.000000 0
0.966517 0.000000 0
0.954933 0.000000 0
0.937383 0.000000 0
0.905760 0.000000 0
0.847693 0.000000 0
0.000000 0.000000 0
-0.000000 0.000000 0
-0.000000 0.000000 0
-0.000000 0.000000 0
0.000000 0.000000 0
0.000000 0.000000 0
-0.000000 0.000000 0
-0.000000 0.000000 0
-0.000000 0.000000 0
0.000000 0.000000 0
0.000000 0.000000 0
0.000000 0.000000 0
-0.000000 0.000000 0
-0.000000 0.000000 0
-0.000000 0.000000 0
0.000000 0.000000 0
0.000000 0.000000 0
-0.000000 0.000000 0
-0.000000 0.000000 0
-0.000000 0.000000 0
0.000000 0.000000 0
0.000000 0.000000 0
0.000000 0.000000 0
-0.000000 0.000000 0
-0.000000 0.000000 0
-0.000000 0.000000 0
0.000000 0.000000 0
0.000000 0.000000 0
0.000000 0.000000 0
-0.000000 0.000000 0
-0.000000 0.000000 0
0.000000 0.000000 0
0.000000 0.000000 0
0.000000 0.000000 0
-0.000000 0.000000 0
-0.000000 0.000000 0
-0.000000 0.000000 0
0.000000 0.000000 0
0.000000 0.000000 0
-0.000000 0.000000 0
-0.000000 0.000000 0
-0.000000 0.000000 0
0.000000 0.000000 0
0.000000 0.000000 0
-0.000000 0.000000 0
-0.000000 0.000000 0
-0.000000 0.000000 0
0.000000 0.000000 0
0.000000 0.000000 0
-0.000000 0.000000 0
-0.000000 0.000000 0
-0.000000 0.000000 0
0.000000 0.000000 0
0.000000 0.000000 0
-0.000000 0.000000 0
-0.000000 0.000000 0
-0.000000 0.000000 0
-0.000000 0.000000 0
0.000000 0.000000 0
-0.000000 0.000000 0
-0.000000 0.000000 0
-0.000000 0.000000 0
-0.000000 0.000000 0
-0.000000 0.000000 0
-0.000000 0.000000 0
-0.000000 0.000000 0
-0.000000 0.000000 0
-0.000000 0.000000 0
-0.000000 0.000000 0
-0.000000 0.000000 0
-0.000000 0.000000 0
-0.000000 0.000000 0
-0.000000 0.000000 0
-0.000000 0.000000 0
-0.000000 0.000000 0
-0.000000 0.000000 0
-0.000000 0.000000 0
-0.000000 0.000000 0
-0.000000 0.000000 0
-0.000000 0.000000 0
-0.000000 0.000000 0
-0.000000 0.000000 0
-0.000000 0.000000 0
-0.000000 0.000000 0
-0.000000 0.000000 0
-0.000000 0.000000 0
-0.000000 0.000000 0
-0.000000 0.000000 0
-0.000000 0.000000 0
-0.000000 0.000000 0
-0.000000 0.000000 0
-0.000000 0.000000 0
-0.000000 0.000000 0
-0.000000 0.000000 0
-0.000000 0.000000 0
-0.000000 0.000000 0
-0.000000 0.000000 0
-0.000000 0.000000 0
-0.000000 0.000000 0
-0.000000 0.000000 0
-0.000000 0.000000 0
-0.000000 0.000000 0
-0.000000 0.000000 0
-0.000000 0.000000 0
-0.000000 0.000000 0
-0.000000 0.000000 0
-0.000000 0.000000 0
-0.000000 0.000000 0
-0.000000 0.000000 0
-0.000000 0.000000 0
-0.000000 0.000000 0
-0.000000 0.000000 0
-0.000000 0.000000 0
-0.000000 0.000000 0
-0.000000 0.000000 0
-0.000000 0.000000 0
-0.000000 0.000000 0
-0.000000 0.000000 0
-0.000000 0.000000 0
-0.000000 0.000000 0
0.000000 0.000000 0
-0.000000 0.000000 0
0.496411 0.000000 0
1.000000 0.000035 0
0.999854 0.000107 0
0.999558 0.000183 0
0.999101 0.000265 0
0.998465 0.000358 0
0.997626 0.000465 0
0.996549 0.000592 0
0.995186 0.000747 0
0.993474 0.000939 0
0.991325 0.001182 0
0.988614 0.001500 0
0.985165 0.001928 0
0.980713 0.002523 0
0.974850 0.003392 0
0.966903 0.004753 0
0.955641 0.007036 0
0.938825 0.011875 0
0.910180 0.021660 0
0.860874 0.078853 0
0.714886 0.110956 0
0.576504 0.072745 0
0.473017 0.041074 0
0.401066 0.022638 0
0.351163 0.013309 0
0.315499 0.008679 0
0.288994 0.006202 0
0.268554 0.004718 0
0.252294 0.003739 0
0.239027 0.003050 0
0.227980 0.002542 0
0.218624 0.002156 0
0.210590 0.001855 0
0.203608 0.001615 0
0.197480 0.001420 0
0.192052 0.001260 0
0.187208 0.001127 0
0.182854 0.001015 0
0.178917 0.000919 0
0.175337 0.000838 0
0.172064 0.000767 0
0.169059 0.000706 0
0.166287 0.000652 0
0.163720 0.000605 0
0.161335 0.000564 0
0.159110 0.000526 0
0.157028 0.000493 0
0.155075 0.000464 0
0.153237 0.000437 0
0.151503 0.000413 0
0.149864 0.000391 0
0.148310 0.000372 0
0.146834 0.000353 0
0.145429 0.000337 0
0.144089 0.000322 0
0.142810 0.000308 0
0.141586 0.000295 0
0.140414 0.000283 0
0.139289 0.000272 0
0.138208 0.000261 0
0.137168 0.000252 0
0.136167 0.000242 0
0.135202 0.000234 0
0.134271 0.000226 0
0.133371 0.000218 0
0.132501 0.000211 0
0.131659 0.000205 0
0.130844 0.000198 0
0.130054 0.000192 0
0.129289 0.000187 0
0.128545 0.000181 0
0.127824 0.000176 0
0.127123 0.000171 0
0.126442 0.000166 0
0.125779 0.000162 0
0.125135 0.000157 0
0.124508 0.000153 0
0.123897 0.000149 0
0.123303 0.000145 0
0.122724 0.000141 0
0.122161 0.000138 0
0.121612 0.000134 0
0.121077 0.000131 0
0.120555 0.000127 0
0.120048 0.000124 0
0.119553 0.000121 0
0.119072 0.000117 0
0.118604 0.000114 0
0.118149 0.000111 0
0.117706 0.000108 0
0.117276 0.000104 0
0.116860 0.000101 0
0.116456 0.000098 0
0.116066 0.000094 0
0.115690 0.000090 0
0.115328 0.000087 0
0.114981 0.000083 0
0.114650 0.000078 0
0.114335 0.000074 0
0.114038 0.000069 0
0.113760 0.000064 0
0.113502 0.000058 0
0.113266 0.000052 0
0.113055 0.000045 0
0.112870 0.000037 0
0.112714 0.000029 0
0.112591 0.000019 0
0.112505 0.000009 0
0.112460 -0.000004 0
0.112463 -0.000018 0
0.112521 -0.000033 0
0.112638 -0.000050 0
0.112821 -0.000069 0
0.113081 -0.000092 0
0.113426 -0.000117 0
0.113870 -0.000146 0
0.114428 -0.000180 0
0.115116 -0.000219 0
0.115956 -0.000265 0
0.116971 -0.000318 0
0.118189 -0.000380 0
0.119645 -0.000452 0
0.121378 -0.000538 0
0.123440 -0.000640 0
0.125890 -0.000761 0
0.128802 -0.000908 0
0.132271 -0.001086 0
0.136412 -0.001304 0
0.141376 -0.001576 0
0.147359 -0.001918 0
0.154617 -0.002356 0
0.163496 -0.002928 0
0.174477 -0.003691 0
0.188235 -0.004740 0
0.205764 -0.006232 0
0.228573 -0.008451 0
0.259069 -0.011953 0
0.301367 -0.017901 0
0.362796 -0.029692 0
0.459997 -0.052072 0
0.617957 -0.166962 0
0.993130 -0.267480 0
0.993130 -0.133740 0
1.000000 0.000070 0
0.999856 0.000213 0
0.999564 0.000364 0
0.999113 0.000528 0
0.998486 0.000712 0
0.997659 0.000926 0
0.996599 0.001178 0
0.995259 0.001485 0
0.993579 0.001865 0
0.991473 0.002348 0
0.988825 0.002975 0
0.985469 0.003816 0
0.981163 0.004982 0
0.975541 0.006670 0
0.968025 0.009278 0
0.957649 0.013561 0
0.942785 0.021957 0
0.920694 0.037650 0
0.888370 0.094326 0
0.890999 0.137349 0
0.842149 0.116821 0
0.771618 0.084735 0
0.701222 0.058855 0
0.639920 0.041328 0
0.589257 0.030027 0
0.547923 0.022674 0
0.514040 0.017726 0
0.485953 0.014261 0
0.462370 0.011743 0
0.442322 0.009855 0
0.425082 0.008399 0
0.410105 0.007253 0
0.396971 0.006332 0
0.385359 0.005582 0
0.375016 0.004961 0
0.365741 0.004443 0
0.357374 0.004004 0
0.349783 0.003631 0
0.342863 0.003310 0
0.336524 0.003032 0
0.330692 0.002790 0
0.325306 0.002579 0
0.320313 0.002392 0
0.315668 0.002227 0
0.311334 0.002080 0
0.307276 0.001949 0
0.303468 0.001831 0
0.299883 0.001725 0
0.296501 0.001629 0
0.293302 0.001543 0
0.290271 0.001464 0
0.287392 0.001391 0
0.284653 0.001325 0
0.282041 0.001265 0
0.279547 0.001209 0
0.277162 0.001157 0
0.274878 0.001110 0
0.272687 0.001065 0
0.270582 0.001024 0
0.268558 0.000986 0
0.266610 0.000950 0
0.264732 0.000916 0
0.262920 0.000884 0
0.261170 0.000855 0
0.259479 0.000827 0
0.257843 0.000800 0
0.256259 0.000775 0
0.254725 0.000751 0
0.253237 0.000729 0
0.251793 0.000707 0
0.250392 0.000687 0
0.249031 0.000668 0
0.247708 0.000649 0
0.246422 0.000631 0
0.245171 0.000614 0
0.243954 0.000598 0
0.242769 0.000582 0
0.241615 0.000567 0
0.240491 0.000552 0
0.239397 0.000538 0
0.238330 0.000524 0
0.237291 0.000510 0
0.236279 0.000497 0
0.235292 0.000484 0
0.234331 0.000471 0
0.233395 0.000459 0
0.232484 0.000446 0
0.231597 0.000434 0
0.230735 0.000421 0
0.229896 0.000409 0
0.229083 0.000396 0
0.228294 0.000383 0
0.227530 0.000370 0
0.226791 0.000356 0
0.226080 0.000342 0
0.225395 0.000328 0
0.224740 0.000312 0
0.224115 0.000295 0
0.223521 0.000278 0
0.222962 0.000259 0
0.222439 0.000238 0
0.221956 0.000216 0
0.221515 0.000191 0
0.221122 0.000164 0
0.220781 0.000135 0
0.220497 0.000101 0
0.220276 0.000063 0
0.220128 0.000020 0
0.220060 -0.000029 0
0.220089 -0.000084 0
0.220223 -0.000145 0
0.220473 -0.000214 0
0.220856 -0.000292 0
0.221388 -0.000381 0
0.222091 -0.000484 0
0.222989 -0.000602 0
0.224112 -0.000738 0
0.225494 -0.000896 0
0.227174 -0.001079 0
0.229199 -0.001291 0
0.231625 -0.001541 0
0.234520 -0.001833 0
0.237963 -0.002179 0
0.242051 -0.002590 0
0.246904 -0.003082 0
0.252667 -0.003675 0
0.259524 -0.004398 0
0.267703 -0.005287 0
0.277497 -0.006395 0
0.289286 -0.007794 0
0.303569 -0.009592 0
0.321018 -0.011949 0
0.342549 -0.015112 0
0.369456 -0.019483 0
0.403603 -0.025746 0
0.447768 -0.035159 0
0.506262 -0.050099 0
0.585726 -0.076617 0
0.697420 -0.123241 0
0.855346 -0.257500 0
0.993827 -0.362412 0
0.993827 -0.181206 0
1.000000 0.000105 0
0.999859 0.000318 0
0.999574 0.000542 0
0.999133 0.000786 0
0.998521 0.001060 0
0.997714 0.001377 0
0.996681 0.001752 0
0.995379 0.002205 0
0.993750 0.002767 0
0.991715 0.003479 0
0.989168 0.004400 0
0.985962 0.005628 0
0.981887 0.007318 0
0.976642 0.009737 0
0.969782 0.013395 0
0.960673 0.019226 0
0.948431 0.029724 0
0.933028 0.047942 0
0.915086 0.093196 0
0.945330 0.133281 0
0.948626 0.130405 0
0.922939 0.109141 0
0.881981 0.086247 0
0.836589 0.067387 0
0.792539 0.053113 0
0.752206 0.042531 0
0.716223 0.034649 0
0.684455 0.028696 0
0.656485 0.024123 0
0.631828 0.020552 0
0.610017 0.017717 0
0.590640 0.015433 0
0.573343 0.013567 0
0.557826 0.012025 0
0.543839 0.010736 0
0.531172 0.009648 0
0.519650 0.008722 0
0.509125 0.007928 0
0.499472 0.007242 0
0.490585 0.006646 0
0.482375 0.006124 0
0.474764 0.005665 0
0.467686 0.005260 0
0.461084 0.004900 0
0.454909 0.004580 0
0.449117 0.004293 0
0.443671 0.004035 0
0.438537 0.003802 0
0.433688 0.003592 0
0.429097 0.003400 0
0.424742 0.003226 0
0.420603 0.003067 0
0.416662 0.002921 0
0.412902 0.002787 0
0.409311 0.002664 0
0.405875 0.002550 0
0.402583 0.002444 0
0.399424 0.002346 0
0.396390 0.002255 0
0.393471 0.002170 0
0.390661 0.002091 0
0.387952 0.002016 0
0.385338 0.001946 0
0.382814 0.001880 0
0.380373 0.001818 0
0.378013 0.001760 0
0.375727 0.001705 0
0.373512 0.001652 0
0.371364 0.001603 0
0.369280 0.001555 0
0.367257 0.001510 0
0.365292 0.001467 0
0.363382 0.001426 0
0.361525 0.001387 0
0.359718 0.001350 0
0.357960 0.001313 0
0.356248 0.001279 0
0.354581 0.001245 0
0.352957 0.001213 0
0.351375 0.001182 0
0.349833 0.001151 0
0.348330 0.001122 0
0.346865 0.001093 0
0.345438 0.001065 0
0.344046 0.001037 0
0.342690 0.001010 0
0.341369 0.000983 0
0.340083 0.000956 0
0.338830 0.000929 0
0.337612 0.000902 0
0.336428 0.000875 0
0.335279 0.000848 0
0.334165 0.000820 0
0.333086 0.000791 0
0.332044 0.000761 0
0.331039 0.000730 0
0.330074 0.000697 0
0.329149 0.000662 0
0.328268 0.000626 0
0.327432 0.000586 0
0.326646 0.000544 0
0.325912 0.000498 0
0.325235 0.000448 0
0.324621 0.000392 0
0.324074 0.000331 0
0.323603 0.000263 0
0.323215 0.000187 0
0.322920 0.000101 0
0.322729 0.000001 0
0.322657 -0.000111 0
0.322724 -0.000236 0
0.322943 -0.000375 0
0.323333 -0.000533 0
0.323916 -0.000714 0
0.324718 -0.000920 0
0.325770 -0.001157 0
0.327108 -0.001429 0
0.328774 -0.001743 0
0.330817 -0.002107 0
0.333296 -0.002530 0
0.336276 -0.003022 0
0.339841 -0.003599 0
0.344085 -0.004277 0
0.349125 -0.005080 0
0.355099 -0.006035 0
0.362178 -0.007181 0
0.370569 -0.008566 0
0.380532 -0.010257 0
0.392389 -0.012342 0
0.406550 -0.014949 0
0.423542 -0.018254 0
0.444048 -0.022518 0
0.468975 -0.028136 0
0.499536 -0.035721 0
0.537385 -0.046275 0
0.584793 -0.061536 0
0.644873 -0.084534 0
0.721546 -0.122020 0
0.818361 -0.182296 0
0.934607 -0.310125 0
0.994598 -0.401251 0
0.994598 -0.200625 0
1.000000 0.000138 0
0.999864 0.000419 0
0.999587 0.000715 0
0.999160 0.001037 0
0.998568 0.001398 0
0.997789 0.001814 0
0.996794 0.002306 0
0.995543 0.002901 0
0.993983 0.003635 0
0.992045 0.004560 0
0.989634 0.005754 0
0.986627 0.007333 0
0.982854 0.009484 0
0.978089 0.012517 0
0.972036 0.016991 0
0.964382 0.023874 0
0.954906 0.035310 0
0.945019 0.053755 0
0.937268 0.088384 0
0.965707 0.121150 0
0.987884 0.127636 0
0.990071 0.116924 0
0.975766 0.100561 0
0.951736 0.084528 0
0.923218 0.070783 0
0.893429 0.059534 0
0.864150 0.050450 0
0.836292 0.043114 0
0.810267 0.037162 0
0.786201 0.032298 0
0.764073 0.028292 0
0.743777 0.024966 0
0.725176 0.022181 0
0.708119 0.019832 0
0.692457 0.017835 0
0.678050 0.016126 0
0.664768 0.014653 0
0.652496 0.013377 0
0.641128 0.012265 0
0.630573 0.011290 0
0.620748 0.010432 0
0.611581 0.009673 0
0.603007 0.008999 0
0.594969 0.008398 0
0.587417 0.007860 0
0.580306 0.007377 0
0.573596 0.006941 0
0.567253 0.006547 0
0.561244 0.006189 0
0.555541 0.005863 0
0.550119 0.005566 0
0.544956 0.005294 0
0.540032 0.005045 0
0.535328 0.004815 0
0.530827 0.004603 0
0.526516 0.004407 0
0.522381 0.004225 0
0.518409 0.004057 0
0.514590 0.003899 0
0.510914 0.003753 0
0.507372 0.003615 0
0.503954 0.003487 0
0.500655 0.003366 0
0.497466 0.003253 0
0.494383 0.003146 0
0.491397 0.003045 0
0.488506 0.002949 0
0.485702 0.002859 0
0.482983 0.002773 0
0.480344 0.002691 0
0.477780 0.002613 0
0.475289 0.002539 0
0.472866 0.002468 0
0.470510 0.002401 0
0.468217 0.002336 0
0.465985 0.002274 0
0.463811 0.002214 0
0.461693 0.002156 0
0.459629 0.002100 0
0.457617 0.002046 0
0.455655 0.001994 0
0.453742 0.001943 0
0.451877 0.001894 0
0.450058 0.001846 0
0.448284 0.001798 0
0.446554 0.001752 0
0.444868 0.001706 0
0.443224 0.001660 0
0.441623 0.001614 0
0.440065 0.001569 0
0.438548 0.001523 0
0.437074 0.001477 0
0.435643 0.001429 0
0.434254 0.001381 0
0.432911 0.001331 0
0.431613 0.001279 0
0.430362 0.001225 0
0.429160 0.001168 0
0.428010 0.001107 0
0.426914 0.001042 0
0.425876 0.000973 0
0.424901 0.000897 0
0.423992 0.000815 0
0.423157 0.000725 0
0.422400 0.000626 0
0.421731 0.000516 0
0.421158 0.000393 0
0.420692 0.000255 0
0.420345 0.000098 0
0.420128 -0.000082 0
0.420069 -0.000283 0
0.420184 -0.000508 0
0.420495 -0.000762 0
0.421025 -0.001050 0
0.421804 -0.001380 0
0.422865 -0.001756 0
0.424248 -0.002189 0
0.425999 -0.002687 0
0.428170 -0.003262 0
0.430825 -0.003928 0
0.434036 -0.004702 0
0.437890 -0.005605 0
0.442488 -0.006663 0
0.447952 -0.007910 0
0.454425 -0.009386 0
0.462083 -0.011148 0
0.471134 -0.013263 0
0.481835 -0.015826 0
0.494500 -0.018962 0
0.509519 -0.022841 0
0.527380 -0.027704 0
0.548696 -0.033892 0
0.574246 -0.041912 0
0.605026 -0.052525 0
0.642297 -0.066925 0
0.687622 -0.087075 0
0.742784 -0.116150 0
0.809277 -0.160410 0
0.885871 -0.226149 0
0.965385 -0.342621 0
0.995325 -0.420361 0
0.995325 -0.210181 0
1.000000 0.000170 0
0.999869 0.000517 0
0.999604 0.000882 0
0.999195 0.001278 0
0.998628 0.001722 0
0.997884 0.002234 0
0.996936 0.002837 0
0.995748 0.003563 0
0.994274 0.004457 0
0.992454 0.005579 0
0.990209 0.007017 0
0.987440 0.008903 0
0.984022 0.011442 0
0.979805 0.014962 0
0.974637 0.020015 0
0.968468 0.027500 0
0.961560 0.039076 0
0.955831 0.056461 0
0.954476 0.083204 0
0.976671 0.108834 0
1.001710 0.118637 0
1.016358 0.114993 0
1.018677 0.104763 0
1.011391 0.092767 0
0.997797 0.081275 0
0.980475 0.071061 0
0.961200 0.062246 0
0.941142 0.054721 0
0.921050 0.048317 0
0.901397 0.042863 0
0.882463 0.038207 0
0.864406 0.034219 0
0.847300 0.030789 0
0.831164 0.027828 0
0.815984 0.025259 0
0.801724 0.023022 0
0.788337 0.021065 0
0.775768 0.019346 0
0.763964 0.017831 0
0.752867 0.016489 0
0.742426 0.015297 0
0.732589 0.014234 0
0.723310 0.013284 0
0.714545 0.012430 0
0.706253 0.011662 0
0.698398 0.010968 0
0.690945 0.010339 0
0.683864 0.009768 0
0.677126 0.009248 0
0.670705 0.008773 0
0.664579 0.008339 0
0.658726 0.007939 0
0.653126 0.007572 0
0.647762 0.007233 0
0.642617 0.006920 0
0.637677 0.006630 0
0.632929 0.006360 0
0.628360 0.006109 0
0.623958 0.005875 0
0.619714 0.005657 0
0.615618 0.005452 0
0.611662 0.005260 0
0.607836 0.005080 0
0.604135 0.004910 0
0.600551 0.004750 0
0.597078 0.004598 0
0.593710 0.004455 0
0.590442 0.004320 0
0.587269 0.004191 0
0.584187 0.004068 0
0.581190 0.003952 0
0.578276 0.003841 0
0.575441 0.003734 0
0.572680 0.003633 0
0.569992 0.003535 0
0.567373 0.003442 0
0.564821 0.003352 0
0.562333 0.003265 0
0.559906 0.003182 0
0.557539 0.003101 0
0.555230 0.003023 0
0.552977 0.002946 0
0.550778 0.002872 0
0.548633 0.002800 0
0.546539 0.002729 0
0.544495 0.002660 0
0.542501 0.002591 0
0.540557 0.002523 0
0.538660 0.002455 0
0.536812 0.002388 0
0.535012 0.002320 0
0.533260 0.002251 0
0.531556 0.002181 0
0.529902 0.002110 0
0.528297 0.002037 0
0.526743 0.001961 0
0.525243 0.001882 0
0.523797 0.001798 0
0.522408 0.001710 0
0.521080 0.001617 0
0.519816 0.001516 0
0.518620 0.001408 0
0.517498 0.001290 0
0.516454 0.001161 0
0.515497 0.001020 0
0.514635 0.000863 0
0.513876 0.000689 0
0.513232 0.000493 0
0.512716 0.000274 0
0.512338 0.000022 0
0.512120 -0.000263 0
0.512089 -0.000581 0
0.512265 -0.000940 0
0.512674 -0.001346 0
0.513346 -0.001809 0
0.514316 -0.002337 0
0.515623 -0.002943 0
0.517314 -0.003638 0
0.519444 -0.004438 0
0.522076 -0.005363 0
0.525283 -0.006435 0
0.529152 -0.007681 0
0.533782 -0.009137 0
0.539292 -0.010845 0
0.545823 -0.012860 0
0.553541 -0.015251 0
0.562644 -0.018106 0
0.573370 -0.021542 0
0.586003 -0.025714 0
0.600892 -0.030830 0
0.618455 -0.037176 0
0.639205 -0.045155 0
0.663761 -0.055343 0
0.692867 -0.068589 0
0.727384 -0.086168 0
0.768219 -0.110071 0
0.816077 -0.143292 0
0.870775 -0.191130 0
0.928843 -0.257696 0
0.981921 -0.362991 0
0.995987 -0.430173 0
0.995987 -0.215086 0
1.000000 0.000201 0
0.999876 0.000611 0
0.999624 0.001041 0
0.999236 0.001508 0
0.998699 0.002031 0
0.997996 0.002631 0
0.997104 0.003338 0
0.995990 0.004186 0
0.994616 0.005226 0
0.992932 0.006524 0
0.990877 0.008175 0
0.988376 0.010321 0
0.985348 0.013171 0
0.981715 0.017050 0
0.977446 0.022466 0
0.972684 0.030190 0
0.967981 0.041413 0
0.965254 0.057176 0
0.967534 0.078318 0
0.984749 0.098336 0
1.007163 0.108468 0
1.025317 0.108730 0
1.035732 0.102960 0
1.038731 0.094612 0
1.035895 0.085716 0
1.028851 0.077211 0
1.018912 0.069447 0
1.007069 0.062506 0
0.994050 0.056359 0
0.980383 0.050936 0
0.966451 0.046159 0
0.952529 0.041949 0
0.938808 0.038237 0
0.925418 0.034957 0
0.912445 0.032054 0
0.899940 0.029479 0
0.887933 0.027190 0
0.876432 0.025149 0
0.865437 0.023326 0
0.854937 0.021693 0
0.844917 0.020226 0
0.835357 0.018906 0
0.826235 0.017714 0
0.817530 0.016637 0
0.809218 0.015659 0
0.801277 0.014770 0
0.793686 0.013961 0
0.786422 0.013221 0
0.779467 0.012544 0
0.772801 0.011923 0
0.766407 0.011352 0
0.760267 0.010826 0
0.754368 0.010340 0
0.748693 0.009891 0
0.743230 0.009474 0
0.737966 0.009086 0
0.732890 0.008726 0
0.727990 0.008389 0
0.723257 0.008075 0
0.718681 0.007781 0
0.714255 0.007505 0
0.709969 0.007246 0
0.705817 0.007001 0
0.701791 0.006771 0
0.697886 0.006554 0
0.694095 0.006349 0
0.690412 0.006154 0
0.686833 0.005969 0
0.683353 0.005794 0
0.679968 0.005627 0
0.676672 0.005468 0
0.673463 0.005316 0
0.670337 0.005171 0
0.667290 0.005032 0
0.664319 0.004899 0
0.661422 0.004771 0
0.658595 0.004648 0
0.655836 0.004530 0
0.653143 0.004416 0
0.650514 0.004305 0
0.647946 0.004198 0
0.645439 0.004094 0
0.642989 0.003992 0
0.640596 0.003893 0
0.638259 0.003797 0
0.635975 0.003702 0
0.633745 0.003608 0
0.631568 0.003515 0
0.629443 0.003423 0
0.627369 0.003331 0
0.625346 0.003239 0
0.623375 0.003146 0
0.621456 0.003051 0
0.619589 0.002955 0
0.617775 0.002856 0
0.616015 0.002754 0
0.614312 0.002648 0
0.612666 0.002537 0
0.611081 0.002419 0
0.609560 0.002294 0
0.608106 0.002161 0
0.606723 0.002017 0
0.605416 0.001861 0
0.604193 0.001691 0
0.603058 0.001505 0
0.602021 0.001299 0
0.601092 0.001071 0
0.600280 0.000816 0
0.599598 0.000530 0
0.599061 0.000206 0
0.598678 -0.000163 0
0.598484 -0.000578 0
0.598499 -0.001045 0
0.598750 -0.001572 0
0.599266 -0.002172 0
0.600082 -0.002856 0
0.601236 -0.003638 0
0.602775 -0.004533 0
0.604751 -0.005562 0
0.607226 -0.006748 0
0.610270 -0.008119 0
0.613966 -0.009709 0
0.618408 -0.011561 0
0.623709 -0.013726 0
0.629999 -0.016269 0
0.637430 -0.019272 0
0.646182 -0.022840 0
0.656465 -0.027108 0
0.668528 -0.032255 0
0.682665 -0.038515 0
0.699219 -0.046208 0