# vtk DataFile Version 2.0
generated by CFD-lab course output (written by Tobias Neckel) 
ASCII

DATASET STRUCTURED_GRID
DIMENSIONS  142 42 1 
POINTS 5964 float

0.000000 0.250000 0
0.024648 0.250000 0
0.049296 0.250000 0
0.073944 0.250000 0
0.098592 0.250000 0
0.123239 0.250000 0
0.147887 0.250000 0
0.172535 0.250000 0
0.197183 0.250000 0
0.221831 0.250000 0
0.246479 0.250000 0
0.271127 0.250000 0
0.295775 0.250000 0
0.320423 0.250000 0
0.345070 0.250000 0
0.369718 0.250000 0
0.394366 0.250000 0
0.419014 0.250000 0
0.443662 0.250000 0
0.468310 0.250000 0
0.492958 0.250000 0
0.517606 0.250000 0
0.542254 0.250000 0
0.566901 0.250000 0
0.591549 0.250000 0
0.616197 0.250000 0
0.640845 0.250000 0
0.665493 0.250000 0
0.690141 0.250000 0
0.714789 0.250000 0
0.739437 0.250000 0
0.764085 0.250000 0
0.788732 0.250000 0
0.813380 0.250000 0
0.838028 0.250000 0
0.862676 0.250000 0
0.887324 0.250000 0
0.911972 0.250000 0
0.936620 0.250000 0
0.961268 0.250000 0
0.985915 0.250000 0
1.010563 0.250000 0
1.035211 0.250000 0
1.059859 0.250000 0
1.084507 0.250000 0
1.109155 0.250000 0
1.133803 0.250000 0
1.158451 0.250000 0
1.183099 0.250000 0
1.207746 0.250000 0
1.232394 0.250000 0
1.257042 0.250000 0
1.281690 0.250000 0
1.306338 0.250000 0
1.330986 0.250000 0
1.355634 0.250000 0
1.380282 0.250000 0
1.404930 0.250000 0
1.429577 0.250000 0
1.454225 0.250000 0
1.478873 0.250000 0
1.503521 0.250000 0
1.528169 0.250000 0
1.552817 0.250000 0
1.577465 0.250000 0
1.602113 0.250000 0
1.626761 0.250000 0
1.651408 0.250000 0
1.676056 0.250000 0
1.700704 0.250000 0
1.725352 0.250000 0
1.750000 0.250000 0
1.774648 0.250000 0
1.799296 0.250000 0
1.823944 0.250000 0
1.848592 0.250000 0
1.873239 0.250000 0
1.897887 0.250000 0
1.922535 0.250000 0
1.947183 0.250000 0
1.971831 0.250000 0
1.996479 0.250000 0
2.021127 0.250000 0
2.045775 0.250000 0
2.070423 0.250000 0
2.095070 0.250000 0
2.119718 0.250000 0
2.144366 0.250000 0
2.169014 0.250000 0
2.193662 0.250000 0
2.218310 0.250000 0
2.242958 0.250000 0
2.267606 0.250000 0
2.292254 0.250000 0
2.316901 0.250000 0
2.341549 0.250000 0
2.366197 0.250000 0
2.390845 0.250000 0
2.415493 0.250000 0
2.440141 0.250000 0
2.464789 0.250000 0
2.489437 0.250000 0
2.514085 0.250000 0
2.538732 0.250000 0
2.563380 0.250000 0
2.588028 0.250000 0
2.612676 0.250000 0
2.637324 0.250000 0
2.661972 0.250000 0
2.686620 0.250000 0
2.711268 0.250000 0
2.735915 0.250000 0
2.760563 0.250000 0
2.785211 0.250000 0
2.809859 0.250000 0
2.834507 0.250000 0
2.859155 0.250000 0
2.883803 0.250000 0
2.908451 0.250000 0
2.933099 0.250000 0
2.957746 0.250000 0
2.982394 0.250000 0
3.007042 0.250000 0
3.031690 0.250000 0
3.056338 0.250000 0
3.080986 0.250000 0
3.105634 0.250000 0
3.130282 0.250000 0
3.154930 0.250000 0
3.179577 0.250000 0
3.204225 0.250000 0
3.228873 0.250000 0
3.253521 0.250000 0
3.278169 0.250000 0
3.302817 0.250000 0
3.327465 0.250000 0
3.352113 0.250000 0
3.376761 0.250000 0
3.401408 0.250000 0
3.426056 0.250000 0
3.450704 0.250000 0
3.475352 0.250000 0
0.000000 0.261905 0
0.024648 0.261905 0
0.049296 0.261905 0
0.073944 0.261905 0
0.098592 0.261905 0
0.123239 0.261905 0
0.147887 0.261905 0
0.172535 0.261905 0
0.197183 0.261905 0
0.221831 0.261905 0
0.246479 0.261905 0
0.271127 0.261905 0
0.295775 0.261905 0
0.320423 0.261905 0
0.345070 0.261905 0
0.369718 0.261905 0
0.394366 0.261905 0
0.419014 0.261905 0
0.443662 0.261905 0
0.468310 0.261905 0
0.492958 0.261905 0
0.517606 0.261905 0
0.542254 0.261905 0
0.566901 0.261905 0
0.591549 0.261905 0
0.616197 0.261905 0
0.640845 0.261905 0
0.665493 0.261905 0
0.690141 0.261905 0
0.714789 0.261905 0
0.739437 0.261905 0
0.764085 0.261905 0
0.788732 0.261905 0
0.813380 0.261905 0
0.838028 0.261905 0
0.862676 0.261905 0
0.887324 0.261905 0
0.911972 0.261905 0
0.936620 0.261905 0
0.961268 0.261905 0
0.985915 0.261905 0
1.010563 0.261905 0
1.035211 0.261905 0
1.059859 0.261905 0
1.084507 0.261905 0
1.109155 0.261905 0
1.133803 0.261905 0
1.158451 0.261905 0
1.183099 0.261905 0
1.207746 0.261905 0
1.232394 0.261905 0
1.257042 0.261905 0
1.281690 0.261905 0
1.306338 0.261905 0
1.330986 0.261905 0
1.355634 0.261905 0
1.380282 0.261905 0
1.404930 0.261905 0
1.429577 0.261905 0
1.454225 0.261905 0
1.478873 0.261905 0
1.503521 0.261905 0
1.528169 0.261905 0
1.552817 0.261905 0
1.577465 0.261905 0
1.602113 0.261905 0
1.626761 0.261905 0
1.651408 0.261905 0
1.676056 0.261905 0
1.700704 0.261905 0
1.725352 0.261905 0
1.750000 0.261905 0
1.774648 0.261905 0
1.799296 0.261905 0
1.823944 0.261905 0
1.848592 0.261905 0
1.873239 0.261905 0
1.897887 0.261905 0
1.922535 0.261905 0
1.947183 0.261905 0
1.971831 0.261905 0
1.996479 0.261905 0
2.021127 0.261905 0
2.045775 0.261905 0
2.070423 0.261905 0
2.095070 0.261905 0
2.119718 0.261905 0
2.144366 0.261905 0
2.169014 0.261905 0
2.193662 0.261905 0
2.218310 0.261905 0
2.242958 0.261905 0
2.267606 0.261905 0
2.292254 0.261905 0
2.316901 0.261905 0
2.341549 0.261905 0
2.366197 0.261905 0
2.390845 0.261905 0
2.415493 0.261905 0
2.440141 0.261905 0
2.464789 0.261905 0
2.489437 0.261905 0
2.514085 0.261905 0
2.538732 0.261905 0
2.563380 0.261905 0
2.588028 0.261905 0
2.612676 0.261905 0
2.637324 0.261905 0
2.661972 0.261905 0
2.686620 0.261905 0
2.711268 0.261905 0
2.735915 0.261905 0
2.760563 0.261905 0
2.785211 0.261905 0
2.809859 0.261905 0
2.834507 0.261905 0
2.859155 0.261905 0
2.883803 0.261905 0
2.908451 0.261905 0
2.933099 0.261905 0
2.957746 0.261905 0
2.982394 0.261905 0
3.007042 0.261905 0
3.031690 0.261905 0
3.056338 0.261905 0
3.080986 0.261905 0
3.105634 0.261905 0
3.130282 0.261905 0
3.154930 0.261905 0
3.179577 0.261905 0
3.204225 0.261905 0
3.228873 0.261905 0
3.253521 0.261905 0
3.278169 0.261905 0
3.302817 0.261905 0
3.327465 0.261905 0
3.352113 0.261905 0
3.376761 0.261905 0
3.401408 0.261905 0
3.426056 0.261905 0
3.450704 0.261905 0
3.475352 0.261905 0
0.000000 0.273810 0
0.024648 0.273810 0
0.049296 0.273810 0
0.073944 0.273810 0
0.098592 0.273810 0
0.123239 0.273810 0
0.147887 0.273810 0
0.172535 0.273810 0
0.197183 0.273810 0
0.221831 0.273810 0
0.246479 0.273810 0
0.271127 0.273810 0
0.295775 0.273810 0
0.320423 0.273810 0
0.345070 0.273810 0
0.369718 0.273810 0
0.394366 0.273810 0
0.419014 0.273810 0
0.443662 0.273810 0
0.468310 0.273810 0
0.492958 0.273810 0
0.517606 0.273810 0
0.542254 0.273810 0
0.566901 0.273810 0
0.591549 0.273810 0
0.616197 0.273810 0
0.640845 0.273810 0
0.665493 0.273810 0
0.690141 0.273810 0
0.714789 0.273810 0
0.739437 0.273810 0
0.764085 0.273810 0
0.788732 0.273810 0
0.813380 0.273810 0
0.838028 0.273810 0
0.862676 0.273810 0
0.887324 0.273810 0
0.911972 0.273810 0
0.936620 0.273810 0
0.961268 0.273810 0
0.985915 0.273810 0
1.010563 0.273810 0
1.035211 0.273810 0
1.059859 0.273810 0
1.084507 0.273810 0
1.109155 0.273810 0
1.133803 0.273810 0
1.158451 0.273810 0
1.183099 0.273810 0
1.207746 0.273810 0
1.232394 0.273810 0
1.257042 0.273810 0
1.281690 0.273810 0
1.306338 0.273810 0
1.330986 0.273810 0
1.355634 0.273810 0
1.380282 0.273810 0
1.404930 0.273810 0
1.429577 0.273810 0
1.454225 0.273810 0
1.478873 0.273810 0
1.503521 0.273810 0
1.528169 0.273810 0
1.552817 0.273810 0
1.577465 0.273810 0
1.602113 0.273810 0
1.626761 0.273810 0
1.651408 0.273810 0
1.676056 0.273810 0
1.700704 0.273810 0
1.725352 0.273810 0
1.750000 0.273810 0
1.774648 0.273810 0
1.799296 0.273810 0
1.823944 0.273810 0
1.848592 0.273810 0
1.873239 0.273810 0
1.897887 0.273810 0
1.922535 0.273810 0
1.947183 0.273810 0
1.971831 0.273810 0
1.996479 0.273810 0
2.021127 0.273810 0
2.045775 0.273810 0
2.070423 0.273810 0
2.095070 0.273810 0
2.119718 0.273810 0
2.144366 0.273810 0
2.169014 0.273810 0
2.193662 0.273810 0
2.218310 0.273810 0
2.242958 0.273810 0
2.267606 0.273810 0
2.292254 0.273810 0
2.316901 0.273810 0
2.341549 0.273810 0
2.366197 0.273810 0
2.390845 0.273810 0
2.415493 0.273810 0
2.440141 0.273810 0
2.464789 0.273810 0
2.489437 0.273810 0
2.514085 0.273810 0
2.538732 0.273810 0
2.563380 0.273810 0
2.588028 0.273810 0
2.612676 0.273810 0
2.637324 0.273810 0
2.661972 0.273810 0
2.686620 0.273810 0
2.711268 0.273810 0
2.735915 0.273810 0
2.760563 0.273810 0
2.785211 0.273810 0
2.809859 0.273810 0
2.834507 0.273810 0
2.859155 0.273810 0
2.883803 0.273810 0
2.908451 0.273810 0
2.933099 0.273810 0
2.957746 0.273810 0
2.982394 0.273810 0
3.007042 0.273810 0
3.031690 0.273810 0
3.056338 0.273810 0
3.080986 0.273810 0
3.105634 0.273810 0
3.130282 0.273810 0
3.154930 0.273810 0
3.179577 0.273810 0
3.204225 0.273810 0
3.228873 0.273810 0
3.253521 0.273810 0
3.278169 0.273810 0
3.302817 0.273810 0
3.327465 0.273810 0
3.352113 0.273810 0
3.376761 0.273810 0
3.401408 0.273810 0
3.426056 0.273810 0
3.450704 0.273810 0
3.475352 0.273810 0
0.000000 0.285714 0
0.024648 0.285714 0
0.049296 0.285714 0
0.073944 0.285714 0
0.098592 0.285714 0
0.123239 0.285714 0
0.147887 0.285714 0
0.172535 0.285714 0
0.197183 0.285714 0
0.221831 0.285714 0
0.246479 0.285714 0
0.271127 0.285714 0
0.295775 0.285714 0
0.320423 0.285714 0
0.345070 0.285714 0
0.369718 0.285714 0
0.394366 0.285714 0
0.419014 0.285714 0
0.443662 0.285714 0
0.468310 0.285714 0
0.492958 0.285714 0
0.517606 0.285714 0
0.542254 0.285714 0
0.566901 0.285714 0
0.591549 0.285714 0
0.616197 0.285714 0
0.640845 0.285714 0
0.665493 0.285714 0
0.690141 0.285714 0
0.714789 0.285714 0
0.739437 0.285714 0
0.764085 0.285714 0
0.788732 0.285714 0
0.813380 0.285714 0
0.838028 0.285714 0
0.862676 0.285714 0
0.887324 0.285714 0
0.911972 0.285714 0
0.936620 0.285714 0
0.961268 0.285714 0
0.985915 0.285714 0
1.010563 0.285714 0
1.035211 0.285714 0
1.059859 0.285714 0
1.084507 0.285714 0
1.109155 0.285714 0
1.133803 0.285714 0
1.158451 0.285714 0
1.183099 0.285714 0
1.207746 0.285714 0
1.232394 0.285714 0
1.257042 0.285714 0
1.281690 0.285714 0
1.306338 0.285714 0
1.330986 0.285714 0
1.355634 0.285714 0
1.380282 0.285714 0
1.404930 0.285714 0
1.429577 0.285714 0
1.454225 0.285714 0
1.478873 0.285714 0
1.503521 0.285714 0
1.528169 0.285714 0
1.552817 0.285714 0
1.577465 0.285714 0
[...]
POINT_DATA 5964 

VECTORS velocity float
1.000000 0.000000 0
0.999854 0.000000 0
0.999556 0.000000 0
0.999097 0.000000 0
0.998458 0.000000 0
0.997615 0.000000 0
0.996532 0.000000 0
0.995162 0.000000 0
0.993440 0.000000 0
0.991276 0.000000 0
0.988544 0.000000 0
0.985063 0.000000 0
0.980562 0.000000 0
0.974616 0.000000 0
0.966518 0.000000 0
0.954935 0.000000 0
0.937385 0.000000 0
0.905762 0.000000 0
0.847696 0.000000 0
-0.000000 0.000000 0
-0.000000 0.000000 0
-0.000000 0.000000 0
-0.000000 0.000000 0
-0.000000 0.000000 0
-0.000000 0.000000 0
-0.000000 0.000000 0
-0.000000 0.000000 0
-0.000000 0.000000 0
-0.000000 0.000000 0
-0.000000 0.000000 0
-0.000000 0.000000 0
-0.000000 0.000000 0
-0.000000 0.000000 0
-0.000000 0.000000 0
-0.000000 0.000000 0
-0.000000 0.000000 0
-0.000000 0.000000 0
-0.000000 0.000000 0
-0.000000 0.000000 0
-0.000000 0.000000 0
-0.000000 0.000000 0
-0.000000 0.000000 0
-0.000000 0.000000 0
-0.000000 0.000000 0
-0.000000 0.000000 0
-0.000000 0.000000 0
-0.000000 0.000000 0
-0.000000 0.000000 0
-0.000000 0.000000 0
-0.000000 0.000000 0
-0.000000 0.000000 0
-0.000000 0.000000 0
-0.000000 0.000000 0
-0.000000 0.000000 0
-0.000000 0.000000 0
-0.000000 0.000000 0
-0.000000 0.000000 0
-0.000000 0.000000 0
-0.000000 0.000000 0
-0.000000 0.000000 0
-0.000000 0.000000 0
-0.000000 0.000000 0
-0.000000 0.000000 0
-0.000000 0.000000 0
-0.000000 0.000000 0
-0.000000 0.000000 0
-0.000000 0.000000 0
-0.000000 0.000000 0
-0.000000 0.000000 0
-0.000000 0.000000 0
-0.000000 0.000000 0
-0.000000 0.000000 0
-0.000000 0.000000 0
-0.000000 0.000000 0
-0.000000 0.000000 0
-0.000000 0.000000 0
-0.000000 0.000000 0
-0.000000 0.000000 0
-0.000000 0.000000 0
-0.000000 0.000000 0
-0.000000 0.000000 0
-0.000000 0.000000 0
-0.000000 0.000000 0
-0.000001 0.000000 0
-0.000001 0.000000 0
-0.000001 0.000000 0
-0.000001 0.000000 0
-0.000001 0.000000 0
-0.000001 0.000000 0
-0.000001 0.000000 0
-0.000001 0.000000 0
-0.000001 0.000000 0
-0.000001 0.000000 0
-0.000001 0.000000 0
-0.000001 0.000000 0
-0.000001 0.000000 0
-0.000001 0.000000 0
-0.000001 0.000000 0
-0.000001 0.000000 0
-0.000001 0.000000 0
-0.000001 0.000000 0
-0.000001 0.000000 0
-0.000001 0.000000 0
-0.000001 0.000000 0
-0.000001 0.000000 0
-0.000001 0.000000 0
-0.000001 0.000000 0
-0.000001 0.000000 0
-0.000001 0.000000 0
-0.000001 0.000000 0
-0.000001 0.000000 0
-0.000001 0.000000 0
-0.000001 0.000000 0
-0.000001 0.000000 0
-0.000001 0.000000 0
-0.000001 0.000000 0
-0.000001 0.000000 0
-0.000001 0.000000 0
-0.000001 0.000000 0
-0.000001 0.000000 0
-0.000001 0.000000 0
-0.000001 0.000000 0
-0.000001 0.000000 0
-0.000001 0.000000 0
-0.000001 0.000000 0
-0.000001 0.000000 0
-0.000001 0.000000 0
-0.000001 0.000000 0
-0.000001 0.000000 0
-0.000001 0.000000 0
-0.000001 0.000000 0
-0.000001 0.000000 0
-0.000001 0.000000 0
-0.000001 0.000000 0
-0.000001 0.000000 0
-0.000001 0.000000 0
-0.000000 0.000000 0
-0.000000 0.000000 0
0.000000 0.000000 0
0.000000 0.000000 0
-0.000000 0.000000 0
0.496610 0.000000 0
1.000000 0.000035 0
0.999854 0.000107 0
0.999558 0.000183 0
0.999101 0.000265 0
0.998465 0.000358 0
0.997626 0.000465 0
0.996549 0.000592 0
0.995187 0.000747 0
0.993475 0.000939 0
0.991325 0.001182 0
0.988615 0.001500 0
0.985165 0.001928 0
0.980714 0.002523 0
0.974851 0.003392 0
0.966904 0.004753 0
0.955643 0.007035 0
0.938827 0.011875 0
0.910183 0.021660 0
0.860878 0.078853 0
0.714890 0.110956 0
0.576508 0.072745 0
0.473022 0.041074 0
0.401071 0.022638 0
0.351169 0.013308 0
0.315507 0.008679 0
0.289003 0.006202 0
0.268564 0.004717 0
0.252305 0.003739 0
0.239040 0.003050 0
0.227995 0.002542 0
0.218641 0.002156 0
0.210610 0.001854 0
0.203631 0.001614 0
0.197505 0.001420 0
0.192081 0.001259 0
0.187241 0.001126 0
0.182891 0.001014 0
0.178959 0.000918 0
0.175384 0.000836 0
0.172117 0.000766 0
0.169118 0.000704 0
0.166353 0.000651 0
0.163795 0.000603 0
0.161418 0.000561 0
0.159202 0.000524 0
0.157131 0.000491 0
0.155190 0.000461 0
0.153365 0.000434 0
0.151645 0.000410 0
0.150021 0.000388 0
0.148483 0.000367 0
0.147025 0.000349 0
0.145641 0.000332 0
0.144323 0.000316 0
0.143067 0.000302 0
0.141870 0.000289 0
0.140725 0.000276 0
0.139631 0.000264 0
0.138583 0.000253 0
0.137579 0.000243 0
0.136617 0.000233 0
0.135694 0.000224 0
0.134808 0.000215 0
0.133958 0.000207 0
0.133141 0.000199 0
0.132357 0.000191 0
0.131604 0.000184 0
0.130881 0.000177 0
0.130187 0.000170 0
0.129520 0.000164 0
0.128882 0.000157 0
0.128270 0.000151 0
0.127684 0.000145 0
0.127124 0.000139 0
0.126589 0.000133 0
0.126080 0.000127 0
0.125597 0.000121 0
0.125138 0.000115 0
0.124705 0.000108 0
0.124298 0.000102 0
0.123916 0.000096 0
0.123561 0.000090 0
0.123233 0.000083 0
0.122933 0.000076 0
0.122659 0.000069 0
0.122415 0.000062 0
0.122198 0.000055 0
0.122010 0.000048 0
0.121850 0.000041 0
0.121719 0.000033 0
0.121617 0.000026 0
0.121542 0.000018 0
0.121494 0.000011 0
0.121473 0.000004 0
0.121478 -0.000002 0
0.121505 -0.000009 0
0.121554 -0.000015 0
0.121623 -0.000020 0
0.121713 -0.000026 0
0.121822 -0.000032 0
0.121949 -0.000037 0
0.122096 -0.000043 0
0.122263 -0.000049 0
0.122451 -0.000055 0
0.122661 -0.000062 0
0.122897 -0.000069 0
0.123161 -0.000078 0
0.123456 -0.000088 0
0.123788 -0.000099 0
0.124162 -0.000111 0
0.124584 -0.000126 0
0.125062 -0.000143 0
0.125604 -0.000163 0
0.126222 -0.000186 0
0.126927 -0.000212 0
0.127734 -0.000243 0
0.128659 -0.000280 0
0.129721 -0.000322 0
0.130945 -0.000372 0
0.132356 -0.000430 0
0.133987 -0.000498 0
0.135877 -0.000579 0
0.138074 -0.000676 0
0.140633 -0.000791 0
0.143625 -0.000930 0
0.147137 -0.001098 0
0.151278 -0.001304 0
0.156189 -0.001560 0
0.162050 -0.001882 0
0.169100 -0.002294 0
0.177664 -0.002830 0
0.188189 -0.003547 0
0.201311 -0.004534 0
0.217970 -0.005942 0
0.239612 -0.008049 0
0.268570 -0.011408 0
0.308889 -0.017189 0
0.367882 -0.028828 0
0.462324 -0.051233 0
0.617912 -0.167164 0
0.993532 -0.268635 0
0.993532 -0.134318 0
1.000000 0.000070 0
0.999856 0.000213 0
0.999564 0.000364 0
0.999113 0.000528 0
0.998486 0.000712 0
0.997659 0.000926 0
0.996599 0.001178 0
0.995259 0.001485 0
0.993579 0.001865 0
0.991473 0.002347 0
0.988825 0.002975 0
0.985469 0.003816 0
0.981164 0.004982 0
0.975542 0.006670 0
0.968026 0.009277 0
0.957650 0.013561 0
0.942787 0.021957 0
0.920697 0.037649 0
0.888373 0.094325 0
0.891003 0.137348 0
0.842154 0.116821 0
0.771624 0.084735 0
0.701230 0.058854 0
0.639929 0.041327 0
0.589269 0.030026 0
0.547937 0.022673 0
0.514057 0.017725 0
0.485972 0.014260 0
0.462392 0.011742 0
0.442347 0.009853 0
0.425112 0.008397 0
0.410139 0.007250 0
0.397011 0.006329 0
0.385405 0.005578 0
0.375068 0.004958 0
0.365800 0.004439 0
0.357441 0.004000 0
0.349859 0.003626 0
0.342949 0.003305 0
0.336621 0.003026 0
0.330802 0.002784 0
0.325429 0.002571 0
0.320452 0.002384 0
0.315824 0.002218 0
0.311508 0.002070 0
0.307471 0.001938 0
0.303685 0.001819 0
0.300126 0.001712 0
0.296771 0.001615 0
0.293603 0.001527 0
0.290605 0.001447 0
0.287762 0.001373 0
0.285063 0.001305 0
0.282495 0.001243 0
0.280049 0.001185 0
0.277716 0.001131 0
0.275488 0.001081 0
0.273359 0.001035 0
0.271322 0.000991 0
0.269371 0.000949 0
0.267502 0.000911 0
0.265711 0.000874 0
0.263993 0.000839 0
0.262345 0.000805 0
0.260763 0.000773 0
0.259246 0.000743 0
0.257790 0.000713 0
0.256394 0.000685 0
0.255055 0.000657 0
0.253772 0.000630 0
0.252544 0.000604 0
0.251369 0.000579 0
0.250246 0.000553 0
0.249176 0.000529 0
0.248156 0.000504 0
0.247187 0.000480 0
0.246268 0.000455 0
0.245400 0.000431 0
0.244583 0.000406 0
0.243817 0.000381 0
0.243103 0.000356 0
0.242441 0.000330 0
0.241832 0.000304 0
0.241275 0.000277 0
0.240773 0.000250 0
0.240324 0.000223 0
0.239930 0.000195 0
0.239589 0.000168 0
0.239302 0.000140 0
0.239068 0.000113 0
0.238885 0.000086 0
0.238753 0.000059 0
0.238670 0.000033 0
0.238634 0.000008 0
0.238643 -0.000015 0
0.238693 -0.000037 0
0.238781 -0.000057 0
0.238905 -0.000077 0
0.239063 -0.000096 0
0.239253 -0.000114 0
0.239475 -0.000133 0
0.239730 -0.000152 0
0.240018 -0.000171 0
0.240342 -0.000192 0
0.240703 -0.000216 0
0.241107 -0.000241 0
0.241557 -0.000270 0
0.242062 -0.000303 0
0.242627 -0.000341 0
0.243262 -0.000384 0
0.243979 -0.000435 0
0.244790 -0.000493 0
0.245709 -0.000560 0
0.246756 -0.000639 0
0.247948 -0.000730 0
0.249312 -0.000836 0
0.250873 -0.000960 0
0.252664 -0.001104 0
0.254723 -0.001272 0
0.257095 -0.001469 0
0.259832 -0.001701 0
0.262996 -0.001974 0
0.266664 -0.002297 0
0.270925 -0.002681 0
0.275891 -0.003141 0
0.281696 -0.003697 0
0.288510 -0.004372 0
0.296544 -0.005203 0
0.306071 -0.006236 0
0.317440 -0.007542 0
0.331116 -0.009219 0
0.347723 -0.011421 0
0.368125 -0.014384 0
0.393543 -0.018499 0
0.425764 -0.024440 0
0.467482 -0.033460 0
0.522936 -0.047967 0
0.598761 -0.074108 0
0.706280 -0.120763 0
0.860064 -0.256570 0
0.994251 -0.362844 0
0.994251 -0.181422 0
1.000000 0.000105 0
0.999859 0.000318 0
0.999574 0.000542 0
0.999133 0.000786 0
0.998521 0.001060 0
0.997714 0.001377 0
0.996681 0.001751 0
0.995379 0.002205 0
0.993750 0.002767 0
0.991715 0.003478 0
0.989169 0.004400 0
0.985963 0.005628 0
0.981888 0.007318 0
0.976643 0.009737 0
0.969784 0.013394 0
0.960675 0.019226 0
0.948433 0.029723 0
0.933031 0.047941 0
0.915089 0.093195 0
0.945334 0.133280 0
0.948631 0.130404 0
0.922945 0.109139 0
0.881990 0.086246 0
0.836600 0.067385 0
0.792552 0.053111 0
0.752222 0.042529 0
0.716242 0.034646 0
0.684478 0.028692 0
0.656512 0.024120 0
0.631859 0.020548 0
0.610054 0.017712 0
0.590683 0.015427 0
0.573393 0.013561 0
0.557883 0.012018 0
0.543905 0.010728 0
0.531248 0.009640 0
0.519737 0.008713 0
0.509224 0.007918 0
0.499585 0.007231 0
0.490713 0.006633 0
0.482520 0.006110 0
0.474928 0.005650 0
0.467871 0.005243 0
0.461293 0.004881 0
0.455144 0.004558 0
0.449381 0.004269 0
0.443967 0.004009 0
0.438869 0.003774 0
0.434058 0.003560 0
0.429510 0.003366 0
0.425203 0.003189 0
0.421115 0.003026 0
0.417231 0.002876 0
0.413534 0.002738 0
0.410012 0.002610 0
0.406651 0.002491 0
0.403441 0.002380 0
0.400372 0.002277 0
0.397435 0.002179 0
0.394623 0.002088 0
0.391929 0.002001 0
0.389347 0.001919 0
0.386870 0.001841 0
0.384495 0.001767 0
0.382216 0.001696 0
0.380031 0.001627 0
0.377934 0.001562 0
0.375924 0.001498 0
0.373998 0.001436 0
0.372154 0.001376 0
0.370389 0.001318 0
0.368702 0.001260 0
0.367091 0.001204 0
0.365556 0.001148 0
0.364096 0.001093 0
0.362710 0.001038 0
0.361398 0.000983 0
0.360159 0.000928 0
0.358995 0.000873 0
0.357906 0.000817 0
0.356891 0.000761 0
0.355951 0.000704 0
0.355088 0.000646 0
0.354300 0.000588 0
0.353589 0.000529 0
0.352954 0.000470 0
0.352395 0.000410 0
0.351912 0.000351 0
0.351502 0.000293 0
0.351166 0.000235 0
0.350901 0.000178 0
0.350704 0.000122 0
0.350573 0.000069 0
0.350506 0.000017 0
0.350500 -0.000031 0
0.350550 -0.000075 0
0.350651 -0.000117 0
0.350800 -0.000156 0
0.350994 -0.000194 0
0.351231 -0.000231 0
0.351510 -0.000268 0
0.351831 -0.000305 0
0.352195 -0.000344 0
0.352604 -0.000386 0
0.353061 -0.000431 0
0.353571 -0.000482 0
0.354140 -0.000539 0
0.354777 -0.000604 0
0.355490 -0.000679 0
0.356290 -0.000764 0
0.357193 -0.000864 0
0.358212 -0.000979 0
0.359367 -0.001112 0
0.360680 -0.001267 0
0.362174 -0.001447 0
0.363880 -0.001656 0
0.365831 -0.001899 0
0.368067 -0.002182 0
0.370633 -0.002512 0
0.373583 -0.002897 0
0.376980 -0.003349 0
0.380900 -0.003879 0
0.385431 -0.004505 0
0.390679 -0.005247 0
0.396773 -0.006132 0
0.403869 -0.007193 0
0.412158 -0.008476 0
0.421876 -0.010042 0
0.433320 -0.011975 0
0.446867 -0.014390 0
0.463002 -0.017457 0
0.482361 -0.021422 0
0.505789 -0.026664 0
0.534429 -0.033781 0
0.569857 -0.043761 0
0.614258 -0.058342 0
0.670657 -0.080596 0
0.742909 -0.117381 0
0.834406 -0.177440 0
0.944489 -0.306252 0
0.995062 -0.398258 0
0.995062 -0.199129 0
1.000000 0.000138 0
0.999864 0.000419 0
0.999587 0.000715 0
0.999160 0.001037 0
0.998568 0.001398 0
0.997790 0.001814 0
0.996794 0.002306 0
0.995543 0.002901 0
0.993983 0.003635 0
0.992045 0.004560 0
0.989635 0.005754 0
0.986628 0.007332 0
0.982855 0.009483 0
0.978090 0.012517 0
0.972038 0.016990 0
0.964384 0.023874 0
0.954908 0.035309 0
0.945021 0.053754 0
0.937271 0.088383 0
0.965711 0.121148 0
0.987889 0.127635 0
0.990077 0.116922 0
0.975774 0.100558 0
0.951746 0.084525 0
0.923231 0.070780 0
0.893444 0.059530 0
0.864169 0.050445 0
0.836315 0.043109 0
0.810294 0.037156 0
0.786234 0.032292 0
0.764111 0.028285 0
0.743823 0.024957 0
0.725230 0.022171 0
0.708181 0.019821 0
0.692529 0.017822 0
0.678133 0.016112 0
0.664864 0.014637 0
0.652606 0.013359 0
0.641254 0.012245 0
0.630717 0.011268 0
0.620912 0.010408 0
0.611767 0.009646 0
0.603218 0.008970 0
0.595209 0.008365 0
0.587688 0.007824 0
0.580611 0.007337 0
0.573940 0.006897 0
0.567639 0.006498 0
0.561677 0.006135 0
0.556026 0.005804 0
0.550661 0.005501 0
0.545562 0.005223 0
0.540707 0.004967 0
0.536079 0.004730 0
0.531663 0.004510 0
0.527445 0.004305 0
0.523411 0.004114 0
0.519550 0.003935 0
0.515852 0.003767 0
0.512308 0.003609 0
0.508911 0.003459 0
0.505651 0.003317 0
0.502523 0.003182 0
0.499522 0.003053 0
0.496641 0.002929 0
0.493877 0.002811 0
0.491224 0.002696 0
0.488680 0.002586 0
0.486241 0.002478 0
0.483905 0.002374 0
0.481669 0.002271 0
0.479532 0.002171 0
0.477491 0.002073 0
0.475546 0.001975 0
0.473695 0.001879 0
0.471938 0.001783 0
0.470275 0.001687 0
0.468705 0.001591 0
0.467229 0.001494 0
0.465846 0.001397 0
0.464558 0.001300 0
0.463363 0.001201 0
0.462264 0.001101 0
0.461259 0.001001 0
0.460348 0.000900 0
0.459532 0.000799 0
0.458810 0.000699 0
0.458180 0.000599 0
0.457641 0.000500 0
0.457191 0.000404 0
0.456827 0.000309 0
0.456546 0.000217 0
0.456344 0.000129 0
0.456218 0.000043 0
0.456166 -0.000036 0
0.456183 -0.000110 0
0.456263 -0.000178 0
0.456402 -0.000242 0
0.456596 -0.000304 0
0.456842 -0.000363 0
0.457138 -0.000422 0
0.457484 -0.000482 0
0.457880 -0.000544 0
0.458328 -0.000611 0
0.458832 -0.000683 0
0.459396 -0.000763 0
0.460026 -0.000853 0
0.460732 -0.000955 0
0.461523 -0.001072 0
0.462411 -0.001207 0
0.463411 -0.001363 0
0.464540 -0.001543 0
0.465818 -0.001752 0
0.467268 -0.001995 0
0.468918 -0.002276 0
0.470799 -0.002603 0
0.472948 -0.002982 0
0.475405 -0.003423 0
0.478221 -0.003937 0
0.481453 -0.004535 0
0.485168 -0.005235 0
0.489444 -0.006055 0
0.494375 -0.007020 0
0.500069 -0.008160 0
0.506658 -0.009512 0
0.514301 -0.011127 0
0.523186 -0.013069 0
0.533547 -0.015424 0
0.545669 -0.018307 0
0.559906 -0.021878 0
0.576704 -0.026363 0
0.596627 -0.032086 0
0.620394 -0.039533 0
0.648929 -0.049444 0
0.683412 -0.062996 0
0.725308 -0.082146 0
0.776276 -0.110104 0
0.837641 -0.153197 0
0.907799 -0.218125 0
0.979138 -0.334166 0
0.995836 -0.411696 0
0.995837 -0.205847 0
1.000000 0.000170 0
0.999869 0.000517 0
0.999604 0.000882 0
0.999195 0.001278 0
0.998628 0.001722 0
0.997884 0.002233 0
0.996936 0.002836 0
0.995748 0.003563 0
0.994274 0.004457 0
0.992454 0.005579 0
0.990210 0.007017 0
0.987441 0.008903 0
0.984023 0.011442 0
0.979806 0.014961 0
0.974639 0.020014 0
0.968470 0.027499 0
0.961562 0.039075 0
0.955834 0.056459 0
0.954479 0.083202 0
0.976675 0.108832 0
1.001715 0.118635 0
1.016364 0.114991 0
1.018684 0.104759 0
1.011400 0.092763 0
0.997808 0.081270 0
0.980488 0.071055 0
0.961217 0.062239 0
0.941162 0.054714 0
0.921076 0.048309 0
0.901427 0.042854 0
0.882499 0.038196 0
0.864449 0.034207 0
0.847351 0.030775 0
0.831225 0.027812 0
0.816055 0.025241 0
0.801806 0.023002 0
0.788432 0.021043 0
0.775879 0.019321 0
0.764091 0.017803 0
0.753013 0.016458 0
0.742593 0.015262 0
0.732781 0.014196 0
0.723528 0.013240 0
0.714793 0.012382 0
0.706535 0.011609 0
0.698717 0.010909 0
0.691305 0.010274 0
0.684270 0.009697 0
0.677584 0.009169 0
0.671220 0.008686 0
0.665157 0.008243 0
0.659373 0.007834 0
0.653850 0.007456 0
0.648571 0.007106 0
0.643520 0.006781 0
0.638683 0.006477 0
0.634047 0.006194 0
0.629602 0.005927 0
0.625336 0.005677 0
0.621241 0.005440 0
0.617308 0.005217 0
0.613529 0.005004 0
0.609899 0.004802 0
0.606409 0.004608 0
0.603056 0.004422 0
0.599834 0.004244 0
0.596739 0.004072 0
0.593767 0.003905 0
0.590915 0.003743 0
0.588180 0.003585 0
0.585560 0.003430 0
0.583053 0.003279 0
0.580656 0.003129 0
0.578370 0.002982 0
0.576192 0.002835 0
0.574122 0.002690 0
0.572160 0.002545 0
0.570306 0.002400 0
0.568559 0.002254 0
0.566919 0.002107 0
0.565387 0.001960 0
0.563964 0.001812 0
0.562648 0.001663 0
0.561440 0.001513 0
0.560340 0.001363 0
0.559348 0.001213 0
0.558461 0.001063 0
0.557679 0.000916 0
0.557001 0.000770 0
0.556422 0.000628 0
0.555941 0.000489 0
0.555554 0.000356 0
0.555256 0.000227 0
0.555044 0.000103 0
0.554912 -0.000014 0
0.554860 -0.000123 0
0.554883 -0.000223 0
0.554975 -0.000317 0
0.555131 -0.000406 0
0.555348 -0.000493 0
0.555623 -0.000578 0
0.555954 -0.000663 0
0.556342 -0.000752 0
0.556789 -0.000846 0
0.557296 -0.000947 0
0.557869 -0.001059 0
0.558513 -0.001184 0
0.559236 -0.001327 0
0.560049 -0.001489 0
0.560962 -0.001676 0
0.561992 -0.001892 0
0.563155 -0.002141 0
0.564470 -0.002430 0
0.565962 -0.002765 0
0.567658 -0.003152 0
0.569588 -0.003602 0
0.571791 -0.004123 0
0.574307 -0.004729 0
0.577185 -0.005433 0
0.580483 -0.006252 0
0.584266 -0.007208 0
0.588611 -0.008326 0
0.593609 -0.009637 0
0.599365 -0.011180 0
0.606005 -0.013006 0
0.613677 -0.015176 0
0.622557 -0.017772 0
0.632858 -0.020901 0
0.644836 -0.024706 0
0.658801 -0.029380 0
0.675130 -0.035193 0
0.694284 -0.042524 0
0.716824 -0.051926 0
0.743419 -0.064218 0
0.774840 -0.080652 0
0.811879 -0.103195 0
0.855073 -0.134852 0
0.903981 -0.180906 0
0.954616 -0.245782 0
0.997912 -0.348774 0
0.996540 -0.414387 0
0.996540 -0.207192 0
1.000000 0.000201 0
0.999876 0.000611 0
0.999624 0.001041 0
0.999236 0.001508 0
0.998699 0.002031 0
0.997997 0.002631 0
0.997104 0.003338 0
0.995991 0.004186 0
0.994617 0.005226 0
0.992933 0.006523 0
0.990877 0.008175 0
0.988377 0.010320 0
0.985348 0.013171 0
0.981716 0.017049 0
0.977447 0.022466 0
0.972686 0.030189 0
0.967983 0.041412 0
0.965256 0.057175 0
0.967537 0.078316 0
0.984753 0.098334 0
1.007167 0.108465 0
1.025322 0.108726 0
1.035738 0.102956 0
1.038738 0.094607 0
1.035905 0.085710 0
1.028862 0.077204 0
1.018927 0.069439 0
1.007087 0.062497 0
0.994071 0.056348 0
0.980409 0.050924 0
0.966483 0.046145 0
0.952568 0.041934 0
0.938854 0.038219 0
0.925472 0.034937 0
0.912509 0.032031 0
0.900015 0.029453 0
0.888020 0.027160 0
0.876534 0.025116 0
0.865555 0.023289 0
0.855074 0.021652 0
0.845075 0.020180 0
0.835538 0.018855 0
0.826443 0.017657 0
0.817768 0.016573 0
0.809490 0.015589 0
0.801586 0.014692 0
0.794036 0.013874 0
0.786820 0.013125 0
0.779916 0.012438 0
0.773308 0.011806 0
0.766978 0.011223 0
0.760910 0.010684 0
0.755089 0.010184 0
0.749501 0.009719 0
0.744135 0.009286 0
0.738977 0.008880 0
0.734017 0.008500 0
0.729247 0.008142 0
0.724655 0.007805 0
0.720235 0.007486 0
0.715979 0.007184 0
0.711880 0.006896 0
0.707931 0.006621 0
0.704129 0.006358 0
0.700467 0.006105 0
0.696941 0.005862 0
0.693547 0.005627 0
0.690283 0.005398 0
0.687144 0.005177 0
0.684129 0.004960 0
0.681235 0.004748 0
0.678460 0.004540 0
0.675803 0.004334 0
0.673263 0.004132 0
0.670840 0.003930 0
0.668531 0.003730 0
0.666338 0.003530 0
0.664260 0.003330 0
0.662297 0.003130 0
0.660449 0.002929 0
0.658716 0.002727 0
0.657099 0.002524 0
0.655597 0.002320 0
0.654211 0.002116 0
0.652939 0.001911 0
0.651782 0.001707 0
0.650738 0.001505 0
0.649806 0.001304 0
0.648984 0.001108 0
0.648269 0.000915 0
0.647658 0.000728 0
0.647148 0.000548 0
0.646735 0.000375 0
0.646413 0.000210 0
0.646177 0.000052 0
0.646026 -0.000096 0
0.645959 -0.000234 0
0.645970 -0.000362 0
0.646053 -0.000484 0
0.646205 -0.000601 0
0.646423 -0.000715 0
0.646704 -0.000830 0
0.647048 -0.000948 0
0.647456 -0.001071 0
0.647929 -0.001204 0
0.648471 -0.001350 0
0.649088 -0.001513 0
0.649787 -0.001697 0
0.650576 -0.001906 0
0.651467 -0.002145 0
0.652473 -0.002421 0
0.653612 -0.002740 0
0.654901 -0.003108 0
0.656363 -0.003534 0
0.658025 -0.004028 0
0.659915 -0.004599 0
0.662069 -0.005261 0
0.664527 -0.006029 0
0.667335 -0.006920 0
0.670548 -0.007955 0
0.674226 -0.009161 0
0.678442 -0.010568 0
0.683281 -0.012214 0
0.688838 -0.014147 0
0.695228 -0.016424 0
0.702586 -0.019121 0