# vtk DataFile Version 2.0
generated by CFD-lab course output (written by Tobias Neckel) 
ASCII

DATASET STRUCTURED_GRID
DIMENSIONS  142 42 1 
POINTS 5964 float

0.000000 0.250000 0
0.024648 0.250000 0
0.049296 0.250000 0
0.073944 0.250000 0
0.098592 0.250000 0
0.123239 0.250000 0
0.147887 0.250000 0
0.172535 0.250000 0
0.197183 0.250000 0
0.221831 0.250000 0
0.246479 0.250000 0
0.271127 0.250000 0
0.295775 0.250000 0
0.320423 0.250000 0
0.345070 0.250000 0
0.369718 0.250000 0
0.394366 0.250000 0
0.419014 0.250000 0
0.443662 0.250000 0
0.468310 0.250000 0
0.492958 0.250000 0
0.517606 0.250000 0
0.542254 0.250000 0
0.566901 0.250000 0
0.591549 0.250000 0
0.616197 0.250000 0
0.640845 0.250000 0
0.665493 0.250000 0
0.690141 0.250000 0
0.714789 0.250000 0
0.739437 0.250000 0
0.764085 0.250000 0
0.788732 0.250000 0
0.813380 0.250000 0
0.838028 0.250000 0
0.862676 0.250000 0
0.887324 0.250000 0
0.911972 0.250000 0
0.936620 0.250000 0
0.961268 0.250000 0
0.985915 0.250000 0
1.010563 0.250000 0
1.035211 0.250000 0
1.059859 0.250000 0
1.084507 0.250000 0
1.109155 0.250000 0
1.133803 0.250000 0
1.158451 0.250000 0
1.183099 0.250000 0
1.207746 0.250000 0
1.232394 0.250000 0
1.257042 0.250000 0
1.281690 0.250000 0
1.306338 0.250000 0
1.330986 0.250000 0
1.355634 0.250000 0
1.380282 0.250000 0
1.404930 0.250000 0
1.429577 0.250000 0
1.454225 0.250000 0
1.478873 0.250000 0
1.503521 0.250000 0
1.528169 0.250000 0
1.552817 0.250000 0
1.577465 0.250000 0
1.602113 0.250000 0
1.626761 0.250000 0
1.651408 0.250000 0
1.676056 0.250000 0
1.700704 0.250000 0
1.725352 0.250000 0
1.750000 0.250000 0
1.774648 0.250000 0
1.799296 0.250000 0
1.823944 0.250000 0
1.848592 0.250000 0
1.873239 0.250000 0
1.897887 0.250000 0
1.922535 0.250000 0
1.947183 0.250000 0
1.971831 0.250000 0
1.996479 0.250000 0
2.021127 0.250000 0
2.045775 0.250000 0
2.070423 0.250000 0
2.095070 0.250000 0
2.119718 0.250000 0
2.144366 0.250000 0
2.169014 0.250000 0
2.193662 0.250000 0
2.218310 0.250000 0
2.242958 0.250000 0
2.267606 0.250000 0
2.292254 0.250000 0
2.316901 0.250000 0
2.341549 0.250000 0
2.366197 0.250000 0
2.390845 0.250000 0
2.415493 0.250000 0
2.440141 0.250000 0
2.464789 0.250000 0
2.489437 0.250000 0
2.514085 0.250000 0
2.538732 0.250000 0
2.563380 0.250000 0
2.588028 0.250000 0
2.612676 0.250000 0
2.637324 0.250000 0
2.661972 0.250000 0
2.686620 0.250000 0
2.711268 0.250000 0
2.735915 0.250000 0
2.760563 0.250000 0
2.785211 0.250000 0
2.809859 0.250000 0
2.834507 0.250000 0
2.859155 0.250000 0
2.883803 0.250000 0
2.908451 0.250000 0
2.933099 0.250000 0
2.957746 0.250000 0
2.982394 0.250000 0
3.007042 0.250000 0
3.031690 0.250000 0
3.056338 0.250000 0
3.080986 0.250000 0
3.105634 0.250000 0
3.130282 0.250000 0
3.154930 0.250000 0
3.179577 0.250000 0
3.204225 0.250000 0
3.228873 0.250000 0
3.253521 0.250000 0
3.278169 0.250000 0
3.302817 0.250000 0
3.327465 0.250000 0
3.352113 0.250000 0
3.376761 0.250000 0
3.401408 0.250000 0
3.426056 0.250000 0
3.450704 0.250000 0
3.475352 0.250000 0
0.000000 0.261905 0
0.024648 0.261905 0
0.049296 0.261905 0
0.073944 0.261905 0
0.098592 0.261905 0
0.123239 0.261905 0
0.147887 0.261905 0
0.172535 0.261905 0
0.197183 0.261905 0
0.221831 0.261905 0
0.246479 0.261905 0
0.271127 0.261905 0
0.295775 0.261905 0
0.320423 0.261905 0
0.345070 0.261905 0
0.369718 0.261905 0
0.394366 0.261905 0
0.419014 0.261905 0
0.443662 0.261905 0
0.468310 0.261905 0
0.492958 0.261905 0
0.517606 0.261905 0
0.542254 0.261905 0
0.566901 0.261905 0
0.591549 0.261905 0
0.616197 0.261905 0
0.640845 0.261905 0
0.665493 0.261905 0
0.690141 0.261905 0
0.714789 0.261905 0
0.739437 0.261905 0
0.764085 0.261905 0
0.788732 0.261905 0
0.813380 0.261905 0
0.838028 0.261905 0
0.862676 0.261905 0
0.887324 0.261905 0
0.911972 0.261905 0
0.936620 0.261905 0
0.961268 0.261905 0
0.985915 0.261905 0
1.010563 0.261905 0
1.035211 0.261905 0
1.059859 0.261905 0
1.084507 0.261905 0
1.109155 0.261905 0
1.133803 0.261905 0
1.158451 0.261905 0
1.183099 0.261905 0
1.207746 0.261905 0
1.232394 0.261905 0
1.257042 0.261905 0
1.281690 0.261905 0
1.306338 0.261905 0
1.330986 0.261905 0
1.355634 0.261905 0
1.380282 0.261905 0
1.404930 0.261905 0
1.429577 0.261905 0
1.454225 0.261905 0
1.478873 0.261905 0
1.503521 0.261905 0
1.528169 0.261905 0
1.552817 0.261905 0
1.577465 0.261905 0
1.602113 0.261905 0
1.626761 0.261905 0
1.651408 0.261905 0
1.676056 0.261905 0
1.700704 0.261905 0
1.725352 0.261905 0
1.750000 0.261905 0
1.774648 0.261905 0
1.799296 0.261905 0
1.823944 0.261905 0
1.848592 0.261905 0
1.873239 0.261905 0
1.897887 0.261905 0
1.922535 0.261905 0
1.947183 0.261905 0
1.971831 0.261905 0
1.996479 0.261905 0
2.021127 0.261905 0
2.045775 0.261905 0
2.070423 0.261905 0
2.095070 0.261905 0
2.119718 0.261905 0
2.144366 0.261905 0
2.169014 0.261905 0
2.193662 0.261905 0
2.218310 0.261905 0
2.242958 0.261905 0
2.267606 0.261905 0
2.292254 0.261905 0
2.316901 0.261905 0
2.341549 0.261905 0
2.366197 0.261905 0
2.390845 0.261905 0
2.415493 0.261905 0
2.440141 0.261905 0
2.464789 0.261905 0
2.489437 0.261905 0
2.514085 0.261905 0
2.538732 0.261905 0
2.563380 0.261905 0
2.588028 0.261905 0
2.612676 0.261905 0
2.637324 0.261905 0
2.661972 0.261905 0
2.686620 0.261905 0
2.711268 0.261905 0
2.735915 0.261905 0
2.760563 0.261905 0
2.785211 0.261905 0
2.809859 0.261905 0
2.834507 0.261905 0
2.859155 0.261905 0
2.883803 0.261905 0
2.908451 0.261905 0
2.933099 0.261905 0
2.957746 0.261905 0
2.982394 0.261905 0
3.007042 0.261905 0
3.031690 0.261905 0
3.056338 0.261905 0
3.080986 0.261905 0
3.105634 0.261905 0
3.130282 0.261905 0
3.154930 0.261905 0
3.179577 0.261905 0
3.204225 0.261905 0
3.228873 0.261905 0
3.253521 0.261905 0
3.278169 0.261905 0
3.302817 0.261905 0
3.327465 0.261905 0
3.352113 0.261905 0
3.376761 0.261905 0
3.401408 0.261905 0
3.426056 0.261905 0
3.450704 0.261905 0
3.475352 0.261905 0
0.000000 0.273810 0
0.024648 0.273810 0
0.049296 0.273810 0
0.073944 0.273810 0
0.098592 0.273810 0
0.123239 0.273810 0
0.147887 0.273810 0
0.172535 0.273810 0
0.197183 0.273810 0
0.221831 0.273810 0
0.246479 0.273810 0
0.271127 0.273810 0
0.295775 0.273810 0
0.320423 0.273810 0
0.345070 0.273810 0
0.369718 0.273810 0
0.394366 0.273810 0
0.419014 0.273810 0
0.443662 0.273810 0
0.468310 0.273810 0
0.492958 0.273810 0
0.517606 0.273810 0
0.542254 0.273810 0
0.566901 0.273810 0
0.591549 0.273810 0
0.616197 0.273810 0
0.640845 0.273810 0
0.665493 0.273810 0
0.690141 0.273810 0
0.714789 0.273810 0
0.739437 0.273810 0
0.764085 0.273810 0
0.788732 0.273810 0
0.813380 0.273810 0
0.838028 0.273810 0
0.862676 0.273810 0
0.887324 0.273810 0
0.911972 0.273810 0
0.936620 0.273810 0
0.961268 0.273810 0
0.985915 0.273810 0
1.010563 0.273810 0
1.035211 0.273810 0
1.059859 0.273810 0
1.084507 0.273810 0
1.109155 0.273810 0
1.133803 0.273810 0
1.158451 0.273810 0
1.183099 0.273810 0
1.207746 0.273810 0
1.232394 0.273810 0
1.257042 0.273810 0
1.281690 0.273810 0
1.306338 0.273810 0
1.330986 0.273810 0
1.355634 0.273810 0
1.380282 0.273810 0
1.404930 0.273810 0
1.429577 0.273810 0
1.454225 0.273810 0
1.478873 0.273810 0
1.503521 0.273810 0
1.528169 0.273810 0
1.552817 0.273810 0
1.577465 0.273810 0
1.602113 0.273810 0
1.626761 0.273810 0
1.651408 0.273810 0
1.676056 0.273810 0
1.700704 0.273810 0
1.725352 0.273810 0
1.750000 0.273810 0
1.774648 0.273810 0
1.799296 0.273810 0
1.823944 0.273810 0
1.848592 0.273810 0
1.873239 0.273810 0
1.897887 0.273810 0
1.922535 0.273810 0
1.947183 0.273810 0
1.971831 0.273810 0
1.996479 0.273810 0
2.021127 0.273810 0
2.045775 0.273810 0
2.070423 0.273810 0
2.095070 0.273810 0
2.119718 0.273810 0
2.144366 0.273810 0
2.169014 0.273810 0
2.193662 0.273810 0
2.218310 0.273810 0
2.242958 0.273810 0
2.267606 0.273810 0
2.292254 0.273810 0
2.316901 0.273810 0
2.341549 0.273810 0
2.366197 0.273810 0
2.390845 0.273810 0
2.415493 0.273810 0
2.440141 0.273810 0
2.464789 0.273810 0
2.489437 0.273810 0
2.514085 0.273810 0
2.538732 0.273810 0
2.563380 0.273810 0
2.588028 0.273810 0
2.612676 0.273810 0
2.637324 0.273810 0
2.661972 0.273810 0
2.686620 0.273810 0
2.711268 0.273810 0
2.735915 0.273810 0
2.760563 0.273810 0
2.785211 0.273810 0
2.809859 0.273810 0
2.834507 0.273810 0
2.859155 0.273810 0
2.883803 0.273810 0
2.908451 0.273810 0
2.933099 0.273810 0
2.957746 0.273810 0
2.982394 0.273810 0
3.007042 0.273810 0
3.031690 0.273810 0
3.056338 0.273810 0
3.080986 0.273810 0
3.105634 0.273810 0
3.130282 0.273810 0
3.154930 0.273810 0
3.179577 0.273810 0
3.204225 0.273810 0
3.228873 0.273810 0
3.253521 0.273810 0
3.278169 0.273810 0
3.302817 0.273810 0
3.327465 0.273810 0
3.352113 0.273810 0
3.376761 0.273810 0
3.401408 0.273810 0
3.426056 0.273810 0
3.450704 0.273810 0
3.475352 0.273810 0
0.000000 0.285714 0
0.024648 0.285714 0
0.049296 0.285714 0
0.073944 0.285714 0
0.098592 0.285714 0
0.123239 0.285714 0
0.147887 0.285714 0
0.172535 0.285714 0
0.197183 0.285714 0
0.221831 0.285714 0
0.246479 0.285714 0
0.271127 0.285714 0
0.295775 0.285714 0
0.320423 0.285714 0
0.345070 0.285714 0
0.369718 0.285714 0
0.394366 0.285714 0
0.419014 0.285714 0
0.443662 0.285714 0
0.468310 0.285714 0
0.492958 0.285714 0
0.517606 0.285714 0
0.542254 0.285714 0
0.566901 0.285714 0
0.591549 0.285714 0
0.616197 0.285714 0
0.640845 0.285714 0
0.665493 0.285714 0
0.690141 0.285714 0
0.714789 0.285714 0
0.739437 0.285714 0
0.764085 0.285714 0
0.788732 0.285714 0
0.813380 0.285714 0
0.838028 0.285714 0
0.862676 0.285714 0
0.887324 0.285714 0
0.911972 0.285714 0
0.936620 0.285714 0
0.961268 0.285714 0
0.985915 0.285714 0
1.010563 0.285714 0
1.035211 0.285714 0
1.059859 0.285714 0
1.084507 0.285714 0
1.109155 0.285714 0
1.133803 0.285714 0
1.158451 0.285714 0
1.183099 0.285714 0
1.207746 0.285714 0
1.232394 0.285714 0
1.257042 0.285714 0
1.281690 0.285714 0
1.306338 0.285714 0
1.330986 0.285714 0
1.355634 0.285714 0
1.380282 0.285714 0
1.404930 0.285714 0
1.429577 0.285714 0
1.454225 0.285714 0
1.478873 0.285714 0
1.503521 0.285714 0
1.528169 0.285714 0
1.552817 0.285714 0
1.577465 0.285714 0
[...]
POINT_DATA 5964 

VECTORS velocity float
1.000000 0.000000 0
0.999854 0.000000 0
0.999556 0.000000 0
0.999097 0.000000 0
0.998458 0.000000 0
0.997615 0.000000 0
0.996532 0.000000 0
0.995162 0.000000 0
0.993440 0.000000 0
0.991275 0.000000 0
0.988543 0.000000 0
0.985062 0.000000 0
0.980561 0.000000 0
0.974615 0.000000 0
0.966517 0.000000 0
0.954934 0.000000 0
0.937384 0.000000 0
0.905760 0.000000 0
0.847693 0.000000 0
-0.000000 0.000000 0
-0.000000 0.000000 0
-0.000000 0.000000 0
-0.000000 0.000000 0
-0.000000 0.000000 0
-0.000000 0.000000 0
-0.000000 0.000000 0
-0.000000 0.000000 0
-0.000000 0.000000 0
-0.000000 0.000000 0
-0.000000 0.000000 0
-0.000000 0.000000 0
-0.000000 0.000000 0
-0.000000 0.000000 0
-0.000000 0.000000 0
-0.000000 0.000000 0
-0.000000 0.000000 0
-0.000000 0.000000 0
-0.000000 0.000000 0
-0.000000 0.000000 0
-0.000000 0.000000 0
-0.000000 0.000000 0
-0.000000 0.000000 0
-0.000000 0.000000 0
-0.000000 0.000000 0
-0.000000 0.000000 0
-0.000000 0.000000 0
-0.000000 0.000000 0
-0.000000 0.000000 0
-0.000000 0.000000 0
-0.000000 0.000000 0
-0.000000 0.000000 0
-0.000000 0.000000 0
-0.000000 0.000000 0
-0.000000 0.000000 0
-0.000000 0.000000 0
-0.000000 0.000000 0
-0.000000 0.000000 0
-0.000000 0.000000 0
-0.000000 0.000000 0
-0.000000 0.000000 0
-0.000000 0.000000 0
-0.000000 0.000000 0
-0.000000 0.000000 0
-0.000000 0.000000 0
-0.000000 0.000000 0
-0.000000 0.000000 0
-0.000000 0.000000 0
-0.000000 0.000000 0
-0.000000 0.000000 0
-0.000000 0.000000 0
-0.000000 0.000000 0
-0.000000 0.000000 0
-0.000000 0.000000 0
-0.000000 0.000000 0
-0.000000 0.000000 0
-0.000000 0.000000 0
-0.000000 0.000000 0
-0.000000 0.000000 0
-0.000000 0.000000 0
-0.000000 0.000000 0
-0.000000 0.000000 0
-0.000000 0.000000 0
-0.000000 0.000000 0
-0.000000 0.000000 0
-0.000000 0.000000 0
-0.000000 0.000000 0
-0.000000 0.000000 0
-0.000000 0.000000 0
-0.000000 0.000000 0
-0.000000 0.000000 0
-0.000000 0.000000 0
-0.000000 0.000000 0
-0.000000 0.000000 0
-0.000000 0.000000 0
-0.000000 0.000000 0
-0.000000 0.000000 0
-0.000000 0.000000 0
-0.000000 0.000000 0
-0.000000 0.000000 0
-0.000000 0.000000 0
-0.000000 0.000000 0
-0.000000 0.000000 0
-0.000000 0.000000 0
-0.000000 0.000000 0
-0.000000 0.000000 0
-0.000000 0.000000 0
-0.000000 0.000000 0
-0.000001 0.000000 0
-0.000001 0.000000 0
-0.000001 0.000000 0
-0.000001 0.000000 0
-0.000001 0.000000 0
-0.000001 0.000000 0
-0.000001 0.000000 0
-0.000001 0.000000 0
-0.000001 0.000000 0
-0.000001 0.000000 0
-0.000001 0.000000 0
-0.000001 0.000000 0
-0.000001 0.000000 0
-0.000001 0.000000 0
-0.000001 0.000000 0
-0.000001 0.000000 0
-0.000001 0.000000 0
-0.000001 0.000000 0
-0.000001 0.000000 0
-0.000001 0.000000 0
-0.000001 0.000000 0
-0.000001 0.000000 0
-0.000001 0.000000 0
-0.000001 0.000000 0
-0.000001 0.000000 0
-0.000001 0.000000 0
-0.000001 0.000000 0
-0.000001 0.000000 0
-0.000000 0.000000 0
-0.000000 0.000000 0
-0.000000 0.000000 0
0.000000 0.000000 0
0.000000 0.000000 0
-0.000000 0.000000 0
0.496516 0.000000 0
1.000000 0.000035 0
0.999854 0.000107 0
0.999558 0.000183 0
0.999101 0.000265 0
0.998465 0.000358 0
0.997626 0.000465 0
0.996549 0.000592 0
0.995186 0.000747 0
0.993475 0.000939 0
0.991325 0.001182 0
0.988614 0.001500 0
0.985165 0.001928 0
0.980714 0.002523 0
0.974850 0.003392 0
0.966903 0.004753 0
0.955641 0.007036 0
0.938825 0.011875 0
0.910181 0.021660 0
0.860875 0.078853 0
0.714887 0.110956 0
0.576505 0.072745 0
0.473018 0.041074 0
0.401067 0.022638 0
0.351164 0.013309 0
0.315501 0.008679 0
0.288996 0.006202 0
0.268556 0.004718 0
0.252296 0.003739 0
0.239030 0.003050 0
0.227983 0.002542 0
0.218627 0.002156 0
0.210594 0.001855 0
0.203612 0.001615 0
0.197484 0.001420 0
0.192057 0.001260 0
0.187214 0.001127 0
0.182861 0.001015 0
0.178925 0.000919 0
0.175345 0.000838 0
0.172074 0.000767 0
0.169070 0.000706 0
0.166299 0.000652 0
0.163734 0.000605 0
0.161350 0.000563 0
0.159127 0.000526 0
0.157047 0.000493 0
0.155096 0.000463 0
0.153260 0.000437 0
0.151529 0.000413 0
0.149892 0.000391 0
0.148341 0.000371 0
0.146869 0.000353 0
0.145468 0.000336 0
0.144132 0.000321 0
0.142857 0.000307 0
0.141638 0.000294 0
0.140471 0.000281 0
0.139352 0.000270 0
0.138277 0.000260 0
0.137245 0.000250 0
0.136251 0.000241 0
0.135294 0.000232 0
0.134371 0.000224 0
0.133481 0.000216 0
0.132622 0.000209 0
0.131791 0.000202 0
0.130988 0.000196 0
0.130211 0.000189 0
0.129460 0.000183 0
0.128732 0.000178 0
0.128026 0.000172 0
0.127343 0.000167 0
0.126681 0.000162 0
0.126039 0.000157 0
0.125417 0.000152 0
0.124814 0.000148 0
0.124229 0.000143 0
0.123662 0.000139 0
0.123113 0.000135 0
0.122581 0.000131 0
0.122065 0.000127 0
0.121567 0.000123 0
0.121084 0.000119 0
0.120618 0.000115 0
0.120168 0.000111 0
0.119734 0.000107 0
0.119316 0.000103 0
0.118914 0.000099 0
0.118529 0.000095 0
0.118160 0.000091 0
0.117808 0.000087 0
0.117474 0.000082 0
0.117158 0.000078 0
0.116860 0.000073 0
0.116582 0.000068 0
0.116325 0.000063 0
0.116089 0.000057 0
0.115876 0.000051 0
0.115687 0.000045 0
0.115523 0.000038 0
0.115388 0.000030 0
0.115282 0.000022 0
0.115210 0.000013 0
0.115173 0.000003 0
0.115177 -0.000008 0
0.115222 -0.000020 0
0.115313 -0.000032 0
0.115453 -0.000046 0
0.115648 -0.000062 0
0.115901 -0.000079 0
0.116221 -0.000098 0
0.116613 -0.000120 0
0.117086 -0.000144 0
0.117649 -0.000171 0
0.118315 -0.000201 0
0.119096 -0.000236 0
0.120009 -0.000275 0
0.121072 -0.000321 0
0.122308 -0.000374 0
0.123744 -0.000435 0
0.125412 -0.000507 0
0.127351 -0.000591 0
0.129609 -0.000691 0
0.132245 -0.000810 0
0.135329 -0.000953 0
0.138953 -0.001127 0
0.143229 -0.001340 0
0.148301 -0.001605 0
0.154358 -0.001937 0
0.161647 -0.002363 0
0.170502 -0.002917 0
0.181386 -0.003657 0
0.194953 -0.004674 0
0.212167 -0.006122 0
0.234499 -0.008281 0
0.264313 -0.011704 0
0.305674 -0.017556 0
0.365889 -0.029249 0
0.461636 -0.051617 0
0.618267 -0.167001 0
0.993343 -0.267978 0
0.993343 -0.133989 0
1.000000 0.000070 0
0.999856 0.000213 0
0.999564 0.000364 0
0.999113 0.000528 0
0.998486 0.000712 0
0.997659 0.000926 0
0.996599 0.001178 0
0.995259 0.001485 0
0.993579 0.001865 0
0.991473 0.002348 0
0.988825 0.002975 0
0.985469 0.003816 0
0.981163 0.004982 0
0.975541 0.006670 0
0.968025 0.009278 0
0.957649 0.013561 0
0.942785 0.021957 0
0.920695 0.037650 0
0.888371 0.094325 0
0.890999 0.137349 0
0.842150 0.116821 0
0.771619 0.084735 0
0.701224 0.058855 0
0.639921 0.041328 0
0.589259 0.030027 0
0.547926 0.022674 0
0.514043 0.017726 0
0.485956 0.014261 0
0.462374 0.011743 0
0.442326 0.009854 0
0.425088 0.008399 0
0.410111 0.007252 0
0.396978 0.006332 0
0.385367 0.005581 0
0.375025 0.004961 0
0.365752 0.004442 0
0.357386 0.004004 0
0.349797 0.003630 0
0.342878 0.003309 0
0.336541 0.003031 0
0.330712 0.002789 0
0.325328 0.002577 0
0.320338 0.002391 0
0.315696 0.002225 0
0.311365 0.002078 0
0.307311 0.001947 0
0.303507 0.001829 0
0.299927 0.001723 0
0.296550 0.001627 0
0.293357 0.001540 0
0.290332 0.001460 0
0.287459 0.001388 0
0.284727 0.001322 0
0.282124 0.001261 0
0.279639 0.001204 0
0.277263 0.001153 0
0.274990 0.001104 0
0.272810 0.001060 0
0.270718 0.001018 0
0.268708 0.000979 0
0.266775 0.000942 0
0.264913 0.000908 0
0.263119 0.000876 0
0.261389 0.000845 0
0.259719 0.000816 0
0.258106 0.000789 0
0.256547 0.000763 0
0.255039 0.000738 0
0.253580 0.000715 0
0.252168 0.000692 0
0.250801 0.000671 0
0.249477 0.000650 0
0.248194 0.000630 0
0.246951 0.000611 0
0.245746 0.000592 0
0.244579 0.000574 0
0.243447 0.000556 0
0.242351 0.000539 0
0.241290 0.000522 0
0.240262 0.000506 0
0.239267 0.000490 0
0.238304 0.000474 0
0.237374 0.000458 0
0.236475 0.000443 0
0.235608 0.000427 0
0.234773 0.000412 0
0.233969 0.000396 0
0.233197 0.000380 0
0.232457 0.000364 0
0.231749 0.000348 0
0.231075 0.000331 0
0.230434 0.000314 0
0.229829 0.000296 0
0.229259 0.000278 0
0.228727 0.000259 0
0.228234 0.000238 0
0.227782 0.000217 0
0.227372 0.000194 0
0.227008 0.000170 0
0.226693 0.000144 0
0.226428 0.000116 0
0.226218 0.000086 0
0.226067 0.000053 0
0.225981 0.000016 0
0.225967 -0.000024 0
0.226029 -0.000066 0
0.226173 -0.000112 0
0.226403 -0.000162 0
0.226728 -0.000216 0
0.227156 -0.000277 0
0.227698 -0.000344 0
0.228365 -0.000418 0
0.229170 -0.000501 0
0.230131 -0.000594 0
0.231266 -0.000699 0
0.232596 -0.000818 0
0.234149 -0.000954 0
0.235956 -0.001110 0
0.238053 -0.001290 0
0.240484 -0.001499 0
0.243303 -0.001742 0
0.246574 -0.002027 0
0.250371 -0.002364 0
0.254789 -0.002763 0
0.259942 -0.003240 0
0.265969 -0.003815 0
0.273045 -0.004515 0
0.281391 -0.005375 0
0.291287 -0.006446 0
0.303097 -0.007798 0
0.317302 -0.009534 0
0.334546 -0.011810 0
0.355717 -0.014867 0
0.382066 -0.019100 0
0.415412 -0.025186 0
0.458479 -0.034377 0
0.515525 -0.049061 0
0.593169 -0.075328 0
0.702666 -0.121897 0
0.858293 -0.256811 0
0.994053 -0.362319 0
0.994053 -0.181159 0
1.000000 0.000105 0
0.999859 0.000318 0
0.999574 0.000542 0
0.999133 0.000786 0
0.998521 0.001060 0
0.997714 0.001377 0
0.996681 0.001752 0
0.995379 0.002205 0
0.993750 0.002767 0
0.991715 0.003479 0
0.989168 0.004400 0
0.985962 0.005628 0
0.981888 0.007318 0
0.976642 0.009737 0
0.969783 0.013395 0
0.960673 0.019226 0
0.948431 0.029724 0
0.933029 0.047942 0
0.915087 0.093196 0
0.945331 0.133281 0
0.948627 0.130405 0
0.922940 0.109140 0
0.881983 0.086247 0
0.836591 0.067386 0
0.792541 0.053113 0
0.752209 0.042531 0
0.716226 0.034649 0
0.684459 0.028695 0
0.656490 0.024123 0
0.631833 0.020551 0
0.610024 0.017716 0
0.590648 0.015432 0
0.573352 0.013566 0
0.557836 0.012023 0
0.543851 0.010734 0
0.531186 0.009647 0
0.519666 0.008721 0
0.509143 0.007926 0
0.499492 0.007240 0
0.490608 0.006643 0
0.482401 0.006121 0
0.474793 0.005663 0
0.467719 0.005257 0
0.461122 0.004897 0
0.454951 0.004576 0
0.449164 0.004288 0
0.443724 0.004030 0
0.438597 0.003797 0
0.433755 0.003586 0
0.429172 0.003394 0
0.424825 0.003219 0
0.420695 0.003060 0
0.416765 0.002913 0
0.413017 0.002778 0
0.409438 0.002654 0
0.406016 0.002539 0
0.402739 0.002432 0
0.399597 0.002333 0
0.396581 0.002241 0
0.393682 0.002155 0
0.390894 0.002074 0
0.388209 0.001998 0
0.385621 0.001926 0
0.383125 0.001859 0
0.380715 0.001795 0
0.378388 0.001734 0
0.376138 0.001677 0
0.373963 0.001622 0
0.371858 0.001570 0
0.369821 0.001520 0
0.367849 0.001472 0
0.365938 0.001426 0
0.364088 0.001382 0
0.362294 0.001339 0
0.360557 0.001298 0
0.358873 0.001258 0
0.357242 0.001219 0
0.355661 0.001181 0
0.354131 0.001144 0
0.352649 0.001108 0
0.351215 0.001072 0
0.349828 0.001037 0
0.348487 0.001002 0
0.347193 0.000968 0
0.345944 0.000933 0
0.344741 0.000899 0
0.343583 0.000864 0
0.342471 0.000829 0
0.341406 0.000794 0
0.340387 0.000758 0
0.339417 0.000722 0
0.338494 0.000684 0
0.337622 0.000645 0
0.336801 0.000605 0
0.336032 0.000563 0
0.335319 0.000519 0
0.334663 0.000473 0
0.334068 0.000425 0
0.333535 0.000373 0
0.333068 0.000318 0
0.332671 0.000260 0
0.332349 0.000196 0
0.332107 0.000127 0
0.331950 0.000051 0
0.331886 -0.000031 0
0.331925 -0.000119 0
0.332072 -0.000213 0
0.332334 -0.000314 0
0.332719 -0.000426 0
0.333238 -0.000548 0
0.333904 -0.000682 0
0.334730 -0.000831 0
0.335734 -0.000997 0
0.336934 -0.001183 0
0.338355 -0.001392 0
0.340023 -0.001628 0
0.341970 -0.001898 0
0.344235 -0.002206 0
0.346862 -0.002561 0
0.349905 -0.002971 0
0.353428 -0.003448 0
0.357505 -0.004005 0
0.362229 -0.004659 0
0.367708 -0.005433 0
0.374074 -0.006353 0
0.381490 -0.007456 0
0.390154 -0.008789 0
0.400310 -0.010415 0
0.412269 -0.012421 0
0.426422 -0.014928 0
0.443271 -0.018107 0
0.463473 -0.022212 0
0.487898 -0.027626 0
0.517720 -0.034954 0
0.554545 -0.045187 0
0.600588 -0.060058 0
0.658904 -0.082611 0
0.733359 -0.119636 0
0.827385 -0.179670 0
0.940264 -0.307739 0
0.994845 -0.399121 0
0.994845 -0.199560 0
1.000000 0.000138 0
0.999864 0.000419 0
0.999587 0.000715 0
0.999160 0.001037 0
0.998568 0.001398 0
0.997790 0.001814 0
0.996794 0.002306 0
0.995543 0.002901 0
0.993983 0.003635 0
0.992045 0.004560 0
0.989634 0.005754 0
0.986627 0.007333 0
0.982854 0.009483 0
0.978089 0.012517 0
0.972037 0.016990 0
0.964382 0.023874 0
0.954906 0.035310 0
0.945019 0.053755 0
0.937269 0.088384 0
0.965708 0.121149 0
0.987885 0.127636 0
0.990072 0.116924 0
0.975767 0.100560 0
0.951738 0.084527 0
0.923220 0.070783 0
0.893432 0.059534 0
0.864153 0.050449 0
0.836296 0.043113 0
0.810271 0.037161 0
0.786207 0.032297 0
0.764080 0.028291 0
0.743786 0.024964 0
0.725186 0.022179 0
0.708131 0.019830 0
0.692470 0.017833 0
0.678065 0.016123 0
0.664785 0.014650 0
0.652515 0.013374 0
0.641151 0.012261 0
0.630599 0.011286 0
0.620777 0.010428 0
0.611614 0.009668 0
0.603044 0.008994 0
0.595012 0.008392 0
0.587465 0.007853 0
0.580361 0.007369 0
0.573658 0.006933 0
0.567322 0.006538 0
0.561321 0.006179 0
0.555628 0.005853 0
0.550217 0.005554 0
0.545065 0.005281 0
0.540153 0.005030 0
0.535463 0.004799 0
0.530979 0.004586 0
0.526684 0.004388 0
0.522568 0.004205 0
0.518616 0.004034 0
0.514820 0.003875 0
0.511168 0.003726 0
0.507653 0.003586 0
0.504265 0.003455 0
0.500998 0.003331 0
0.497845 0.003214 0
0.494800 0.003104 0
0.491856 0.003000 0
0.489010 0.002900 0
0.486257 0.002806 0
0.483592 0.002715 0
0.481011 0.002629 0
0.478511 0.002546 0
0.476090 0.002466 0
0.473743 0.002390 0
0.471468 0.002316 0
0.469263 0.002244 0
0.467126 0.002175 0
0.465054 0.002107 0
0.463047 0.002042 0
0.461103 0.001977 0
0.459219 0.001914 0
0.457397 0.001852 0
0.455633 0.001791 0
0.453928 0.001731 0
0.452281 0.001671 0
0.450692 0.001611 0
0.449160 0.001552 0
0.447686 0.001492 0
0.446270 0.001432 0
0.444912 0.001371 0
0.443613 0.001309 0
0.442373 0.001246 0
0.441195 0.001181 0
0.440078 0.001114 0
0.439026 0.001046 0
0.438039 0.000974 0
0.437120 0.000900 0
0.436272 0.000822 0
0.435497 0.000740 0
0.434798 0.000653 0
0.434180 0.000561 0
0.433646 0.000464 0
0.433202 0.000359 0
0.432852 0.000246 0
0.432602 0.000123 0
0.432458 -0.000012 0
0.432435 -0.000156 0
0.432537 -0.000309 0
0.432774 -0.000474 0
0.433153 -0.000653 0
0.433687 -0.000849 0
0.434388 -0.001064 0
0.435271 -0.001302 0
0.436356 -0.001565 0
0.437662 -0.001860 0
0.439215 -0.002191 0
0.441044 -0.002564 0
0.443183 -0.002989 0
0.445675 -0.003473 0
0.448565 -0.004029 0
0.451912 -0.004670 0
0.455783 -0.005413 0
0.460257 -0.006278 0
0.465429 -0.007291 0
0.471413 -0.008484 0
0.478345 -0.009897 0
0.486387 -0.011581 0
0.495739 -0.013605 0
0.506642 -0.016057 0
0.519394 -0.019057 0
0.534365 -0.022771 0
0.552017 -0.027429 0
0.572936 -0.033364 0
0.597867 -0.041068 0
0.627761 -0.051291 0
0.663832 -0.065211 0
0.707582 -0.084782 0
0.760718 -0.113188 0
0.824629 -0.156703 0
0.897862 -0.221831 0
0.972975 -0.337693 0
0.995596 -0.415042 0
0.995596 -0.207521 0
1.000000 0.000170 0
0.999869 0.000517 0
0.999604 0.000882 0
0.999195 0.001278 0
0.998628 0.001722 0
0.997884 0.002234 0
0.996936 0.002837 0
0.995748 0.003563 0
0.994274 0.004457 0
0.992454 0.005579 0
0.990209 0.007017 0
0.987441 0.008903 0
0.984022 0.011442 0
0.979806 0.014962 0
0.974638 0.020015 0
0.968468 0.027500 0
0.961560 0.039076 0
0.955832 0.056460 0
0.954477 0.083204 0
0.976672 0.108834 0
1.001711 0.118637 0
1.016359 0.114993 0
1.018678 0.104762 0
1.011393 0.092766 0
0.997799 0.081274 0
0.980477 0.071060 0
0.961203 0.062244 0
0.941145 0.054720 0
0.921055 0.048316 0
0.901402 0.042862 0
0.882469 0.038205 0
0.864414 0.034217 0
0.847309 0.030787 0
0.831175 0.027825 0
0.815997 0.025256 0
0.801739 0.023018 0
0.788354 0.021061 0
0.775788 0.019342 0
0.763986 0.017826 0
0.752893 0.016483 0
0.742456 0.015291 0
0.732623 0.014227 0
0.723349 0.013276 0
0.714589 0.012422 0
0.706303 0.011652 0
0.698455 0.010957 0
0.691009 0.010328 0
0.683936 0.009755 0
0.677208 0.009234 0
0.670797 0.008757 0
0.664683 0.008321 0
0.658842 0.007920 0
0.653256 0.007551 0
0.647907 0.007210 0
0.642780 0.006894 0
0.637859 0.006601 0
0.633131 0.006329 0
0.628585 0.006075 0
0.624208 0.005838 0
0.619992 0.005616 0
0.615926 0.005408 0
0.612003 0.005212 0
0.608214 0.005027 0
0.604553 0.004852 0
0.601012 0.004687 0
0.597587 0.004530 0
0.594271 0.004381 0
0.591060 0.004239 0
0.587948 0.004104 0
0.584933 0.003974 0
0.582010 0.003849 0
0.579175 0.003730 0
0.576426 0.003614 0
0.573759 0.003503 0
0.571173 0.003395 0
0.568664 0.003291 0
0.566230 0.003189 0
0.563871 0.003090 0
0.561583 0.002993 0
0.559366 0.002898 0
0.557218 0.002804 0
0.555139 0.002712 0
0.553128 0.002621 0
0.551183 0.002531 0
0.549306 0.002440 0
0.547494 0.002350 0
0.545750 0.002260 0
0.544072 0.002169 0
0.542461 0.002078 0
0.540918 0.001984 0
0.539444 0.001890 0
0.538041 0.001793 0
0.536708 0.001693 0
0.535449 0.001590 0
0.534265 0.001484 0
0.533158 0.001373 0
0.532131 0.001257 0
0.531187 0.001136 0
0.530330 0.001009 0
0.529563 0.000875 0
0.528890 0.000732 0
0.528316 0.000580 0
0.527846 0.000417 0
0.527486 0.000241 0
0.527241 0.000049 0
0.527121 -0.000157 0
0.527140 -0.000377 0
0.527304 -0.000612 0
0.527623 -0.000867 0
0.528107 -0.001144 0
0.528770 -0.001447 0
0.529628 -0.001781 0
0.530698 -0.002151 0
0.532002 -0.002563 0
0.533565 -0.003025 0
0.535417 -0.003545 0
0.537591 -0.004135 0
0.540130 -0.004806 0
0.543080 -0.005574 0
0.546499 -0.006457 0
0.550452 -0.007478 0
0.555018 -0.008664 0
0.560290 -0.010048 0
0.566376 -0.011671 0
0.573407 -0.013585 0
0.581538 -0.015857 0
0.590953 -0.018572 0
0.601874 -0.021841 0
0.614570 -0.025811 0
0.629365 -0.030685 0
0.646656 -0.036737 0
0.666923 -0.044357 0
0.690751 -0.054106 0
0.718842 -0.066815 0
0.752002 -0.083741 0
0.791073 -0.106854 0
0.836661 -0.139144 0
0.888437 -0.185876 0
0.942644 -0.251320 0
0.990526 -0.354944 0
0.996278 -0.420972 0
0.996279 -0.210485 0
1.000000 0.000201 0
0.999876 0.000611 0
0.999624 0.001041 0
0.999236 0.001508 0
0.998699 0.002031 0
0.997996 0.002631 0
0.997104 0.003338 0
0.995990 0.004186 0
0.994616 0.005226 0
0.992932 0.006524 0
0.990877 0.008175 0
0.988376 0.010321 0
0.985348 0.013171 0
0.981715 0.017050 0
0.977446 0.022466 0
0.972684 0.030190 0
0.967982 0.041413 0
0.965254 0.057176 0
0.967534 0.078318 0
0.984750 0.098336 0
1.007163 0.108467 0
1.025317 0.108729 0
1.035733 0.102959 0
1.038732 0.094611 0
1.035897 0.085715 0
1.028853 0.077209 0
1.018915 0.069446 0
1.007073 0.062504 0
0.994054 0.056357 0
0.980387 0.050934 0
0.966457 0.046156 0
0.952536 0.041947 0
0.938816 0.038234 0
0.925428 0.034953 0
0.912456 0.032050 0
0.899954 0.029474 0
0.887948 0.027184 0
0.876450 0.025143 0
0.865458 0.023319 0
0.854961 0.021685 0
0.844945 0.020218 0
0.835389 0.018897 0
0.826272 0.017704 0
0.817572 0.016625 0
0.809267 0.015646 0
0.801333 0.014756 0
0.793748 0.013945 0
0.786493 0.013204 0
0.779547 0.012525 0
0.772892 0.011902 0
0.766509 0.011329 0
0.760383 0.010800 0
0.754497 0.010312 0
0.748838 0.009859 0
0.743393 0.009439 0
0.738148 0.009048 0
0.733093 0.008684 0
0.728217 0.008344 0
0.723510 0.008025 0
0.718964 0.007726 0
0.714569 0.007445 0
0.710318 0.007180 0
0.706203 0.006930 0
0.702220 0.006693 0
0.698360 0.006469 0
0.694619 0.006256 0
0.690992 0.006053 0
0.687473 0.005859 0
0.684058 0.005674 0
0.680744 0.005497 0
0.677527 0.005327 0
0.674402 0.005163 0
0.671368 0.005006 0
0.668422 0.004853 0
0.665560 0.004705 0
0.662780 0.004562 0
0.660082 0.004423 0
0.657461 0.004286 0
0.654918 0.004153 0
0.652451 0.004022 0
0.650058 0.003894 0
0.647739 0.003767 0
0.645493 0.003642 0
0.643319 0.003517 0
0.641217 0.003393 0
0.639187 0.003269 0
0.637229 0.003145 0
0.635343 0.003020 0
0.633530 0.002894 0
0.631790 0.002766 0
0.630125 0.002636 0
0.628535 0.002503 0
0.627023 0.002366 0
0.625589 0.002226 0
0.624236 0.002081 0
0.622967 0.001930 0
0.621783 0.001773 0
0.620688 0.001609 0
0.619685 0.001438 0
0.618777 0.001257 0
0.617970 0.001066 0
0.617266 0.000863 0
0.616672 0.000647 0
0.616193 0.000415 0
0.615833 0.000164 0
0.615598 -0.000107 0
0.615506 -0.000397 0
0.615563 -0.000707 0
0.615780 -0.001041 0
0.616167 -0.001403 0
0.616737 -0.001799 0
0.617505 -0.002233 0
0.618489 -0.002712 0
0.619710 -0.003245 0
0.621191 -0.003840 0
0.622961 -0.004509 0
0.625053 -0.005265 0
0.627507 -0.006124 0
0.630367 -0.007105 0
0.633688 -0.008231 0
0.637532 -0.009528 0
0.641973 -0.011030 0
0.647096 -0.012777 0
0.653004 -0.014820 0
0.659814 -0.017220 0
0.667666 -0.020056 0
0.676726 -0.023427 0
0.687188 -0.027464 0
0.699281 -0.032336 0