# vtk DataFile Version 2.0
generated by CFD-lab course output (written by Tobias Neckel) 
ASCII

DATASET STRUCTURED_GRID
DIMENSIONS  142 42 1 
POINTS 5964 float

0.000000 0.250000 0
0.024648 0.250000 0
0.049296 0.250000 0
0.073944 0.250000 0
0.098592 0.250000 0
0.123239 0.250000 0
0.147887 0.250000 0
0.172535 0.250000 0
0.197183 0.250000 0
0.221831 0.250000 0
0.246479 0.250000 0
0.271127 0.250000 0
0.295775 0.250000 0
0.320423 0.250000 0
0.345070 0.250000 0
0.369718 0.250000 0
0.394366 0.250000 0
0.419014 0.250000 0
0.443662 0.250000 0
0.468310 0.250000 0
0.492958 0.250000 0
0.517606 0.250000 0
0.542254 0.250000 0
0.566901 0.250000 0
0.591549 0.250000 0
0.616197 0.250000 0
0.640845 0.250000 0
0.665493 0.250000 0
0.690141 0.250000 0
0.714789 0.250000 0
0.739437 0.250000 0
0.764085 0.250000 0
0.788732 0.250000 0
0.813380 0.250000 0
0.838028 0.250000 0
0.862676 0.250000 0
0.887324 0.250000 0
0.911972 0.250000 0
0.936620 0.250000 0
0.961268 0.250000 0
0.985915 0.250000 0
1.010563 0.250000 0
1.035211 0.250000 0
1.059859 0.250000 0
1.084507 0.250000 0
1.109155 0.250000 0
1.133803 0.250000 0
1.158451 0.250000 0
1.183099 0.250000 0
1.207746 0.250000 0
1.232394 0.250000 0
1.257042 0.250000 0
1.281690 0.250000 0
1.306338 0.250000 0
1.330986 0.250000 0
1.355634 0.250000 0
1.380282 0.250000 0
1.404930 0.250000 0
1.429577 0.250000 0
1.454225 0.250000 0
1.478873 0.250000 0
1.503521 0.250000 0
1.528169 0.250000 0
1.552817 0.250000 0
1.577465 0.250000 0
1.602113 0.250000 0
1.626761 0.250000 0
1.651408 0.250000 0
1.676056 0.250000 0
1.700704 0.250000 0
1.725352 0.250000 0
1.750000 0.250000 0
1.774648 0.250000 0
1.799296 0.250000 0
1.823944 0.250000 0
1.848592 0.250000 0
1.873239 0.250000 0
1.897887 0.250000 0
1.922535 0.250000 0
1.947183 0.250000 0
1.971831 0.250000 0
1.996479 0.250000 0
2.021127 0.250000 0
2.045775 0.250000 0
2.070423 0.250000 0
2.095070 0.250000 0
2.119718 0.250000 0
2.144366 0.250000 0
2.169014 0.250000 0
2.193662 0.250000 0
2.218310 0.250000 0
2.242958 0.250000 0
2.267606 0.250000 0
2.292254 0.250000 0
2.316901 0.250000 0
2.341549 0.250000 0
2.366197 0.250000 0
2.390845 0.250000 0
2.415493 0.250000 0
2.440141 0.250000 0
2.464789 0.250000 0
2.489437 0.250000 0
2.514085 0.250000 0
2.538732 0.250000 0
2.563380 0.250000 0
2.588028 0.250000 0
2.612676 0.250000 0
2.637324 0.250000 0
2.661972 0.250000 0
2.686620 0.250000 0
2.711268 0.250000 0
2.735915 0.250000 0
2.760563 0.250000 0
2.785211 0.250000 0
2.809859 0.250000 0
2.834507 0.250000 0
2.859155 0.250000 0
2.883803 0.250000 0
2.908451 0.250000 0
2.933099 0.250000 0
2.957746 0.250000 0
2.982394 0.250000 0
3.007042 0.250000 0
3.031690 0.250000 0
3.056338 0.250000 0
3.080986 0.250000 0
3.105634 0.250000 0
3.130282 0.250000 0
3.154930 0.250000 0
3.179577 0.250000 0
3.204225 0.250000 0
3.228873 0.250000 0
3.253521 0.250000 0
3.278169 0.250000 0
3.302817 0.250000 0
3.327465 0.250000 0
3.352113 0.250000 0
3.376761 0.250000 0
3.401408 0.250000 0
3.426056 0.250000 0
3.450704 0.250000 0
3.475352 0.250000 0
0.000000 0.261905 0
0.024648 0.261905 0
0.049296 0.261905 0
0.073944 0.261905 0
0.098592 0.261905 0
0.123239 0.261905 0
0.147887 0.261905 0
0.172535 0.261905 0
0.197183 0.261905 0
0.221831 0.261905 0
0.246479 0.261905 0
0.271127 0.261905 0
0.295775 0.261905 0
0.320423 0.261905 0
0.345070 0.261905 0
0.369718 0.261905 0
0.394366 0.261905 0
0.419014 0.261905 0
0.443662 0.261905 0
0.468310 0.261905 0
0.492958 0.261905 0
0.517606 0.261905 0
0.542254 0.261905 0
0.566901 0.261905 0
0.591549 0.261905 0
0.616197 0.261905 0
0.640845 0.261905 0
0.665493 0.261905 0
0.690141 0.261905 0
0.714789 0.261905 0
0.739437 0.261905 0
0.764085 0.261905 0
0.788732 0.261905 0
0.813380 0.261905 0
0.838028 0.261905 0
0.862676 0.261905 0
0.887324 0.261905 0
0.911972 0.261905 0
0.936620 0.261905 0
0.961268 0.261905 0
0.985915 0.261905 0
1.010563 0.261905 0
1.035211 0.261905 0
1.059859 0.261905 0
1.084507 0.261905 0
1.109155 0.261905 0
1.133803 0.261905 0
1.158451 0.261905 0
1.183099 0.261905 0
1.207746 0.261905 0
1.232394 0.261905 0
1.257042 0.261905 0
1.281690 0.261905 0
1.306338 0.261905 0
1.330986 0.261905 0
1.355634 0.261905 0
1.380282 0.261905 0
1.404930 0.261905 0
1.429577 0.261905 0
1.454225 0.261905 0
1.478873 0.261905 0
1.503521 0.261905 0
1.528169 0.261905 0
1.552817 0.261905 0
1.577465 0.261905 0
1.602113 0.261905 0
1.626761 0.261905 0
1.651408 0.261905 0
1.676056 0.261905 0
1.700704 0.261905 0
1.725352 0.261905 0
1.750000 0.261905 0
1.774648 0.261905 0
1.799296 0.261905 0
1.823944 0.261905 0
1.848592 0.261905 0
1.873239 0.261905 0
1.897887 0.261905 0
1.922535 0.261905 0
1.947183 0.261905 0
1.971831 0.261905 0
1.996479 0.261905 0
2.021127 0.261905 0
2.045775 0.261905 0
2.070423 0.261905 0
2.095070 0.261905 0
2.119718 0.261905 0
2.144366 0.261905 0
2.169014 0.261905 0
2.193662 0.261905 0
2.218310 0.261905 0
2.242958 0.261905 0
2.267606 0.261905 0
2.292254 0.261905 0
2.316901 0.261905 0
2.341549 0.261905 0
2.366197 0.261905 0
2.390845 0.261905 0
2.415493 0.261905 0
2.440141 0.261905 0
2.464789 0.261905 0
2.489437 0.261905 0
2.514085 0.261905 0
2.538732 0.261905 0
2.563380 0.261905 0
2.588028 0.261905 0
2.612676 0.261905 0
2.637324 0.261905 0
2.661972 0.261905 0
2.686620 0.261905 0
2.711268 0.261905 0
2.735915 0.261905 0
2.760563 0.261905 0
2.785211 0.261905 0
2.809859 0.261905 0
2.834507 0.261905 0
2.859155 0.261905 0
2.883803 0.261905 0
2.908451 0.261905 0
2.933099 0.261905 0
2.957746 0.261905 0
2.982394 0.261905 0
3.007042 0.261905 0
3.031690 0.261905 0
3.056338 0.261905 0
3.080986 0.261905 0
3.105634 0.261905 0
3.130282 0.261905 0
3.154930 0.261905 0
3.179577 0.261905 0
3.204225 0.261905 0
3.228873 0.261905 0
3.253521 0.261905 0
3.278169 0.261905 0
3.302817 0.261905 0
3.327465 0.261905 0
3.352113 0.261905 0
3.376761 0.261905 0
3.401408 0.261905 0
3.426056 0.261905 0
3.450704 0.261905 0
3.475352 0.261905 0
0.000000 0.273810 0
0.024648 0.273810 0
0.049296 0.273810 0
0.073944 0.273810 0
0.098592 0.273810 0
0.123239 0.273810 0
0.147887 0.273810 0
0.172535 0.273810 0
0.197183 0.273810 0
0.221831 0.273810 0
0.246479 0.273810 0
0.271127 0.273810 0
0.295775 0.273810 0
0.320423 0.273810 0
0.345070 0.273810 0
0.369718 0.273810 0
0.394366 0.273810 0
0.419014 0.273810 0
0.443662 0.273810 0
0.468310 0.273810 0
0.492958 0.273810 0
0.517606 0.273810 0
0.542254 0.273810 0
0.566901 0.273810 0
0.591549 0.273810 0
0.616197 0.273810 0
0.640845 0.273810 0
0.665493 0.273810 0
0.690141 0.273810 0
0.714789 0.273810 0
0.739437 0.273810 0
0.764085 0.273810 0
0.788732 0.273810 0
0.813380 0.273810 0
0.838028 0.273810 0
0.862676 0.273810 0
0.887324 0.273810 0
0.911972 0.273810 0
0.936620 0.273810 0
0.961268 0.273810 0
0.985915 0.273810 0
1.010563 0.273810 0
1.035211 0.273810 0
1.059859 0.273810 0
1.084507 0.273810 0
1.109155 0.273810 0
1.133803 0.273810 0
1.158451 0.273810 0
1.183099 0.273810 0
1.207746 0.273810 0
1.232394 0.273810 0
1.257042 0.273810 0
1.281690 0.273810 0
1.306338 0.273810 0
1.330986 0.273810 0
1.355634 0.273810 0
1.380282 0.273810 0
1.404930 0.273810 0
1.429577 0.273810 0
1.454225 0.273810 0
1.478873 0.273810 0
1.503521 0.273810 0
1.528169 0.273810 0
1.552817 0.273810 0
1.577465 0.273810 0
1.602113 0.273810 0
1.626761 0.273810 0
1.651408 0.273810 0
1.676056 0.273810 0
1.700704 0.273810 0
1.725352 0.273810 0
1.750000 0.273810 0
1.774648 0.273810 0
1.799296 0.273810 0
1.823944 0.273810 0
1.848592 0.273810 0
1.873239 0.273810 0
1.897887 0.273810 0
1.922535 0.273810 0
1.947183 0.273810 0
1.971831 0.273810 0
1.996479 0.273810 0
2.021127 0.273810 0
2.045775 0.273810 0
2.070423 0.273810 0
2.095070 0.273810 0
2.119718 0.273810 0
2.144366 0.273810 0
2.169014 0.273810 0
2.193662 0.273810 0
2.218310 0.273810 0
2.242958 0.273810 0
2.267606 0.273810 0
2.292254 0.273810 0
2.316901 0.273810 0
2.341549 0.273810 0
2.366197 0.273810 0
2.390845 0.273810 0
2.415493 0.273810 0
2.440141 0.273810 0
2.464789 0.273810 0
2.489437 0.273810 0
2.514085 0.273810 0
2.538732 0.273810 0
2.563380 0.273810 0
2.588028 0.273810 0
2.612676 0.273810 0
2.637324 0.273810 0
2.661972 0.273810 0
2.686620 0.273810 0
2.711268 0.273810 0
2.735915 0.273810 0
2.760563 0.273810 0
2.785211 0.273810 0
2.809859 0.273810 0
2.834507 0.273810 0
2.859155 0.273810 0
2.883803 0.273810 0
2.908451 0.273810 0
2.933099 0.273810 0
2.957746 0.273810 0
2.982394 0.273810 0
3.007042 0.273810 0
3.031690 0.273810 0
3.056338 0.273810 0
3.080986 0.273810 0
3.105634 0.273810 0
3.130282 0.273810 0
3.154930 0.273810 0
3.179577 0.273810 0
3.204225 0.273810 0
3.228873 0.273810 0
3.253521 0.273810 0
3.278169 0.273810 0
3.302817 0.273810 0
3.327465 0.273810 0
3.352113 0.273810 0
3.376761 0.273810 0
3.401408 0.273810 0
3.426056 0.273810 0
3.450704 0.273810 0
3.475352 0.273810 0
0.000000 0.285714 0
0.024648 0.285714 0
0.049296 0.285714 0
0.073944 0.285714 0
0.098592 0.285714 0
0.123239 0.285714 0
0.147887 0.285714 0
0.172535 0.285714 0
0.197183 0.285714 0
0.221831 0.285714 0
0.246479 0.285714 0
0.271127 0.285714 0
0.295775 0.285714 0
0.320423 0.285714 0
0.345070 0.285714 0
0.369718 0.285714 0
0.394366 0.285714 0
0.419014 0.285714 0
0.443662 0.285714 0
0.468310 0.285714 0
0.492958 0.285714 0
0.517606 0.285714 0
0.542254 0.285714 0
0.566901 0.285714 0
0.591549 0.285714 0
0.616197 0.285714 0
0.640845 0.285714 0
0.665493 0.285714 0
0.690141 0.285714 0
0.714789 0.285714 0
0.739437 0.285714 0
0.764085 0.285714 0
0.788732 0.285714 0
0.813380 0.285714 0
0.838028 0.285714 0
0.862676 0.285714 0
0.887324 0.285714 0
0.911972 0.285714 0
0.936620 0.285714 0
0.961268 0.285714 0
0.985915 0.285714 0
1.010563 0.285714 0
1.035211 0.285714 0
1.059859 0.285714 0
1.084507 0.285714 0
1.109155 0.285714 0
1.133803 0.285714 0
1.158451 0.285714 0
1.183099 0.285714 0
1.207746 0.285714 0
1.232394 0.285714 0
1.257042 0.285714 0
1.281690 0.285714 0
1.306338 0.285714 0
1.330986 0.285714 0
1.355634 0.285714 0
1.380282 0.285714 0
1.404930 0.285714 0
1.429577 0.285714 0
1.454225 0.285714 0
1.478873 0.285714 0
1.503521 0.285714 0
1.528169 0.285714 0
1.552817 0.285714 0
1.577465 0.285714 0
[...]
POINT_DATA 5964 

VECTORS velocity float
1.000000 0.000000 0
0.999854 0.000000 0
0.999556 0.000000 0
0.999097 0.000000 0
0.998458 0.000000 0
0.997615 0.000000 0
0.996532 0.000000 0
0.995162 0.000000 0
0.993440 0.000000 0
0.991275 0.000000 0
0.988543 0.000000 0
0.985062 0.000000 0
0.980561 0.000000 0
0.974614 0.000000 0
0.966517 0.000000 0
0.954933 0.000000 0
0.937383 0.000000 0
0.905760 0.000000 0
0.847693 0.000000 0
-0.000000 0.000000 0
-0.000000 0.000000 0
-0.000000 0.000000 0
-0.000000 0.000000 0
-0.000000 0.000000 0
-0.000000 0.000000 0
-0.000000 0.000000 0
-0.000000 0.000000 0
-0.000000 0.000000 0
-0.000000 0.000000 0
-0.000000 0.000000 0
-0.000000 0.000000 0
-0.000000 0.000000 0
-0.000000 0.000000 0
-0.000000 0.000000 0
-0.000000 0.000000 0
-0.000000 0.000000 0
-0.000000 0.000000 0
-0.000000 0.000000 0
-0.000000 0.000000 0
-0.000000 0.000000 0
-0.000000 0.000000 0
-0.000000 0.000000 0
-0.000000 0.000000 0
-0.000000 0.000000 0
-0.000000 0.000000 0
-0.000000 0.000000 0
-0.000000 0.000000 0
-0.000000 0.000000 0
-0.000000 0.000000 0
-0.000000 0.000000 0
-0.000000 0.000000 0
-0.000000 0.000000 0
-0.000000 0.000000 0
-0.000000 0.000000 0
-0.000000 0.000000 0
-0.000000 0.000000 0
-0.000000 0.000000 0
-0.000000 0.000000 0
-0.000000 0.000000 0
-0.000000 0.000000 0
-0.000000 0.000000 0
-0.000000 0.000000 0
-0.000000 0.000000 0
-0.000000 0.000000 0
-0.000000 0.000000 0
-0.000000 0.000000 0
-0.000000 0.000000 0
-0.000000 0.000000 0
-0.000000 0.000000 0
-0.000000 0.000000 0
-0.000000 0.000000 0
-0.000000 0.000000 0
-0.000000 0.000000 0
-0.000000 0.000000 0
-0.000000 0.000000 0
-0.000000 0.000000 0
-0.000000 0.000000 0
-0.000000 0.000000 0
-0.000000 0.000000 0
-0.000000 0.000000 0
-0.000000 0.000000 0
-0.000000 0.000000 0
-0.000000 0.000000 0
-0.000000 0.000000 0
-0.000000 0.000000 0
-0.000000 0.000000 0
-0.000000 0.000000 0
-0.000000 0.000000 0
-0.000000 0.000000 0
-0.000000 0.000000 0
-0.000000 0.000000 0
-0.000000 0.000000 0
-0.000000 0.000000 0
-0.000000 0.000000 0
-0.000000 0.000000 0
-0.000000 0.000000 0
-0.000000 0.000000 0
-0.000000 0.000000 0
-0.000000 0.000000 0
-0.000000 0.000000 0
-0.000000 0.000000 0
-0.000000 0.000000 0
-0.000000 0.000000 0
-0.000000 0.000000 0
-0.000000 0.000000 0
-0.000000 0.000000 0
-0.000000 0.000000 0
-0.000000 0.000000 0
-0.000000 0.000000 0
-0.000000 0.000000 0
-0.000000 0.000000 0
-0.000000 0.000000 0
-0.000000 0.000000 0
-0.000000 0.000000 0
-0.000000 0.000000 0
-0.000000 0.000000 0
-0.000000 0.000000 0
-0.000000 0.000000 0
-0.000000 0.000000 0
-0.000000 0.000000 0
-0.000000 0.000000 0
-0.000000 0.000000 0
-0.000000 0.000000 0
-0.000000 0.000000 0
-0.000000 0.000000 0
-0.000000 0.000000 0
-0.000000 0.000000 0
-0.000000 0.000000 0
-0.000000 0.000000 0
-0.000000 0.000000 0
-0.000000 0.000000 0
-0.000000 0.000000 0
-0.000000 0.000000 0
-0.000000 0.000000 0
-0.000000 0.000000 0
-0.000000 0.000000 0
-0.000000 0.000000 0
-0.000000 0.000000 0
-0.000000 0.000000 0
0.000000 0.000000 0
-0.000000 0.000000 0
0.496424 0.000000 0
1.000000 0.000035 0
0.999854 0.000107 0
0.999558 0.000183 0
0.999101 0.000265 0
0.998465 0.000358 0
0.997626 0.000465 0
0.996549 0.000592 0
0.995186 0.000747 0
0.993475 0.000939 0
0.991325 0.001182 0
0.988614 0.001500 0
0.985165 0.001928 0
0.980713 0.002523 0
0.974850 0.003392 0
0.966903 0.004753 0
0.955641 0.007036 0
0.938825 0.011875 0
0.910180 0.021660 0
0.860874 0.078853 0
0.714887 0.110956 0
0.576504 0.072745 0
0.473017 0.041074 0
0.401066 0.022638 0
0.351163 0.013309 0
0.315500 0.008679 0
0.288994 0.006202 0
0.268554 0.004718 0
0.252294 0.003739 0
0.239028 0.003050 0
0.227980 0.002542 0
0.218624 0.002156 0
0.210590 0.001855 0
0.203609 0.001615 0
0.197480 0.001420 0
0.192052 0.001260 0
0.187208 0.001127 0
0.182855 0.001015 0
0.178918 0.000919 0
0.175337 0.000838 0
0.172065 0.000767 0
0.169059 0.000706 0
0.166288 0.000652 0
0.163721 0.000605 0
0.161335 0.000563 0
0.159111 0.000526 0
0.157029 0.000493 0
0.155076 0.000464 0
0.153238 0.000437 0
0.151505 0.000413 0
0.149865 0.000391 0
0.148311 0.000372 0
0.146835 0.000353 0
0.145431 0.000337 0
0.144091 0.000322 0
0.142812 0.000308 0
0.141589 0.000295 0
0.140416 0.000283 0
0.139292 0.000272 0
0.138211 0.000261 0
0.137172 0.000251 0
0.136171 0.000242 0
0.135206 0.000234 0
0.134275 0.000226 0
0.133376 0.000218 0
0.132507 0.000211 0
0.131666 0.000205 0
0.130851 0.000198 0
0.130062 0.000192 0
0.129297 0.000186 0
0.128554 0.000181 0
0.127834 0.000176 0
0.127133 0.000171 0
0.126453 0.000166 0
0.125792 0.000162 0
0.125149 0.000157 0
0.124523 0.000153 0
0.123914 0.000149 0
0.123321 0.000145 0
0.122744 0.000141 0
0.122182 0.000137 0
0.121634 0.000134 0
0.121101 0.000130 0
0.120582 0.000127 0
0.120076 0.000124 0
0.119584 0.000120 0
0.119106 0.000117 0
0.118640 0.000114 0
0.118187 0.000110 0
0.117748 0.000107 0
0.117321 0.000104 0
0.116908 0.000100 0
0.116508 0.000097 0
0.116122 0.000093 0
0.115750 0.000089 0
0.115393 0.000086 0
0.115050 0.000082 0
0.114724 0.000077 0
0.114415 0.000073 0
0.114123 0.000068 0
0.113851 0.000062 0
0.113600 0.000057 0
0.113371 0.000050 0
0.113166 0.000043 0
0.112989 0.000036 0
0.112841 0.000027 0
0.112726 0.000018 0
0.112649 0.000007 0
0.112613 -0.000006 0
0.112627 -0.000020 0
0.112695 -0.000035 0
0.112823 -0.000052 0
0.113017 -0.000072 0
0.113288 -0.000094 0
0.113646 -0.000120 0
0.114103 -0.000149 0
0.114675 -0.000183 0
0.115378 -0.000222 0
0.116234 -0.000268 0
0.117266 -0.000321 0
0.118502 -0.000383 0
0.119976 -0.000456 0
0.121731 -0.000542 0
0.123814 -0.000645 0
0.126286 -0.000766 0
0.129223 -0.000913 0
0.132716 -0.001092 0
0.136884 -0.001311 0
0.141876 -0.001583 0
0.147885 -0.001925 0
0.155170 -0.002363 0
0.164074 -0.002934 0
0.175076 -0.003696 0
0.188849 -0.004743 0
0.206383 -0.006232 0
0.229180 -0.008444 0
0.259643 -0.011938 0
0.301877 -0.017875 0
0.363202 -0.029650 0
0.460256 -0.052024 0
0.618065 -0.166956 0
0.993156 -0.267514 0
0.993156 -0.133757 0
1.000000 0.000070 0
0.999856 0.000213 0
0.999564 0.000364 0
0.999113 0.000528 0
0.998486 0.000712 0
0.997659 0.000926 0
0.996599 0.001178 0
0.995259 0.001485 0
0.993579 0.001865 0
0.991473 0.002348 0
0.988825 0.002975 0
0.985469 0.003816 0
0.981163 0.004982 0
0.975541 0.006670 0
0.968025 0.009278 0
0.957649 0.013561 0
0.942785 0.021957 0
0.920694 0.037650 0
0.888370 0.094326 0
0.890999 0.137349 0
0.842149 0.116821 0
0.771618 0.084735 0
0.701222 0.058855 0
0.639920 0.041328 0
0.589257 0.030027 0
0.547923 0.022674 0
0.514041 0.017726 0
0.485953 0.014261 0
0.462370 0.011743 0
0.442322 0.009855 0
0.425083 0.008399 0
0.410105 0.007253 0
0.396972 0.006332 0
0.385360 0.005582 0
0.375016 0.004961 0
0.365742 0.004442 0
0.357374 0.004004 0
0.349784 0.003631 0
0.342863 0.003310 0
0.336524 0.003032 0
0.330693 0.002790 0
0.325307 0.002579 0
0.320314 0.002392 0
0.315669 0.002227 0
0.311335 0.002080 0
0.307278 0.001949 0
0.303469 0.001831 0
0.299885 0.001725 0
0.296503 0.001629 0
0.293305 0.001542 0
0.290274 0.001463 0
0.287395 0.001391 0
0.284656 0.001325 0
0.282045 0.001265 0
0.279552 0.001209 0
0.277167 0.001157 0
0.274883 0.001109 0
0.272692 0.001065 0
0.270588 0.001024 0
0.268565 0.000985 0
0.266617 0.000949 0
0.264740 0.000916 0
0.262929 0.000884 0
0.261181 0.000854 0
0.259491 0.000826 0
0.257856 0.000800 0
0.256273 0.000775 0
0.254740 0.000751 0
0.253253 0.000728 0
0.251811 0.000707 0
0.250411 0.000686 0
0.249052 0.000667 0
0.247731 0.000648 0
0.246447 0.000630 0
0.245199 0.000613 0
0.243984 0.000596 0
0.242802 0.000581 0
0.241651 0.000565 0
0.240531 0.000550 0
0.239440 0.000536 0
0.238377 0.000522 0
0.237342 0.000508 0
0.236333 0.000495 0
0.235352 0.000482 0
0.234396 0.000469 0
0.233465 0.000456 0
0.232559 0.000444 0
0.231678 0.000431 0
0.230822 0.000418 0
0.229991 0.000406 0
0.229185 0.000393 0
0.228404 0.000380 0
0.227648 0.000366 0
0.226919 0.000352 0
0.226217 0.000338 0
0.225543 0.000323 0
0.224899 0.000307 0
0.224285 0.000290 0
0.223704 0.000272 0
0.223157 0.000253 0
0.222649 0.000232 0
0.222180 0.000209 0
0.221756 0.000184 0
0.221379 0.000157 0
0.221055 0.000127 0
0.220790 0.000093 0
0.220589 0.000055 0
0.220462 0.000011 0
0.220418 -0.000039 0
0.220470 -0.000095 0
0.220629 -0.000156 0
0.220905 -0.000225 0
0.221315 -0.000304 0
0.221876 -0.000394 0
0.222608 -0.000497 0
0.223539 -0.000616 0
0.224695 -0.000753 0
0.226112 -0.000911 0
0.227829 -0.001095 0
0.229894 -0.001309 0
0.232361 -0.001559 0
0.235299 -0.001853 0
0.238787 -0.002200 0
0.242922 -0.002613 0
0.247824 -0.003106 0
0.253637 -0.003700 0
0.260545 -0.004424 0
0.268775 -0.005314 0
0.278619 -0.006421 0
0.290456 -0.007819 0
0.304782 -0.009614 0
0.322265 -0.011966 0
0.343819 -0.015121 0
0.370730 -0.019480 0
0.404855 -0.025725 0
0.448964 -0.035112 0
0.507355 -0.050018 0
0.586662 -0.076496 0
0.698130 -0.123097 0
0.855787 -0.257387 0
0.993855 -0.362333 0
0.993855 -0.181166 0
1.000000 0.000105 0
0.999859 0.000318 0
0.999574 0.000542 0
0.999133 0.000786 0
0.998521 0.001060 0
0.997714 0.001377 0
0.996681 0.001752 0
0.995379 0.002205 0
0.993750 0.002767 0
0.991715 0.003479 0
0.989168 0.004400 0
0.985962 0.005628 0
0.981887 0.007318 0
0.976642 0.009737 0
0.969782 0.013395 0
0.960673 0.019226 0
0.948431 0.029724 0
0.933028 0.047942 0
0.915086 0.093196 0
0.945330 0.133281 0
0.948626 0.130405 0
0.922939 0.109141 0
0.881981 0.086247 0
0.836590 0.067387 0
0.792539 0.053113 0
0.752206 0.042531 0
0.716223 0.034649 0
0.684455 0.028696 0
0.656486 0.024123 0
0.631828 0.020552 0
0.610018 0.017717 0
0.590641 0.015432 0
0.573343 0.013567 0
0.557826 0.012025 0
0.543840 0.010736 0
0.531173 0.009648 0
0.519651 0.008722 0
0.509126 0.007928 0
0.499473 0.007242 0
0.490586 0.006646 0
0.482376 0.006124 0
0.474765 0.005665 0
0.467687 0.005260 0
0.461086 0.004900 0
0.454911 0.004580 0
0.449119 0.004292 0
0.443673 0.004034 0
0.438540 0.003802 0
0.433691 0.003591 0
0.429101 0.003400 0
0.424746 0.003226 0
0.420607 0.003067 0
0.416666 0.002921 0
0.412908 0.002787 0
0.409317 0.002664 0
0.405882 0.002550 0
0.402590 0.002444 0
0.399432 0.002346 0
0.396399 0.002254 0
0.393481 0.002169 0
0.390672 0.002090 0
0.387964 0.002015 0
0.385352 0.001945 0
0.382828 0.001879 0
0.380390 0.001817 0
0.378030 0.001759 0
0.375746 0.001703 0
0.373533 0.001651 0
0.371387 0.001601 0
0.369306 0.001554 0
0.367285 0.001508 0
0.365323 0.001465 0
0.363416 0.001424 0
0.361562 0.001385 0
0.359759 0.001347 0
0.358004 0.001311 0
0.356297 0.001276 0
0.354634 0.001242 0
0.353015 0.001209 0
0.351438 0.001178 0
0.349901 0.001147 0
0.348405 0.001117 0
0.346946 0.001088 0
0.345525 0.001060 0
0.344141 0.001031 0
0.342793 0.001004 0
0.341481 0.000976 0
0.340204 0.000949 0
0.338961 0.000922 0
0.337754 0.000895 0
0.336582 0.000867 0
0.335445 0.000839 0
0.334343 0.000810 0
0.333279 0.000781 0
0.332251 0.000750 0
0.331263 0.000718 0
0.330314 0.000685 0
0.329408 0.000650 0
0.328546 0.000612 0
0.327731 0.000572 0
0.326967 0.000529 0
0.326256 0.000482 0
0.325604 0.000430 0
0.325016 0.000374 0
0.324497 0.000312 0
0.324055 0.000243 0
0.323699 0.000165 0
0.323437 0.000077 0
0.323281 -0.000024 0
0.323248 -0.000137 0
0.323355 -0.000262 0
0.323616 -0.000403 0
0.324049 -0.000562 0
0.324678 -0.000744 0
0.325528 -0.000952 0
0.326631 -0.001191 0
0.328022 -0.001465 0
0.329744 -0.001782 0
0.331845 -0.002148 0
0.334384 -0.002572 0
0.337428 -0.003067 0
0.341058 -0.003646 0
0.345370 -0.004327 0
0.350479 -0.005131 0
0.356524 -0.006089 0
0.363674 -0.007236 0
0.372138 -0.008622 0
0.382170 -0.010312 0
0.394095 -0.012397 0
0.408318 -0.014999 0
0.425363 -0.018298 0
0.445910 -0.022551 0
0.470860 -0.028151 0
0.501419 -0.035712 0
0.539235 -0.046231 0
0.586566 -0.061445 0
0.646515 -0.084382 0
0.722989 -0.121793 0
0.819511 -0.182010 0
0.935362 -0.309789 0
0.994628 -0.400886 0
0.994628 -0.200443 0
1.000000 0.000138 0
0.999864 0.000419 0
0.999587 0.000715 0
0.999160 0.001037 0
0.998568 0.001398 0
0.997789 0.001814 0
0.996794 0.002306 0
0.995543 0.002901 0
0.993983 0.003635 0
0.992045 0.004560 0
0.989634 0.005754 0
0.986627 0.007333 0
0.982854 0.009484 0
0.978089 0.012517 0
0.972036 0.016991 0
0.964382 0.023874 0
0.954906 0.035310 0
0.945019 0.053755 0
0.937268 0.088384 0
0.965707 0.121150 0
0.987884 0.127636 0
0.990071 0.116924 0
0.975766 0.100561 0
0.951736 0.084528 0
0.923218 0.070783 0
0.893429 0.059534 0
0.864150 0.050449 0
0.836293 0.043114 0
0.810267 0.037162 0
0.786202 0.032298 0
0.764073 0.028292 0
0.743778 0.024966 0
0.725177 0.022181 0
0.708120 0.019832 0
0.692458 0.017835 0
0.678051 0.016125 0
0.664769 0.014653 0
0.652496 0.013377 0
0.641129 0.012264 0
0.630574 0.011290 0
0.620749 0.010432 0
0.611582 0.009673 0
0.603008 0.008999 0
0.594971 0.008398 0
0.587419 0.007860 0
0.580308 0.007376 0
0.573599 0.006940 0
0.567256 0.006546 0
0.561247 0.006188 0
0.555545 0.005863 0
0.550124 0.005566 0
0.544961 0.005294 0
0.540037 0.005044 0
0.535334 0.004814 0
0.530834 0.004602 0
0.526524 0.004406 0
0.522390 0.004224 0
0.518419 0.004056 0
0.514601 0.003898 0
0.510926 0.003751 0
0.507385 0.003614 0
0.503969 0.003485 0
0.500671 0.003365 0
0.497484 0.003251 0
0.494402 0.003144 0
0.491419 0.003042 0
0.488529 0.002947 0
0.485729 0.002856 0
0.483012 0.002770 0
0.480375 0.002688 0
0.477815 0.002610 0
0.475327 0.002536 0
0.472908 0.002465 0
0.470556 0.002397 0
0.468268 0.002331 0
0.466040 0.002269 0
0.463871 0.002208 0
0.461759 0.002150 0
0.459701 0.002094 0
0.457695 0.002040 0
0.455741 0.001987 0
0.453836 0.001936 0
0.451978 0.001886 0
0.450168 0.001837 0
0.448404 0.001788 0
0.446685 0.001741 0
0.445010 0.001694 0
0.443378 0.001648 0
0.441791 0.001601 0
0.440246 0.001555 0
0.438744 0.001508 0
0.437286 0.001461 0
0.435872 0.001412 0
0.434502 0.001363 0
0.433178 0.001312 0
0.431901 0.001258 0
0.430673 0.001203 0
0.429495 0.001144 0
0.428371 0.001082 0
0.427303 0.001016 0
0.426294 0.000945 0
0.425350 0.000867 0
0.424474 0.000784 0
0.423673 0.000692 0
0.422954 0.000591 0
0.422324 0.000478 0
0.421793 0.000353 0
0.421372 0.000213 0
0.421071 0.000052 0
0.420905 -0.000130 0
0.420900 -0.000333 0
0.421073 -0.000560 0
0.421443 -0.000817 0
0.422035 -0.001108 0
0.422879 -0.001440 0
0.424008 -0.001820 0
0.425462 -0.002257 0
0.427286 -0.002758 0
0.429535 -0.003336 0
0.432269 -0.004006 0
0.435562 -0.004783 0
0.439501 -0.005689 0
0.444186 -0.006751 0
0.449737 -0.008000 0
0.456299 -0.009479 0
0.464045 -0.011242 0
0.473182 -0.013357 0
0.483966 -0.015919 0
0.496709 -0.019050 0
0.511797 -0.022921 0
0.529715 -0.027771 0
0.551071 -0.033941 0
0.576640 -0.041931 0
0.607408 -0.052505 0
0.644630 -0.066850 0
0.689856 -0.086928 0
0.744856 -0.115909 0
0.811106 -0.160052 0
0.887342 -0.225672 0
0.966341 -0.341967 0
0.995358 -0.419583 0
0.995358 -0.209791 0
1.000000 0.000170 0
0.999869 0.000517 0
0.999604 0.000882 0
0.999195 0.001278 0
0.998628 0.001722 0
0.997884 0.002234 0
0.996936 0.002837 0
0.995748 0.003563 0
0.994274 0.004457 0
0.992454 0.005579 0
0.990209 0.007017 0
0.987440 0.008903 0
0.984022 0.011442 0
0.979805 0.014962 0
0.974637 0.020015 0
0.968468 0.027500 0
0.961560 0.039076 0
0.955831 0.056461 0
0.954476 0.083204 0
0.976671 0.108834 0
1.001710 0.118637 0
1.016358 0.114993 0
1.018677 0.104763 0
1.011392 0.092767 0
0.997797 0.081275 0
0.980475 0.071061 0
0.961200 0.062246 0
0.941142 0.054721 0
0.921051 0.048317 0
0.901397 0.042863 0
0.882463 0.038207 0
0.864407 0.034219 0
0.847301 0.030789 0
0.831165 0.027828 0
0.815985 0.025259 0
0.801725 0.023022 0
0.788338 0.021065 0
0.775769 0.019346 0
0.763965 0.017830 0
0.752868 0.016489 0
0.742427 0.015297 0
0.732591 0.014234 0
0.723312 0.013283 0
0.714547 0.012430 0
0.706255 0.011661 0
0.698400 0.010967 0
0.690948 0.010339 0
0.683867 0.009768 0
0.677129 0.009248 0
0.670709 0.008773 0
0.664584 0.008338 0
0.658731 0.007938 0
0.653132 0.007571 0
0.647768 0.007232 0
0.642625 0.006919 0
0.637686 0.006628 0
0.632938 0.006359 0
0.628370 0.006108 0
0.623970 0.005874 0
0.619727 0.005655 0
0.615633 0.005450 0
0.611678 0.005258 0
0.607854 0.005077 0
0.604155 0.004907 0
0.600573 0.004747 0
0.597102 0.004595 0
0.593737 0.004452 0
0.590471 0.004316 0
0.587301 0.004187 0
0.584222 0.004064 0
0.581229 0.003947 0
0.578319 0.003835 0
0.575488 0.003728 0
0.572732 0.003626 0
0.570049 0.003528 0
0.567436 0.003434 0
0.564889 0.003344 0
0.562407 0.003256 0
0.559988 0.003172 0
0.557629 0.003090 0
0.555328 0.003011 0
0.553084 0.002934 0
0.550895 0.002859 0
0.548759 0.002786 0
0.546676 0.002714 0
0.544645 0.002643 0
0.542665 0.002573 0
0.540734 0.002504 0
0.538853 0.002435 0
0.537022 0.002366 0
0.535239 0.002296 0
0.533506 0.002226 0
0.531823 0.002155 0
0.530190 0.002082 0
0.528609 0.002006 0
0.527081 0.001928 0
0.525607 0.001847 0
0.524190 0.001762 0
0.522832 0.001671 0
0.521537 0.001575 0
0.520308 0.001472 0
0.519149 0.001361 0
0.518066 0.001240 0
0.517065 0.001108 0
0.516153 0.000963 0
0.515338 0.000803 0
0.514630 0.000625 0
0.514040 0.000426 0
0.513579 0.000201 0
0.513260 -0.000055 0
0.513109 -0.000343 0
0.513146 -0.000665 0
0.513394 -0.001027 0
0.513879 -0.001438 0
0.514629 -0.001905 0
0.515681 -0.002439 0
0.517073 -0.003049 0
0.518853 -0.003749 0
0.521075 -0.004554 0
0.523802 -0.005484 0
0.527106 -0.006560 0
0.531073 -0.007811 0
0.535804 -0.009271 0
0.541415 -0.010982 0
0.548047 -0.012999 0
0.555863 -0.015390 0
0.565061 -0.018244 0
0.575876 -0.021676 0
0.588592 -0.025839 0
0.603550 -0.030941 0
0.621167 -0.037267 0
0.641951 -0.045215 0
0.666514 -0.055362 0
0.695594 -0.068550 0
0.730041 -0.086053 0
0.770752 -0.109854 0
0.818416 -0.142945 0
0.872829 -0.190613 0
0.930480 -0.256987 0
0.982958 -0.361960 0
0.996021 -0.428916 0
0.996021 -0.214457 0
1.000000 0.000201 0
0.999876 0.000611 0
0.999624 0.001041 0
0.999236 0.001508 0
0.998699 0.002031 0
0.997996 0.002631 0
0.997104 0.003338 0
0.995990 0.004186 0
0.994616 0.005226 0
0.992932 0.006524 0
0.990877 0.008175 0
0.988376 0.010321 0
0.985348 0.013171 0
0.981715 0.017050 0
0.977446 0.022466 0
0.972684 0.030190 0
0.967981 0.041413 0
0.965254 0.057176 0
0.967534 0.078318 0
0.984749 0.098336 0
1.007163 0.108468 0
1.025317 0.108730 0
1.035732 0.102960 0
1.038731 0.094612 0
1.035895 0.085716 0
1.028851 0.077211 0
1.018912 0.069447 0
1.007070 0.062506 0
0.994050 0.056359 0
0.980383 0.050936 0
0.966452 0.046159 0
0.952530 0.041949 0
0.938809 0.038237 0
0.925419 0.034957 0
0.912445 0.032054 0
0.899941 0.029479 0
0.887933 0.027189 0
0.876433 0.025149 0
0.865438 0.023325 0
0.854938 0.021692 0
0.844918 0.020226 0
0.835358 0.018905 0
0.826237 0.017714 0
0.817532 0.016636 0
0.809220 0.015658 0
0.801280 0.014770 0
0.793689 0.013960 0
0.786425 0.013220 0
0.779471 0.012543 0
0.772805 0.011922 0
0.766411 0.011351 0
0.760273 0.010825 0
0.754374 0.010339 0
0.748700 0.009889 0
0.743238 0.009472 0
0.737974 0.009085 0
0.732899 0.008724 0
0.728000 0.008387 0
0.723269 0.008073 0
0.718695 0.007778 0
0.714269 0.007502 0
0.709985 0.007242 0
0.705835 0.006998 0
0.701811 0.006768 0
0.697908 0.006550 0
0.694119 0.006344 0
0.690439 0.006149 0
0.686864 0.005964 0
0.683387 0.005788 0
0.680005 0.005621 0
0.676713 0.005461 0
0.673508 0.005309 0
0.670386 0.005163 0
0.667344 0.005023 0
0.664379 0.004889 0
0.661487 0.004761 0
0.658667 0.004637 0
0.655915 0.004518 0
0.653230 0.004402 0
0.650609 0.004290 0
0.648050 0.004182 0
0.645552 0.004077 0
0.643113 0.003974 0
0.640731 0.003874 0
0.638406 0.003775 0
0.636136 0.003679 0
0.633920 0.003583 0
0.631759 0.003489 0
0.629650 0.003395 0
0.627594 0.003301 0
0.625591 0.003206 0
0.623641 0.003111 0
0.621744 0.003014 0
0.619901 0.002915 0
0.618113 0.002814 0
0.616382 0.002708 0
0.614708 0.002599 0
0.613095 0.002484 0
0.611544 0.002364 0
0.610059 0.002235 0
0.608644 0.002098 0
0.607302 0.001950 0
0.606040 0.001790 0
0.604864 0.001616 0
0.603779 0.001425 0
0.602796 0.001214 0
0.601923 0.000980 0
0.601171 0.000720 0
0.600552 0.000428 0
0.600080 0.000097 0
0.599770 -0.000278 0
0.599652 -0.000698 0
0.599748 -0.001170 0
0.600083 -0.001704 0
0.600687 -0.002311 0
0.601594 -0.003001 0
0.602844 -0.003789 0
0.604481 -0.004691 0
0.606559 -0.005726 0
0.609138 -0.006918 0
0.612288 -0.008295 0
0.616092 -0.009890 0
0.620643 -0.011746 0
0.626052 -0.013913 0
0.632448 -0.016458 0
0.639982 -0.019460 0
0.648831 -0.023023 0
0.659204 -0.027284 0
0.671346 -0.032416 0
0.685547 -0.038655 0