# vtk DataFile Version 2.0
generated by CFD-lab course output (written by Tobias Neckel) 
ASCII

DATASET STRUCTURED_GRID
DIMENSIONS  142 42 1 
POINTS 5964 float

0.000000 0.250000 0
0.024648 0.250000 0
0.049296 0.250000 0
0.073944 0.250000 0
0.098592 0.250000 0
0.123239 0.250000 0
0.147887 0.250000 0
0.172535 0.250000 0
0.197183 0.250000 0
0.221831 0.250000 0
0.246479 0.250000 0
0.271127 0.250000 0
0.295775 0.250000 0
0.320423 0.250000 0
0.345070 0.250000 0
0.369718 0.250000 0
0.394366 0.250000 0
0.419014 0.250000 0
0.443662 0.250000 0
0.468310 0.250000 0
0.492958 0.250000 0
0.517606 0.250000 0
0.542254 0.250000 0
0.566901 0.250000 0
0.591549 0.250000 0
0.616197 0.250000 0
0.640845 0.250000 0
0.665493 0.250000 0
0.690141 0.250000 0
0.714789 0.250000 0
0.739437 0.250000 0
0.764085 0.250000 0
0.788732 0.250000 0
0.813380 0.250000 0
0.838028 0.250000 0
0.862676 0.250000 0
0.887324 0.250000 0
0.911972 0.250000 0
0.936620 0.250000 0
0.961268 0.250000 0
0.985915 0.250000 0
1.010563 0.250000 0
1.035211 0.250000 0
1.059859 0.250000 0
1.084507 0.250000 0
1.109155 0.250000 0
1.133803 0.250000 0
1.158451 0.250000 0
1.183099 0.250000 0
1.207746 0.250000 0
1.232394 0.250000 0
1.257042 0.250000 0
1.281690 0.250000 0
1.306338 0.250000 0
1.330986 0.250000 0
1.355634 0.250000 0
1.380282 0.250000 0
1.404930 0.250000 0
1.429577 0.250000 0
1.454225 0.250000 0
1.478873 0.250000 0
1.503521 0.250000 0
1.528169 0.250000 0
1.552817 0.250000 0
1.577465 0.250000 0
1.602113 0.250000 0
1.626761 0.250000 0
1.651408 0.250000 0
1.676056 0.250000 0
1.700704 0.250000 0
1.725352 0.250000 0
1.750000 0.250000 0
1.774648 0.250000 0
1.799296 0.250000 0
1.823944 0.250000 0
1.848592 0.250000 0
1.873239 0.250000 0
1.897887 0.250000 0
1.922535 0.250000 0
1.947183 0.250000 0
1.971831 0.250000 0
1.996479 0.250000 0
2.021127 0.250000 0
2.045775 0.250000 0
2.070423 0.250000 0
2.095070 0.250000 0
2.119718 0.250000 0
2.144366 0.250000 0
2.169014 0.250000 0
2.193662 0.250000 0
2.218310 0.250000 0
2.242958 0.250000 0
2.267606 0.250000 0
2.292254 0.250000 0
2.316901 0.250000 0
2.341549 0.250000 0
2.366197 0.250000 0
2.390845 0.250000 0
2.415493 0.250000 0
2.440141 0.250000 0
2.464789 0.250000 0
2.489437 0.250000 0
2.514085 0.250000 0
2.538732 0.250000 0
2.563380 0.250000 0
2.588028 0.250000 0
2.612676 0.250000 0
2.637324 0.250000 0
2.661972 0.250000 0
2.686620 0.250000 0
2.711268 0.250000 0
2.735915 0.250000 0
2.760563 0.250000 0
2.785211 0.250000 0
2.809859 0.250000 0
2.834507 0.250000 0
2.859155 0.250000 0
2.883803 0.250000 0
2.908451 0.250000 0
2.933099 0.250000 0
2.957746 0.250000 0
2.982394 0.250000 0
3.007042 0.250000 0
3.031690 0.250000 0
3.056338 0.250000 0
3.080986 0.250000 0
3.105634 0.250000 0
3.130282 0.250000 0
3.154930 0.250000 0
3.179577 0.250000 0
3.204225 0.250000 0
3.228873 0.250000 0
3.253521 0.250000 0
3.278169 0.250000 0
3.302817 0.250000 0
3.327465 0.250000 0
3.352113 0.250000 0
3.376761 0.250000 0
3.401408 0.250000 0
3.426056 0.250000 0
3.450704 0.250000 0
3.475352 0.250000 0
0.000000 0.261905 0
0.024648 0.261905 0
0.049296 0.261905 0
0.073944 0.261905 0
0.098592 0.261905 0
0.123239 0.261905 0
0.147887 0.261905 0
0.172535 0.261905 0
0.197183 0.261905 0
0.221831 0.261905 0
0.246479 0.261905 0
0.271127 0.261905 0
0.295775 0.261905 0
0.320423 0.261905 0
0.345070 0.261905 0
0.369718 0.261905 0
0.394366 0.261905 0
0.419014 0.261905 0
0.443662 0.261905 0
0.468310 0.261905 0
0.492958 0.261905 0
0.517606 0.261905 0
0.542254 0.261905 0
0.566901 0.261905 0
0.591549 0.261905 0
0.616197 0.261905 0
0.640845 0.261905 0
0.665493 0.261905 0
0.690141 0.261905 0
0.714789 0.261905 0
0.739437 0.261905 0
0.764085 0.261905 0
0.788732 0.261905 0
0.813380 0.261905 0
0.838028 0.261905 0
0.862676 0.261905 0
0.887324 0.261905 0
0.911972 0.261905 0
0.936620 0.261905 0
0.961268 0.261905 0
0.985915 0.261905 0
1.010563 0.261905 0
1.035211 0.261905 0
1.059859 0.261905 0
1.084507 0.261905 0
1.109155 0.261905 0
1.133803 0.261905 0
1.158451 0.261905 0
1.183099 0.261905 0
1.207746 0.261905 0
1.232394 0.261905 0
1.257042 0.261905 0
1.281690 0.261905 0
1.306338 0.261905 0
1.330986 0.261905 0
1.355634 0.261905 0
1.380282 0.261905 0
1.404930 0.261905 0
1.429577 0.261905 0
1.454225 0.261905 0
1.478873 0.261905 0
1.503521 0.261905 0
1.528169 0.261905 0
1.552817 0.261905 0
1.577465 0.261905 0
1.602113 0.261905 0
1.626761 0.261905 0
1.651408 0.261905 0
1.676056 0.261905 0
1.700704 0.261905 0
1.725352 0.261905 0
1.750000 0.261905 0
1.774648 0.261905 0
1.799296 0.261905 0
1.823944 0.261905 0
1.848592 0.261905 0
1.873239 0.261905 0
1.897887 0.261905 0
1.922535 0.261905 0
1.947183 0.261905 0
1.971831 0.261905 0
1.996479 0.261905 0
2.021127 0.261905 0
2.045775 0.261905 0
2.070423 0.261905 0
2.095070 0.261905 0
2.119718 0.261905 0
2.144366 0.261905 0
2.169014 0.261905 0
2.193662 0.261905 0
2.218310 0.261905 0
2.242958 0.261905 0
2.267606 0.261905 0
2.292254 0.261905 0
2.316901 0.261905 0
2.341549 0.261905 0
2.366197 0.261905 0
2.390845 0.261905 0
2.415493 0.261905 0
2.440141 0.261905 0
2.464789 0.261905 0
2.489437 0.261905 0
2.514085 0.261905 0
2.538732 0.261905 0
2.563380 0.261905 0
2.588028 0.261905 0
2.612676 0.261905 0
2.637324 0.261905 0
2.661972 0.261905 0
2.686620 0.261905 0
2.711268 0.261905 0
2.735915 0.261905 0
2.760563 0.261905 0
2.785211 0.261905 0
2.809859 0.261905 0
2.834507 0.261905 0
2.859155 0.261905 0
2.883803 0.261905 0
2.908451 0.261905 0
2.933099 0.261905 0
2.957746 0.261905 0
2.982394 0.261905 0
3.007042 0.261905 0
3.031690 0.261905 0
3.056338 0.261905 0
3.080986 0.261905 0
3.105634 0.261905 0
3.130282 0.261905 0
3.154930 0.261905 0
3.179577 0.261905 0
3.204225 0.261905 0
3.228873 0.261905 0
3.253521 0.261905 0
3.278169 0.261905 0
3.302817 0.261905 0
3.327465 0.261905 0
3.352113 0.261905 0
3.376761 0.261905 0
3.401408 0.261905 0
3.426056 0.261905 0
3.450704 0.261905 0
3.475352 0.261905 0
0.000000 0.273810 0
0.024648 0.273810 0
0.049296 0.273810 0
0.073944 0.273810 0
0.098592 0.273810 0
0.123239 0.273810 0
0.147887 0.273810 0
0.172535 0.273810 0
0.197183 0.273810 0
0.221831 0.273810 0
0.246479 0.273810 0
0.271127 0.273810 0
0.295775 0.273810 0
0.320423 0.273810 0
0.345070 0.273810 0
0.369718 0.273810 0
0.394366 0.273810 0
0.419014 0.273810 0
0.443662 0.273810 0
0.468310 0.273810 0
0.492958 0.273810 0
0.517606 0.273810 0
0.542254 0.273810 0
0.566901 0.273810 0
0.591549 0.273810 0
0.616197 0.273810 0
0.640845 0.273810 0
0.665493 0.273810 0
0.690141 0.273810 0
0.714789 0.273810 0
0.739437 0.273810 0
0.764085 0.273810 0
0.788732 0.273810 0
0.813380 0.273810 0
0.838028 0.273810 0
0.862676 0.273810 0
0.887324 0.273810 0
0.911972 0.273810 0
0.936620 0.273810 0
0.961268 0.273810 0
0.985915 0.273810 0
1.010563 0.273810 0
1.035211 0.273810 0
1.059859 0.273810 0
1.084507 0.273810 0
1.109155 0.273810 0
1.133803 0.273810 0
1.158451 0.273810 0
1.183099 0.273810 0
1.207746 0.273810 0
1.232394 0.273810 0
1.257042 0.273810 0
1.281690 0.273810 0
1.306338 0.273810 0
1.330986 0.273810 0
1.355634 0.273810 0
1.380282 0.273810 0
1.404930 0.273810 0
1.429577 0.273810 0
1.454225 0.273810 0
1.478873 0.273810 0
1.503521 0.273810 0
1.528169 0.273810 0
1.552817 0.273810 0
1.577465 0.273810 0
1.602113 0.273810 0
1.626761 0.273810 0
1.651408 0.273810 0
1.676056 0.273810 0
1.700704 0.273810 0
1.725352 0.273810 0
1.750000 0.273810 0
1.774648 0.273810 0
1.799296 0.273810 0
1.823944 0.273810 0
1.848592 0.273810 0
1.873239 0.273810 0
1.897887 0.273810 0
1.922535 0.273810 0
1.947183 0.273810 0
1.971831 0.273810 0
1.996479 0.273810 0
2.021127 0.273810 0
2.045775 0.273810 0
2.070423 0.273810 0
2.095070 0.273810 0
2.119718 0.273810 0
2.144366 0.273810 0
2.169014 0.273810 0
2.193662 0.273810 0
2.218310 0.273810 0
2.242958 0.273810 0
2.267606 0.273810 0
2.292254 0.273810 0
2.316901 0.273810 0
2.341549 0.273810 0
2.366197 0.273810 0
2.390845 0.273810 0
2.415493 0.273810 0
2.440141 0.273810 0
2.464789 0.273810 0
2.489437 0.273810 0
2.514085 0.273810 0
2.538732 0.273810 0
2.563380 0.273810 0
2.588028 0.273810 0
2.612676 0.273810 0
2.637324 0.273810 0
2.661972 0.273810 0
2.686620 0.273810 0
2.711268 0.273810 0
2.735915 0.273810 0
2.760563 0.273810 0
2.785211 0.273810 0
2.809859 0.273810 0
2.834507 0.273810 0
2.859155 0.273810 0
2.883803 0.273810 0
2.908451 0.273810 0
2.933099 0.273810 0
2.957746 0.273810 0
2.982394 0.273810 0
3.007042 0.273810 0
3.031690 0.273810 0
3.056338 0.273810 0
3.080986 0.273810 0
3.105634 0.273810 0
3.130282 0.273810 0
3.154930 0.273810 0
3.179577 0.273810 0
3.204225 0.273810 0
3.228873 0.273810 0
3.253521 0.273810 0
3.278169 0.273810 0
3.302817 0.273810 0
3.327465 0.273810 0
3.352113 0.273810 0
3.376761 0.273810 0
3.401408 0.273810 0
3.426056 0.273810 0
3.450704 0.273810 0
3.475352 0.273810 0
0.000000 0.285714 0
0.024648 0.285714 0
0.049296 0.285714 0
0.073944 0.285714 0
0.098592 0.285714 0
0.123239 0.285714 0
0.147887 0.285714 0
0.172535 0.285714 0
0.197183 0.285714 0
0.221831 0.285714 0
0.246479 0.285714 0
0.271127 0.285714 0
0.295775 0.285714 0
0.320423 0.285714 0
0.345070 0.285714 0
0.369718 0.285714 0
0.394366 0.285714 0
0.419014 0.285714 0
0.443662 0.285714 0
0.468310 0.285714 0
0.492958 0.285714 0
0.517606 0.285714 0
0.542254 0.285714 0
0.566901 0.285714 0
0.591549 0.285714 0
0.616197 0.285714 0
0.640845 0.285714 0
0.665493 0.285714 0
0.690141 0.285714 0
0.714789 0.285714 0
0.739437 0.285714 0
0.764085 0.285714 0
0.788732 0.285714 0
0.813380 0.285714 0
0.838028 0.285714 0
0.862676 0.285714 0
0.887324 0.285714 0
0.911972 0.285714 0
0.936620 0.285714 0
0.961268 0.285714 0
0.985915 0.285714 0
1.010563 0.285714 0
1.035211 0.285714 0
1.059859 0.285714 0
1.084507 0.285714 0
1.109155 0.285714 0
1.133803 0.285714 0
1.158451 0.285714 0
1.183099 0.285714 0
1.207746 0.285714 0
1.232394 0.285714 0
1.257042 0.285714 0
1.281690 0.285714 0
1.306338 0.285714 0
1.330986 0.285714 0
1.355634 0.285714 0
1.380282 0.285714 0
1.404930 0.285714 0
1.429577 0.285714 0
1.454225 0.285714 0
1.478873 0.285714 0
1.503521 0.285714 0
1.528169 0.285714 0
1.552817 0.285714 0
1.577465 0.285714 0
[...]
POINT_DATA 5964 

VECTORS velocity float
1.000000 0.000000 0
0.999854 0.000000 0
0.999556 0.000000 0
0.999097 0.000000 0
0.998458 0.000000 0
0.997615 0.000000 0
0.996533 0.000000 0
0.995163 0.000000 0
0.993441 0.000000 0
0.991277 0.000000 0
0.988545 0.000000 0
0.985065 0.000000 0
0.980565 0.000000 0
0.974619 0.000000 0
0.966522 0.000000 0
0.954940 0.000000 0
0.937392 0.000000 0
0.905770 0.000000 0
0.847706 0.000000 0
-0.000000 0.000000 0
-0.000000 0.000000 0
-0.000000 0.000000 0
-0.000000 0.000000 0
-0.000000 0.000000 0
-0.000000 0.000000 0
-0.000000 0.000000 0
-0.000000 0.000000 0
-0.000000 0.000000 0
-0.000000 0.000000 0
-0.000000 0.000000 0
-0.000000 0.000000 0
-0.000000 0.000000 0
-0.000000 0.000000 0
-0.000000 0.000000 0
-0.000000 0.000000 0
-0.000000 0.000000 0
-0.000000 0.000000 0
-0.000000 0.000000 0
-0.000000 0.000000 0
-0.000000 0.000000 0
-0.000000 0.000000 0
-0.000000 0.000000 0
-0.000000 0.000000 0
-0.000000 0.000000 0
-0.000000 0.000000 0
-0.000000 0.000000 0
-0.000000 0.000000 0
-0.000000 0.000000 0
-0.000000 0.000000 0
-0.000000 0.000000 0
-0.000000 0.000000 0
-0.000000 0.000000 0
-0.000000 0.000000 0
-0.000000 0.000000 0
-0.000000 0.000000 0
-0.000000 0.000000 0
-0.000000 0.000000 0
-0.000000 0.000000 0
-0.000000 0.000000 0
-0.000000 0.000000 0
-0.000000 0.000000 0
-0.000000 0.000000 0
-0.000000 0.000000 0
-0.000000 0.000000 0
-0.000000 0.000000 0
-0.000001 0.000000 0
-0.000001 0.000000 0
-0.000001 0.000000 0
-0.000001 0.000000 0
-0.000001 0.000000 0
-0.000001 0.000000 0
-0.000001 0.000000 0
-0.000001 0.000000 0
-0.000001 0.000000 0
-0.000001 0.000000 0
-0.000001 0.000000 0
-0.000001 0.000000 0
-0.000001 0.000000 0
-0.000001 0.000000 0
-0.000002 0.000000 0
-0.000002 0.000000 0
-0.000002 0.000000 0
-0.000002 0.000000 0
-0.000002 0.000000 0
-0.000002 0.000000 0
-0.000002 0.000000 0
-0.000002 0.000000 0
-0.000002 0.000000 0
-0.000002 0.000000 0
-0.000002 0.000000 0
-0.000002 0.000000 0
-0.000002 0.000000 0
-0.000002 0.000000 0
-0.000002 0.000000 0
-0.000002 0.000000 0
-0.000002 0.000000 0
-0.000002 0.000000 0
-0.000002 0.000000 0
-0.000002 0.000000 0
-0.000002 0.000000 0
-0.000002 0.000000 0
-0.000002 0.000000 0
-0.000002 0.000000 0
-0.000002 0.000000 0
-0.000002 0.000000 0
-0.000002 0.000000 0
-0.000002 0.000000 0
-0.000002 0.000000 0
-0.000002 0.000000 0
-0.000002 0.000000 0
-0.000002 0.000000 0
-0.000002 0.000000 0
-0.000002 0.000000 0
-0.000002 0.000000 0
-0.000002 0.000000 0
-0.000002 0.000000 0
-0.000002 0.000000 0
-0.000002 0.000000 0
-0.000002 0.000000 0
-0.000002 0.000000 0
-0.000002 0.000000 0
-0.000002 0.000000 0
-0.000002 0.000000 0
-0.000002 0.000000 0
-0.000002 0.000000 0
-0.000002 0.000000 0
-0.000002 0.000000 0
-0.000002 0.000000 0
-0.000001 0.000000 0
-0.000001 0.000000 0
-0.000001 0.000000 0
-0.000001 0.000000 0
-0.000001 0.000000 0
-0.000001 0.000000 0
-0.000001 0.000000 0
-0.000001 0.000000 0
-0.000001 0.000000 0
-0.000000 0.000000 0
0.000000 0.000000 0
0.000000 0.000000 0
-0.000000 0.000000 0
0.496698 0.000000 0
1.000000 0.000035 0
0.999854 0.000107 0
0.999558 0.000183 0
0.999101 0.000265 0
0.998465 0.000358 0
0.997626 0.000465 0
0.996549 0.000592 0
0.995187 0.000747 0
0.993476 0.000938 0
0.991327 0.001182 0
0.988616 0.001500 0
0.985167 0.001927 0
0.980717 0.002523 0
0.974854 0.003391 0
0.966908 0.004752 0
0.955648 0.007035 0
0.938833 0.011874 0
0.910190 0.021659 0
0.860887 0.078853 0
0.714901 0.110956 0
0.576521 0.072745 0
0.473036 0.041074 0
0.401087 0.022638 0
0.351187 0.013308 0
0.315528 0.008678 0
0.289028 0.006201 0
0.268593 0.004716 0
0.252338 0.003738 0
0.239079 0.003048 0
0.228039 0.002540 0
0.218692 0.002154 0
0.210667 0.001852 0
0.203697 0.001612 0
0.197580 0.001417 0
0.192166 0.001257 0
0.187337 0.001123 0
0.183000 0.001010 0
0.179081 0.000915 0
0.175522 0.000833 0
0.172272 0.000761 0
0.169292 0.000700 0
0.166548 0.000645 0
0.164012 0.000598 0
0.161660 0.000555 0
0.159472 0.000517 0
0.157432 0.000483 0
0.155523 0.000453 0
0.153734 0.000425 0
0.152054 0.000400 0
0.150473 0.000377 0
0.148982 0.000356 0
0.147576 0.000337 0
0.146247 0.000319 0
0.144989 0.000302 0
0.143799 0.000287 0
0.142673 0.000272 0
0.141605 0.000258 0
0.140594 0.000245 0
0.139636 0.000233 0
0.138730 0.000221 0
0.137872 0.000209 0
0.137062 0.000198 0
0.136299 0.000187 0
0.135580 0.000177 0
0.134906 0.000167 0
0.134275 0.000156 0
0.133689 0.000146 0
0.133147 0.000135 0
0.132648 0.000125 0
0.132195 0.000114 0
0.131786 0.000103 0
0.131423 0.000092 0
0.131106 0.000081 0
0.130835 0.000069 0
0.130609 0.000058 0
0.130427 0.000046 0
0.130289 0.000035 0
0.130192 0.000024 0
0.130133 0.000015 0
0.130110 0.000006 0
0.130117 -0.000002 0
0.130149 -0.000009 0
0.130203 -0.000014 0
0.130274 -0.000019 0
0.130358 -0.000022 0
0.130451 -0.000025 0
0.130552 -0.000027 0
0.130656 -0.000028 0
0.130762 -0.000029 0
0.130869 -0.000029 0
0.130975 -0.000029 0
0.131079 -0.000028 0
0.131181 -0.000028 0
0.131281 -0.000028 0
0.131380 -0.000028 0
0.131478 -0.000028 0
0.131577 -0.000028 0
0.131678 -0.000029 0
0.131783 -0.000030 0
0.131893 -0.000032 0
0.132010 -0.000035 0
0.132138 -0.000038 0
0.132278 -0.000042 0
0.132433 -0.000047 0
0.132607 -0.000052 0
0.132802 -0.000059 0
0.133024 -0.000067 0
0.133277 -0.000077 0
0.133565 -0.000087 0
0.133895 -0.000100 0
0.134273 -0.000115 0
0.134707 -0.000132 0
0.135205 -0.000152 0
0.135778 -0.000174 0
0.136437 -0.000201 0
0.137196 -0.000231 0
0.138071 -0.000267 0
0.139081 -0.000309 0
0.140246 -0.000357 0
0.141595 -0.000414 0
0.143157 -0.000481 0
0.144970 -0.000560 0
0.147079 -0.000653 0
0.149539 -0.000765 0
0.152418 -0.000900 0
0.155798 -0.001063 0
0.159785 -0.001263 0
0.164515 -0.001511 0
0.170163 -0.001822 0
0.176958 -0.002220 0
0.185215 -0.002740 0
0.195367 -0.003435 0
0.208034 -0.004392 0
0.224134 -0.005762 0
0.245086 -0.007820 0
0.273191 -0.011117 0
0.312469 -0.016825 0
0.370231 -0.028403 0
0.463325 -0.050831 0
0.617786 -0.167280 0
0.993711 -0.269221 0
0.993711 -0.134611 0
1.000000 0.000070 0
0.999856 0.000213 0
0.999564 0.000364 0
0.999113 0.000528 0
0.998486 0.000712 0
0.997660 0.000925 0
0.996599 0.001178 0
0.995260 0.001485 0
0.993580 0.001865 0
0.991474 0.002347 0
0.988827 0.002975 0
0.985471 0.003815 0
0.981166 0.004981 0
0.975545 0.006669 0
0.968030 0.009277 0
0.957655 0.013560 0
0.942793 0.021956 0
0.920705 0.037648 0
0.888383 0.094323 0
0.891015 0.137347 0
0.842170 0.116819 0
0.771644 0.084733 0
0.701254 0.058852 0
0.639958 0.041325 0
0.589303 0.030023 0
0.547977 0.022669 0
0.514104 0.017721 0
0.486028 0.014255 0
0.462457 0.011736 0
0.442423 0.009847 0
0.425200 0.008390 0
0.410241 0.007243 0
0.397128 0.006321 0
0.385538 0.005569 0
0.375221 0.004947 0
0.365974 0.004427 0
0.357639 0.003987 0
0.350084 0.003612 0
0.343203 0.003289 0
0.336908 0.003009 0
0.331125 0.002765 0
0.325794 0.002550 0
0.320860 0.002361 0
0.316282 0.002193 0
0.312020 0.002042 0
0.308043 0.001907 0
0.304323 0.001786 0
0.300836 0.001676 0
0.297561 0.001575 0
0.294479 0.001484 0
0.291576 0.001399 0
0.288837 0.001321 0
0.286250 0.001249 0
0.283805 0.001182 0
0.281493 0.001119 0
0.279306 0.001060 0
0.277236 0.001004 0
0.275278 0.000951 0
0.273426 0.000900 0
0.271677 0.000852 0
0.270026 0.000805 0
0.268469 0.000760 0
0.267006 0.000716 0
0.265632 0.000673 0
0.264349 0.000630 0
0.263153 0.000588 0
0.262045 0.000545 0
0.261025 0.000503 0
0.260092 0.000460 0
0.259248 0.000416 0
0.258492 0.000373 0
0.257825 0.000328 0
0.257245 0.000284 0
0.256753 0.000240 0
0.256346 0.000197 0
0.256022 0.000155 0
0.255778 0.000114 0
0.255608 0.000075 0
0.255509 0.000040 0
0.255472 0.000008 0
0.255491 -0.000019 0
0.255556 -0.000042 0
0.255657 -0.000060 0
0.255787 -0.000075 0
0.255940 -0.000086 0
0.256110 -0.000094 0
0.256290 -0.000099 0
0.256476 -0.000102 0
0.256664 -0.000103 0
0.256852 -0.000102 0
0.257038 -0.000101 0
0.257219 -0.000100 0
0.257397 -0.000098 0
0.257571 -0.000096 0
0.257741 -0.000095 0
0.257910 -0.000095 0
0.258079 -0.000097 0
0.258251 -0.000099 0
0.258429 -0.000104 0
0.258615 -0.000110 0
0.258813 -0.000118 0
0.259028 -0.000129 0
0.259263 -0.000142 0
0.259523 -0.000159 0
0.259815 -0.000179 0
0.260144 -0.000202 0
0.260517 -0.000229 0
0.260940 -0.000261 0
0.261424 -0.000299 0
0.261977 -0.000342 0
0.262611 -0.000392 0
0.263339 -0.000450 0
0.264174 -0.000517 0
0.265134 -0.000595 0
0.266237 -0.000685 0
0.267508 -0.000789 0
0.268970 -0.000910 0
0.270657 -0.001051 0
0.272602 -0.001214 0
0.274849 -0.001406 0
0.277449 -0.001630 0
0.280460 -0.001894 0
0.283955 -0.002207 0
0.288020 -0.002578 0
0.292763 -0.003023 0
0.298312 -0.003559 0
0.304829 -0.004211 0
0.312520 -0.005012 0
0.321645 -0.006010 0
0.332542 -0.007270 0
0.345659 -0.008891 0
0.361604 -0.011021 0
0.381214 -0.013894 0
0.405683 -0.017896 0
0.436766 -0.023694 0
0.477123 -0.032546 0
0.530966 -0.046869 0
0.604935 -0.072863 0
0.710397 -0.119567 0
0.862191 -0.256173 0
0.994441 -0.363138 0
0.994441 -0.181569 0
1.000000 0.000105 0
0.999860 0.000318 0
0.999574 0.000542 0
0.999133 0.000786 0
0.998521 0.001060 0
0.997714 0.001376 0
0.996682 0.001751 0
0.995380 0.002205 0
0.993751 0.002767 0
0.991716 0.003478 0
0.989170 0.004400 0
0.985965 0.005627 0
0.981891 0.007317 0
0.976646 0.009736 0
0.969788 0.013393 0
0.960680 0.019224 0
0.948439 0.029721 0
0.933038 0.047939 0
0.915098 0.093192 0
0.945346 0.133277 0
0.948646 0.130400 0
0.922965 0.109135 0
0.882015 0.086241 0
0.836631 0.067379 0
0.792590 0.053104 0
0.752269 0.042521 0
0.716298 0.034638 0
0.684544 0.028683 0
0.656591 0.024109 0
0.631952 0.020535 0
0.610163 0.017698 0
0.590810 0.015411 0
0.573540 0.013543 0
0.558054 0.011998 0
0.544102 0.010706 0
0.531474 0.009615 0
0.519995 0.008685 0
0.509519 0.007887 0
0.499920 0.007196 0
0.491094 0.006595 0
0.482951 0.006068 0
0.475416 0.005603 0
0.468421 0.005192 0
0.461912 0.004825 0
0.455839 0.004496 0
0.450161 0.004201 0
0.444840 0.003934 0
0.439845 0.003692 0
0.435147 0.003471 0
0.430723 0.003268 0
0.426552 0.003082 0
0.422614 0.002909 0
0.418893 0.002749 0
0.415374 0.002600 0
0.412046 0.002460 0
0.408898 0.002328 0
0.405918 0.002203 0
0.403101 0.002085 0
0.400437 0.001972 0
0.397921 0.001863 0
0.395548 0.001758 0
0.393313 0.001657 0
0.391213 0.001558 0
0.389246 0.001460 0
0.387408 0.001364 0
0.385699 0.001269 0
0.384117 0.001174 0
0.382662 0.001078 0
0.381334 0.000983 0
0.380133 0.000887 0
0.379058 0.000791 0
0.378108 0.000694 0
0.377282 0.000598 0
0.376579 0.000503 0
0.375994 0.000411 0
0.375525 0.000321 0
0.375165 0.000235 0
0.374907 0.000154 0
0.374744 0.000080 0
0.374668 0.000014 0
0.374669 -0.000042 0
0.374734 -0.000089 0
0.374851 -0.000126 0
0.375010 -0.000156 0
0.375201 -0.000178 0
0.375415 -0.000194 0
0.375645 -0.000204 0
0.375885 -0.000209 0
0.376129 -0.000210 0
0.376373 -0.000209 0
0.376615 -0.000206 0
0.376852 -0.000202 0
0.377083 -0.000198 0
0.377310 -0.000194 0
0.377532 -0.000192 0
0.377751 -0.000191 0
0.377970 -0.000193 0
0.378191 -0.000198 0
0.378418 -0.000206 0
0.378656 -0.000218 0
0.378907 -0.000234 0
0.379178 -0.000255 0
0.379474 -0.000281 0
0.379801 -0.000314 0
0.380165 -0.000352 0
0.380576 -0.000398 0
0.381040 -0.000452 0
0.381567 -0.000515 0
0.382168 -0.000588 0
0.382856 -0.000674 0
0.383643 -0.000772 0
0.384545 -0.000886 0
0.385580 -0.001018 0
0.386769 -0.001171 0
0.388136 -0.001347 0
0.389708 -0.001552 0
0.391516 -0.001788 0
0.393598 -0.002063 0
0.395998 -0.002382 0
0.398766 -0.002755 0
0.401962 -0.003191 0
0.405657 -0.003702 0
0.409937 -0.004305 0
0.414902 -0.005019 0
0.420674 -0.005870 0
0.427403 -0.006891 0
0.435271 -0.008125 0
0.444505 -0.009632 0
0.455391 -0.011492 0
0.468290 -0.013819 0
0.483670 -0.016777 0
0.502146 -0.020607 0
0.524538 -0.025682 0
0.551962 -0.032594 0
0.585960 -0.042325 0
0.628683 -0.056615 0
0.683125 -0.078557 0
0.753112 -0.115066 0
0.841979 -0.175084 0
0.949088 -0.304471 0
0.995271 -0.396972 0
0.995272 -0.198486 0
1.000000 0.000138 0
0.999864 0.000419 0
0.999587 0.000715 0
0.999160 0.001036 0
0.998569 0.001397 0
0.997790 0.001814 0
0.996795 0.002306 0
0.995544 0.002900 0
0.993984 0.003634 0
0.992046 0.004559 0
0.989636 0.005753 0
0.986630 0.007331 0
0.982857 0.009482 0
0.978093 0.012515 0
0.972041 0.016988 0
0.964389 0.023871 0
0.954914 0.035306 0
0.945029 0.053751 0
0.937280 0.088379 0
0.965722 0.121144 0
0.987903 0.127629 0
0.990095 0.116916 0
0.975797 0.100551 0
0.951776 0.084516 0
0.923267 0.070769 0
0.893490 0.059518 0
0.864224 0.050431 0
0.836383 0.043093 0
0.810375 0.037138 0
0.786331 0.032271 0
0.764226 0.028262 0
0.743958 0.024931 0
0.725388 0.022142 0
0.708366 0.019788 0
0.692744 0.017785 0
0.678381 0.016070 0
0.665150 0.014591 0
0.652934 0.013308 0
0.641630 0.012188 0
0.631146 0.011205 0
0.621401 0.010337 0
0.612323 0.009568 0
0.603848 0.008883 0
0.595921 0.008270 0
0.588492 0.007718 0
0.581517 0.007220 0
0.574958 0.006768 0
0.568782 0.006357 0
0.562957 0.005981 0
0.557457 0.005635 0
0.552259 0.005316 0
0.547343 0.005021 0
0.542688 0.004746 0
0.538281 0.004489 0
0.534105 0.004247 0
0.530149 0.004020 0
0.526402 0.003804 0
0.522855 0.003599 0
0.519498 0.003402 0
0.516324 0.003213 0
0.513329 0.003031 0
0.510506 0.002854 0
0.507852 0.002681 0
0.505363 0.002511 0
0.503037 0.002343 0
0.500871 0.002177 0
0.498865 0.002012 0
0.497017 0.001847 0
0.495327 0.001681 0
0.493794 0.001516 0
0.492416 0.001351 0
0.491193 0.001186 0
0.490121 0.001023 0
0.489199 0.000862 0
0.488422 0.000706 0
0.487784 0.000555 0
0.487279 0.000412 0
0.486899 0.000278 0
0.486633 0.000155 0
0.486472 0.000044 0
0.486407 -0.000051 0
0.486425 -0.000130 0
0.486512 -0.000193 0
0.486655 -0.000244 0
0.486841 -0.000281 0
0.487061 -0.000308 0
0.487305 -0.000326 0
0.487565 -0.000335 0
0.487835 -0.000339 0
0.488108 -0.000337 0
0.488382 -0.000332 0
0.488652 -0.000326 0
0.488919 -0.000319 0
0.489180 -0.000313 0
0.489437 -0.000308 0
0.489691 -0.000307 0
0.489944 -0.000309 0
0.490199 -0.000316 0
0.490459 -0.000328 0
0.490729 -0.000346 0
0.491014 -0.000371 0
0.491319 -0.000403 0
0.491650 -0.000443 0
0.492014 -0.000493 0
0.492419 -0.000553 0
0.492872 -0.000624 0
0.493383 -0.000708 0
0.493962 -0.000806 0
0.494621 -0.000921 0
0.495373 -0.001054 0
0.496234 -0.001208 0
0.497219 -0.001386 0
0.498349 -0.001592 0
0.499645 -0.001829 0
0.501134 -0.002104 0
0.502845 -0.002422 0
0.504811 -0.002789 0
0.507074 -0.003215 0
0.509677 -0.003710 0
0.512677 -0.004286 0
0.516134 -0.004959 0
0.520125 -0.005746 0
0.524735 -0.006672 0
0.530070 -0.007764 0
0.536254 -0.009061 0
0.543435 -0.010609 0
0.551797 -0.012471 0
0.561559 -0.014730 0
0.572995 -0.017497 0
0.586445 -0.020929 0
0.602336 -0.025244 0
0.621209 -0.030761 0
0.643761 -0.037955 0
0.670887 -0.047562 0
0.703732 -0.060750 0
0.743722 -0.079475 0
0.792464 -0.106968 0
0.851212 -0.149588 0
0.918194 -0.214223 0
0.985594 -0.330212 0
0.996068 -0.407749 0
0.996068 -0.203874 0
1.000000 0.000170 0
0.999869 0.000517 0
0.999604 0.000881 0
0.999195 0.001278 0
0.998628 0.001722 0
0.997885 0.002233 0
0.996937 0.002836 0
0.995749 0.003563 0
0.994275 0.004456 0
0.992455 0.005578 0
0.990211 0.007016 0
0.987443 0.008902 0
0.984025 0.011440 0
0.979809 0.014960 0
0.974642 0.020012 0
0.968474 0.027497 0
0.961568 0.039072 0
0.955840 0.056456 0
0.954488 0.083198 0
0.976685 0.108827 0
1.001728 0.118628 0
1.016381 0.114982 0
1.018704 0.104749 0
1.011426 0.092751 0
0.997841 0.081256 0
0.980529 0.071039 0
0.961267 0.062220 0
0.941224 0.054692 0
0.921150 0.048283 0
0.901517 0.042825 0
0.882607 0.038164 0
0.864578 0.034170 0
0.847503 0.030734 0
0.831403 0.027765 0
0.816264 0.025189 0
0.802051 0.022943 0
0.788716 0.020976 0
0.776207 0.019247 0
0.764470 0.017720 0
0.753449 0.016365 0
0.743093 0.015159 0
0.733351 0.014081 0
0.724179 0.013114 0
0.715532 0.012242 0
0.707373 0.011453 0
0.699666 0.010738 0
0.692377 0.010085 0
0.685477 0.009488 0
0.678941 0.008940 0
0.672744 0.008435 0
0.666864 0.007967 0
0.661283 0.007532 0
0.655982 0.007126 0
0.650947 0.006745 0
0.646164 0.006387 0
0.641621 0.006048 0
0.637307 0.005727 0
0.633213 0.005420 0
0.629331 0.005126 0
0.625654 0.004843 0
0.622175 0.004569 0
0.618890 0.004302 0
0.615795 0.004042 0
0.612886 0.003786 0
0.610162 0.003534 0
0.607618 0.003284 0
0.605255 0.003035 0
0.603071 0.002787 0
0.601064 0.002540 0
0.599233 0.002293 0
0.597578 0.002047 0
0.596095 0.001803 0
0.594783 0.001561 0
0.593638 0.001324 0
0.592654 0.001094 0
0.591827 0.000873 0
0.591149 0.000663 0
0.590611 0.000466 0
0.590202 0.000286 0
0.589913 0.000123 0
0.589731 -0.000019 0
0.589650 -0.000139 0
0.589655 -0.000237 0
0.589731 -0.000315 0
0.589866 -0.000374 0
0.590047 -0.000418 0
0.590263 -0.000447 0
0.590506 -0.000465 0
0.590766 -0.000473 0
0.591038 -0.000473 0
0.591317 -0.000469 0
0.591597 -0.000461 0
0.591877 -0.000453 0
0.592155 -0.000444 0
0.592430 -0.000438 0
0.592704 -0.000436 0
0.592977 -0.000438 0
0.593253 -0.000447 0
0.593534 -0.000462 0
0.593824 -0.000486 0
0.594128 -0.000519 0
0.594451 -0.000562 0
0.594800 -0.000617 0
0.595180 -0.000685 0
0.595601 -0.000766 0
0.596069 -0.000863 0
0.596595 -0.000978 0
0.597189 -0.001113 0
0.597864 -0.001270 0
0.598631 -0.001452 0
0.599507 -0.001664 0
0.600509 -0.001908 0
0.601657 -0.002190 0
0.602973 -0.002516 0
0.604482 -0.002893 0
0.606214 -0.003328 0
0.608203 -0.003831 0
0.610489 -0.004413 0
0.613117 -0.005088 0
0.616141 -0.005873 0
0.619620 -0.006788 0
0.623629 -0.007856 0
0.628251 -0.009109 0
0.633586 -0.010583 0
0.639751 -0.012326 0
0.646887 -0.014398 0
0.655160 -0.016879 0
0.664772 -0.019871 0
0.675965 -0.023512 0
0.689033 -0.027991 0
0.704338 -0.033568 0
0.722317 -0.040616 0
0.743506 -0.049676 0
0.768545 -0.061559 0
0.798168 -0.077504 0
0.833117 -0.099472 0
0.873856 -0.130475 0
0.919834 -0.175793 0
0.966826 -0.239989 0
1.005431 -0.342084 0
0.996791 -0.407088 0
0.996792 -0.203542 0
1.000000 0.000201 0
0.999876 0.000610 0
0.999624 0.001041 0
0.999236 0.001508 0
0.998699 0.002030 0
0.997997 0.002631 0
0.997104 0.003337 0
0.995991 0.004186 0
0.994617 0.005225 0
0.992934 0.006522 0
0.990879 0.008174 0
0.988378 0.010319 0
0.985351 0.013169 0
0.981718 0.017047 0
0.977450 0.022463 0
0.972690 0.030186 0
0.967989 0.041408 0
0.965263 0.057170 0
0.967545 0.078311 0
0.984762 0.098327 0
1.007179 0.108457 0
1.025337 0.108716 0
1.035757 0.102943 0
1.038761 0.094593 0
1.035933 0.085693 0
1.028897 0.077183 0
1.018970 0.069415 0
1.007140 0.062469 0
0.994136 0.056316 0
0.980487 0.050887 0
0.966577 0.046103 0
0.952681 0.041886 0
0.938989 0.038165 0
0.925633 0.034876 0
0.912698 0.031963 0
0.900238 0.029376 0
0.888281 0.027074 0
0.876838 0.025019 0
0.865908 0.023180 0
0.855482 0.021530 0
0.845545 0.020044 0
0.836079 0.018703 0
0.827064 0.017489 0
0.818477 0.016386 0
0.810298 0.015382 0
0.802505 0.014463 0
0.795079 0.013621 0
0.787999 0.012846 0
0.781248 0.012131 0
0.774809 0.011468 0
0.768667 0.010852 0
0.762806 0.010277 0
0.757213 0.009738 0
0.751878 0.009231 0
0.746788 0.008752 0
0.741934 0.008297 0
0.737308 0.007865 0
0.732903 0.007451 0
0.728711 0.007053 0
0.724726 0.006670 0
0.720945 0.006298 0
0.717363 0.005935 0
0.713977 0.005580 0
0.710783 0.005232 0
0.707781 0.004888 0
0.704967 0.004547 0
0.702341 0.004208 0
0.699902 0.003871 0
0.697647 0.003535 0
0.695577 0.003200 0
0.693689 0.002866 0
0.691982 0.002536 0
0.690452 0.002210 0
0.689097 0.001890 0
0.687911 0.001580 0
0.686889 0.001283 0
0.686023 0.001000 0
0.685306 0.000735 0
0.684728 0.000492 0
0.684278 0.000272 0
0.683945 0.000076 0
0.683719 -0.000093 0
0.683595 -0.000233 0
0.683559 -0.000346 0
0.683595 -0.000434 0
0.683692 -0.000500 0
0.683839 -0.000547 0
0.684024 -0.000578 0
0.684239 -0.000596 0
0.684475 -0.000603 0
0.684728 -0.000602 0
0.684991 -0.000597 0
0.685260 -0.000588 0
0.685534 -0.000580 0
0.685809 -0.000574 0
0.686086 -0.000571 0
0.686366 -0.000574 0
0.686649 -0.000585 0
0.686938 -0.000604 0
0.687236 -0.000633 0
0.687548 -0.000674 0
0.687878 -0.000727 0
0.688231 -0.000796 0
0.688614 -0.000880 0
0.689034 -0.000982 0
0.689499 -0.001104 0
0.690019 -0.001249 0
0.690603 -0.001419 0
0.691263 -0.001617 0
0.692012 -0.001848 0
0.692865 -0.002115 0
0.693838 -0.002424 0
0.694951 -0.002781 0
0.696225 -0.003194 0
0.697684 -0.003670 0
0.699357 -0.004219 0
0.701276 -0.004854 0
0.703479 -0.005589 0
0.706009 -0.006440 0
0.708915 -0.007427 0
0.712255 -0.008576 0
0.716095 -0.009915 0