# vtk DataFile Version 2.0
generated by CFD-lab course output (written by Tobias Neckel) 
ASCII

DATASET STRUCTURED_GRID
DIMENSIONS  142 42 1 
POINTS 5964 float

0.000000 0.250000 0
0.024648 0.250000 0
0.049296 0.250000 0
0.073944 0.250000 0
0.098592 0.250000 0
0.123239 0.250000 0
0.147887 0.250000 0
0.172535 0.250000 0
0.197183 0.250000 0
0.221831 0.250000 0
0.246479 0.250000 0
0.271127 0.250000 0
0.295775 0.250000 0
0.320423 0.250000 0
0.345070 0.250000 0
0.369718 0.250000 0
0.394366 0.250000 0
0.419014 0.250000 0
0.443662 0.250000 0
0.468310 0.250000 0
0.492958 0.250000 0
0.517606 0.250000 0
0.542254 0.250000 0
0.566901 0.250000 0
0.591549 0.250000 0
0.616197 0.250000 0
0.640845 0.250000 0
0.665493 0.250000 0
0.690141 0.250000 0
0.714789 0.250000 0
0.739437 0.250000 0
0.764085 0.250000 0
0.788732 0.250000 0
0.813380 0.250000 0
0.838028 0.250000 0
0.862676 0.250000 0
0.887324 0.250000 0
0.911972 0.250000 0
0.936620 0.250000 0
0.961268 0.250000 0
0.985915 0.250000 0
1.010563 0.250000 0
1.035211 0.250000 0
1.059859 0.250000 0
1.084507 0.250000 0
1.109155 0.250000 0
1.133803 0.250000 0
1.158451 0.250000 0
1.183099 0.250000 0
1.207746 0.250000 0
1.232394 0.250000 0
1.257042 0.250000 0
1.281690 0.250000 0
1.306338 0.250000 0
1.330986 0.250000 0
1.355634 0.250000 0
1.380282 0.250000 0
1.404930 0.250000 0
1.429577 0.250000 0
1.454225 0.250000 0
1.478873 0.250000 0
1.503521 0.250000 0
1.528169 0.250000 0
1.552817 0.250000 0
1.577465 0.250000 0
1.602113 0.250000 0
1.626761 0.250000 0
1.651408 0.250000 0
1.676056 0.250000 0
1.700704 0.250000 0
1.725352 0.250000 0
1.750000 0.250000 0
1.774648 0.250000 0
1.799296 0.250000 0
1.823944 0.250000 0
1.848592 0.250000 0
1.873239 0.250000 0
1.897887 0.250000 0
1.922535 0.250000 0
1.947183 0.250000 0
1.971831 0.250000 0
1.996479 0.250000 0
2.021127 0.250000 0
2.045775 0.250000 0
2.070423 0.250000 0
2.095070 0.250000 0
2.119718 0.250000 0
2.144366 0.250000 0
2.169014 0.250000 0
2.193662 0.250000 0
2.218310 0.250000 0
2.242958 0.250000 0
2.267606 0.250000 0
2.292254 0.250000 0
2.316901 0.250000 0
2.341549 0.250000 0
2.366197 0.250000 0
2.390845 0.250000 0
2.415493 0.250000 0
2.440141 0.250000 0
2.464789 0.250000 0
2.489437 0.250000 0
2.514085 0.250000 0
2.538732 0.250000 0
2.563380 0.250000 0
2.588028 0.250000 0
2.612676 0.250000 0
2.637324 0.250000 0
2.661972 0.250000 0
2.686620 0.250000 0
2.711268 0.250000 0
2.735915 0.250000 0
2.760563 0.250000 0
2.785211 0.250000 0
2.809859 0.250000 0
2.834507 0.250000 0
2.859155 0.250000 0
2.883803 0.250000 0
2.908451 0.250000 0
2.933099 0.250000 0
2.957746 0.250000 0
2.982394 0.250000 0
3.007042 0.250000 0
3.031690 0.250000 0
3.056338 0.250000 0
3.080986 0.250000 0
3.105634 0.250000 0
3.130282 0.250000 0
3.154930 0.250000 0
3.179577 0.250000 0
3.204225 0.250000 0
3.228873 0.250000 0
3.253521 0.250000 0
3.278169 0.250000 0
3.302817 0.250000 0
3.327465 0.250000 0
3.352113 0.250000 0
3.376761 0.250000 0
3.401408 0.250000 0
3.426056 0.250000 0
3.450704 0.250000 0
3.475352 0.250000 0
0.000000 0.261905 0
0.024648 0.261905 0
0.049296 0.261905 0
0.073944 0.261905 0
0.098592 0.261905 0
0.123239 0.261905 0
0.147887 0.261905 0
0.172535 0.261905 0
0.197183 0.261905 0
0.221831 0.261905 0
0.246479 0.261905 0
0.271127 0.261905 0
0.295775 0.261905 0
0.320423 0.261905 0
0.345070 0.261905 0
0.369718 0.261905 0
0.394366 0.261905 0
0.419014 0.261905 0
0.443662 0.261905 0
0.468310 0.261905 0
0.492958 0.261905 0
0.517606 0.261905 0
0.542254 0.261905 0
0.566901 0.261905 0
0.591549 0.261905 0
0.616197 0.261905 0
0.640845 0.261905 0
0.665493 0.261905 0
0.690141 0.261905 0
0.714789 0.261905 0
0.739437 0.261905 0
0.764085 0.261905 0
0.788732 0.261905 0
0.813380 0.261905 0
0.838028 0.261905 0
0.862676 0.261905 0
0.887324 0.261905 0
0.911972 0.261905 0
0.936620 0.261905 0
0.961268 0.261905 0
0.985915 0.261905 0
1.010563 0.261905 0
1.035211 0.261905 0
1.059859 0.261905 0
1.084507 0.261905 0
1.109155 0.261905 0
1.133803 0.261905 0
1.158451 0.261905 0
1.183099 0.261905 0
1.207746 0.261905 0
1.232394 0.261905 0
1.257042 0.261905 0
1.281690 0.261905 0
1.306338 0.261905 0
1.330986 0.261905 0
1.355634 0.261905 0
1.380282 0.261905 0
1.404930 0.261905 0
1.429577 0.261905 0
1.454225 0.261905 0
1.478873 0.261905 0
1.503521 0.261905 0
1.528169 0.261905 0
1.552817 0.261905 0
1.577465 0.261905 0
1.602113 0.261905 0
1.626761 0.261905 0
1.651408 0.261905 0
1.676056 0.261905 0
1.700704 0.261905 0
1.725352 0.261905 0
1.750000 0.261905 0
1.774648 0.261905 0
1.799296 0.261905 0
1.823944 0.261905 0
1.848592 0.261905 0
1.873239 0.261905 0
1.897887 0.261905 0
1.922535 0.261905 0
1.947183 0.261905 0
1.971831 0.261905 0
1.996479 0.261905 0
2.021127 0.261905 0
2.045775 0.261905 0
2.070423 0.261905 0
2.095070 0.261905 0
2.119718 0.261905 0
2.144366 0.261905 0
2.169014 0.261905 0
2.193662 0.261905 0
2.218310 0.261905 0
2.242958 0.261905 0
2.267606 0.261905 0
2.292254 0.261905 0
2.316901 0.261905 0
2.341549 0.261905 0
2.366197 0.261905 0
2.390845 0.261905 0
2.415493 0.261905 0
2.440141 0.261905 0
2.464789 0.261905 0
2.489437 0.261905 0
2.514085 0.261905 0
2.538732 0.261905 0
2.563380 0.261905 0
2.588028 0.261905 0
2.612676 0.261905 0
2.637324 0.261905 0
2.661972 0.261905 0
2.686620 0.261905 0
2.711268 0.261905 0
2.735915 0.261905 0
2.760563 0.261905 0
2.785211 0.261905 0
2.809859 0.261905 0
2.834507 0.261905 0
2.859155 0.261905 0
2.883803 0.261905 0
2.908451 0.261905 0
2.933099 0.261905 0
2.957746 0.261905 0
2.982394 0.261905 0
3.007042 0.261905 0
3.031690 0.261905 0
3.056338 0.261905 0
3.080986 0.261905 0
3.105634 0.261905 0
3.130282 0.261905 0
3.154930 0.261905 0
3.179577 0.261905 0
3.204225 0.261905 0
3.228873 0.261905 0
3.253521 0.261905 0
3.278169 0.261905 0
3.302817 0.261905 0
3.327465 0.261905 0
3.352113 0.261905 0
3.376761 0.261905 0
3.401408 0.261905 0
3.426056 0.261905 0
3.450704 0.261905 0
3.475352 0.261905 0
0.000000 0.273810 0
0.024648 0.273810 0
0.049296 0.273810 0
0.073944 0.273810 0
0.098592 0.273810 0
0.123239 0.273810 0
0.147887 0.273810 0
0.172535 0.273810 0
0.197183 0.273810 0
0.221831 0.273810 0
0.246479 0.273810 0
0.271127 0.273810 0
0.295775 0.273810 0
0.320423 0.273810 0
0.345070 0.273810 0
0.369718 0.273810 0
0.394366 0.273810 0
0.419014 0.273810 0
0.443662 0.273810 0
0.468310 0.273810 0
0.492958 0.273810 0
0.517606 0.273810 0
0.542254 0.273810 0
0.566901 0.273810 0
0.591549 0.273810 0
0.616197 0.273810 0
0.640845 0.273810 0
0.665493 0.273810 0
0.690141 0.273810 0
0.714789 0.273810 0
0.739437 0.273810 0
0.764085 0.273810 0
0.788732 0.273810 0
0.813380 0.273810 0
0.838028 0.273810 0
0.862676 0.273810 0
0.887324 0.273810 0
0.911972 0.273810 0
0.936620 0.273810 0
0.961268 0.273810 0
0.985915 0.273810 0
1.010563 0.273810 0
1.035211 0.273810 0
1.059859 0.273810 0
1.084507 0.273810 0
1.109155 0.273810 0
1.133803 0.273810 0
1.158451 0.273810 0
1.183099 0.273810 0
1.207746 0.273810 0
1.232394 0.273810 0
1.257042 0.273810 0
1.281690 0.273810 0
1.306338 0.273810 0
1.330986 0.273810 0
1.355634 0.273810 0
1.380282 0.273810 0
1.404930 0.273810 0
1.429577 0.273810 0
1.454225 0.273810 0
1.478873 0.273810 0
1.503521 0.273810 0
1.528169 0.273810 0
1.552817 0.273810 0
1.577465 0.273810 0
1.602113 0.273810 0
1.626761 0.273810 0
1.651408 0.273810 0
1.676056 0.273810 0
1.700704 0.273810 0
1.725352 0.273810 0
1.750000 0.273810 0
1.774648 0.273810 0
1.799296 0.273810 0
1.823944 0.273810 0
1.848592 0.273810 0
1.873239 0.273810 0
1.897887 0.273810 0
1.922535 0.273810 0
1.947183 0.273810 0
1.971831 0.273810 0
1.996479 0.273810 0
2.021127 0.273810 0
2.045775 0.273810 0
2.070423 0.273810 0
2.095070 0.273810 0
2.119718 0.273810 0
2.144366 0.273810 0
2.169014 0.273810 0
2.193662 0.273810 0
2.218310 0.273810 0
2.242958 0.273810 0
2.267606 0.273810 0
2.292254 0.273810 0
2.316901 0.273810 0
2.341549 0.273810 0
2.366197 0.273810 0
2.390845 0.273810 0
2.415493 0.273810 0
2.440141 0.273810 0
2.464789 0.273810 0
2.489437 0.273810 0
2.514085 0.273810 0
2.538732 0.273810 0
2.563380 0.273810 0
2.588028 0.273810 0
2.612676 0.273810 0
2.637324 0.273810 0
2.661972 0.273810 0
2.686620 0.273810 0
2.711268 0.273810 0
2.735915 0.273810 0
2.760563 0.273810 0
2.785211 0.273810 0
2.809859 0.273810 0
2.834507 0.273810 0
2.859155 0.273810 0
2.883803 0.273810 0
2.908451 0.273810 0
2.933099 0.273810 0
2.957746 0.273810 0
2.982394 0.273810 0
3.007042 0.273810 0
3.031690 0.273810 0
3.056338 0.273810 0
3.080986 0.273810 0
3.105634 0.273810 0
3.130282 0.273810 0
3.154930 0.273810 0
3.179577 0.273810 0
3.204225 0.273810 0
3.228873 0.273810 0
3.253521 0.273810 0
3.278169 0.273810 0
3.302817 0.273810 0
3.327465 0.273810 0
3.352113 0.273810 0
3.376761 0.273810 0
3.401408 0.273810 0
3.426056 0.273810 0
3.450704 0.273810 0
3.475352 0.273810 0
0.000000 0.285714 0
0.024648 0.285714 0
0.049296 0.285714 0
0.073944 0.285714 0
0.098592 0.285714 0
0.123239 0.285714 0
0.147887 0.285714 0
0.172535 0.285714 0
0.197183 0.285714 0
0.221831 0.285714 0
0.246479 0.285714 0
0.271127 0.285714 0
0.295775 0.285714 0
0.320423 0.285714 0
0.345070 0.285714 0
0.369718 0.285714 0
0.394366 0.285714 0
0.419014 0.285714 0
0.443662 0.285714 0
0.468310 0.285714 0
0.492958 0.285714 0
0.517606 0.285714 0
0.542254 0.285714 0
0.566901 0.285714 0
0.591549 0.285714 0
0.616197 0.285714 0
0.640845 0.285714 0
0.665493 0.285714 0
0.690141 0.285714 0
0.714789 0.285714 0
0.739437 0.285714 0
0.764085 0.285714 0
0.788732 0.285714 0
0.813380 0.285714 0
0.838028 0.285714 0
0.862676 0.285714 0
0.887324 0.285714 0
0.911972 0.285714 0
0.936620 0.285714 0
0.961268 0.285714 0
0.985915 0.285714 0
1.010563 0.285714 0
1.035211 0.285714 0
1.059859 0.285714 0
1.084507 0.285714 0
1.109155 0.285714 0
1.133803 0.285714 0
1.158451 0.285714 0
1.183099 0.285714 0
1.207746 0.285714 0
1.232394 0.285714 0
1.257042 0.285714 0
1.281690 0.285714 0
1.306338 0.285714 0
1.330986 0.285714 0
1.355634 0.285714 0
1.380282 0.285714 0
1.404930 0.285714 0
1.429577 0.285714 0
1.454225 0.285714 0
1.478873 0.285714 0
1.503521 0.285714 0
1.528169 0.285714 0
1.552817 0.285714 0
1.577465 0.285714 0
[...]
POINT_DATA 5964 

VECTORS velocity float
1.000000 0.000000 0
0.999854 0.000000 0
0.999556 0.000000 0
0.999097 0.000000 0
0.998458 0.000000 0
0.997615 0.000000 0
0.996532 0.000000 0
0.995162 0.000000 0
0.993440 0.000000 0
0.991276 0.000000 0
0.988544 0.000000 0
0.985063 0.000000 0
0.980563 0.000000 0
0.974616 0.000000 0
0.966519 0.000000 0
0.954936 0.000000 0
0.937387 0.000000 0
0.905764 0.000000 0
0.847698 0.000000 0
-0.000000 0.000000 0
-0.000000 0.000000 0
-0.000000 0.000000 0
-0.000000 0.000000 0
-0.000000 0.000000 0
-0.000000 0.000000 0
-0.000000 0.000000 0
-0.000000 0.000000 0
-0.000000 0.000000 0
-0.000000 0.000000 0
-0.000000 0.000000 0
-0.000000 0.000000 0
-0.000000 0.000000 0
-0.000000 0.000000 0
-0.000000 0.000000 0
-0.000000 0.000000 0
-0.000000 0.000000 0
-0.000000 0.000000 0
-0.000000 0.000000 0
-0.000000 0.000000 0
-0.000000 0.000000 0
-0.000000 0.000000 0
-0.000000 0.000000 0
-0.000000 0.000000 0
-0.000000 0.000000 0
-0.000000 0.000000 0
-0.000000 0.000000 0
-0.000000 0.000000 0
-0.000000 0.000000 0
-0.000000 0.000000 0
-0.000000 0.000000 0
-0.000000 0.000000 0
-0.000000 0.000000 0
-0.000000 0.000000 0
-0.000000 0.000000 0
-0.000000 0.000000 0
-0.000000 0.000000 0
-0.000000 0.000000 0
-0.000000 0.000000 0
-0.000000 0.000000 0
-0.000000 0.000000 0
-0.000000 0.000000 0
-0.000000 0.000000 0
-0.000000 0.000000 0
-0.000000 0.000000 0
-0.000000 0.000000 0
-0.000000 0.000000 0
-0.000000 0.000000 0
-0.000000 0.000000 0
-0.000000 0.000000 0
-0.000000 0.000000 0
-0.000000 0.000000 0
-0.000000 0.000000 0
-0.000000 0.000000 0
-0.000000 0.000000 0
-0.000000 0.000000 0
-0.000000 0.000000 0
-0.000001 0.000000 0
-0.000001 0.000000 0
-0.000001 0.000000 0
-0.000001 0.000000 0
-0.000001 0.000000 0
-0.000001 0.000000 0
-0.000001 0.000000 0
-0.000001 0.000000 0
-0.000001 0.000000 0
-0.000001 0.000000 0
-0.000001 0.000000 0
-0.000001 0.000000 0
-0.000001 0.000000 0
-0.000001 0.000000 0
-0.000001 0.000000 0
-0.000001 0.000000 0
-0.000001 0.000000 0
-0.000001 0.000000 0
-0.000001 0.000000 0
-0.000001 0.000000 0
-0.000001 0.000000 0
-0.000001 0.000000 0
-0.000002 0.000000 0
-0.000002 0.000000 0
-0.000002 0.000000 0
-0.000002 0.000000 0
-0.000002 0.000000 0
-0.000002 0.000000 0
-0.000001 0.000000 0
-0.000001 0.000000 0
-0.000001 0.000000 0
-0.000001 0.000000 0
-0.000001 0.000000 0
-0.000001 0.000000 0
-0.000001 0.000000 0
-0.000001 0.000000 0
-0.000001 0.000000 0
-0.000001 0.000000 0
-0.000001 0.000000 0
-0.000001 0.000000 0
-0.000001 0.000000 0
-0.000001 0.000000 0
-0.000001 0.000000 0
-0.000001 0.000000 0
-0.000001 0.000000 0
-0.000001 0.000000 0
-0.000001 0.000000 0
-0.000001 0.000000 0
-0.000001 0.000000 0
-0.000001 0.000000 0
-0.000001 0.000000 0
-0.000001 0.000000 0
-0.000001 0.000000 0
-0.000001 0.000000 0
-0.000001 0.000000 0
-0.000001 0.000000 0
-0.000001 0.000000 0
-0.000001 0.000000 0
-0.000001 0.000000 0
-0.000001 0.000000 0
-0.000000 0.000000 0
-0.000000 0.000000 0
0.000000 0.000000 0
0.000000 0.000000 0
-0.000000 0.000000 0
0.496641 0.000000 0
1.000000 0.000035 0
0.999854 0.000107 0
0.999558 0.000183 0
0.999101 0.000265 0
0.998465 0.000358 0
0.997626 0.000465 0
0.996549 0.000592 0
0.995187 0.000747 0
0.993475 0.000939 0
0.991326 0.001182 0
0.988615 0.001500 0
0.985166 0.001927 0
0.980715 0.002523 0
0.974852 0.003391 0
0.966905 0.004753 0
0.955644 0.007035 0
0.938829 0.011875 0
0.910185 0.021659 0
0.860880 0.078853 0
0.714893 0.110956 0
0.576511 0.072745 0
0.473025 0.041074 0
0.401075 0.022638 0
0.351173 0.013308 0
0.315512 0.008679 0
0.289008 0.006201 0
0.268571 0.004717 0
0.252313 0.003739 0
0.239049 0.003049 0
0.228005 0.002542 0
0.218653 0.002155 0
0.210623 0.001854 0
0.203646 0.001614 0
0.197522 0.001419 0
0.192100 0.001259 0
0.187262 0.001125 0
0.182916 0.001013 0
0.178987 0.000917 0
0.175415 0.000836 0
0.172152 0.000765 0
0.169157 0.000703 0
0.166397 0.000649 0
0.163844 0.000602 0
0.161472 0.000560 0
0.159263 0.000523 0
0.157199 0.000489 0
0.155265 0.000459 0
0.153448 0.000432 0
0.151738 0.000408 0
0.150123 0.000385 0
0.148597 0.000365 0
0.147151 0.000346 0
0.145778 0.000329 0
0.144475 0.000313 0
0.143234 0.000298 0
0.142053 0.000285 0
0.140926 0.000272 0
0.139851 0.000260 0
0.138824 0.000248 0
0.137843 0.000238 0
0.136905 0.000228 0
0.136009 0.000218 0
0.135151 0.000209 0
0.134331 0.000200 0
0.133547 0.000192 0
0.132798 0.000183 0
0.132083 0.000175 0
0.131400 0.000168 0
0.130749 0.000160 0
0.130130 0.000153 0
0.129542 0.000146 0
0.128984 0.000138 0
0.128457 0.000131 0
0.127961 0.000124 0
0.127495 0.000117 0
0.127060 0.000109 0
0.126657 0.000102 0
0.126285 0.000094 0
0.125945 0.000086 0
0.125637 0.000078 0
0.125363 0.000070 0
0.125121 0.000062 0
0.124913 0.000053 0
0.124737 0.000045 0
0.124593 0.000037 0
0.124481 0.000029 0
0.124398 0.000021 0
0.124345 0.000013 0
0.124319 0.000006 0
0.124318 -0.000000 0
0.124338 -0.000006 0
0.124377 -0.000011 0
0.124434 -0.000016 0
0.124505 -0.000020 0
0.124590 -0.000024 0
0.124686 -0.000027 0
0.124793 -0.000030 0
0.124910 -0.000033 0
0.125037 -0.000036 0
0.125175 -0.000039 0
0.125322 -0.000043 0
0.125482 -0.000046 0
0.125655 -0.000050 0
0.125844 -0.000055 0
0.126051 -0.000061 0
0.126279 -0.000068 0
0.126532 -0.000075 0
0.126815 -0.000084 0
0.127132 -0.000095 0
0.127490 -0.000107 0
0.127896 -0.000122 0
0.128357 -0.000139 0
0.128882 -0.000158 0
0.129482 -0.000181 0
0.130169 -0.000208 0
0.130958 -0.000239 0
0.131864 -0.000275 0
0.132907 -0.000317 0
0.134109 -0.000366 0
0.135498 -0.000424 0
0.137105 -0.000492 0
0.138968 -0.000573 0
0.141134 -0.000668 0
0.143660 -0.000782 0
0.146612 -0.000919 0
0.150079 -0.001086 0
0.154168 -0.001290 0
0.159016 -0.001543 0
0.164803 -0.001861 0
0.171766 -0.002268 0
0.180223 -0.002799 0
0.190618 -0.003508 0
0.203581 -0.004484 0
0.220045 -0.005879 0
0.241446 -0.007969 0
0.270107 -0.011307 0
0.310064 -0.017063 0
0.368633 -0.028682 0
0.462617 -0.051097 0
0.617831 -0.167213 0
0.993595 -0.268850 0
0.993595 -0.134425 0
1.000000 0.000070 0
0.999856 0.000213 0
0.999564 0.000364 0
0.999113 0.000528 0
0.998486 0.000712 0
0.997659 0.000926 0
0.996599 0.001178 0
0.995260 0.001485 0
0.993579 0.001865 0
0.991473 0.002347 0
0.988826 0.002975 0
0.985470 0.003816 0
0.981164 0.004982 0
0.975543 0.006670 0
0.968027 0.009277 0
0.957651 0.013561 0
0.942788 0.021957 0
0.920699 0.037649 0
0.888376 0.094325 0
0.891006 0.137348 0
0.842157 0.116821 0
0.771629 0.084734 0
0.701236 0.058854 0
0.639936 0.041327 0
0.589277 0.030025 0
0.547946 0.022672 0
0.514067 0.017724 0
0.485984 0.014259 0
0.462407 0.011741 0
0.442364 0.009851 0
0.425132 0.008395 0
0.410162 0.007248 0
0.397037 0.006327 0
0.385435 0.005576 0
0.375102 0.004955 0
0.365839 0.004436 0
0.357485 0.003997 0
0.349910 0.003623 0
0.343006 0.003301 0
0.336685 0.003022 0
0.330874 0.002780 0
0.325511 0.002567 0
0.320544 0.002379 0
0.315927 0.002212 0
0.311623 0.002064 0
0.307600 0.001931 0
0.303829 0.001812 0
0.300286 0.001704 0
0.296949 0.001606 0
0.293801 0.001517 0
0.290824 0.001436 0
0.288005 0.001361 0
0.285332 0.001292 0
0.282792 0.001229 0
0.280377 0.001170 0
0.278077 0.001115 0
0.275886 0.001063 0
0.273796 0.001015 0
0.271801 0.000970 0
0.269897 0.000927 0
0.268078 0.000886 0
0.266341 0.000847 0
0.264682 0.000810 0
0.263097 0.000775 0
0.261583 0.000740 0
0.260139 0.000707 0
0.258763 0.000675 0
0.257452 0.000644 0
0.256205 0.000613 0
0.255020 0.000583 0
0.253898 0.000553 0
0.252838 0.000524 0
0.251838 0.000494 0
0.250900 0.000465 0
0.250023 0.000435 0
0.249208 0.000405 0
0.248454 0.000375 0
0.247763 0.000344 0
0.247135 0.000313 0
0.246570 0.000281 0
0.246068 0.000249 0
0.245629 0.000217 0
0.245253 0.000186 0
0.244938 0.000154 0
0.244682 0.000124 0
0.244484 0.000094 0
0.244341 0.000065 0
0.244250 0.000038 0
0.244207 0.000013 0
0.244209 -0.000009 0
0.244250 -0.000029 0
0.244323 -0.000046 0
0.244426 -0.000062 0
0.244554 -0.000075 0
0.244705 -0.000087 0
0.244875 -0.000098 0
0.245064 -0.000108 0
0.245268 -0.000118 0
0.245489 -0.000128 0
0.245726 -0.000138 0
0.245981 -0.000149 0
0.246255 -0.000161 0
0.246552 -0.000175 0
0.246874 -0.000191 0
0.247226 -0.000210 0
0.247614 -0.000233 0
0.248044 -0.000259 0
0.248524 -0.000290 0
0.249061 -0.000326 0
0.249667 -0.000369 0
0.250353 -0.000418 0
0.251132 -0.000476 0
0.252018 -0.000544 0
0.253031 -0.000622 0
0.254189 -0.000713 0
0.255517 -0.000818 0
0.257041 -0.000941 0
0.258793 -0.001084 0
0.260811 -0.001251 0
0.263138 -0.001447 0
0.265826 -0.001676 0
0.268937 -0.001946 0
0.272545 -0.002266 0
0.276739 -0.002646 0
0.281628 -0.003101 0
0.287345 -0.003649 0
0.294057 -0.004317 0
0.301974 -0.005137 0
0.311362 -0.006158 0
0.322568 -0.007448 0
0.336051 -0.009105 0
0.352428 -0.011282 0
0.372555 -0.014213 0
0.397644 -0.018289 0
0.429470 -0.024180 0
0.470716 -0.033142 0
0.525613 -0.047587 0
0.600801 -0.073682 0
0.707621 -0.120361 0
0.860742 -0.256459 0
0.994318 -0.362984 0
0.994318 -0.181492 0
1.000000 0.000105 0
0.999859 0.000318 0
0.999574 0.000542 0
0.999133 0.000786 0
0.998521 0.001060 0
0.997714 0.001377 0
0.996681 0.001751 0
0.995379 0.002205 0
0.993750 0.002767 0
0.991716 0.003478 0
0.989169 0.004400 0
0.985963 0.005628 0
0.981889 0.007318 0
0.976644 0.009737 0
0.969785 0.013394 0
0.960676 0.019226 0
0.948434 0.029723 0
0.933033 0.047940 0
0.915091 0.093195 0
0.945337 0.133279 0
0.948634 0.130403 0
0.922950 0.109138 0
0.881995 0.086245 0
0.836607 0.067384 0
0.792561 0.053109 0
0.752233 0.042527 0
0.716254 0.034644 0
0.684493 0.028690 0
0.656530 0.024117 0
0.631880 0.020545 0
0.610079 0.017709 0
0.590712 0.015424 0
0.573426 0.013557 0
0.557922 0.012013 0
0.543949 0.010723 0
0.531299 0.009634 0
0.519795 0.008707 0
0.509290 0.007911 0
0.499660 0.007223 0
0.490799 0.006624 0
0.482617 0.006100 0
0.475038 0.005639 0
0.467995 0.005231 0
0.461432 0.004868 0
0.455300 0.004544 0
0.449556 0.004254 0
0.444163 0.003992 0
0.439088 0.003755 0
0.434304 0.003540 0
0.429784 0.003344 0
0.425507 0.003164 0
0.421453 0.002999 0
0.417606 0.002847 0
0.413950 0.002706 0
0.410472 0.002576 0
0.407159 0.002454 0
0.404002 0.002340 0
0.400991 0.002232 0
0.398117 0.002131 0
0.395373 0.002036 0
0.392752 0.001945 0
0.390250 0.001859 0
0.387860 0.001776 0
0.385578 0.001696 0
0.383401 0.001620 0
0.381324 0.001546 0
0.379345 0.001474 0
0.377463 0.001403 0
0.375673 0.001335 0
0.373976 0.001267 0
0.372369 0.001200 0
0.370853 0.001133 0
0.369426 0.001067 0
0.368088 0.001001 0
0.366839 0.000934 0
0.365680 0.000867 0
0.364610 0.000799 0
0.363630 0.000731 0
0.362740 0.000663 0
0.361940 0.000594 0
0.361230 0.000524 0
0.360608 0.000456 0
0.360073 0.000388 0
0.359624 0.000321 0
0.359257 0.000256 0
0.358970 0.000193 0
0.358757 0.000134 0
0.358615 0.000078 0
0.358539 0.000026 0
0.358524 -0.000021 0
0.358562 -0.000061 0
0.358646 -0.000096 0
0.358770 -0.000127 0
0.358929 -0.000155 0
0.359117 -0.000179 0
0.359333 -0.000200 0
0.359572 -0.000220 0
0.359832 -0.000239 0
0.360114 -0.000257 0
0.360417 -0.000277 0
0.360741 -0.000298 0
0.361091 -0.000322 0
0.361468 -0.000349 0
0.361877 -0.000381 0
0.362323 -0.000418 0
0.362814 -0.000463 0
0.363356 -0.000515 0
0.363960 -0.000576 0
0.364637 -0.000647 0
0.365398 -0.000731 0
0.366258 -0.000829 0
0.367233 -0.000943 0
0.368342 -0.001076 0
0.369607 -0.001230 0
0.371053 -0.001409 0
0.372708 -0.001616 0
0.374605 -0.001857 0
0.376784 -0.002138 0
0.379290 -0.002465 0
0.382174 -0.002847 0
0.385500 -0.003293 0
0.389341 -0.003818 0
0.393785 -0.004436 0
0.398935 -0.005169 0
0.404918 -0.006042 0
0.411888 -0.007089 0
0.420032 -0.008356 0
0.429584 -0.009901 0
0.440836 -0.011808 0
0.454160 -0.014193 0
0.470035 -0.017221 0
0.489089 -0.021139 0
0.512158 -0.026323 0
0.540378 -0.033368 0
0.575311 -0.043262 0
0.619132 -0.057743 0
0.674858 -0.079893 0
0.746333 -0.116590 0
0.836935 -0.176647 0
0.946019 -0.305685 0
0.995136 -0.397882 0
0.995136 -0.198941 0
1.000000 0.000138 0
0.999864 0.000419 0
0.999587 0.000715 0
0.999160 0.001037 0
0.998568 0.001398 0
0.997790 0.001814 0
0.996795 0.002306 0
0.995543 0.002901 0
0.993984 0.003634 0
0.992045 0.004560 0
0.989635 0.005753 0
0.986628 0.007332 0
0.982856 0.009483 0
0.978091 0.012516 0
0.972039 0.016990 0
0.964385 0.023873 0
0.954909 0.035308 0
0.945023 0.053753 0
0.937273 0.088382 0
0.965713 0.121147 0
0.987892 0.127633 0
0.990081 0.116921 0
0.975779 0.100556 0
0.951753 0.084523 0
0.923239 0.070777 0
0.893454 0.059528 0
0.864181 0.050442 0
0.836330 0.043105 0
0.810312 0.037152 0
0.786256 0.032287 0
0.764137 0.028280 0
0.743853 0.024951 0
0.725265 0.022165 0
0.708223 0.019813 0
0.692577 0.017814 0
0.678189 0.016102 0
0.664928 0.014627 0
0.652679 0.013348 0
0.641338 0.012232 0
0.630813 0.011254 0
0.621022 0.010392 0
0.611892 0.009629 0
0.603360 0.008950 0
0.595368 0.008344 0
0.587868 0.007800 0
0.580815 0.007310 0
0.574169 0.006868 0
0.567895 0.006466 0
0.561964 0.006100 0
0.556348 0.005766 0
0.551021 0.005459 0
0.545963 0.005177 0
0.541153 0.004916 0
0.536576 0.004675 0
0.532214 0.004450 0
0.528056 0.004240 0
0.524087 0.004043 0
0.520298 0.003858 0
0.516678 0.003683 0
0.513219 0.003518 0
0.509913 0.003361 0
0.506754 0.003210 0
0.503735 0.003067 0
0.500852 0.002928 0
0.498099 0.002795 0
0.495472 0.002666 0
0.492969 0.002540 0
0.490586 0.002418 0
0.488320 0.002297 0
0.486171 0.002179 0
0.484137 0.002062 0
0.482215 0.001946 0
0.480407 0.001830 0
0.478711 0.001714 0
0.477127 0.001598 0
0.475655 0.001482 0
0.474295 0.001365 0
0.473047 0.001247 0
0.471911 0.001129 0
0.470887 0.001011 0
0.469973 0.000893 0
0.469168 0.000776 0
0.468470 0.000661 0
0.467876 0.000549 0
0.467384 0.000440 0
0.466987 0.000335 0
0.466682 0.000237 0
0.466462 0.000144 0
0.466322 0.000058 0
0.466255 -0.000020 0
0.466256 -0.000088 0
0.466316 -0.000147 0
0.466427 -0.000198 0
0.466582 -0.000243 0
0.466776 -0.000282 0
0.467003 -0.000318 0
0.467260 -0.000350 0
0.467545 -0.000380 0
0.467855 -0.000410 0
0.468191 -0.000441 0
0.468553 -0.000474 0
0.468943 -0.000511 0
0.469364 -0.000554 0
0.469821 -0.000604 0
0.470320 -0.000663 0
0.470868 -0.000732 0
0.471473 -0.000813 0
0.472145 -0.000908 0
0.472896 -0.001021 0
0.473739 -0.001152 0
0.474691 -0.001305 0
0.475768 -0.001483 0
0.476991 -0.001690 0
0.478384 -0.001931 0
0.479974 -0.002210 0
0.481791 -0.002534 0
0.483872 -0.002910 0
0.486258 -0.003347 0
0.488997 -0.003855 0
0.492145 -0.004447 0
0.495769 -0.005138 0
0.499944 -0.005948 0
0.504763 -0.006899 0
0.510332 -0.008023 0
0.516781 -0.009357 0
0.524265 -0.010949 0
0.532969 -0.012864 0
0.543124 -0.015185 0
0.555010 -0.018028 0
0.568976 -0.021550 0
0.585462 -0.025976 0
0.605023 -0.031627 0
0.628370 -0.038986 0
0.656419 -0.048791 0
0.690336 -0.062217 0
0.731575 -0.081222 0
0.781777 -0.109025 0
0.842245 -0.151964 0
0.911318 -0.216808 0
0.981321 -0.332869 0
0.995918 -0.410429 0
0.995918 -0.205214 0
1.000000 0.000170 0
0.999869 0.000517 0
0.999604 0.000882 0
0.999195 0.001278 0
0.998628 0.001722 0
0.997884 0.002233 0
0.996936 0.002836 0
0.995749 0.003563 0
0.994275 0.004457 0
0.992454 0.005579 0
0.990210 0.007016 0
0.987442 0.008902 0
0.984024 0.011441 0
0.979807 0.014961 0
0.974639 0.020014 0
0.968471 0.027499 0
0.961563 0.039074 0
0.955835 0.056459 0
0.954481 0.083201 0
0.976677 0.108831 0
1.001718 0.118633 0
1.016368 0.114989 0
1.018688 0.104757 0
1.011406 0.092760 0
0.997816 0.081267 0
0.980498 0.071051 0
0.961228 0.062235 0
0.941176 0.054709 0
0.921092 0.048303 0
0.901447 0.042847 0
0.882523 0.038189 0
0.864478 0.034198 0
0.847385 0.030766 0
0.831265 0.027801 0
0.816102 0.025229 0
0.801861 0.022989 0
0.788496 0.021028 0
0.775952 0.019304 0
0.764176 0.017784 0
0.753111 0.016437 0
0.742705 0.015239 0
0.732908 0.014170 0
0.723674 0.013212 0
0.714959 0.012351 0
0.706723 0.011574 0
0.698930 0.010870 0
0.691546 0.010232 0
0.684541 0.009650 0
0.677888 0.009117 0
0.671562 0.008629 0
0.665541 0.008180 0
0.659803 0.007765 0
0.654330 0.007381 0
0.649106 0.007024 0
0.644116 0.006691 0
0.639346 0.006379 0
0.634783 0.006087 0
0.630418 0.005811 0
0.626240 0.005550 0
0.622241 0.005303 0
0.618412 0.005068 0
0.614747 0.004843 0
0.611239 0.004627 0
0.607884 0.004419 0
0.604676 0.004218 0
0.601611 0.004023 0
0.598687 0.003834 0
0.595899 0.003649 0
0.593245 0.003467 0
0.590725 0.003288 0
0.588335 0.003110 0
0.586075 0.002935 0
0.583944 0.002760 0
0.581942 0.002585 0
0.580068 0.002410 0
0.578322 0.002235 0
0.576703 0.002059 0
0.575213 0.001883 0
0.573849 0.001706 0
0.572612 0.001530 0
0.571500 0.001355 0
0.570511 0.001181 0
0.569643 0.001011 0
0.568893 0.000846 0
0.568256 0.000685 0
0.567729 0.000532 0
0.567306 0.000387 0
0.566979 0.000252 0
0.566742 0.000126 0
0.566589 0.000011 0
0.566514 -0.000091 0
0.566511 -0.000179 0
0.566571 -0.000256 0
0.566685 -0.000323 0
0.566847 -0.000382 0
0.567051 -0.000434 0
0.567293 -0.000482 0
0.567568 -0.000526 0
0.567875 -0.000569 0
0.568213 -0.000614 0
0.568581 -0.000661 0
0.568981 -0.000714 0
0.569415 -0.000774 0
0.569888 -0.000843 0
0.570406 -0.000924 0
0.570974 -0.001019 0
0.571601 -0.001131 0
0.572298 -0.001263 0
0.573075 -0.001417 0
0.573946 -0.001598 0
0.574927 -0.001809 0
0.576036 -0.002054 0
0.577293 -0.002339 0
0.578723 -0.002670 0
0.580351 -0.003054 0
0.582210 -0.003499 0
0.584335 -0.004015 0
0.586768 -0.004613 0
0.589556 -0.005309 0
0.592756 -0.006117 0
0.596432 -0.007060 0
0.600658 -0.008162 0
0.605524 -0.009453 0
0.611134 -0.010974 0
0.617608 -0.012771 0
0.625094 -0.014908 0
0.633765 -0.017465 0
0.643828 -0.020546 0
0.655535 -0.024295 0
0.669190 -0.028901 0
0.685166 -0.034631 0
0.703915 -0.041864 0
0.725988 -0.051147 0
0.752046 -0.063297 0
0.782846 -0.079562 0
0.819164 -0.101909 0
0.861512 -0.133346 0
0.909412 -0.179158 0
0.958795 -0.243819 0
1.000485 -0.346546 0
0.996629 -0.411981 0
0.996629 -0.205990 0
1.000000 0.000201 0
0.999876 0.000611 0
0.999624 0.001041 0
0.999236 0.001508 0
0.998699 0.002031 0
0.997997 0.002631 0
0.997104 0.003338 0
0.995991 0.004186 0
0.994617 0.005226 0
0.992933 0.006523 0
0.990877 0.008175 0
0.988377 0.010320 0
0.985349 0.013170 0
0.981716 0.017049 0
0.977448 0.022465 0
0.972687 0.030189 0
0.967985 0.041411 0
0.965258 0.057174 0
0.967538 0.078315 0
0.984755 0.098332 0
1.007169 0.108463 0
1.025325 0.108724 0
1.035743 0.102953 0
1.038744 0.094604 0
1.035911 0.085706 0
1.028870 0.077199 0
1.018936 0.069434 0
1.007099 0.062491 0
0.994086 0.056341 0
0.980427 0.050915 0
0.966504 0.046135 0
0.952593 0.041923 0
0.938884 0.038207 0
0.925508 0.034923 0
0.912551 0.032016 0
0.900065 0.029436 0
0.888079 0.027141 0
0.876602 0.025094 0
0.865634 0.023265 0
0.855165 0.021624 0
0.845180 0.020150 0
0.835660 0.018821 0
0.826582 0.017620 0
0.817927 0.016531 0
0.809671 0.015542 0
0.801792 0.014641 0
0.794270 0.013817 0
0.787084 0.013062 0
0.780215 0.012369 0
0.773645 0.011730 0
0.767358 0.011139 0
0.761336 0.010592 0
0.755567 0.010083 0
0.750037 0.009608 0
0.744733 0.009164 0
0.739644 0.008747 0
0.734761 0.008355 0
0.730073 0.007984 0
0.725573 0.007633 0
0.721253 0.007299 0
0.717106 0.006980 0
0.713126 0.006675 0
0.709308 0.006381 0
0.705646 0.006099 0
0.702137 0.005825 0
0.698778 0.005559 0
0.695565 0.005299 0
0.692495 0.005046 0
0.689567 0.004796 0
0.686779 0.004551 0
0.684129 0.004308 0
0.681617 0.004066 0
0.679242 0.003826 0
0.677003 0.003586 0
0.674900 0.003347 0
0.672934 0.003107 0
0.671103 0.002866 0
0.669407 0.002626 0
0.667846 0.002385 0
0.666420 0.002145 0
0.665125 0.001908 0
0.663962 0.001673 0
0.662926 0.001442 0
0.662016 0.001218 0
0.661228 0.001002 0
0.660555 0.000795 0
0.659994 0.000599 0
0.659538 0.000416 0
0.659180 0.000246 0
0.658912 0.000090 0
0.658728 -0.000050 0
0.658627 -0.000174 0
0.658599 -0.000282 0
0.658636 -0.000376 0
0.658731 -0.000459 0
0.658877 -0.000533 0
0.659069 -0.000599 0
0.659302 -0.000661 0
0.659575 -0.000721 0
0.659883 -0.000782 0
0.660228 -0.000845 0
0.660609 -0.000915 0
0.661028 -0.000993 0
0.661489 -0.001083 0
0.661996 -0.001187 0
0.662554 -0.001309 0
0.663173 -0.001452 0
0.663860 -0.001620 0
0.664626 -0.001817 0
0.665485 -0.002046 0
0.666451 -0.002314 0
0.667541 -0.002626 0
0.668775 -0.002988 0
0.670175 -0.003408 0
0.671768 -0.003895 0
0.673584 -0.004458 0
0.675656 -0.005112 0
0.678024 -0.005869 0
0.680734 -0.006747 0
0.683839 -0.007767 0
0.687398 -0.008955 0
0.691482 -0.010339 0
0.696173 -0.011959 0
0.701567 -0.013860 0
0.707773 -0.016100 0