# vtk DataFile Version 2.0
generated by CFD-lab course output (written by Tobias Neckel) 
ASCII

DATASET STRUCTURED_GRID
DIMENSIONS  142 42 1 
POINTS 5964 float

0.000000 0.250000 0
0.024648 0.250000 0
0.049296 0.250000 0
0.073944 0.250000 0
0.098592 0.250000 0
0.123239 0.250000 0
0.147887 0.250000 0
0.172535 0.250000 0
0.197183 0.250000 0
0.221831 0.250000 0
0.246479 0.250000 0
0.271127 0.250000 0
0.295775 0.250000 0
0.320423 0.250000 0
0.345070 0.250000 0
0.369718 0.250000 0
0.394366 0.250000 0
0.419014 0.250000 0
0.443662 0.250000 0
0.468310 0.250000 0
0.492958 0.250000 0
0.517606 0.250000 0
0.542254 0.250000 0
0.566901 0.250000 0
0.591549 0.250000 0
0.616197 0.250000 0
0.640845 0.250000 0
0.665493 0.250000 0
0.690141 0.250000 0
0.714789 0.250000 0
0.739437 0.250000 0
0.764085 0.250000 0
0.788732 0.250000 0
0.813380 0.250000 0
0.838028 0.250000 0
0.862676 0.250000 0
0.887324 0.250000 0
0.911972 0.250000 0
0.936620 0.250000 0
0.961268 0.250000 0
0.985915 0.250000 0
1.010563 0.250000 0
1.035211 0.250000 0
1.059859 0.250000 0
1.084507 0.250000 0
1.109155 0.250000 0
1.133803 0.250000 0
1.158451 0.250000 0
1.183099 0.250000 0
1.207746 0.250000 0
1.232394 0.250000 0
1.257042 0.250000 0
1.281690 0.250000 0
1.306338 0.250000 0
1.330986 0.250000 0
1.355634 0.250000 0
1.380282 0.250000 0
1.404930 0.250000 0
1.429577 0.250000 0
1.454225 0.250000 0
1.478873 0.250000 0
1.503521 0.250000 0
1.528169 0.250000 0
1.552817 0.250000 0
1.577465 0.250000 0
1.602113 0.250000 0
1.626761 0.250000 0
1.651408 0.250000 0
1.676056 0.250000 0
1.700704 0.250000 0
1.725352 0.250000 0
1.750000 0.250000 0
1.774648 0.250000 0
1.799296 0.250000 0
1.823944 0.250000 0
1.848592 0.250000 0
1.873239 0.250000 0
1.897887 0.250000 0
1.922535 0.250000 0
1.947183 0.250000 0
1.971831 0.250000 0
1.996479 0.250000 0
2.021127 0.250000 0
2.045775 0.250000 0
2.070423 0.250000 0
2.095070 0.250000 0
2.119718 0.250000 0
2.144366 0.250000 0
2.169014 0.250000 0
2.193662 0.250000 0
2.218310 0.250000 0
2.242958 0.250000 0
2.267606 0.250000 0
2.292254 0.250000 0
2.316901 0.250000 0
2.341549 0.250000 0
2.366197 0.250000 0
2.390845 0.250000 0
2.415493 0.250000 0
2.440141 0.250000 0
2.464789 0.250000 0
2.489437 0.250000 0
2.514085 0.250000 0
2.538732 0.250000 0
2.563380 0.250000 0
2.588028 0.250000 0
2.612676 0.250000 0
2.637324 0.250000 0
2.661972 0.250000 0
2.686620 0.250000 0
2.711268 0.250000 0
2.735915 0.250000 0
2.760563 0.250000 0
2.785211 0.250000 0
2.809859 0.250000 0
2.834507 0.250000 0
2.859155 0.250000 0
2.883803 0.250000 0
2.908451 0.250000 0
2.933099 0.250000 0
2.957746 0.250000 0
2.982394 0.250000 0
3.007042 0.250000 0
3.031690 0.250000 0
3.056338 0.250000 0
3.080986 0.250000 0
3.105634 0.250000 0
3.130282 0.250000 0
3.154930 0.250000 0
3.179577 0.250000 0
3.204225 0.250000 0
3.228873 0.250000 0
3.253521 0.250000 0
3.278169 0.250000 0
3.302817 0.250000 0
3.327465 0.250000 0
3.352113 0.250000 0
3.376761 0.250000 0
3.401408 0.250000 0
3.426056 0.250000 0
3.450704 0.250000 0
3.475352 0.250000 0
0.000000 0.261905 0
0.024648 0.261905 0
0.049296 0.261905 0
0.073944 0.261905 0
0.098592 0.261905 0
0.123239 0.261905 0
0.147887 0.261905 0
0.172535 0.261905 0
0.197183 0.261905 0
0.221831 0.261905 0
0.246479 0.261905 0
0.271127 0.261905 0
0.295775 0.261905 0
0.320423 0.261905 0
0.345070 0.261905 0
0.369718 0.261905 0
0.394366 0.261905 0
0.419014 0.261905 0
0.443662 0.261905 0
0.468310 0.261905 0
0.492958 0.261905 0
0.517606 0.261905 0
0.542254 0.261905 0
0.566901 0.261905 0
0.591549 0.261905 0
0.616197 0.261905 0
0.640845 0.261905 0
0.665493 0.261905 0
0.690141 0.261905 0
0.714789 0.261905 0
0.739437 0.261905 0
0.764085 0.261905 0
0.788732 0.261905 0
0.813380 0.261905 0
0.838028 0.261905 0
0.862676 0.261905 0
0.887324 0.261905 0
0.911972 0.261905 0
0.936620 0.261905 0
0.961268 0.261905 0
0.985915 0.261905 0
1.010563 0.261905 0
1.035211 0.261905 0
1.059859 0.261905 0
1.084507 0.261905 0
1.109155 0.261905 0
1.133803 0.261905 0
1.158451 0.261905 0
1.183099 0.261905 0
1.207746 0.261905 0
1.232394 0.261905 0
1.257042 0.261905 0
1.281690 0.261905 0
1.306338 0.261905 0
1.330986 0.261905 0
1.355634 0.261905 0
1.380282 0.261905 0
1.404930 0.261905 0
1.429577 0.261905 0
1.454225 0.261905 0
1.478873 0.261905 0
1.503521 0.261905 0
1.528169 0.261905 0
1.552817 0.261905 0
1.577465 0.261905 0
1.602113 0.261905 0
1.626761 0.261905 0
1.651408 0.261905 0
1.676056 0.261905 0
1.700704 0.261905 0
1.725352 0.261905 0
1.750000 0.261905 0
1.774648 0.261905 0
1.799296 0.261905 0
1.823944 0.261905 0
1.848592 0.261905 0
1.873239 0.261905 0
1.897887 0.261905 0
1.922535 0.261905 0
1.947183 0.261905 0
1.971831 0.261905 0
1.996479 0.261905 0
2.021127 0.261905 0
2.045775 0.261905 0
2.070423 0.261905 0
2.095070 0.261905 0
2.119718 0.261905 0
2.144366 0.261905 0
2.169014 0.261905 0
2.193662 0.261905 0
2.218310 0.261905 0
2.242958 0.261905 0
2.267606 0.261905 0
2.292254 0.261905 0
2.316901 0.261905 0
2.341549 0.261905 0
2.366197 0.261905 0
2.390845 0.261905 0
2.415493 0.261905 0
2.440141 0.261905 0
2.464789 0.261905 0
2.489437 0.261905 0
2.514085 0.261905 0
2.538732 0.261905 0
2.563380 0.261905 0
2.588028 0.261905 0
2.612676 0.261905 0
2.637324 0.261905 0
2.661972 0.261905 0
2.686620 0.261905 0
2.711268 0.261905 0
2.735915 0.261905 0
2.760563 0.261905 0
2.785211 0.261905 0
2.809859 0.261905 0
2.834507 0.261905 0
2.859155 0.261905 0
2.883803 0.261905 0
2.908451 0.261905 0
2.933099 0.261905 0
2.957746 0.261905 0
2.982394 0.261905 0
3.007042 0.261905 0
3.031690 0.261905 0
3.056338 0.261905 0
3.080986 0.261905 0
3.105634 0.261905 0
3.130282 0.261905 0
3.154930 0.261905 0
3.179577 0.261905 0
3.204225 0.261905 0
3.228873 0.261905 0
3.253521 0.261905 0
3.278169 0.261905 0
3.302817 0.261905 0
3.327465 0.261905 0
3.352113 0.261905 0
3.376761 0.261905 0
3.401408 0.261905 0
3.426056 0.261905 0
3.450704 0.261905 0
3.475352 0.261905 0
0.000000 0.273810 0
0.024648 0.273810 0
0.049296 0.273810 0
0.073944 0.273810 0
0.098592 0.273810 0
0.123239 0.273810 0
0.147887 0.273810 0
0.172535 0.273810 0
0.197183 0.273810 0
0.221831 0.273810 0
0.246479 0.273810 0
0.271127 0.273810 0
0.295775 0.273810 0
0.320423 0.273810 0
0.345070 0.273810 0
0.369718 0.273810 0
0.394366 0.273810 0
0.419014 0.273810 0
0.443662 0.273810 0
0.468310 0.273810 0
0.492958 0.273810 0
0.517606 0.273810 0
0.542254 0.273810 0
0.566901 0.273810 0
0.591549 0.273810 0
0.616197 0.273810 0
0.640845 0.273810 0
0.665493 0.273810 0
0.690141 0.273810 0
0.714789 0.273810 0
0.739437 0.273810 0
0.764085 0.273810 0
0.788732 0.273810 0
0.813380 0.273810 0
0.838028 0.273810 0
0.862676 0.273810 0
0.887324 0.273810 0
0.911972 0.273810 0
0.936620 0.273810 0
0.961268 0.273810 0
0.985915 0.273810 0
1.010563 0.273810 0
1.035211 0.273810 0
1.059859 0.273810 0
1.084507 0.273810 0
1.109155 0.273810 0
1.133803 0.273810 0
1.158451 0.273810 0
1.183099 0.273810 0
1.207746 0.273810 0
1.232394 0.273810 0
1.257042 0.273810 0
1.281690 0.273810 0
1.306338 0.273810 0
1.330986 0.273810 0
1.355634 0.273810 0
1.380282 0.273810 0
1.404930 0.273810 0
1.429577 0.273810 0
1.454225 0.273810 0
1.478873 0.273810 0
1.503521 0.273810 0
1.528169 0.273810 0
1.552817 0.273810 0
1.577465 0.273810 0
1.602113 0.273810 0
1.626761 0.273810 0
1.651408 0.273810 0
1.676056 0.273810 0
1.700704 0.273810 0
1.725352 0.273810 0
1.750000 0.273810 0
1.774648 0.273810 0
1.799296 0.273810 0
1.823944 0.273810 0
1.848592 0.273810 0
1.873239 0.273810 0
1.897887 0.273810 0
1.922535 0.273810 0
1.947183 0.273810 0
1.971831 0.273810 0
1.996479 0.273810 0
2.021127 0.273810 0
2.045775 0.273810 0
2.070423 0.273810 0
2.095070 0.273810 0
2.119718 0.273810 0
2.144366 0.273810 0
2.169014 0.273810 0
2.193662 0.273810 0
2.218310 0.273810 0
2.242958 0.273810 0
2.267606 0.273810 0
2.292254 0.273810 0
2.316901 0.273810 0
2.341549 0.273810 0
2.366197 0.273810 0
2.390845 0.273810 0
2.415493 0.273810 0
2.440141 0.273810 0
2.464789 0.273810 0
2.489437 0.273810 0
2.514085 0.273810 0
2.538732 0.273810 0
2.563380 0.273810 0
2.588028 0.273810 0
2.612676 0.273810 0
2.637324 0.273810 0
2.661972 0.273810 0
2.686620 0.273810 0
2.711268 0.273810 0
2.735915 0.273810 0
2.760563 0.273810 0
2.785211 0.273810 0
2.809859 0.273810 0
2.834507 0.273810 0
2.859155 0.273810 0
2.883803 0.273810 0
2.908451 0.273810 0
2.933099 0.273810 0
2.957746 0.273810 0
2.982394 0.273810 0
3.007042 0.273810 0
3.031690 0.273810 0
3.056338 0.273810 0
3.080986 0.273810 0
3.105634 0.273810 0
3.130282 0.273810 0
3.154930 0.273810 0
3.179577 0.273810 0
3.204225 0.273810 0
3.228873 0.273810 0
3.253521 0.273810 0
3.278169 0.273810 0
3.302817 0.273810 0
3.327465 0.273810 0
3.352113 0.273810 0
3.376761 0.273810 0
3.401408 0.273810 0
3.426056 0.273810 0
3.450704 0.273810 0
3.475352 0.273810 0
0.000000 0.285714 0
0.024648 0.285714 0
0.049296 0.285714 0
0.073944 0.285714 0
0.098592 0.285714 0
0.123239 0.285714 0
0.147887 0.285714 0
0.172535 0.285714 0
0.197183 0.285714 0
0.221831 0.285714 0
0.246479 0.285714 0
0.271127 0.285714 0
0.295775 0.285714 0
0.320423 0.285714 0
0.345070 0.285714 0
0.369718 0.285714 0
0.394366 0.285714 0
0.419014 0.285714 0
0.443662 0.285714 0
0.468310 0.285714 0
0.492958 0.285714 0
0.517606 0.285714 0
0.542254 0.285714 0
0.566901 0.285714 0
0.591549 0.285714 0
0.616197 0.285714 0
0.640845 0.285714 0
0.665493 0.285714 0
0.690141 0.285714 0
0.714789 0.285714 0
0.739437 0.285714 0
0.764085 0.285714 0
0.788732 0.285714 0
0.813380 0.285714 0
0.838028 0.285714 0
0.862676 0.285714 0
0.887324 0.285714 0
0.911972 0.285714 0
0.936620 0.285714 0
0.961268 0.285714 0
0.985915 0.285714 0
1.010563 0.285714 0
1.035211 0.285714 0
1.059859 0.285714 0
1.084507 0.285714 0
1.109155 0.285714 0
1.133803 0.285714 0
1.158451 0.285714 0
1.183099 0.285714 0
1.207746 0.285714 0
1.232394 0.285714 0
1.257042 0.285714 0
1.281690 0.285714 0
1.306338 0.285714 0
1.330986 0.285714 0
1.355634 0.285714 0
1.380282 0.285714 0
1.404930 0.285714 0
1.429577 0.285714 0
1.454225 0.285714 0
1.478873 0.285714 0
1.503521 0.285714 0
1.528169 0.285714 0
1.552817 0.285714 0
1.577465 0.285714 0
[...]
POINT_DATA 5964 

VECTORS velocity float
1.000000 0.000000 0
0.999854 0.000000 0
0.999556 0.000000 0
0.999097 0.000000 0
0.998458 0.000000 0
0.997615 0.000000 0
0.996532 0.000000 0
0.995162 0.000000 0
0.993440 0.000000 0
0.991275 0.000000 0
0.988543 0.000000 0
0.985062 0.000000 0
0.980561 0.000000 0
0.974615 0.000000 0
0.966517 0.000000 0
0.954934 0.000000 0
0.937384 0.000000 0
0.905760 0.000000 0
0.847693 0.000000 0
-0.000000 0.000000 0
-0.000000 0.000000 0
-0.000000 0.000000 0
-0.000000 0.000000 0
-0.000000 0.000000 0
-0.000000 0.000000 0
-0.000000 0.000000 0
-0.000000 0.000000 0
-0.000000 0.000000 0
-0.000000 0.000000 0
-0.000000 0.000000 0
-0.000000 0.000000 0
-0.000000 0.000000 0
-0.000000 0.000000 0
-0.000000 0.000000 0
-0.000000 0.000000 0
-0.000000 0.000000 0
-0.000000 0.000000 0
-0.000000 0.000000 0
-0.000000 0.000000 0
-0.000000 0.000000 0
-0.000000 0.000000 0
-0.000000 0.000000 0
-0.000000 0.000000 0
-0.000000 0.000000 0
-0.000000 0.000000 0
-0.000000 0.000000 0
-0.000000 0.000000 0
-0.000000 0.000000 0
-0.000000 0.000000 0
-0.000000 0.000000 0
-0.000000 0.000000 0
-0.000000 0.000000 0
-0.000000 0.000000 0
-0.000000 0.000000 0
-0.000000 0.000000 0
-0.000000 0.000000 0
-0.000000 0.000000 0
-0.000000 0.000000 0
-0.000000 0.000000 0
-0.000000 0.000000 0
-0.000000 0.000000 0
-0.000000 0.000000 0
-0.000000 0.000000 0
-0.000000 0.000000 0
-0.000000 0.000000 0
-0.000000 0.000000 0
-0.000000 0.000000 0
-0.000000 0.000000 0
-0.000000 0.000000 0
-0.000000 0.000000 0
-0.000000 0.000000 0
-0.000000 0.000000 0
-0.000000 0.000000 0
-0.000000 0.000000 0
-0.000000 0.000000 0
-0.000000 0.000000 0
-0.000000 0.000000 0
-0.000000 0.000000 0
-0.000000 0.000000 0
-0.000000 0.000000 0
-0.000000 0.000000 0
-0.000000 0.000000 0
-0.000000 0.000000 0
-0.000000 0.000000 0
-0.000000 0.000000 0
-0.000000 0.000000 0
-0.000000 0.000000 0
-0.000000 0.000000 0
-0.000000 0.000000 0
-0.000000 0.000000 0
-0.000000 0.000000 0
-0.000000 0.000000 0
-0.000000 0.000000 0
-0.000000 0.000000 0
-0.000000 0.000000 0
-0.000000 0.000000 0
-0.000000 0.000000 0
-0.000000 0.000000 0
-0.000000 0.000000 0
-0.000000 0.000000 0
-0.000000 0.000000 0
-0.000000 0.000000 0
-0.000000 0.000000 0
-0.000000 0.000000 0
-0.000000 0.000000 0
-0.000000 0.000000 0
-0.000000 0.000000 0
-0.000000 0.000000 0
-0.000001 0.000000 0
-0.000001 0.000000 0
-0.000001 0.000000 0
-0.000001 0.000000 0
-0.000001 0.000000 0
-0.000001 0.000000 0
-0.000001 0.000000 0
-0.000001 0.000000 0
-0.000001 0.000000 0
-0.000001 0.000000 0
-0.000001 0.000000 0
-0.000001 0.000000 0
-0.000001 0.000000 0
-0.000001 0.000000 0
-0.000001 0.000000 0
-0.000001 0.000000 0
-0.000001 0.000000 0
-0.000001 0.000000 0
-0.000001 0.000000 0
-0.000001 0.000000 0
-0.000001 0.000000 0
-0.000001 0.000000 0
-0.000001 0.000000 0
-0.000001 0.000000 0
-0.000001 0.000000 0
-0.000001 0.000000 0
-0.000001 0.000000 0
-0.000000 0.000000 0
-0.000000 0.000000 0
-0.000000 0.000000 0
0.000000 0.000000 0
0.000000 0.000000 0
-0.000000 0.000000 0
0.496513 0.000000 0
1.000000 0.000035 0
0.999854 0.000107 0
0.999558 0.000183 0
0.999101 0.000265 0
0.998465 0.000358 0
0.997626 0.000465 0
0.996549 0.000592 0
0.995186 0.000747 0
0.993475 0.000939 0
0.991325 0.001182 0
0.988614 0.001500 0
0.985165 0.001928 0
0.980714 0.002523 0
0.974850 0.003392 0
0.966903 0.004753 0
0.955641 0.007036 0
0.938825 0.011875 0
0.910181 0.021660 0
0.860875 0.078853 0
0.714887 0.110956 0
0.576505 0.072745 0
0.473018 0.041074 0
0.401067 0.022638 0
0.351164 0.013309 0
0.315501 0.008679 0
0.288996 0.006202 0
0.268556 0.004718 0
0.252296 0.003739 0
0.239030 0.003050 0
0.227982 0.002542 0
0.218627 0.002156 0
0.210593 0.001855 0
0.203612 0.001615 0
0.197484 0.001420 0
0.192057 0.001260 0
0.187213 0.001127 0
0.182860 0.001015 0
0.178924 0.000919 0
0.175345 0.000838 0
0.172073 0.000767 0
0.169069 0.000706 0
0.166298 0.000652 0
0.163733 0.000605 0
0.161348 0.000563 0
0.159125 0.000526 0
0.157046 0.000493 0
0.155094 0.000463 0
0.153259 0.000437 0
0.151527 0.000413 0
0.149890 0.000391 0
0.148339 0.000371 0
0.146866 0.000353 0
0.145465 0.000336 0
0.144129 0.000321 0
0.142854 0.000307 0
0.141634 0.000294 0
0.140467 0.000282 0
0.139347 0.000270 0
0.138272 0.000260 0
0.137239 0.000250 0
0.136245 0.000241 0
0.135287 0.000232 0
0.134363 0.000224 0
0.133473 0.000216 0
0.132612 0.000209 0
0.131781 0.000202 0
0.130977 0.000196 0
0.130199 0.000190 0
0.129446 0.000184 0
0.128717 0.000178 0
0.128011 0.000173 0
0.127326 0.000167 0
0.126663 0.000162 0
0.126019 0.000157 0
0.125396 0.000153 0
0.124791 0.000148 0
0.124204 0.000144 0
0.123635 0.000140 0
0.123084 0.000135 0
0.122549 0.000131 0
0.122031 0.000127 0
0.121530 0.000123 0
0.121044 0.000119 0
0.120575 0.000115 0
0.120122 0.000112 0
0.119684 0.000108 0
0.119262 0.000104 0
0.118857 0.000100 0
0.118467 0.000096 0
0.118094 0.000092 0
0.117738 0.000088 0
0.117398 0.000083 0
0.117077 0.000079 0
0.116773 0.000074 0
0.116489 0.000069 0
0.116225 0.000064 0
0.115982 0.000059 0
0.115761 0.000053 0
0.115564 0.000047 0
0.115392 0.000040 0
0.115247 0.000033 0
0.115132 0.000024 0
0.115049 0.000016 0
0.115001 0.000006 0
0.114993 -0.000005 0
0.115027 -0.000017 0
0.115107 -0.000029 0
0.115235 -0.000043 0
0.115418 -0.000059 0
0.115660 -0.000076 0
0.115968 -0.000095 0
0.116350 -0.000117 0
0.116813 -0.000141 0
0.117367 -0.000168 0
0.118024 -0.000199 0
0.118797 -0.000234 0
0.119703 -0.000273 0
0.120760 -0.000319 0
0.121990 -0.000372 0
0.123422 -0.000434 0
0.125086 -0.000506 0
0.127023 -0.000590 0
0.129280 -0.000690 0
0.131915 -0.000810 0
0.135000 -0.000953 0
0.138625 -0.001128 0
0.142904 -0.001341 0
0.147981 -0.001606 0
0.154043 -0.001939 0
0.161340 -0.002365 0
0.170206 -0.002920 0
0.181103 -0.003661 0
0.194687 -0.004680 0
0.211923 -0.006129 0
0.234282 -0.008290 0
0.264130 -0.011716 0
0.305534 -0.017571 0
0.365799 -0.029266 0
0.461601 -0.051634 0
0.618277 -0.166996 0
0.993336 -0.267953 0
0.993336 -0.133976 0
1.000000 0.000070 0
0.999856 0.000213 0
0.999564 0.000364 0
0.999113 0.000528 0
0.998486 0.000712 0
0.997659 0.000926 0
0.996599 0.001178 0
0.995259 0.001485 0
0.993579 0.001865 0
0.991473 0.002348 0
0.988825 0.002975 0
0.985469 0.003816 0
0.981163 0.004982 0
0.975541 0.006670 0
0.968025 0.009278 0
0.957649 0.013561 0
0.942785 0.021957 0
0.920695 0.037650 0
0.888371 0.094325 0
0.890999 0.137349 0
0.842150 0.116821 0
0.771619 0.084735 0
0.701223 0.058855 0
0.639921 0.041328 0
0.589259 0.030027 0
0.547926 0.022674 0
0.514043 0.017726 0
0.485956 0.014261 0
0.462373 0.011743 0
0.442326 0.009854 0
0.425087 0.008399 0
0.410111 0.007252 0
0.396978 0.006332 0
0.385367 0.005581 0
0.375025 0.004961 0
0.365751 0.004442 0
0.357385 0.004004 0
0.349796 0.003630 0
0.342877 0.003309 0
0.336540 0.003031 0
0.330710 0.002789 0
0.325326 0.002577 0
0.320336 0.002391 0
0.315694 0.002225 0
0.311362 0.002078 0
0.307308 0.001947 0
0.303504 0.001829 0
0.299923 0.001723 0
0.296546 0.001627 0
0.293353 0.001540 0
0.290327 0.001461 0
0.287454 0.001388 0
0.284721 0.001322 0
0.282117 0.001261 0
0.279632 0.001205 0
0.277255 0.001153 0
0.274981 0.001105 0
0.272800 0.001060 0
0.270707 0.001018 0
0.268696 0.000979 0
0.266762 0.000943 0
0.264899 0.000909 0
0.263104 0.000876 0
0.261372 0.000846 0
0.259700 0.000817 0
0.258085 0.000790 0
0.256524 0.000764 0
0.255015 0.000739 0
0.253554 0.000716 0
0.252139 0.000693 0
0.250769 0.000672 0
0.249442 0.000651 0
0.248156 0.000631 0
0.246910 0.000612 0
0.245702 0.000594 0
0.244531 0.000576 0
0.243396 0.000558 0
0.242295 0.000541 0
0.241229 0.000525 0
0.240196 0.000508 0
0.239196 0.000492 0
0.238228 0.000477 0
0.237291 0.000461 0
0.236386 0.000446 0
0.235512 0.000430 0
0.234669 0.000415 0
0.233858 0.000400 0
0.233077 0.000384 0
0.232328 0.000368 0
0.231611 0.000352 0
0.230927 0.000336 0
0.230275 0.000319 0
0.229658 0.000302 0
0.229076 0.000284 0
0.228531 0.000265 0
0.228024 0.000245 0
0.227557 0.000224 0
0.227132 0.000202 0
0.226751 0.000178 0
0.226418 0.000153 0
0.226135 0.000125 0
0.225906 0.000096 0
0.225735 0.000063 0
0.225627 0.000027 0
0.225590 -0.000013 0
0.225630 -0.000055 0
0.225751 -0.000100 0
0.225960 -0.000150 0
0.226263 -0.000205 0
0.226670 -0.000266 0
0.227192 -0.000333 0
0.227839 -0.000408 0
0.228627 -0.000491 0
0.229571 -0.000585 0
0.230690 -0.000691 0
0.232007 -0.000811 0
0.233548 -0.000948 0
0.235344 -0.001105 0
0.237432 -0.001286 0
0.239857 -0.001495 0
0.242671 -0.001739 0
0.245937 -0.002025 0
0.249734 -0.002363 0
0.254152 -0.002763 0
0.259307 -0.003241 0
0.265338 -0.003818 0
0.272421 -0.004519 0
0.280776 -0.005380 0
0.290683 -0.006453 0
0.302509 -0.007807 0
0.316733 -0.009545 0
0.334001 -0.011824 0
0.355202 -0.014886 0
0.381587 -0.019124 0
0.414977 -0.025216 0
0.458098 -0.034414 0
0.515209 -0.049106 0
0.592928 -0.075379 0
0.702507 -0.121945 0
0.858213 -0.256824 0
0.994045 -0.362301 0
0.994045 -0.181151 0
1.000000 0.000105 0
0.999859 0.000318 0
0.999574 0.000542 0
0.999133 0.000786 0
0.998521 0.001060 0
0.997714 0.001377 0
0.996681 0.001752 0
0.995379 0.002205 0
0.993750 0.002767 0
0.991715 0.003479 0
0.989168 0.004400 0
0.985962 0.005628 0
0.981888 0.007318 0
0.976642 0.009737 0
0.969783 0.013395 0
0.960673 0.019226 0
0.948431 0.029724 0
0.933029 0.047942 0
0.915087 0.093196 0
0.945331 0.133281 0
0.948626 0.130405 0
0.922940 0.109140 0
0.881982 0.086247 0
0.836591 0.067387 0
0.792541 0.053113 0
0.752209 0.042531 0
0.716226 0.034649 0
0.684459 0.028695 0
0.656490 0.024123 0
0.631833 0.020551 0
0.610023 0.017716 0
0.590647 0.015432 0
0.573351 0.013566 0
0.557835 0.012023 0
0.543850 0.010734 0
0.531185 0.009647 0
0.519665 0.008721 0
0.509141 0.007926 0
0.499490 0.007240 0
0.490606 0.006644 0
0.482399 0.006122 0
0.474791 0.005663 0
0.467716 0.005257 0
0.461119 0.004897 0
0.454948 0.004576 0
0.449160 0.004289 0
0.443720 0.004030 0
0.438592 0.003797 0
0.433750 0.003586 0
0.429166 0.003395 0
0.424819 0.003220 0
0.420688 0.003060 0
0.416757 0.002914 0
0.413008 0.002779 0
0.409428 0.002655 0
0.406005 0.002540 0
0.402727 0.002433 0
0.399584 0.002334 0
0.396566 0.002242 0
0.393666 0.002156 0
0.390876 0.002075 0
0.388189 0.001999 0
0.385599 0.001928 0
0.383101 0.001860 0
0.380689 0.001797 0
0.378359 0.001736 0
0.376106 0.001679 0
0.373928 0.001624 0
0.371820 0.001572 0
0.369779 0.001523 0
0.367803 0.001475 0
0.365888 0.001429 0
0.364033 0.001385 0
0.362235 0.001343 0
0.360492 0.001302 0
0.358803 0.001262 0
0.357166 0.001224 0
0.355579 0.001186 0
0.354041 0.001149 0
0.352552 0.001113 0
0.351110 0.001078 0
0.349714 0.001043 0
0.348365 0.001009 0
0.347060 0.000975 0
0.345801 0.000941 0
0.344586 0.000907 0
0.343417 0.000873 0
0.342293 0.000839 0
0.341214 0.000804 0
0.340181 0.000769 0
0.339194 0.000733 0
0.338256 0.000696 0
0.337366 0.000658 0
0.336526 0.000619 0
0.335738 0.000578 0
0.335004 0.000535 0
0.334326 0.000490 0
0.333707 0.000442 0
0.333150 0.000391 0
0.332657 0.000338 0
0.332234 0.000280 0
0.331884 0.000218 0
0.331613 0.000150 0
0.331426 0.000075 0
0.331330 -0.000007 0
0.331337 -0.000095 0
0.331453 -0.000189 0
0.331684 -0.000291 0
0.332039 -0.000402 0
0.332529 -0.000525 0
0.333167 -0.000660 0
0.333967 -0.000810 0
0.334946 -0.000977 0
0.336124 -0.001165 0
0.337524 -0.001375 0
0.339174 -0.001614 0
0.341105 -0.001885 0
0.343356 -0.002195 0
0.345972 -0.002552 0
0.349007 -0.002964 0
0.352523 -0.003443 0
0.356597 -0.004002 0
0.361319 -0.004658 0
0.366799 -0.005434 0
0.373170 -0.006356 0
0.380593 -0.007462 0
0.389266 -0.008797 0
0.399436 -0.010427 0
0.411412 -0.012436 0
0.425586 -0.014947 0
0.442460 -0.018131 0
0.462694 -0.022241 0
0.487158 -0.027663 0
0.517026 -0.035000 0
0.553906 -0.045244 0
0.600016 -0.060127 0
0.658410 -0.082693 0
0.732954 -0.119730 0
0.827085 -0.179764 0
0.940083 -0.307806 0
0.994836 -0.399164 0
0.994836 -0.199582 0
1.000000 0.000138 0
0.999864 0.000419 0
0.999587 0.000715 0
0.999160 0.001037 0
0.998568 0.001398 0
0.997790 0.001814 0
0.996794 0.002306 0
0.995543 0.002901 0
0.993983 0.003635 0
0.992045 0.004560 0
0.989634 0.005754 0
0.986627 0.007333 0
0.982854 0.009483 0
0.978089 0.012517 0
0.972037 0.016990 0
0.964382 0.023874 0
0.954906 0.035310 0
0.945019 0.053755 0
0.937269 0.088384 0
0.965708 0.121149 0
0.987885 0.127636 0
0.990072 0.116924 0
0.975767 0.100560 0
0.951738 0.084527 0
0.923220 0.070783 0
0.893431 0.059534 0
0.864153 0.050449 0
0.836296 0.043113 0
0.810271 0.037161 0
0.786207 0.032297 0
0.764079 0.028291 0
0.743785 0.024965 0
0.725185 0.022180 0
0.708130 0.019830 0
0.692469 0.017833 0
0.678064 0.016123 0
0.664784 0.014650 0
0.652514 0.013374 0
0.641149 0.012261 0
0.630597 0.011286 0
0.620775 0.010428 0
0.611611 0.009669 0
0.603041 0.008994 0
0.595008 0.008393 0
0.587461 0.007854 0
0.580356 0.007370 0
0.573653 0.006933 0
0.567316 0.006538 0
0.561315 0.006180 0
0.555621 0.005853 0
0.550209 0.005555 0
0.545057 0.005282 0
0.540144 0.005031 0
0.535453 0.004800 0
0.530967 0.004587 0
0.526671 0.004390 0
0.522553 0.004206 0
0.518600 0.004036 0
0.514802 0.003877 0
0.511149 0.003728 0
0.507631 0.003588 0
0.504241 0.003457 0
0.500971 0.003334 0
0.497815 0.003217 0
0.494767 0.003107 0
0.491821 0.003003 0
0.488971 0.002904 0
0.486214 0.002810 0
0.483545 0.002720 0
0.480959 0.002634 0
0.478455 0.002551 0
0.476028 0.002472 0
0.473675 0.002396 0
0.471394 0.002322 0
0.469182 0.002251 0
0.467038 0.002182 0
0.464959 0.002115 0
0.462943 0.002050 0
0.460990 0.001987 0
0.459097 0.001924 0
0.457264 0.001863 0
0.455489 0.001803 0
0.453773 0.001743 0
0.452113 0.001684 0
0.450510 0.001625 0
0.448964 0.001566 0
0.447475 0.001508 0
0.446042 0.001448 0
0.444666 0.001388 0
0.443348 0.001328 0
0.442089 0.001266 0
0.440889 0.001202 0
0.439750 0.001137 0
0.438674 0.001070 0
0.437662 0.001000 0
0.436716 0.000927 0
0.435840 0.000851 0
0.435035 0.000770 0
0.434306 0.000685 0
0.433656 0.000595 0
0.433088 0.000499 0
0.432609 0.000396 0
0.432223 0.000285 0
0.431937 0.000163 0
0.431756 0.000030 0
0.431692 -0.000114 0
0.431756 -0.000268 0
0.431955 -0.000433 0
0.432297 -0.000614 0
0.432796 -0.000811 0
0.433462 -0.001027 0
0.434314 -0.001267 0
0.435368 -0.001533 0
0.436647 -0.001830 0
0.438175 -0.002164 0
0.439982 -0.002541 0
0.442102 -0.002968 0
0.444577 -0.003456 0
0.447454 -0.004015 0
0.450791 -0.004659 0
0.454654 -0.005405 0
0.459124 -0.006274 0
0.464295 -0.007290 0
0.470282 -0.008487 0
0.477218 -0.009903 0
0.485270 -0.011592 0
0.494634 -0.013620 0
0.505553 -0.016077 0
0.518326 -0.019083 0
0.533323 -0.022803 0
0.551006 -0.027468 0
0.571963 -0.033413 0
0.596938 -0.041128 0
0.626885 -0.051363 0
0.663019 -0.065299 0
0.706844 -0.084888 0
0.760068 -0.113314 0
0.824083 -0.156848 0
0.897443 -0.221987 0
0.972714 -0.337847 0
0.995586 -0.415192 0
0.995587 -0.207596 0
1.000000 0.000170 0
0.999869 0.000517 0
0.999604 0.000882 0
0.999195 0.001278 0
0.998628 0.001722 0
0.997884 0.002234 0
0.996936 0.002837 0
0.995748 0.003563 0
0.994274 0.004457 0
0.992454 0.005579 0
0.990209 0.007017 0
0.987441 0.008903 0
0.984022 0.011442 0
0.979806 0.014962 0
0.974638 0.020015 0
0.968468 0.027500 0
0.961560 0.039076 0
0.955832 0.056460 0
0.954477 0.083204 0
0.976672 0.108834 0
1.001711 0.118637 0
1.016359 0.114993 0
1.018678 0.104762 0
1.011393 0.092766 0
0.997799 0.081274 0
0.980477 0.071060 0
0.961203 0.062245 0
0.941145 0.054720 0
0.921055 0.048316 0
0.901402 0.042862 0
0.882469 0.038206 0
0.864413 0.034217 0
0.847308 0.030787 0
0.831174 0.027825 0
0.815996 0.025256 0
0.801738 0.023019 0
0.788352 0.021061 0
0.775787 0.019342 0
0.763984 0.017826 0
0.752891 0.016484 0
0.742453 0.015291 0
0.732621 0.014228 0
0.723346 0.013276 0
0.714586 0.012422 0
0.706299 0.011653 0
0.698450 0.010958 0
0.691004 0.010328 0
0.683931 0.009756 0
0.677201 0.009235 0
0.670790 0.008759 0
0.664674 0.008322 0
0.658833 0.007922 0
0.653246 0.007552 0
0.647896 0.007212 0
0.642767 0.006896 0
0.637845 0.006604 0
0.633115 0.006332 0
0.628567 0.006078 0
0.624189 0.005841 0
0.619970 0.005619 0
0.615902 0.005411 0
0.611976 0.005216 0
0.608184 0.005031 0
0.604520 0.004857 0
0.600976 0.004692 0
0.597547 0.004536 0
0.594227 0.004387 0
0.591011 0.004245 0
0.587896 0.004110 0
0.584875 0.003981 0
0.581946 0.003857 0
0.579106 0.003738 0
0.576350 0.003623 0
0.573676 0.003513 0
0.571082 0.003406 0
0.568565 0.003302 0
0.566122 0.003201 0
0.563753 0.003103 0
0.561455 0.003007 0
0.559227 0.002913 0
0.557067 0.002820 0
0.554975 0.002729 0
0.552950 0.002639 0
0.550990 0.002550 0
0.549097 0.002462 0
0.547269 0.002373 0
0.545506 0.002284 0
0.543809 0.002195 0
0.542177 0.002105 0
0.540613 0.002014 0
0.539115 0.001921 0
0.537687 0.001826 0
0.536328 0.001728 0
0.535041 0.001627 0
0.533827 0.001523 0
0.532690 0.001415 0
0.531630 0.001302 0
0.530653 0.001183 0
0.529760 0.001058 0
0.528955 0.000926 0
0.528244 0.000785 0
0.527630 0.000636 0
0.527120 0.000475 0
0.526718 0.000301 0
0.526432 0.000111 0
0.526268 -0.000095 0
0.526243 -0.000315 0
0.526364 -0.000552 0
0.526640 -0.000808 0
0.527084 -0.001087 0
0.527709 -0.001393 0
0.528530 -0.001731 0
0.529566 -0.002104 0
0.530839 -0.002520 0
0.532373 -0.002986 0
0.534199 -0.003511 0
0.536352 -0.004104 0
0.538871 -0.004780 0
0.541806 -0.005553 0
0.545212 -0.006442 0
0.549157 -0.007468 0
0.553718 -0.008658 0
0.558988 -0.010047 0
0.565077 -0.011675 0
0.572114 -0.013595 0
0.580254 -0.015873 0
0.589683 -0.018594 0
0.600623 -0.021870 0
0.613343 -0.025849 0
0.628167 -0.030731 0
0.645493 -0.036794 0
0.665801 -0.044426 0
0.689679 -0.054190 0
0.717828 -0.066917 0
0.751058 -0.083864 0
0.790210 -0.107001 0
0.835895 -0.139319 0
0.887788 -0.186081 0
0.942142 -0.251552 0
0.990215 -0.355209 0
0.996268 -0.421258 0
0.996268 -0.210628 0
1.000000 0.000201 0
0.999876 0.000611 0
0.999624 0.001041 0
0.999236 0.001508 0
0.998699 0.002031 0
0.997996 0.002631 0
0.997104 0.003338 0
0.995990 0.004186 0
0.994616 0.005226 0
0.992932 0.006524 0
0.990877 0.008175 0
0.988376 0.010321 0
0.985348 0.013171 0
0.981715 0.017050 0
0.977446 0.022466 0
0.972684 0.030190 0
0.967982 0.041413 0
0.965254 0.057176 0
0.967534 0.078318 0
0.984750 0.098336 0
1.007163 0.108467 0
1.025317 0.108729 0
1.035733 0.102959 0
1.038732 0.094612 0
1.035897 0.085715 0
1.028853 0.077209 0
1.018915 0.069446 0
1.007072 0.062505 0
0.994053 0.056357 0
0.980387 0.050934 0
0.966457 0.046156 0
0.952536 0.041947 0
0.938816 0.038234 0
0.925427 0.034954 0
0.912455 0.032050 0
0.899953 0.029475 0
0.887947 0.027185 0
0.876449 0.025144 0
0.865456 0.023320 0
0.854959 0.021686 0
0.844943 0.020218 0
0.835386 0.018897 0
0.826269 0.017705 0
0.817569 0.016626 0
0.809263 0.015647 0
0.801328 0.014757 0
0.793743 0.013946 0
0.786488 0.013205 0
0.779541 0.012527 0
0.772885 0.011904 0
0.766501 0.011331 0
0.760374 0.010802 0
0.754487 0.010314 0
0.748827 0.009862 0
0.743380 0.009442 0
0.738134 0.009051 0
0.733077 0.008687 0
0.728199 0.008347 0
0.723490 0.008029 0
0.718941 0.007730 0
0.714544 0.007449 0
0.710290 0.007185 0
0.706173 0.006935 0
0.702186 0.006699 0
0.698323 0.006475 0
0.694578 0.006263 0
0.690946 0.006060 0
0.687423 0.005868 0
0.684003 0.005683 0
0.680684 0.005507 0
0.677460 0.005338 0
0.674330 0.005175 0
0.671289 0.005018 0
0.668334 0.004867 0
0.665464 0.004720 0
0.662676 0.004578 0
0.659967 0.004439 0
0.657337 0.004305 0
0.654783 0.004173 0
0.652303 0.004043 0
0.649897 0.003916 0
0.647564 0.003791 0
0.645303 0.003667 0
0.643113 0.003545 0
0.640994 0.003423 0
0.638945 0.003301 0
0.636967 0.003179 0
0.635060 0.003056 0
0.633225 0.002932 0
0.631461 0.002807 0
0.629770 0.002679 0
0.628154 0.002549 0
0.626613 0.002415 0
0.625149 0.002278 0
0.623764 0.002136 0
0.622461 0.001988 0
0.621242 0.001834 0
0.620111 0.001674 0
0.619069 0.001505 0
0.618122 0.001327 0
0.617273 0.001139 0
0.616527 0.000939 0
0.615890 0.000725 0
0.615366 0.000496 0
0.614963 0.000247 0
0.614683 -0.000023 0
0.614544 -0.000314 0
0.614555 -0.000625 0
0.614727 -0.000962 0
0.615070 -0.001327 0
0.615598 -0.001726 0
0.616327 -0.002164 0
0.617274 -0.002648 0
0.618460 -0.003186 0
0.619909 -0.003787 0
0.621651 -0.004462 0
0.623718 -0.005225 0
0.626150 -0.006090 0
0.628993 -0.007078 0
0.632300 -0.008210 0
0.636134 -0.009513 0
0.640568 -0.011022 0
0.645689 -0.012777 0
0.651598 -0.014826 0
0.658414 -0.017234 0
0.666277 -0.020078 0
0.675352 -0.023458 0
0.685833 -0.027504 0
0.697952 -0.032386 0