# vtk DataFile Version 2.0
generated by CFD-lab course output (written by Tobias Neckel) 
ASCII

DATASET STRUCTURED_GRID
DIMENSIONS  142 42 1 
POINTS 5964 float

0.000000 0.250000 0
0.024648 0.250000 0
0.049296 0.250000 0
0.073944 0.250000 0
0.098592 0.250000 0
0.123239 0.250000 0
0.147887 0.250000 0
0.172535 0.250000 0
0.197183 0.250000 0
0.221831 0.250000 0
0.246479 0.250000 0
0.271127 0.250000 0
0.295775 0.250000 0
0.320423 0.250000 0
0.345070 0.250000 0
0.369718 0.250000 0
0.394366 0.250000 0
0.419014 0.250000 0
0.443662 0.250000 0
0.468310 0.250000 0
0.492958 0.250000 0
0.517606 0.250000 0
0.542254 0.250000 0
0.566901 0.250000 0
0.591549 0.250000 0
0.616197 0.250000 0
0.640845 0.250000 0
0.665493 0.250000 0
0.690141 0.250000 0
0.714789 0.250000 0
0.739437 0.250000 0
0.764085 0.250000 0
0.788732 0.250000 0
0.813380 0.250000 0
0.838028 0.250000 0
0.862676 0.250000 0
0.887324 0.250000 0
0.911972 0.250000 0
0.936620 0.250000 0
0.961268 0.250000 0
0.985915 0.250000 0
1.010563 0.250000 0
1.035211 0.250000 0
1.059859 0.250000 0
1.084507 0.250000 0
1.109155 0.250000 0
1.133803 0.250000 0
1.158451 0.250000 0
1.183099 0.250000 0
1.207746 0.250000 0
1.232394 0.250000 0
1.257042 0.250000 0
1.281690 0.250000 0
1.306338 0.250000 0
1.330986 0.250000 0
1.355634 0.250000 0
1.380282 0.250000 0
1.404930 0.250000 0
1.429577 0.250000 0
1.454225 0.250000 0
1.478873 0.250000 0
1.503521 0.250000 0
1.528169 0.250000 0
1.552817 0.250000 0
1.577465 0.250000 0
1.602113 0.250000 0
1.626761 0.250000 0
1.651408 0.250000 0
1.676056 0.250000 0
1.700704 0.250000 0
1.725352 0.250000 0
1.750000 0.250000 0
1.774648 0.250000 0
1.799296 0.250000 0
1.823944 0.250000 0
1.848592 0.250000 0
1.873239 0.250000 0
1.897887 0.250000 0
1.922535 0.250000 0
1.947183 0.250000 0
1.971831 0.250000 0
1.996479 0.250000 0
2.021127 0.250000 0
2.045775 0.250000 0
2.070423 0.250000 0
2.095070 0.250000 0
2.119718 0.250000 0
2.144366 0.250000 0
2.169014 0.250000 0
2.193662 0.250000 0
2.218310 0.250000 0
2.242958 0.250000 0
2.267606 0.250000 0
2.292254 0.250000 0
2.316901 0.250000 0
2.341549 0.250000 0
2.366197 0.250000 0
2.390845 0.250000 0
2.415493 0.250000 0
2.440141 0.250000 0
2.464789 0.250000 0
2.489437 0.250000 0
2.514085 0.250000 0
2.538732 0.250000 0
2.563380 0.250000 0
2.588028 0.250000 0
2.612676 0.250000 0
2.637324 0.250000 0
2.661972 0.250000 0
2.686620 0.250000 0
2.711268 0.250000 0
2.735915 0.250000 0
2.760563 0.250000 0
2.785211 0.250000 0
2.809859 0.250000 0
2.834507 0.250000 0
2.859155 0.250000 0
2.883803 0.250000 0
2.908451 0.250000 0
2.933099 0.250000 0
2.957746 0.250000 0
2.982394 0.250000 0
3.007042 0.250000 0
3.031690 0.250000 0
3.056338 0.250000 0
3.080986 0.250000 0
3.105634 0.250000 0
3.130282 0.250000 0
3.154930 0.250000 0
3.179577 0.250000 0
3.204225 0.250000 0
3.228873 0.250000 0
3.253521 0.250000 0
3.278169 0.250000 0
3.302817 0.250000 0
3.327465 0.250000 0
3.352113 0.250000 0
3.376761 0.250000 0
3.401408 0.250000 0
3.426056 0.250000 0
3.450704 0.250000 0
3.475352 0.250000 0
0.000000 0.261905 0
0.024648 0.261905 0
0.049296 0.261905 0
0.073944 0.261905 0
0.098592 0.261905 0
0.123239 0.261905 0
0.147887 0.261905 0
0.172535 0.261905 0
0.197183 0.261905 0
0.221831 0.261905 0
0.246479 0.261905 0
0.271127 0.261905 0
0.295775 0.261905 0
0.320423 0.261905 0
0.345070 0.261905 0
0.369718 0.261905 0
0.394366 0.261905 0
0.419014 0.261905 0
0.443662 0.261905 0
0.468310 0.261905 0
0.492958 0.261905 0
0.517606 0.261905 0
0.542254 0.261905 0
0.566901 0.261905 0
0.591549 0.261905 0
0.616197 0.261905 0
0.640845 0.261905 0
0.665493 0.261905 0
0.690141 0.261905 0
0.714789 0.261905 0
0.739437 0.261905 0
0.764085 0.261905 0
0.788732 0.261905 0
0.813380 0.261905 0
0.838028 0.261905 0
0.862676 0.261905 0
0.887324 0.261905 0
0.911972 0.261905 0
0.936620 0.261905 0
0.961268 0.261905 0
0.985915 0.261905 0
1.010563 0.261905 0
1.035211 0.261905 0
1.059859 0.261905 0
1.084507 0.261905 0
1.109155 0.261905 0
1.133803 0.261905 0
1.158451 0.261905 0
1.183099 0.261905 0
1.207746 0.261905 0
1.232394 0.261905 0
1.257042 0.261905 0
1.281690 0.261905 0
1.306338 0.261905 0
1.330986 0.261905 0
1.355634 0.261905 0
1.380282 0.261905 0
1.404930 0.261905 0
1.429577 0.261905 0
1.454225 0.261905 0
1.478873 0.261905 0
1.503521 0.261905 0
1.528169 0.261905 0
1.552817 0.261905 0
1.577465 0.261905 0
1.602113 0.261905 0
1.626761 0.261905 0
1.651408 0.261905 0
1.676056 0.261905 0
1.700704 0.261905 0
1.725352 0.261905 0
1.750000 0.261905 0
1.774648 0.261905 0
1.799296 0.261905 0
1.823944 0.261905 0
1.848592 0.261905 0
1.873239 0.261905 0
1.897887 0.261905 0
1.922535 0.261905 0
1.947183 0.261905 0
1.971831 0.261905 0
1.996479 0.261905 0
2.021127 0.261905 0
2.045775 0.261905 0
2.070423 0.261905 0
2.095070 0.261905 0
2.119718 0.261905 0
2.144366 0.261905 0
2.169014 0.261905 0
2.193662 0.261905 0
2.218310 0.261905 0
2.242958 0.261905 0
2.267606 0.261905 0
2.292254 0.261905 0
2.316901 0.261905 0
2.341549 0.261905 0
2.366197 0.261905 0
2.390845 0.261905 0
2.415493 0.261905 0
2.440141 0.261905 0
2.464789 0.261905 0
2.489437 0.261905 0
2.514085 0.261905 0
2.538732 0.261905 0
2.563380 0.261905 0
2.588028 0.261905 0
2.612676 0.261905 0
2.637324 0.261905 0
2.661972 0.261905 0
2.686620 0.261905 0
2.711268 0.261905 0
2.735915 0.261905 0
2.760563 0.261905 0
2.785211 0.261905 0
2.809859 0.261905 0
2.834507 0.261905 0
2.859155 0.261905 0
2.883803 0.261905 0
2.908451 0.261905 0
2.933099 0.261905 0
2.957746 0.261905 0
2.982394 0.261905 0
3.007042 0.261905 0
3.031690 0.261905 0
3.056338 0.261905 0
3.080986 0.261905 0
3.105634 0.261905 0
3.130282 0.261905 0
3.154930 0.261905 0
3.179577 0.261905 0
3.204225 0.261905 0
3.228873 0.261905 0
3.253521 0.261905 0
3.278169 0.261905 0
3.302817 0.261905 0
3.327465 0.261905 0
3.352113 0.261905 0
3.376761 0.261905 0
3.401408 0.261905 0
3.426056 0.261905 0
3.450704 0.261905 0
3.475352 0.261905 0
0.000000 0.273810 0
0.024648 0.273810 0
0.049296 0.273810 0
0.073944 0.273810 0
0.098592 0.273810 0
0.123239 0.273810 0
0.147887 0.273810 0
0.172535 0.273810 0
0.197183 0.273810 0
0.221831 0.273810 0
0.246479 0.273810 0
0.271127 0.273810 0
0.295775 0.273810 0
0.320423 0.273810 0
0.345070 0.273810 0
0.369718 0.273810 0
0.394366 0.273810 0
0.419014 0.273810 0
0.443662 0.273810 0
0.468310 0.273810 0
0.492958 0.273810 0
0.517606 0.273810 0
0.542254 0.273810 0
0.566901 0.273810 0
0.591549 0.273810 0
0.616197 0.273810 0
0.640845 0.273810 0
0.665493 0.273810 0
0.690141 0.273810 0
0.714789 0.273810 0
0.739437 0.273810 0
0.764085 0.273810 0
0.788732 0.273810 0
0.813380 0.273810 0
0.838028 0.273810 0
0.862676 0.273810 0
0.887324 0.273810 0
0.911972 0.273810 0
0.936620 0.273810 0
0.961268 0.273810 0
0.985915 0.273810 0
1.010563 0.273810 0
1.035211 0.273810 0
1.059859 0.273810 0
1.084507 0.273810 0
1.109155 0.273810 0
1.133803 0.273810 0
1.158451 0.273810 0
1.183099 0.273810 0
1.207746 0.273810 0
1.232394 0.273810 0
1.257042 0.273810 0
1.281690 0.273810 0
1.306338 0.273810 0
1.330986 0.273810 0
1.355634 0.273810 0
1.380282 0.273810 0
1.404930 0.273810 0
1.429577 0.273810 0
1.454225 0.273810 0
1.478873 0.273810 0
1.503521 0.273810 0
1.528169 0.273810 0
1.552817 0.273810 0
1.577465 0.273810 0
1.602113 0.273810 0
1.626761 0.273810 0
1.651408 0.273810 0
1.676056 0.273810 0
1.700704 0.273810 0
1.725352 0.273810 0
1.750000 0.273810 0
1.774648 0.273810 0
1.799296 0.273810 0
1.823944 0.273810 0
1.848592 0.273810 0
1.873239 0.273810 0
1.897887 0.273810 0
1.922535 0.273810 0
1.947183 0.273810 0
1.971831 0.273810 0
1.996479 0.273810 0
2.021127 0.273810 0
2.045775 0.273810 0
2.070423 0.273810 0
2.095070 0.273810 0
2.119718 0.273810 0
2.144366 0.273810 0
2.169014 0.273810 0
2.193662 0.273810 0
2.218310 0.273810 0
2.242958 0.273810 0
2.267606 0.273810 0
2.292254 0.273810 0
2.316901 0.273810 0
2.341549 0.273810 0
2.366197 0.273810 0
2.390845 0.273810 0
2.415493 0.273810 0
2.440141 0.273810 0
2.464789 0.273810 0
2.489437 0.273810 0
2.514085 0.273810 0
2.538732 0.273810 0
2.563380 0.273810 0
2.588028 0.273810 0
2.612676 0.273810 0
2.637324 0.273810 0
2.661972 0.273810 0
2.686620 0.273810 0
2.711268 0.273810 0
2.735915 0.273810 0
2.760563 0.273810 0
2.785211 0.273810 0
2.809859 0.273810 0
2.834507 0.273810 0
2.859155 0.273810 0
2.883803 0.273810 0
2.908451 0.273810 0
2.933099 0.273810 0
2.957746 0.273810 0
2.982394 0.273810 0
3.007042 0.273810 0
3.031690 0.273810 0
3.056338 0.273810 0
3.080986 0.273810 0
3.105634 0.273810 0
3.130282 0.273810 0
3.154930 0.273810 0
3.179577 0.273810 0
3.204225 0.273810 0
3.228873 0.273810 0
3.253521 0.273810 0
3.278169 0.273810 0
3.302817 0.273810 0
3.327465 0.273810 0
3.352113 0.273810 0
3.376761 0.273810 0
3.401408 0.273810 0
3.426056 0.273810 0
3.450704 0.273810 0
3.475352 0.273810 0
0.000000 0.285714 0
0.024648 0.285714 0
0.049296 0.285714 0
0.073944 0.285714 0
0.098592 0.285714 0
0.123239 0.285714 0
0.147887 0.285714 0
0.172535 0.285714 0
0.197183 0.285714 0
0.221831 0.285714 0
0.246479 0.285714 0
0.271127 0.285714 0
0.295775 0.285714 0
0.320423 0.285714 0
0.345070 0.285714 0
0.369718 0.285714 0
0.394366 0.285714 0
0.419014 0.285714 0
0.443662 0.285714 0
0.468310 0.285714 0
0.492958 0.285714 0
0.517606 0.285714 0
0.542254 0.285714 0
0.566901 0.285714 0
0.591549 0.285714 0
0.616197 0.285714 0
0.640845 0.285714 0
0.665493 0.285714 0
0.690141 0.285714 0
0.714789 0.285714 0
0.739437 0.285714 0
0.764085 0.285714 0
0.788732 0.285714 0
0.813380 0.285714 0
0.838028 0.285714 0
0.862676 0.285714 0
0.887324 0.285714 0
0.911972 0.285714 0
0.936620 0.285714 0
0.961268 0.285714 0
0.985915 0.285714 0
1.010563 0.285714 0
1.035211 0.285714 0
1.059859 0.285714 0
1.084507 0.285714 0
1.109155 0.285714 0
1.133803 0.285714 0
1.158451 0.285714 0
1.183099 0.285714 0
1.207746 0.285714 0
1.232394 0.285714 0
1.257042 0.285714 0
1.281690 0.285714 0
1.306338 0.285714 0
1.330986 0.285714 0
1.355634 0.285714 0
1.380282 0.285714 0
1.404930 0.285714 0
1.429577 0.285714 0
1.454225 0.285714 0
1.478873 0.285714 0
1.503521 0.285714 0
1.528169 0.285714 0
1.552817 0.285714 0
1.577465 0.285714 0
[...]
POINT_DATA 5964 

VECTORS velocity float
1.000000 0.000000 0
0.999854 0.000000 0
0.999556 0.000000 0
0.999097 0.000000 0
0.998458 0.000000 0
0.997615 0.000000 0
0.996532 0.000000 0
0.995163 0.000000 0
0.993441 0.000000 0
0.991277 0.000000 0
0.988545 0.000000 0
0.985064 0.000000 0
0.980564 0.000000 0
0.974618 0.000000 0
0.966521 0.000000 0
0.954939 0.000000 0
0.937390 0.000000 0
0.905768 0.000000 0
0.847704 0.000000 0
-0.000000 0.000000 0
-0.000000 0.000000 0
-0.000000 0.000000 0
-0.000000 0.000000 0
-0.000000 0.000000 0
-0.000000 0.000000 0
-0.000000 0.000000 0
-0.000000 0.000000 0
-0.000000 0.000000 0
-0.000000 0.000000 0
-0.000000 0.000000 0
-0.000000 0.000000 0
-0.000000 0.000000 0
-0.000000 0.000000 0
-0.000000 0.000000 0
-0.000000 0.000000 0
-0.000000 0.000000 0
-0.000000 0.000000 0
-0.000000 0.000000 0
-0.000000 0.000000 0
-0.000000 0.000000 0
-0.000000 0.000000 0
-0.000000 0.000000 0
-0.000000 0.000000 0
-0.000000 0.000000 0
-0.000000 0.000000 0
-0.000000 0.000000 0
-0.000000 0.000000 0
-0.000000 0.000000 0
-0.000000 0.000000 0
-0.000000 0.000000 0
-0.000000 0.000000 0
-0.000000 0.000000 0
-0.000000 0.000000 0
-0.000000 0.000000 0
-0.000000 0.000000 0
-0.000000 0.000000 0
-0.000000 0.000000 0
-0.000000 0.000000 0
-0.000000 0.000000 0
-0.000000 0.000000 0
-0.000000 0.000000 0
-0.000000 0.000000 0
-0.000000 0.000000 0
-0.000000 0.000000 0
-0.000000 0.000000 0
-0.000000 0.000000 0
-0.000000 0.000000 0
-0.000000 0.000000 0
-0.000001 0.000000 0
-0.000001 0.000000 0
-0.000001 0.000000 0
-0.000001 0.000000 0
-0.000001 0.000000 0
-0.000001 0.000000 0
-0.000001 0.000000 0
-0.000001 0.000000 0
-0.000001 0.000000 0
-0.000001 0.000000 0
-0.000001 0.000000 0
-0.000001 0.000000 0
-0.000001 0.000000 0
-0.000001 0.000000 0
-0.000002 0.000000 0
-0.000002 0.000000 0
-0.000002 0.000000 0
-0.000002 0.000000 0
-0.000002 0.000000 0
-0.000002 0.000000 0
-0.000002 0.000000 0
-0.000002 0.000000 0
-0.000002 0.000000 0
-0.000002 0.000000 0
-0.000002 0.000000 0
-0.000002 0.000000 0
-0.000002 0.000000 0
-0.000002 0.000000 0
-0.000002 0.000000 0
-0.000002 0.000000 0
-0.000002 0.000000 0
-0.000002 0.000000 0
-0.000002 0.000000 0
-0.000002 0.000000 0
-0.000002 0.000000 0
-0.000002 0.000000 0
-0.000002 0.000000 0
-0.000002 0.000000 0
-0.000002 0.000000 0
-0.000002 0.000000 0
-0.000002 0.000000 0
-0.000002 0.000000 0
-0.000002 0.000000 0
-0.000002 0.000000 0
-0.000002 0.000000 0
-0.000002 0.000000 0
-0.000002 0.000000 0
-0.000002 0.000000 0
-0.000002 0.000000 0
-0.000002 0.000000 0
-0.000002 0.000000 0
-0.000002 0.000000 0
-0.000002 0.000000 0
-0.000002 0.000000 0
-0.000002 0.000000 0
-0.000002 0.000000 0
-0.000002 0.000000 0
-0.000002 0.000000 0
-0.000001 0.000000 0
-0.000001 0.000000 0
-0.000001 0.000000 0
-0.000001 0.000000 0
-0.000001 0.000000 0
-0.000001 0.000000 0
-0.000001 0.000000 0
-0.000001 0.000000 0
-0.000001 0.000000 0
-0.000001 0.000000 0
-0.000001 0.000000 0
-0.000000 0.000000 0
0.000000 0.000000 0
0.000000 0.000000 0
-0.000000 0.000000 0
0.496686 0.000000 0
1.000000 0.000035 0
0.999854 0.000107 0
0.999558 0.000183 0
0.999101 0.000265 0
0.998465 0.000358 0
0.997626 0.000465 0
0.996549 0.000592 0
0.995187 0.000747 0
0.993476 0.000938 0
0.991326 0.001182 0
0.988616 0.001500 0
0.985167 0.001927 0
0.980716 0.002523 0
0.974854 0.003391 0
0.966908 0.004752 0
0.955647 0.007035 0
0.938832 0.011875 0
0.910189 0.021659 0
0.860885 0.078853 0
0.714899 0.110956 0
0.576518 0.072745 0
0.473033 0.041074 0
0.401084 0.022638 0
0.351183 0.013308 0
0.315524 0.008678 0
0.289022 0.006201 0
0.268587 0.004717 0
0.252331 0.003738 0
0.239070 0.003048 0
0.228029 0.002541 0
0.218681 0.002154 0
0.210655 0.001853 0
0.203682 0.001613 0
0.197564 0.001418 0
0.192148 0.001257 0
0.187316 0.001124 0
0.182977 0.001011 0
0.179055 0.000915 0
0.175492 0.000833 0
0.172239 0.000762 0
0.169255 0.000701 0
0.166506 0.000646 0
0.163965 0.000599 0
0.161608 0.000556 0
0.159415 0.000519 0
0.157367 0.000485 0
0.155452 0.000455 0
0.153655 0.000427 0
0.151967 0.000402 0
0.150376 0.000379 0
0.148876 0.000359 0
0.147459 0.000339 0
0.146118 0.000322 0
0.144848 0.000305 0
0.143644 0.000290 0
0.142502 0.000275 0
0.141419 0.000262 0
0.140390 0.000249 0
0.139413 0.000237 0
0.138486 0.000225 0
0.137607 0.000214 0
0.136773 0.000204 0
0.135983 0.000193 0
0.135237 0.000183 0
0.134532 0.000174 0
0.133868 0.000164 0
0.133246 0.000154 0
0.132663 0.000145 0
0.132122 0.000135 0
0.131621 0.000125 0
0.131162 0.000116 0
0.130744 0.000105 0
0.130368 0.000095 0
0.130035 0.000085 0
0.129744 0.000074 0
0.129495 0.000063 0
0.129289 0.000053 0
0.129124 0.000042 0
0.128999 0.000032 0
0.128912 0.000022 0
0.128860 0.000013 0
0.128840 0.000005 0
0.128848 -0.000002 0
0.128880 -0.000009 0
0.128931 -0.000014 0
0.128999 -0.000018 0
0.129078 -0.000021 0
0.129168 -0.000024 0
0.129264 -0.000026 0
0.129365 -0.000027 0
0.129468 -0.000028 0
0.129574 -0.000029 0
0.129679 -0.000029 0
0.129785 -0.000029 0
0.129891 -0.000030 0
0.129998 -0.000030 0
0.130105 -0.000031 0
0.130215 -0.000031 0
0.130329 -0.000033 0
0.130447 -0.000035 0
0.130573 -0.000037 0
0.130708 -0.000040 0
0.130856 -0.000044 0
0.131018 -0.000048 0
0.131198 -0.000054 0
0.131400 -0.000061 0
0.131628 -0.000069 0
0.131886 -0.000078 0
0.132179 -0.000089 0
0.132514 -0.000101 0
0.132897 -0.000116 0
0.133335 -0.000133 0
0.133838 -0.000153 0
0.134416 -0.000176 0
0.135081 -0.000202 0
0.135845 -0.000233 0
0.136726 -0.000269 0
0.137743 -0.000310 0
0.138916 -0.000359 0
0.140273 -0.000416 0
0.141845 -0.000483 0
0.143668 -0.000562 0
0.145790 -0.000656 0
0.148264 -0.000769 0
0.151158 -0.000904 0
0.154557 -0.001068 0
0.158567 -0.001269 0
0.163322 -0.001518 0
0.168999 -0.001831 0
0.175831 -0.002231 0
0.184130 -0.002753 0
0.194334 -0.003450 0
0.207064 -0.004411 0
0.223242 -0.005787 0
0.244289 -0.007851 0
0.272513 -0.011157 0
0.311935 -0.016876 0
0.369870 -0.028463 0
0.463157 -0.050889 0
0.617784 -0.167268 0
0.993686 -0.269146 0
0.993687 -0.134573 0
1.000000 0.000070 0
0.999856 0.000213 0
0.999564 0.000364 0
0.999113 0.000528 0
0.998486 0.000712 0
0.997660 0.000925 0
0.996599 0.001178 0
0.995260 0.001485 0
0.993580 0.001865 0
0.991474 0.002347 0
0.988826 0.002975 0
0.985471 0.003815 0
0.981166 0.004981 0
0.975544 0.006670 0
0.968030 0.009277 0
0.957654 0.013560 0
0.942792 0.021956 0
0.920703 0.037648 0
0.888381 0.094324 0
0.891012 0.137347 0
0.842166 0.116820 0
0.771640 0.084733 0
0.701249 0.058852 0
0.639952 0.041325 0
0.589296 0.030023 0
0.547969 0.022670 0
0.514094 0.017722 0
0.486016 0.014256 0
0.462443 0.011738 0
0.442407 0.009848 0
0.425181 0.008392 0
0.410219 0.007244 0
0.397102 0.006323 0
0.385510 0.005571 0
0.375188 0.004950 0
0.365937 0.004430 0
0.357596 0.003990 0
0.350036 0.003615 0
0.343149 0.003292 0
0.336846 0.003013 0
0.331056 0.002769 0
0.325715 0.002555 0
0.320773 0.002366 0
0.316183 0.002198 0
0.311910 0.002048 0
0.307921 0.001914 0
0.304186 0.001793 0
0.300684 0.001683 0
0.297392 0.001584 0
0.294292 0.001493 0
0.291368 0.001409 0
0.288607 0.001332 0
0.285996 0.001261 0
0.283525 0.001195 0
0.281185 0.001133 0
0.278967 0.001075 0
0.276864 0.001020 0
0.274869 0.000969 0
0.272979 0.000919 0
0.271187 0.000872 0
0.269489 0.000827 0
0.267883 0.000784 0
0.266366 0.000742 0
0.264934 0.000701 0
0.263586 0.000661 0
0.262321 0.000621 0
0.261138 0.000582 0
0.260037 0.000543 0
0.259016 0.000503 0
0.258077 0.000464 0
0.257220 0.000424 0
0.256444 0.000383 0
0.255751 0.000343 0
0.255139 0.000301 0
0.254610 0.000260 0
0.254161 0.000220 0
0.253791 0.000179 0
0.253497 0.000140 0
0.253277 0.000103 0
0.253125 0.000067 0
0.253038 0.000035 0
0.253009 0.000006 0
0.253029 -0.000019 0
0.253092 -0.000040 0
0.253188 -0.000057 0
0.253312 -0.000071 0
0.253458 -0.000082 0
0.253619 -0.000090 0
0.253791 -0.000095 0
0.253970 -0.000099 0
0.254154 -0.000101 0
0.254339 -0.000102 0
0.254524 -0.000102 0
0.254708 -0.000102 0
0.254892 -0.000103 0
0.255076 -0.000103 0
0.255261 -0.000105 0
0.255449 -0.000108 0
0.255643 -0.000112 0
0.255845 -0.000118 0
0.256058 -0.000126 0
0.256287 -0.000136 0
0.256536 -0.000149 0
0.256809 -0.000165 0
0.257112 -0.000185 0
0.257452 -0.000207 0
0.257835 -0.000235 0
0.258269 -0.000266 0
0.258762 -0.000303 0
0.259324 -0.000347 0
0.259967 -0.000397 0
0.260703 -0.000455 0
0.261548 -0.000522 0
0.262517 -0.000600 0
0.263631 -0.000690 0
0.264912 -0.000795 0
0.266388 -0.000916 0
0.268087 -0.001058 0
0.270048 -0.001222 0
0.272312 -0.001414 0
0.274930 -0.001640 0
0.277962 -0.001906 0
0.281481 -0.002220 0
0.285575 -0.002593 0
0.290349 -0.003040 0
0.295934 -0.003578 0
0.302494 -0.004233 0
0.310233 -0.005039 0
0.319415 -0.006042 0
0.330378 -0.007308 0
0.343575 -0.008937 0
0.359612 -0.011077 0
0.379332 -0.013962 0
0.403934 -0.017979 0
0.435176 -0.023798 0
0.475722 -0.032673 0
0.529791 -0.047023 0
0.604022 -0.073039 0
0.709779 -0.119740 0
0.861863 -0.256242 0
0.994415 -0.363117 0
0.994415 -0.181559 0
1.000000 0.000105 0
0.999860 0.000318 0
0.999574 0.000542 0
0.999133 0.000786 0
0.998521 0.001060 0
0.997714 0.001377 0
0.996682 0.001751 0
0.995380 0.002205 0
0.993751 0.002767 0
0.991716 0.003478 0
0.989170 0.004400 0
0.985964 0.005627 0
0.981890 0.007317 0
0.976646 0.009736 0
0.969787 0.013393 0
0.960679 0.019225 0
0.948437 0.029722 0
0.933037 0.047939 0
0.915096 0.093193 0
0.945343 0.133278 0
0.948643 0.130401 0
0.922961 0.109136 0
0.882009 0.086242 0
0.836625 0.067381 0
0.792582 0.053106 0
0.752259 0.042523 0
0.716286 0.034640 0
0.684530 0.028685 0
0.656574 0.024111 0
0.631932 0.020538 0
0.610140 0.017701 0
0.590783 0.015415 0
0.573508 0.013547 0
0.558017 0.012002 0
0.544059 0.010711 0
0.531425 0.009620 0
0.519940 0.008691 0
0.509455 0.007894 0
0.499848 0.007204 0
0.491012 0.006603 0
0.482859 0.006077 0
0.475311 0.005613 0
0.468303 0.005203 0
0.461779 0.004837 0
0.455690 0.004510 0
0.449993 0.004216 0
0.444652 0.003950 0
0.439635 0.003709 0
0.434914 0.003490 0
0.430463 0.003289 0
0.426262 0.003104 0
0.422292 0.002934 0
0.418537 0.002776 0
0.414980 0.002629 0
0.411611 0.002492 0
0.408417 0.002362 0
0.405389 0.002241 0
0.402518 0.002125 0
0.399796 0.002016 0
0.397218 0.001911 0
0.394777 0.001810 0
0.392468 0.001712 0
0.390288 0.001618 0
0.388234 0.001526 0
0.386302 0.001435 0
0.384491 0.001346 0
0.382800 0.001258 0
0.381227 0.001170 0
0.379772 0.001082 0
0.378434 0.000993 0
0.377215 0.000904 0
0.376112 0.000815 0
0.375127 0.000725 0
0.374258 0.000636 0
0.373504 0.000547 0
0.372864 0.000459 0
0.372333 0.000373 0
0.371907 0.000290 0
0.371583 0.000211 0
0.371352 0.000137 0
0.371209 0.000069 0
0.371145 0.000009 0
0.371151 -0.000043 0
0.371216 -0.000085 0
0.371329 -0.000120 0
0.371480 -0.000148 0
0.371662 -0.000169 0
0.371866 -0.000185 0
0.372086 -0.000196 0
0.372317 -0.000202 0
0.372554 -0.000206 0
0.372794 -0.000207 0
0.373034 -0.000208 0
0.373274 -0.000207 0
0.373512 -0.000207 0
0.373751 -0.000208 0
0.373990 -0.000211 0
0.374232 -0.000216 0
0.374481 -0.000224 0
0.374739 -0.000235 0
0.375011 -0.000251 0
0.375301 -0.000271 0
0.375615 -0.000296 0
0.375959 -0.000327 0
0.376340 -0.000365 0
0.376766 -0.000410 0
0.377244 -0.000463 0
0.377785 -0.000526 0
0.378399 -0.000599 0
0.379100 -0.000684 0
0.379899 -0.000782 0
0.380814 -0.000897 0
0.381863 -0.001029 0
0.383066 -0.001182 0
0.384448 -0.001359 0
0.386035 -0.001564 0
0.387862 -0.001802 0
0.389963 -0.002078 0
0.392385 -0.002399 0
0.395177 -0.002774 0
0.398401 -0.003212 0
0.402127 -0.003727 0
0.406442 -0.004333 0
0.411447 -0.005052 0
0.417264 -0.005907 0
0.424045 -0.006934 0
0.431973 -0.008175 0
0.441276 -0.009690 0
0.452241 -0.011560 0
0.465231 -0.013900 0
0.480718 -0.016872 0
0.499318 -0.020721 0
0.521856 -0.025819 0
0.549450 -0.032759 0
0.583649 -0.042525 0
0.626607 -0.056856 0
0.681324 -0.078844 0
0.751631 -0.115395 0
0.840874 -0.175425 0
0.948414 -0.304746 0
0.995243 -0.397188 0
0.995243 -0.198594 0
1.000000 0.000138 0
0.999864 0.000419 0
0.999587 0.000715 0
0.999160 0.001036 0
0.998568 0.001397 0
0.997790 0.001814 0
0.996795 0.002306 0
0.995544 0.002900 0
0.993984 0.003634 0
0.992046 0.004560 0
0.989636 0.005753 0
0.986629 0.007332 0
0.982857 0.009482 0
0.978092 0.012515 0
0.972041 0.016989 0
0.964387 0.023872 0
0.954913 0.035307 0
0.945027 0.053751 0
0.937278 0.088380 0
0.965720 0.121145 0
0.987900 0.127630 0
0.990091 0.116917 0
0.975792 0.100552 0
0.951770 0.084518 0
0.923259 0.070772 0
0.893480 0.059521 0
0.864212 0.050434 0
0.836368 0.043096 0
0.810357 0.037142 0
0.786310 0.032276 0
0.764201 0.028267 0
0.743929 0.024937 0
0.725354 0.022148 0
0.708326 0.019795 0
0.692697 0.017793 0
0.678328 0.016079 0
0.665088 0.014601 0
0.652863 0.013319 0
0.641549 0.012200 0
0.631054 0.011218 0
0.621296 0.010352 0
0.612203 0.009585 0
0.603713 0.008901 0
0.595768 0.008290 0
0.588319 0.007741 0
0.581322 0.007245 0
0.574739 0.006796 0
0.568536 0.006387 0
0.562681 0.006014 0
0.557149 0.005671 0
0.551916 0.005356 0
0.546960 0.005064 0
0.542263 0.004793 0
0.537809 0.004540 0
0.533582 0.004303 0
0.529570 0.004080 0
0.525762 0.003870 0
0.522148 0.003670 0
0.518718 0.003479 0
0.515467 0.003297 0
0.512386 0.003122 0
0.509471 0.002952 0
0.506716 0.002787 0
0.504119 0.002626 0
0.501675 0.002469 0
0.499383 0.002313 0
0.497241 0.002159 0
0.495247 0.002005 0
0.493400 0.001852 0
0.491700 0.001699 0
0.490147 0.001545 0
0.488738 0.001392 0
0.487475 0.001238 0
0.486355 0.001085 0
0.485376 0.000934 0
0.484534 0.000785 0
0.483827 0.000641 0
0.483248 0.000502 0
0.482792 0.000371 0
0.482450 0.000248 0
0.482213 0.000135 0
0.482073 0.000033 0
0.482020 -0.000054 0
0.482043 -0.000126 0
0.482130 -0.000185 0
0.482268 -0.000232 0
0.482447 -0.000268 0
0.482657 -0.000295 0
0.482891 -0.000313 0
0.483142 -0.000325 0
0.483404 -0.000331 0
0.483672 -0.000334 0
0.483943 -0.000334 0
0.484216 -0.000333 0
0.484489 -0.000333 0
0.484762 -0.000334 0
0.485036 -0.000338 0
0.485315 -0.000345 0
0.485599 -0.000357 0
0.485893 -0.000374 0
0.486202 -0.000398 0
0.486529 -0.000428 0
0.486882 -0.000467 0
0.487267 -0.000516 0
0.487691 -0.000574 0
0.488163 -0.000644 0
0.488692 -0.000727 0
0.489288 -0.000824 0
0.489964 -0.000938 0
0.490733 -0.001071 0
0.491609 -0.001225 0
0.492611 -0.001403 0
0.493758 -0.001610 0
0.495072 -0.001848 0
0.496580 -0.002124 0
0.498312 -0.002444 0
0.500301 -0.002813 0
0.502588 -0.003242 0
0.505219 -0.003740 0
0.508250 -0.004320 0
0.511742 -0.004997 0
0.515772 -0.005789 0
0.520427 -0.006721 0
0.525812 -0.007820 0
0.532052 -0.009125 0
0.539299 -0.010683 0
0.547735 -0.012556 0
0.557582 -0.014828 0
0.569115 -0.017612 0
0.582676 -0.021062 0
0.598695 -0.025401 0
0.617716 -0.030946 0
0.640439 -0.038176 0
0.667763 -0.047825 0
0.700838 -0.061064 0
0.741096 -0.079849 0
0.790151 -0.107409 0
0.849270 -0.150101 0
0.916703 -0.214785 0
0.984666 -0.330801 0
0.996037 -0.408352 0
0.996037 -0.204175 0
1.000000 0.000170 0
0.999869 0.000517 0
0.999604 0.000882 0
0.999195 0.001278 0
0.998628 0.001722 0
0.997884 0.002233 0
0.996937 0.002836 0
0.995749 0.003563 0
0.994275 0.004456 0
0.992455 0.005578 0
0.990211 0.007016 0
0.987443 0.008902 0
0.984025 0.011441 0
0.979809 0.014960 0
0.974641 0.020013 0
0.968473 0.027497 0
0.961566 0.039073 0
0.955839 0.056456 0
0.954486 0.083199 0
0.976683 0.108828 0
1.001725 0.118630 0
1.016377 0.114984 0
1.018700 0.104751 0
1.011421 0.092754 0
0.997834 0.081259 0
0.980520 0.071042 0
0.961256 0.062224 0
0.941211 0.054696 0
0.921134 0.048289 0
0.901498 0.042831 0
0.882584 0.038171 0
0.864550 0.034178 0
0.847470 0.030743 0
0.831365 0.027775 0
0.816219 0.025200 0
0.801998 0.022955 0
0.788655 0.020990 0
0.776137 0.019263 0
0.764388 0.017737 0
0.753355 0.016385 0
0.742985 0.015181 0
0.733228 0.014106 0
0.724039 0.013141 0
0.715373 0.012272 0
0.707193 0.011487 0
0.699461 0.010774 0
0.692146 0.010126 0
0.685218 0.009533 0
0.678649 0.008989 0
0.672416 0.008488 0
0.666497 0.008026 0
0.660872 0.007596 0
0.655524 0.007196 0
0.650437 0.006822 0
0.645597 0.006471 0
0.640991 0.006139 0
0.636609 0.005826 0
0.632440 0.005527 0
0.628477 0.005242 0
0.624711 0.004969 0
0.621136 0.004706 0
0.617747 0.004451 0
0.614539 0.004203 0
0.611508 0.003961 0
0.608651 0.003723 0
0.605966 0.003488 0
0.603450 0.003256 0
0.601102 0.003025 0
0.598922 0.002795 0
0.596907 0.002565 0
0.595058 0.002335 0
0.593373 0.002105 0
0.591850 0.001877 0
0.590489 0.001650 0
0.589286 0.001426 0
0.588237 0.001207 0
0.587339 0.000994 0
0.586585 0.000790 0
0.585968 0.000597 0
0.585481 0.000417 0
0.585113 0.000252 0
0.584854 0.000102 0
0.584694 -0.000028 0
0.584627 -0.000139 0
0.584640 -0.000229 0
0.584718 -0.000301 0
0.584850 -0.000357 0
0.585025 -0.000400 0
0.585235 -0.000430 0
0.585470 -0.000450 0
0.585724 -0.000462 0
0.585991 -0.000468 0
0.586267 -0.000470 0
0.586549 -0.000471 0
0.586834 -0.000471 0
0.587123 -0.000473 0
0.587415 -0.000478 0
0.587712 -0.000487 0
0.588016 -0.000503 0
0.588330 -0.000526 0
0.588659 -0.000558 0
0.589006 -0.000599 0
0.589379 -0.000652 0
0.589782 -0.000718 0
0.590225 -0.000797 0
0.590715 -0.000893 0
0.591262 -0.001006 0
0.591877 -0.001140 0
0.592570 -0.001296 0
0.593358 -0.001478 0
0.594253 -0.001690 0
0.595275 -0.001934 0
0.596443 -0.002218 0
0.597780 -0.002545 0
0.599312 -0.002924 0
0.601068 -0.003361 0
0.603085 -0.003867 0
0.605400 -0.004454 0
0.608061 -0.005134 0
0.611120 -0.005925 0
0.614641 -0.006845 0
0.618695 -0.007921 0
0.623369 -0.009183 0
0.628762 -0.010667 0
0.634994 -0.012422 0
0.642204 -0.014508 0
0.650563 -0.017006 0
0.660272 -0.020017 0
0.671576 -0.023681 0
0.684771 -0.028186 0
0.700219 -0.033796 0
0.718364 -0.040883 0
0.739743 -0.049991 0
0.765001 -0.061931 0
0.794876 -0.077944 0
0.830118 -0.099994 0
0.871203 -0.131091 0
0.917593 -0.176519 0
0.965098 -0.240820 0
1.004367 -0.343063 0
0.996757 -0.408169 0
0.996757 -0.204083 0
1.000000 0.000201 0
0.999876 0.000610 0
0.999624 0.001041 0
0.999236 0.001508 0
0.998699 0.002030 0
0.997997 0.002631 0
0.997104 0.003337 0
0.995991 0.004186 0
0.994617 0.005225 0
0.992934 0.006523 0
0.990878 0.008174 0
0.988378 0.010319 0
0.985350 0.013169 0
0.981718 0.017048 0
0.977450 0.022464 0
0.972689 0.030187 0
0.967988 0.041409 0
0.965261 0.057171 0
0.967543 0.078312 0
0.984760 0.098329 0
1.007176 0.108458 0
1.025333 0.108718 0
1.035753 0.102946 0
1.038756 0.094596 0
1.035927 0.085696 0
1.028890 0.077188 0
1.018960 0.069420 0
1.007129 0.062475 0
0.994122 0.056323 0
0.980470 0.050895 0
0.966557 0.046112 0
0.952656 0.041896 0
0.938960 0.038177 0
0.925598 0.034889 0
0.912657 0.031977 0
0.900190 0.029393 0
0.888225 0.027092 0
0.876772 0.025040 0
0.865832 0.023204 0
0.855394 0.021556 0
0.845444 0.020074 0
0.835963 0.018736 0
0.826930 0.017525 0
0.818324 0.016427 0
0.810124 0.015426 0
0.802307 0.014512 0
0.794854 0.013675 0
0.787745 0.012906 0
0.780962 0.012197 0
0.774487 0.011540 0
0.768304 0.010931 0
0.762398 0.010364 0
0.756757 0.009833 0
0.751368 0.009335 0
0.746219 0.008865 0
0.741300 0.008421 0
0.736604 0.008000 0
0.732121 0.007598 0
0.727844 0.007213 0
0.723768 0.006842 0
0.719886 0.006485 0
0.716195 0.006138 0
0.712691 0.005801 0
0.709370 0.005470 0
0.706230 0.005145 0
0.703269 0.004825 0
0.700485 0.004508 0
0.697877 0.004192 0
0.695444 0.003878 0
0.693184 0.003565 0
0.691098 0.003253 0
0.689184 0.002941 0
0.687440 0.002631 0
0.685864 0.002324 0
0.684455 0.002022 0
0.683207 0.001726 0
0.682117 0.001439 0
0.681180 0.001164 0
0.680388 0.000904 0
0.679733 0.000661 0
0.679207 0.000438 0
0.678799 0.000236 0
0.678498 0.000056 0
0.678298 -0.000100 0
0.678191 -0.000229 0
0.678166 -0.000333 0
0.678208 -0.000417 0
0.678306 -0.000480 0
0.678451 -0.000528 0
0.678633 -0.000561 0
0.678844 -0.000583 0
0.679078 -0.000596 0
0.679330 -0.000603 0
0.679595 -0.000607 0
0.679869 -0.000610 0
0.680152 -0.000615 0
0.680443 -0.000622 0
0.680741 -0.000635 0
0.681049 -0.000655 0
0.681368 -0.000684 0
0.681701 -0.000724 0
0.682054 -0.000776 0
0.682431 -0.000842 0
0.682838 -0.000924 0
0.683281 -0.001025 0
0.683770 -0.001145 0
0.684312 -0.001288 0
0.684919 -0.001456 0
0.685601 -0.001654 0
0.686372 -0.001884 0
0.687248 -0.002151 0
0.688244 -0.002461 0
0.689380 -0.002820 0
0.690678 -0.003234 0
0.692163 -0.003713 0
0.693864 -0.004266 0
0.695813 -0.004906 0
0.698049 -0.005646 0
0.700615 -0.006503 0
0.703562 -0.007498 0
0.706947 -0.008656 0
0.710838 -0.010005 0