# vtk DataFile Version 2.0
generated by CFD-lab course output (written by Tobias Neckel) 
ASCII

DATASET STRUCTURED_GRID
DIMENSIONS  142 42 1 
POINTS 5964 float

0.000000 0.250000 0
0.024648 0.250000 0
0.049296 0.250000 0
0.073944 0.250000 0
0.098592 0.250000 0
0.123239 0.250000 0
0.147887 0.250000 0
0.172535 0.250000 0
0.197183 0.250000 0
0.221831 0.250000 0
0.246479 0.250000 0
0.271127 0.250000 0
0.295775 0.250000 0
0.320423 0.250000 0
0.345070 0.250000 0
0.369718 0.250000 0
0.394366 0.250000 0
0.419014 0.250000 0
0.443662 0.250000 0
0.468310 0.250000 0
0.492958 0.250000 0
0.517606 0.250000 0
0.542254 0.250000 0
0.566901 0.250000 0
0.591549 0.250000 0
0.616197 0.250000 0
0.640845 0.250000 0
0.665493 0.250000 0
0.690141 0.250000 0
0.714789 0.250000 0
0.739437 0.250000 0
0.764085 0.250000 0
0.788732 0.250000 0
0.813380 0.250000 0
0.838028 0.250000 0
0.862676 0.250000 0
0.887324 0.250000 0
0.911972 0.250000 0
0.936620 0.250000 0
0.961268 0.250000 0
0.985915 0.250000 0
1.010563 0.250000 0
1.035211 0.250000 0
1.059859 0.250000 0
1.084507 0.250000 0
1.109155 0.250000 0
1.133803 0.250000 0
1.158451 0.250000 0
1.183099 0.250000 0
1.207746 0.250000 0
1.232394 0.250000 0
1.257042 0.250000 0
1.281690 0.250000 0
1.306338 0.250000 0
1.330986 0.250000 0
1.355634 0.250000 0
1.380282 0.250000 0
1.404930 0.250000 0
1.429577 0.250000 0
1.454225 0.250000 0
1.478873 0.250000 0
1.503521 0.250000 0
1.528169 0.250000 0
1.552817 0.250000 0
1.577465 0.250000 0
1.602113 0.250000 0
1.626761 0.250000 0
1.651408 0.250000 0
1.676056 0.250000 0
1.700704 0.250000 0
1.725352 0.250000 0
1.750000 0.250000 0
1.774648 0.250000 0
1.799296 0.250000 0
1.823944 0.250000 0
1.848592 0.250000 0
1.873239 0.250000 0
1.897887 0.250000 0
1.922535 0.250000 0
1.947183 0.250000 0
1.971831 0.250000 0
1.996479 0.250000 0
2.021127 0.250000 0
2.045775 0.250000 0
2.070423 0.250000 0
2.095070 0.250000 0
2.119718 0.250000 0
2.144366 0.250000 0
2.169014 0.250000 0
2.193662 0.250000 0
2.218310 0.250000 0
2.242958 0.250000 0
2.267606 0.250000 0
2.292254 0.250000 0
2.316901 0.250000 0
2.341549 0.250000 0
2.366197 0.250000 0
2.390845 0.250000 0
2.415493 0.250000 0
2.440141 0.250000 0
2.464789 0.250000 0
2.489437 0.250000 0
2.514085 0.250000 0
2.538732 0.250000 0
2.563380 0.250000 0
2.588028 0.250000 0
2.612676 0.250000 0
2.637324 0.250000 0
2.661972 0.250000 0
2.686620 0.250000 0
2.711268 0.250000 0
2.735915 0.250000 0
2.760563 0.250000 0
2.785211 0.250000 0
2.809859 0.250000 0
2.834507 0.250000 0
2.859155 0.250000 0
2.883803 0.250000 0
2.908451 0.250000 0
2.933099 0.250000 0
2.957746 0.250000 0
2.982394 0.250000 0
3.007042 0.250000 0
3.031690 0.250000 0
3.056338 0.250000 0
3.080986 0.250000 0
3.105634 0.250000 0
3.130282 0.250000 0
3.154930 0.250000 0
3.179577 0.250000 0
3.204225 0.250000 0
3.228873 0.250000 0
3.253521 0.250000 0
3.278169 0.250000 0
3.302817 0.250000 0
3.327465 0.250000 0
3.352113 0.250000 0
3.376761 0.250000 0
3.401408 0.250000 0
3.426056 0.250000 0
3.450704 0.250000 0
3.475352 0.250000 0
0.000000 0.261905 0
0.024648 0.261905 0
0.049296 0.261905 0
0.073944 0.261905 0
0.098592 0.261905 0
0.123239 0.261905 0
0.147887 0.261905 0
0.172535 0.261905 0
0.197183 0.261905 0
0.221831 0.261905 0
0.246479 0.261905 0
0.271127 0.261905 0
0.295775 0.261905 0
0.320423 0.261905 0
0.345070 0.261905 0
0.369718 0.261905 0
0.394366 0.261905 0
0.419014 0.261905 0
0.443662 0.261905 0
0.468310 0.261905 0
0.492958 0.261905 0
0.517606 0.261905 0
0.542254 0.261905 0
0.566901 0.261905 0
0.591549 0.261905 0
0.616197 0.261905 0
0.640845 0.261905 0
0.665493 0.261905 0
0.690141 0.261905 0
0.714789 0.261905 0
0.739437 0.261905 0
0.764085 0.261905 0
0.788732 0.261905 0
0.813380 0.261905 0
0.838028 0.261905 0
0.862676 0.261905 0
0.887324 0.261905 0
0.911972 0.261905 0
0.936620 0.261905 0
0.961268 0.261905 0
0.985915 0.261905 0
1.010563 0.261905 0
1.035211 0.261905 0
1.059859 0.261905 0
1.084507 0.261905 0
1.109155 0.261905 0
1.133803 0.261905 0
1.158451 0.261905 0
1.183099 0.261905 0
1.207746 0.261905 0
1.232394 0.261905 0
1.257042 0.261905 0
1.281690 0.261905 0
1.306338 0.261905 0
1.330986 0.261905 0
1.355634 0.261905 0
1.380282 0.261905 0
1.404930 0.261905 0
1.429577 0.261905 0
1.454225 0.261905 0
1.478873 0.261905 0
1.503521 0.261905 0
1.528169 0.261905 0
1.552817 0.261905 0
1.577465 0.261905 0
1.602113 0.261905 0
1.626761 0.261905 0
1.651408 0.261905 0
1.676056 0.261905 0
1.700704 0.261905 0
1.725352 0.261905 0
1.750000 0.261905 0
1.774648 0.261905 0
1.799296 0.261905 0
1.823944 0.261905 0
1.848592 0.261905 0
1.873239 0.261905 0
1.897887 0.261905 0
1.922535 0.261905 0
1.947183 0.261905 0
1.971831 0.261905 0
1.996479 0.261905 0
2.021127 0.261905 0
2.045775 0.261905 0
2.070423 0.261905 0
2.095070 0.261905 0
2.119718 0.261905 0
2.144366 0.261905 0
2.169014 0.261905 0
2.193662 0.261905 0
2.218310 0.261905 0
2.242958 0.261905 0
2.267606 0.261905 0
2.292254 0.261905 0
2.316901 0.261905 0
2.341549 0.261905 0
2.366197 0.261905 0
2.390845 0.261905 0
2.415493 0.261905 0
2.440141 0.261905 0
2.464789 0.261905 0
2.489437 0.261905 0
2.514085 0.261905 0
2.538732 0.261905 0
2.563380 0.261905 0
2.588028 0.261905 0
2.612676 0.261905 0
2.637324 0.261905 0
2.661972 0.261905 0
2.686620 0.261905 0
2.711268 0.261905 0
2.735915 0.261905 0
2.760563 0.261905 0
2.785211 0.261905 0
2.809859 0.261905 0
2.834507 0.261905 0
2.859155 0.261905 0
2.883803 0.261905 0
2.908451 0.261905 0
2.933099 0.261905 0
2.957746 0.261905 0
2.982394 0.261905 0
3.007042 0.261905 0
3.031690 0.261905 0
3.056338 0.261905 0
3.080986 0.261905 0
3.105634 0.261905 0
3.130282 0.261905 0
3.154930 0.261905 0
3.179577 0.261905 0
3.204225 0.261905 0
3.228873 0.261905 0
3.253521 0.261905 0
3.278169 0.261905 0
3.302817 0.261905 0
3.327465 0.261905 0
3.352113 0.261905 0
3.376761 0.261905 0
3.401408 0.261905 0
3.426056 0.261905 0
3.450704 0.261905 0
3.475352 0.261905 0
0.000000 0.273810 0
0.024648 0.273810 0
0.049296 0.273810 0
0.073944 0.273810 0
0.098592 0.273810 0
0.123239 0.273810 0
0.147887 0.273810 0
0.172535 0.273810 0
0.197183 0.273810 0
0.221831 0.273810 0
0.246479 0.273810 0
0.271127 0.273810 0
0.295775 0.273810 0
0.320423 0.273810 0
0.345070 0.273810 0
0.369718 0.273810 0
0.394366 0.273810 0
0.419014 0.273810 0
0.443662 0.273810 0
0.468310 0.273810 0
0.492958 0.273810 0
0.517606 0.273810 0
0.542254 0.273810 0
0.566901 0.273810 0
0.591549 0.273810 0
0.616197 0.273810 0
0.640845 0.273810 0
0.665493 0.273810 0
0.690141 0.273810 0
0.714789 0.273810 0
0.739437 0.273810 0
0.764085 0.273810 0
0.788732 0.273810 0
0.813380 0.273810 0
0.838028 0.273810 0
0.862676 0.273810 0
0.887324 0.273810 0
0.911972 0.273810 0
0.936620 0.273810 0
0.961268 0.273810 0
0.985915 0.273810 0
1.010563 0.273810 0
1.035211 0.273810 0
1.059859 0.273810 0
1.084507 0.273810 0
1.109155 0.273810 0
1.133803 0.273810 0
1.158451 0.273810 0
1.183099 0.273810 0
1.207746 0.273810 0
1.232394 0.273810 0
1.257042 0.273810 0
1.281690 0.273810 0
1.306338 0.273810 0
1.330986 0.273810 0
1.355634 0.273810 0
1.380282 0.273810 0
1.404930 0.273810 0
1.429577 0.273810 0
1.454225 0.273810 0
1.478873 0.273810 0
1.503521 0.273810 0
1.528169 0.273810 0
1.552817 0.273810 0
1.577465 0.273810 0
1.602113 0.273810 0
1.626761 0.273810 0
1.651408 0.273810 0
1.676056 0.273810 0
1.700704 0.273810 0
1.725352 0.273810 0
1.750000 0.273810 0
1.774648 0.273810 0
1.799296 0.273810 0
1.823944 0.273810 0
1.848592 0.273810 0
1.873239 0.273810 0
1.897887 0.273810 0
1.922535 0.273810 0
1.947183 0.273810 0
1.971831 0.273810 0
1.996479 0.273810 0
2.021127 0.273810 0
2.045775 0.273810 0
2.070423 0.273810 0
2.095070 0.273810 0
2.119718 0.273810 0
2.144366 0.273810 0
2.169014 0.273810 0
2.193662 0.273810 0
2.218310 0.273810 0
2.242958 0.273810 0
2.267606 0.273810 0
2.292254 0.273810 0
2.316901 0.273810 0
2.341549 0.273810 0
2.366197 0.273810 0
2.390845 0.273810 0
2.415493 0.273810 0
2.440141 0.273810 0
2.464789 0.273810 0
2.489437 0.273810 0
2.514085 0.273810 0
2.538732 0.273810 0
2.563380 0.273810 0
2.588028 0.273810 0
2.612676 0.273810 0
2.637324 0.273810 0
2.661972 0.273810 0
2.686620 0.273810 0
2.711268 0.273810 0
2.735915 0.273810 0
2.760563 0.273810 0
2.785211 0.273810 0
2.809859 0.273810 0
2.834507 0.273810 0
2.859155 0.273810 0
2.883803 0.273810 0
2.908451 0.273810 0
2.933099 0.273810 0
2.957746 0.273810 0
2.982394 0.273810 0
3.007042 0.273810 0
3.031690 0.273810 0
3.056338 0.273810 0
3.080986 0.273810 0
3.105634 0.273810 0
3.130282 0.273810 0
3.154930 0.273810 0
3.179577 0.273810 0
3.204225 0.273810 0
3.228873 0.273810 0
3.253521 0.273810 0
3.278169 0.273810 0
3.302817 0.273810 0
3.327465 0.273810 0
3.352113 0.273810 0
3.376761 0.273810 0
3.401408 0.273810 0
3.426056 0.273810 0
3.450704 0.273810 0
3.475352 0.273810 0
0.000000 0.285714 0
0.024648 0.285714 0
0.049296 0.285714 0
0.073944 0.285714 0
0.098592 0.285714 0
0.123239 0.285714 0
0.147887 0.285714 0
0.172535 0.285714 0
0.197183 0.285714 0
0.221831 0.285714 0
0.246479 0.285714 0
0.271127 0.285714 0
0.295775 0.285714 0
0.320423 0.285714 0
0.345070 0.285714 0
0.369718 0.285714 0
0.394366 0.285714 0
0.419014 0.285714 0
0.443662 0.285714 0
0.468310 0.285714 0
0.492958 0.285714 0
0.517606 0.285714 0
0.542254 0.285714 0
0.566901 0.285714 0
0.591549 0.285714 0
0.616197 0.285714 0
0.640845 0.285714 0
0.665493 0.285714 0
0.690141 0.285714 0
0.714789 0.285714 0
0.739437 0.285714 0
0.764085 0.285714 0
0.788732 0.285714 0
0.813380 0.285714 0
0.838028 0.285714 0
0.862676 0.285714 0
0.887324 0.285714 0
0.911972 0.285714 0
0.936620 0.285714 0
0.961268 0.285714 0
0.985915 0.285714 0
1.010563 0.285714 0
1.035211 0.285714 0
1.059859 0.285714 0
1.084507 0.285714 0
1.109155 0.285714 0
1.133803 0.285714 0
1.158451 0.285714 0
1.183099 0.285714 0
1.207746 0.285714 0
1.232394 0.285714 0
1.257042 0.285714 0
1.281690 0.285714 0
1.306338 0.285714 0
1.330986 0.285714 0
1.355634 0.285714 0
1.380282 0.285714 0
1.404930 0.285714 0
1.429577 0.285714 0
1.454225 0.285714 0
1.478873 0.285714 0
1.503521 0.285714 0
1.528169 0.285714 0
1.552817 0.285714 0
1.577465 0.285714 0
[...]
POINT_DATA 5964 

VECTORS velocity float
1.000000 0.000000 0
0.999854 0.000000 0
0.999556 0.000000 0
0.999097 0.000000 0
0.998458 0.000000 0
0.997615 0.000000 0
0.996532 0.000000 0
0.995162 0.000000 0
0.993440 0.000000 0
0.991275 0.000000 0
0.988543 0.000000 0
0.985062 0.000000 0
0.980562 0.000000 0
0.974615 0.000000 0
0.966518 0.000000 0
0.954935 0.000000 0
0.937385 0.000000 0
0.905762 0.000000 0
0.847695 0.000000 0
-0.000000 0.000000 0
-0.000000 0.000000 0
-0.000000 0.000000 0
-0.000000 0.000000 0
-0.000000 0.000000 0
-0.000000 0.000000 0
-0.000000 0.000000 0
-0.000000 0.000000 0
-0.000000 0.000000 0
-0.000000 0.000000 0
-0.000000 0.000000 0
-0.000000 0.000000 0
-0.000000 0.000000 0
-0.000000 0.000000 0
-0.000000 0.000000 0
-0.000000 0.000000 0
-0.000000 0.000000 0
-0.000000 0.000000 0
-0.000000 0.000000 0
-0.000000 0.000000 0
-0.000000 0.000000 0
-0.000000 0.000000 0
-0.000000 0.000000 0
-0.000000 0.000000 0
-0.000000 0.000000 0
-0.000000 0.000000 0
-0.000000 0.000000 0
-0.000000 0.000000 0
-0.000000 0.000000 0
-0.000000 0.000000 0
-0.000000 0.000000 0
-0.000000 0.000000 0
-0.000000 0.000000 0
-0.000000 0.000000 0
-0.000000 0.000000 0
-0.000000 0.000000 0
-0.000000 0.000000 0
-0.000000 0.000000 0
-0.000000 0.000000 0
-0.000000 0.000000 0
-0.000000 0.000000 0
-0.000000 0.000000 0
-0.000000 0.000000 0
-0.000000 0.000000 0
-0.000000 0.000000 0
-0.000000 0.000000 0
-0.000000 0.000000 0
-0.000000 0.000000 0
-0.000000 0.000000 0
-0.000000 0.000000 0
-0.000000 0.000000 0
-0.000000 0.000000 0
-0.000000 0.000000 0
-0.000000 0.000000 0
-0.000000 0.000000 0
-0.000000 0.000000 0
-0.000000 0.000000 0
-0.000000 0.000000 0
-0.000000 0.000000 0
-0.000000 0.000000 0
-0.000000 0.000000 0
-0.000000 0.000000 0
-0.000000 0.000000 0
-0.000000 0.000000 0
-0.000000 0.000000 0
-0.000000 0.000000 0
-0.000000 0.000000 0
-0.000000 0.000000 0
-0.000000 0.000000 0
-0.000001 0.000000 0
-0.000001 0.000000 0
-0.000001 0.000000 0
-0.000001 0.000000 0
-0.000001 0.000000 0
-0.000001 0.000000 0
-0.000001 0.000000 0
-0.000001 0.000000 0
-0.000001 0.000000 0
-0.000001 0.000000 0
-0.000001 0.000000 0
-0.000001 0.000000 0
-0.000001 0.000000 0
-0.000001 0.000000 0
-0.000001 0.000000 0
-0.000001 0.000000 0
-0.000001 0.000000 0
-0.000001 0.000000 0
-0.000001 0.000000 0
-0.000001 0.000000 0
-0.000001 0.000000 0
-0.000001 0.000000 0
-0.000001 0.000000 0
-0.000001 0.000000 0
-0.000001 0.000000 0
-0.000001 0.000000 0
-0.000001 0.000000 0
-0.000001 0.000000 0
-0.000001 0.000000 0
-0.000001 0.000000 0
-0.000001 0.000000 0
-0.000001 0.000000 0
-0.000001 0.000000 0
-0.000001 0.000000 0
-0.000001 0.000000 0
-0.000001 0.000000 0
-0.000001 0.000000 0
-0.000001 0.000000 0
-0.000001 0.000000 0
-0.000001 0.000000 0
-0.000001 0.000000 0
-0.000001 0.000000 0
-0.000001 0.000000 0
-0.000001 0.000000 0
-0.000001 0.000000 0
-0.000001 0.000000 0
-0.000001 0.000000 0
-0.000000 0.000000 0
-0.000000 0.000000 0
-0.000000 0.000000 0
0.000000 0.000000 0
0.000000 0.000000 0
-0.000000 0.000000 0
0.496588 0.000000 0
1.000000 0.000035 0
0.999854 0.000107 0
0.999558 0.000183 0
0.999101 0.000265 0
0.998465 0.000358 0
0.997626 0.000465 0
0.996549 0.000592 0
0.995186 0.000747 0
0.993475 0.000939 0
0.991325 0.001182 0
0.988614 0.001500 0
0.985165 0.001928 0
0.980714 0.002523 0
0.974851 0.003392 0
0.966904 0.004753 0
0.955642 0.007036 0
0.938826 0.011875 0
0.910182 0.021660 0
0.860877 0.078853 0
0.714889 0.110956 0
0.576507 0.072745 0
0.473020 0.041074 0
0.401070 0.022638 0
0.351167 0.013308 0
0.315505 0.008679 0
0.289000 0.006202 0
0.268561 0.004718 0
0.252302 0.003739 0
0.239036 0.003050 0
0.227990 0.002542 0
0.218636 0.002156 0
0.210604 0.001855 0
0.203624 0.001614 0
0.197497 0.001420 0
0.192072 0.001260 0
0.187231 0.001126 0
0.182880 0.001014 0
0.178946 0.000919 0
0.175370 0.000837 0
0.172101 0.000766 0
0.169100 0.000705 0
0.166333 0.000651 0
0.163772 0.000604 0
0.161392 0.000562 0
0.159174 0.000525 0
0.157100 0.000492 0
0.155155 0.000462 0
0.153326 0.000435 0
0.151602 0.000411 0
0.149973 0.000389 0
0.148431 0.000369 0
0.146968 0.000350 0
0.145577 0.000333 0
0.144253 0.000318 0
0.142990 0.000304 0
0.141784 0.000290 0
0.140632 0.000278 0
0.139528 0.000266 0
0.138471 0.000256 0
0.137457 0.000246 0
0.136483 0.000236 0
0.135548 0.000227 0
0.134648 0.000218 0
0.133784 0.000210 0
0.132952 0.000203 0
0.132151 0.000195 0
0.131379 0.000188 0
0.130637 0.000181 0
0.129922 0.000175 0
0.129234 0.000169 0
0.128571 0.000163 0
0.127934 0.000157 0
0.127321 0.000151 0
0.126731 0.000145 0
0.126165 0.000140 0
0.125622 0.000134 0
0.125102 0.000129 0
0.124604 0.000123 0
0.124129 0.000118 0
0.123676 0.000113 0
0.123245 0.000107 0
0.122837 0.000102 0
0.122452 0.000097 0
0.122091 0.000091 0
0.121753 0.000085 0
0.121439 0.000079 0
0.121149 0.000073 0
0.120885 0.000067 0
0.120647 0.000060 0
0.120434 0.000054 0
0.120249 0.000047 0
0.120090 0.000040 0
0.119958 0.000033 0
0.119854 0.000026 0
0.119778 0.000018 0
0.119729 0.000011 0
0.119709 0.000003 0
0.119717 -0.000004 0
0.119751 -0.000011 0
0.119810 -0.000019 0
0.119896 -0.000026 0
0.120007 -0.000033 0
0.120144 -0.000041 0
0.120309 -0.000049 0
0.120501 -0.000057 0
0.120724 -0.000066 0
0.120979 -0.000076 0
0.121271 -0.000086 0
0.121602 -0.000098 0
0.121977 -0.000112 0
0.122404 -0.000127 0
0.122889 -0.000145 0
0.123440 -0.000165 0
0.124067 -0.000188 0
0.124783 -0.000215 0
0.125602 -0.000246 0
0.126539 -0.000283 0
0.127615 -0.000325 0
0.128853 -0.000375 0
0.130279 -0.000434 0
0.131927 -0.000502 0
0.133836 -0.000584 0
0.136052 -0.000681 0
0.138634 -0.000797 0
0.141652 -0.000936 0
0.145193 -0.001106 0
0.149369 -0.001314 0
0.154321 -0.001572 0
0.160231 -0.001896 0
0.167340 -0.002311 0
0.175976 -0.002852 0
0.186587 -0.003574 0
0.199816 -0.004567 0
0.216608 -0.005985 0
0.238413 -0.008104 0
0.267573 -0.011478 0
0.308135 -0.017274 0
0.367413 -0.028925 0
0.462158 -0.051322 0
0.617989 -0.167127 0
0.993488 -0.268484 0
0.993488 -0.134242 0
1.000000 0.000070 0
0.999856 0.000213 0
0.999564 0.000364 0
0.999113 0.000528 0
0.998486 0.000712 0
0.997659 0.000926 0
0.996599 0.001178 0
0.995259 0.001485 0
0.993579 0.001865 0
0.991473 0.002347 0
0.988825 0.002975 0
0.985469 0.003816 0
0.981163 0.004982 0
0.975541 0.006670 0
0.968026 0.009278 0
0.957650 0.013561 0
0.942786 0.021957 0
0.920696 0.037649 0
0.888372 0.094325 0
0.891002 0.137349 0
0.842152 0.116821 0
0.771622 0.084735 0
0.701228 0.058854 0
0.639926 0.041327 0
0.589265 0.030026 0
0.547933 0.022673 0
0.514052 0.017725 0
0.485966 0.014260 0
0.462385 0.011742 0
0.442340 0.009853 0
0.425103 0.008398 0
0.410129 0.007251 0
0.396999 0.006330 0
0.385391 0.005579 0
0.375052 0.004959 0
0.365782 0.004440 0
0.357420 0.004001 0
0.349836 0.003627 0
0.342923 0.003306 0
0.336591 0.003028 0
0.330768 0.002786 0
0.325392 0.002573 0
0.320409 0.002386 0
0.315776 0.002221 0
0.311455 0.002073 0
0.307412 0.001941 0
0.303619 0.001823 0
0.300052 0.001716 0
0.296689 0.001619 0
0.293512 0.001532 0
0.290504 0.001452 0
0.287650 0.001378 0
0.284939 0.001311 0
0.282358 0.001249 0
0.279897 0.001192 0
0.277549 0.001139 0
0.275304 0.001090 0
0.273157 0.001044 0
0.271099 0.001001 0
0.269127 0.000960 0
0.267235 0.000922 0
0.265418 0.000886 0
0.263672 0.000852 0
0.261994 0.000820 0
0.260381 0.000789 0
0.258828 0.000759 0
0.257335 0.000731 0
0.255899 0.000704 0
0.254517 0.000678 0
0.253188 0.000652 0
0.251909 0.000628 0
0.250681 0.000604 0
0.249500 0.000581 0
0.248368 0.000558 0
0.247281 0.000536 0
0.246241 0.000514 0
0.245246 0.000492 0
0.244296 0.000470 0
0.243390 0.000448 0
0.242529 0.000427 0
0.241714 0.000405 0
0.240943 0.000383 0
0.240218 0.000361 0
0.239538 0.000338 0
0.238906 0.000315 0
0.238321 0.000291 0
0.237783 0.000267 0
0.237295 0.000243 0
0.236856 0.000218 0
0.236466 0.000192 0
0.236127 0.000166 0
0.235838 0.000140 0
0.235600 0.000114 0
0.235412 0.000087 0
0.235274 0.000060 0
0.235187 0.000033 0
0.235151 0.000006 0
0.235163 -0.000020 0
0.235223 -0.000045 0
0.235328 -0.000070 0
0.235477 -0.000095 0
0.235670 -0.000120 0
0.235909 -0.000146 0
0.236193 -0.000172 0
0.236525 -0.000201 0
0.236908 -0.000231 0
0.237346 -0.000264 0
0.237845 -0.000301 0
0.238410 -0.000341 0
0.239052 -0.000388 0
0.239778 -0.000440 0
0.240603 -0.000500 0
0.241539 -0.000569 0
0.242604 -0.000649 0
0.243819 -0.000741 0
0.245205 -0.000848 0
0.246791 -0.000973 0
0.248609 -0.001117 0
0.250696 -0.001287 0
0.253098 -0.001485 0
0.255868 -0.001718 0
0.259069 -0.001992 0
0.262776 -0.002317 0
0.267082 -0.002704 0
0.272099 -0.003168 0
0.277962 -0.003728 0
0.284843 -0.004409 0
0.292955 -0.005246 0
0.302573 -0.006288 0
0.314051 -0.007605 0
0.327855 -0.009296 0
0.344617 -0.011515 0
0.365203 -0.014500 0
0.390844 -0.018642 0
0.423332 -0.024616 0
0.465368 -0.033675 0
0.521196 -0.048222 0
0.597447 -0.074392 0
0.705428 -0.121026 0
0.859643 -0.256629 0
0.994205 -0.362727 0
0.994205 -0.181364 0
1.000000 0.000105 0
0.999859 0.000318 0
0.999574 0.000542 0
0.999133 0.000786 0
0.998521 0.001060 0
0.997714 0.001377 0
0.996681 0.001751 0
0.995379 0.002205 0
0.993750 0.002767 0
0.991715 0.003478 0
0.989169 0.004400 0
0.985963 0.005628 0
0.981888 0.007318 0
0.976643 0.009737 0
0.969783 0.013394 0
0.960674 0.019226 0
0.948432 0.029723 0
0.933030 0.047941 0
0.915088 0.093195 0
0.945333 0.133280 0
0.948629 0.130404 0
0.922943 0.109140 0
0.881987 0.086246 0
0.836597 0.067386 0
0.792548 0.053111 0
0.752217 0.042529 0
0.716236 0.034647 0
0.684471 0.028693 0
0.656504 0.024121 0
0.631850 0.020549 0
0.610043 0.017714 0
0.590670 0.015429 0
0.573377 0.013563 0
0.557866 0.012020 0
0.543885 0.010730 0
0.531225 0.009642 0
0.519711 0.008716 0
0.509194 0.007921 0
0.499550 0.007234 0
0.490674 0.006637 0
0.482476 0.006114 0
0.474878 0.005654 0
0.467815 0.005248 0
0.461229 0.004887 0
0.455072 0.004565 0
0.449300 0.004276 0
0.443876 0.004017 0
0.438768 0.003782 0
0.433946 0.003570 0
0.429385 0.003376 0
0.425063 0.003200 0
0.420960 0.003038 0
0.417058 0.002890 0
0.413343 0.002753 0
0.409800 0.002626 0
0.406416 0.002509 0
0.403181 0.002399 0
0.400086 0.002297 0
0.397120 0.002202 0
0.394276 0.002112 0
0.391548 0.002028 0
0.388928 0.001948 0
0.386411 0.001872 0
0.383991 0.001800 0
0.381665 0.001732 0
0.379428 0.001666 0
0.377276 0.001603 0
0.375206 0.001543 0
0.373216 0.001484 0
0.371302 0.001428 0
0.369462 0.001373 0
0.367694 0.001320 0
0.365997 0.001268 0
0.364370 0.001217 0
0.362810 0.001167 0
0.361317 0.001117 0
0.359890 0.001068 0
0.358529 0.001020 0
0.357234 0.000971 0
0.356004 0.000923 0
0.354839 0.000874 0
0.353740 0.000825 0
0.352707 0.000775 0
0.351741 0.000724 0
0.350843 0.000673 0
0.350012 0.000621 0
0.349250 0.000569 0
0.348558 0.000515 0
0.347935 0.000461 0
0.347382 0.000406 0
0.346899 0.000350 0
0.346487 0.000295 0
0.346144 0.000239 0
0.345871 0.000183 0
0.345665 0.000127 0
0.345528 0.000070 0
0.345457 0.000015 0
0.345453 -0.000039 0
0.345512 -0.000091 0
0.345632 -0.000141 0
0.345811 -0.000191 0
0.346048 -0.000242 0
0.346344 -0.000293 0
0.346699 -0.000346 0
0.347115 -0.000402 0
0.347597 -0.000462 0
0.348149 -0.000528 0
0.348777 -0.000600 0
0.349490 -0.000681 0
0.350299 -0.000772 0
0.351214 -0.000876 0
0.352252 -0.000995 0
0.353430 -0.001132 0
0.354769 -0.001289 0
0.356293 -0.001471 0
0.358031 -0.001682 0
0.360017 -0.001927 0
0.362291 -0.002212 0
0.364897 -0.002544 0
0.367892 -0.002932 0
0.371337 -0.003386 0
0.375309 -0.003921 0
0.379898 -0.004551 0
0.385212 -0.005299 0
0.391380 -0.006191 0
0.398559 -0.007261 0
0.406943 -0.008555 0
0.416771 -0.010135 0
0.428342 -0.012085 0
0.442038 -0.014522 0
0.458347 -0.017615 0
0.477910 -0.021613 0
0.501577 -0.026895 0
0.530500 -0.034060 0
0.566261 -0.044098 0
0.611050 -0.058745 0
0.667902 -0.081067 0
0.740671 -0.117908 0
0.832761 -0.177961 0
0.943500 -0.306604 0
0.995012 -0.398469 0
0.995012 -0.199234 0
1.000000 0.000138 0
0.999864 0.000419 0
0.999587 0.000715 0
0.999160 0.001037 0
0.998568 0.001398 0
0.997790 0.001814 0
0.996794 0.002306 0
0.995543 0.002901 0
0.993983 0.003635 0
0.992045 0.004560 0
0.989635 0.005754 0
0.986628 0.007332 0
0.982855 0.009483 0
0.978090 0.012517 0
0.972037 0.016990 0
0.964383 0.023874 0
0.954907 0.035309 0
0.945021 0.053754 0
0.937270 0.088383 0
0.965710 0.121149 0
0.987887 0.127635 0
0.990075 0.116923 0
0.975772 0.100559 0
0.951743 0.084526 0
0.923227 0.070781 0
0.893440 0.059532 0
0.864163 0.050446 0
0.836308 0.043110 0
0.810286 0.037158 0
0.786224 0.032294 0
0.764099 0.028287 0
0.743809 0.024960 0
0.725213 0.022174 0
0.708162 0.019824 0
0.692507 0.017826 0
0.678108 0.016116 0
0.664835 0.014642 0
0.652572 0.013365 0
0.641216 0.012251 0
0.630673 0.011275 0
0.620862 0.010415 0
0.611710 0.009655 0
0.603154 0.008979 0
0.595135 0.008375 0
0.587605 0.007835 0
0.580518 0.007349 0
0.573835 0.006910 0
0.567521 0.006513 0
0.561544 0.006151 0
0.555878 0.005822 0
0.550496 0.005521 0
0.545377 0.005245 0
0.540502 0.004990 0
0.535851 0.004755 0
0.531409 0.004538 0
0.527163 0.004336 0
0.523098 0.004147 0
0.519204 0.003971 0
0.515471 0.003806 0
0.511887 0.003651 0
0.508446 0.003505 0
0.505140 0.003367 0
0.501961 0.003236 0
0.498905 0.003112 0
0.495964 0.002993 0
0.493134 0.002879 0
0.490412 0.002770 0
0.487792 0.002665 0
0.485271 0.002564 0
0.482846 0.002466 0
0.480515 0.002370 0
0.478276 0.002277 0
0.476125 0.002187 0
0.474061 0.002098 0
0.472084 0.002010 0
0.470191 0.001924 0
0.468382 0.001838 0
0.466656 0.001753 0
0.465013 0.001668 0
0.463453 0.001583 0
0.461975 0.001498 0
0.460581 0.001413 0
0.459270 0.001326 0
0.458043 0.001239 0
0.456900 0.001150 0
0.455843 0.001061 0
0.454871 0.000970 0
0.453985 0.000878 0
0.453185 0.000786 0
0.452472 0.000692 0
0.451845 0.000599 0
0.451304 0.000505 0
0.450847 0.000412 0
0.450474 0.000318 0
0.450184 0.000226 0
0.449974 0.000134 0
0.449843 0.000042 0
0.449791 -0.000047 0
0.449816 -0.000132 0
0.449915 -0.000215 0
0.450085 -0.000296 0
0.450324 -0.000377 0
0.450632 -0.000460 0
0.451010 -0.000545 0
0.451459 -0.000634 0
0.451983 -0.000730 0
0.452587 -0.000834 0
0.453278 -0.000948 0
0.454065 -0.001076 0
0.454958 -0.001220 0
0.455970 -0.001384 0
0.457118 -0.001570 0
0.458421 -0.001785 0
0.459902 -0.002032 0
0.461586 -0.002317 0
0.463506 -0.002647 0
0.465696 -0.003030 0
0.468200 -0.003474 0
0.471067 -0.003992 0
0.474354 -0.004595 0
0.478129 -0.005300 0
0.482472 -0.006127 0
0.487476 -0.007100 0
0.493253 -0.008250 0
0.499935 -0.009615 0
0.507683 -0.011245 0
0.516687 -0.013205 0
0.527184 -0.015582 0
0.539463 -0.018492 0
0.553880 -0.022097 0
0.570887 -0.026622 0
0.591051 -0.032395 0
0.615098 -0.039901 0
0.643959 -0.049884 0
0.678821 -0.063521 0
0.721157 -0.082767 0
0.772638 -0.110828 0
0.834603 -0.154018 0
0.905481 -0.218991 0
0.977704 -0.334995 0
0.995781 -0.412486 0
0.995781 -0.206243 0
1.000000 0.000170 0
0.999869 0.000517 0
0.999604 0.000882 0
0.999195 0.001278 0
0.998628 0.001722 0
0.997884 0.002233 0
0.996936 0.002836 0
0.995748 0.003563 0
0.994274 0.004457 0
0.992454 0.005579 0
0.990209 0.007017 0
0.987441 0.008903 0
0.984023 0.011442 0
0.979806 0.014962 0
0.974638 0.020014 0
0.968469 0.027500 0
0.961561 0.039075 0
0.955833 0.056460 0
0.954478 0.083203 0
0.976674 0.108833 0
1.001713 0.118636 0
1.016362 0.114991 0
1.018682 0.104760 0
1.011398 0.092764 0
0.997805 0.081272 0
0.980484 0.071057 0
0.961212 0.062241 0
0.941156 0.054716 0
0.921068 0.048311 0
0.901418 0.042857 0
0.882488 0.038200 0
0.864436 0.034211 0
0.847336 0.030780 0
0.831206 0.027817 0
0.816033 0.025247 0
0.801781 0.023008 0
0.788403 0.021049 0
0.775845 0.019329 0
0.764052 0.017811 0
0.752968 0.016467 0
0.742542 0.015273 0
0.732722 0.014207 0
0.723462 0.013254 0
0.714717 0.012397 0
0.706449 0.011625 0
0.698619 0.010927 0
0.691195 0.010294 0
0.684146 0.009718 0
0.677444 0.009193 0
0.671063 0.008713 0
0.664981 0.008272 0
0.659176 0.007866 0
0.653629 0.007491 0
0.648324 0.007144 0
0.643245 0.006822 0
0.638377 0.006523 0
0.633708 0.006243 0
0.629225 0.005982 0
0.624919 0.005736 0
0.620779 0.005505 0
0.616798 0.005286 0
0.612966 0.005080 0
0.609277 0.004884 0
0.605725 0.004697 0
0.602303 0.004519 0
0.599007 0.004348 0
0.595832 0.004184 0
0.592773 0.004026 0
0.589828 0.003873 0
0.586991 0.003725 0
0.584262 0.003581 0
0.581637 0.003441 0
0.579114 0.003303 0
0.576691 0.003169 0
0.574367 0.003036 0
0.572141 0.002905 0
0.570011 0.002776 0
0.567977 0.002647 0
0.566039 0.002518 0
0.564197 0.002390 0
0.562450 0.002261 0
0.560798 0.002131 0
0.559243 0.002001 0
0.557784 0.001869 0
0.556423 0.001736 0
0.555158 0.001602 0
0.553992 0.001466 0
0.552923 0.001329 0
0.551953 0.001191 0
0.551081 0.001053 0
0.550306 0.000915 0
0.549628 0.000777 0
0.549047 0.000639 0
0.548559 0.000503 0
0.548164 0.000368 0
0.547860 0.000235 0
0.547643 0.000103 0
0.547512 -0.000026 0
0.547468 -0.000151 0
0.547509 -0.000271 0
0.547631 -0.000389 0
0.547831 -0.000506 0
0.548109 -0.000624 0
0.548465 -0.000746 0
0.548900 -0.000872 0
0.549417 -0.001007 0
0.550020 -0.001153 0
0.550717 -0.001314 0
0.551515 -0.001492 0
0.552426 -0.001693 0
0.553462 -0.001920 0
0.554640 -0.002179 0
0.555978 -0.002476 0
0.557498 -0.002818 0
0.559229 -0.003212 0
0.561200 -0.003667 0
0.563448 -0.004194 0
0.566015 -0.004806 0
0.568950 -0.005516 0
0.572311 -0.006343 0
0.576163 -0.007307 0
0.580586 -0.008435 0
0.585670 -0.009758 0
0.591522 -0.011317 0
0.598270 -0.013160 0
0.606064 -0.015352 0
0.615082 -0.017975 0
0.625541 -0.021136 0
0.637698 -0.024979 0
0.651868 -0.029700 0
0.668432 -0.035568 0
0.687857 -0.042967 0
0.710708 -0.052449 0
0.737662 -0.064838 0
0.769499 -0.081385 0
0.807021 -0.104058 0
0.850781 -0.135861 0
0.900365 -0.182071 0
0.951836 -0.247077 0
0.996201 -0.350218 0
0.996479 -0.415929 0
0.996479 -0.207964 0
1.000000 0.000201 0
0.999876 0.000611 0
0.999624 0.001041 0
0.999236 0.001508 0
0.998699 0.002031 0
0.997997 0.002631 0
0.997104 0.003338 0
0.995990 0.004186 0
0.994617 0.005226 0
0.992933 0.006523 0
0.990877 0.008175 0
0.988376 0.010321 0
0.985348 0.013171 0
0.981715 0.017049 0
0.977447 0.022466 0
0.972685 0.030190 0
0.967983 0.041412 0
0.965255 0.057175 0
0.967536 0.078317 0
0.984751 0.098334 0
1.007165 0.108466 0
1.025320 0.108727 0
1.035736 0.102957 0
1.038736 0.094609 0
1.035902 0.085712 0
1.028859 0.077206 0
1.018922 0.069441 0
1.007082 0.062500 0
0.994065 0.056351 0
0.980401 0.050927 0
0.966473 0.046149 0
0.952556 0.041938 0
0.938840 0.038224 0
0.925456 0.034943 0
0.912489 0.032038 0
0.899992 0.029461 0
0.887993 0.027169 0
0.876503 0.025126 0
0.865519 0.023300 0
0.855032 0.021664 0
0.845026 0.020194 0
0.835483 0.018870 0
0.826380 0.017675 0
0.817695 0.016592 0
0.809407 0.015610 0
0.801492 0.014716 0
0.793929 0.013900 0
0.786698 0.013154 0
0.779779 0.012471 0
0.773153 0.011842 0
0.766804 0.011262 0
0.760714 0.010727 0
0.754869 0.010231 0
0.749255 0.009771 0
0.743859 0.009342 0
0.738670 0.008942 0
0.733675 0.008568 0
0.728865 0.008216 0
0.724231 0.007886 0
0.719765 0.007574 0
0.715457 0.007279 0
0.711303 0.007000 0
0.707294 0.006734 0
0.703425 0.006480 0
0.699691 0.006237 0
0.696087 0.006005 0
0.692608 0.005781 0
0.689251 0.005565 0
0.686013 0.005356 0
0.682890 0.005154 0
0.679879 0.004956 0
0.676978 0.004764 0
0.674186 0.004575 0
0.671501 0.004390 0
0.668921 0.004208 0
0.666445 0.004028 0
0.664073 0.003849 0
0.661804 0.003671 0
0.659638 0.003494 0
0.657574 0.003317 0
0.655613 0.003140 0
0.653754 0.002961 0
0.651999 0.002782 0
0.650348 0.002601 0
0.648801 0.002419 0
0.647358 0.002235 0
0.646020 0.002049 0
0.644787 0.001863 0
0.643659 0.001675 0
0.642636 0.001488 0
0.641717 0.001300 0
0.640902 0.001113 0
0.640189 0.000928 0
0.639577 0.000745 0
0.639063 0.000564 0
0.638647 0.000386 0
0.638324 0.000210 0
0.638090 0.000038 0
0.637949 -0.000131 0
0.637899 -0.000293 0
0.637939 -0.000452 0
0.638064 -0.000608 0
0.638274 -0.000766 0
0.638569 -0.000927 0
0.638948 -0.001094 0
0.639415 -0.001271 0
0.639974 -0.001462 0
0.640629 -0.001671 0
0.641389 -0.001902 0
0.642264 -0.002160 0
0.643266 -0.002453 0
0.644410 -0.002785 0
0.645713 -0.003166 0
0.647198 -0.003602 0
0.648890 -0.004105 0
0.650818 -0.004685 0
0.653016 -0.005355 0
0.655526 -0.006132 0
0.658393 -0.007033 0
0.661671 -0.008079 0
0.665424 -0.009297 0
0.669724 -0.010719 0
0.674656 -0.012382 0
0.680319 -0.014336 0
0.686828 -0.016638 0
0.694320 -0.019365 0
0.702953 -0.022612 0