# vtk DataFile Version 2.0
generated by CFD-lab course output (written by Tobias Neckel) 
ASCII

DATASET STRUCTURED_GRID
DIMENSIONS  142 42 1 
POINTS 5964 float

0.000000 0.250000 0
0.024648 0.250000 0
0.049296 0.250000 0
0.073944 0.250000 0
0.098592 0.250000 0
0.123239 0.250000 0
0.147887 0.250000 0
0.172535 0.250000 0
0.197183 0.250000 0
0.221831 0.250000 0
0.246479 0.250000 0
0.271127 0.250000 0
0.295775 0.250000 0
0.320423 0.250000 0
0.345070 0.250000 0
0.369718 0.250000 0
0.394366 0.250000 0
0.419014 0.250000 0
0.443662 0.250000 0
0.468310 0.250000 0
0.492958 0.250000 0
0.517606 0.250000 0
0.542254 0.250000 0
0.566901 0.250000 0
0.591549 0.250000 0
0.616197 0.250000 0
0.640845 0.250000 0
0.665493 0.250000 0
0.690141 0.250000 0
0.714789 0.250000 0
0.739437 0.250000 0
0.764085 0.250000 0
0.788732 0.250000 0
0.813380 0.250000 0
0.838028 0.250000 0
0.862676 0.250000 0
0.887324 0.250000 0
0.911972 0.250000 0
0.936620 0.250000 0
0.961268 0.250000 0
0.985915 0.250000 0
1.010563 0.250000 0
1.035211 0.250000 0
1.059859 0.250000 0
1.084507 0.250000 0
1.109155 0.250000 0
1.133803 0.250000 0
1.158451 0.250000 0
1.183099 0.250000 0
1.207746 0.250000 0
1.232394 0.250000 0
1.257042 0.250000 0
1.281690 0.250000 0
1.306338 0.250000 0
1.330986 0.250000 0
1.355634 0.250000 0
1.380282 0.250000 0
1.404930 0.250000 0
1.429577 0.250000 0
1.454225 0.250000 0
1.478873 0.250000 0
1.503521 0.250000 0
1.528169 0.250000 0
1.552817 0.250000 0
1.577465 0.250000 0
1.602113 0.250000 0
1.626761 0.250000 0
1.651408 0.250000 0
1.676056 0.250000 0
1.700704 0.250000 0
1.725352 0.250000 0
1.750000 0.250000 0
1.774648 0.250000 0
1.799296 0.250000 0
1.823944 0.250000 0
1.848592 0.250000 0
1.873239 0.250000 0
1.897887 0.250000 0
1.922535 0.250000 0
1.947183 0.250000 0
1.971831 0.250000 0
1.996479 0.250000 0
2.021127 0.250000 0
2.045775 0.250000 0
2.070423 0.250000 0
2.095070 0.250000 0
2.119718 0.250000 0
2.144366 0.250000 0
2.169014 0.250000 0
2.193662 0.250000 0
2.218310 0.250000 0
2.242958 0.250000 0
2.267606 0.250000 0
2.292254 0.250000 0
2.316901 0.250000 0
2.341549 0.250000 0
2.366197 0.250000 0
2.390845 0.250000 0
2.415493 0.250000 0
2.440141 0.250000 0
2.464789 0.250000 0
2.489437 0.250000 0
2.514085 0.250000 0
2.538732 0.250000 0
2.563380 0.250000 0
2.588028 0.250000 0
2.612676 0.250000 0
2.637324 0.250000 0
2.661972 0.250000 0
2.686620 0.250000 0
2.711268 0.250000 0
2.735915 0.250000 0
2.760563 0.250000 0
2.785211 0.250000 0
2.809859 0.250000 0
2.834507 0.250000 0
2.859155 0.250000 0
2.883803 0.250000 0
2.908451 0.250000 0
2.933099 0.250000 0
2.957746 0.250000 0
2.982394 0.250000 0
3.007042 0.250000 0
3.031690 0.250000 0
3.056338 0.250000 0
3.080986 0.250000 0
3.105634 0.250000 0
3.130282 0.250000 0
3.154930 0.250000 0
3.179577 0.250000 0
3.204225 0.250000 0
3.228873 0.250000 0
3.253521 0.250000 0
3.278169 0.250000 0
3.302817 0.250000 0
3.327465 0.250000 0
3.352113 0.250000 0
3.376761 0.250000 0
3.401408 0.250000 0
3.426056 0.250000 0
3.450704 0.250000 0
3.475352 0.250000 0
0.000000 0.261905 0
0.024648 0.261905 0
0.049296 0.261905 0
0.073944 0.261905 0
0.098592 0.261905 0
0.123239 0.261905 0
0.147887 0.261905 0
0.172535 0.261905 0
0.197183 0.261905 0
0.221831 0.261905 0
0.246479 0.261905 0
0.271127 0.261905 0
0.295775 0.261905 0
0.320423 0.261905 0
0.345070 0.261905 0
0.369718 0.261905 0
0.394366 0.261905 0
0.419014 0.261905 0
0.443662 0.261905 0
0.468310 0.261905 0
0.492958 0.261905 0
0.517606 0.261905 0
0.542254 0.261905 0
0.566901 0.261905 0
0.591549 0.261905 0
0.616197 0.261905 0
0.640845 0.261905 0
0.665493 0.261905 0
0.690141 0.261905 0
0.714789 0.261905 0
0.739437 0.261905 0
0.764085 0.261905 0
0.788732 0.261905 0
0.813380 0.261905 0
0.838028 0.261905 0
0.862676 0.261905 0
0.887324 0.261905 0
0.911972 0.261905 0
0.936620 0.261905 0
0.961268 0.261905 0
0.985915 0.261905 0
1.010563 0.261905 0
1.035211 0.261905 0
1.059859 0.261905 0
1.084507 0.261905 0
1.109155 0.261905 0
1.133803 0.261905 0
1.158451 0.261905 0
1.183099 0.261905 0
1.207746 0.261905 0
1.232394 0.261905 0
1.257042 0.261905 0
1.281690 0.261905 0
1.306338 0.261905 0
1.330986 0.261905 0
1.355634 0.261905 0
1.380282 0.261905 0
1.404930 0.261905 0
1.429577 0.261905 0
1.454225 0.261905 0
1.478873 0.261905 0
1.503521 0.261905 0
1.528169 0.261905 0
1.552817 0.261905 0
1.577465 0.261905 0
1.602113 0.261905 0
1.626761 0.261905 0
1.651408 0.261905 0
1.676056 0.261905 0
1.700704 0.261905 0
1.725352 0.261905 0
1.750000 0.261905 0
1.774648 0.261905 0
1.799296 0.261905 0
1.823944 0.261905 0
1.848592 0.261905 0
1.873239 0.261905 0
1.897887 0.261905 0
1.922535 0.261905 0
1.947183 0.261905 0
1.971831 0.261905 0
1.996479 0.261905 0
2.021127 0.261905 0
2.045775 0.261905 0
2.070423 0.261905 0
2.095070 0.261905 0
2.119718 0.261905 0
2.144366 0.261905 0
2.169014 0.261905 0
2.193662 0.261905 0
2.218310 0.261905 0
2.242958 0.261905 0
2.267606 0.261905 0
2.292254 0.261905 0
2.316901 0.261905 0
2.341549 0.261905 0
2.366197 0.261905 0
2.390845 0.261905 0
2.415493 0.261905 0
2.440141 0.261905 0
2.464789 0.261905 0
2.489437 0.261905 0
2.514085 0.261905 0
2.538732 0.261905 0
2.563380 0.261905 0
2.588028 0.261905 0
2.612676 0.261905 0
2.637324 0.261905 0
2.661972 0.261905 0
2.686620 0.261905 0
2.711268 0.261905 0
2.735915 0.261905 0
2.760563 0.261905 0
2.785211 0.261905 0
2.809859 0.261905 0
2.834507 0.261905 0
2.859155 0.261905 0
2.883803 0.261905 0
2.908451 0.261905 0
2.933099 0.261905 0
2.957746 0.261905 0
2.982394 0.261905 0
3.007042 0.261905 0
3.031690 0.261905 0
3.056338 0.261905 0
3.080986 0.261905 0
3.105634 0.261905 0
3.130282 0.261905 0
3.154930 0.261905 0
3.179577 0.261905 0
3.204225 0.261905 0
3.228873 0.261905 0
3.253521 0.261905 0
3.278169 0.261905 0
3.302817 0.261905 0
3.327465 0.261905 0
3.352113 0.261905 0
3.376761 0.261905 0
3.401408 0.261905 0
3.426056 0.261905 0
3.450704 0.261905 0
3.475352 0.261905 0
0.000000 0.273810 0
0.024648 0.273810 0
0.049296 0.273810 0
0.073944 0.273810 0
0.098592 0.273810 0
0.123239 0.273810 0
0.147887 0.273810 0
0.172535 0.273810 0
0.197183 0.273810 0
0.221831 0.273810 0
0.246479 0.273810 0
0.271127 0.273810 0
0.295775 0.273810 0
0.320423 0.273810 0
0.345070 0.273810 0
0.369718 0.273810 0
0.394366 0.273810 0
0.419014 0.273810 0
0.443662 0.273810 0
0.468310 0.273810 0
0.492958 0.273810 0
0.517606 0.273810 0
0.542254 0.273810 0
0.566901 0.273810 0
0.591549 0.273810 0
0.616197 0.273810 0
0.640845 0.273810 0
0.665493 0.273810 0
0.690141 0.273810 0
0.714789 0.273810 0
0.739437 0.273810 0
0.764085 0.273810 0
0.788732 0.273810 0
0.813380 0.273810 0
0.838028 0.273810 0
0.862676 0.273810 0
0.887324 0.273810 0
0.911972 0.273810 0
0.936620 0.273810 0
0.961268 0.273810 0
0.985915 0.273810 0
1.010563 0.273810 0
1.035211 0.273810 0
1.059859 0.273810 0
1.084507 0.273810 0
1.109155 0.273810 0
1.133803 0.273810 0
1.158451 0.273810 0
1.183099 0.273810 0
1.207746 0.273810 0
1.232394 0.273810 0
1.257042 0.273810 0
1.281690 0.273810 0
1.306338 0.273810 0
1.330986 0.273810 0
1.355634 0.273810 0
1.380282 0.273810 0
1.404930 0.273810 0
1.429577 0.273810 0
1.454225 0.273810 0
1.478873 0.273810 0
1.503521 0.273810 0
1.528169 0.273810 0
1.552817 0.273810 0
1.577465 0.273810 0
1.602113 0.273810 0
1.626761 0.273810 0
1.651408 0.273810 0
1.676056 0.273810 0
1.700704 0.273810 0
1.725352 0.273810 0
1.750000 0.273810 0
1.774648 0.273810 0
1.799296 0.273810 0
1.823944 0.273810 0
1.848592 0.273810 0
1.873239 0.273810 0
1.897887 0.273810 0
1.922535 0.273810 0
1.947183 0.273810 0
1.971831 0.273810 0
1.996479 0.273810 0
2.021127 0.273810 0
2.045775 0.273810 0
2.070423 0.273810 0
2.095070 0.273810 0
2.119718 0.273810 0
2.144366 0.273810 0
2.169014 0.273810 0
2.193662 0.273810 0
2.218310 0.273810 0
2.242958 0.273810 0
2.267606 0.273810 0
2.292254 0.273810 0
2.316901 0.273810 0
2.341549 0.273810 0
2.366197 0.273810 0
2.390845 0.273810 0
2.415493 0.273810 0
2.440141 0.273810 0
2.464789 0.273810 0
2.489437 0.273810 0
2.514085 0.273810 0
2.538732 0.273810 0
2.563380 0.273810 0
2.588028 0.273810 0
2.612676 0.273810 0
2.637324 0.273810 0
2.661972 0.273810 0
2.686620 0.273810 0
2.711268 0.273810 0
2.735915 0.273810 0
2.760563 0.273810 0
2.785211 0.273810 0
2.809859 0.273810 0
2.834507 0.273810 0
2.859155 0.273810 0
2.883803 0.273810 0
2.908451 0.273810 0
2.933099 0.273810 0
2.957746 0.273810 0
2.982394 0.273810 0
3.007042 0.273810 0
3.031690 0.273810 0
3.056338 0.273810 0
3.080986 0.273810 0
3.105634 0.273810 0
3.130282 0.273810 0
3.154930 0.273810 0
3.179577 0.273810 0
3.204225 0.273810 0
3.228873 0.273810 0
3.253521 0.273810 0
3.278169 0.273810 0
3.302817 0.273810 0
3.327465 0.273810 0
3.352113 0.273810 0
3.376761 0.273810 0
3.401408 0.273810 0
3.426056 0.273810 0
3.450704 0.273810 0
3.475352 0.273810 0
0.000000 0.285714 0
0.024648 0.285714 0
0.049296 0.285714 0
0.073944 0.285714 0
0.098592 0.285714 0
0.123239 0.285714 0
0.147887 0.285714 0
0.172535 0.285714 0
0.197183 0.285714 0
0.221831 0.285714 0
0.246479 0.285714 0
0.271127 0.285714 0
0.295775 0.285714 0
0.320423 0.285714 0
0.345070 0.285714 0
0.369718 0.285714 0
0.394366 0.285714 0
0.419014 0.285714 0
0.443662 0.285714 0
0.468310 0.285714 0
0.492958 0.285714 0
0.517606 0.285714 0
0.542254 0.285714 0
0.566901 0.285714 0
0.591549 0.285714 0
0.616197 0.285714 0
0.640845 0.285714 0
0.665493 0.285714 0
0.690141 0.285714 0
0.714789 0.285714 0
0.739437 0.285714 0
0.764085 0.285714 0
0.788732 0.285714 0
0.813380 0.285714 0
0.838028 0.285714 0
0.862676 0.285714 0
0.887324 0.285714 0
0.911972 0.285714 0
0.936620 0.285714 0
0.961268 0.285714 0
0.985915 0.285714 0
1.010563 0.285714 0
1.035211 0.285714 0
1.059859 0.285714 0
1.084507 0.285714 0
1.109155 0.285714 0
1.133803 0.285714 0
1.158451 0.285714 0
1.183099 0.285714 0
1.207746 0.285714 0
1.232394 0.285714 0
1.257042 0.285714 0
1.281690 0.285714 0
1.306338 0.285714 0
1.330986 0.285714 0
1.355634 0.285714 0
1.380282 0.285714 0
1.404930 0.285714 0
1.429577 0.285714 0
1.454225 0.285714 0
1.478873 0.285714 0
1.503521 0.285714 0
1.528169 0.285714 0
1.552817 0.285714 0
1.577465 0.285714 0
[...]
POINT_DATA 5964 

VECTORS velocity float
1.000000 0.000000 0
0.999854 0.000000 0
0.999556 0.000000 0
0.999097 0.000000 0
0.998458 0.000000 0
0.997615 0.000000 0
0.996532 0.000000 0
0.995162 0.000000 0
0.993440 0.000000 0
0.991275 0.000000 0
0.988543 0.000000 0
0.985062 0.000000 0
0.980561 0.000000 0
0.974615 0.000000 0
0.966517 0.000000 0
0.954934 0.000000 0
0.937383 0.000000 0
0.905760 0.000000 0
0.847693 0.000000 0
-0.000000 0.000000 0
-0.000000 0.000000 0
-0.000000 0.000000 0
-0.000000 0.000000 0
-0.000000 0.000000 0
-0.000000 0.000000 0
-0.000000 0.000000 0
-0.000000 0.000000 0
-0.000000 0.000000 0
-0.000000 0.000000 0
-0.000000 0.000000 0
-0.000000 0.000000 0
-0.000000 0.000000 0
-0.000000 0.000000 0
-0.000000 0.000000 0
-0.000000 0.000000 0
-0.000000 0.000000 0
-0.000000 0.000000 0
-0.000000 0.000000 0
-0.000000 0.000000 0
-0.000000 0.000000 0
-0.000000 0.000000 0
-0.000000 0.000000 0
-0.000000 0.000000 0
-0.000000 0.000000 0
-0.000000 0.000000 0
-0.000000 0.000000 0
-0.000000 0.000000 0
-0.000000 0.000000 0
-0.000000 0.000000 0
-0.000000 0.000000 0
-0.000000 0.000000 0
-0.000000 0.000000 0
-0.000000 0.000000 0
-0.000000 0.000000 0
-0.000000 0.000000 0
-0.000000 0.000000 0
-0.000000 0.000000 0
-0.000000 0.000000 0
-0.000000 0.000000 0
-0.000000 0.000000 0
-0.000000 0.000000 0
-0.000000 0.000000 0
-0.000000 0.000000 0
-0.000000 0.000000 0
-0.000000 0.000000 0
-0.000000 0.000000 0
-0.000000 0.000000 0
-0.000000 0.000000 0
-0.000000 0.000000 0
-0.000000 0.000000 0
-0.000000 0.000000 0
-0.000000 0.000000 0
-0.000000 0.000000 0
-0.000000 0.000000 0
-0.000000 0.000000 0
-0.000000 0.000000 0
-0.000000 0.000000 0
-0.000000 0.000000 0
-0.000000 0.000000 0
-0.000000 0.000000 0
-0.000000 0.000000 0
-0.000000 0.000000 0
-0.000000 0.000000 0
-0.000000 0.000000 0
-0.000000 0.000000 0
-0.000000 0.000000 0
-0.000000 0.000000 0
-0.000000 0.000000 0
-0.000000 0.000000 0
-0.000000 0.000000 0
-0.000000 0.000000 0
-0.000000 0.000000 0
-0.000000 0.000000 0
-0.000000 0.000000 0
-0.000000 0.000000 0
-0.000000 0.000000 0
-0.000000 0.000000 0
-0.000000 0.000000 0
-0.000000 0.000000 0
-0.000000 0.000000 0
-0.000000 0.000000 0
-0.000000 0.000000 0
-0.000000 0.000000 0
-0.000000 0.000000 0
-0.000000 0.000000 0
-0.000000 0.000000 0
-0.000000 0.000000 0
-0.000000 0.000000 0
-0.000000 0.000000 0
-0.000000 0.000000 0
-0.000000 0.000000 0
-0.000000 0.000000 0
-0.000001 0.000000 0
-0.000001 0.000000 0
-0.000001 0.000000 0
-0.000001 0.000000 0
-0.000001 0.000000 0
-0.000001 0.000000 0
-0.000001 0.000000 0
-0.000001 0.000000 0
-0.000001 0.000000 0
-0.000001 0.000000 0
-0.000001 0.000000 0
-0.000001 0.000000 0
-0.000001 0.000000 0
-0.000001 0.000000 0
-0.000001 0.000000 0
-0.000001 0.000000 0
-0.000001 0.000000 0
-0.000001 0.000000 0
-0.000001 0.000000 0
-0.000001 0.000000 0
-0.000001 0.000000 0
-0.000001 0.000000 0
-0.000001 0.000000 0
-0.000000 0.000000 0
-0.000000 0.000000 0
-0.000000 0.000000 0
0.000000 0.000000 0
0.000000 0.000000 0
-0.000000 0.000000 0
0.496501 0.000000 0
1.000000 0.000035 0
0.999854 0.000107 0
0.999558 0.000183 0
0.999101 0.000265 0
0.998465 0.000358 0
0.997626 0.000465 0
0.996549 0.000592 0
0.995186 0.000747 0
0.993475 0.000939 0
0.991325 0.001182 0
0.988614 0.001500 0
0.985165 0.001928 0
0.980713 0.002523 0
0.974850 0.003392 0
0.966903 0.004753 0
0.955641 0.007036 0
0.938825 0.011875 0
0.910181 0.021660 0
0.860875 0.078853 0
0.714887 0.110956 0
0.576504 0.072745 0
0.473017 0.041074 0
0.401067 0.022638 0
0.351163 0.013309 0
0.315500 0.008679 0
0.288995 0.006202 0
0.268556 0.004718 0
0.252295 0.003739 0
0.239029 0.003050 0
0.227982 0.002542 0
0.218626 0.002156 0
0.210593 0.001855 0
0.203611 0.001615 0
0.197483 0.001420 0
0.192056 0.001260 0
0.187212 0.001127 0
0.182859 0.001015 0
0.178923 0.000919 0
0.175343 0.000838 0
0.172071 0.000767 0
0.169067 0.000706 0
0.166296 0.000652 0
0.163730 0.000605 0
0.161345 0.000563 0
0.159122 0.000526 0
0.157042 0.000493 0
0.155090 0.000463 0
0.153254 0.000437 0
0.151522 0.000413 0
0.149884 0.000391 0
0.148333 0.000371 0
0.146859 0.000353 0
0.145457 0.000336 0
0.144120 0.000321 0
0.142844 0.000307 0
0.141624 0.000294 0
0.140455 0.000282 0
0.139334 0.000271 0
0.138258 0.000260 0
0.137224 0.000250 0
0.136228 0.000241 0
0.135269 0.000233 0
0.134343 0.000224 0
0.133451 0.000217 0
0.132588 0.000210 0
0.131755 0.000203 0
0.130949 0.000196 0
0.130168 0.000190 0
0.129413 0.000184 0
0.128681 0.000179 0
0.127971 0.000173 0
0.127283 0.000168 0
0.126616 0.000163 0
0.125968 0.000158 0
0.125340 0.000154 0
0.124731 0.000149 0
0.124139 0.000145 0
0.123565 0.000141 0
0.123008 0.000137 0
0.122467 0.000133 0
0.121943 0.000129 0
0.121435 0.000125 0
0.120942 0.000121 0
0.120465 0.000117 0
0.120003 0.000113 0
0.119556 0.000110 0
0.119125 0.000106 0
0.118709 0.000102 0
0.118309 0.000098 0
0.117924 0.000094 0
0.117555 0.000090 0
0.117203 0.000086 0
0.116867 0.000082 0
0.116549 0.000078 0
0.116248 0.000073 0
0.115967 0.000068 0
0.115705 0.000063 0
0.115465 0.000057 0
0.115247 0.000051 0
0.115053 0.000045 0
0.114885 0.000038 0
0.114744 0.000031 0
0.114634 0.000022 0
0.114557 0.000013 0
0.114518 0.000002 0
0.114521 -0.000009 0
0.114568 -0.000022 0
0.114665 -0.000035 0
0.114814 -0.000051 0
0.115024 -0.000068 0
0.115299 -0.000087 0
0.115648 -0.000108 0
0.116080 -0.000133 0
0.116604 -0.000160 0
0.117233 -0.000191 0
0.117980 -0.000227 0
0.118862 -0.000267 0
0.119897 -0.000313 0
0.121108 -0.000367 0
0.122523 -0.000429 0
0.124173 -0.000502 0
0.126099 -0.000587 0
0.128348 -0.000688 0
0.130977 -0.000808 0
0.134061 -0.000953 0
0.137688 -0.001128 0
0.141972 -0.001343 0
0.147058 -0.001609 0
0.153136 -0.001943 0
0.160453 -0.002371 0
0.169347 -0.002929 0
0.180280 -0.003673 0
0.193912 -0.004695 0
0.211208 -0.006149 0
0.233645 -0.008316 0
0.263592 -0.011751 0
0.305119 -0.017615 0
0.365530 -0.029317 0
0.461491 -0.051682 0
0.618301 -0.166980 0
0.993313 -0.267880 0
0.993313 -0.133940 0
1.000000 0.000070 0
0.999856 0.000213 0
0.999564 0.000364 0
0.999113 0.000528 0
0.998486 0.000712 0
0.997659 0.000926 0
0.996599 0.001178 0
0.995259 0.001485 0
0.993579 0.001865 0
0.991473 0.002348 0
0.988825 0.002975 0
0.985469 0.003816 0
0.981163 0.004982 0
0.975541 0.006670 0
0.968025 0.009278 0
0.957649 0.013561 0
0.942785 0.021957 0
0.920695 0.037650 0
0.888371 0.094325 0
0.890999 0.137349 0
0.842149 0.116821 0
0.771619 0.084735 0
0.701223 0.058855 0
0.639921 0.041328 0
0.589259 0.030027 0
0.547925 0.022674 0
0.514042 0.017726 0
0.485955 0.014261 0
0.462373 0.011743 0
0.442325 0.009854 0
0.425086 0.008399 0
0.410109 0.007252 0
0.396976 0.006332 0
0.385365 0.005581 0
0.375023 0.004961 0
0.365749 0.004442 0
0.357382 0.004004 0
0.349793 0.003630 0
0.342874 0.003309 0
0.336536 0.003031 0
0.330706 0.002790 0
0.325322 0.002578 0
0.320331 0.002391 0
0.315688 0.002226 0
0.311356 0.002079 0
0.307301 0.001947 0
0.303496 0.001829 0
0.299915 0.001723 0
0.296536 0.001627 0
0.293342 0.001540 0
0.290315 0.001461 0
0.287440 0.001389 0
0.284706 0.001323 0
0.282101 0.001262 0
0.279613 0.001206 0
0.277235 0.001154 0
0.274958 0.001106 0
0.272776 0.001061 0
0.270680 0.001020 0
0.268666 0.000981 0
0.266729 0.000944 0
0.264863 0.000910 0
0.263064 0.000878 0
0.261328 0.000848 0
0.259653 0.000819 0
0.258033 0.000792 0
0.256467 0.000766 0
0.254952 0.000742 0
0.253486 0.000719 0
0.252065 0.000696 0
0.250689 0.000675 0
0.249354 0.000655 0
0.248061 0.000635 0
0.246806 0.000616 0
0.245589 0.000598 0
0.244408 0.000580 0
0.243262 0.000563 0
0.242151 0.000546 0
0.241073 0.000530 0
0.240027 0.000514 0
0.239013 0.000499 0
0.238030 0.000484 0
0.237078 0.000468 0
0.236157 0.000454 0
0.235265 0.000439 0
0.234403 0.000424 0
0.233571 0.000409 0
0.232769 0.000394 0
0.231997 0.000379 0
0.231255 0.000364 0
0.230544 0.000348 0
0.229865 0.000332 0
0.229218 0.000316 0
0.228604 0.000299 0
0.228025 0.000281 0
0.227481 0.000262 0
0.226976 0.000242 0
0.226510 0.000221 0
0.226086 0.000199 0
0.225707 0.000175 0
0.225376 0.000149 0
0.225096 0.000121 0
0.224871 0.000090 0
0.224707 0.000056 0
0.224609 0.000018 0
0.224586 -0.000024 0
0.224645 -0.000069 0
0.224790 -0.000119 0
0.225031 -0.000173 0
0.225377 -0.000234 0
0.225837 -0.000302 0
0.226426 -0.000377 0
0.227157 -0.000462 0
0.228048 -0.000557 0
0.229117 -0.000665 0
0.230387 -0.000787 0
0.231886 -0.000926 0
0.233645 -0.001085 0
0.235701 -0.001268 0
0.238098 -0.001480 0
0.240890 -0.001727 0
0.244140 -0.002016 0
0.247924 -0.002356 0
0.252337 -0.002759 0
0.257492 -0.003241 0
0.263530 -0.003821 0
0.270627 -0.004526 0
0.279003 -0.005392 0
0.288941 -0.006470 0
0.300806 -0.007830 0
0.315082 -0.009576 0
0.332416 -0.011865 0
0.353699 -0.014938 0
0.380188 -0.019191 0
0.413705 -0.025301 0
0.456982 -0.034521 0
0.514280 -0.049235 0
0.592216 -0.075527 0
0.702037 -0.122086 0
0.857973 -0.256866 0
0.994021 -0.362257 0
0.994021 -0.181128 0
1.000000 0.000105 0
0.999859 0.000318 0
0.999574 0.000542 0
0.999133 0.000786 0
0.998521 0.001060 0
0.997714 0.001377 0
0.996681 0.001752 0
0.995379 0.002205 0
0.993750 0.002767 0
0.991715 0.003479 0
0.989168 0.004400 0
0.985962 0.005628 0
0.981888 0.007318 0
0.976642 0.009737 0
0.969783 0.013395 0
0.960673 0.019226 0
0.948431 0.029724 0
0.933029 0.047942 0
0.915087 0.093196 0
0.945331 0.133281 0
0.948626 0.130405 0
0.922939 0.109141 0
0.881982 0.086247 0
0.836591 0.067387 0
0.792541 0.053113 0
0.752208 0.042531 0
0.716225 0.034649 0
0.684458 0.028695 0
0.656489 0.024123 0
0.631832 0.020551 0
0.610022 0.017716 0
0.590646 0.015432 0
0.573349 0.013566 0
0.557833 0.012024 0
0.543848 0.010735 0
0.531182 0.009647 0
0.519661 0.008721 0
0.509138 0.007927 0
0.499486 0.007241 0
0.490602 0.006644 0
0.482393 0.006122 0
0.474785 0.005663 0
0.467710 0.005258 0
0.461111 0.004898 0
0.454939 0.004577 0
0.449151 0.004290 0
0.443709 0.004031 0
0.438580 0.003798 0
0.433736 0.003587 0
0.429151 0.003396 0
0.424802 0.003221 0
0.420670 0.003062 0
0.416736 0.002915 0
0.412985 0.002781 0
0.409403 0.002657 0
0.405977 0.002542 0
0.402696 0.002436 0
0.399549 0.002337 0
0.396528 0.002245 0
0.393624 0.002159 0
0.390829 0.002078 0
0.388137 0.002003 0
0.385542 0.001932 0
0.383039 0.001865 0
0.380621 0.001801 0
0.378284 0.001741 0
0.376025 0.001684 0
0.373838 0.001630 0
0.371722 0.001579 0
0.369672 0.001530 0
0.367686 0.001482 0
0.365761 0.001437 0
0.363894 0.001394 0
0.362083 0.001352 0
0.360327 0.001312 0
0.358624 0.001273 0
0.356971 0.001235 0
0.355367 0.001198 0
0.353812 0.001162 0
0.352303 0.001127 0
0.350840 0.001093 0
0.349422 0.001059 0
0.348049 0.001026 0
0.346719 0.000993 0
0.345433 0.000960 0
0.344189 0.000928 0
0.342989 0.000895 0
0.341832 0.000863 0
0.340717 0.000829 0
0.339647 0.000796 0
0.338621 0.000762 0
0.337639 0.000727 0
0.336704 0.000691 0
0.335816 0.000654 0
0.334977 0.000615 0
0.334189 0.000575 0
0.333453 0.000532 0
0.332773 0.000487 0
0.332152 0.000439 0
0.331592 0.000388 0
0.331098 0.000333 0
0.330673 0.000274 0
0.330324 0.000210 0
0.330056 0.000139 0
0.329876 0.000061 0
0.329793 -0.000027 0
0.329819 -0.000120 0
0.329961 -0.000222 0
0.330229 -0.000334 0
0.330633 -0.000457 0
0.331186 -0.000594 0
0.331905 -0.000746 0
0.332807 -0.000916 0
0.333912 -0.001107 0
0.335244 -0.001321 0
0.336832 -0.001564 0
0.338708 -0.001840 0
0.340910 -0.002156 0
0.343484 -0.002518 0
0.346483 -0.002935 0
0.349971 -0.003420 0
0.354024 -0.003985 0
0.358734 -0.004647 0
0.364210 -0.005430 0
0.370584 -0.006359 0
0.378019 -0.007472 0
0.386714 -0.008816 0
0.396916 -0.010454 0
0.408936 -0.012474 0
0.423165 -0.014997 0
0.440111 -0.018196 0
0.460433 -0.022324 0
0.485004 -0.027768 0
0.515004 -0.035132 0
0.552043 -0.045408 0
0.598342 -0.060327 0
0.656961 -0.082932 0
0.731768 -0.120003 0
0.826205 -0.180041 0
0.939547 -0.308007 0
0.994810 -0.399300 0
0.994810 -0.199650 0
1.000000 0.000138 0
0.999864 0.000419 0
0.999587 0.000715 0
0.999160 0.001037 0
0.998568 0.001398 0
0.997790 0.001814 0
0.996794 0.002306 0
0.995543 0.002901 0
0.993983 0.003635 0
0.992045 0.004560 0
0.989634 0.005754 0
0.986627 0.007333 0
0.982854 0.009483 0
0.978089 0.012517 0
0.972036 0.016990 0
0.964382 0.023874 0
0.954906 0.035310 0
0.945019 0.053755 0
0.937269 0.088384 0
0.965708 0.121149 0
0.987884 0.127636 0
0.990072 0.116924 0
0.975767 0.100560 0
0.951738 0.084527 0
0.923220 0.070783 0
0.893431 0.059534 0
0.864152 0.050449 0
0.836295 0.043113 0
0.810270 0.037161 0
0.786206 0.032297 0
0.764078 0.028291 0
0.743783 0.024965 0
0.725183 0.022180 0
0.708127 0.019830 0
0.692467 0.017833 0
0.678061 0.016124 0
0.664780 0.014651 0
0.652510 0.013375 0
0.641144 0.012262 0
0.630591 0.011287 0
0.620769 0.010429 0
0.611605 0.009670 0
0.603034 0.008995 0
0.595000 0.008394 0
0.587452 0.007855 0
0.580345 0.007371 0
0.573641 0.006935 0
0.567302 0.006540 0
0.561299 0.006182 0
0.555603 0.005856 0
0.550189 0.005558 0
0.545035 0.005285 0
0.540119 0.005034 0
0.535425 0.004804 0
0.530936 0.004591 0
0.526637 0.004393 0
0.522515 0.004210 0
0.518559 0.004040 0
0.514756 0.003881 0
0.511098 0.003733 0
0.507575 0.003594 0
0.504179 0.003464 0
0.500903 0.003341 0
0.497740 0.003225 0
0.494684 0.003116 0
0.491729 0.003012 0
0.488871 0.002914 0
0.486103 0.002820 0
0.483424 0.002731 0
0.480827 0.002646 0
0.478310 0.002564 0
0.475869 0.002486 0
0.473502 0.002411 0
0.471205 0.002339 0
0.468976 0.002269 0
0.466813 0.002201 0
0.464714 0.002136 0
0.462677 0.002072 0
0.460701 0.002010 0
0.458783 0.001950 0
0.456923 0.001890 0
0.455120 0.001832 0
0.453373 0.001774 0
0.451681 0.001717 0
0.450043 0.001661 0
0.448459 0.001604 0
0.446929 0.001548 0
0.445454 0.001491 0
0.444033 0.001434 0
0.442666 0.001377 0
0.441355 0.001318 0
0.440100 0.001258 0
0.438902 0.001196 0
0.437764 0.001133 0
0.436686 0.001067 0
0.435670 0.000998 0
0.434720 0.000926 0
0.433838 0.000850 0
0.433027 0.000770 0
0.432291 0.000684 0
0.431634 0.000593 0
0.431061 0.000495 0
0.430578 0.000388 0
0.430191 0.000272 0
0.429907 0.000145 0
0.429734 0.000003 0
0.429687 -0.000151 0
0.429775 -0.000317 0
0.430010 -0.000498 0
0.430402 -0.000697 0
0.430966 -0.000916 0
0.431719 -0.001160 0
0.432679 -0.001431 0
0.433869 -0.001734 0
0.435315 -0.002075 0
0.437047 -0.002459 0
0.439100 -0.002895 0
0.441516 -0.003392 0
0.444343 -0.003960 0
0.447637 -0.004614 0
0.451468 -0.005370 0
0.455914 -0.006249 0
0.461072 -0.007276 0
0.467054 -0.008483 0
0.473997 -0.009911 0
0.482065 -0.011612 0
0.491457 -0.013653 0
0.502417 -0.016125 0
0.515244 -0.019148 0
0.530309 -0.022887 0
0.548078 -0.027576 0
0.569139 -0.033548 0
0.594240 -0.041296 0
0.624339 -0.051570 0
0.660653 -0.065553 0
0.704692 -0.085196 0
0.758170 -0.113679 0
0.822487 -0.157271 0
0.896218 -0.222443 0
0.971950 -0.338301 0
0.995558 -0.415639 0
0.995558 -0.207819 0
1.000000 0.000170 0
0.999869 0.000517 0
0.999604 0.000882 0
0.999195 0.001278 0
0.998628 0.001722 0
0.997884 0.002234 0
0.996936 0.002837 0
0.995748 0.003563 0
0.994274 0.004457 0
0.992454 0.005579 0
0.990209 0.007017 0
0.987441 0.008903 0
0.984022 0.011442 0
0.979806 0.014962 0
0.974637 0.020015 0
0.968468 0.027500 0
0.961560 0.039076 0
0.955831 0.056460 0
0.954477 0.083204 0
0.976672 0.108834 0
1.001711 0.118637 0
1.016359 0.114993 0
1.018678 0.104762 0
1.011393 0.092767 0
0.997799 0.081275 0
0.980476 0.071060 0
0.961202 0.062245 0
0.941144 0.054720 0
0.921054 0.048316 0
0.901401 0.042862 0
0.882468 0.038206 0
0.864412 0.034218 0
0.847307 0.030788 0
0.831172 0.027826 0
0.815993 0.025257 0
0.801735 0.023019 0
0.788349 0.021062 0
0.775783 0.019343 0
0.763980 0.017827 0
0.752886 0.016485 0
0.742447 0.015293 0
0.732614 0.014229 0
0.723338 0.013278 0
0.714577 0.012424 0
0.706289 0.011655 0
0.698439 0.010960 0
0.690991 0.010331 0
0.683916 0.009759 0
0.677185 0.009238 0
0.670772 0.008762 0
0.664654 0.008326 0
0.658809 0.007925 0
0.653220 0.007557 0
0.647866 0.007216 0
0.642734 0.006901 0
0.637808 0.006609 0
0.633075 0.006338 0
0.628522 0.006085 0
0.624138 0.005848 0
0.619914 0.005627 0
0.615840 0.005420 0
0.611908 0.005225 0
0.608109 0.005042 0
0.604436 0.004868 0
0.600884 0.004704 0
0.597445 0.004549 0
0.594115 0.004402 0
0.590888 0.004261 0
0.587760 0.004127 0
0.584727 0.004000 0
0.581784 0.003877 0
0.578927 0.003760 0
0.576155 0.003647 0
0.573463 0.003538 0
0.570849 0.003433 0
0.568310 0.003331 0
0.565844 0.003233 0
0.563450 0.003137 0
0.561125 0.003043 0
0.558868 0.002952 0
0.556678 0.002862 0
0.554552 0.002774 0
0.552491 0.002687 0
0.550494 0.002602 0
0.548559 0.002516 0
0.546687 0.002432 0
0.544877 0.002347 0
0.543130 0.002262 0
0.541445 0.002176 0
0.539823 0.002089 0
0.538265 0.002001 0
0.536771 0.001911 0
0.535344 0.001819 0
0.533984 0.001724 0
0.532694 0.001626 0
0.531475 0.001524 0
0.530330 0.001417 0
0.529261 0.001305 0
0.528274 0.001187 0
0.527370 0.001061 0
0.526556 0.000927 0
0.525834 0.000784 0
0.525213 0.000630 0
0.524697 0.000463 0
0.524294 0.000281 0
0.524012 0.000080 0
0.523860 -0.000140 0
0.523856 -0.000378 0
0.524010 -0.000636 0
0.524333 -0.000919 0
0.524841 -0.001230 0
0.525550 -0.001573 0
0.526479 -0.001955 0
0.527651 -0.002380 0
0.529092 -0.002856 0
0.530833 -0.003392 0
0.532908 -0.003999 0
0.535360 -0.004688 0
0.538237 -0.005474 0
0.541595 -0.006377 0
0.545502 -0.007418 0
0.550035 -0.008623 0
0.555289 -0.010028 0
0.561373 -0.011672 0
0.568417 -0.013609 0
0.576577 -0.015905 0
0.586038 -0.018646 0
0.597025 -0.021943 0
0.609805 -0.025946 0
0.624707 -0.030856 0
0.642128 -0.036950 0
0.662553 -0.044620 0
0.686571 -0.054429 0
0.714886 -0.067209 0
0.748313 -0.084218 0
0.787700 -0.107427 0
0.833666 -0.139826 0
0.885899 -0.186679 0
0.940682 -0.252230 0
0.989311 -0.355987 0
0.996236 -0.422104 0
0.996236 -0.211051 0
1.000000 0.000201 0
0.999876 0.000611 0
0.999624 0.001041 0
0.999236 0.001508 0
0.998699 0.002031 0
0.997996 0.002631 0
0.997104 0.003338 0
0.995990 0.004186 0
0.994616 0.005226 0
0.992932 0.006524 0
0.990877 0.008175 0
0.988376 0.010321 0
0.985348 0.013171 0
0.981715 0.017050 0
0.977446 0.022466 0
0.972684 0.030190 0
0.967982 0.041413 0
0.965254 0.057176 0
0.967534 0.078318 0
0.984750 0.098336 0
1.007163 0.108467 0
1.025317 0.108729 0
1.035733 0.102959 0
1.038732 0.094612 0
1.035897 0.085715 0
1.028852 0.077210 0
1.018914 0.069446 0
1.007072 0.062505 0
0.994052 0.056357 0
0.980386 0.050934 0
0.966456 0.046157 0
0.952534 0.041947 0
0.938814 0.038234 0
0.925425 0.034954 0
0.912453 0.032051 0
0.899950 0.029476 0
0.887944 0.027186 0
0.876445 0.025145 0
0.865452 0.023321 0
0.854955 0.021687 0
0.844937 0.020220 0
0.835380 0.018899 0
0.826262 0.017707 0
0.817561 0.016628 0
0.809253 0.015650 0
0.801317 0.014760 0
0.793731 0.013949 0
0.786473 0.013209 0
0.779525 0.012530 0
0.772866 0.011908 0
0.766480 0.011335 0
0.760350 0.010807 0
0.754461 0.010320 0
0.748798 0.009868 0
0.743347 0.009449 0
0.738097 0.009059 0
0.733036 0.008696 0
0.728154 0.008356 0
0.723440 0.008039 0
0.718885 0.007741 0
0.714481 0.007461 0
0.710220 0.007198 0
0.706096 0.006949 0
0.702100 0.006715 0
0.698228 0.006492 0
0.694473 0.006281 0
0.690831 0.006080 0
0.687295 0.005889 0
0.683863 0.005707 0
0.680529 0.005532 0
0.677291 0.005365 0
0.674143 0.005205 0
0.671084 0.005050 0
0.668110 0.004902 0
0.665219 0.004758 0
0.662407 0.004618 0
0.659674 0.004483 0
0.657017 0.004352 0
0.654434 0.004223 0
0.651923 0.004098 0
0.649484 0.003975 0
0.647114 0.003854 0
0.644814 0.003734 0
0.642582 0.003616 0
0.640418 0.003499 0
0.638322 0.003383 0
0.636293 0.003266 0
0.634331 0.003149 0
0.632437 0.003032 0
0.630611 0.002913 0
0.628854 0.002792 0
0.627167 0.002669 0
0.625551 0.002543 0
0.624008 0.002413 0
0.622539 0.002279 0
0.621148 0.002140 0
0.619836 0.001995 0
0.618606 0.001843 0
0.617462 0.001683 0
0.616408 0.001514 0
0.615448 0.001335 0
0.614586 0.001143 0
0.613830 0.000938 0
0.613184 0.000716 0
0.612657 0.000476 0
0.612254 0.000213 0
0.611981 -0.000076 0
0.611860 -0.000389 0
0.611901 -0.000728 0
0.612115 -0.001098 0
0.612518 -0.001504 0
0.613125 -0.001951 0
0.613957 -0.002446 0
0.615033 -0.002997 0
0.616381 -0.003612 0
0.618029 -0.004303 0
0.620012 -0.005082 0
0.622369 -0.005965 0
0.625147 -0.006971 0
0.628400 -0.008123 0
0.632191 -0.009447 0
0.636594 -0.010976 0
0.641696 -0.012752 0
0.647598 -0.014824 0
0.654420 -0.017254 0
0.662302 -0.020123 0
0.671411 -0.023529 0
0.681941 -0.027604 0
0.694125 -0.032518 0