# vtk DataFile Version 2.0
generated by CFD-lab course output (written by Tobias Neckel) 
ASCII

DATASET STRUCTURED_GRID
DIMENSIONS  142 42 1 
POINTS 5964 float

0.000000 0.250000 0
0.024648 0.250000 0
0.049296 0.250000 0
0.073944 0.250000 0
0.098592 0.250000 0
0.123239 0.250000 0
0.147887 0.250000 0
0.172535 0.250000 0
0.197183 0.250000 0
0.221831 0.250000 0
0.246479 0.250000 0
0.271127 0.250000 0
0.295775 0.250000 0
0.320423 0.250000 0
0.345070 0.250000 0
0.369718 0.250000 0
0.394366 0.250000 0
0.419014 0.250000 0
0.443662 0.250000 0
0.468310 0.250000 0
0.492958 0.250000 0
0.517606 0.250000 0
0.542254 0.250000 0
0.566901 0.250000 0
0.591549 0.250000 0
0.616197 0.250000 0
0.640845 0.250000 0
0.665493 0.250000 0
0.690141 0.250000 0
0.714789 0.250000 0
0.739437 0.250000 0
0.764085 0.250000 0
0.788732 0.250000 0
0.813380 0.250000 0
0.838028 0.250000 0
0.862676 0.250000 0
0.887324 0.250000 0
0.911972 0.250000 0
0.936620 0.250000 0
0.961268 0.250000 0
0.985915 0.250000 0
1.010563 0.250000 0
1.035211 0.250000 0
1.059859 0.250000 0
1.084507 0.250000 0
1.109155 0.250000 0
1.133803 0.250000 0
1.158451 0.250000 0
1.183099 0.250000 0
1.207746 0.250000 0
1.232394 0.250000 0
1.257042 0.250000 0
1.281690 0.250000 0
1.306338 0.250000 0
1.330986 0.250000 0
1.355634 0.250000 0
1.380282 0.250000 0
1.404930 0.250000 0
1.429577 0.250000 0
1.454225 0.250000 0
1.478873 0.250000 0
1.503521 0.250000 0
1.528169 0.250000 0
1.552817 0.250000 0
1.577465 0.250000 0
1.602113 0.250000 0
1.626761 0.250000 0
1.651408 0.250000 0
1.676056 0.250000 0
1.700704 0.250000 0
1.725352 0.250000 0
1.750000 0.250000 0
1.774648 0.250000 0
1.799296 0.250000 0
1.823944 0.250000 0
1.848592 0.250000 0
1.873239 0.250000 0
1.897887 0.250000 0
1.922535 0.250000 0
1.947183 0.250000 0
1.971831 0.250000 0
1.996479 0.250000 0
2.021127 0.250000 0
2.045775 0.250000 0
2.070423 0.250000 0
2.095070 0.250000 0
2.119718 0.250000 0
2.144366 0.250000 0
2.169014 0.250000 0
2.193662 0.250000 0
2.218310 0.250000 0
2.242958 0.250000 0
2.267606 0.250000 0
2.292254 0.250000 0
2.316901 0.250000 0
2.341549 0.250000 0
2.366197 0.250000 0
2.390845 0.250000 0
2.415493 0.250000 0
2.440141 0.250000 0
2.464789 0.250000 0
2.489437 0.250000 0
2.514085 0.250000 0
2.538732 0.250000 0
2.563380 0.250000 0
2.588028 0.250000 0
2.612676 0.250000 0
2.637324 0.250000 0
2.661972 0.250000 0
2.686620 0.250000 0
2.711268 0.250000 0
2.735915 0.250000 0
2.760563 0.250000 0
2.785211 0.250000 0
2.809859 0.250000 0
2.834507 0.250000 0
2.859155 0.250000 0
2.883803 0.250000 0
2.908451 0.250000 0
2.933099 0.250000 0
2.957746 0.250000 0
2.982394 0.250000 0
3.007042 0.250000 0
3.031690 0.250000 0
3.056338 0.250000 0
3.080986 0.250000 0
3.105634 0.250000 0
3.130282 0.250000 0
3.154930 0.250000 0
3.179577 0.250000 0
3.204225 0.250000 0
3.228873 0.250000 0
3.253521 0.250000 0
3.278169 0.250000 0
3.302817 0.250000 0
3.327465 0.250000 0
3.352113 0.250000 0
3.376761 0.250000 0
3.401408 0.250000 0
3.426056 0.250000 0
3.450704 0.250000 0
3.475352 0.250000 0
0.000000 0.261905 0
0.024648 0.261905 0
0.049296 0.261905 0
0.073944 0.261905 0
0.098592 0.261905 0
0.123239 0.261905 0
0.147887 0.261905 0
0.172535 0.261905 0
0.197183 0.261905 0
0.221831 0.261905 0
0.246479 0.261905 0
0.271127 0.261905 0
0.295775 0.261905 0
0.320423 0.261905 0
0.345070 0.261905 0
0.369718 0.261905 0
0.394366 0.261905 0
0.419014 0.261905 0
0.443662 0.261905 0
0.468310 0.261905 0
0.492958 0.261905 0
0.517606 0.261905 0
0.542254 0.261905 0
0.566901 0.261905 0
0.591549 0.261905 0
0.616197 0.261905 0
0.640845 0.261905 0
0.665493 0.261905 0
0.690141 0.261905 0
0.714789 0.261905 0
0.739437 0.261905 0
0.764085 0.261905 0
0.788732 0.261905 0
0.813380 0.261905 0
0.838028 0.261905 0
0.862676 0.261905 0
0.887324 0.261905 0
0.911972 0.261905 0
0.936620 0.261905 0
0.961268 0.261905 0
0.985915 0.261905 0
1.010563 0.261905 0
1.035211 0.261905 0
1.059859 0.261905 0
1.084507 0.261905 0
1.109155 0.261905 0
1.133803 0.261905 0
1.158451 0.261905 0
1.183099 0.261905 0
1.207746 0.261905 0
1.232394 0.261905 0
1.257042 0.261905 0
1.281690 0.261905 0
1.306338 0.261905 0
1.330986 0.261905 0
1.355634 0.261905 0
1.380282 0.261905 0
1.404930 0.261905 0
1.429577 0.261905 0
1.454225 0.261905 0
1.478873 0.261905 0
1.503521 0.261905 0
1.528169 0.261905 0
1.552817 0.261905 0
1.577465 0.261905 0
1.602113 0.261905 0
1.626761 0.261905 0
1.651408 0.261905 0
1.676056 0.261905 0
1.700704 0.261905 0
1.725352 0.261905 0
1.750000 0.261905 0
1.774648 0.261905 0
1.799296 0.261905 0
1.823944 0.261905 0
1.848592 0.261905 0
1.873239 0.261905 0
1.897887 0.261905 0
1.922535 0.261905 0
1.947183 0.261905 0
1.971831 0.261905 0
1.996479 0.261905 0
2.021127 0.261905 0
2.045775 0.261905 0
2.070423 0.261905 0
2.095070 0.261905 0
2.119718 0.261905 0
2.144366 0.261905 0
2.169014 0.261905 0
2.193662 0.261905 0
2.218310 0.261905 0
2.242958 0.261905 0
2.267606 0.261905 0
2.292254 0.261905 0
2.316901 0.261905 0
2.341549 0.261905 0
2.366197 0.261905 0
2.390845 0.261905 0
2.415493 0.261905 0
2.440141 0.261905 0
2.464789 0.261905 0
2.489437 0.261905 0
2.514085 0.261905 0
2.538732 0.261905 0
2.563380 0.261905 0
2.588028 0.261905 0
2.612676 0.261905 0
2.637324 0.261905 0
2.661972 0.261905 0
2.686620 0.261905 0
2.711268 0.261905 0
2.735915 0.261905 0
2.760563 0.261905 0
2.785211 0.261905 0
2.809859 0.261905 0
2.834507 0.261905 0
2.859155 0.261905 0
2.883803 0.261905 0
2.908451 0.261905 0
2.933099 0.261905 0
2.957746 0.261905 0
2.982394 0.261905 0
3.007042 0.261905 0
3.031690 0.261905 0
3.056338 0.261905 0
3.080986 0.261905 0
3.105634 0.261905 0
3.130282 0.261905 0
3.154930 0.261905 0
3.179577 0.261905 0
3.204225 0.261905 0
3.228873 0.261905 0
3.253521 0.261905 0
3.278169 0.261905 0
3.302817 0.261905 0
3.327465 0.261905 0
3.352113 0.261905 0
3.376761 0.261905 0
3.401408 0.261905 0
3.426056 0.261905 0
3.450704 0.261905 0
3.475352 0.261905 0
0.000000 0.273810 0
0.024648 0.273810 0
0.049296 0.273810 0
0.073944 0.273810 0
0.098592 0.273810 0
0.123239 0.273810 0
0.147887 0.273810 0
0.172535 0.273810 0
0.197183 0.273810 0
0.221831 0.273810 0
0.246479 0.273810 0
0.271127 0.273810 0
0.295775 0.273810 0
0.320423 0.273810 0
0.345070 0.273810 0
0.369718 0.273810 0
0.394366 0.273810 0
0.419014 0.273810 0
0.443662 0.273810 0
0.468310 0.273810 0
0.492958 0.273810 0
0.517606 0.273810 0
0.542254 0.273810 0
0.566901 0.273810 0
0.591549 0.273810 0
0.616197 0.273810 0
0.640845 0.273810 0
0.665493 0.273810 0
0.690141 0.273810 0
0.714789 0.273810 0
0.739437 0.273810 0
0.764085 0.273810 0
0.788732 0.273810 0
0.813380 0.273810 0
0.838028 0.273810 0
0.862676 0.273810 0
0.887324 0.273810 0
0.911972 0.273810 0
0.936620 0.273810 0
0.961268 0.273810 0
0.985915 0.273810 0
1.010563 0.273810 0
1.035211 0.273810 0
1.059859 0.273810 0
1.084507 0.273810 0
1.109155 0.273810 0
1.133803 0.273810 0
1.158451 0.273810 0
1.183099 0.273810 0
1.207746 0.273810 0
1.232394 0.273810 0
1.257042 0.273810 0
1.281690 0.273810 0
1.306338 0.273810 0
1.330986 0.273810 0
1.355634 0.273810 0
1.380282 0.273810 0
1.404930 0.273810 0
1.429577 0.273810 0
1.454225 0.273810 0
1.478873 0.273810 0
1.503521 0.273810 0
1.528169 0.273810 0
1.552817 0.273810 0
1.577465 0.273810 0
1.602113 0.273810 0
1.626761 0.273810 0
1.651408 0.273810 0
1.676056 0.273810 0
1.700704 0.273810 0
1.725352 0.273810 0
1.750000 0.273810 0
1.774648 0.273810 0
1.799296 0.273810 0
1.823944 0.273810 0
1.848592 0.273810 0
1.873239 0.273810 0
1.897887 0.273810 0
1.922535 0.273810 0
1.947183 0.273810 0
1.971831 0.273810 0
1.996479 0.273810 0
2.021127 0.273810 0
2.045775 0.273810 0
2.070423 0.273810 0
2.095070 0.273810 0
2.119718 0.273810 0
2.144366 0.273810 0
2.169014 0.273810 0
2.193662 0.273810 0
2.218310 0.273810 0
2.242958 0.273810 0
2.267606 0.273810 0
2.292254 0.273810 0
2.316901 0.273810 0
2.341549 0.273810 0
2.366197 0.273810 0
2.390845 0.273810 0
2.415493 0.273810 0
2.440141 0.273810 0
2.464789 0.273810 0
2.489437 0.273810 0
2.514085 0.273810 0
2.538732 0.273810 0
2.563380 0.273810 0
2.588028 0.273810 0
2.612676 0.273810 0
2.637324 0.273810 0
2.661972 0.273810 0
2.686620 0.273810 0
2.711268 0.273810 0
2.735915 0.273810 0
2.760563 0.273810 0
2.785211 0.273810 0
2.809859 0.273810 0
2.834507 0.273810 0
2.859155 0.273810 0
2.883803 0.273810 0
2.908451 0.273810 0
2.933099 0.273810 0
2.957746 0.273810 0
2.982394 0.273810 0
3.007042 0.273810 0
3.031690 0.273810 0
3.056338 0.273810 0
3.080986 0.273810 0
3.105634 0.273810 0
3.130282 0.273810 0
3.154930 0.273810 0
3.179577 0.273810 0
3.204225 0.273810 0
3.228873 0.273810 0
3.253521 0.273810 0
3.278169 0.273810 0
3.302817 0.273810 0
3.327465 0.273810 0
3.352113 0.273810 0
3.376761 0.273810 0
3.401408 0.273810 0
3.426056 0.273810 0
3.450704 0.273810 0
3.475352 0.273810 0
0.000000 0.285714 0
0.024648 0.285714 0
0.049296 0.285714 0
0.073944 0.285714 0
0.098592 0.285714 0
0.123239 0.285714 0
0.147887 0.285714 0
0.172535 0.285714 0
0.197183 0.285714 0
0.221831 0.285714 0
0.246479 0.285714 0
0.271127 0.285714 0
0.295775 0.285714 0
0.320423 0.285714 0
0.345070 0.285714 0
0.369718 0.285714 0
0.394366 0.285714 0
0.419014 0.285714 0
0.443662 0.285714 0
0.468310 0.285714 0
0.492958 0.285714 0
0.517606 0.285714 0
0.542254 0.285714 0
0.566901 0.285714 0
0.591549 0.285714 0
0.616197 0.285714 0
0.640845 0.285714 0
0.665493 0.285714 0
0.690141 0.285714 0
0.714789 0.285714 0
0.739437 0.285714 0
0.764085 0.285714 0
0.788732 0.285714 0
0.813380 0.285714 0
0.838028 0.285714 0
0.862676 0.285714 0
0.887324 0.285714 0
0.911972 0.285714 0
0.936620 0.285714 0
0.961268 0.285714 0
0.985915 0.285714 0
1.010563 0.285714 0
1.035211 0.285714 0
1.059859 0.285714 0
1.084507 0.285714 0
1.109155 0.285714 0
1.133803 0.285714 0
1.158451 0.285714 0
1.183099 0.285714 0
1.207746 0.285714 0
1.232394 0.285714 0
1.257042 0.285714 0
1.281690 0.285714 0
1.306338 0.285714 0
1.330986 0.285714 0
1.355634 0.285714 0
1.380282 0.285714 0
1.404930 0.285714 0
1.429577 0.285714 0
1.454225 0.285714 0
1.478873 0.285714 0
1.503521 0.285714 0
1.528169 0.285714 0
1.552817 0.285714 0
1.577465 0.285714 0
[...]
POINT_DATA 5964 

VECTORS velocity float
1.000000 0.000000 0
0.999854 0.000000 0
0.999557 0.000000 0
0.999098 0.000000 0
0.998461 0.000000 0
0.997619 0.000000 0
0.996538 0.000000 0
0.995171 0.000000 0
0.993451 0.000000 0
0.991291 0.000000 0
0.988564 0.000000 0
0.985089 0.000000 0
0.980595 0.000000 0
0.974658 0.000000 0
0.966571 0.000000 0
0.955001 0.000000 0
0.937467 0.000000 0
0.905862 0.000000 0
0.847823 0.000000 0
-0.000000 0.000000 0
-0.000000 0.000000 0
-0.000000 0.000000 0
-0.000000 0.000000 0
-0.000000 0.000000 0
-0.000000 0.000000 0
-0.000000 0.000000 0
-0.000000 0.000000 0
-0.000000 0.000000 0
-0.000000 0.000000 0
-0.000000 0.000000 0
-0.000000 0.000000 0
-0.000000 0.000000 0
-0.000000 0.000000 0
-0.000000 0.000000 0
-0.000000 0.000000 0
-0.000000 0.000000 0
-0.000000 0.000000 0
-0.000000 0.000000 0
-0.000000 0.000000 0
-0.000001 0.000000 0
-0.000001 0.000000 0
-0.000001 0.000000 0
-0.000001 0.000000 0
-0.000001 0.000000 0
-0.000001 0.000000 0
-0.000001 0.000000 0
-0.000001 0.000000 0
-0.000001 0.000000 0
-0.000001 0.000000 0
-0.000002 0.000000 0
-0.000002 0.000000 0
-0.000002 0.000000 0
-0.000002 0.000000 0
-0.000002 0.000000 0
-0.000003 0.000000 0
-0.000003 0.000000 0
-0.000003 0.000000 0
-0.000004 0.000000 0
-0.000004 0.000000 0
-0.000004 0.000000 0
-0.000004 0.000000 0
-0.000004 0.000000 0
-0.000004 0.000000 0
-0.000004 0.000000 0
-0.000004 0.000000 0
-0.000004 0.000000 0
-0.000004 0.000000 0
-0.000004 0.000000 0
-0.000004 0.000000 0
-0.000004 0.000000 0
-0.000004 0.000000 0
-0.000004 0.000000 0
-0.000004 0.000000 0
-0.000004 0.000000 0
-0.000004 0.000000 0
-0.000004 0.000000 0
-0.000004 0.000000 0
-0.000004 0.000000 0
-0.000004 0.000000 0
-0.000004 0.000000 0
-0.000004 0.000000 0
-0.000004 0.000000 0
-0.000004 0.000000 0
-0.000004 0.000000 0
-0.000004 0.000000 0
-0.000004 0.000000 0
-0.000004 0.000000 0
-0.000004 0.000000 0
-0.000004 0.000000 0
-0.000004 0.000000 0
-0.000004 0.000000 0
-0.000004 0.000000 0
-0.000004 0.000000 0
-0.000004 0.000000 0
-0.000004 0.000000 0
-0.000004 0.000000 0
-0.000004 0.000000 0
-0.000004 0.000000 0
-0.000004 0.000000 0
-0.000004 0.000000 0
-0.000004 0.000000 0
-0.000004 0.000000 0
-0.000004 0.000000 0
-0.000004 0.000000 0
-0.000004 0.000000 0
-0.000004 0.000000 0
-0.000004 0.000000 0
-0.000004 0.000000 0
-0.000004 0.000000 0
-0.000004 0.000000 0
-0.000004 0.000000 0
-0.000004 0.000000 0
-0.000004 0.000000 0
-0.000004 0.000000 0
-0.000004 0.000000 0
-0.000004 0.000000 0
-0.000004 0.000000 0
-0.000004 0.000000 0
-0.000003 0.000000 0
-0.000003 0.000000 0
-0.000003 0.000000 0
-0.000003 0.000000 0
-0.000003 0.000000 0
-0.000003 0.000000 0
-0.000003 0.000000 0
-0.000003 0.000000 0
-0.000003 0.000000 0
-0.000003 0.000000 0
-0.000003 0.000000 0
-0.000003 0.000000 0
-0.000003 0.000000 0
-0.000003 0.000000 0
-0.000003 0.000000 0
-0.000002 0.000000 0
-0.000002 0.000000 0
-0.000002 0.000000 0
-0.000001 0.000000 0
-0.000001 0.000000 0
-0.000000 0.000000 0
0.000000 0.000000 0
-0.000000 0.000000 0
0.496880 0.000000 0
1.000000 0.000035 0
0.999855 0.000107 0
0.999559 0.000182 0
0.999102 0.000265 0
0.998468 0.000357 0
0.997630 0.000464 0
0.996555 0.000591 0
0.995195 0.000745 0
0.993486 0.000937 0
0.991341 0.001180 0
0.988635 0.001498 0
0.985191 0.001924 0
0.980747 0.002519 0
0.974893 0.003387 0
0.966957 0.004747 0
0.955708 0.007028 0
0.938908 0.011867 0
0.910283 0.021649 0
0.861002 0.078846 0
0.715036 0.110956 0
0.576673 0.072745 0
0.473209 0.041072 0
0.401285 0.022633 0
0.351415 0.013301 0
0.315793 0.008669 0
0.289335 0.006189 0
0.268949 0.004703 0
0.252751 0.003723 0
0.239555 0.003031 0
0.228587 0.002522 0
0.219321 0.002133 0
0.211388 0.001829 0
0.204519 0.001586 0
0.198516 0.001388 0
0.193228 0.001225 0
0.188540 0.001088 0
0.184359 0.000972 0
0.180613 0.000872 0
0.177244 0.000786 0
0.174205 0.000710 0
0.171457 0.000644 0
0.168968 0.000584 0
0.166713 0.000531 0
0.164671 0.000482 0
0.162824 0.000438 0
0.161160 0.000396 0
0.159668 0.000356 0
0.158340 0.000318 0
0.157173 0.000280 0
0.156163 0.000243 0
0.155309 0.000205 0
0.154610 0.000167 0
0.154064 0.000129 0
0.153669 0.000091 0
0.153420 0.000053 0
0.153308 0.000019 0
0.153319 -0.000011 0
0.153430 -0.000036 0
0.153622 -0.000056 0
0.153874 -0.000071 0
0.154169 -0.000082 0
0.154488 -0.000088 0
0.154816 -0.000089 0
0.155140 -0.000088 0
0.155451 -0.000084 0
0.155740 -0.000078 0
0.156003 -0.000070 0
0.156237 -0.000062 0
0.156440 -0.000054 0
0.156613 -0.000046 0
0.156757 -0.000038 0
0.156876 -0.000031 0
0.156971 -0.000025 0
0.157046 -0.000020 0
0.157104 -0.000015 0
0.157148 -0.000011 0
0.157181 -0.000008 0
0.157204 -0.000006 0
0.157221 -0.000004 0
0.157232 -0.000003 0
0.157241 -0.000002 0
0.157247 -0.000002 0
0.157252 -0.000001 0
0.157256 -0.000001 0
0.157261 -0.000001 0
0.157267 -0.000002 0
0.157274 -0.000002 0
0.157283 -0.000003 0
0.157294 -0.000003 0
0.157307 -0.000004 0
0.157323 -0.000005 0
0.157342 -0.000006 0
0.157365 -0.000007 0
0.157391 -0.000008 0
0.157422 -0.000010 0
0.157459 -0.000011 0
0.157501 -0.000013 0
0.157550 -0.000015 0
0.157607 -0.000018 0
0.157673 -0.000021 0
0.157749 -0.000024 0
0.157836 -0.000027 0
0.157938 -0.000032 0
0.158054 -0.000036 0
0.158189 -0.000042 0
0.158344 -0.000048 0
0.158524 -0.000056 0
0.158730 -0.000064 0
0.158969 -0.000074 0
0.159244 -0.000086 0
0.159561 -0.000099 0
0.159928 -0.000114 0
0.160351 -0.000132 0
0.160840 -0.000153 0
0.161405 -0.000176 0
0.162059 -0.000204 0
0.162815 -0.000237 0
0.163692 -0.000274 0
0.164709 -0.000319 0
0.165889 -0.000371 0
0.167262 -0.000432 0
0.168862 -0.000504 0
0.170730 -0.000591 0
0.172917 -0.000694 0
0.175485 -0.000818 0
0.178511 -0.000969 0
0.182094 -0.001155 0
0.186357 -0.001384 0
0.191462 -0.001674 0
0.197626 -0.002044 0
0.205138 -0.002528 0
0.214405 -0.003176 0
0.226008 -0.004072 0
0.240816 -0.005360 0
0.260181 -0.007307 0
0.286323 -0.010457 0
0.323168 -0.015981 0
0.377968 -0.027365 0
0.467617 -0.049770 0
0.618881 -0.167248 0
0.994082 -0.270148 0
0.994083 -0.135074 0
1.000000 0.000070 0
0.999857 0.000213 0
0.999565 0.000363 0
0.999115 0.000527 0
0.998489 0.000711 0
0.997663 0.000924 0
0.996605 0.001176 0
0.995268 0.001482 0
0.993590 0.001862 0
0.991489 0.002343 0
0.988845 0.002970 0
0.985495 0.003810 0
0.981197 0.004974 0
0.975583 0.006661 0
0.968078 0.009266 0
0.957715 0.013547 0
0.942867 0.021940 0
0.920797 0.037628 0
0.888495 0.094303 0
0.891163 0.137329 0
0.842360 0.116801 0
0.771883 0.084711 0
0.701547 0.058825 0
0.640313 0.041292 0
0.589728 0.029985 0
0.548483 0.022625 0
0.514702 0.017670 0
0.486730 0.014197 0
0.463279 0.011671 0
0.443381 0.009773 0
0.426311 0.008307 0
0.411524 0.007150 0
0.398605 0.006217 0
0.387234 0.005453 0
0.377160 0.004818 0
0.368187 0.004284 0
0.360156 0.003829 0
0.352940 0.003436 0
0.346436 0.003095 0
0.340558 0.002795 0
0.335239 0.002529 0
0.330421 0.002291 0
0.326056 0.002075 0
0.322106 0.001878 0
0.318541 0.001696 0
0.315335 0.001525 0
0.312469 0.001362 0
0.309930 0.001205 0
0.307707 0.001052 0
0.305792 0.000900 0
0.304180 0.000750 0
0.302864 0.000601 0
0.301839 0.000454 0
0.301095 0.000311 0
0.300617 0.000174 0
0.300387 0.000049 0
0.300381 -0.000059 0
0.300558 -0.000146 0
0.300879 -0.000214 0
0.301309 -0.000264 0
0.301812 -0.000296 0
0.302359 -0.000313 0
0.302922 -0.000315 0
0.303479 -0.000307 0
0.304012 -0.000290 0
0.304508 -0.000267 0
0.304958 -0.000240 0
0.305357 -0.000211 0
0.305704 -0.000182 0
0.305999 -0.000153 0
0.306246 -0.000127 0
0.306448 -0.000103 0
0.306610 -0.000082 0
0.306738 -0.000064 0
0.306836 -0.000049 0
0.306911 -0.000037 0
0.306966 -0.000027 0
0.307006 -0.000019 0
0.307035 -0.000014 0
0.307056 -0.000010 0
0.307070 -0.000007 0
0.307081 -0.000005 0
0.307090 -0.000005 0
0.307098 -0.000005 0
0.307107 -0.000005 0
0.307117 -0.000006 0
0.307130 -0.000008 0
0.307144 -0.000009 0
0.307163 -0.000012 0
0.307185 -0.000014 0
0.307211 -0.000017 0
0.307242 -0.000020 0
0.307279 -0.000024 0
0.307323 -0.000028 0
0.307374 -0.000033 0
0.307433 -0.000038 0
0.307502 -0.000044 0
0.307582 -0.000051 0
0.307675 -0.000059 0
0.307782 -0.000068 0
0.307906 -0.000079 0
0.308049 -0.000091 0
0.308214 -0.000105 0
0.308405 -0.000121 0
0.308625 -0.000140 0
0.308878 -0.000162 0
0.309171 -0.000186 0
0.309509 -0.000215 0
0.309898 -0.000248 0
0.310347 -0.000286 0
0.310865 -0.000330 0
0.311464 -0.000381 0
0.312155 -0.000441 0
0.312953 -0.000509 0
0.313875 -0.000589 0
0.314941 -0.000681 0
0.316175 -0.000789 0
0.317604 -0.000914 0
0.319259 -0.001061 0
0.321180 -0.001233 0
0.323412 -0.001436 0
0.326008 -0.001675 0
0.329035 -0.001959 0
0.332571 -0.002297 0
0.336713 -0.002702 0
0.341581 -0.003192 0
0.347321 -0.003789 0
0.354122 -0.004525 0
0.362224 -0.005443 0
0.371939 -0.006605 0
0.383683 -0.008104 0
0.398020 -0.010080 0
0.415735 -0.012757 0
0.437956 -0.016505 0
0.466352 -0.021980 0
0.503486 -0.030422 0
0.553469 -0.044263 0
0.622875 -0.069768 0
0.723034 -0.116360 0
0.869264 -0.254279 0
0.994842 -0.362439 0
0.994842 -0.181219 0
1.000000 0.000105 0
0.999860 0.000317 0
0.999575 0.000541 0
0.999134 0.000785 0
0.998523 0.001058 0
0.997718 0.001374 0
0.996687 0.001748 0
0.995387 0.002201 0
0.993761 0.002762 0
0.991730 0.003472 0
0.989189 0.004393 0
0.985988 0.005619 0
0.981921 0.007306 0
0.976684 0.009723 0
0.969835 0.013377 0
0.960738 0.019205 0
0.948511 0.029698 0
0.933129 0.047910 0
0.915209 0.093159 0
0.945489 0.133239 0
0.948834 0.130357 0
0.923208 0.109084 0
0.882324 0.086181 0
0.837018 0.067309 0
0.793068 0.053022 0
0.752851 0.042426 0
0.717000 0.034529 0
0.685385 0.028559 0
0.657590 0.023969 0
0.633132 0.020377 0
0.611548 0.017520 0
0.592427 0.015211 0
0.575420 0.013318 0
0.560231 0.011746 0
0.546612 0.010425 0
0.534360 0.009301 0
0.523302 0.008336 0
0.513296 0.007499 0
0.504224 0.006766 0
0.495985 0.006118 0
0.488496 0.005540 0
0.481688 0.005020 0
0.475503 0.004547 0
0.469892 0.004112 0
0.464818 0.003708 0
0.460248 0.003328 0
0.456157 0.002967 0
0.452525 0.002618 0
0.449339 0.002279 0
0.446584 0.001946 0
0.444252 0.001619 0
0.442330 0.001297 0
0.440806 0.000984 0
0.439663 0.000681 0
0.438878 0.000395 0
0.438425 0.000133 0
0.438273 -0.000094 0
0.438381 -0.000277 0
0.438695 -0.000419 0
0.439166 -0.000522 0
0.439749 -0.000589 0
0.440402 -0.000624 0
0.441090 -0.000630 0
0.441781 -0.000614 0
0.442452 -0.000581 0
0.443083 -0.000534 0
0.443662 -0.000481 0
0.444180 -0.000423 0
0.444634 -0.000364 0
0.445023 -0.000308 0
0.445351 -0.000255 0
0.445621 -0.000207 0
0.445841 -0.000165 0
0.446015 -0.000129 0
0.446151 -0.000099 0
0.446255 -0.000074 0
0.446333 -0.000055 0
0.446390 -0.000039 0
0.446432 -0.000028 0
0.446463 -0.000020 0
0.446485 -0.000014 0
0.446502 -0.000011 0
0.446515 -0.000010 0
0.446527 -0.000010 0
0.446540 -0.000011 0
0.446553 -0.000013 0
0.446569 -0.000015 0
0.446588 -0.000019 0
0.446610 -0.000023 0
0.446637 -0.000028 0
0.446669 -0.000033 0
0.446707 -0.000039 0
0.446752 -0.000046 0
0.446805 -0.000054 0
0.446866 -0.000063 0
0.446938 -0.000073 0
0.447021 -0.000085 0
0.447118 -0.000099 0
0.447230 -0.000114 0
0.447359 -0.000132 0
0.447508 -0.000153 0
0.447681 -0.000176 0
0.447880 -0.000203 0
0.448109 -0.000235 0
0.448375 -0.000271 0
0.448680 -0.000312 0
0.449033 -0.000360 0
0.449440 -0.000415 0
0.449909 -0.000479 0
0.450451 -0.000553 0
0.451076 -0.000638 0
0.451797 -0.000737 0
0.452630 -0.000851 0
0.453591 -0.000983 0
0.454702 -0.001137 0
0.455985 -0.001315 0
0.457470 -0.001522 0
0.459187 -0.001764 0
0.461176 -0.002046 0
0.463481 -0.002376 0
0.466155 -0.002764 0
0.469262 -0.003221 0
0.472878 -0.003761 0
0.477092 -0.004402 0
0.482016 -0.005170 0
0.487783 -0.006093 0
0.494560 -0.007212 0
0.502550 -0.008583 0
0.512015 -0.010279 0
0.523286 -0.012409 0
0.536793 -0.015125 0
0.553103 -0.018657 0
0.572980 -0.023361 0
0.597468 -0.029807 0
0.628025 -0.038958 0
0.666702 -0.052534 0
0.716373 -0.073645 0
0.780743 -0.109264 0
0.862882 -0.168775 0
0.961995 -0.298530 0
0.995721 -0.391453 0
0.995721 -0.195726 0
1.000000 0.000138 0
0.999864 0.000418 0
0.999588 0.000714 0
0.999162 0.001035 0
0.998571 0.001395 0
0.997793 0.001811 0
0.996800 0.002302 0
0.995551 0.002895 0
0.993994 0.003628 0
0.992060 0.004552 0
0.989654 0.005743 0
0.986653 0.007320 0
0.982886 0.009468 0
0.978130 0.012498 0
0.972087 0.016968 0
0.964446 0.023846 0
0.954985 0.035276 0
0.945116 0.053713 0
0.937388 0.088333 0
0.965858 0.121088 0
0.988077 0.127562 0
0.990320 0.116835 0
0.976085 0.100454 0
0.952141 0.084402 0
0.923725 0.070637 0
0.894057 0.059365 0
0.864921 0.050255 0
0.837230 0.042892 0
0.811397 0.036909 0
0.787554 0.032011 0
0.765680 0.027967 0
0.745675 0.024599 0
0.727406 0.021768 0
0.710725 0.019367 0
0.695489 0.017314 0
0.681563 0.015543 0
0.668823 0.014002 0
0.657160 0.012651 0
0.646477 0.011456 0
0.636689 0.010392 0
0.627723 0.009435 0
0.619514 0.008567 0
0.612010 0.007773 0
0.605165 0.007039 0
0.598940 0.006354 0
0.593304 0.005708 0
0.588232 0.005092 0
0.583704 0.004498 0
0.579702 0.003921 0
0.576212 0.003357 0
0.573219 0.002805 0
0.570711 0.002266 0
0.568670 0.001743 0
0.567074 0.001242 0
0.565898 0.000772 0
0.565107 0.000341 0
0.564666 -0.000038 0
0.564546 -0.000350 0
0.564691 -0.000594 0
0.565046 -0.000773 0
0.565559 -0.000893 0
0.566182 -0.000960 0
0.566871 -0.000981 0
0.567591 -0.000965 0
0.568309 -0.000919 0
0.569001 -0.000851 0
0.569650 -0.000769 0
0.570242 -0.000680 0
0.570770 -0.000589 0
0.571230 -0.000500 0
0.571625 -0.000416 0
0.571955 -0.000340 0
0.572228 -0.000272 0
0.572448 -0.000214 0
0.572623 -0.000165 0
0.572759 -0.000125 0
0.572863 -0.000093 0
0.572942 -0.000068 0
0.573001 -0.000049 0
0.573045 -0.000035 0
0.573077 -0.000026 0
0.573102 -0.000020 0
0.573122 -0.000017 0
0.573139 -0.000016 0
0.573155 -0.000018 0
0.573171 -0.000020 0
0.573190 -0.000024 0
0.573211 -0.000029 0
0.573236 -0.000036 0
0.573265 -0.000043 0
0.573300 -0.000051 0
0.573341 -0.000060 0
0.573388 -0.000071 0
0.573444 -0.000083 0
0.573510 -0.000097 0
0.573586 -0.000113 0
0.573674 -0.000131 0
0.573777 -0.000152 0
0.573895 -0.000176 0
0.574032 -0.000203 0
0.574190 -0.000234 0
0.574373 -0.000271 0
0.574584 -0.000312 0
0.574828 -0.000360 0
0.575108 -0.000416 0
0.575432 -0.000480 0
0.575806 -0.000553 0
0.576237 -0.000638 0
0.576735 -0.000736 0
0.577308 -0.000850 0
0.577970 -0.000981 0
0.578734 -0.001132 0
0.579615 -0.001307 0
0.580633 -0.001510 0
0.581808 -0.001745 0
0.583165 -0.002018 0
0.584733 -0.002335 0
0.586546 -0.002704 0
0.588644 -0.003135 0
0.591073 -0.003638 0
0.593887 -0.004228 0
0.597152 -0.004922 0
0.600944 -0.005740 0
0.605355 -0.006710 0
0.610494 -0.007866 0
0.616494 -0.009250 0
0.623517 -0.010921 0
0.631760 -0.012956 0
0.641469 -0.015458 0
0.652950 -0.018573 0
0.666590 -0.022506 0
0.682884 -0.027558 0
0.702469 -0.034185 0
0.726168 -0.043092 0
0.755041 -0.055419 0
0.790403 -0.073093 0
0.833712 -0.099344 0
0.886006 -0.140531 0
0.945044 -0.203903 0
1.002330 -0.318439 0
0.996567 -0.395014 0
0.996568 -0.197505 0
1.000000 0.000170 0
0.999869 0.000516 0
0.999604 0.000880 0
0.999196 0.001276 0
0.998631 0.001719 0
0.997888 0.002229 0
0.996942 0.002831 0
0.995756 0.003557 0
0.994285 0.004449 0
0.992468 0.005569 0
0.990228 0.007004 0
0.987465 0.008887 0
0.984053 0.011423 0
0.979845 0.014939 0
0.974687 0.019987 0
0.968529 0.027466 0
0.961636 0.039034 0
0.955925 0.056409 0
0.954592 0.083141 0
0.976814 0.108756 0
1.001888 0.118541 0
1.016583 0.114876 0
1.018960 0.104621 0
1.011749 0.092598 0
0.998246 0.081076 0
0.981035 0.070828 0
0.961894 0.061977 0
0.941994 0.054411 0
0.922090 0.047962 0
0.902655 0.042458 0
0.883974 0.037747 0
0.866211 0.033697 0
0.849441 0.030199 0
0.833691 0.027162 0
0.818950 0.024510 0
0.805190 0.022181 0
0.792369 0.020122 0
0.780441 0.018292 0
0.769359 0.016653 0
0.759075 0.015177 0
0.749548 0.013836 0
0.740736 0.012609 0
0.732604 0.011478 0
0.725121 0.010425 0
0.718259 0.009437 0
0.711996 0.008500 0
0.706311 0.007603 0
0.701190 0.006738 0
0.696617 0.005898 0
0.692580 0.005077 0
0.689066 0.004276 0
0.686059 0.003495 0
0.683544 0.002740 0
0.681500 0.002020 0
0.679899 0.001345 0
0.678709 0.000728 0
0.677892 0.000178 0
0.677419 -0.000289 0
0.677259 -0.000661 0
0.677356 -0.000941 0
0.677659 -0.001138 0
0.678116 -0.001257 0
0.678683 -0.001311 0
0.679319 -0.001309 0
0.679987 -0.001262 0
0.680659 -0.001182 0
0.681309 -0.001080 0
0.681922 -0.000963 0
0.682483 -0.000842 0
0.682985 -0.000721 0
0.683425 -0.000605 0
0.683803 -0.000498 0
0.684122 -0.000403 0
0.684385 -0.000320 0
0.684599 -0.000249 0
0.684771 -0.000191 0
0.684905 -0.000143 0
0.685009 -0.000106 0
0.685089 -0.000078 0
0.685150 -0.000057 0
0.685196 -0.000042 0
0.685231 -0.000033 0
0.685259 -0.000027 0
0.685283 -0.000026 0
0.685304 -0.000026 0
0.685324 -0.000029 0
0.685345 -0.000034 0
0.685368 -0.000041 0
0.685394 -0.000049 0
0.685424 -0.000058 0
0.685459 -0.000069 0
0.685500 -0.000082 0
0.685548 -0.000096 0
0.685604 -0.000113 0
0.685668 -0.000131 0
0.685743 -0.000153 0
0.685831 -0.000177 0
0.685931 -0.000205 0
0.686048 -0.000238 0
0.686183 -0.000275 0
0.686339 -0.000317 0
0.686519 -0.000366 0
0.686727 -0.000423 0
0.686967 -0.000488 0
0.687244 -0.000563 0
0.687563 -0.000649 0
0.687931 -0.000749 0
0.688355 -0.000864 0
0.688845 -0.000997 0
0.689409 -0.001150 0
0.690061 -0.001327 0
0.690812 -0.001532 0
0.691679 -0.001768 0
0.692679 -0.002042 0
0.693833 -0.002360 0
0.695166 -0.002728 0
0.696705 -0.003156 0
0.698483 -0.003653 0
0.700538 -0.004232 0
0.702914 -0.004909 0
0.705665 -0.005700 0
0.708851 -0.006629 0
0.712544 -0.007722 0
0.716830 -0.009015 0
0.721810 -0.010550 0
0.727607 -0.012383 0
0.734366 -0.014585 0
0.742263 -0.017253 0
0.751511 -0.020514 0
0.762371 -0.024542 0
0.775161 -0.029583 0
0.790274 -0.035986 0
0.808184 -0.044266 0
0.829460 -0.055199 0
0.854744 -0.069983 0
0.884657 -0.090531 0
0.919485 -0.119821 0
0.958390 -0.163037 0
0.996571 -0.224958 0
1.023715 -0.323415 0
0.997327 -0.385883 0
0.997327 -0.192938 0
1.000000 0.000201 0
0.999876 0.000610 0
0.999624 0.001039 0
0.999237 0.001505 0
0.998701 0.002027 0
0.998000 0.002626 0
0.997109 0.003331 0
0.995998 0.004178 0
0.994627 0.005216 0
0.992946 0.006511 0
0.990895 0.008160 0
0.988400 0.010302 0
0.985378 0.013149 0
0.981752 0.017022 0
0.977493 0.022433 0
0.972743 0.030150 0
0.968054 0.041364 0
0.965343 0.057116 0
0.967644 0.078244 0
0.984884 0.098244 0
1.007327 0.108354 0
1.025519 0.108590 0
1.035982 0.102789 0
1.039040 0.094407 0
1.036280 0.085472 0
1.029328 0.076923 0
1.019503 0.069111 0
1.007797 0.062117 0
0.994941 0.055910 0
0.981469 0.050420 0
0.967767 0.045569 0
0.954113 0.041278 0
0.940703 0.037475 0
0.927674 0.034094 0
0.915115 0.031080 0
0.903085 0.028381 0
0.891619 0.025956 0
0.880735 0.023765 0
0.870440 0.021776 0
0.860732 0.019960 0
0.851605 0.018292 0
0.843050 0.016750 0
0.835058 0.015315 0
0.827618 0.013968 0
0.820721 0.012693 0
0.814357 0.011479 0
0.808519 0.010311 0
0.803198 0.009180 0
0.798388 0.008080 0
0.794080 0.007005 0
0.790267 0.005955 0
0.786936 0.004932 0
0.784075 0.003945 0
0.781667 0.003003 0
0.779690 0.002120 0
0.778118 0.001311 0
0.776918 0.000586 0
0.776054 -0.000044 0
0.775515 -0.000563 0
0.775264 -0.000966 0
0.775255 -0.001260 0
0.775441 -0.001455 0
0.775780 -0.001562 0
0.776231 -0.001595 0
0.776755 -0.001566 0
0.777321 -0.001490 0
0.777900 -0.001379 0
0.778470 -0.001247 0
0.779014 -0.001103 0
0.779517 -0.000955 0
0.779973 -0.000811 0
0.780376 -0.000676 0
0.780725 -0.000553 0
0.781023 -0.000445 0
0.781271 -0.000351 0
0.781475 -0.000272 0
0.781639 -0.000208 0
0.781770 -0.000156 0
0.781874 -0.000116 0
0.781954 -0.000087 0
0.782016 -0.000065 0
0.782065 -0.000051 0
0.782104 -0.000042 0
0.782135 -0.000038 0
0.782162 -0.000038 0
0.782187 -0.000040 0
0.782211 -0.000046 0
0.782236 -0.000053 0
0.782263 -0.000063 0
0.782293 -0.000074 0
0.782328 -0.000088 0
0.782367 -0.000103 0
0.782413 -0.000121 0
0.782466 -0.000141 0
0.782527 -0.000165 0
0.782598 -0.000191 0
0.782680 -0.000222 0
0.782775 -0.000257 0
0.782885 -0.000297 0
0.783012 -0.000343 0
0.783158 -0.000397 0
0.783327 -0.000458 0
0.783522 -0.000529 0
0.783747 -0.000610 0
0.784007 -0.000704 0
0.784306 -0.000812 0
0.784652 -0.000936 0
0.785050 -0.001080 0
0.785509 -0.001245 0
0.786038 -0.001437 0
0.786649 -0.001658 0
0.787353 -0.001913 0
0.788164 -0.002209 0
0.789101 -0.002550 0
0.790181 -0.002946 0