# vtk DataFile Version 2.0
generated by CFD-lab course output (written by Tobias Neckel) 
ASCII

DATASET STRUCTURED_GRID
DIMENSIONS  142 42 1 
POINTS 5964 float

0.000000 0.250000 0
0.024648 0.250000 0
0.049296 0.250000 0
0.073944 0.250000 0
0.098592 0.250000 0
0.123239 0.250000 0
0.147887 0.250000 0
0.172535 0.250000 0
0.197183 0.250000 0
0.221831 0.250000 0
0.246479 0.250000 0
0.271127 0.250000 0
0.295775 0.250000 0
0.320423 0.250000 0
0.345070 0.250000 0
0.369718 0.250000 0
0.394366 0.250000 0
0.419014 0.250000 0
0.443662 0.250000 0
0.468310 0.250000 0
0.492958 0.250000 0
0.517606 0.250000 0
0.542254 0.250000 0
0.566901 0.250000 0
0.591549 0.250000 0
0.616197 0.250000 0
0.640845 0.250000 0
0.665493 0.250000 0
0.690141 0.250000 0
0.714789 0.250000 0
0.739437 0.250000 0
0.764085 0.250000 0
0.788732 0.250000 0
0.813380 0.250000 0
0.838028 0.250000 0
0.862676 0.250000 0
0.887324 0.250000 0
0.911972 0.250000 0
0.936620 0.250000 0
0.961268 0.250000 0
0.985915 0.250000 0
1.010563 0.250000 0
1.035211 0.250000 0
1.059859 0.250000 0
1.084507 0.250000 0
1.109155 0.250000 0
1.133803 0.250000 0
1.158451 0.250000 0
1.183099 0.250000 0
1.207746 0.250000 0
1.232394 0.250000 0
1.257042 0.250000 0
1.281690 0.250000 0
1.306338 0.250000 0
1.330986 0.250000 0
1.355634 0.250000 0
1.380282 0.250000 0
1.404930 0.250000 0
1.429577 0.250000 0
1.454225 0.250000 0
1.478873 0.250000 0
1.503521 0.250000 0
1.528169 0.250000 0
1.552817 0.250000 0
1.577465 0.250000 0
1.602113 0.250000 0
1.626761 0.250000 0
1.651408 0.250000 0
1.676056 0.250000 0
1.700704 0.250000 0
1.725352 0.250000 0
1.750000 0.250000 0
1.774648 0.250000 0
1.799296 0.250000 0
1.823944 0.250000 0
1.848592 0.250000 0
1.873239 0.250000 0
1.897887 0.250000 0
1.922535 0.250000 0
1.947183 0.250000 0
1.971831 0.250000 0
1.996479 0.250000 0
2.021127 0.250000 0
2.045775 0.250000 0
2.070423 0.250000 0
2.095070 0.250000 0
2.119718 0.250000 0
2.144366 0.250000 0
2.169014 0.250000 0
2.193662 0.250000 0
2.218310 0.250000 0
2.242958 0.250000 0
2.267606 0.250000 0
2.292254 0.250000 0
2.316901 0.250000 0
2.341549 0.250000 0
2.366197 0.250000 0
2.390845 0.250000 0
2.415493 0.250000 0
2.440141 0.250000 0
2.464789 0.250000 0
2.489437 0.250000 0
2.514085 0.250000 0
2.538732 0.250000 0
2.563380 0.250000 0
2.588028 0.250000 0
2.612676 0.250000 0
2.637324 0.250000 0
2.661972 0.250000 0
2.686620 0.250000 0
2.711268 0.250000 0
2.735915 0.250000 0
2.760563 0.250000 0
2.785211 0.250000 0
2.809859 0.250000 0
2.834507 0.250000 0
2.859155 0.250000 0
2.883803 0.250000 0
2.908451 0.250000 0
2.933099 0.250000 0
2.957746 0.250000 0
2.982394 0.250000 0
3.007042 0.250000 0
3.031690 0.250000 0
3.056338 0.250000 0
3.080986 0.250000 0
3.105634 0.250000 0
3.130282 0.250000 0
3.154930 0.250000 0
3.179577 0.250000 0
3.204225 0.250000 0
3.228873 0.250000 0
3.253521 0.250000 0
3.278169 0.250000 0
3.302817 0.250000 0
3.327465 0.250000 0
3.352113 0.250000 0
3.376761 0.250000 0
3.401408 0.250000 0
3.426056 0.250000 0
3.450704 0.250000 0
3.475352 0.250000 0
0.000000 0.261905 0
0.024648 0.261905 0
0.049296 0.261905 0
0.073944 0.261905 0
0.098592 0.261905 0
0.123239 0.261905 0
0.147887 0.261905 0
0.172535 0.261905 0
0.197183 0.261905 0
0.221831 0.261905 0
0.246479 0.261905 0
0.271127 0.261905 0
0.295775 0.261905 0
0.320423 0.261905 0
0.345070 0.261905 0
0.369718 0.261905 0
0.394366 0.261905 0
0.419014 0.261905 0
0.443662 0.261905 0
0.468310 0.261905 0
0.492958 0.261905 0
0.517606 0.261905 0
0.542254 0.261905 0
0.566901 0.261905 0
0.591549 0.261905 0
0.616197 0.261905 0
0.640845 0.261905 0
0.665493 0.261905 0
0.690141 0.261905 0
0.714789 0.261905 0
0.739437 0.261905 0
0.764085 0.261905 0
0.788732 0.261905 0
0.813380 0.261905 0
0.838028 0.261905 0
0.862676 0.261905 0
0.887324 0.261905 0
0.911972 0.261905 0
0.936620 0.261905 0
0.961268 0.261905 0
0.985915 0.261905 0
1.010563 0.261905 0
1.035211 0.261905 0
1.059859 0.261905 0
1.084507 0.261905 0
1.109155 0.261905 0
1.133803 0.261905 0
1.158451 0.261905 0
1.183099 0.261905 0
1.207746 0.261905 0
1.232394 0.261905 0
1.257042 0.261905 0
1.281690 0.261905 0
1.306338 0.261905 0
1.330986 0.261905 0
1.355634 0.261905 0
1.380282 0.261905 0
1.404930 0.261905 0
1.429577 0.261905 0
1.454225 0.261905 0
1.478873 0.261905 0
1.503521 0.261905 0
1.528169 0.261905 0
1.552817 0.261905 0
1.577465 0.261905 0
1.602113 0.261905 0
1.626761 0.261905 0
1.651408 0.261905 0
1.676056 0.261905 0
1.700704 0.261905 0
1.725352 0.261905 0
1.750000 0.261905 0
1.774648 0.261905 0
1.799296 0.261905 0
1.823944 0.261905 0
1.848592 0.261905 0
1.873239 0.261905 0
1.897887 0.261905 0
1.922535 0.261905 0
1.947183 0.261905 0
1.971831 0.261905 0
1.996479 0.261905 0
2.021127 0.261905 0
2.045775 0.261905 0
2.070423 0.261905 0
2.095070 0.261905 0
2.119718 0.261905 0
2.144366 0.261905 0
2.169014 0.261905 0
2.193662 0.261905 0
2.218310 0.261905 0
2.242958 0.261905 0
2.267606 0.261905 0
2.292254 0.261905 0
2.316901 0.261905 0
2.341549 0.261905 0
2.366197 0.261905 0
2.390845 0.261905 0
2.415493 0.261905 0
2.440141 0.261905 0
2.464789 0.261905 0
2.489437 0.261905 0
2.514085 0.261905 0
2.538732 0.261905 0
2.563380 0.261905 0
2.588028 0.261905 0
2.612676 0.261905 0
2.637324 0.261905 0
2.661972 0.261905 0
2.686620 0.261905 0
2.711268 0.261905 0
2.735915 0.261905 0
2.760563 0.261905 0
2.785211 0.261905 0
2.809859 0.261905 0
2.834507 0.261905 0
2.859155 0.261905 0
2.883803 0.261905 0
2.908451 0.261905 0
2.933099 0.261905 0
2.957746 0.261905 0
2.982394 0.261905 0
3.007042 0.261905 0
3.031690 0.261905 0
3.056338 0.261905 0
3.080986 0.261905 0
3.105634 0.261905 0
3.130282 0.261905 0
3.154930 0.261905 0
3.179577 0.261905 0
3.204225 0.261905 0
3.228873 0.261905 0
3.253521 0.261905 0
3.278169 0.261905 0
3.302817 0.261905 0
3.327465 0.261905 0
3.352113 0.261905 0
3.376761 0.261905 0
3.401408 0.261905 0
3.426056 0.261905 0
3.450704 0.261905 0
3.475352 0.261905 0
0.000000 0.273810 0
0.024648 0.273810 0
0.049296 0.273810 0
0.073944 0.273810 0
0.098592 0.273810 0
0.123239 0.273810 0
0.147887 0.273810 0
0.172535 0.273810 0
0.197183 0.273810 0
0.221831 0.273810 0
0.246479 0.273810 0
0.271127 0.273810 0
0.295775 0.273810 0
0.320423 0.273810 0
0.345070 0.273810 0
0.369718 0.273810 0
0.394366 0.273810 0
0.419014 0.273810 0
0.443662 0.273810 0
0.468310 0.273810 0
0.492958 0.273810 0
0.517606 0.273810 0
0.542254 0.273810 0
0.566901 0.273810 0
0.591549 0.273810 0
0.616197 0.273810 0
0.640845 0.273810 0
0.665493 0.273810 0
0.690141 0.273810 0
0.714789 0.273810 0
0.739437 0.273810 0
0.764085 0.273810 0
0.788732 0.273810 0
0.813380 0.273810 0
0.838028 0.273810 0
0.862676 0.273810 0
0.887324 0.273810 0
0.911972 0.273810 0
0.936620 0.273810 0
0.961268 0.273810 0
0.985915 0.273810 0
1.010563 0.273810 0
1.035211 0.273810 0
1.059859 0.273810 0
1.084507 0.273810 0
1.109155 0.273810 0
1.133803 0.273810 0
1.158451 0.273810 0
1.183099 0.273810 0
1.207746 0.273810 0
1.232394 0.273810 0
1.257042 0.273810 0
1.281690 0.273810 0
1.306338 0.273810 0
1.330986 0.273810 0
1.355634 0.273810 0
1.380282 0.273810 0
1.404930 0.273810 0
1.429577 0.273810 0
1.454225 0.273810 0
1.478873 0.273810 0
1.503521 0.273810 0
1.528169 0.273810 0
1.552817 0.273810 0
1.577465 0.273810 0
1.602113 0.273810 0
1.626761 0.273810 0
1.651408 0.273810 0
1.676056 0.273810 0
1.700704 0.273810 0
1.725352 0.273810 0
1.750000 0.273810 0
1.774648 0.273810 0
1.799296 0.273810 0
1.823944 0.273810 0
1.848592 0.273810 0
1.873239 0.273810 0
1.897887 0.273810 0
1.922535 0.273810 0
1.947183 0.273810 0
1.971831 0.273810 0
1.996479 0.273810 0
2.021127 0.273810 0
2.045775 0.273810 0
2.070423 0.273810 0
2.095070 0.273810 0
2.119718 0.273810 0
2.144366 0.273810 0
2.169014 0.273810 0
2.193662 0.273810 0
2.218310 0.273810 0
2.242958 0.273810 0
2.267606 0.273810 0
2.292254 0.273810 0
2.316901 0.273810 0
2.341549 0.273810 0
2.366197 0.273810 0
2.390845 0.273810 0
2.415493 0.273810 0
2.440141 0.273810 0
2.464789 0.273810 0
2.489437 0.273810 0
2.514085 0.273810 0
2.538732 0.273810 0
2.563380 0.273810 0
2.588028 0.273810 0
2.612676 0.273810 0
2.637324 0.273810 0
2.661972 0.273810 0
2.686620 0.273810 0
2.711268 0.273810 0
2.735915 0.273810 0
2.760563 0.273810 0
2.785211 0.273810 0
2.809859 0.273810 0
2.834507 0.273810 0
2.859155 0.273810 0
2.883803 0.273810 0
2.908451 0.273810 0
2.933099 0.273810 0
2.957746 0.273810 0
2.982394 0.273810 0
3.007042 0.273810 0
3.031690 0.273810 0
3.056338 0.273810 0
3.080986 0.273810 0
3.105634 0.273810 0
3.130282 0.273810 0
3.154930 0.273810 0
3.179577 0.273810 0
3.204225 0.273810 0
3.228873 0.273810 0
3.253521 0.273810 0
3.278169 0.273810 0
3.302817 0.273810 0
3.327465 0.273810 0
3.352113 0.273810 0
3.376761 0.273810 0
3.401408 0.273810 0
3.426056 0.273810 0
3.450704 0.273810 0
3.475352 0.273810 0
0.000000 0.285714 0
0.024648 0.285714 0
0.049296 0.285714 0
0.073944 0.285714 0
0.098592 0.285714 0
0.123239 0.285714 0
0.147887 0.285714 0
0.172535 0.285714 0
0.197183 0.285714 0
0.221831 0.285714 0
0.246479 0.285714 0
0.271127 0.285714 0
0.295775 0.285714 0
0.320423 0.285714 0
0.345070 0.285714 0
0.369718 0.285714 0
0.394366 0.285714 0
0.419014 0.285714 0
0.443662 0.285714 0
0.468310 0.285714 0
0.492958 0.285714 0
0.517606 0.285714 0
0.542254 0.285714 0
0.566901 0.285714 0
0.591549 0.285714 0
0.616197 0.285714 0
0.640845 0.285714 0
0.665493 0.285714 0
0.690141 0.285714 0
0.714789 0.285714 0
0.739437 0.285714 0
0.764085 0.285714 0
0.788732 0.285714 0
0.813380 0.285714 0
0.838028 0.285714 0
0.862676 0.285714 0
0.887324 0.285714 0
0.911972 0.285714 0
0.936620 0.285714 0
0.961268 0.285714 0
0.985915 0.285714 0
1.010563 0.285714 0
1.035211 0.285714 0
1.059859 0.285714 0
1.084507 0.285714 0
1.109155 0.285714 0
1.133803 0.285714 0
1.158451 0.285714 0
1.183099 0.285714 0
1.207746 0.285714 0
1.232394 0.285714 0
1.257042 0.285714 0
1.281690 0.285714 0
1.306338 0.285714 0
1.330986 0.285714 0
1.355634 0.285714 0
1.380282 0.285714 0
1.404930 0.285714 0
1.429577 0.285714 0
1.454225 0.285714 0
1.478873 0.285714 0
1.503521 0.285714 0
1.528169 0.285714 0
1.552817 0.285714 0
1.577465 0.285714 0
[...]
POINT_DATA 5964 

VECTORS velocity float
1.000000 0.000000 0
0.999854 0.000000 0
0.999556 0.000000 0
0.999097 0.000000 0
0.998458 0.000000 0
0.997615 0.000000 0
0.996532 0.000000 0
0.995162 0.000000 0
0.993440 0.000000 0
0.991276 0.000000 0
0.988544 0.000000 0
0.985063 0.000000 0
0.980562 0.000000 0
0.974616 0.000000 0
0.966519 0.000000 0
0.954936 0.000000 0
0.937387 0.000000 0
0.905764 0.000000 0
0.847698 0.000000 0
-0.000000 0.000000 0
-0.000000 0.000000 0
-0.000000 0.000000 0
-0.000000 0.000000 0
-0.000000 0.000000 0
-0.000000 0.000000 0
-0.000000 0.000000 0
-0.000000 0.000000 0
-0.000000 0.000000 0
-0.000000 0.000000 0
-0.000000 0.000000 0
-0.000000 0.000000 0
-0.000000 0.000000 0
-0.000000 0.000000 0
-0.000000 0.000000 0
-0.000000 0.000000 0
-0.000000 0.000000 0
-0.000000 0.000000 0
-0.000000 0.000000 0
-0.000000 0.000000 0
-0.000000 0.000000 0
-0.000000 0.000000 0
-0.000000 0.000000 0
-0.000000 0.000000 0
-0.000000 0.000000 0
-0.000000 0.000000 0
-0.000000 0.000000 0
-0.000000 0.000000 0
-0.000000 0.000000 0
-0.000000 0.000000 0
-0.000000 0.000000 0
-0.000000 0.000000 0
-0.000000 0.000000 0
-0.000000 0.000000 0
-0.000000 0.000000 0
-0.000000 0.000000 0
-0.000000 0.000000 0
-0.000000 0.000000 0
-0.000000 0.000000 0
-0.000000 0.000000 0
-0.000000 0.000000 0
-0.000000 0.000000 0
-0.000000 0.000000 0
-0.000000 0.000000 0
-0.000000 0.000000 0
-0.000000 0.000000 0
-0.000000 0.000000 0
-0.000000 0.000000 0
-0.000000 0.000000 0
-0.000000 0.000000 0
-0.000000 0.000000 0
-0.000000 0.000000 0
-0.000000 0.000000 0
-0.000000 0.000000 0
-0.000000 0.000000 0
-0.000000 0.000000 0
-0.000000 0.000000 0
-0.000000 0.000000 0
-0.000001 0.000000 0
-0.000001 0.000000 0
-0.000001 0.000000 0
-0.000001 0.000000 0
-0.000001 0.000000 0
-0.000001 0.000000 0
-0.000001 0.000000 0
-0.000001 0.000000 0
-0.000001 0.000000 0
-0.000001 0.000000 0
-0.000001 0.000000 0
-0.000001 0.000000 0
-0.000001 0.000000 0
-0.000001 0.000000 0
-0.000001 0.000000 0
-0.000001 0.000000 0
-0.000001 0.000000 0
-0.000001 0.000000 0
-0.000001 0.000000 0
-0.000001 0.000000 0
-0.000001 0.000000 0
-0.000001 0.000000 0
-0.000001 0.000000 0
-0.000001 0.000000 0
-0.000001 0.000000 0
-0.000001 0.000000 0
-0.000001 0.000000 0
-0.000001 0.000000 0
-0.000001 0.000000 0
-0.000001 0.000000 0
-0.000001 0.000000 0
-0.000001 0.000000 0
-0.000001 0.000000 0
-0.000001 0.000000 0
-0.000001 0.000000 0
-0.000001 0.000000 0
-0.000001 0.000000 0
-0.000001 0.000000 0
-0.000001 0.000000 0
-0.000001 0.000000 0
-0.000001 0.000000 0
-0.000001 0.000000 0
-0.000001 0.000000 0
-0.000001 0.000000 0
-0.000001 0.000000 0
-0.000001 0.000000 0
-0.000001 0.000000 0
-0.000001 0.000000 0
-0.000001 0.000000 0
-0.000001 0.000000 0
-0.000001 0.000000 0
-0.000001 0.000000 0
-0.000001 0.000000 0
-0.000001 0.000000 0
-0.000001 0.000000 0
-0.000001 0.000000 0
-0.000001 0.000000 0
-0.000001 0.000000 0
-0.000001 0.000000 0
-0.000000 0.000000 0
-0.000000 0.000000 0
0.000000 0.000000 0
0.000000 0.000000 0
-0.000000 0.000000 0
0.496637 0.000000 0
1.000000 0.000035 0
0.999854 0.000107 0
0.999558 0.000183 0
0.999101 0.000265 0
0.998465 0.000358 0
0.997626 0.000465 0
0.996549 0.000592 0
0.995187 0.000747 0
0.993475 0.000939 0
0.991326 0.001182 0
0.988615 0.001500 0
0.985166 0.001928 0
0.980715 0.002523 0
0.974852 0.003391 0
0.966905 0.004753 0
0.955644 0.007035 0
0.938828 0.011875 0
0.910184 0.021659 0
0.860879 0.078853 0
0.714892 0.110956 0
0.576511 0.072745 0
0.473024 0.041074 0
0.401074 0.022638 0
0.351172 0.013308 0
0.315511 0.008679 0
0.289008 0.006201 0
0.268570 0.004717 0
0.252311 0.003739 0
0.239048 0.003049 0
0.228003 0.002542 0
0.218651 0.002155 0
0.210621 0.001854 0
0.203644 0.001614 0
0.197520 0.001419 0
0.192097 0.001259 0
0.187259 0.001125 0
0.182912 0.001013 0
0.178983 0.000918 0
0.175411 0.000836 0
0.172147 0.000765 0
0.169152 0.000703 0
0.166391 0.000649 0
0.163837 0.000602 0
0.161465 0.000560 0
0.159255 0.000523 0
0.157190 0.000489 0
0.155255 0.000459 0
0.153437 0.000432 0
0.151725 0.000408 0
0.150109 0.000386 0
0.148581 0.000365 0
0.147133 0.000347 0
0.145759 0.000329 0
0.144454 0.000314 0
0.143211 0.000299 0
0.142027 0.000285 0
0.140898 0.000272 0
0.139821 0.000260 0
0.138791 0.000249 0
0.137807 0.000238 0
0.136865 0.000228 0
0.135965 0.000219 0
0.135104 0.000210 0
0.134279 0.000201 0
0.133491 0.000193 0
0.132737 0.000184 0
0.132017 0.000177 0
0.131328 0.000169 0
0.130672 0.000162 0
0.130046 0.000154 0
0.129451 0.000147 0
0.128886 0.000140 0
0.128351 0.000133 0
0.127845 0.000126 0
0.127370 0.000119 0
0.126924 0.000112 0
0.126509 0.000104 0
0.126125 0.000097 0
0.125773 0.000089 0
0.125451 0.000082 0
0.125162 0.000074 0
0.124905 0.000066 0
0.124681 0.000058 0
0.124488 0.000049 0
0.124328 0.000041 0
0.124199 0.000033 0
0.124101 0.000025 0
0.124032 0.000017 0
0.123990 0.000010 0
0.123975 0.000003 0
0.123983 -0.000003 0
0.124012 -0.000008 0
0.124059 -0.000013 0
0.124123 -0.000018 0
0.124201 -0.000022 0
0.124292 -0.000026 0
0.124396 -0.000029 0
0.124510 -0.000032 0
0.124635 -0.000036 0
0.124772 -0.000039 0
0.124919 -0.000043 0
0.125080 -0.000046 0
0.125254 -0.000051 0
0.125444 -0.000056 0
0.125652 -0.000061 0
0.125882 -0.000068 0
0.126137 -0.000076 0
0.126422 -0.000085 0
0.126741 -0.000095 0
0.127101 -0.000108 0
0.127509 -0.000122 0
0.127972 -0.000139 0
0.128499 -0.000159 0
0.129101 -0.000182 0
0.129791 -0.000208 0
0.130581 -0.000239 0
0.131489 -0.000275 0
0.132534 -0.000318 0
0.133739 -0.000367 0
0.135130 -0.000425 0
0.136740 -0.000493 0
0.138607 -0.000573 0
0.140776 -0.000669 0
0.143305 -0.000783 0
0.146263 -0.000920 0
0.149735 -0.001087 0
0.153830 -0.001292 0
0.158685 -0.001545 0
0.164481 -0.001864 0
0.171454 -0.002271 0
0.179923 -0.002802 0
0.190333 -0.003512 0
0.203314 -0.004490 0
0.219801 -0.005886 0
0.241230 -0.007978 0
0.269925 -0.011318 0
0.309924 -0.017077 0
0.368543 -0.028699 0
0.462580 -0.051113 0
0.617838 -0.167207 0
0.993588 -0.268826 0
0.993588 -0.134413 0
1.000000 0.000070 0
0.999856 0.000213 0
0.999564 0.000364 0
0.999113 0.000528 0
0.998486 0.000712 0
0.997659 0.000926 0
0.996599 0.001178 0
0.995260 0.001485 0
0.993579 0.001865 0
0.991473 0.002347 0
0.988826 0.002975 0
0.985470 0.003816 0
0.981164 0.004982 0
0.975542 0.006670 0
0.968027 0.009277 0
0.957651 0.013561 0
0.942788 0.021957 0
0.920699 0.037649 0
0.888375 0.094325 0
0.891005 0.137348 0
0.842157 0.116821 0
0.771628 0.084734 0
0.701235 0.058854 0
0.639935 0.041327 0
0.589276 0.030025 0
0.547945 0.022672 0
0.514066 0.017724 0
0.485982 0.014259 0
0.462405 0.011741 0
0.442362 0.009851 0
0.425129 0.008396 0
0.410159 0.007249 0
0.397033 0.006328 0
0.385430 0.005577 0
0.375097 0.004956 0
0.365834 0.004436 0
0.357479 0.003997 0
0.349903 0.003623 0
0.342998 0.003302 0
0.336676 0.003023 0
0.330864 0.002780 0
0.325500 0.002567 0
0.320531 0.002379 0
0.315912 0.002213 0
0.311607 0.002065 0
0.307582 0.001932 0
0.303809 0.001813 0
0.300264 0.001705 0
0.296925 0.001607 0
0.293773 0.001518 0
0.290794 0.001437 0
0.287972 0.001363 0
0.285294 0.001294 0
0.282751 0.001231 0
0.280331 0.001172 0
0.278027 0.001117 0
0.275830 0.001066 0
0.273735 0.001018 0
0.271735 0.000973 0
0.269824 0.000930 0
0.267999 0.000889 0
0.266254 0.000851 0
0.264586 0.000814 0
0.262993 0.000779 0
0.261470 0.000745 0
0.260016 0.000712 0
0.258628 0.000680 0
0.257305 0.000650 0
0.256046 0.000619 0
0.254848 0.000590 0
0.253711 0.000560 0
0.252635 0.000531 0
0.251618 0.000503 0
0.250662 0.000474 0
0.249765 0.000445 0
0.248928 0.000415 0
0.248152 0.000386 0
0.247436 0.000356 0
0.246782 0.000326 0
0.246190 0.000295 0
0.245660 0.000264 0
0.245191 0.000233 0
0.244785 0.000201 0
0.244439 0.000170 0
0.244152 0.000140 0
0.243924 0.000110 0
0.243751 0.000081 0
0.243631 0.000053 0
0.243561 0.000027 0
0.243538 0.000003 0
0.243557 -0.000018 0
0.243612 -0.000037 0
0.243699 -0.000053 0
0.243814 -0.000068 0
0.243953 -0.000082 0
0.244115 -0.000094 0
0.244297 -0.000105 0
0.244497 -0.000116 0
0.244715 -0.000126 0
0.244951 -0.000137 0
0.245206 -0.000149 0
0.245482 -0.000161 0
0.245780 -0.000176 0
0.246104 -0.000192 0
0.246460 -0.000212 0
0.246851 -0.000234 0
0.247285 -0.000261 0
0.247768 -0.000292 0
0.248310 -0.000328 0
0.248919 -0.000371 0
0.249609 -0.000420 0
0.250391 -0.000478 0
0.251282 -0.000546 0
0.252298 -0.000624 0
0.253460 -0.000715 0
0.254792 -0.000820 0
0.256320 -0.000943 0
0.258077 -0.001087 0
0.260099 -0.001254 0
0.262431 -0.001450 0
0.265125 -0.001679 0
0.268242 -0.001949 0
0.271857 -0.002269 0
0.276059 -0.002650 0
0.280957 -0.003105 0
0.286684 -0.003655 0
0.293408 -0.004323 0
0.301338 -0.005145 0
0.310742 -0.006167 0
0.321968 -0.007458 0
0.335473 -0.009118 0
0.351877 -0.011298 0
0.372036 -0.014233 0
0.397162 -0.018313 0
0.429034 -0.024210 0
0.470335 -0.033179 0
0.525297 -0.047631 0
0.600559 -0.073731 0
0.707461 -0.120408 0
0.860660 -0.256473 0
0.994310 -0.362969 0
0.994311 -0.181485 0
1.000000 0.000105 0
0.999859 0.000318 0
0.999574 0.000542 0
0.999133 0.000786 0
0.998521 0.001060 0
0.997714 0.001377 0
0.996681 0.001751 0
0.995379 0.002205 0
0.993750 0.002767 0
0.991715 0.003478 0
0.989169 0.004400 0
0.985963 0.005628 0
0.981889 0.007318 0
0.976644 0.009737 0
0.969785 0.013394 0
0.960676 0.019226 0
0.948434 0.029723 0
0.933032 0.047941 0
0.915091 0.093195 0
0.945337 0.133279 0
0.948634 0.130403 0
0.922949 0.109139 0
0.881994 0.086245 0
0.836606 0.067384 0
0.792560 0.053110 0
0.752231 0.042527 0
0.716253 0.034645 0
0.684491 0.028691 0
0.656527 0.024118 0
0.631877 0.020545 0
0.610075 0.017709 0
0.590708 0.015424 0
0.573421 0.013557 0
0.557916 0.012014 0
0.543943 0.010724 0
0.531292 0.009635 0
0.519787 0.008708 0
0.509281 0.007912 0
0.499649 0.007224 0
0.490787 0.006625 0
0.482603 0.006102 0
0.475022 0.005641 0
0.467978 0.005233 0
0.461413 0.004870 0
0.455278 0.004546 0
0.449532 0.004256 0
0.444136 0.003994 0
0.439058 0.003757 0
0.434269 0.003543 0
0.429746 0.003347 0
0.425464 0.003167 0
0.421406 0.003003 0
0.417554 0.002851 0
0.413892 0.002711 0
0.410408 0.002580 0
0.407089 0.002459 0
0.403924 0.002345 0
0.400905 0.002239 0
0.398022 0.002138 0
0.395269 0.002043 0
0.392638 0.001953 0
0.390125 0.001867 0
0.387723 0.001785 0
0.385428 0.001706 0
0.383237 0.001630 0
0.381145 0.001557 0
0.379150 0.001486 0
0.377250 0.001416 0
0.375442 0.001349 0
0.373724 0.001282 0
0.372096 0.001216 0
0.370556 0.001151 0
0.369103 0.001086 0
0.367738 0.001021 0
0.366460 0.000956 0
0.365270 0.000891 0
0.364167 0.000825 0
0.363152 0.000758 0
0.362225 0.000691 0
0.361386 0.000624 0
0.360635 0.000556 0
0.359972 0.000488 0
0.359396 0.000421 0
0.358904 0.000355 0
0.358495 0.000290 0
0.358166 0.000227 0
0.357913 0.000166 0
0.357732 0.000109 0
0.357619 0.000055 0
0.357570 0.000005 0
0.357578 -0.000038 0
0.357636 -0.000077 0
0.357738 -0.000111 0
0.357879 -0.000141 0
0.358052 -0.000168 0
0.358256 -0.000192 0
0.358486 -0.000214 0
0.358740 -0.000235 0
0.359018 -0.000255 0
0.359318 -0.000276 0
0.359643 -0.000299 0
0.359994 -0.000323 0
0.360373 -0.000352 0
0.360785 -0.000384 0
0.361235 -0.000422 0
0.361730 -0.000466 0
0.362278 -0.000519 0
0.362887 -0.000580 0
0.363568 -0.000651 0
0.364335 -0.000735 0
0.365200 -0.000833 0
0.366180 -0.000947 0
0.367295 -0.001080 0
0.368565 -0.001234 0
0.370016 -0.001413 0
0.371677 -0.001621 0
0.373581 -0.001862 0
0.375766 -0.002143 0
0.378278 -0.002470 0
0.381171 -0.002852 0
0.384505 -0.003300 0
0.388355 -0.003825 0
0.392809 -0.004444 0
0.397970 -0.005178 0
0.403966 -0.006052 0
0.410951 -0.007101 0
0.419112 -0.008370 0
0.428683 -0.009917 0
0.439957 -0.011828 0
0.453307 -0.014216 0
0.469212 -0.017248 0
0.488301 -0.021172 0
0.511413 -0.026362 0
0.539681 -0.033416 0
0.574672 -0.043320 0
0.618560 -0.057813 0
0.674364 -0.079975 0
0.745929 -0.116683 0
0.836637 -0.176740 0
0.945838 -0.305754 0
0.995128 -0.397930 0
0.995128 -0.198965 0
1.000000 0.000138 0
0.999864 0.000419 0
0.999587 0.000715 0
0.999160 0.001037 0
0.998568 0.001398 0
0.997790 0.001814 0
0.996795 0.002306 0
0.995543 0.002901 0
0.993984 0.003634 0
0.992045 0.004560 0
0.989635 0.005753 0
0.986628 0.007332 0
0.982855 0.009483 0
0.978090 0.012516 0
0.972038 0.016990 0
0.964385 0.023873 0
0.954909 0.035308 0
0.945023 0.053753 0
0.937273 0.088382 0
0.965713 0.121147 0
0.987891 0.127634 0
0.990081 0.116921 0
0.975779 0.100557 0
0.951752 0.084523 0
0.923238 0.070778 0
0.893453 0.059528 0
0.864179 0.050442 0
0.836328 0.043106 0
0.810310 0.037153 0
0.786253 0.032288 0
0.764133 0.028280 0
0.743849 0.024952 0
0.725260 0.022166 0
0.708217 0.019814 0
0.692571 0.017815 0
0.678181 0.016104 0
0.664919 0.014629 0
0.652669 0.013350 0
0.641327 0.012234 0
0.630800 0.011256 0
0.621007 0.010394 0
0.611875 0.009631 0
0.603340 0.008953 0
0.595346 0.008347 0
0.587843 0.007803 0
0.580786 0.007314 0
0.574137 0.006872 0
0.567860 0.006470 0
0.561924 0.006105 0
0.556303 0.005771 0
0.550971 0.005465 0
0.545907 0.005183 0
0.541091 0.004923 0
0.536507 0.004682 0
0.532138 0.004458 0
0.527971 0.004249 0
0.523993 0.004053 0
0.520194 0.003869 0
0.516563 0.003695 0
0.513093 0.003530 0
0.509774 0.003374 0
0.506601 0.003225 0
0.503567 0.003083 0
0.500667 0.002946 0
0.497897 0.002814 0
0.495251 0.002686 0
0.492727 0.002562 0
0.490322 0.002441 0
0.488033 0.002322 0
0.485858 0.002206 0
0.483796 0.002091 0
0.481845 0.001977 0
0.480004 0.001863 0
0.478274 0.001750 0
0.476654 0.001637 0
0.475143 0.001523 0
0.473742 0.001409 0
0.472451 0.001294 0
0.471270 0.001178 0
0.470198 0.001062 0
0.469235 0.000947 0
0.468380 0.000831 0
0.467631 0.000717 0
0.466986 0.000605 0
0.466443 0.000496 0
0.465997 0.000391 0
0.465643 0.000290 0
0.465378 0.000195 0
0.465194 0.000106 0
0.465086 0.000023 0
0.465049 -0.000050 0
0.465077 -0.000114 0
0.465160 -0.000171 0
0.465292 -0.000220 0
0.465466 -0.000264 0
0.465677 -0.000303 0
0.465922 -0.000339 0
0.466198 -0.000373 0
0.466502 -0.000406 0
0.466834 -0.000439 0
0.467194 -0.000475 0
0.467585 -0.000514 0
0.468008 -0.000558 0
0.468468 -0.000609 0
0.468971 -0.000668 0
0.469523 -0.000738 0
0.470133 -0.000819 0
0.470811 -0.000915 0
0.471568 -0.001027 0
0.472417 -0.001159 0
0.473375 -0.001312 0
0.474459 -0.001490 0
0.475688 -0.001697 0
0.477088 -0.001938 0
0.478685 -0.002218 0
0.480510 -0.002542 0
0.482598 -0.002918 0
0.484992 -0.003356 0
0.487740 -0.003864 0
0.490898 -0.004457 0
0.494532 -0.005149 0
0.498719 -0.005960 0
0.503551 -0.006913 0
0.509135 -0.008039 0
0.515600 -0.009375 0
0.523102 -0.010970 0
0.531828 -0.012887 0
0.542007 -0.015213 0
0.553920 -0.018060 0
0.567918 -0.021588 0
0.584439 -0.026021 0
0.604042 -0.031680 0
0.627439 -0.039049 0
0.655543 -0.048867 0
0.689527 -0.062308 0
0.730842 -0.081329 0
0.781133 -0.109150 0
0.841706 -0.152108 0
0.910905 -0.216962 0
0.981065 -0.333024 0
0.995909 -0.410582 0
0.995909 -0.205290 0
1.000000 0.000170 0
0.999869 0.000517 0
0.999604 0.000882 0
0.999195 0.001278 0
0.998628 0.001722 0
0.997884 0.002233 0
0.996936 0.002836 0
0.995749 0.003563 0
0.994275 0.004457 0
0.992454 0.005579 0
0.990210 0.007017 0
0.987441 0.008902 0
0.984023 0.011441 0
0.979807 0.014961 0
0.974639 0.020014 0
0.968471 0.027499 0
0.961563 0.039075 0
0.955835 0.056459 0
0.954481 0.083201 0
0.976677 0.108831 0
1.001717 0.118634 0
1.016367 0.114989 0
1.018688 0.104757 0
1.011405 0.092761 0
0.997815 0.081268 0
0.980496 0.071052 0
0.961227 0.062235 0
0.941174 0.054709 0
0.921090 0.048304 0
0.901444 0.042848 0
0.882520 0.038190 0
0.864474 0.034200 0
0.847381 0.030767 0
0.831259 0.027803 0
0.816095 0.025231 0
0.801854 0.022990 0
0.788487 0.021030 0
0.775942 0.019307 0
0.764164 0.017787 0
0.753097 0.016440 0
0.742689 0.015242 0
0.732891 0.014173 0
0.723654 0.013216 0
0.714936 0.012355 0
0.706697 0.011579 0
0.698900 0.010876 0
0.691512 0.010238 0
0.684503 0.009656 0
0.677846 0.009125 0
0.671515 0.008637 0
0.665487 0.008189 0
0.659743 0.007775 0
0.654263 0.007391 0
0.649031 0.007035 0
0.644033 0.006703 0
0.639253 0.006393 0
0.634681 0.006101 0
0.630305 0.005827 0
0.626115 0.005568 0
0.622102 0.005322 0
0.618259 0.005088 0
0.614578 0.004865 0
0.611053 0.004651 0
0.607680 0.004445 0
0.604451 0.004246 0
0.601365 0.004054 0
0.598417 0.003867 0
0.595604 0.003684 0
0.592923 0.003505 0
0.590373 0.003329 0
0.587952 0.003155 0
0.585658 0.002982 0
0.583491 0.002811 0
0.581450 0.002640 0
0.579535 0.002469 0
0.577745 0.002297 0
0.576080 0.002125 0
0.574541 0.001953 0
0.573127 0.001780 0
0.571837 0.001607 0
0.570670 0.001434 0
0.569626 0.001263 0
0.568702 0.001094 0
0.567895 0.000929 0
0.567203 0.000768 0
0.566621 0.000613 0
0.566144 0.000465 0
0.565766 0.000326 0
0.565482 0.000196 0
0.565283 0.000075 0
0.565165 -0.000034 0
0.565123 -0.000130 0
0.565149 -0.000215 0
0.565234 -0.000289 0
0.565372 -0.000354 0
0.565556 -0.000412 0
0.565781 -0.000465 0
0.566044 -0.000515 0
0.566342 -0.000562 0
0.566673 -0.000611 0
0.567037 -0.000661 0
0.567435 -0.000716 0
0.567870 -0.000778 0
0.568345 -0.000849 0
0.568865 -0.000932 0
0.569437 -0.001028 0
0.570069 -0.001141 0
0.570771 -0.001273 0
0.571554 -0.001427 0
0.572432 -0.001608 0
0.573420 -0.001819 0
0.574535 -0.002065 0
0.575800 -0.002350 0
0.577237 -0.002681 0
0.578873 -0.003065 0
0.580741 -0.003511 0
0.582875 -0.004027 0
0.585318 -0.004627 0
0.588117 -0.005323 0
0.591328 -0.006133 0
0.595016 -0.007077 0
0.599256 -0.008181 0
0.604138 -0.009475 0
0.609764 -0.010998 0
0.616258 -0.012798 0
0.623765 -0.014939 0
0.632460 -0.017500 0
0.642551 -0.020588 0
0.654289 -0.024342 0
0.667981 -0.028956 0
0.683997 -0.034696 0
0.702793 -0.041940 0
0.724921 -0.051237 0
0.751041 -0.063404 0
0.781913 -0.079688 0
0.818315 -0.102058 0
0.860761 -0.133521 0
0.908778 -0.179362 0
0.958307 -0.244050 0
1.000185 -0.346810 0
0.996618 -0.412267 0
0.996619 -0.206133 0
1.000000 0.000201 0
0.999876 0.000611 0
0.999624 0.001041 0
0.999236 0.001508 0
0.998699 0.002031 0
0.997997 0.002631 0
0.997104 0.003338 0
0.995991 0.004186 0
0.994617 0.005226 0
0.992933 0.006523 0
0.990877 0.008175 0
0.988377 0.010320 0
0.985349 0.013170 0
0.981716 0.017049 0
0.977448 0.022465 0
0.972687 0.030189 0
0.967984 0.041411 0
0.965257 0.057174 0
0.967538 0.078315 0
0.984754 0.098332 0
1.007169 0.108463 0
1.025325 0.108724 0
1.035742 0.102953 0
1.038743 0.094605 0
1.035910 0.085707 0
1.028869 0.077200 0
1.018935 0.069434 0
1.007097 0.062492 0
0.994084 0.056342 0
0.980424 0.050917 0
0.966501 0.046137 0
0.952589 0.041924 0
0.938880 0.038208 0
0.925503 0.034925 0
0.912545 0.032018 0
0.900058 0.029438 0
0.888070 0.027144 0
0.876593 0.025097 0
0.865623 0.023268 0
0.855153 0.021628 0
0.845165 0.020154 0
0.835643 0.018825 0
0.826563 0.017625 0
0.817905 0.016537 0
0.809646 0.015548 0
0.801764 0.014648 0
0.794238 0.013825 0
0.787047 0.013071 0
0.780174 0.012379 0
0.773598 0.011740 0
0.767305 0.011151 0
0.761277 0.010605 0
0.755500 0.010097 0
0.749962 0.009623 0
0.744649 0.009181 0
0.739551 0.008766 0
0.734657 0.008375 0
0.729958 0.008006 0
0.725446 0.007657 0
0.721112 0.007325 0
0.716949 0.007008 0
0.712953 0.006705 0
0.709117 0.006415 0
0.705436 0.006134 0
0.701906 0.005863 0
0.698524 0.005601 0
0.695286 0.005344 0
0.692189 0.005094 0
0.689232 0.004849 0
0.686413 0.004607 0
0.683730 0.004368 0
0.681182 0.004131 0
0.678768 0.003896 0
0.676489 0.003661 0
0.674343 0.003426 0
0.672331 0.003192 0
0.670452 0.002956 0
0.668705 0.002720 0
0.667092 0.002484 0
0.665610 0.002249 0
0.664260 0.002014 0
0.663039 0.001782 0
0.661945 0.001553 0
0.660977 0.001329 0
0.660130 0.001112 0
0.659400 0.000903 0
0.658783 0.000703 0
0.658274 0.000515 0
0.657865 0.000339 0
0.657549 0.000177 0
0.657320 0.000027 0
0.657175 -0.000107 0
0.657108 -0.000224 0
0.657111 -0.000328 0
0.657177 -0.000419 0
0.657298 -0.000501 0
0.657469 -0.000575 0
0.657686 -0.000643 0
0.657944 -0.000709 0
0.658243 -0.000775 0
0.658580 -0.000843 0
0.658956 -0.000916 0
0.659373 -0.000997 0
0.659833 -0.001090 0
0.660340 -0.001196 0
0.660901 -0.001319 0
0.661523 -0.001464 0
0.662214 -0.001632 0
0.662985 -0.001830 0
0.663850 -0.002060 0
0.664822 -0.002328 0
0.665919 -0.002640 0
0.667160 -0.003002 0
0.668569 -0.003423 0
0.670171 -0.003910 0
0.671995 -0.004475 0
0.674078 -0.005129 0
0.676457 -0.005887 0
0.679179 -0.006767 0
0.682296 -0.007789 0
0.685869 -0.008978 0
0.689968 -0.010366 0
0.694677 -0.011989 0
0.700089 -0.013893 0
0.706317 -0.016137 0