# vtk DataFile Version 2.0
generated by CFD-lab course output (written by Tobias Neckel) 
ASCII

DATASET STRUCTURED_GRID
DIMENSIONS  142 42 1 
POINTS 5964 float

0.000000 0.250000 0
0.024648 0.250000 0
0.049296 0.250000 0
0.073944 0.250000 0
0.098592 0.250000 0
0.123239 0.250000 0
0.147887 0.250000 0
0.172535 0.250000 0
0.197183 0.250000 0
0.221831 0.250000 0
0.246479 0.250000 0
0.271127 0.250000 0
0.295775 0.250000 0
0.320423 0.250000 0
0.345070 0.250000 0
0.369718 0.250000 0
0.394366 0.250000 0
0.419014 0.250000 0
0.443662 0.250000 0
0.468310 0.250000 0
0.492958 0.250000 0
0.517606 0.250000 0
0.542254 0.250000 0
0.566901 0.250000 0
0.591549 0.250000 0
0.616197 0.250000 0
0.640845 0.250000 0
0.665493 0.250000 0
0.690141 0.250000 0
0.714789 0.250000 0
0.739437 0.250000 0
0.764085 0.250000 0
0.788732 0.250000 0
0.813380 0.250000 0
0.838028 0.250000 0
0.862676 0.250000 0
0.887324 0.250000 0
0.911972 0.250000 0
0.936620 0.250000 0
0.961268 0.250000 0
0.985915 0.250000 0
1.010563 0.250000 0
1.035211 0.250000 0
1.059859 0.250000 0
1.084507 0.250000 0
1.109155 0.250000 0
1.133803 0.250000 0
1.158451 0.250000 0
1.183099 0.250000 0
1.207746 0.250000 0
1.232394 0.250000 0
1.257042 0.250000 0
1.281690 0.250000 0
1.306338 0.250000 0
1.330986 0.250000 0
1.355634 0.250000 0
1.380282 0.250000 0
1.404930 0.250000 0
1.429577 0.250000 0
1.454225 0.250000 0
1.478873 0.250000 0
1.503521 0.250000 0
1.528169 0.250000 0
1.552817 0.250000 0
1.577465 0.250000 0
1.602113 0.250000 0
1.626761 0.250000 0
1.651408 0.250000 0
1.676056 0.250000 0
1.700704 0.250000 0
1.725352 0.250000 0
1.750000 0.250000 0
1.774648 0.250000 0
1.799296 0.250000 0
1.823944 0.250000 0
1.848592 0.250000 0
1.873239 0.250000 0
1.897887 0.250000 0
1.922535 0.250000 0
1.947183 0.250000 0
1.971831 0.250000 0
1.996479 0.250000 0
2.021127 0.250000 0
2.045775 0.250000 0
2.070423 0.250000 0
2.095070 0.250000 0
2.119718 0.250000 0
2.144366 0.250000 0
2.169014 0.250000 0
2.193662 0.250000 0
2.218310 0.250000 0
2.242958 0.250000 0
2.267606 0.250000 0
2.292254 0.250000 0
2.316901 0.250000 0
2.341549 0.250000 0
2.366197 0.250000 0
2.390845 0.250000 0
2.415493 0.250000 0
2.440141 0.250000 0
2.464789 0.250000 0
2.489437 0.250000 0
2.514085 0.250000 0
2.538732 0.250000 0
2.563380 0.250000 0
2.588028 0.250000 0
2.612676 0.250000 0
2.637324 0.250000 0
2.661972 0.250000 0
2.686620 0.250000 0
2.711268 0.250000 0
2.735915 0.250000 0
2.760563 0.250000 0
2.785211 0.250000 0
2.809859 0.250000 0
2.834507 0.250000 0
2.859155 0.250000 0
2.883803 0.250000 0
2.908451 0.250000 0
2.933099 0.250000 0
2.957746 0.250000 0
2.982394 0.250000 0
3.007042 0.250000 0
3.031690 0.250000 0
3.056338 0.250000 0
3.080986 0.250000 0
3.105634 0.250000 0
3.130282 0.250000 0
3.154930 0.250000 0
3.179577 0.250000 0
3.204225 0.250000 0
3.228873 0.250000 0
3.253521 0.250000 0
3.278169 0.250000 0
3.302817 0.250000 0
3.327465 0.250000 0
3.352113 0.250000 0
3.376761 0.250000 0
3.401408 0.250000 0
3.426056 0.250000 0
3.450704 0.250000 0
3.475352 0.250000 0
0.000000 0.261905 0
0.024648 0.261905 0
0.049296 0.261905 0
0.073944 0.261905 0
0.098592 0.261905 0
0.123239 0.261905 0
0.147887 0.261905 0
0.172535 0.261905 0
0.197183 0.261905 0
0.221831 0.261905 0
0.246479 0.261905 0
0.271127 0.261905 0
0.295775 0.261905 0
0.320423 0.261905 0
0.345070 0.261905 0
0.369718 0.261905 0
0.394366 0.261905 0
0.419014 0.261905 0
0.443662 0.261905 0
0.468310 0.261905 0
0.492958 0.261905 0
0.517606 0.261905 0
0.542254 0.261905 0
0.566901 0.261905 0
0.591549 0.261905 0
0.616197 0.261905 0
0.640845 0.261905 0
0.665493 0.261905 0
0.690141 0.261905 0
0.714789 0.261905 0
0.739437 0.261905 0
0.764085 0.261905 0
0.788732 0.261905 0
0.813380 0.261905 0
0.838028 0.261905 0
0.862676 0.261905 0
0.887324 0.261905 0
0.911972 0.261905 0
0.936620 0.261905 0
0.961268 0.261905 0
0.985915 0.261905 0
1.010563 0.261905 0
1.035211 0.261905 0
1.059859 0.261905 0
1.084507 0.261905 0
1.109155 0.261905 0
1.133803 0.261905 0
1.158451 0.261905 0
1.183099 0.261905 0
1.207746 0.261905 0
1.232394 0.261905 0
1.257042 0.261905 0
1.281690 0.261905 0
1.306338 0.261905 0
1.330986 0.261905 0
1.355634 0.261905 0
1.380282 0.261905 0
1.404930 0.261905 0
1.429577 0.261905 0
1.454225 0.261905 0
1.478873 0.261905 0
1.503521 0.261905 0
1.528169 0.261905 0
1.552817 0.261905 0
1.577465 0.261905 0
1.602113 0.261905 0
1.626761 0.261905 0
1.651408 0.261905 0
1.676056 0.261905 0
1.700704 0.261905 0
1.725352 0.261905 0
1.750000 0.261905 0
1.774648 0.261905 0
1.799296 0.261905 0
1.823944 0.261905 0
1.848592 0.261905 0
1.873239 0.261905 0
1.897887 0.261905 0
1.922535 0.261905 0
1.947183 0.261905 0
1.971831 0.261905 0
1.996479 0.261905 0
2.021127 0.261905 0
2.045775 0.261905 0
2.070423 0.261905 0
2.095070 0.261905 0
2.119718 0.261905 0
2.144366 0.261905 0
2.169014 0.261905 0
2.193662 0.261905 0
2.218310 0.261905 0
2.242958 0.261905 0
2.267606 0.261905 0
2.292254 0.261905 0
2.316901 0.261905 0
2.341549 0.261905 0
2.366197 0.261905 0
2.390845 0.261905 0
2.415493 0.261905 0
2.440141 0.261905 0
2.464789 0.261905 0
2.489437 0.261905 0
2.514085 0.261905 0
2.538732 0.261905 0
2.563380 0.261905 0
2.588028 0.261905 0
2.612676 0.261905 0
2.637324 0.261905 0
2.661972 0.261905 0
2.686620 0.261905 0
2.711268 0.261905 0
2.735915 0.261905 0
2.760563 0.261905 0
2.785211 0.261905 0
2.809859 0.261905 0
2.834507 0.261905 0
2.859155 0.261905 0
2.883803 0.261905 0
2.908451 0.261905 0
2.933099 0.261905 0
2.957746 0.261905 0
2.982394 0.261905 0
3.007042 0.261905 0
3.031690 0.261905 0
3.056338 0.261905 0
3.080986 0.261905 0
3.105634 0.261905 0
3.130282 0.261905 0
3.154930 0.261905 0
3.179577 0.261905 0
3.204225 0.261905 0
3.228873 0.261905 0
3.253521 0.261905 0
3.278169 0.261905 0
3.302817 0.261905 0
3.327465 0.261905 0
3.352113 0.261905 0
3.376761 0.261905 0
3.401408 0.261905 0
3.426056 0.261905 0
3.450704 0.261905 0
3.475352 0.261905 0
0.000000 0.273810 0
0.024648 0.273810 0
0.049296 0.273810 0
0.073944 0.273810 0
0.098592 0.273810 0
0.123239 0.273810 0
0.147887 0.273810 0
0.172535 0.273810 0
0.197183 0.273810 0
0.221831 0.273810 0
0.246479 0.273810 0
0.271127 0.273810 0
0.295775 0.273810 0
0.320423 0.273810 0
0.345070 0.273810 0
0.369718 0.273810 0
0.394366 0.273810 0
0.419014 0.273810 0
0.443662 0.273810 0
0.468310 0.273810 0
0.492958 0.273810 0
0.517606 0.273810 0
0.542254 0.273810 0
0.566901 0.273810 0
0.591549 0.273810 0
0.616197 0.273810 0
0.640845 0.273810 0
0.665493 0.273810 0
0.690141 0.273810 0
0.714789 0.273810 0
0.739437 0.273810 0
0.764085 0.273810 0
0.788732 0.273810 0
0.813380 0.273810 0
0.838028 0.273810 0
0.862676 0.273810 0
0.887324 0.273810 0
0.911972 0.273810 0
0.936620 0.273810 0
0.961268 0.273810 0
0.985915 0.273810 0
1.010563 0.273810 0
1.035211 0.273810 0
1.059859 0.273810 0
1.084507 0.273810 0
1.109155 0.273810 0
1.133803 0.273810 0
1.158451 0.273810 0
1.183099 0.273810 0
1.207746 0.273810 0
1.232394 0.273810 0
1.257042 0.273810 0
1.281690 0.273810 0
1.306338 0.273810 0
1.330986 0.273810 0
1.355634 0.273810 0
1.380282 0.273810 0
1.404930 0.273810 0
1.429577 0.273810 0
1.454225 0.273810 0
1.478873 0.273810 0
1.503521 0.273810 0
1.528169 0.273810 0
1.552817 0.273810 0
1.577465 0.273810 0
1.602113 0.273810 0
1.626761 0.273810 0
1.651408 0.273810 0
1.676056 0.273810 0
1.700704 0.273810 0
1.725352 0.273810 0
1.750000 0.273810 0
1.774648 0.273810 0
1.799296 0.273810 0
1.823944 0.273810 0
1.848592 0.273810 0
1.873239 0.273810 0
1.897887 0.273810 0
1.922535 0.273810 0
1.947183 0.273810 0
1.971831 0.273810 0
1.996479 0.273810 0
2.021127 0.273810 0
2.045775 0.273810 0
2.070423 0.273810 0
2.095070 0.273810 0
2.119718 0.273810 0
2.144366 0.273810 0
2.169014 0.273810 0
2.193662 0.273810 0
2.218310 0.273810 0
2.242958 0.273810 0
2.267606 0.273810 0
2.292254 0.273810 0
2.316901 0.273810 0
2.341549 0.273810 0
2.366197 0.273810 0
2.390845 0.273810 0
2.415493 0.273810 0
2.440141 0.273810 0
2.464789 0.273810 0
2.489437 0.273810 0
2.514085 0.273810 0
2.538732 0.273810 0
2.563380 0.273810 0
2.588028 0.273810 0
2.612676 0.273810 0
2.637324 0.273810 0
2.661972 0.273810 0
2.686620 0.273810 0
2.711268 0.273810 0
2.735915 0.273810 0
2.760563 0.273810 0
2.785211 0.273810 0
2.809859 0.273810 0
2.834507 0.273810 0
2.859155 0.273810 0
2.883803 0.273810 0
2.908451 0.273810 0
2.933099 0.273810 0
2.957746 0.273810 0
2.982394 0.273810 0
3.007042 0.273810 0
3.031690 0.273810 0
3.056338 0.273810 0
3.080986 0.273810 0
3.105634 0.273810 0
3.130282 0.273810 0
3.154930 0.273810 0
3.179577 0.273810 0
3.204225 0.273810 0
3.228873 0.273810 0
3.253521 0.273810 0
3.278169 0.273810 0
3.302817 0.273810 0
3.327465 0.273810 0
3.352113 0.273810 0
3.376761 0.273810 0
3.401408 0.273810 0
3.426056 0.273810 0
3.450704 0.273810 0
3.475352 0.273810 0
0.000000 0.285714 0
0.024648 0.285714 0
0.049296 0.285714 0
0.073944 0.285714 0
0.098592 0.285714 0
0.123239 0.285714 0
0.147887 0.285714 0
0.172535 0.285714 0
0.197183 0.285714 0
0.221831 0.285714 0
0.246479 0.285714 0
0.271127 0.285714 0
0.295775 0.285714 0
0.320423 0.285714 0
0.345070 0.285714 0
0.369718 0.285714 0
0.394366 0.285714 0
0.419014 0.285714 0
0.443662 0.285714 0
0.468310 0.285714 0
0.492958 0.285714 0
0.517606 0.285714 0
0.542254 0.285714 0
0.566901 0.285714 0
0.591549 0.285714 0
0.616197 0.285714 0
0.640845 0.285714 0
0.665493 0.285714 0
0.690141 0.285714 0
0.714789 0.285714 0
0.739437 0.285714 0
0.764085 0.285714 0
0.788732 0.285714 0
0.813380 0.285714 0
0.838028 0.285714 0
0.862676 0.285714 0
0.887324 0.285714 0
0.911972 0.285714 0
0.936620 0.285714 0
0.961268 0.285714 0
0.985915 0.285714 0
1.010563 0.285714 0
1.035211 0.285714 0
1.059859 0.285714 0
1.084507 0.285714 0
1.109155 0.285714 0
1.133803 0.285714 0
1.158451 0.285714 0
1.183099 0.285714 0
1.207746 0.285714 0
1.232394 0.285714 0
1.257042 0.285714 0
1.281690 0.285714 0
1.306338 0.285714 0
1.330986 0.285714 0
1.355634 0.285714 0
1.380282 0.285714 0
1.404930 0.285714 0
1.429577 0.285714 0
1.454225 0.285714 0
1.478873 0.285714 0
1.503521 0.285714 0
1.528169 0.285714 0
1.552817 0.285714 0
1.577465 0.285714 0
[...]
POINT_DATA 5964 

VECTORS velocity float
1.000000 0.000000 0
0.999854 0.000000 0
0.999558 0.000000 0
0.999101 0.000000 0
0.998465 0.000000 0
0.997626 0.000000 0
0.996549 0.000000 0
0.995186 0.000000 0
0.993472 0.000000 0
0.991319 0.000000 0
0.988601 0.000000 0
0.985136 0.000000 0
0.980656 0.000000 0
0.974735 0.000000 0
0.966668 0.000000 0
0.955122 0.000000 0
0.937618 0.000000 0
0.906049 0.000000 0
0.848059 0.000000 0
-0.000000 0.000000 0
-0.000000 0.000000 0
-0.000000 0.000000 0
-0.000000 0.000000 0
-0.000000 0.000000 0
-0.000000 0.000000 0
-0.000000 0.000000 0
-0.000000 0.000000 0
-0.000000 0.000000 0
-0.000000 0.000000 0
-0.000000 0.000000 0
-0.000001 0.000000 0
-0.000001 0.000000 0
-0.000001 0.000000 0
-0.000001 0.000000 0
-0.000001 0.000000 0
-0.000001 0.000000 0
-0.000001 0.000000 0
-0.000001 0.000000 0
-0.000002 0.000000 0
-0.000002 0.000000 0
-0.000002 0.000000 0
-0.000002 0.000000 0
-0.000003 0.000000 0
-0.000003 0.000000 0
-0.000004 0.000000 0
-0.000004 0.000000 0
-0.000005 0.000000 0
-0.000005 0.000000 0
-0.000006 0.000000 0
-0.000006 0.000000 0
-0.000006 0.000000 0
-0.000007 0.000000 0
-0.000007 0.000000 0
-0.000007 0.000000 0
-0.000007 0.000000 0
-0.000007 0.000000 0
-0.000007 0.000000 0
-0.000006 0.000000 0
-0.000006 0.000000 0
-0.000006 0.000000 0
-0.000006 0.000000 0
-0.000006 0.000000 0
-0.000006 0.000000 0
-0.000006 0.000000 0
-0.000006 0.000000 0
-0.000006 0.000000 0
-0.000006 0.000000 0
-0.000006 0.000000 0
-0.000006 0.000000 0
-0.000006 0.000000 0
-0.000006 0.000000 0
-0.000006 0.000000 0
-0.000006 0.000000 0
-0.000006 0.000000 0
-0.000006 0.000000 0
-0.000006 0.000000 0
-0.000006 0.000000 0
-0.000006 0.000000 0
-0.000006 0.000000 0
-0.000006 0.000000 0
-0.000006 0.000000 0
-0.000006 0.000000 0
-0.000006 0.000000 0
-0.000006 0.000000 0
-0.000006 0.000000 0
-0.000006 0.000000 0
-0.000006 0.000000 0
-0.000006 0.000000 0
-0.000006 0.000000 0
-0.000006 0.000000 0
-0.000006 0.000000 0
-0.000006 0.000000 0
-0.000006 0.000000 0
-0.000006 0.000000 0
-0.000006 0.000000 0
-0.000006 0.000000 0
-0.000006 0.000000 0
-0.000006 0.000000 0
-0.000006 0.000000 0
-0.000006 0.000000 0
-0.000006 0.000000 0
-0.000006 0.000000 0
-0.000006 0.000000 0
-0.000006 0.000000 0
-0.000006 0.000000 0
-0.000006 0.000000 0
-0.000006 0.000000 0
-0.000006 0.000000 0
-0.000006 0.000000 0
-0.000006 0.000000 0
-0.000006 0.000000 0
-0.000006 0.000000 0
-0.000006 0.000000 0
-0.000006 0.000000 0
-0.000005 0.000000 0
-0.000005 0.000000 0
-0.000005 0.000000 0
-0.000005 0.000000 0
-0.000005 0.000000 0
-0.000005 0.000000 0
-0.000005 0.000000 0
-0.000005 0.000000 0
-0.000005 0.000000 0
-0.000005 0.000000 0
-0.000005 0.000000 0
-0.000005 0.000000 0
-0.000005 0.000000 0
-0.000005 0.000000 0
-0.000005 0.000000 0
-0.000005 0.000000 0
-0.000004 0.000000 0
-0.000004 0.000000 0
-0.000004 0.000000 0
-0.000004 0.000000 0
-0.000003 0.000000 0
-0.000003 0.000000 0
-0.000003 0.000000 0
-0.000002 0.000000 0
-0.000001 0.000000 0
-0.000000 0.000000 0
-0.000000 0.000000 0
0.496980 0.000000 0
1.000000 0.000035 0
0.999855 0.000107 0
0.999560 0.000182 0
0.999105 0.000264 0
0.998472 0.000356 0
0.997637 0.000463 0
0.996566 0.000589 0
0.995210 0.000743 0
0.993507 0.000934 0
0.991369 0.001177 0
0.988671 0.001493 0
0.985239 0.001919 0
0.980808 0.002512 0
0.974970 0.003378 0
0.967054 0.004736 0
0.955829 0.007015 0
0.939059 0.011851 0
0.910469 0.021628 0
0.861235 0.078832 0
0.715309 0.110956 0
0.576984 0.072746 0
0.473562 0.041069 0
0.401690 0.022624 0
0.351884 0.013286 0
0.316337 0.008649 0
0.289968 0.006166 0
0.269686 0.004676 0
0.253606 0.003692 0
0.240545 0.002997 0
0.229729 0.002483 0
0.220635 0.002090 0
0.212895 0.001781 0
0.206244 0.001533 0
0.200486 0.001329 0
0.195474 0.001159 0
0.191095 0.001015 0
0.187262 0.000890 0
0.183909 0.000781 0
0.180984 0.000683 0
0.178451 0.000593 0
0.176281 0.000508 0
0.174458 0.000426 0
0.172969 0.000346 0
0.171803 0.000266 0
0.170952 0.000187 0
0.170403 0.000110 0
0.170138 0.000038 0
0.170128 -0.000023 0
0.170321 -0.000073 0
0.170669 -0.000110 0
0.171127 -0.000136 0
0.171650 -0.000151 0
0.172202 -0.000156 0
0.172751 -0.000153 0
0.173273 -0.000144 0
0.173751 -0.000131 0
0.174176 -0.000115 0
0.174542 -0.000099 0
0.174851 -0.000083 0
0.175105 -0.000068 0
0.175309 -0.000054 0
0.175470 -0.000042 0
0.175595 -0.000033 0
0.175689 -0.000024 0
0.175759 -0.000018 0
0.175811 -0.000013 0
0.175848 -0.000009 0
0.175874 -0.000006 0
0.175893 -0.000004 0
0.175905 -0.000003 0
0.175914 -0.000002 0
0.175920 -0.000001 0
0.175924 -0.000001 0
0.175928 -0.000001 0
0.175930 -0.000000 0
0.175932 -0.000000 0
0.175934 -0.000000 0
0.175936 -0.000000 0
0.175938 -0.000001 0
0.175941 -0.000001 0
0.175944 -0.000001 0
0.175947 -0.000001 0
0.175951 -0.000001 0
0.175956 -0.000002 0
0.175962 -0.000002 0
0.175969 -0.000002 0
0.175976 -0.000002 0
0.175986 -0.000003 0
0.175996 -0.000003 0
0.176009 -0.000004 0
0.176023 -0.000005 0
0.176040 -0.000005 0
0.176060 -0.000006 0
0.176082 -0.000007 0
0.176109 -0.000008 0
0.176139 -0.000010 0
0.176174 -0.000011 0
0.176215 -0.000013 0
0.176262 -0.000015 0
0.176317 -0.000017 0
0.176380 -0.000020 0
0.176453 -0.000023 0
0.176538 -0.000027 0
0.176636 -0.000031 0
0.176749 -0.000036 0
0.176880 -0.000042 0
0.177033 -0.000048 0
0.177209 -0.000056 0
0.177412 -0.000065 0
0.177648 -0.000075 0
0.177922 -0.000087 0
0.178239 -0.000101 0
0.178607 -0.000117 0
0.179033 -0.000136 0
0.179528 -0.000157 0
0.180103 -0.000183 0
0.180771 -0.000213 0
0.181549 -0.000248 0
0.182454 -0.000289 0
0.183510 -0.000337 0
0.184742 -0.000395 0
0.186185 -0.000463 0
0.187875 -0.000544 0
0.189863 -0.000641 0
0.192205 -0.000759 0
0.194977 -0.000902 0
0.198271 -0.001078 0
0.202206 -0.001297 0
0.206938 -0.001573 0
0.212671 -0.001927 0
0.219685 -0.002390 0
0.228369 -0.003011 0
0.239284 -0.003872 0
0.253267 -0.005113 0
0.271628 -0.006994 0
0.296530 -0.010052 0
0.331822 -0.015451 0
0.384679 -0.026680 0
0.471933 -0.049013 0
0.620745 -0.166978 0
0.994290 -0.270354 0
0.994290 -0.135177 0
1.000000 0.000070 0
0.999857 0.000212 0
0.999566 0.000362 0
0.999117 0.000525 0
0.998493 0.000709 0
0.997671 0.000921 0
0.996615 0.001172 0
0.995283 0.001477 0
0.993611 0.001855 0
0.991516 0.002336 0
0.988881 0.002961 0
0.985542 0.003798 0
0.981256 0.004960 0
0.975659 0.006643 0
0.968174 0.009245 0
0.957835 0.013521 0
0.943016 0.021909 0
0.920981 0.037589 0
0.888722 0.094261 0
0.891464 0.137291 0
0.842750 0.116762 0
0.772373 0.084666 0
0.702151 0.058770 0
0.641045 0.041225 0
0.590608 0.029905 0
0.549532 0.022532 0
0.515946 0.017563 0
0.488197 0.014075 0
0.465001 0.011532 0
0.445392 0.009616 0
0.428652 0.008131 0
0.414240 0.006951 0
0.401746 0.005993 0
0.390858 0.005202 0
0.381333 0.004536 0
0.372981 0.003966 0
0.365656 0.003471 0
0.359241 0.003032 0
0.353649 0.002636 0
0.348810 0.002271 0
0.344676 0.001928 0
0.341207 0.001600 0
0.338376 0.001282 0
0.336156 0.000974 0
0.334520 0.000676 0
0.333433 0.000393 0
0.332854 0.000133 0
0.332729 -0.000088 0
0.332978 -0.000261 0
0.333506 -0.000389 0
0.334233 -0.000474 0
0.335080 -0.000519 0
0.335982 -0.000532 0
0.336885 -0.000517 0
0.337748 -0.000483 0
0.338541 -0.000436 0
0.339247 -0.000382 0
0.339858 -0.000326 0
0.340373 -0.000272 0
0.340797 -0.000221 0
0.341139 -0.000176 0
0.341409 -0.000138 0
0.341618 -0.000106 0
0.341778 -0.000080 0
0.341897 -0.000059 0
0.341986 -0.000043 0
0.342050 -0.000031 0
0.342097 -0.000022 0
0.342130 -0.000015 0
0.342154 -0.000010 0
0.342170 -0.000007 0
0.342183 -0.000005 0
0.342192 -0.000004 0
0.342198 -0.000003 0
0.342204 -0.000002 0
0.342208 -0.000002 0
0.342213 -0.000002 0
0.342217 -0.000002 0
0.342221 -0.000002 0
0.342226 -0.000003 0
0.342231 -0.000003 0
0.342237 -0.000004 0
0.342244 -0.000004 0
0.342253 -0.000005 0
0.342262 -0.000006 0
0.342273 -0.000007 0
0.342286 -0.000008 0
0.342300 -0.000010 0
0.342318 -0.000011 0
0.342338 -0.000013 0
0.342361 -0.000015 0
0.342388 -0.000018 0
0.342419 -0.000020 0
0.342455 -0.000024 0
0.342497 -0.000027 0
0.342546 -0.000032 0
0.342602 -0.000037 0
0.342667 -0.000042 0
0.342742 -0.000049 0
0.342830 -0.000057 0
0.342931 -0.000066 0
0.343047 -0.000076 0
0.343183 -0.000088 0
0.343339 -0.000102 0
0.343521 -0.000118 0
0.343731 -0.000137 0
0.343974 -0.000158 0
0.344256 -0.000183 0
0.344582 -0.000212 0
0.344960 -0.000246 0
0.345398 -0.000285 0
0.345905 -0.000331 0
0.346494 -0.000384 0
0.347177 -0.000445 0
0.347969 -0.000517 0
0.348889 -0.000600 0
0.349958 -0.000698 0
0.351201 -0.000813 0
0.352648 -0.000947 0
0.354334 -0.001105 0
0.356302 -0.001292 0
0.358601 -0.001513 0
0.361293 -0.001776 0
0.364452 -0.002091 0
0.368168 -0.002470 0
0.372553 -0.002930 0
0.377748 -0.003492 0
0.383931 -0.004186 0
0.391328 -0.005054 0
0.400237 -0.006157 0
0.411054 -0.007582 0
0.424318 -0.009466 0
0.440782 -0.012025 0
0.461531 -0.015622 0
0.488177 -0.020896 0
0.523212 -0.029073 0
0.570653 -0.042575 0
0.636986 -0.067673 0
0.733407 -0.114018 0
0.875410 -0.252295 0
0.995072 -0.360837 0
0.995072 -0.180418 0
1.000000 0.000104 0
0.999860 0.000316 0
0.999576 0.000539 0
0.999137 0.000782 0
0.998528 0.001055 0
0.997725 0.001370 0
0.996698 0.001743 0
0.995402 0.002194 0
0.993781 0.002753 0
0.991757 0.003461 0
0.989224 0.004379 0
0.986034 0.005601 0
0.981979 0.007285 0
0.976758 0.009697 0
0.969929 0.013346 0
0.960856 0.019166 0
0.948657 0.029651 0
0.933310 0.047852 0
0.915431 0.093089 0
0.945779 0.133160 0
0.949217 0.130266 0
0.923707 0.108978 0
0.882961 0.086055 0
0.837818 0.067160 0
0.794057 0.052849 0
0.754061 0.042227 0
0.718465 0.034301 0
0.687145 0.028298 0
0.659688 0.023671 0
0.635617 0.020039 0
0.614477 0.017136 0
0.595865 0.014776 0
0.579439 0.012826 0
0.564914 0.011189 0
0.552054 0.009794 0
0.540669 0.008587 0
0.530601 0.007527 0
0.521726 0.006581 0
0.513941 0.005721 0
0.507170 0.004927 0
0.501349 0.004180 0
0.496430 0.003469 0
0.492371 0.002785 0
0.489132 0.002129 0
0.486671 0.001502 0
0.484937 0.000915 0
0.483865 0.000378 0
0.483386 -0.000083 0
0.483423 -0.000448 0
0.483860 -0.000717 0
0.484588 -0.000896 0
0.485509 -0.000996 0
0.486536 -0.001028 0
0.487596 -0.001006 0
0.488632 -0.000943 0
0.489603 -0.000855 0
0.490481 -0.000751 0
0.491251 -0.000642 0
0.491909 -0.000536 0
0.492457 -0.000438 0
0.492904 -0.000350 0
0.493261 -0.000274 0
0.493541 -0.000211 0
0.493757 -0.000159 0
0.493921 -0.000118 0
0.494043 -0.000087 0
0.494134 -0.000063 0
0.494200 -0.000045 0
0.494249 -0.000032 0
0.494285 -0.000023 0
0.494311 -0.000016 0
0.494330 -0.000011 0
0.494345 -0.000008 0
0.494356 -0.000007 0
0.494365 -0.000005 0
0.494373 -0.000005 0
0.494379 -0.000005 0
0.494386 -0.000005 0
0.494392 -0.000005 0
0.494399 -0.000006 0
0.494406 -0.000006 0
0.494414 -0.000007 0
0.494423 -0.000009 0
0.494433 -0.000010 0
0.494444 -0.000012 0
0.494458 -0.000014 0
0.494473 -0.000016 0
0.494490 -0.000018 0
0.494511 -0.000021 0
0.494535 -0.000025 0
0.494562 -0.000029 0
0.494594 -0.000033 0
0.494631 -0.000039 0
0.494674 -0.000045 0
0.494723 -0.000052 0
0.494780 -0.000060 0
0.494847 -0.000070 0
0.494924 -0.000081 0
0.495013 -0.000094 0
0.495116 -0.000108 0
0.495235 -0.000125 0
0.495373 -0.000145 0
0.495532 -0.000168 0
0.495717 -0.000194 0
0.495932 -0.000225 0
0.496180 -0.000261 0
0.496467 -0.000302 0
0.496799 -0.000350 0
0.497184 -0.000405 0
0.497631 -0.000469 0
0.498148 -0.000544 0
0.498747 -0.000630 0
0.499442 -0.000731 0
0.500248 -0.000848 0
0.501183 -0.000985 0
0.502268 -0.001144 0
0.503529 -0.001330 0
0.504994 -0.001547 0
0.506698 -0.001802 0
0.508682 -0.002102 0
0.510995 -0.002455 0
0.513694 -0.002873 0
0.516849 -0.003369 0
0.520545 -0.003961 0
0.524882 -0.004672 0
0.529986 -0.005529 0
0.536011 -0.006573 0
0.543150 -0.007855 0
0.551647 -0.009448 0
0.561815 -0.011454 0
0.574061 -0.014021 0
0.588922 -0.017370 0
0.607126 -0.021846 0
0.629669 -0.028004 0
0.657951 -0.036786 0
0.693946 -0.049887 0
0.740431 -0.070403 0
0.800985 -0.105289 0
0.878433 -0.164170 0
0.971720 -0.293360 0
0.995982 -0.385942 0
0.995983 -0.192969 0
1.000000 0.000138 0
0.999864 0.000417 0
0.999589 0.000712 0
0.999164 0.001032 0
0.998575 0.001391 0
0.997800 0.001805 0
0.996810 0.002294 0
0.995566 0.002886 0
0.994014 0.003616 0
0.992086 0.004537 0
0.989689 0.005725 0
0.986697 0.007297 0
0.982944 0.009440 0
0.978202 0.012464 0
0.972179 0.016926 0
0.964560 0.023795 0
0.955127 0.035213 0
0.945293 0.053637 0
0.937605 0.088239 0
0.966132 0.120973 0
0.988432 0.127423 0
0.990779 0.116667 0
0.976676 0.100254 0
0.952893 0.084165 0
0.924671 0.070359 0
0.895235 0.059042 0
0.866373 0.049883 0
0.839002 0.042464 0
0.813541 0.036420 0
0.790130 0.031453 0
0.768754 0.027331 0
0.749325 0.023874 0
0.731718 0.020943 0
0.715798 0.018428 0
0.701438 0.016246 0
0.688517 0.014328 0
0.676930 0.012621 0
0.666588 0.011079 0
0.657413 0.009666 0
0.649343 0.008353 0
0.642324 0.007116 0
0.636310 0.005937 0
0.631260 0.004807 0
0.627131 0.003727 0
0.623876 0.002702 0
0.621439 0.001748 0
0.619748 0.000882 0
0.618722 0.000125 0
0.618295 -0.000491 0
0.618371 -0.000952 0
0.618832 -0.001270 0
0.619572 -0.001460 0
0.620491 -0.001540 0
0.621506 -0.001530 0
0.622546 -0.001452 0
0.623556 -0.001329 0
0.624498 -0.001178 0
0.625347 -0.001016 0
0.626089 -0.000854 0
0.626721 -0.000702 0
0.627247 -0.000565 0
0.627675 -0.000445 0
0.628016 -0.000345 0
0.628284 -0.000263 0
0.628491 -0.000197 0
0.628649 -0.000146 0
0.628768 -0.000107 0
0.628857 -0.000077 0
0.628923 -0.000056 0
0.628972 -0.000040 0
0.629009 -0.000029 0
0.629037 -0.000021 0
0.629058 -0.000016 0
0.629075 -0.000012 0
0.629088 -0.000010 0
0.629099 -0.000009 0
0.629109 -0.000008 0
0.629117 -0.000008 0
0.629126 -0.000009 0
0.629134 -0.000009 0
0.629143 -0.000010 0
0.629152 -0.000012 0
0.629162 -0.000013 0
0.629173 -0.000016 0
0.629185 -0.000018 0
0.629199 -0.000021 0
0.629216 -0.000024 0
0.629234 -0.000028 0
0.629256 -0.000033 0
0.629281 -0.000038 0
0.629309 -0.000044 0
0.629343 -0.000051 0
0.629381 -0.000059 0
0.629425 -0.000068 0
0.629477 -0.000079 0
0.629536 -0.000091 0
0.629605 -0.000106 0
0.629685 -0.000123 0
0.629777 -0.000142 0
0.629884 -0.000164 0
0.630008 -0.000190 0
0.630151 -0.000220 0
0.630317 -0.000255 0
0.630509 -0.000295 0
0.630731 -0.000341 0
0.630988 -0.000395 0
0.631286 -0.000458 0
0.631631 -0.000530 0
0.632031 -0.000614 0
0.632494 -0.000711 0
0.633030 -0.000825 0
0.633652 -0.000956 0
0.634373 -0.001108 0
0.635208 -0.001286 0
0.636177 -0.001493 0
0.637301 -0.001734 0
0.638606 -0.002015 0
0.640121 -0.002343 0
0.641883 -0.002729 0
0.643931 -0.003181 0
0.646316 -0.003713 0
0.649096 -0.004341 0
0.652340 -0.005085 0
0.656132 -0.005971 0
0.660571 -0.007030 0
0.665779 -0.008305 0
0.671906 -0.009850 0
0.679133 -0.011738 0
0.687689 -0.014069 0
0.697858 -0.016982 0
0.710004 -0.020674 0
0.724588 -0.025436 0
0.742211 -0.031706 0
0.763648 -0.040171 0
0.789898 -0.051941 0
0.822198 -0.068910 0
0.861897 -0.094274 0
0.909871 -0.134327 0
0.963543 -0.196482 0
1.013863 -0.309070 0
0.996856 -0.384269 0
0.996856 -0.192131 0
1.000000 0.000170 0
0.999870 0.000515 0
0.999606 0.000877 0
0.999198 0.001272 0
0.998635 0.001714 0
0.997895 0.002222 0
0.996952 0.002822 0
0.995770 0.003545 0
0.994304 0.004434 0
0.992494 0.005550 0
0.990262 0.006981 0
0.987508 0.008859 0
0.984109 0.011388 0
0.979915 0.014896 0
0.974775 0.019935 0
0.968639 0.027402 0
0.961773 0.038957 0
0.956094 0.056315 0
0.954801 0.083024 0
0.977073 0.108611 0
1.002214 0.118361 0
1.016995 0.114655 0
1.019483 0.104354 0
1.012411 0.092278 0
0.999081 0.080698 0
0.982081 0.070385 0
0.963194 0.061461 0
0.943598 0.053815 0
0.924053 0.047276 0
0.905040 0.041671 0
0.886853 0.036844 0
0.869662 0.032664 0
0.853558 0.029019 0
0.838578 0.025814 0
0.824729 0.022970 0
0.811996 0.020424 0
0.800359 0.018118 0
0.789790 0.016007 0
0.780263 0.014050 0
0.771750 0.012215 0
0.764226 0.010475 0
0.757665 0.008813 0
0.752039 0.007219 0
0.747314 0.005695 0
0.743452 0.004251 0
0.740403 0.002908 0
0.738108 0.001690 0
0.736490 0.000619 0
0.735476 -0.000278 0
0.735017 -0.000976 0
0.735014 -0.001476 0
0.735366 -0.001797 0
0.735977 -0.001962 0
0.736759 -0.001998 0
0.737636 -0.001934 0
0.738543 -0.001798 0
0.739433 -0.001616 0
0.740267 -0.001411 0
0.741023 -0.001200 0
0.741688 -0.000997 0
0.742256 -0.000810 0
0.742731 -0.000646 0
0.743120 -0.000505 0
0.743433 -0.000389 0
0.743679 -0.000295 0
0.743871 -0.000220 0
0.744019 -0.000163 0
0.744132 -0.000120 0
0.744217 -0.000088 0
0.744282 -0.000064 0
0.744331 -0.000047 0
0.744368 -0.000035 0
0.744397 -0.000027 0
0.744420 -0.000021 0
0.744438 -0.000017 0
0.744453 -0.000015 0
0.744466 -0.000013 0
0.744477 -0.000013 0
0.744487 -0.000013 0
0.744497 -0.000014 0
0.744507 -0.000015 0
0.744517 -0.000017 0
0.744527 -0.000019 0
0.744539 -0.000021 0
0.744552 -0.000025 0
0.744566 -0.000028 0
0.744582 -0.000033 0
0.744600 -0.000038 0
0.744621 -0.000044 0
0.744646 -0.000051 0
0.744674 -0.000059 0
0.744706 -0.000068 0
0.744743 -0.000079 0
0.744786 -0.000091 0
0.744836 -0.000106 0
0.744893 -0.000122 0
0.744960 -0.000142 0
0.745037 -0.000164 0
0.745126 -0.000190 0
0.745229 -0.000220 0
0.745349 -0.000254 0
0.745487 -0.000294 0
0.745647 -0.000341 0
0.745832 -0.000395 0
0.746046 -0.000457 0
0.746295 -0.000529 0
0.746582 -0.000612 0
0.746915 -0.000709 0
0.747300 -0.000822 0
0.747747 -0.000952 0
0.748264 -0.001103 0
0.748863 -0.001278 0
0.749557 -0.001482 0
0.750361 -0.001719 0
0.751293 -0.001995 0
0.752375 -0.002317 0
0.753629 -0.002692 0
0.755085 -0.003130 0
0.756775 -0.003642 0
0.758739 -0.004244 0
0.761023 -0.004950 0
0.763680 -0.005783 0
0.766776 -0.006767 0
0.770386 -0.007937 0
0.774602 -0.009331 0
0.779533 -0.011004 0
0.785311 -0.013023 0
0.792096 -0.015478 0
0.800084 -0.018493 0
0.809512 -0.022232 0
0.820673 -0.026931 0
0.833928 -0.032926 0
0.849714 -0.040711 0
0.868552 -0.051036 0
0.891026 -0.065065 0
0.917678 -0.084663 0
0.948679 -0.112749 0
0.983011 -0.154384 0
1.015523 -0.214398 0
1.035281 -0.309450 0
0.997629 -0.369507 0
0.997630 -0.184749 0
1.000000 0.000200 0
0.999876 0.000608 0
0.999625 0.001036 0
0.999239 0.001501 0
0.998706 0.002021 0
0.998007 0.002618 0
0.997119 0.003320 0
0.996011 0.004164 0
0.994645 0.005198 0
0.992971 0.006489 0
0.990927 0.008133 0
0.988441 0.010269 0
0.985431 0.013108 0
0.981819 0.016972 0
0.977577 0.022372 0
0.972848 0.030075 0
0.968184 0.041272 0
0.965505 0.057004 0
0.967843 0.078106 0
0.985128 0.098073 0
1.007627 0.108141 0
1.025889 0.108326 0
1.036441 0.102467 0
1.039611 0.094019 0
1.036991 0.085008 0
1.030213 0.076376 0
1.020602 0.068470 0
1.009156 0.061369 0
0.996613 0.055043 0
0.983512 0.049420 0
0.970250 0.044418 0
0.957112 0.039955 0
0.944307 0.035956 0
0.931982 0.032353 0
0.920243 0.029085 0
0.909163 0.026099 0
0.898796 0.023346 0
0.889176 0.020785 0
0.880329 0.018379 0
0.872271 0.016099 0
0.865009 0.013918 0
0.858544 0.011823 0
0.852870 0.009807 0
0.847973 0.007874 0
0.843830 0.006040 0
0.840411 0.004329 0
0.837673 0.002772 0
0.835565 0.001397 0
0.834021 0.000221 0
0.833000 -0.000729 0
0.832458 -0.001439 0
0.832315 -0.001925 0
0.832489 -0.002212 0
0.832903 -0.002331 0
0.833481 -0.002314 0
0.834160 -0.002197 0
0.834884 -0.002011 0
0.835607 -0.001784 0
0.836297 -0.001540 0
0.836930 -0.001297 0
0.837493 -0.001069 0
0.837980 -0.000863 0
0.838390 -0.000684 0
0.838730 -0.000533 0
0.839005 -0.000409 0
0.839225 -0.000310 0
0.839398 -0.000232 0
0.839533 -0.000173 0
0.839637 -0.000128 0
0.839717 -0.000095 0
0.839779 -0.000071 0
0.839826 -0.000053 0
0.839863 -0.000041 0
0.839892 -0.000032 0
0.839915 -0.000026 0
0.839934 -0.000022 0
0.839950 -0.000020 0
0.839964 -0.000019 0
0.839976 -0.000018 0
0.839987 -0.000019 0
0.839998 -0.000020 0
0.840009 -0.000022 0
0.840020 -0.000024 0
0.840031 -0.000027 0
0.840044 -0.000031 0
0.840058 -0.000035 0
0.840073 -0.000041 0
0.840091 -0.000047 0
0.840111 -0.000054 0
0.840133 -0.000063 0
0.840159 -0.000073 0
0.840189 -0.000084 0
0.840223 -0.000098 0
0.840263 -0.000113 0
0.840309 -0.000131 0
0.840362 -0.000151 0
0.840424 -0.000175 0
0.840495 -0.000203 0
0.840577 -0.000235 0
0.840672 -0.000272 0
0.840782 -0.000315 0
0.840909 -0.000364 0
0.841056 -0.000421 0
0.841227 -0.000488 0
0.841424 -0.000565 0
0.841653 -0.000654 0
0.841917 -0.000757 0
0.842223 -0.000877 0
0.842577 -0.001016 0
0.842988 -0.001177 0
0.843463 -0.001364 0
0.844013 -0.001580 0
0.844650 -0.001832 0