# vtk DataFile Version 2.0
generated by CFD-lab course output (written by Tobias Neckel) 
ASCII

DATASET STRUCTURED_GRID
DIMENSIONS  142 42 1 
POINTS 5964 float

0.000000 0.250000 0
0.024648 0.250000 0
0.049296 0.250000 0
0.073944 0.250000 0
0.098592 0.250000 0
0.123239 0.250000 0
0.147887 0.250000 0
0.172535 0.250000 0
0.197183 0.250000 0
0.221831 0.250000 0
0.246479 0.250000 0
0.271127 0.250000 0
0.295775 0.250000 0
0.320423 0.250000 0
0.345070 0.250000 0
0.369718 0.250000 0
0.394366 0.250000 0
0.419014 0.250000 0
0.443662 0.250000 0
0.468310 0.250000 0
0.492958 0.250000 0
0.517606 0.250000 0
0.542254 0.250000 0
0.566901 0.250000 0
0.591549 0.250000 0
0.616197 0.250000 0
0.640845 0.250000 0
0.665493 0.250000 0
0.690141 0.250000 0
0.714789 0.250000 0
0.739437 0.250000 0
0.764085 0.250000 0
0.788732 0.250000 0
0.813380 0.250000 0
0.838028 0.250000 0
0.862676 0.250000 0
0.887324 0.250000 0
0.911972 0.250000 0
0.936620 0.250000 0
0.961268 0.250000 0
0.985915 0.250000 0
1.010563 0.250000 0
1.035211 0.250000 0
1.059859 0.250000 0
1.084507 0.250000 0
1.109155 0.250000 0
1.133803 0.250000 0
1.158451 0.250000 0
1.183099 0.250000 0
1.207746 0.250000 0
1.232394 0.250000 0
1.257042 0.250000 0
1.281690 0.250000 0
1.306338 0.250000 0
1.330986 0.250000 0
1.355634 0.250000 0
1.380282 0.250000 0
1.404930 0.250000 0
1.429577 0.250000 0
1.454225 0.250000 0
1.478873 0.250000 0
1.503521 0.250000 0
1.528169 0.250000 0
1.552817 0.250000 0
1.577465 0.250000 0
1.602113 0.250000 0
1.626761 0.250000 0
1.651408 0.250000 0
1.676056 0.250000 0
1.700704 0.250000 0
1.725352 0.250000 0
1.750000 0.250000 0
1.774648 0.250000 0
1.799296 0.250000 0
1.823944 0.250000 0
1.848592 0.250000 0
1.873239 0.250000 0
1.897887 0.250000 0
1.922535 0.250000 0
1.947183 0.250000 0
1.971831 0.250000 0
1.996479 0.250000 0
2.021127 0.250000 0
2.045775 0.250000 0
2.070423 0.250000 0
2.095070 0.250000 0
2.119718 0.250000 0
2.144366 0.250000 0
2.169014 0.250000 0
2.193662 0.250000 0
2.218310 0.250000 0
2.242958 0.250000 0
2.267606 0.250000 0
2.292254 0.250000 0
2.316901 0.250000 0
2.341549 0.250000 0
2.366197 0.250000 0
2.390845 0.250000 0
2.415493 0.250000 0
2.440141 0.250000 0
2.464789 0.250000 0
2.489437 0.250000 0
2.514085 0.250000 0
2.538732 0.250000 0
2.563380 0.250000 0
2.588028 0.250000 0
2.612676 0.250000 0
2.637324 0.250000 0
2.661972 0.250000 0
2.686620 0.250000 0
2.711268 0.250000 0
2.735915 0.250000 0
2.760563 0.250000 0
2.785211 0.250000 0
2.809859 0.250000 0
2.834507 0.250000 0
2.859155 0.250000 0
2.883803 0.250000 0
2.908451 0.250000 0
2.933099 0.250000 0
2.957746 0.250000 0
2.982394 0.250000 0
3.007042 0.250000 0
3.031690 0.250000 0
3.056338 0.250000 0
3.080986 0.250000 0
3.105634 0.250000 0
3.130282 0.250000 0
3.154930 0.250000 0
3.179577 0.250000 0
3.204225 0.250000 0
3.228873 0.250000 0
3.253521 0.250000 0
3.278169 0.250000 0
3.302817 0.250000 0
3.327465 0.250000 0
3.352113 0.250000 0
3.376761 0.250000 0
3.401408 0.250000 0
3.426056 0.250000 0
3.450704 0.250000 0
3.475352 0.250000 0
0.000000 0.261905 0
0.024648 0.261905 0
0.049296 0.261905 0
0.073944 0.261905 0
0.098592 0.261905 0
0.123239 0.261905 0
0.147887 0.261905 0
0.172535 0.261905 0
0.197183 0.261905 0
0.221831 0.261905 0
0.246479 0.261905 0
0.271127 0.261905 0
0.295775 0.261905 0
0.320423 0.261905 0
0.345070 0.261905 0
0.369718 0.261905 0
0.394366 0.261905 0
0.419014 0.261905 0
0.443662 0.261905 0
0.468310 0.261905 0
0.492958 0.261905 0
0.517606 0.261905 0
0.542254 0.261905 0
0.566901 0.261905 0
0.591549 0.261905 0
0.616197 0.261905 0
0.640845 0.261905 0
0.665493 0.261905 0
0.690141 0.261905 0
0.714789 0.261905 0
0.739437 0.261905 0
0.764085 0.261905 0
0.788732 0.261905 0
0.813380 0.261905 0
0.838028 0.261905 0
0.862676 0.261905 0
0.887324 0.261905 0
0.911972 0.261905 0
0.936620 0.261905 0
0.961268 0.261905 0
0.985915 0.261905 0
1.010563 0.261905 0
1.035211 0.261905 0
1.059859 0.261905 0
1.084507 0.261905 0
1.109155 0.261905 0
1.133803 0.261905 0
1.158451 0.261905 0
1.183099 0.261905 0
1.207746 0.261905 0
1.232394 0.261905 0
1.257042 0.261905 0
1.281690 0.261905 0
1.306338 0.261905 0
1.330986 0.261905 0
1.355634 0.261905 0
1.380282 0.261905 0
1.404930 0.261905 0
1.429577 0.261905 0
1.454225 0.261905 0
1.478873 0.261905 0
1.503521 0.261905 0
1.528169 0.261905 0
1.552817 0.261905 0
1.577465 0.261905 0
1.602113 0.261905 0
1.626761 0.261905 0
1.651408 0.261905 0
1.676056 0.261905 0
1.700704 0.261905 0
1.725352 0.261905 0
1.750000 0.261905 0
1.774648 0.261905 0
1.799296 0.261905 0
1.823944 0.261905 0
1.848592 0.261905 0
1.873239 0.261905 0
1.897887 0.261905 0
1.922535 0.261905 0
1.947183 0.261905 0
1.971831 0.261905 0
1.996479 0.261905 0
2.021127 0.261905 0
2.045775 0.261905 0
2.070423 0.261905 0
2.095070 0.261905 0
2.119718 0.261905 0
2.144366 0.261905 0
2.169014 0.261905 0
2.193662 0.261905 0
2.218310 0.261905 0
2.242958 0.261905 0
2.267606 0.261905 0
2.292254 0.261905 0
2.316901 0.261905 0
2.341549 0.261905 0
2.366197 0.261905 0
2.390845 0.261905 0
2.415493 0.261905 0
2.440141 0.261905 0
2.464789 0.261905 0
2.489437 0.261905 0
2.514085 0.261905 0
2.538732 0.261905 0
2.563380 0.261905 0
2.588028 0.261905 0
2.612676 0.261905 0
2.637324 0.261905 0
2.661972 0.261905 0
2.686620 0.261905 0
2.711268 0.261905 0
2.735915 0.261905 0
2.760563 0.261905 0
2.785211 0.261905 0
2.809859 0.261905 0
2.834507 0.261905 0
2.859155 0.261905 0
2.883803 0.261905 0
2.908451 0.261905 0
2.933099 0.261905 0
2.957746 0.261905 0
2.982394 0.261905 0
3.007042 0.261905 0
3.031690 0.261905 0
3.056338 0.261905 0
3.080986 0.261905 0
3.105634 0.261905 0
3.130282 0.261905 0
3.154930 0.261905 0
3.179577 0.261905 0
3.204225 0.261905 0
3.228873 0.261905 0
3.253521 0.261905 0
3.278169 0.261905 0
3.302817 0.261905 0
3.327465 0.261905 0
3.352113 0.261905 0
3.376761 0.261905 0
3.401408 0.261905 0
3.426056 0.261905 0
3.450704 0.261905 0
3.475352 0.261905 0
0.000000 0.273810 0
0.024648 0.273810 0
0.049296 0.273810 0
0.073944 0.273810 0
0.098592 0.273810 0
0.123239 0.273810 0
0.147887 0.273810 0
0.172535 0.273810 0
0.197183 0.273810 0
0.221831 0.273810 0
0.246479 0.273810 0
0.271127 0.273810 0
0.295775 0.273810 0
0.320423 0.273810 0
0.345070 0.273810 0
0.369718 0.273810 0
0.394366 0.273810 0
0.419014 0.273810 0
0.443662 0.273810 0
0.468310 0.273810 0
0.492958 0.273810 0
0.517606 0.273810 0
0.542254 0.273810 0
0.566901 0.273810 0
0.591549 0.273810 0
0.616197 0.273810 0
0.640845 0.273810 0
0.665493 0.273810 0
0.690141 0.273810 0
0.714789 0.273810 0
0.739437 0.273810 0
0.764085 0.273810 0
0.788732 0.273810 0
0.813380 0.273810 0
0.838028 0.273810 0
0.862676 0.273810 0
0.887324 0.273810 0
0.911972 0.273810 0
0.936620 0.273810 0
0.961268 0.273810 0
0.985915 0.273810 0
1.010563 0.273810 0
1.035211 0.273810 0
1.059859 0.273810 0
1.084507 0.273810 0
1.109155 0.273810 0
1.133803 0.273810 0
1.158451 0.273810 0
1.183099 0.273810 0
1.207746 0.273810 0
1.232394 0.273810 0
1.257042 0.273810 0
1.281690 0.273810 0
1.306338 0.273810 0
1.330986 0.273810 0
1.355634 0.273810 0
1.380282 0.273810 0
1.404930 0.273810 0
1.429577 0.273810 0
1.454225 0.273810 0
1.478873 0.273810 0
1.503521 0.273810 0
1.528169 0.273810 0
1.552817 0.273810 0
1.577465 0.273810 0
1.602113 0.273810 0
1.626761 0.273810 0
1.651408 0.273810 0
1.676056 0.273810 0
1.700704 0.273810 0
1.725352 0.273810 0
1.750000 0.273810 0
1.774648 0.273810 0
1.799296 0.273810 0
1.823944 0.273810 0
1.848592 0.273810 0
1.873239 0.273810 0
1.897887 0.273810 0
1.922535 0.273810 0
1.947183 0.273810 0
1.971831 0.273810 0
1.996479 0.273810 0
2.021127 0.273810 0
2.045775 0.273810 0
2.070423 0.273810 0
2.095070 0.273810 0
2.119718 0.273810 0
2.144366 0.273810 0
2.169014 0.273810 0
2.193662 0.273810 0
2.218310 0.273810 0
2.242958 0.273810 0
2.267606 0.273810 0
2.292254 0.273810 0
2.316901 0.273810 0
2.341549 0.273810 0
2.366197 0.273810 0
2.390845 0.273810 0
2.415493 0.273810 0
2.440141 0.273810 0
2.464789 0.273810 0
2.489437 0.273810 0
2.514085 0.273810 0
2.538732 0.273810 0
2.563380 0.273810 0
2.588028 0.273810 0
2.612676 0.273810 0
2.637324 0.273810 0
2.661972 0.273810 0
2.686620 0.273810 0
2.711268 0.273810 0
2.735915 0.273810 0
2.760563 0.273810 0
2.785211 0.273810 0
2.809859 0.273810 0
2.834507 0.273810 0
2.859155 0.273810 0
2.883803 0.273810 0
2.908451 0.273810 0
2.933099 0.273810 0
2.957746 0.273810 0
2.982394 0.273810 0
3.007042 0.273810 0
3.031690 0.273810 0
3.056338 0.273810 0
3.080986 0.273810 0
3.105634 0.273810 0
3.130282 0.273810 0
3.154930 0.273810 0
3.179577 0.273810 0
3.204225 0.273810 0
3.228873 0.273810 0
3.253521 0.273810 0
3.278169 0.273810 0
3.302817 0.273810 0
3.327465 0.273810 0
3.352113 0.273810 0
3.376761 0.273810 0
3.401408 0.273810 0
3.426056 0.273810 0
3.450704 0.273810 0
3.475352 0.273810 0
0.000000 0.285714 0
0.024648 0.285714 0
0.049296 0.285714 0
0.073944 0.285714 0
0.098592 0.285714 0
0.123239 0.285714 0
0.147887 0.285714 0
0.172535 0.285714 0
0.197183 0.285714 0
0.221831 0.285714 0
0.246479 0.285714 0
0.271127 0.285714 0
0.295775 0.285714 0
0.320423 0.285714 0
0.345070 0.285714 0
0.369718 0.285714 0
0.394366 0.285714 0
0.419014 0.285714 0
0.443662 0.285714 0
0.468310 0.285714 0
0.492958 0.285714 0
0.517606 0.285714 0
0.542254 0.285714 0
0.566901 0.285714 0
0.591549 0.285714 0
0.616197 0.285714 0
0.640845 0.285714 0
0.665493 0.285714 0
0.690141 0.285714 0
0.714789 0.285714 0
0.739437 0.285714 0
0.764085 0.285714 0
0.788732 0.285714 0
0.813380 0.285714 0
0.838028 0.285714 0
0.862676 0.285714 0
0.887324 0.285714 0
0.911972 0.285714 0
0.936620 0.285714 0
0.961268 0.285714 0
0.985915 0.285714 0
1.010563 0.285714 0
1.035211 0.285714 0
1.059859 0.285714 0
1.084507 0.285714 0
1.109155 0.285714 0
1.133803 0.285714 0
1.158451 0.285714 0
1.183099 0.285714 0
1.207746 0.285714 0
1.232394 0.285714 0
1.257042 0.285714 0
1.281690 0.285714 0
1.306338 0.285714 0
1.330986 0.285714 0
1.355634 0.285714 0
1.380282 0.285714 0
1.404930 0.285714 0
1.429577 0.285714 0
1.454225 0.285714 0
1.478873 0.285714 0
1.503521 0.285714 0
1.528169 0.285714 0
1.552817 0.285714 0
1.577465 0.285714 0
[...]
POINT_DATA 5964 

VECTORS velocity float
1.000000 0.000000 0
0.999854 0.000000 0
0.999556 0.000000 0
0.999097 0.000000 0
0.998458 0.000000 0
0.997615 0.000000 0
0.996532 0.000000 0
0.995162 0.000000 0
0.993440 0.000000 0
0.991275 0.000000 0
0.988543 0.000000 0
0.985062 0.000000 0
0.980561 0.000000 0
0.974614 0.000000 0
0.966517 0.000000 0
0.954933 0.000000 0
0.937383 0.000000 0
0.905760 0.000000 0
0.847693 0.000000 0
-0.000000 0.000000 0
-0.000000 0.000000 0
-0.000000 0.000000 0
0.000000 0.000000 0
0.000000 0.000000 0
-0.000000 0.000000 0
-0.000000 0.000000 0
-0.000000 0.000000 0
0.000000 0.000000 0
0.000000 0.000000 0
0.000000 0.000000 0
-0.000000 0.000000 0
-0.000000 0.000000 0
0.000000 0.000000 0
0.000000 0.000000 0
0.000000 0.000000 0
-0.000000 0.000000 0
-0.000000 0.000000 0
-0.000000 0.000000 0
0.000000 0.000000 0
0.000000 0.000000 0
-0.000000 0.000000 0
-0.000000 0.000000 0
-0.000000 0.000000 0
0.000000 0.000000 0
0.000000 0.000000 0
0.000000 0.000000 0
-0.000000 0.000000 0
-0.000000 0.000000 0
0.000000 0.000000 0
0.000000 0.000000 0
0.000000 0.000000 0
0.000000 0.000000 0
0.000000 0.000000 0
-0.000000 0.000000 0
-0.000000 0.000000 0
-0.000000 0.000000 0
0.000000 0.000000 0
0.000000 0.000000 0
-0.000000 0.000000 0
-0.000000 0.000000 0
-0.000000 0.000000 0
0.000000 0.000000 0
0.000000 0.000000 0
-0.000000 0.000000 0
-0.000000 0.000000 0
-0.000000 0.000000 0
-0.000000 0.000000 0
-0.000000 0.000000 0
-0.000000 0.000000 0
-0.000000 0.000000 0
-0.000000 0.000000 0
-0.000000 0.000000 0
-0.000000 0.000000 0
-0.000000 0.000000 0
-0.000000 0.000000 0
-0.000000 0.000000 0
-0.000000 0.000000 0
-0.000000 0.000000 0
-0.000000 0.000000 0
-0.000000 0.000000 0
-0.000000 0.000000 0
-0.000000 0.000000 0
-0.000000 0.000000 0
-0.000000 0.000000 0
-0.000000 0.000000 0
-0.000000 0.000000 0
-0.000000 0.000000 0
-0.000000 0.000000 0
-0.000000 0.000000 0
-0.000000 0.000000 0
-0.000000 0.000000 0
-0.000000 0.000000 0
-0.000000 0.000000 0
-0.000000 0.000000 0
-0.000000 0.000000 0
-0.000000 0.000000 0
-0.000000 0.000000 0
-0.000000 0.000000 0
-0.000000 0.000000 0
-0.000000 0.000000 0
-0.000000 0.000000 0
-0.000000 0.000000 0
-0.000000 0.000000 0
-0.000000 0.000000 0
-0.000000 0.000000 0
-0.000000 0.000000 0
-0.000000 0.000000 0
-0.000000 0.000000 0
-0.000000 0.000000 0
-0.000000 0.000000 0
-0.000000 0.000000 0
-0.000000 0.000000 0
-0.000000 0.000000 0
-0.000000 0.000000 0
-0.000000 0.000000 0
-0.000000 0.000000 0
-0.000000 0.000000 0
-0.000000 0.000000 0
-0.000000 0.000000 0
-0.000000 0.000000 0
-0.000000 0.000000 0
-0.000000 0.000000 0
-0.000000 0.000000 0
-0.000000 0.000000 0
-0.000000 0.000000 0
-0.000000 0.000000 0
-0.000000 0.000000 0
-0.000000 0.000000 0
-0.000000 0.000000 0
-0.000000 0.000000 0
-0.000000 0.000000 0
-0.000000 0.000000 0
-0.000000 0.000000 0
-0.000000 0.000000 0
-0.000000 0.000000 0
-0.000000 0.000000 0
-0.000000 0.000000 0
-0.000000 0.000000 0
-0.000000 0.000000 0
0.000000 0.000000 0
-0.000000 0.000000 0
0.496409 0.000000 0
1.000000 0.000035 0
0.999854 0.000107 0
0.999558 0.000183 0
0.999101 0.000265 0
0.998465 0.000358 0
0.997626 0.000465 0
0.996549 0.000592 0
0.995186 0.000747 0
0.993474 0.000939 0
0.991325 0.001182 0
0.988614 0.001500 0
0.985165 0.001928 0
0.980713 0.002523 0
0.974850 0.003392 0
0.966903 0.004753 0
0.955641 0.007036 0
0.938825 0.011875 0
0.910180 0.021660 0
0.860874 0.078853 0
0.714886 0.110956 0
0.576504 0.072745 0
0.473017 0.041074 0
0.401066 0.022638 0
0.351163 0.013309 0
0.315499 0.008679 0
0.288994 0.006202 0
0.268554 0.004718 0
0.252294 0.003739 0
0.239027 0.003050 0
0.227980 0.002542 0
0.218624 0.002156 0
0.210590 0.001855 0
0.203608 0.001615 0
0.197480 0.001420 0
0.192052 0.001260 0
0.187208 0.001127 0
0.182854 0.001015 0
0.178917 0.000919 0
0.175337 0.000838 0
0.172064 0.000767 0
0.169059 0.000706 0
0.166287 0.000652 0
0.163720 0.000605 0
0.161334 0.000564 0
0.159110 0.000526 0
0.157028 0.000493 0
0.155075 0.000464 0
0.153237 0.000437 0
0.151503 0.000413 0
0.149864 0.000391 0
0.148309 0.000372 0
0.146833 0.000353 0
0.145429 0.000337 0
0.144089 0.000322 0
0.142810 0.000308 0
0.141586 0.000295 0
0.140413 0.000283 0
0.139288 0.000272 0
0.138207 0.000261 0
0.137168 0.000252 0
0.136167 0.000242 0
0.135201 0.000234 0
0.134270 0.000226 0
0.133370 0.000219 0
0.132500 0.000211 0
0.131658 0.000205 0
0.130843 0.000198 0
0.130053 0.000192 0
0.129287 0.000187 0
0.128544 0.000181 0
0.127822 0.000176 0
0.127121 0.000171 0
0.126440 0.000166 0
0.125777 0.000162 0
0.125132 0.000157 0
0.124505 0.000153 0
0.123895 0.000149 0
0.123300 0.000145 0
0.122721 0.000142 0
0.122157 0.000138 0
0.121608 0.000134 0
0.121072 0.000131 0
0.120551 0.000127 0
0.120043 0.000124 0
0.119548 0.000121 0
0.119067 0.000117 0
0.118598 0.000114 0
0.118142 0.000111 0
0.117699 0.000108 0
0.117269 0.000104 0
0.116851 0.000101 0
0.116447 0.000098 0
0.116056 0.000094 0
0.115680 0.000091 0
0.115317 0.000087 0
0.114969 0.000083 0
0.114637 0.000078 0
0.114322 0.000074 0
0.114024 0.000069 0
0.113744 0.000064 0
0.113486 0.000058 0
0.113249 0.000052 0
0.113036 0.000045 0
0.112850 0.000038 0
0.112693 0.000029 0
0.112569 0.000020 0
0.112481 0.000009 0
0.112434 -0.000003 0
0.112436 -0.000017 0
0.112491 -0.000033 0
0.112607 -0.000050 0
0.112788 -0.000069 0
0.113046 -0.000091 0
0.113389 -0.000117 0
0.113831 -0.000146 0
0.114386 -0.000180 0
0.115073 -0.000219 0
0.115910 -0.000264 0
0.116922 -0.000317 0
0.118137 -0.000379 0
0.119590 -0.000452 0
0.121320 -0.000537 0
0.123379 -0.000639 0
0.125825 -0.000760 0
0.128734 -0.000907 0
0.132198 -0.001085 0
0.136335 -0.001303 0
0.141296 -0.001575 0
0.147274 -0.001917 0
0.154527 -0.002355 0
0.163403 -0.002927 0
0.174380 -0.003690 0
0.188136 -0.004740 0
0.205664 -0.006232 0
0.228474 -0.008452 0
0.258975 -0.011955 0
0.301284 -0.017906 0
0.362730 -0.029699 0
0.459956 -0.052080 0
0.617941 -0.166962 0
0.993125 -0.267472 0
0.993125 -0.133736 0
1.000000 0.000070 0
0.999856 0.000213 0
0.999564 0.000364 0
0.999113 0.000528 0
0.998486 0.000712 0
0.997659 0.000926 0
0.996599 0.001178 0
0.995259 0.001485 0
0.993579 0.001865 0
0.991473 0.002348 0
0.988825 0.002975 0
0.985469 0.003816 0
0.981163 0.004982 0
0.975541 0.006670 0
0.968025 0.009278 0
0.957649 0.013561 0
0.942785 0.021957 0
0.920694 0.037650 0
0.888370 0.094326 0
0.890999 0.137349 0
0.842149 0.116821 0
0.771618 0.084735 0
0.701222 0.058855 0
0.639920 0.041328 0
0.589257 0.030027 0
0.547923 0.022674 0
0.514040 0.017726 0
0.485953 0.014261 0
0.462370 0.011743 0
0.442322 0.009855 0
0.425082 0.008399 0
0.410105 0.007253 0
0.396971 0.006332 0
0.385359 0.005582 0
0.375016 0.004961 0
0.365741 0.004443 0
0.357374 0.004004 0
0.349783 0.003631 0
0.342863 0.003310 0
0.336523 0.003032 0
0.330692 0.002790 0
0.325306 0.002579 0
0.320313 0.002392 0
0.315668 0.002227 0
0.311333 0.002080 0
0.307276 0.001949 0
0.303467 0.001831 0
0.299883 0.001725 0
0.296501 0.001629 0
0.293302 0.001543 0
0.290271 0.001464 0
0.287392 0.001391 0
0.284652 0.001325 0
0.282040 0.001265 0
0.279547 0.001209 0
0.277161 0.001157 0
0.274877 0.001110 0
0.272686 0.001065 0
0.270581 0.001024 0
0.268557 0.000986 0
0.266608 0.000950 0
0.264730 0.000916 0
0.262918 0.000885 0
0.261169 0.000855 0
0.259477 0.000827 0
0.257841 0.000800 0
0.256257 0.000775 0
0.254722 0.000752 0
0.253234 0.000729 0
0.251790 0.000708 0
0.250388 0.000687 0
0.249027 0.000668 0
0.247704 0.000649 0
0.246417 0.000631 0
0.245166 0.000614 0
0.243949 0.000598 0
0.242763 0.000582 0
0.241609 0.000567 0
0.240485 0.000552 0
0.239390 0.000538 0
0.238323 0.000524 0
0.237283 0.000510 0
0.236270 0.000497 0
0.235282 0.000484 0
0.234321 0.000472 0
0.233384 0.000459 0
0.232471 0.000447 0
0.231584 0.000434 0
0.230720 0.000422 0
0.229880 0.000409 0
0.229065 0.000397 0
0.228275 0.000384 0
0.227510 0.000371 0
0.226770 0.000357 0
0.226057 0.000343 0
0.225371 0.000328 0
0.224713 0.000313 0
0.224086 0.000296 0
0.223490 0.000279 0
0.222928 0.000260 0
0.222403 0.000239 0
0.221917 0.000217 0
0.221475 0.000193 0
0.221078 0.000166 0
0.220734 0.000136 0
0.220447 0.000102 0
0.220223 0.000065 0
0.220071 0.000022 0
0.220000 -0.000028 0
0.220024 -0.000083 0
0.220154 -0.000144 0
0.220400 -0.000212 0
0.220778 -0.000290 0
0.221305 -0.000379 0
0.222003 -0.000482 0
0.222896 -0.000600 0
0.224014 -0.000736 0
0.225389 -0.000893 0
0.227063 -0.001076 0
0.229082 -0.001289 0
0.231502 -0.001538 0
0.234389 -0.001830 0
0.237825 -0.002176 0
0.241905 -0.002586 0
0.246750 -0.003078 0
0.252506 -0.003672 0
0.259354 -0.004394 0
0.267524 -0.005283 0
0.277310 -0.006391 0
0.289091 -0.007790 0
0.303367 -0.009589 0
0.320809 -0.011946 0
0.342337 -0.015110 0
0.369242 -0.019483 0
0.403392 -0.025749 0
0.447566 -0.035167 0
0.506075 -0.050112 0
0.585566 -0.076637 0
0.697298 -0.123266 0
0.855269 -0.257517 0
0.993822 -0.362422 0
0.993822 -0.181211 0
1.000000 0.000105 0
0.999859 0.000318 0
0.999574 0.000542 0
0.999133 0.000786 0
0.998521 0.001060 0
0.997714 0.001377 0
0.996681 0.001752 0
0.995379 0.002205 0
0.993750 0.002767 0
0.991715 0.003479 0
0.989168 0.004400 0
0.985962 0.005628 0
0.981887 0.007318 0
0.976642 0.009737 0
0.969782 0.013395 0
0.960673 0.019226 0
0.948431 0.029724 0
0.933028 0.047942 0
0.915086 0.093196 0
0.945330 0.133281 0
0.948626 0.130405 0
0.922939 0.109141 0
0.881981 0.086247 0
0.836589 0.067387 0
0.792539 0.053113 0
0.752206 0.042531 0
0.716223 0.034649 0
0.684455 0.028696 0
0.656485 0.024123 0
0.631828 0.020552 0
0.610017 0.017717 0
0.590640 0.015433 0
0.573343 0.013567 0
0.557826 0.012025 0
0.543839 0.010736 0
0.531172 0.009648 0
0.519650 0.008722 0
0.509125 0.007928 0
0.499472 0.007242 0
0.490585 0.006646 0
0.482375 0.006124 0
0.474764 0.005665 0
0.467686 0.005260 0
0.461084 0.004900 0
0.454908 0.004580 0
0.449116 0.004293 0
0.443670 0.004035 0
0.438537 0.003802 0
0.433688 0.003592 0
0.429097 0.003400 0
0.424742 0.003226 0
0.420602 0.003067 0
0.416661 0.002921 0
0.412902 0.002788 0
0.409310 0.002664 0
0.405874 0.002550 0
0.402582 0.002445 0
0.399423 0.002347 0
0.396388 0.002255 0
0.393470 0.002170 0
0.390659 0.002091 0
0.387950 0.002016 0
0.385336 0.001946 0
0.382811 0.001881 0
0.380371 0.001819 0
0.378010 0.001760 0
0.375723 0.001705 0
0.373508 0.001653 0
0.371360 0.001603 0
0.369276 0.001556 0
0.367252 0.001511 0
0.365287 0.001468 0
0.363376 0.001427 0
0.361519 0.001388 0
0.359711 0.001350 0
0.357953 0.001314 0
0.356240 0.001279 0
0.354572 0.001246 0
0.352948 0.001213 0
0.351365 0.001182 0
0.349822 0.001152 0
0.348318 0.001122 0
0.346852 0.001094 0
0.345423 0.001065 0
0.344030 0.001038 0
0.342673 0.001011 0
0.341350 0.000984 0
0.340062 0.000957 0
0.338808 0.000930 0
0.337588 0.000904 0
0.336403 0.000877 0
0.335251 0.000849 0
0.334135 0.000821 0
0.333053 0.000792 0
0.332009 0.000763 0
0.331001 0.000732 0
0.330033 0.000699 0
0.329105 0.000665 0
0.328221 0.000628 0
0.327382 0.000589 0
0.326591 0.000547 0
0.325854 0.000501 0
0.325173 0.000450 0
0.324554 0.000395 0
0.324002 0.000334 0
0.323526 0.000266 0
0.323133 0.000190 0
0.322832 0.000105 0
0.322635 0.000005 0
0.322557 -0.000107 0
0.322616 -0.000231 0
0.322828 -0.000371 0
0.323210 -0.000528 0
0.323785 -0.000708 0
0.324579 -0.000914 0
0.325623 -0.001151 0
0.326952 -0.001423 0
0.328609 -0.001737 0
0.330642 -0.002101 0
0.333110 -0.002523 0
0.336080 -0.003015 0
0.339634 -0.003591 0
0.343867 -0.004269 0
0.348895 -0.005071 0
0.354857 -0.006027 0
0.361924 -0.007172 0
0.370303 -0.008557 0
0.380254 -0.010248 0
0.392099 -0.012334 0
0.406250 -0.014940 0
0.423231 -0.018246 0
0.443730 -0.022512 0
0.468651 -0.028132 0
0.499211 -0.035721 0
0.537065 -0.046281 0
0.584484 -0.061551 0
0.644586 -0.084559 0
0.721291 -0.122058 0
0.818157 -0.182345 0
0.934472 -0.310182 0
0.994592 -0.401312 0
0.994592 -0.200656 0
1.000000 0.000138 0
0.999864 0.000419 0
0.999587 0.000715 0
0.999160 0.001037 0
0.998568 0.001398 0
0.997789 0.001814 0
0.996794 0.002306 0
0.995543 0.002901 0
0.993983 0.003635 0
0.992045 0.004560 0
0.989634 0.005754 0
0.986627 0.007333 0
0.982854 0.009484 0
0.978089 0.012517 0
0.972036 0.016991 0
0.964382 0.023874 0
0.954906 0.035310 0
0.945019 0.053755 0
0.937268 0.088384 0
0.965707 0.121150 0
0.987884 0.127636 0
0.990071 0.116924 0
0.975766 0.100561 0
0.951736 0.084528 0
0.923218 0.070783 0
0.893429 0.059534 0
0.864150 0.050450 0
0.836292 0.043114 0
0.810267 0.037162 0
0.786201 0.032298 0
0.764073 0.028292 0
0.743777 0.024966 0
0.725176 0.022181 0
0.708119 0.019832 0
0.692457 0.017835 0
0.678050 0.016126 0
0.664768 0.014653 0
0.652495 0.013377 0
0.641128 0.012265 0
0.630573 0.011290 0
0.620748 0.010432 0
0.611580 0.009673 0
0.603006 0.008999 0
0.594969 0.008398 0
0.587416 0.007860 0
0.580305 0.007377 0
0.573596 0.006941 0
0.567252 0.006547 0
0.561243 0.006189 0
0.555540 0.005863 0
0.550118 0.005566 0
0.544955 0.005294 0
0.540031 0.005045 0
0.535327 0.004815 0
0.530826 0.004603 0
0.526515 0.004407 0
0.522380 0.004226 0
0.518408 0.004057 0
0.514589 0.003900 0
0.510912 0.003753 0
0.507369 0.003616 0
0.503952 0.003487 0
0.500652 0.003366 0
0.497464 0.003253 0
0.494379 0.003146 0
0.491394 0.003045 0
0.488502 0.002949 0
0.485698 0.002859 0
0.482978 0.002773 0
0.480338 0.002692 0
0.477774 0.002614 0
0.475282 0.002540 0
0.472860 0.002469 0
0.470503 0.002401 0
0.468209 0.002337 0
0.465976 0.002274 0
0.463801 0.002215 0
0.461682 0.002157 0
0.459617 0.002101 0
0.457603 0.002048 0
0.455641 0.001995 0
0.453726 0.001945 0
0.451860 0.001895 0
0.450039 0.001847 0
0.448264 0.001800 0
0.446532 0.001753 0
0.444844 0.001708 0
0.443198 0.001662 0
0.441595 0.001617 0
0.440034 0.001571 0
0.438515 0.001526 0
0.437038 0.001479 0
0.435604 0.001432 0
0.434213 0.001384 0
0.432865 0.001334 0
0.431564 0.001283 0
0.430309 0.001229 0
0.429103 0.001172 0
0.427948 0.001111 0
0.426848 0.001047 0
0.425805 0.000977 0
0.424825 0.000902 0
0.423910 0.000821 0
0.423068 0.000731 0
0.422306 0.000632 0
0.421630 0.000522 0
0.421050 0.000400 0
0.420576 0.000262 0
0.420221 0.000106 0
0.419995 -0.000074 0
0.419926 -0.000275 0
0.420032 -0.000499 0
0.420332 -0.000752 0
0.420852 -0.001041 0
0.421620 -0.001369 0
0.422669 -0.001746 0
0.424040 -0.002178 0
0.425778 -0.002675 0
0.427936 -0.003250 0
0.430577 -0.003915 0
0.433774 -0.004688 0
0.437613 -0.005591 0
0.442196 -0.006649 0
0.447645 -0.007895 0
0.454103 -0.009371 0
0.461745 -0.011132 0
0.470780 -0.013247 0
0.481466 -0.015811 0
0.494118 -0.018947 0
0.509124 -0.022827 0
0.526974 -0.027691 0
0.548281 -0.033883 0
0.573827 -0.041907 0
0.604607 -0.052526 0
0.641885 -0.066936 0
0.687225 -0.087099 0
0.742414 -0.116189 0
0.808947 -0.160471 0
0.885604 -0.226230 0
0.965210 -0.342734 0
0.995319 -0.420498 0
0.995319 -0.210249 0
1.000000 0.000170 0
0.999869 0.000517 0
0.999604 0.000882 0
0.999195 0.001278 0
0.998628 0.001722 0
0.997884 0.002234 0
0.996936 0.002837 0
0.995748 0.003563 0
0.994274 0.004457 0
0.992454 0.005579 0
0.990209 0.007017 0
0.987440 0.008903 0
0.984022 0.011442 0
0.979805 0.014962 0
0.974637 0.020015 0
0.968468 0.027500 0
0.961560 0.039076 0
0.955831 0.056461 0
0.954476 0.083204 0
0.976671 0.108834 0
1.001710 0.118637 0
1.016358 0.114993 0
1.018677 0.104763 0
1.011391 0.092767 0
0.997797 0.081275 0
0.980475 0.071061 0
0.961200 0.062246 0
0.941142 0.054721 0
0.921050 0.048317 0
0.901397 0.042863 0
0.882463 0.038207 0
0.864406 0.034219 0
0.847300 0.030789 0
0.831164 0.027828 0
0.815984 0.025259 0
0.801724 0.023022 0
0.788337 0.021065 0
0.775768 0.019346 0
0.763963 0.017831 0
0.752867 0.016489 0
0.742425 0.015297 0
0.732589 0.014234 0
0.723310 0.013284 0
0.714545 0.012430 0
0.706253 0.011662 0
0.698397 0.010968 0
0.690944 0.010339 0
0.683863 0.009768 0
0.677125 0.009248 0
0.670704 0.008774 0
0.664578 0.008339 0
0.658725 0.007939 0
0.653125 0.007572 0
0.647760 0.007233 0
0.642616 0.006920 0
0.637676 0.006630 0
0.632927 0.006360 0
0.628358 0.006109 0
0.623956 0.005876 0
0.619712 0.005657 0
0.615616 0.005452 0
0.611659 0.005261 0
0.607833 0.005080 0
0.604132 0.004910 0
0.600547 0.004750 0
0.597074 0.004599 0
0.593706 0.004456 0
0.590437 0.004320 0
0.587264 0.004192 0
0.584181 0.004069 0
0.581184 0.003953 0
0.578269 0.003841 0
0.575433 0.003735 0
0.572672 0.003634 0
0.569983 0.003536 0
0.567363 0.003443 0
0.564810 0.003353 0
0.562320 0.003267 0
0.559893 0.003183 0
0.557524 0.003103 0
0.555214 0.003024 0
0.552959 0.002949 0
0.550759 0.002875 0
0.548611 0.002802 0
0.546515 0.002732 0
0.544470 0.002662 0
0.542474 0.002594 0
0.540527 0.002526 0
0.538628 0.002459 0
0.536777 0.002391 0
0.534974 0.002324 0
0.533219 0.002255 0
0.531511 0.002186 0
0.529853 0.002115 0
0.528244 0.002042 0
0.526686 0.001966 0
0.525181 0.001888 0
0.523730 0.001805 0
0.522336 0.001717 0
0.521003 0.001624 0
0.519732 0.001524 0
0.518530 0.001416 0
0.517401 0.001299 0
0.516350 0.001170 0
0.515385 0.001029 0
0.514515 0.000873 0
0.513747 0.000699 0
0.513094 0.000505 0
0.512568 0.000286 0
0.512180 0.000035 0
0.511950 -0.000249 0
0.511907 -0.000567 0
0.512071 -0.000925 0
0.512467 -0.001330 0
0.513125 -0.001792 0
0.514080 -0.002320 0
0.515372 -0.002924 0
0.517048 -0.003619 0
0.519162 -0.004418 0
0.521777 -0.005342 0
0.524967 -0.006413 0
0.528818 -0.007659 0
0.533431 -0.009114 0
0.538923 -0.010822 0
0.545436 -0.012837 0
0.553137 -0.015227 0
0.562222 -0.018083 0
0.572931 -0.021519 0
0.585549 -0.025692 0
0.600424 -0.030810 0
0.617977 -0.037159 0
0.638718 -0.045142 0
0.663271 -0.055337 0
0.692380 -0.068593 0
0.726907 -0.086185 0
0.767762 -0.110106 0
0.815652 -0.143350 0
0.870400 -0.191218 0
0.928541 -0.257819 0
0.981728 -0.363173 0
0.995980 -0.430398 0
0.995980 -0.215199 0
1.000000 0.000201 0
0.999876 0.000611 0
0.999624 0.001041 0
0.999236 0.001508 0
0.998699 0.002031 0
0.997996 0.002631 0
0.997104 0.003338 0
0.995990 0.004186 0
0.994616 0.005226 0
0.992932 0.006524 0
0.990877 0.008175 0
0.988376 0.010321 0
0.985348 0.013171 0
0.981715 0.017050 0
0.977446 0.022466 0
0.972684 0.030190 0
0.967981 0.041413 0
0.965254 0.057176 0
0.967534 0.078318 0
0.984749 0.098336 0
1.007163 0.108468 0
1.025317 0.108730 0
1.035732 0.102960 0
1.038731 0.094612 0
1.035895 0.085716 0
1.028851 0.077211 0
1.018912 0.069447 0
1.007069 0.062506 0
0.994050 0.056359 0
0.980383 0.050936 0
0.966451 0.046159 0
0.952529 0.041949 0
0.938808 0.038237 0
0.925418 0.034957 0
0.912445 0.032054 0
0.899940 0.029479 0
0.887932 0.027190 0
0.876432 0.025149 0
0.865437 0.023326 0
0.854937 0.021693 0
0.844916 0.020226 0
0.835356 0.018906 0
0.826235 0.017714 0
0.817530 0.016637 0
0.809218 0.015659 0
0.801277 0.014771 0
0.793685 0.013961 0
0.786422 0.013221 0
0.779466 0.012544 0
0.772800 0.011923 0
0.766406 0.011352 0
0.760267 0.010826 0
0.754367 0.010340 0
0.748692 0.009891 0
0.743229 0.009474 0
0.737965 0.009087 0
0.732888 0.008726 0
0.727988 0.008390 0
0.723255 0.008075 0
0.718679 0.007781 0
0.714252 0.007505 0
0.709966 0.007246 0
0.705814 0.007002 0
0.701788 0.006772 0
0.697882 0.006555 0
0.694090 0.006349 0
0.690408 0.006155 0
0.686828 0.005970 0
0.683348 0.005795 0
0.679962 0.005628 0
0.676666 0.005469 0
0.673456 0.005318 0
0.670329 0.005173 0
0.667281 0.005034 0
0.664309 0.004901 0
0.661411 0.004773 0
0.658583 0.004650 0
0.655823 0.004532 0
0.653129 0.004418 0
0.650498 0.004307 0
0.647929 0.004200 0
0.645420 0.004097 0
0.642968 0.003995 0
0.640573 0.003897 0
0.638234 0.003800 0
0.635948 0.003705 0
0.633716 0.003612 0
0.631536 0.003520 0
0.629408 0.003428 0
0.627331 0.003336 0
0.625305 0.003244 0
0.623330 0.003152 0
0.621407 0.003058 0
0.619536 0.002962 0
0.617718 0.002864 0
0.615953 0.002762 0
0.614245 0.002656 0
0.612594 0.002546 0
0.611003 0.002429 0
0.609475 0.002305 0
0.608014 0.002172 0
0.606624 0.002029 0
0.605310 0.001873 0
0.604078 0.001704 0
0.602935 0.001519 0
0.601889 0.001314 0
0.600949 0.001086 0
0.600127 0.000832 0
0.599434 0.000547 0
0.598886 0.000225 0
0.598490 -0.000143 0
0.598283 -0.000557 0
0.598284 -0.001023 0
0.598520 -0.001550 0
0.599020 -0.002148 0
0.599819 -0.002831 0
0.600957 -0.003611 0
0.602478 -0.004506 0
0.604437 -0.005534 0
0.606893 -0.006719 0
0.609918 -0.008089 0
0.613594 -0.009678 0
0.618017 -0.011529 0
0.623299 -0.013693 0
0.629569 -0.016236 0
0.636981 -0.019239 0
0.645715 -0.022808 0
0.655981 -0.027077 0
0.668028 -0.032226 0
0.682152 -0.038489 0
0.698697 -0.046187 0