# vtk DataFile Version 2.0
generated by CFD-lab course output (written by Tobias Neckel) 
ASCII

DATASET STRUCTURED_GRID
DIMENSIONS  142 42 1 
POINTS 5964 float

0.000000 0.250000 0
0.024648 0.250000 0
0.049296 0.250000 0
0.073944 0.250000 0
0.098592 0.250000 0
0.123239 0.250000 0
0.147887 0.250000 0
0.172535 0.250000 0
0.197183 0.250000 0
0.221831 0.250000 0
0.246479 0.250000 0
0.271127 0.250000 0
0.295775 0.250000 0
0.320423 0.250000 0
0.345070 0.250000 0
0.369718 0.250000 0
0.394366 0.250000 0
0.419014 0.250000 0
0.443662 0.250000 0
0.468310 0.250000 0
0.492958 0.250000 0
0.517606 0.250000 0
0.542254 0.250000 0
0.566901 0.250000 0
0.591549 0.250000 0
0.616197 0.250000 0
0.640845 0.250000 0
0.665493 0.250000 0
0.690141 0.250000 0
0.714789 0.250000 0
0.739437 0.250000 0
0.764085 0.250000 0
0.788732 0.250000 0
0.813380 0.250000 0
0.838028 0.250000 0
0.862676 0.250000 0
0.887324 0.250000 0
0.911972 0.250000 0
0.936620 0.250000 0
0.961268 0.250000 0
0.985915 0.250000 0
1.010563 0.250000 0
1.035211 0.250000 0
1.059859 0.250000 0
1.084507 0.250000 0
1.109155 0.250000 0
1.133803 0.250000 0
1.158451 0.250000 0
1.183099 0.250000 0
1.207746 0.250000 0
1.232394 0.250000 0
1.257042 0.250000 0
1.281690 0.250000 0
1.306338 0.250000 0
1.330986 0.250000 0
1.355634 0.250000 0
1.380282 0.250000 0
1.404930 0.250000 0
1.429577 0.250000 0
1.454225 0.250000 0
1.478873 0.250000 0
1.503521 0.250000 0
1.528169 0.250000 0
1.552817 0.250000 0
1.577465 0.250000 0
1.602113 0.250000 0
1.626761 0.250000 0
1.651408 0.250000 0
1.676056 0.250000 0
1.700704 0.250000 0
1.725352 0.250000 0
1.750000 0.250000 0
1.774648 0.250000 0
1.799296 0.250000 0
1.823944 0.250000 0
1.848592 0.250000 0
1.873239 0.250000 0
1.897887 0.250000 0
1.922535 0.250000 0
1.947183 0.250000 0
1.971831 0.250000 0
1.996479 0.250000 0
2.021127 0.250000 0
2.045775 0.250000 0
2.070423 0.250000 0
2.095070 0.250000 0
2.119718 0.250000 0
2.144366 0.250000 0
2.169014 0.250000 0
2.193662 0.250000 0
2.218310 0.250000 0
2.242958 0.250000 0
2.267606 0.250000 0
2.292254 0.250000 0
2.316901 0.250000 0
2.341549 0.250000 0
2.366197 0.250000 0
2.390845 0.250000 0
2.415493 0.250000 0
2.440141 0.250000 0
2.464789 0.250000 0
2.489437 0.250000 0
2.514085 0.250000 0
2.538732 0.250000 0
2.563380 0.250000 0
2.588028 0.250000 0
2.612676 0.250000 0
2.637324 0.250000 0
2.661972 0.250000 0
2.686620 0.250000 0
2.711268 0.250000 0
2.735915 0.250000 0
2.760563 0.250000 0
2.785211 0.250000 0
2.809859 0.250000 0
2.834507 0.250000 0
2.859155 0.250000 0
2.883803 0.250000 0
2.908451 0.250000 0
2.933099 0.250000 0
2.957746 0.250000 0
2.982394 0.250000 0
3.007042 0.250000 0
3.031690 0.250000 0
3.056338 0.250000 0
3.080986 0.250000 0
3.105634 0.250000 0
3.130282 0.250000 0
3.154930 0.250000 0
3.179577 0.250000 0
3.204225 0.250000 0
3.228873 0.250000 0
3.253521 0.250000 0
3.278169 0.250000 0
3.302817 0.250000 0
3.327465 0.250000 0
3.352113 0.250000 0
3.376761 0.250000 0
3.401408 0.250000 0
3.426056 0.250000 0
3.450704 0.250000 0
3.475352 0.250000 0
0.000000 0.261905 0
0.024648 0.261905 0
0.049296 0.261905 0
0.073944 0.261905 0
0.098592 0.261905 0
0.123239 0.261905 0
0.147887 0.261905 0
0.172535 0.261905 0
0.197183 0.261905 0
0.221831 0.261905 0
0.246479 0.261905 0
0.271127 0.261905 0
0.295775 0.261905 0
0.320423 0.261905 0
0.345070 0.261905 0
0.369718 0.261905 0
0.394366 0.261905 0
0.419014 0.261905 0
0.443662 0.261905 0
0.468310 0.261905 0
0.492958 0.261905 0
0.517606 0.261905 0
0.542254 0.261905 0
0.566901 0.261905 0
0.591549 0.261905 0
0.616197 0.261905 0
0.640845 0.261905 0
0.665493 0.261905 0
0.690141 0.261905 0
0.714789 0.261905 0
0.739437 0.261905 0
0.764085 0.261905 0
0.788732 0.261905 0
0.813380 0.261905 0
0.838028 0.261905 0
0.862676 0.261905 0
0.887324 0.261905 0
0.911972 0.261905 0
0.936620 0.261905 0
0.961268 0.261905 0
0.985915 0.261905 0
1.010563 0.261905 0
1.035211 0.261905 0
1.059859 0.261905 0
1.084507 0.261905 0
1.109155 0.261905 0
1.133803 0.261905 0
1.158451 0.261905 0
1.183099 0.261905 0
1.207746 0.261905 0
1.232394 0.261905 0
1.257042 0.261905 0
1.281690 0.261905 0
1.306338 0.261905 0
1.330986 0.261905 0
1.355634 0.261905 0
1.380282 0.261905 0
1.404930 0.261905 0
1.429577 0.261905 0
1.454225 0.261905 0
1.478873 0.261905 0
1.503521 0.261905 0
1.528169 0.261905 0
1.552817 0.261905 0
1.577465 0.261905 0
1.602113 0.261905 0
1.626761 0.261905 0
1.651408 0.261905 0
1.676056 0.261905 0
1.700704 0.261905 0
1.725352 0.261905 0
1.750000 0.261905 0
1.774648 0.261905 0
1.799296 0.261905 0
1.823944 0.261905 0
1.848592 0.261905 0
1.873239 0.261905 0
1.897887 0.261905 0
1.922535 0.261905 0
1.947183 0.261905 0
1.971831 0.261905 0
1.996479 0.261905 0
2.021127 0.261905 0
2.045775 0.261905 0
2.070423 0.261905 0
2.095070 0.261905 0
2.119718 0.261905 0
2.144366 0.261905 0
2.169014 0.261905 0
2.193662 0.261905 0
2.218310 0.261905 0
2.242958 0.261905 0
2.267606 0.261905 0
2.292254 0.261905 0
2.316901 0.261905 0
2.341549 0.261905 0
2.366197 0.261905 0
2.390845 0.261905 0
2.415493 0.261905 0
2.440141 0.261905 0
2.464789 0.261905 0
2.489437 0.261905 0
2.514085 0.261905 0
2.538732 0.261905 0
2.563380 0.261905 0
2.588028 0.261905 0
2.612676 0.261905 0
2.637324 0.261905 0
2.661972 0.261905 0
2.686620 0.261905 0
2.711268 0.261905 0
2.735915 0.261905 0
2.760563 0.261905 0
2.785211 0.261905 0
2.809859 0.261905 0
2.834507 0.261905 0
2.859155 0.261905 0
2.883803 0.261905 0
2.908451 0.261905 0
2.933099 0.261905 0
2.957746 0.261905 0
2.982394 0.261905 0
3.007042 0.261905 0
3.031690 0.261905 0
3.056338 0.261905 0
3.080986 0.261905 0
3.105634 0.261905 0
3.130282 0.261905 0
3.154930 0.261905 0
3.179577 0.261905 0
3.204225 0.261905 0
3.228873 0.261905 0
3.253521 0.261905 0
3.278169 0.261905 0
3.302817 0.261905 0
3.327465 0.261905 0
3.352113 0.261905 0
3.376761 0.261905 0
3.401408 0.261905 0
3.426056 0.261905 0
3.450704 0.261905 0
3.475352 0.261905 0
0.000000 0.273810 0
0.024648 0.273810 0
0.049296 0.273810 0
0.073944 0.273810 0
0.098592 0.273810 0
0.123239 0.273810 0
0.147887 0.273810 0
0.172535 0.273810 0
0.197183 0.273810 0
0.221831 0.273810 0
0.246479 0.273810 0
0.271127 0.273810 0
0.295775 0.273810 0
0.320423 0.273810 0
0.345070 0.273810 0
0.369718 0.273810 0
0.394366 0.273810 0
0.419014 0.273810 0
0.443662 0.273810 0
0.468310 0.273810 0
0.492958 0.273810 0
0.517606 0.273810 0
0.542254 0.273810 0
0.566901 0.273810 0
0.591549 0.273810 0
0.616197 0.273810 0
0.640845 0.273810 0
0.665493 0.273810 0
0.690141 0.273810 0
0.714789 0.273810 0
0.739437 0.273810 0
0.764085 0.273810 0
0.788732 0.273810 0
0.813380 0.273810 0
0.838028 0.273810 0
0.862676 0.273810 0
0.887324 0.273810 0
0.911972 0.273810 0
0.936620 0.273810 0
0.961268 0.273810 0
0.985915 0.273810 0
1.010563 0.273810 0
1.035211 0.273810 0
1.059859 0.273810 0
1.084507 0.273810 0
1.109155 0.273810 0
1.133803 0.273810 0
1.158451 0.273810 0
1.183099 0.273810 0
1.207746 0.273810 0
1.232394 0.273810 0
1.257042 0.273810 0
1.281690 0.273810 0
1.306338 0.273810 0
1.330986 0.273810 0
1.355634 0.273810 0
1.380282 0.273810 0
1.404930 0.273810 0
1.429577 0.273810 0
1.454225 0.273810 0
1.478873 0.273810 0
1.503521 0.273810 0
1.528169 0.273810 0
1.552817 0.273810 0
1.577465 0.273810 0
1.602113 0.273810 0
1.626761 0.273810 0
1.651408 0.273810 0
1.676056 0.273810 0
1.700704 0.273810 0
1.725352 0.273810 0
1.750000 0.273810 0
1.774648 0.273810 0
1.799296 0.273810 0
1.823944 0.273810 0
1.848592 0.273810 0
1.873239 0.273810 0
1.897887 0.273810 0
1.922535 0.273810 0
1.947183 0.273810 0
1.971831 0.273810 0
1.996479 0.273810 0
2.021127 0.273810 0
2.045775 0.273810 0
2.070423 0.273810 0
2.095070 0.273810 0
2.119718 0.273810 0
2.144366 0.273810 0
2.169014 0.273810 0
2.193662 0.273810 0
2.218310 0.273810 0
2.242958 0.273810 0
2.267606 0.273810 0
2.292254 0.273810 0
2.316901 0.273810 0
2.341549 0.273810 0
2.366197 0.273810 0
2.390845 0.273810 0
2.415493 0.273810 0
2.440141 0.273810 0
2.464789 0.273810 0
2.489437 0.273810 0
2.514085 0.273810 0
2.538732 0.273810 0
2.563380 0.273810 0
2.588028 0.273810 0
2.612676 0.273810 0
2.637324 0.273810 0
2.661972 0.273810 0
2.686620 0.273810 0
2.711268 0.273810 0
2.735915 0.273810 0
2.760563 0.273810 0
2.785211 0.273810 0
2.809859 0.273810 0
2.834507 0.273810 0
2.859155 0.273810 0
2.883803 0.273810 0
2.908451 0.273810 0
2.933099 0.273810 0
2.957746 0.273810 0
2.982394 0.273810 0
3.007042 0.273810 0
3.031690 0.273810 0
3.056338 0.273810 0
3.080986 0.273810 0
3.105634 0.273810 0
3.130282 0.273810 0
3.154930 0.273810 0
3.179577 0.273810 0
3.204225 0.273810 0
3.228873 0.273810 0
3.253521 0.273810 0
3.278169 0.273810 0
3.302817 0.273810 0
3.327465 0.273810 0
3.352113 0.273810 0
3.376761 0.273810 0
3.401408 0.273810 0
3.426056 0.273810 0
3.450704 0.273810 0
3.475352 0.273810 0
0.000000 0.285714 0
0.024648 0.285714 0
0.049296 0.285714 0
0.073944 0.285714 0
0.098592 0.285714 0
0.123239 0.285714 0
0.147887 0.285714 0
0.172535 0.285714 0
0.197183 0.285714 0
0.221831 0.285714 0
0.246479 0.285714 0
0.271127 0.285714 0
0.295775 0.285714 0
0.320423 0.285714 0
0.345070 0.285714 0
0.369718 0.285714 0
0.394366 0.285714 0
0.419014 0.285714 0
0.443662 0.285714 0
0.468310 0.285714 0
0.492958 0.285714 0
0.517606 0.285714 0
0.542254 0.285714 0
0.566901 0.285714 0
0.591549 0.285714 0
0.616197 0.285714 0
0.640845 0.285714 0
0.665493 0.285714 0
0.690141 0.285714 0
0.714789 0.285714 0
0.739437 0.285714 0
0.764085 0.285714 0
0.788732 0.285714 0
0.813380 0.285714 0
0.838028 0.285714 0
0.862676 0.285714 0
0.887324 0.285714 0
0.911972 0.285714 0
0.936620 0.285714 0
0.961268 0.285714 0
0.985915 0.285714 0
1.010563 0.285714 0
1.035211 0.285714 0
1.059859 0.285714 0
1.084507 0.285714 0
1.109155 0.285714 0
1.133803 0.285714 0
1.158451 0.285714 0
1.183099 0.285714 0
1.207746 0.285714 0
1.232394 0.285714 0
1.257042 0.285714 0
1.281690 0.285714 0
1.306338 0.285714 0
1.330986 0.285714 0
1.355634 0.285714 0
1.380282 0.285714 0
1.404930 0.285714 0
1.429577 0.285714 0
1.454225 0.285714 0
1.478873 0.285714 0
1.503521 0.285714 0
1.528169 0.285714 0
1.552817 0.285714 0
1.577465 0.285714 0
[...]
POINT_DATA 5964 

VECTORS velocity float
1.000000 0.000000 0
0.999854 0.000000 0
0.999556 0.000000 0
0.999097 0.000000 0
0.998458 0.000000 0
0.997615 0.000000 0
0.996532 0.000000 0
0.995162 0.000000 0
0.993440 0.000000 0
0.991275 0.000000 0
0.988543 0.000000 0
0.985062 0.000000 0
0.980561 0.000000 0
0.974614 0.000000 0
0.966517 0.000000 0
0.954933 0.000000 0
0.937383 0.000000 0
0.905760 0.000000 0
0.847693 0.000000 0
-0.000000 0.000000 0
-0.000000 0.000000 0
0.000000 0.000000 0
0.000000 0.000000 0
0.000000 0.000000 0
-0.000000 0.000000 0
-0.000000 0.000000 0
0.000000 0.000000 0
0.000000 0.000000 0
0.000000 0.000000 0
-0.000000 0.000000 0
-0.000000 0.000000 0
0.000000 0.000000 0
0.000000 0.000000 0
0.000000 0.000000 0
-0.000000 0.000000 0
-0.000000 0.000000 0
0.000000 0.000000 0
0.000000 0.000000 0
0.000000 0.000000 0
-0.000000 0.000000 0
-0.000000 0.000000 0
-0.000000 0.000000 0
0.000000 0.000000 0
0.000000 0.000000 0
0.000000 0.000000 0
-0.000000 0.000000 0
-0.000000 0.000000 0
-0.000000 0.000000 0
0.000000 0.000000 0
0.000000 0.000000 0
-0.000000 0.000000 0
-0.000000 0.000000 0
-0.000000 0.000000 0
0.000000 0.000000 0
0.000000 0.000000 0
0.000000 0.000000 0
-0.000000 0.000000 0
-0.000000 0.000000 0
-0.000000 0.000000 0
0.000000 0.000000 0
0.000000 0.000000 0
-0.000000 0.000000 0
-0.000000 0.000000 0
-0.000000 0.000000 0
-0.000000 0.000000 0
0.000000 0.000000 0
0.000000 0.000000 0
-0.000000 0.000000 0
-0.000000 0.000000 0
-0.000000 0.000000 0
-0.000000 0.000000 0
-0.000000 0.000000 0
-0.000000 0.000000 0
-0.000000 0.000000 0
-0.000000 0.000000 0
-0.000000 0.000000 0
-0.000000 0.000000 0
-0.000000 0.000000 0
-0.000000 0.000000 0
-0.000000 0.000000 0
-0.000000 0.000000 0
-0.000000 0.000000 0
-0.000000 0.000000 0
-0.000000 0.000000 0
-0.000000 0.000000 0
-0.000000 0.000000 0
-0.000000 0.000000 0
-0.000000 0.000000 0
-0.000000 0.000000 0
-0.000000 0.000000 0
-0.000000 0.000000 0
-0.000000 0.000000 0
-0.000000 0.000000 0
-0.000000 0.000000 0
-0.000000 0.000000 0
-0.000000 0.000000 0
-0.000000 0.000000 0
-0.000000 0.000000 0
-0.000000 0.000000 0
-0.000000 0.000000 0
-0.000000 0.000000 0
-0.000000 0.000000 0
-0.000000 0.000000 0
-0.000000 0.000000 0
-0.000000 0.000000 0
-0.000000 0.000000 0
-0.000000 0.000000 0
-0.000000 0.000000 0
-0.000000 0.000000 0
-0.000000 0.000000 0
-0.000000 0.000000 0
-0.000000 0.000000 0
-0.000000 0.000000 0
-0.000000 0.000000 0
-0.000000 0.000000 0
-0.000000 0.000000 0
-0.000000 0.000000 0
-0.000000 0.000000 0
-0.000000 0.000000 0
-0.000000 0.000000 0
-0.000000 0.000000 0
-0.000000 0.000000 0
-0.000000 0.000000 0
-0.000000 0.000000 0
-0.000000 0.000000 0
-0.000000 0.000000 0
-0.000000 0.000000 0
-0.000000 0.000000 0
-0.000000 0.000000 0
-0.000000 0.000000 0
-0.000000 0.000000 0
-0.000000 0.000000 0
-0.000000 0.000000 0
-0.000000 0.000000 0
-0.000000 0.000000 0
-0.000000 0.000000 0
-0.000000 0.000000 0
-0.000000 0.000000 0
-0.000000 0.000000 0
0.000000 0.000000 0
-0.000000 0.000000 0
0.496413 0.000000 0
1.000000 0.000035 0
0.999854 0.000107 0
0.999558 0.000183 0
0.999101 0.000265 0
0.998465 0.000358 0
0.997626 0.000465 0
0.996549 0.000592 0
0.995186 0.000747 0
0.993474 0.000939 0
0.991325 0.001182 0
0.988614 0.001500 0
0.985165 0.001928 0
0.980713 0.002523 0
0.974850 0.003392 0
0.966903 0.004753 0
0.955641 0.007036 0
0.938825 0.011875 0
0.910180 0.021660 0
0.860874 0.078853 0
0.714886 0.110956 0
0.576504 0.072745 0
0.473017 0.041074 0
0.401066 0.022638 0
0.351163 0.013309 0
0.315499 0.008679 0
0.288994 0.006202 0
0.268554 0.004718 0
0.252294 0.003739 0
0.239027 0.003050 0
0.227980 0.002542 0
0.218624 0.002156 0
0.210590 0.001855 0
0.203608 0.001615 0
0.197480 0.001420 0
0.192052 0.001260 0
0.187208 0.001127 0
0.182854 0.001015 0
0.178917 0.000919 0
0.175337 0.000838 0
0.172064 0.000767 0
0.169059 0.000706 0
0.166287 0.000652 0
0.163720 0.000605 0
0.161335 0.000564 0
0.159110 0.000526 0
0.157028 0.000493 0
0.155075 0.000464 0
0.153237 0.000437 0
0.151504 0.000413 0
0.149864 0.000391 0
0.148310 0.000372 0
0.146834 0.000353 0
0.145429 0.000337 0
0.144090 0.000322 0
0.142810 0.000308 0
0.141587 0.000295 0
0.140414 0.000283 0
0.139289 0.000272 0
0.138208 0.000261 0
0.137169 0.000252 0
0.136168 0.000242 0
0.135203 0.000234 0
0.134271 0.000226 0
0.133372 0.000218 0
0.132502 0.000211 0
0.131660 0.000205 0
0.130845 0.000198 0
0.130055 0.000192 0
0.129290 0.000187 0
0.128547 0.000181 0
0.127825 0.000176 0
0.127124 0.000171 0
0.126443 0.000166 0
0.125781 0.000162 0
0.125137 0.000157 0
0.124510 0.000153 0
0.123900 0.000149 0
0.123306 0.000145 0
0.122727 0.000141 0
0.122163 0.000138 0
0.121615 0.000134 0
0.121080 0.000131 0
0.120559 0.000127 0
0.120052 0.000124 0
0.119558 0.000121 0
0.119077 0.000117 0
0.118609 0.000114 0
0.118154 0.000111 0
0.117712 0.000108 0
0.117282 0.000104 0
0.116866 0.000101 0
0.116463 0.000097 0
0.116074 0.000094 0
0.115698 0.000090 0
0.115337 0.000086 0
0.114990 0.000082 0
0.114660 0.000078 0
0.114346 0.000074 0
0.114049 0.000069 0
0.113772 0.000064 0
0.113515 0.000058 0
0.113280 0.000052 0
0.113070 0.000045 0
0.112886 0.000037 0
0.112731 0.000029 0
0.112610 0.000019 0
0.112525 0.000008 0
0.112481 -0.000004 0
0.112485 -0.000018 0
0.112544 -0.000033 0
0.112663 -0.000050 0
0.112848 -0.000070 0
0.113109 -0.000092 0
0.113456 -0.000117 0
0.113901 -0.000147 0
0.114461 -0.000181 0
0.115151 -0.000220 0
0.115993 -0.000265 0
0.117010 -0.000318 0
0.118231 -0.000380 0
0.119689 -0.000453 0
0.121425 -0.000538 0
0.123489 -0.000640 0
0.125942 -0.000762 0
0.128858 -0.000908 0
0.132329 -0.001086 0
0.136474 -0.001305 0
0.141442 -0.001577 0
0.147428 -0.001919 0
0.154689 -0.002357 0
0.163572 -0.002928 0
0.174555 -0.003692 0
0.188316 -0.004741 0
0.205846 -0.006232 0
0.228654 -0.008450 0
0.259146 -0.011951 0
0.301435 -0.017898 0
0.362850 -0.029686 0
0.460031 -0.052066 0
0.617971 -0.166962 0
0.993134 -0.267485 0
0.993134 -0.133743 0
1.000000 0.000070 0
0.999856 0.000213 0
0.999564 0.000364 0
0.999113 0.000528 0
0.998486 0.000712 0
0.997659 0.000926 0
0.996599 0.001178 0
0.995259 0.001485 0
0.993579 0.001865 0
0.991473 0.002348 0
0.988825 0.002975 0
0.985469 0.003816 0
0.981163 0.004982 0
0.975541 0.006670 0
0.968025 0.009278 0
0.957649 0.013561 0
0.942785 0.021957 0
0.920694 0.037650 0
0.888370 0.094326 0
0.890999 0.137349 0
0.842149 0.116821 0
0.771618 0.084735 0
0.701222 0.058855 0
0.639920 0.041328 0
0.589257 0.030027 0
0.547923 0.022674 0
0.514040 0.017726 0
0.485953 0.014261 0
0.462370 0.011743 0
0.442322 0.009855 0
0.425083 0.008399 0
0.410105 0.007253 0
0.396971 0.006332 0
0.385359 0.005582 0
0.375016 0.004961 0
0.365741 0.004443 0
0.357374 0.004004 0
0.349783 0.003631 0
0.342863 0.003310 0
0.336524 0.003032 0
0.330692 0.002790 0
0.325306 0.002579 0
0.320313 0.002392 0
0.315668 0.002227 0
0.311334 0.002080 0
0.307276 0.001949 0
0.303468 0.001831 0
0.299883 0.001725 0
0.296501 0.001629 0
0.293303 0.001543 0
0.290271 0.001464 0
0.287392 0.001391 0
0.284653 0.001325 0
0.282041 0.001265 0
0.279548 0.001209 0
0.277163 0.001157 0
0.274878 0.001110 0
0.272687 0.001065 0
0.270583 0.001024 0
0.268559 0.000986 0
0.266611 0.000950 0
0.264733 0.000916 0
0.262921 0.000884 0
0.261172 0.000855 0
0.259481 0.000827 0
0.257845 0.000800 0
0.256261 0.000775 0
0.254727 0.000751 0
0.253239 0.000729 0
0.251795 0.000707 0
0.250394 0.000687 0
0.249033 0.000667 0
0.247711 0.000649 0
0.246425 0.000631 0
0.245175 0.000614 0
0.243958 0.000597 0
0.242773 0.000582 0
0.241620 0.000566 0
0.240497 0.000552 0
0.239403 0.000537 0
0.238337 0.000523 0
0.237298 0.000510 0
0.236286 0.000497 0
0.235300 0.000484 0
0.234340 0.000471 0
0.233405 0.000458 0
0.232494 0.000446 0
0.231608 0.000433 0
0.230746 0.000421 0
0.229909 0.000408 0
0.229096 0.000396 0
0.228308 0.000383 0
0.227546 0.000370 0
0.226809 0.000356 0
0.226098 0.000342 0
0.225415 0.000327 0
0.224761 0.000311 0
0.224138 0.000295 0
0.223546 0.000277 0
0.222988 0.000258 0
0.222467 0.000237 0
0.221986 0.000215 0
0.221548 0.000191 0
0.221157 0.000163 0
0.220818 0.000133 0
0.220536 0.000100 0
0.220319 0.000062 0
0.220173 0.000019 0
0.220109 -0.000031 0
0.220141 -0.000086 0
0.220278 -0.000147 0
0.220532 -0.000215 0
0.220918 -0.000293 0
0.221454 -0.000383 0
0.222161 -0.000486 0
0.223064 -0.000604 0
0.224191 -0.000740 0
0.225577 -0.000898 0
0.227262 -0.001081 0
0.229292 -0.001294 0
0.231724 -0.001543 0
0.234624 -0.001836 0
0.238073 -0.002182 0
0.242168 -0.002593 0
0.247027 -0.003085 0
0.252797 -0.003679 0
0.259660 -0.004401 0
0.267846 -0.005291 0
0.277647 -0.006398 0
0.289442 -0.007798 0
0.303732 -0.009595 0
0.321185 -0.011951 0
0.342720 -0.015113 0
0.369628 -0.019483 0
0.403773 -0.025743 0
0.447931 -0.035153 0
0.506412 -0.050088 0
0.585855 -0.076601 0
0.697518 -0.123222 0
0.855407 -0.257485 0
0.993831 -0.362402 0
0.993831 -0.181201 0
1.000000 0.000105 0
0.999859 0.000318 0
0.999574 0.000542 0
0.999133 0.000786 0
0.998521 0.001060 0
0.997714 0.001377 0
0.996681 0.001752 0
0.995379 0.002205 0
0.993750 0.002767 0
0.991715 0.003479 0
0.989168 0.004400 0
0.985962 0.005628 0
0.981887 0.007318 0
0.976642 0.009737 0
0.969782 0.013395 0
0.960673 0.019226 0
0.948431 0.029724 0
0.933028 0.047942 0
0.915086 0.093196 0
0.945330 0.133281 0
0.948626 0.130405 0
0.922939 0.109141 0
0.881981 0.086247 0
0.836589 0.067387 0
0.792539 0.053113 0
0.752206 0.042531 0
0.716223 0.034649 0
0.684455 0.028696 0
0.656485 0.024123 0
0.631828 0.020552 0
0.610017 0.017717 0
0.590640 0.015433 0
0.573343 0.013567 0
0.557826 0.012025 0
0.543839 0.010736 0
0.531172 0.009648 0
0.519650 0.008722 0
0.509125 0.007928 0
0.499472 0.007242 0
0.490585 0.006646 0
0.482375 0.006124 0
0.474764 0.005665 0
0.467686 0.005260 0
0.461084 0.004900 0
0.454909 0.004580 0
0.449117 0.004293 0
0.443671 0.004035 0
0.438538 0.003802 0
0.433689 0.003592 0
0.429098 0.003400 0
0.424743 0.003226 0
0.420604 0.003067 0
0.416662 0.002921 0
0.412903 0.002787 0
0.409312 0.002664 0
0.405876 0.002550 0
0.402584 0.002444 0
0.399425 0.002346 0
0.396391 0.002255 0
0.393473 0.002170 0
0.390663 0.002090 0
0.387954 0.002016 0
0.385340 0.001946 0
0.382816 0.001880 0
0.380376 0.001818 0
0.378015 0.001760 0
0.375729 0.001704 0
0.373514 0.001652 0
0.371367 0.001602 0
0.369284 0.001555 0
0.367261 0.001510 0
0.365296 0.001467 0
0.363387 0.001426 0
0.361530 0.001387 0
0.359724 0.001349 0
0.357966 0.001313 0
0.356255 0.001278 0
0.354588 0.001245 0
0.352965 0.001212 0
0.351384 0.001181 0
0.349842 0.001151 0
0.348340 0.001121 0
0.346876 0.001092 0
0.345449 0.001064 0
0.344059 0.001036 0
0.342704 0.001009 0
0.341384 0.000982 0
0.340099 0.000955 0
0.338848 0.000928 0
0.337631 0.000901 0
0.336449 0.000874 0
0.335302 0.000846 0
0.334189 0.000818 0
0.333112 0.000789 0
0.332072 0.000759 0
0.331069 0.000728 0
0.330106 0.000695 0
0.329184 0.000661 0
0.328305 0.000624 0
0.327473 0.000584 0
0.326689 0.000542 0
0.325959 0.000496 0
0.325285 0.000445 0
0.324674 0.000390 0
0.324132 0.000328 0
0.323665 0.000260 0
0.323281 0.000184 0
0.322991 0.000097 0
0.322804 -0.000002 0
0.322738 -0.000115 0
0.322810 -0.000239 0
0.323034 -0.000379 0
0.323430 -0.000537 0
0.324019 -0.000718 0
0.324828 -0.000924 0
0.325887 -0.001161 0
0.327232 -0.001434 0
0.328906 -0.001748 0
0.330957 -0.002113 0
0.333443 -0.002535 0
0.336433 -0.003028 0
0.340006 -0.003605 0
0.344259 -0.004284 0
0.349308 -0.005086 0
0.355292 -0.006042 0
0.362381 -0.007188 0
0.370782 -0.008573 0
0.380754 -0.010264 0
0.392621 -0.012350 0
0.406791 -0.014956 0
0.423790 -0.018260 0
0.444303 -0.022523 0
0.469233 -0.028138 0
0.499794 -0.035720 0
0.537640 -0.046270 0
0.585039 -0.061525 0
0.645102 -0.084514 0
0.721748 -0.121989 0
0.818523 -0.182258 0
0.934715 -0.310079 0
0.994602 -0.401201 0
0.994602 -0.200600 0
1.000000 0.000138 0
0.999864 0.000419 0
0.999587 0.000715 0
0.999160 0.001037 0
0.998568 0.001398 0
0.997789 0.001814 0
0.996794 0.002306 0
0.995543 0.002901 0
0.993983 0.003635 0
0.992045 0.004560 0
0.989634 0.005754 0
0.986627 0.007333 0
0.982854 0.009484 0
0.978089 0.012517 0
0.972036 0.016991 0
0.964382 0.023874 0
0.954906 0.035310 0
0.945019 0.053755 0
0.937268 0.088384 0
0.965707 0.121150 0
0.987884 0.127636 0
0.990071 0.116924 0
0.975766 0.100561 0
0.951736 0.084528 0
0.923218 0.070783 0
0.893429 0.059534 0
0.864150 0.050450 0
0.836292 0.043114 0
0.810267 0.037162 0
0.786201 0.032298 0
0.764073 0.028292 0
0.743777 0.024966 0
0.725177 0.022181 0
0.708120 0.019832 0
0.692457 0.017835 0
0.678050 0.016126 0
0.664768 0.014653 0
0.652496 0.013377 0
0.641128 0.012265 0
0.630573 0.011290 0
0.620748 0.010432 0
0.611581 0.009673 0
0.603007 0.008999 0
0.594969 0.008398 0
0.587417 0.007860 0
0.580306 0.007377 0
0.573597 0.006941 0
0.567253 0.006547 0
0.561244 0.006189 0
0.555541 0.005863 0
0.550120 0.005566 0
0.544957 0.005294 0
0.540033 0.005045 0
0.535328 0.004815 0
0.530828 0.004603 0
0.526517 0.004407 0
0.522382 0.004225 0
0.518411 0.004056 0
0.514592 0.003899 0
0.510916 0.003753 0
0.507373 0.003615 0
0.503956 0.003487 0
0.500657 0.003366 0
0.497469 0.003252 0
0.494385 0.003145 0
0.491400 0.003044 0
0.488509 0.002949 0
0.485706 0.002858 0
0.482987 0.002772 0
0.480348 0.002691 0
0.477785 0.002613 0
0.475294 0.002539 0
0.472872 0.002468 0
0.470516 0.002400 0
0.468224 0.002335 0
0.465992 0.002273 0
0.463819 0.002213 0
0.461702 0.002155 0
0.459638 0.002099 0
0.457627 0.002046 0
0.455666 0.001993 0
0.453755 0.001942 0
0.451890 0.001893 0
0.450073 0.001844 0
0.448300 0.001797 0
0.446572 0.001750 0
0.444887 0.001704 0
0.443245 0.001658 0
0.441646 0.001613 0
0.440089 0.001567 0
0.438575 0.001521 0
0.437103 0.001474 0
0.435673 0.001427 0
0.434288 0.001378 0
0.432947 0.001328 0
0.431652 0.001276 0
0.430404 0.001222 0
0.429205 0.001164 0
0.428059 0.001104 0
0.426967 0.001039 0
0.425933 0.000969 0
0.424962 0.000893 0
0.424058 0.000811 0
0.423227 0.000721 0
0.422476 0.000621 0
0.421812 0.000511 0
0.421245 0.000388 0
0.420785 0.000249 0
0.420444 0.000092 0
0.420234 -0.000088 0
0.420182 -0.000290 0
0.420305 -0.000515 0
0.420624 -0.000769 0
0.421163 -0.001058 0
0.421951 -0.001388 0
0.423022 -0.001765 0
0.424414 -0.002198 0
0.426175 -0.002697 0
0.428357 -0.003272 0
0.431022 -0.003938 0
0.434245 -0.004713 0
0.438110 -0.005616 0
0.442720 -0.006675 0
0.448196 -0.007922 0
0.454682 -0.009399 0
0.462351 -0.011160 0
0.471414 -0.013276 0
0.482127 -0.015839 0
0.494803 -0.018974 0
0.509833 -0.022852 0
0.527702 -0.027713 0
0.549024 -0.033900 0
0.574578 -0.041915 0
0.605358 -0.052523 0
0.642623 -0.066916 0
0.687936 -0.087056 0
0.743077 -0.116118 0
0.809536 -0.160362 0
0.886081 -0.226083 0
0.965522 -0.342530 0
0.995330 -0.420252 0
0.995330 -0.210126 0
1.000000 0.000170 0
0.999869 0.000517 0
0.999604 0.000882 0
0.999195 0.001278 0
0.998628 0.001722 0
0.997884 0.002234 0
0.996936 0.002837 0
0.995748 0.003563 0
0.994274 0.004457 0
0.992454 0.005579 0
0.990209 0.007017 0
0.987440 0.008903 0
0.984022 0.011442 0
0.979805 0.014962 0
0.974637 0.020015 0
0.968468 0.027500 0
0.961560 0.039076 0
0.955831 0.056461 0
0.954476 0.083204 0
0.976671 0.108834 0
1.001710 0.118637 0
1.016358 0.114993 0
1.018677 0.104763 0
1.011391 0.092767 0
0.997797 0.081275 0
0.980475 0.071061 0
0.961200 0.062246 0
0.941142 0.054721 0
0.921050 0.048317 0
0.901397 0.042863 0
0.882463 0.038207 0
0.864406 0.034219 0
0.847300 0.030789 0
0.831164 0.027828 0
0.815984 0.025259 0
0.801724 0.023022 0
0.788337 0.021065 0
0.775769 0.019346 0
0.763964 0.017831 0
0.752867 0.016489 0
0.742426 0.015297 0
0.732589 0.014234 0
0.723310 0.013284 0
0.714545 0.012430 0
0.706253 0.011662 0
0.698398 0.010968 0
0.690945 0.010339 0
0.683864 0.009768 0
0.677126 0.009248 0
0.670706 0.008773 0
0.664580 0.008338 0
0.658726 0.007939 0
0.653127 0.007572 0
0.647763 0.007233 0
0.642618 0.006920 0
0.637678 0.006629 0
0.632930 0.006360 0
0.628361 0.006109 0
0.623960 0.005875 0
0.619716 0.005656 0
0.615620 0.005452 0
0.611664 0.005260 0
0.607839 0.005079 0
0.604138 0.004910 0
0.600554 0.004749 0
0.597081 0.004598 0
0.593714 0.004455 0
0.590446 0.004319 0
0.587274 0.004190 0
0.584191 0.004068 0
0.581196 0.003951 0
0.578282 0.003840 0
0.575447 0.003733 0
0.572687 0.003632 0
0.570000 0.003534 0
0.567382 0.003441 0
0.564830 0.003351 0
0.562343 0.003264 0
0.559917 0.003180 0
0.557551 0.003099 0
0.555243 0.003021 0
0.552991 0.002945 0
0.550794 0.002871 0
0.548650 0.002798 0
0.546557 0.002727 0
0.544515 0.002657 0
0.542523 0.002588 0
0.540581 0.002520 0
0.538686 0.002452 0
0.536841 0.002385 0
0.535043 0.002316 0
0.533293 0.002248 0
0.531592 0.002178 0
0.529941 0.002106 0
0.528339 0.002033 0
0.526789 0.001956 0
0.525292 0.001877 0
0.523850 0.001793 0
0.522466 0.001705 0
0.521142 0.001611 0
0.519883 0.001510 0
0.518692 0.001401 0
0.517575 0.001283 0
0.516537 0.001154 0
0.515587 0.001012 0
0.514731 0.000855 0
0.513979 0.000680 0
0.513342 0.000484 0
0.512834 0.000264 0
0.512464 0.000012 0
0.512255 -0.000274 0
0.512233 -0.000593 0
0.512420 -0.000952 0
0.512839 -0.001359 0
0.513522 -0.001822 0
0.514503 -0.002351 0
0.515822 -0.002957 0
0.517525 -0.003653 0
0.519668 -0.004454 0
0.522313 -0.005379 0
0.525534 -0.006451 0
0.529416 -0.007699 0
0.534060 -0.009155 0
0.539585 -0.010864 0
0.546130 -0.012879 0
0.553862 -0.015270 0
0.562978 -0.018125 0
0.573717 -0.021561 0
0.586362 -0.025731 0
0.601261 -0.030845 0
0.618833 -0.037189 0
0.639588 -0.045164 0
0.664147 -0.055347 0
0.693250 -0.068585 0
0.727759 -0.086154 0
0.768578 -0.110043 0
0.816410 -0.143246 0
0.871069 -0.191059 0
0.929078 -0.257598 0
0.982071 -0.362846 0
0.995992 -0.429994 0
0.995992 -0.214997 0
1.000000 0.000201 0
0.999876 0.000611 0
0.999624 0.001041 0
0.999236 0.001508 0
0.998699 0.002031 0
0.997996 0.002631 0
0.997104 0.003338 0
0.995990 0.004186 0
0.994616 0.005226 0
0.992932 0.006524 0
0.990877 0.008175 0
0.988376 0.010321 0
0.985348 0.013171 0
0.981715 0.017050 0
0.977446 0.022466 0
0.972684 0.030190 0
0.967981 0.041413 0
0.965254 0.057176 0
0.967534 0.078318 0
0.984749 0.098336 0
1.007163 0.108468 0
1.025317 0.108730 0
1.035732 0.102960 0
1.038731 0.094612 0
1.035895 0.085716 0
1.028851 0.077211 0
1.018912 0.069447 0
1.007069 0.062506 0
0.994050 0.056359 0
0.980383 0.050936 0
0.966451 0.046159 0
0.952529 0.041949 0
0.938808 0.038237 0
0.925418 0.034957 0
0.912445 0.032054 0
0.899941 0.029479 0
0.887933 0.027190 0
0.876432 0.025149 0
0.865437 0.023326 0
0.854937 0.021693 0
0.844917 0.020226 0
0.835357 0.018906 0
0.826235 0.017714 0
0.817530 0.016636 0
0.809218 0.015659 0
0.801278 0.014770 0
0.793686 0.013961 0
0.786423 0.013221 0
0.779467 0.012544 0
0.772802 0.011923 0
0.766407 0.011352 0
0.760268 0.010826 0
0.754369 0.010340 0
0.748694 0.009890 0
0.743231 0.009474 0
0.737967 0.009086 0
0.732891 0.008726 0
0.727991 0.008389 0
0.723258 0.008075 0
0.718683 0.007780 0
0.714257 0.007504 0
0.709971 0.007245 0
0.705819 0.007001 0
0.701794 0.006771 0
0.697889 0.006554 0
0.694098 0.006348 0
0.690416 0.006153 0
0.686837 0.005969 0
0.683358 0.005793 0
0.679973 0.005626 0
0.676678 0.005467 0
0.673469 0.005315 0
0.670344 0.005170 0
0.667297 0.005031 0
0.664327 0.004898 0
0.661431 0.004770 0
0.658605 0.004647 0
0.655847 0.004528 0
0.653155 0.004414 0
0.650527 0.004303 0
0.647960 0.004196 0
0.645454 0.004091 0
0.643006 0.003990 0
0.640614 0.003891 0
0.638278 0.003794 0
0.635997 0.003698 0
0.633769 0.003604 0
0.631594 0.003511 0
0.629471 0.003419 0
0.627399 0.003327 0
0.625379 0.003234 0
0.623411 0.003141 0
0.621495 0.003046 0
0.619631 0.002950 0
0.617821 0.002851 0
0.616065 0.002748 0
0.614366 0.002641 0
0.612724 0.002530 0
0.611144 0.002412 0
0.609628 0.002286 0
0.608179 0.002152 0
0.606802 0.002008 0
0.605501 0.001851 0
0.604284 0.001681 0
0.603156 0.001494 0
0.602127 0.001287 0
0.601205 0.001058 0
0.600401 0.000803 0
0.599729 0.000516 0
0.599201 0.000191 0
0.598827 -0.000178 0
0.598644 -0.000594 0
0.598671 -0.001062 0
0.598933 -0.001591 0
0.599461 -0.002191 0
0.600289 -0.002876 0
0.601457 -0.003658 0
0.603010 -0.004555 0
0.605000 -0.005585 0
0.607490 -0.006771 0
0.610549 -0.008143 0
0.614259 -0.009734 0
0.618717 -0.011586 0
0.624034 -0.013751 0
0.630339 -0.016295 0
0.637785 -0.019298 0
0.646550 -0.022865 0
0.656847 -0.027133 0
0.668922 -0.032278 0
0.683068 -0.038535 0
0.699631 -0.046225 0