# vtk DataFile Version 2.0
generated by CFD-lab course output (written by Tobias Neckel) 
ASCII

DATASET STRUCTURED_GRID
DIMENSIONS  142 42 1 
POINTS 5964 float

0.000000 0.250000 0
0.024648 0.250000 0
0.049296 0.250000 0
0.073944 0.250000 0
0.098592 0.250000 0
0.123239 0.250000 0
0.147887 0.250000 0
0.172535 0.250000 0
0.197183 0.250000 0
0.221831 0.250000 0
0.246479 0.250000 0
0.271127 0.250000 0
0.295775 0.250000 0
0.320423 0.250000 0
0.345070 0.250000 0
0.369718 0.250000 0
0.394366 0.250000 0
0.419014 0.250000 0
0.443662 0.250000 0
0.468310 0.250000 0
0.492958 0.250000 0
0.517606 0.250000 0
0.542254 0.250000 0
0.566901 0.250000 0
0.591549 0.250000 0
0.616197 0.250000 0
0.640845 0.250000 0
0.665493 0.250000 0
0.690141 0.250000 0
0.714789 0.250000 0
0.739437 0.250000 0
0.764085 0.250000 0
0.788732 0.250000 0
0.813380 0.250000 0
0.838028 0.250000 0
0.862676 0.250000 0
0.887324 0.250000 0
0.911972 0.250000 0
0.936620 0.250000 0
0.961268 0.250000 0
0.985915 0.250000 0
1.010563 0.250000 0
1.035211 0.250000 0
1.059859 0.250000 0
1.084507 0.250000 0
1.109155 0.250000 0
1.133803 0.250000 0
1.158451 0.250000 0
1.183099 0.250000 0
1.207746 0.250000 0
1.232394 0.250000 0
1.257042 0.250000 0
1.281690 0.250000 0
1.306338 0.250000 0
1.330986 0.250000 0
1.355634 0.250000 0
1.380282 0.250000 0
1.404930 0.250000 0
1.429577 0.250000 0
1.454225 0.250000 0
1.478873 0.250000 0
1.503521 0.250000 0
1.528169 0.250000 0
1.552817 0.250000 0
1.577465 0.250000 0
1.602113 0.250000 0
1.626761 0.250000 0
1.651408 0.250000 0
1.676056 0.250000 0
1.700704 0.250000 0
1.725352 0.250000 0
1.750000 0.250000 0
1.774648 0.250000 0
1.799296 0.250000 0
1.823944 0.250000 0
1.848592 0.250000 0
1.873239 0.250000 0
1.897887 0.250000 0
1.922535 0.250000 0
1.947183 0.250000 0
1.971831 0.250000 0
1.996479 0.250000 0
2.021127 0.250000 0
2.045775 0.250000 0
2.070423 0.250000 0
2.095070 0.250000 0
2.119718 0.250000 0
2.144366 0.250000 0
2.169014 0.250000 0
2.193662 0.250000 0
2.218310 0.250000 0
2.242958 0.250000 0
2.267606 0.250000 0
2.292254 0.250000 0
2.316901 0.250000 0
2.341549 0.250000 0
2.366197 0.250000 0
2.390845 0.250000 0
2.415493 0.250000 0
2.440141 0.250000 0
2.464789 0.250000 0
2.489437 0.250000 0
2.514085 0.250000 0
2.538732 0.250000 0
2.563380 0.250000 0
2.588028 0.250000 0
2.612676 0.250000 0
2.637324 0.250000 0
2.661972 0.250000 0
2.686620 0.250000 0
2.711268 0.250000 0
2.735915 0.250000 0
2.760563 0.250000 0
2.785211 0.250000 0
2.809859 0.250000 0
2.834507 0.250000 0
2.859155 0.250000 0
2.883803 0.250000 0
2.908451 0.250000 0
2.933099 0.250000 0
2.957746 0.250000 0
2.982394 0.250000 0
3.007042 0.250000 0
3.031690 0.250000 0
3.056338 0.250000 0
3.080986 0.250000 0
3.105634 0.250000 0
3.130282 0.250000 0
3.154930 0.250000 0
3.179577 0.250000 0
3.204225 0.250000 0
3.228873 0.250000 0
3.253521 0.250000 0
3.278169 0.250000 0
3.302817 0.250000 0
3.327465 0.250000 0
3.352113 0.250000 0
3.376761 0.250000 0
3.401408 0.250000 0
3.426056 0.250000 0
3.450704 0.250000 0
3.475352 0.250000 0
0.000000 0.261905 0
0.024648 0.261905 0
0.049296 0.261905 0
0.073944 0.261905 0
0.098592 0.261905 0
0.123239 0.261905 0
0.147887 0.261905 0
0.172535 0.261905 0
0.197183 0.261905 0
0.221831 0.261905 0
0.246479 0.261905 0
0.271127 0.261905 0
0.295775 0.261905 0
0.320423 0.261905 0
0.345070 0.261905 0
0.369718 0.261905 0
0.394366 0.261905 0
0.419014 0.261905 0
0.443662 0.261905 0
0.468310 0.261905 0
0.492958 0.261905 0
0.517606 0.261905 0
0.542254 0.261905 0
0.566901 0.261905 0
0.591549 0.261905 0
0.616197 0.261905 0
0.640845 0.261905 0
0.665493 0.261905 0
0.690141 0.261905 0
0.714789 0.261905 0
0.739437 0.261905 0
0.764085 0.261905 0
0.788732 0.261905 0
0.813380 0.261905 0
0.838028 0.261905 0
0.862676 0.261905 0
0.887324 0.261905 0
0.911972 0.261905 0
0.936620 0.261905 0
0.961268 0.261905 0
0.985915 0.261905 0
1.010563 0.261905 0
1.035211 0.261905 0
1.059859 0.261905 0
1.084507 0.261905 0
1.109155 0.261905 0
1.133803 0.261905 0
1.158451 0.261905 0
1.183099 0.261905 0
1.207746 0.261905 0
1.232394 0.261905 0
1.257042 0.261905 0
1.281690 0.261905 0
1.306338 0.261905 0
1.330986 0.261905 0
1.355634 0.261905 0
1.380282 0.261905 0
1.404930 0.261905 0
1.429577 0.261905 0
1.454225 0.261905 0
1.478873 0.261905 0
1.503521 0.261905 0
1.528169 0.261905 0
1.552817 0.261905 0
1.577465 0.261905 0
1.602113 0.261905 0
1.626761 0.261905 0
1.651408 0.261905 0
1.676056 0.261905 0
1.700704 0.261905 0
1.725352 0.261905 0
1.750000 0.261905 0
1.774648 0.261905 0
1.799296 0.261905 0
1.823944 0.261905 0
1.848592 0.261905 0
1.873239 0.261905 0
1.897887 0.261905 0
1.922535 0.261905 0
1.947183 0.261905 0
1.971831 0.261905 0
1.996479 0.261905 0
2.021127 0.261905 0
2.045775 0.261905 0
2.070423 0.261905 0
2.095070 0.261905 0
2.119718 0.261905 0
2.144366 0.261905 0
2.169014 0.261905 0
2.193662 0.261905 0
2.218310 0.261905 0
2.242958 0.261905 0
2.267606 0.261905 0
2.292254 0.261905 0
2.316901 0.261905 0
2.341549 0.261905 0
2.366197 0.261905 0
2.390845 0.261905 0
2.415493 0.261905 0
2.440141 0.261905 0
2.464789 0.261905 0
2.489437 0.261905 0
2.514085 0.261905 0
2.538732 0.261905 0
2.563380 0.261905 0
2.588028 0.261905 0
2.612676 0.261905 0
2.637324 0.261905 0
2.661972 0.261905 0
2.686620 0.261905 0
2.711268 0.261905 0
2.735915 0.261905 0
2.760563 0.261905 0
2.785211 0.261905 0
2.809859 0.261905 0
2.834507 0.261905 0
2.859155 0.261905 0
2.883803 0.261905 0
2.908451 0.261905 0
2.933099 0.261905 0
2.957746 0.261905 0
2.982394 0.261905 0
3.007042 0.261905 0
3.031690 0.261905 0
3.056338 0.261905 0
3.080986 0.261905 0
3.105634 0.261905 0
3.130282 0.261905 0
3.154930 0.261905 0
3.179577 0.261905 0
3.204225 0.261905 0
3.228873 0.261905 0
3.253521 0.261905 0
3.278169 0.261905 0
3.302817 0.261905 0
3.327465 0.261905 0
3.352113 0.261905 0
3.376761 0.261905 0
3.401408 0.261905 0
3.426056 0.261905 0
3.450704 0.261905 0
3.475352 0.261905 0
0.000000 0.273810 0
0.024648 0.273810 0
0.049296 0.273810 0
0.073944 0.273810 0
0.098592 0.273810 0
0.123239 0.273810 0
0.147887 0.273810 0
0.172535 0.273810 0
0.197183 0.273810 0
0.221831 0.273810 0
0.246479 0.273810 0
0.271127 0.273810 0
0.295775 0.273810 0
0.320423 0.273810 0
0.345070 0.273810 0
0.369718 0.273810 0
0.394366 0.273810 0
0.419014 0.273810 0
0.443662 0.273810 0
0.468310 0.273810 0
0.492958 0.273810 0
0.517606 0.273810 0
0.542254 0.273810 0
0.566901 0.273810 0
0.591549 0.273810 0
0.616197 0.273810 0
0.640845 0.273810 0
0.665493 0.273810 0
0.690141 0.273810 0
0.714789 0.273810 0
0.739437 0.273810 0
0.764085 0.273810 0
0.788732 0.273810 0
0.813380 0.273810 0
0.838028 0.273810 0
0.862676 0.273810 0
0.887324 0.273810 0
0.911972 0.273810 0
0.936620 0.273810 0
0.961268 0.273810 0
0.985915 0.273810 0
1.010563 0.273810 0
1.035211 0.273810 0
1.059859 0.273810 0
1.084507 0.273810 0
1.109155 0.273810 0
1.133803 0.273810 0
1.158451 0.273810 0
1.183099 0.273810 0
1.207746 0.273810 0
1.232394 0.273810 0
1.257042 0.273810 0
1.281690 0.273810 0
1.306338 0.273810 0
1.330986 0.273810 0
1.355634 0.273810 0
1.380282 0.273810 0
1.404930 0.273810 0
1.429577 0.273810 0
1.454225 0.273810 0
1.478873 0.273810 0
1.503521 0.273810 0
1.528169 0.273810 0
1.552817 0.273810 0
1.577465 0.273810 0
1.602113 0.273810 0
1.626761 0.273810 0
1.651408 0.273810 0
1.676056 0.273810 0
1.700704 0.273810 0
1.725352 0.273810 0
1.750000 0.273810 0
1.774648 0.273810 0
1.799296 0.273810 0
1.823944 0.273810 0
1.848592 0.273810 0
1.873239 0.273810 0
1.897887 0.273810 0
1.922535 0.273810 0
1.947183 0.273810 0
1.971831 0.273810 0
1.996479 0.273810 0
2.021127 0.273810 0
2.045775 0.273810 0
2.070423 0.273810 0
2.095070 0.273810 0
2.119718 0.273810 0
2.144366 0.273810 0
2.169014 0.273810 0
2.193662 0.273810 0
2.218310 0.273810 0
2.242958 0.273810 0
2.267606 0.273810 0
2.292254 0.273810 0
2.316901 0.273810 0
2.341549 0.273810 0
2.366197 0.273810 0
2.390845 0.273810 0
2.415493 0.273810 0
2.440141 0.273810 0
2.464789 0.273810 0
2.489437 0.273810 0
2.514085 0.273810 0
2.538732 0.273810 0
2.563380 0.273810 0
2.588028 0.273810 0
2.612676 0.273810 0
2.637324 0.273810 0
2.661972 0.273810 0
2.686620 0.273810 0
2.711268 0.273810 0
2.735915 0.273810 0
2.760563 0.273810 0
2.785211 0.273810 0
2.809859 0.273810 0
2.834507 0.273810 0
2.859155 0.273810 0
2.883803 0.273810 0
2.908451 0.273810 0
2.933099 0.273810 0
2.957746 0.273810 0
2.982394 0.273810 0
3.007042 0.273810 0
3.031690 0.273810 0
3.056338 0.273810 0
3.080986 0.273810 0
3.105634 0.273810 0
3.130282 0.273810 0
3.154930 0.273810 0
3.179577 0.273810 0
3.204225 0.273810 0
3.228873 0.273810 0
3.253521 0.273810 0
3.278169 0.273810 0
3.302817 0.273810 0
3.327465 0.273810 0
3.352113 0.273810 0
3.376761 0.273810 0
3.401408 0.273810 0
3.426056 0.273810 0
3.450704 0.273810 0
3.475352 0.273810 0
0.000000 0.285714 0
0.024648 0.285714 0
0.049296 0.285714 0
0.073944 0.285714 0
0.098592 0.285714 0
0.123239 0.285714 0
0.147887 0.285714 0
0.172535 0.285714 0
0.197183 0.285714 0
0.221831 0.285714 0
0.246479 0.285714 0
0.271127 0.285714 0
0.295775 0.285714 0
0.320423 0.285714 0
0.345070 0.285714 0
0.369718 0.285714 0
0.394366 0.285714 0
0.419014 0.285714 0
0.443662 0.285714 0
0.468310 0.285714 0
0.492958 0.285714 0
0.517606 0.285714 0
0.542254 0.285714 0
0.566901 0.285714 0
0.591549 0.285714 0
0.616197 0.285714 0
0.640845 0.285714 0
0.665493 0.285714 0
0.690141 0.285714 0
0.714789 0.285714 0
0.739437 0.285714 0
0.764085 0.285714 0
0.788732 0.285714 0
0.813380 0.285714 0
0.838028 0.285714 0
0.862676 0.285714 0
0.887324 0.285714 0
0.911972 0.285714 0
0.936620 0.285714 0
0.961268 0.285714 0
0.985915 0.285714 0
1.010563 0.285714 0
1.035211 0.285714 0
1.059859 0.285714 0
1.084507 0.285714 0
1.109155 0.285714 0
1.133803 0.285714 0
1.158451 0.285714 0
1.183099 0.285714 0
1.207746 0.285714 0
1.232394 0.285714 0
1.257042 0.285714 0
1.281690 0.285714 0
1.306338 0.285714 0
1.330986 0.285714 0
1.355634 0.285714 0
1.380282 0.285714 0
1.404930 0.285714 0
1.429577 0.285714 0
1.454225 0.285714 0
1.478873 0.285714 0
1.503521 0.285714 0
1.528169 0.285714 0
1.552817 0.285714 0
1.577465 0.285714 0
[...]
POINT_DATA 5964 

VECTORS velocity float
1.000000 0.000000 0
0.999854 0.000000 0
0.999556 0.000000 0
0.999097 0.000000 0
0.998458 0.000000 0
0.997615 0.000000 0
0.996532 0.000000 0
0.995162 0.000000 0
0.993440 0.000000 0
0.991275 0.000000 0
0.988543 0.000000 0
0.985062 0.000000 0
0.980561 0.000000 0
0.974615 0.000000 0
0.966517 0.000000 0
0.954934 0.000000 0
0.937384 0.000000 0
0.905760 0.000000 0
0.847694 0.000000 0
-0.000000 0.000000 0
-0.000000 0.000000 0
-0.000000 0.000000 0
-0.000000 0.000000 0
-0.000000 0.000000 0
-0.000000 0.000000 0
-0.000000 0.000000 0
-0.000000 0.000000 0
-0.000000 0.000000 0
-0.000000 0.000000 0
-0.000000 0.000000 0
-0.000000 0.000000 0
-0.000000 0.000000 0
-0.000000 0.000000 0
-0.000000 0.000000 0
-0.000000 0.000000 0
-0.000000 0.000000 0
-0.000000 0.000000 0
-0.000000 0.000000 0
-0.000000 0.000000 0
-0.000000 0.000000 0
-0.000000 0.000000 0
-0.000000 0.000000 0
-0.000000 0.000000 0
-0.000000 0.000000 0
-0.000000 0.000000 0
-0.000000 0.000000 0
-0.000000 0.000000 0
-0.000000 0.000000 0
-0.000000 0.000000 0
-0.000000 0.000000 0
-0.000000 0.000000 0
-0.000000 0.000000 0
-0.000000 0.000000 0
-0.000000 0.000000 0
-0.000000 0.000000 0
-0.000000 0.000000 0
-0.000000 0.000000 0
-0.000000 0.000000 0
-0.000000 0.000000 0
-0.000000 0.000000 0
-0.000000 0.000000 0
-0.000000 0.000000 0
-0.000000 0.000000 0
-0.000000 0.000000 0
-0.000000 0.000000 0
-0.000000 0.000000 0
-0.000000 0.000000 0
-0.000000 0.000000 0
-0.000000 0.000000 0
-0.000000 0.000000 0
-0.000000 0.000000 0
-0.000000 0.000000 0
-0.000000 0.000000 0
-0.000000 0.000000 0
-0.000000 0.000000 0
-0.000000 0.000000 0
-0.000000 0.000000 0
-0.000000 0.000000 0
-0.000000 0.000000 0
-0.000000 0.000000 0
-0.000000 0.000000 0
-0.000000 0.000000 0
-0.000000 0.000000 0
-0.000000 0.000000 0
-0.000000 0.000000 0
-0.000000 0.000000 0
-0.000000 0.000000 0
-0.000000 0.000000 0
-0.000000 0.000000 0
-0.000000 0.000000 0
-0.000000 0.000000 0
-0.000000 0.000000 0
-0.000000 0.000000 0
-0.000000 0.000000 0
-0.000000 0.000000 0
-0.000000 0.000000 0
-0.000000 0.000000 0
-0.000000 0.000000 0
-0.000000 0.000000 0
-0.000000 0.000000 0
-0.000001 0.000000 0
-0.000001 0.000000 0
-0.000001 0.000000 0
-0.000001 0.000000 0
-0.000001 0.000000 0
-0.000001 0.000000 0
-0.000001 0.000000 0
-0.000001 0.000000 0
-0.000001 0.000000 0
-0.000001 0.000000 0
-0.000001 0.000000 0
-0.000001 0.000000 0
-0.000001 0.000000 0
-0.000001 0.000000 0
-0.000001 0.000000 0
-0.000001 0.000000 0
-0.000001 0.000000 0
-0.000001 0.000000 0
-0.000001 0.000000 0
-0.000001 0.000000 0
-0.000001 0.000000 0
-0.000001 0.000000 0
-0.000001 0.000000 0
-0.000001 0.000000 0
-0.000001 0.000000 0
-0.000001 0.000000 0
-0.000001 0.000000 0
-0.000001 0.000000 0
-0.000001 0.000000 0
-0.000001 0.000000 0
-0.000001 0.000000 0
-0.000001 0.000000 0
-0.000001 0.000000 0
-0.000001 0.000000 0
-0.000001 0.000000 0
-0.000000 0.000000 0
-0.000000 0.000000 0
-0.000000 0.000000 0
0.000000 0.000000 0
0.000000 0.000000 0
-0.000000 0.000000 0
0.496539 0.000000 0
1.000000 0.000035 0
0.999854 0.000107 0
0.999558 0.000183 0
0.999101 0.000265 0
0.998465 0.000358 0
0.997626 0.000465 0
0.996549 0.000592 0
0.995186 0.000747 0
0.993475 0.000939 0
0.991325 0.001182 0
0.988614 0.001500 0
0.985165 0.001928 0
0.980714 0.002523 0
0.974850 0.003392 0
0.966903 0.004753 0
0.955642 0.007036 0
0.938826 0.011875 0
0.910181 0.021660 0
0.860875 0.078853 0
0.714888 0.110956 0
0.576505 0.072745 0
0.473018 0.041074 0
0.401067 0.022638 0
0.351164 0.013309 0
0.315502 0.008679 0
0.288997 0.006202 0
0.268557 0.004718 0
0.252297 0.003739 0
0.239031 0.003050 0
0.227984 0.002542 0
0.218629 0.002156 0
0.210596 0.001855 0
0.203615 0.001615 0
0.197487 0.001420 0
0.192060 0.001260 0
0.187217 0.001127 0
0.182865 0.001014 0
0.178929 0.000919 0
0.175350 0.000837 0
0.172079 0.000767 0
0.169076 0.000705 0
0.166306 0.000652 0
0.163742 0.000605 0
0.161359 0.000563 0
0.159136 0.000526 0
0.157058 0.000493 0
0.155108 0.000463 0
0.153274 0.000436 0
0.151544 0.000412 0
0.149909 0.000390 0
0.148360 0.000370 0
0.146889 0.000352 0
0.145490 0.000335 0
0.144157 0.000320 0
0.142885 0.000306 0
0.141669 0.000293 0
0.140505 0.000281 0
0.139389 0.000269 0
0.138318 0.000259 0
0.137289 0.000249 0
0.136300 0.000240 0
0.135347 0.000231 0
0.134430 0.000223 0
0.133545 0.000215 0
0.132691 0.000208 0
0.131867 0.000201 0
0.131071 0.000194 0
0.130302 0.000188 0
0.129558 0.000182 0
0.128838 0.000176 0
0.128143 0.000170 0
0.127469 0.000165 0
0.126818 0.000160 0
0.126187 0.000154 0
0.125577 0.000150 0
0.124987 0.000145 0
0.124416 0.000140 0
0.123865 0.000136 0
0.123331 0.000131 0
0.122816 0.000127 0
0.122319 0.000123 0
0.121840 0.000118 0
0.121379 0.000114 0
0.120935 0.000110 0
0.120508 0.000105 0
0.120100 0.000101 0
0.119709 0.000097 0
0.119336 0.000092 0
0.118982 0.000088 0
0.118647 0.000083 0
0.118331 0.000078 0
0.118035 0.000073 0
0.117759 0.000068 0
0.117506 0.000063 0
0.117274 0.000057 0
0.117066 0.000051 0
0.116883 0.000045 0
0.116726 0.000038 0
0.116596 0.000030 0
0.116495 0.000023 0
0.116424 0.000014 0
0.116388 0.000005 0
0.116388 -0.000005 0
0.116424 -0.000015 0
0.116500 -0.000026 0
0.116616 -0.000038 0
0.116777 -0.000050 0
0.116985 -0.000064 0
0.117245 -0.000079 0
0.117560 -0.000095 0
0.117938 -0.000114 0
0.118384 -0.000134 0
0.118906 -0.000157 0
0.119514 -0.000182 0
0.120218 -0.000212 0
0.121033 -0.000245 0
0.121974 -0.000283 0
0.123060 -0.000327 0
0.124314 -0.000379 0
0.125762 -0.000439 0
0.127437 -0.000509 0
0.129379 -0.000592 0
0.131634 -0.000691 0
0.134261 -0.000808 0
0.137333 -0.000950 0
0.140937 -0.001122 0
0.145186 -0.001334 0
0.150225 -0.001596 0
0.156239 -0.001925 0
0.163475 -0.002347 0
0.172264 -0.002897 0
0.183064 -0.003632 0
0.196526 -0.004641 0
0.213608 -0.006079 0
0.235774 -0.008225 0
0.265380 -0.011632 0
0.306487 -0.017466 0
0.366401 -0.029144 0
0.461823 -0.051521 0
0.618191 -0.167038 0
0.993390 -0.268137 0
0.993390 -0.134068 0
1.000000 0.000070 0
0.999856 0.000213 0
0.999564 0.000364 0
0.999113 0.000528 0
0.998486 0.000712 0
0.997659 0.000926 0
0.996599 0.001178 0
0.995259 0.001485 0
0.993579 0.001865 0
0.991473 0.002348 0
0.988825 0.002975 0
0.985469 0.003816 0
0.981163 0.004982 0
0.975541 0.006670 0
0.968025 0.009278 0
0.957649 0.013561 0
0.942785 0.021957 0
0.920695 0.037649 0
0.888371 0.094325 0
0.891000 0.137349 0
0.842150 0.116821 0
0.771620 0.084735 0
0.701224 0.058855 0
0.639922 0.041328 0
0.589261 0.030027 0
0.547927 0.022674 0
0.514045 0.017726 0
0.485958 0.014261 0
0.462376 0.011743 0
0.442329 0.009854 0
0.425091 0.008399 0
0.410115 0.007252 0
0.396983 0.006331 0
0.385372 0.005581 0
0.375031 0.004960 0
0.365758 0.004441 0
0.357393 0.004003 0
0.349805 0.003629 0
0.342887 0.003308 0
0.336551 0.003031 0
0.330723 0.002789 0
0.325341 0.002576 0
0.320353 0.002390 0
0.315713 0.002224 0
0.311384 0.002077 0
0.307332 0.001946 0
0.303530 0.001828 0
0.299953 0.001721 0
0.296579 0.001625 0
0.293389 0.001538 0
0.290367 0.001459 0
0.287499 0.001386 0
0.284771 0.001319 0
0.282172 0.001258 0
0.279693 0.001202 0
0.277323 0.001150 0
0.275055 0.001101 0
0.272882 0.001056 0
0.270798 0.001014 0
0.268796 0.000975 0
0.266871 0.000938 0
0.265019 0.000903 0
0.263235 0.000871 0
0.261516 0.000840 0
0.259858 0.000810 0
0.258258 0.000783 0
0.256713 0.000756 0
0.255221 0.000731 0
0.253778 0.000707 0
0.252384 0.000684 0
0.251036 0.000661 0
0.249733 0.000640 0
0.248472 0.000619 0
0.247253 0.000599 0
0.246074 0.000580 0
0.244934 0.000561 0
0.243832 0.000542 0
0.242768 0.000524 0
0.241740 0.000506 0
0.240749 0.000489 0
0.239792 0.000472 0
0.238872 0.000454 0
0.237986 0.000437 0
0.237134 0.000420 0
0.236318 0.000403 0
0.235537 0.000386 0
0.234791 0.000369 0
0.234080 0.000351 0
0.233406 0.000333 0
0.232769 0.000315 0
0.232169 0.000296 0
0.231609 0.000276 0
0.231088 0.000256 0
0.230609 0.000234 0
0.230173 0.000212 0
0.229781 0.000189 0
0.229436 0.000165 0
0.229139 0.000139 0
0.228892 0.000112 0
0.228699 0.000083 0
0.228562 0.000052 0
0.228484 0.000018 0
0.228472 -0.000018 0
0.228526 -0.000054 0
0.228650 -0.000093 0
0.228846 -0.000134 0
0.229118 -0.000178 0
0.229474 -0.000226 0
0.229917 -0.000278 0
0.230457 -0.000335 0
0.231103 -0.000398 0
0.231865 -0.000468 0
0.232756 -0.000546 0
0.233793 -0.000634 0
0.234993 -0.000734 0
0.236380 -0.000848 0
0.237979 -0.000979 0
0.239822 -0.001130 0
0.241945 -0.001305 0
0.244394 -0.001509 0
0.247221 -0.001747 0
0.250489 -0.002027 0
0.254276 -0.002358 0
0.258673 -0.002752 0
0.263795 -0.003224 0
0.269781 -0.003793 0
0.276804 -0.004486 0
0.285084 -0.005338 0
0.294898 -0.006400 0
0.306608 -0.007740 0
0.320691 -0.009461 0
0.337786 -0.011719 0
0.358775 -0.014753 0
0.384902 -0.018957 0
0.417978 -0.025006 0
0.460718 -0.034154 0
0.517376 -0.048792 0
0.594574 -0.075026 0
0.703581 -0.121613 0
0.858747 -0.256743 0
0.994102 -0.362437 0
0.994102 -0.181218 0
1.000000 0.000105 0
0.999859 0.000318 0
0.999574 0.000542 0
0.999133 0.000786 0
0.998521 0.001060 0
0.997714 0.001377 0
0.996681 0.001752 0
0.995379 0.002205 0
0.993750 0.002767 0
0.991715 0.003479 0
0.989169 0.004400 0
0.985962 0.005628 0
0.981888 0.007318 0
0.976642 0.009737 0
0.969783 0.013395 0
0.960674 0.019226 0
0.948431 0.029724 0
0.933029 0.047942 0
0.915087 0.093196 0
0.945331 0.133281 0
0.948627 0.130404 0
0.922940 0.109140 0
0.881983 0.086247 0
0.836592 0.067386 0
0.792543 0.053112 0
0.752211 0.042530 0
0.716228 0.034648 0
0.684462 0.028695 0
0.656493 0.024122 0
0.631837 0.020551 0
0.610028 0.017716 0
0.590653 0.015431 0
0.573357 0.013565 0
0.557842 0.012023 0
0.543858 0.010734 0
0.531194 0.009646 0
0.519675 0.008720 0
0.509153 0.007925 0
0.499504 0.007239 0
0.490622 0.006642 0
0.482416 0.006120 0
0.474811 0.005661 0
0.467739 0.005255 0
0.461144 0.004895 0
0.454976 0.004574 0
0.449192 0.004286 0
0.443755 0.004027 0
0.438632 0.003794 0
0.433794 0.003582 0
0.429216 0.003390 0
0.424875 0.003215 0
0.420750 0.003055 0
0.416826 0.002908 0
0.413085 0.002773 0
0.409514 0.002648 0
0.406100 0.002533 0
0.402831 0.002425 0
0.399699 0.002326 0
0.396694 0.002233 0
0.393807 0.002146 0
0.391031 0.002064 0
0.388359 0.001987 0
0.385787 0.001915 0
0.383307 0.001846 0
0.380915 0.001781 0
0.378607 0.001720 0
0.376378 0.001661 0
0.374225 0.001605 0
0.372145 0.001552 0
0.370134 0.001500 0
0.368190 0.001451 0
0.366311 0.001403 0
0.364493 0.001357 0
0.362736 0.001313 0
0.361037 0.001270 0
0.359394 0.001227 0
0.357808 0.001186 0
0.356275 0.001146 0
0.354796 0.001107 0
0.353368 0.001068 0
0.351993 0.001029 0
0.350669 0.000991 0
0.349396 0.000953 0
0.348173 0.000915 0
0.347001 0.000877 0
0.345880 0.000839 0
0.344809 0.000800 0
0.343791 0.000761 0
0.342825 0.000721 0
0.341912 0.000681 0
0.341054 0.000639 0
0.340251 0.000596 0
0.339506 0.000551 0
0.338819 0.000505 0
0.338192 0.000457 0
0.337628 0.000407 0
0.337128 0.000355 0
0.336695 0.000300 0
0.336332 0.000243 0
0.336041 0.000182 0
0.335825 0.000118 0
0.335689 0.000048 0
0.335638 -0.000025 0
0.335677 -0.000101 0
0.335808 -0.000180 0
0.336035 -0.000264 0
0.336362 -0.000354 0
0.336796 -0.000450 0
0.337344 -0.000554 0
0.338016 -0.000668 0
0.338822 -0.000793 0
0.339777 -0.000933 0
0.340895 -0.001088 0
0.342198 -0.001263 0
0.343706 -0.001461 0
0.345448 -0.001687 0
0.347455 -0.001945 0
0.349766 -0.002243 0
0.352425 -0.002587 0
0.355488 -0.002987 0
0.359017 -0.003453 0
0.363088 -0.004000 0
0.367792 -0.004644 0
0.373238 -0.005406 0
0.379558 -0.006315 0
0.386913 -0.007406 0
0.395499 -0.008725 0
0.405562 -0.010335 0
0.417406 -0.012322 0
0.431420 -0.014805 0
0.448104 -0.017956 0
0.468108 -0.022026 0
0.492297 -0.027398 0
0.521838 -0.034674 0
0.558327 -0.044843 0
0.603973 -0.059641 0
0.661824 -0.082117 0
0.735739 -0.119080 0
0.829141 -0.179114 0
0.941326 -0.307358 0
0.994899 -0.398888 0
0.994899 -0.199444 0
1.000000 0.000138 0
0.999864 0.000419 0
0.999587 0.000715 0
0.999160 0.001037 0
0.998568 0.001398 0
0.997790 0.001814 0
0.996794 0.002306 0
0.995543 0.002901 0
0.993983 0.003635 0
0.992045 0.004560 0
0.989635 0.005754 0
0.986627 0.007333 0
0.982854 0.009483 0
0.978089 0.012517 0
0.972037 0.016990 0
0.964383 0.023874 0
0.954907 0.035309 0
0.945020 0.053754 0
0.937269 0.088383 0
0.965708 0.121149 0
0.987885 0.127636 0
0.990073 0.116924 0
0.975768 0.100560 0
0.951739 0.084527 0
0.923222 0.070782 0
0.893433 0.059533 0
0.864155 0.050448 0
0.836299 0.043113 0
0.810274 0.037160 0
0.786211 0.032296 0
0.764084 0.028290 0
0.743790 0.024963 0
0.725192 0.022178 0
0.708137 0.019829 0
0.692478 0.017831 0
0.678074 0.016122 0
0.664795 0.014649 0
0.652527 0.013372 0
0.641164 0.012259 0
0.630614 0.011284 0
0.620795 0.010425 0
0.611634 0.009666 0
0.603067 0.008991 0
0.595037 0.008389 0
0.587494 0.007850 0
0.580393 0.007365 0
0.573695 0.006928 0
0.567363 0.006532 0
0.561368 0.006173 0
0.555680 0.005846 0
0.550275 0.005547 0
0.545130 0.005274 0
0.540226 0.005022 0
0.535544 0.004790 0
0.531068 0.004576 0
0.526784 0.004377 0
0.522678 0.004193 0
0.518739 0.004021 0
0.514956 0.003860 0
0.511319 0.003710 0
0.507819 0.003569 0
0.504448 0.003436 0
0.501200 0.003311 0
0.498067 0.003193 0
0.495044 0.003080 0
0.492125 0.002974 0
0.489305 0.002872 0
0.486580 0.002775 0
0.483946 0.002683 0
0.481399 0.002594 0
0.478935 0.002508 0
0.476552 0.002426 0
0.474248 0.002346 0
0.472018 0.002269 0
0.469863 0.002193 0
0.467779 0.002120 0
0.465764 0.002049 0
0.463818 0.001979 0
0.461940 0.001910 0
0.460127 0.001842 0
0.458380 0.001775 0
0.456697 0.001709 0
0.455079 0.001643 0
0.453525 0.001577 0
0.452035 0.001511 0
0.450609 0.001444 0
0.449248 0.001377 0
0.447952 0.001310 0
0.446722 0.001240 0
0.445559 0.001170 0
0.444464 0.001098 0
0.443438 0.001024 0
0.442484 0.000948 0
0.441602 0.000869 0
0.440794 0.000787 0
0.440064 0.000703 0
0.439412 0.000615 0
0.438841 0.000523 0
0.438354 0.000428 0
0.437954 0.000327 0
0.437644 0.000221 0
0.437427 0.000108 0
0.437307 -0.000012 0
0.437294 -0.000136 0
0.437389 -0.000265 0
0.437597 -0.000401 0
0.437921 -0.000546 0
0.438369 -0.000700 0
0.438948 -0.000867 0
0.439668 -0.001049 0
0.440541 -0.001248 0
0.441581 -0.001469 0
0.442806 -0.001715 0
0.444237 -0.001991 0
0.445897 -0.002304 0
0.447816 -0.002659 0
0.450028 -0.003065 0
0.452576 -0.003531 0
0.455506 -0.004069 0
0.458876 -0.004692 0
0.462753 -0.005418 0
0.467218 -0.006265 0
0.472365 -0.007261 0
0.478308 -0.008435 0
0.485181 -0.009829 0
0.493147 -0.011493 0
0.502402 -0.013493 0
0.513189 -0.015919 0
0.525800 -0.018889 0
0.540604 -0.022567 0
0.558059 -0.027181 0
0.578745 -0.033064 0
0.603400 -0.040704 0
0.632970 -0.050849 0
0.668660 -0.064677 0
0.711963 -0.084142 0
0.764573 -0.112434 0
0.827862 -0.155839 0
0.900338 -0.220910 0
0.974516 -0.336803 0
0.995656 -0.414187 0
0.995656 -0.207093 0
1.000000 0.000170 0
0.999869 0.000517 0
0.999604 0.000882 0
0.999195 0.001278 0
0.998628 0.001722 0
0.997884 0.002234 0
0.996936 0.002837 0
0.995748 0.003563 0
0.994274 0.004457 0
0.992454 0.005579 0
0.990209 0.007017 0
0.987441 0.008903 0
0.984022 0.011442 0
0.979806 0.014962 0
0.974638 0.020015 0
0.968469 0.027500 0
0.961561 0.039076 0
0.955832 0.056460 0
0.954477 0.083203 0
0.976672 0.108834 0
1.001712 0.118637 0
1.016360 0.114993 0
1.018679 0.104762 0
1.011394 0.092766 0
0.997801 0.081274 0
0.980479 0.071059 0
0.961205 0.062244 0
0.941148 0.054719 0
0.921058 0.048315 0
0.901405 0.042861 0
0.882473 0.038204 0
0.864418 0.034216 0
0.847315 0.030785 0
0.831182 0.027823 0
0.816004 0.025254 0
0.801748 0.023016 0
0.788364 0.021059 0
0.775800 0.019339 0
0.764000 0.017823 0
0.752909 0.016480 0
0.742473 0.015287 0
0.732644 0.014223 0
0.723372 0.013271 0
0.714616 0.012416 0
0.706334 0.011647 0
0.698489 0.010951 0
0.691048 0.010321 0
0.683980 0.009748 0
0.677256 0.009225 0
0.670852 0.008748 0
0.664744 0.008311 0
0.658911 0.007909 0
0.653334 0.007538 0
0.647994 0.007196 0
0.642876 0.006879 0
0.637967 0.006585 0
0.633251 0.006311 0
0.628718 0.006056 0
0.624356 0.005817 0
0.620156 0.005593 0
0.616108 0.005382 0
0.612204 0.005184 0
0.608436 0.004997 0
0.604798 0.004819 0
0.601283 0.004651 0
0.597885 0.004491 0
0.594599 0.004339 0
0.591420 0.004194 0
0.588344 0.004054 0
0.585367 0.003920 0
0.582486 0.003792 0
0.579696 0.003667 0
0.576995 0.003547 0
0.574381 0.003431 0
0.571852 0.003317 0
0.569404 0.003207 0
0.567037 0.003099 0
0.564748 0.002993 0
0.562537 0.002889 0
0.560402 0.002787 0
0.558343 0.002686 0
0.556358 0.002585 0
0.554448 0.002485 0
0.552612 0.002385 0
0.550850 0.002285 0
0.549162 0.002185 0
0.547549 0.002084 0
0.546012 0.001981 0
0.544550 0.001877 0
0.543166 0.001771 0
0.541860 0.001663 0
0.540634 0.001552 0
0.539489 0.001438 0
0.538427 0.001321 0
0.537449 0.001200 0
0.536559 0.001075 0
0.535757 0.000945 0
0.535047 0.000811 0
0.534431 0.000671 0
0.533912 0.000525 0
0.533492 0.000372 0
0.533175 0.000211 0
0.532963 0.000039 0
0.532864 -0.000141 0
0.532884 -0.000326 0
0.533028 -0.000521 0
0.533299 -0.000726 0
0.533704 -0.000946 0
0.534251 -0.001182 0
0.534950 -0.001438 0
0.535811 -0.001718 0
0.536850 -0.002027 0
0.538083 -0.002371 0
0.539532 -0.002756 0
0.541221 -0.003190 0
0.543179 -0.003683 0
0.545441 -0.004244 0
0.548048 -0.004889 0
0.551047 -0.005630 0
0.554495 -0.006487 0
0.558459 -0.007482 0
0.563017 -0.008642 0
0.568262 -0.010000 0
0.574303 -0.011596 0
0.581268 -0.013482 0
0.589312 -0.015724 0
0.598619 -0.018405 0
0.609408 -0.021636 0
0.621945 -0.025563 0
0.636552 -0.030386 0
0.653620 -0.036378 0
0.673627 -0.043925 0
0.697151 -0.053588 0
0.724885 -0.066194 0
0.757629 -0.082996 0
0.796210 -0.105966 0
0.841217 -0.138096 0
0.892293 -0.184653 0
0.945621 -0.249947 0
0.992368 -0.353396 0
0.996343 -0.419307 0
0.996343 -0.209653 0
1.000000 0.000201 0
0.999876 0.000611 0
0.999624 0.001041 0
0.999236 0.001508 0
0.998699 0.002031 0
0.997996 0.002631 0
0.997104 0.003338 0
0.995990 0.004186 0
0.994616 0.005226 0
0.992932 0.006524 0
0.990877 0.008175 0
0.988376 0.010321 0
0.985348 0.013171 0
0.981715 0.017050 0
0.977446 0.022466 0
0.972685 0.030190 0
0.967982 0.041413 0
0.965254 0.057176 0
0.967535 0.078318 0
0.984750 0.098335 0
1.007164 0.108467 0
1.025318 0.108729 0
1.035734 0.102959 0
1.038733 0.094611 0
1.035898 0.085714 0
1.028854 0.077209 0
1.018916 0.069445 0
1.007075 0.062503 0
0.994056 0.056356 0
0.980390 0.050932 0
0.966460 0.046155 0
0.952540 0.041945 0
0.938821 0.038232 0
0.925434 0.034951 0
0.912463 0.032048 0
0.899962 0.029472 0
0.887958 0.027181 0
0.876461 0.025140 0
0.865471 0.023315 0
0.854976 0.021681 0
0.844962 0.020213 0
0.835408 0.018891 0
0.826295 0.017698 0
0.817598 0.016618 0
0.809296 0.015639 0
0.801366 0.014748 0
0.793786 0.013936 0
0.786536 0.013194 0
0.779595 0.012514 0
0.772946 0.011889 0
0.766570 0.011315 0
0.760451 0.010785 0
0.754574 0.010295 0
0.748925 0.009841 0
0.743490 0.009419 0
0.738257 0.009026 0
0.733214 0.008660 0
0.728352 0.008317 0
0.723661 0.007996 0
0.719131 0.007694 0
0.714754 0.007410 0
0.710523 0.007142 0
0.706431 0.006888 0
0.702472 0.006648 0
0.698639 0.006419 0
0.694927 0.006202 0
0.691331 0.005995 0
0.687847 0.005796 0
0.684470 0.005606 0
0.681196 0.005423 0
0.678023 0.005247 0
0.674947 0.005077 0
0.671965 0.004913 0
0.669075 0.004753 0
0.666274 0.004598 0
0.663561 0.004446 0
0.660933 0.004298 0
0.658390 0.004152 0
0.655929 0.004009 0
0.653551 0.003868 0
0.651254 0.003729 0
0.649037 0.003590 0
0.646901 0.003452 0
0.644844 0.003315 0
0.642868 0.003177 0
0.640972 0.003039 0
0.639157 0.002899 0
0.637424 0.002758 0
0.635772 0.002615 0
0.634204 0.002469 0
0.632721 0.002321 0
0.631323 0.002169 0
0.630013 0.002014 0
0.628792 0.001854 0
0.627662 0.001689 0
0.626625 0.001520 0
0.625683 0.001345 0
0.624838 0.001164 0
0.624093 0.000976 0
0.623450 0.000781 0
0.622912 0.000577 0
0.622482 0.000364 0
0.622161 0.000139 0
0.621953 -0.000098 0
0.621870 -0.000345 0
0.621916 -0.000602 0
0.622095 -0.000872 0
0.622413 -0.001160 0
0.622878 -0.001468 0
0.623499 -0.001802 0
0.624287 -0.002166 0
0.625256 -0.002567 0
0.626422 -0.003011 0
0.627806 -0.003507 0
0.629430 -0.004065 0
0.631323 -0.004697 0
0.633517 -0.005416 0
0.636052 -0.006238 0
0.638973 -0.007183 0
0.642333 -0.008272 0
0.646196 -0.009534 0
0.650634 -0.011000 0
0.655734 -0.012712 0
0.661596 -0.014717 0
0.668338 -0.017079 0
0.676100 -0.019873 0
0.685045 -0.023199 0
0.695365 -0.027186 0