# vtk DataFile Version 2.0
generated by CFD-lab course output (written by Tobias Neckel) 
ASCII

DATASET STRUCTURED_GRID
DIMENSIONS  142 42 1 
POINTS 5964 float

0.000000 0.250000 0
0.024648 0.250000 0
0.049296 0.250000 0
0.073944 0.250000 0
0.098592 0.250000 0
0.123239 0.250000 0
0.147887 0.250000 0
0.172535 0.250000 0
0.197183 0.250000 0
0.221831 0.250000 0
0.246479 0.250000 0
0.271127 0.250000 0
0.295775 0.250000 0
0.320423 0.250000 0
0.345070 0.250000 0
0.369718 0.250000 0
0.394366 0.250000 0
0.419014 0.250000 0
0.443662 0.250000 0
0.468310 0.250000 0
0.492958 0.250000 0
0.517606 0.250000 0
0.542254 0.250000 0
0.566901 0.250000 0
0.591549 0.250000 0
0.616197 0.250000 0
0.640845 0.250000 0
0.665493 0.250000 0
0.690141 0.250000 0
0.714789 0.250000 0
0.739437 0.250000 0
0.764085 0.250000 0
0.788732 0.250000 0
0.813380 0.250000 0
0.838028 0.250000 0
0.862676 0.250000 0
0.887324 0.250000 0
0.911972 0.250000 0
0.936620 0.250000 0
0.961268 0.250000 0
0.985915 0.250000 0
1.010563 0.250000 0
1.035211 0.250000 0
1.059859 0.250000 0
1.084507 0.250000 0
1.109155 0.250000 0
1.133803 0.250000 0
1.158451 0.250000 0
1.183099 0.250000 0
1.207746 0.250000 0
1.232394 0.250000 0
1.257042 0.250000 0
1.281690 0.250000 0
1.306338 0.250000 0
1.330986 0.250000 0
1.355634 0.250000 0
1.380282 0.250000 0
1.404930 0.250000 0
1.429577 0.250000 0
1.454225 0.250000 0
1.478873 0.250000 0
1.503521 0.250000 0
1.528169 0.250000 0
1.552817 0.250000 0
1.577465 0.250000 0
1.602113 0.250000 0
1.626761 0.250000 0
1.651408 0.250000 0
1.676056 0.250000 0
1.700704 0.250000 0
1.725352 0.250000 0
1.750000 0.250000 0
1.774648 0.250000 0
1.799296 0.250000 0
1.823944 0.250000 0
1.848592 0.250000 0
1.873239 0.250000 0
1.897887 0.250000 0
1.922535 0.250000 0
1.947183 0.250000 0
1.971831 0.250000 0
1.996479 0.250000 0
2.021127 0.250000 0
2.045775 0.250000 0
2.070423 0.250000 0
2.095070 0.250000 0
2.119718 0.250000 0
2.144366 0.250000 0
2.169014 0.250000 0
2.193662 0.250000 0
2.218310 0.250000 0
2.242958 0.250000 0
2.267606 0.250000 0
2.292254 0.250000 0
2.316901 0.250000 0
2.341549 0.250000 0
2.366197 0.250000 0
2.390845 0.250000 0
2.415493 0.250000 0
2.440141 0.250000 0
2.464789 0.250000 0
2.489437 0.250000 0
2.514085 0.250000 0
2.538732 0.250000 0
2.563380 0.250000 0
2.588028 0.250000 0
2.612676 0.250000 0
2.637324 0.250000 0
2.661972 0.250000 0
2.686620 0.250000 0
2.711268 0.250000 0
2.735915 0.250000 0
2.760563 0.250000 0
2.785211 0.250000 0
2.809859 0.250000 0
2.834507 0.250000 0
2.859155 0.250000 0
2.883803 0.250000 0
2.908451 0.250000 0
2.933099 0.250000 0
2.957746 0.250000 0
2.982394 0.250000 0
3.007042 0.250000 0
3.031690 0.250000 0
3.056338 0.250000 0
3.080986 0.250000 0
3.105634 0.250000 0
3.130282 0.250000 0
3.154930 0.250000 0
3.179577 0.250000 0
3.204225 0.250000 0
3.228873 0.250000 0
3.253521 0.250000 0
3.278169 0.250000 0
3.302817 0.250000 0
3.327465 0.250000 0
3.352113 0.250000 0
3.376761 0.250000 0
3.401408 0.250000 0
3.426056 0.250000 0
3.450704 0.250000 0
3.475352 0.250000 0
0.000000 0.261905 0
0.024648 0.261905 0
0.049296 0.261905 0
0.073944 0.261905 0
0.098592 0.261905 0
0.123239 0.261905 0
0.147887 0.261905 0
0.172535 0.261905 0
0.197183 0.261905 0
0.221831 0.261905 0
0.246479 0.261905 0
0.271127 0.261905 0
0.295775 0.261905 0
0.320423 0.261905 0
0.345070 0.261905 0
0.369718 0.261905 0
0.394366 0.261905 0
0.419014 0.261905 0
0.443662 0.261905 0
0.468310 0.261905 0
0.492958 0.261905 0
0.517606 0.261905 0
0.542254 0.261905 0
0.566901 0.261905 0
0.591549 0.261905 0
0.616197 0.261905 0
0.640845 0.261905 0
0.665493 0.261905 0
0.690141 0.261905 0
0.714789 0.261905 0
0.739437 0.261905 0
0.764085 0.261905 0
0.788732 0.261905 0
0.813380 0.261905 0
0.838028 0.261905 0
0.862676 0.261905 0
0.887324 0.261905 0
0.911972 0.261905 0
0.936620 0.261905 0
0.961268 0.261905 0
0.985915 0.261905 0
1.010563 0.261905 0
1.035211 0.261905 0
1.059859 0.261905 0
1.084507 0.261905 0
1.109155 0.261905 0
1.133803 0.261905 0
1.158451 0.261905 0
1.183099 0.261905 0
1.207746 0.261905 0
1.232394 0.261905 0
1.257042 0.261905 0
1.281690 0.261905 0
1.306338 0.261905 0
1.330986 0.261905 0
1.355634 0.261905 0
1.380282 0.261905 0
1.404930 0.261905 0
1.429577 0.261905 0
1.454225 0.261905 0
1.478873 0.261905 0
1.503521 0.261905 0
1.528169 0.261905 0
1.552817 0.261905 0
1.577465 0.261905 0
1.602113 0.261905 0
1.626761 0.261905 0
1.651408 0.261905 0
1.676056 0.261905 0
1.700704 0.261905 0
1.725352 0.261905 0
1.750000 0.261905 0
1.774648 0.261905 0
1.799296 0.261905 0
1.823944 0.261905 0
1.848592 0.261905 0
1.873239 0.261905 0
1.897887 0.261905 0
1.922535 0.261905 0
1.947183 0.261905 0
1.971831 0.261905 0
1.996479 0.261905 0
2.021127 0.261905 0
2.045775 0.261905 0
2.070423 0.261905 0
2.095070 0.261905 0
2.119718 0.261905 0
2.144366 0.261905 0
2.169014 0.261905 0
2.193662 0.261905 0
2.218310 0.261905 0
2.242958 0.261905 0
2.267606 0.261905 0
2.292254 0.261905 0
2.316901 0.261905 0
2.341549 0.261905 0
2.366197 0.261905 0
2.390845 0.261905 0
2.415493 0.261905 0
2.440141 0.261905 0
2.464789 0.261905 0
2.489437 0.261905 0
2.514085 0.261905 0
2.538732 0.261905 0
2.563380 0.261905 0
2.588028 0.261905 0
2.612676 0.261905 0
2.637324 0.261905 0
2.661972 0.261905 0
2.686620 0.261905 0
2.711268 0.261905 0
2.735915 0.261905 0
2.760563 0.261905 0
2.785211 0.261905 0
2.809859 0.261905 0
2.834507 0.261905 0
2.859155 0.261905 0
2.883803 0.261905 0
2.908451 0.261905 0
2.933099 0.261905 0
2.957746 0.261905 0
2.982394 0.261905 0
3.007042 0.261905 0
3.031690 0.261905 0
3.056338 0.261905 0
3.080986 0.261905 0
3.105634 0.261905 0
3.130282 0.261905 0
3.154930 0.261905 0
3.179577 0.261905 0
3.204225 0.261905 0
3.228873 0.261905 0
3.253521 0.261905 0
3.278169 0.261905 0
3.302817 0.261905 0
3.327465 0.261905 0
3.352113 0.261905 0
3.376761 0.261905 0
3.401408 0.261905 0
3.426056 0.261905 0
3.450704 0.261905 0
3.475352 0.261905 0
0.000000 0.273810 0
0.024648 0.273810 0
0.049296 0.273810 0
0.073944 0.273810 0
0.098592 0.273810 0
0.123239 0.273810 0
0.147887 0.273810 0
0.172535 0.273810 0
0.197183 0.273810 0
0.221831 0.273810 0
0.246479 0.273810 0
0.271127 0.273810 0
0.295775 0.273810 0
0.320423 0.273810 0
0.345070 0.273810 0
0.369718 0.273810 0
0.394366 0.273810 0
0.419014 0.273810 0
0.443662 0.273810 0
0.468310 0.273810 0
0.492958 0.273810 0
0.517606 0.273810 0
0.542254 0.273810 0
0.566901 0.273810 0
0.591549 0.273810 0
0.616197 0.273810 0
0.640845 0.273810 0
0.665493 0.273810 0
0.690141 0.273810 0
0.714789 0.273810 0
0.739437 0.273810 0
0.764085 0.273810 0
0.788732 0.273810 0
0.813380 0.273810 0
0.838028 0.273810 0
0.862676 0.273810 0
0.887324 0.273810 0
0.911972 0.273810 0
0.936620 0.273810 0
0.961268 0.273810 0
0.985915 0.273810 0
1.010563 0.273810 0
1.035211 0.273810 0
1.059859 0.273810 0
1.084507 0.273810 0
1.109155 0.273810 0
1.133803 0.273810 0
1.158451 0.273810 0
1.183099 0.273810 0
1.207746 0.273810 0
1.232394 0.273810 0
1.257042 0.273810 0
1.281690 0.273810 0
1.306338 0.273810 0
1.330986 0.273810 0
1.355634 0.273810 0
1.380282 0.273810 0
1.404930 0.273810 0
1.429577 0.273810 0
1.454225 0.273810 0
1.478873 0.273810 0
1.503521 0.273810 0
1.528169 0.273810 0
1.552817 0.273810 0
1.577465 0.273810 0
1.602113 0.273810 0
1.626761 0.273810 0
1.651408 0.273810 0
1.676056 0.273810 0
1.700704 0.273810 0
1.725352 0.273810 0
1.750000 0.273810 0
1.774648 0.273810 0
1.799296 0.273810 0
1.823944 0.273810 0
1.848592 0.273810 0
1.873239 0.273810 0
1.897887 0.273810 0
1.922535 0.273810 0
1.947183 0.273810 0
1.971831 0.273810 0
1.996479 0.273810 0
2.021127 0.273810 0
2.045775 0.273810 0
2.070423 0.273810 0
2.095070 0.273810 0
2.119718 0.273810 0
2.144366 0.273810 0
2.169014 0.273810 0
2.193662 0.273810 0
2.218310 0.273810 0
2.242958 0.273810 0
2.267606 0.273810 0
2.292254 0.273810 0
2.316901 0.273810 0
2.341549 0.273810 0
2.366197 0.273810 0
2.390845 0.273810 0
2.415493 0.273810 0
2.440141 0.273810 0
2.464789 0.273810 0
2.489437 0.273810 0
2.514085 0.273810 0
2.538732 0.273810 0
2.563380 0.273810 0
2.588028 0.273810 0
2.612676 0.273810 0
2.637324 0.273810 0
2.661972 0.273810 0
2.686620 0.273810 0
2.711268 0.273810 0
2.735915 0.273810 0
2.760563 0.273810 0
2.785211 0.273810 0
2.809859 0.273810 0
2.834507 0.273810 0
2.859155 0.273810 0
2.883803 0.273810 0
2.908451 0.273810 0
2.933099 0.273810 0
2.957746 0.273810 0
2.982394 0.273810 0
3.007042 0.273810 0
3.031690 0.273810 0
3.056338 0.273810 0
3.080986 0.273810 0
3.105634 0.273810 0
3.130282 0.273810 0
3.154930 0.273810 0
3.179577 0.273810 0
3.204225 0.273810 0
3.228873 0.273810 0
3.253521 0.273810 0
3.278169 0.273810 0
3.302817 0.273810 0
3.327465 0.273810 0
3.352113 0.273810 0
3.376761 0.273810 0
3.401408 0.273810 0
3.426056 0.273810 0
3.450704 0.273810 0
3.475352 0.273810 0
0.000000 0.285714 0
0.024648 0.285714 0
0.049296 0.285714 0
0.073944 0.285714 0
0.098592 0.285714 0
0.123239 0.285714 0
0.147887 0.285714 0
0.172535 0.285714 0
0.197183 0.285714 0
0.221831 0.285714 0
0.246479 0.285714 0
0.271127 0.285714 0
0.295775 0.285714 0
0.320423 0.285714 0
0.345070 0.285714 0
0.369718 0.285714 0
0.394366 0.285714 0
0.419014 0.285714 0
0.443662 0.285714 0
0.468310 0.285714 0
0.492958 0.285714 0
0.517606 0.285714 0
0.542254 0.285714 0
0.566901 0.285714 0
0.591549 0.285714 0
0.616197 0.285714 0
0.640845 0.285714 0
0.665493 0.285714 0
0.690141 0.285714 0
0.714789 0.285714 0
0.739437 0.285714 0
0.764085 0.285714 0
0.788732 0.285714 0
0.813380 0.285714 0
0.838028 0.285714 0
0.862676 0.285714 0
0.887324 0.285714 0
0.911972 0.285714 0
0.936620 0.285714 0
0.961268 0.285714 0
0.985915 0.285714 0
1.010563 0.285714 0
1.035211 0.285714 0
1.059859 0.285714 0
1.084507 0.285714 0
1.109155 0.285714 0
1.133803 0.285714 0
1.158451 0.285714 0
1.183099 0.285714 0
1.207746 0.285714 0
1.232394 0.285714 0
1.257042 0.285714 0
1.281690 0.285714 0
1.306338 0.285714 0
1.330986 0.285714 0
1.355634 0.285714 0
1.380282 0.285714 0
1.404930 0.285714 0
1.429577 0.285714 0
1.454225 0.285714 0
1.478873 0.285714 0
1.503521 0.285714 0
1.528169 0.285714 0
1.552817 0.285714 0
1.577465 0.285714 0
[...]
POINT_DATA 5964 

VECTORS velocity float
1.000000 0.000000 0
0.999855 0.000000 0
0.999560 0.000000 0
0.999104 0.000000 0
0.998471 0.000000 0
0.997635 0.000000 0
0.996562 0.000000 0
0.995205 0.000000 0
0.993499 0.000000 0
0.991355 0.000000 0
0.988647 0.000000 0
0.985197 0.000000 0
0.980734 0.000000 0
0.974834 0.000000 0
0.966793 0.000000 0
0.955279 0.000000 0
0.937814 0.000000 0
0.906289 0.000000 0
0.848365 0.000000 0
-0.000000 0.000000 0
-0.000000 0.000000 0
-0.000000 0.000000 0
-0.000000 0.000000 0
-0.000000 0.000000 0
-0.000000 0.000000 0
-0.000001 0.000000 0
-0.000001 0.000000 0
-0.000001 0.000000 0
-0.000001 0.000000 0
-0.000001 0.000000 0
-0.000001 0.000000 0
-0.000001 0.000000 0
-0.000002 0.000000 0
-0.000002 0.000000 0
-0.000002 0.000000 0
-0.000002 0.000000 0
-0.000003 0.000000 0
-0.000003 0.000000 0
-0.000004 0.000000 0
-0.000005 0.000000 0
-0.000005 0.000000 0
-0.000006 0.000000 0
-0.000007 0.000000 0
-0.000008 0.000000 0
-0.000008 0.000000 0
-0.000009 0.000000 0
-0.000009 0.000000 0
-0.000009 0.000000 0
-0.000009 0.000000 0
-0.000009 0.000000 0
-0.000009 0.000000 0
-0.000009 0.000000 0
-0.000009 0.000000 0
-0.000008 0.000000 0
-0.000008 0.000000 0
-0.000008 0.000000 0
-0.000008 0.000000 0
-0.000008 0.000000 0
-0.000008 0.000000 0
-0.000008 0.000000 0
-0.000008 0.000000 0
-0.000008 0.000000 0
-0.000008 0.000000 0
-0.000008 0.000000 0
-0.000008 0.000000 0
-0.000008 0.000000 0
-0.000008 0.000000 0
-0.000008 0.000000 0
-0.000008 0.000000 0
-0.000008 0.000000 0
-0.000008 0.000000 0
-0.000008 0.000000 0
-0.000008 0.000000 0
-0.000008 0.000000 0
-0.000008 0.000000 0
-0.000008 0.000000 0
-0.000008 0.000000 0
-0.000008 0.000000 0
-0.000008 0.000000 0
-0.000008 0.000000 0
-0.000008 0.000000 0
-0.000008 0.000000 0
-0.000008 0.000000 0
-0.000008 0.000000 0
-0.000008 0.000000 0
-0.000008 0.000000 0
-0.000008 0.000000 0
-0.000008 0.000000 0
-0.000008 0.000000 0
-0.000008 0.000000 0
-0.000008 0.000000 0
-0.000008 0.000000 0
-0.000008 0.000000 0
-0.000008 0.000000 0
-0.000008 0.000000 0
-0.000008 0.000000 0
-0.000008 0.000000 0
-0.000008 0.000000 0
-0.000008 0.000000 0
-0.000008 0.000000 0
-0.000008 0.000000 0
-0.000008 0.000000 0
-0.000008 0.000000 0
-0.000008 0.000000 0
-0.000008 0.000000 0
-0.000008 0.000000 0
-0.000008 0.000000 0
-0.000008 0.000000 0
-0.000008 0.000000 0
-0.000008 0.000000 0
-0.000008 0.000000 0
-0.000008 0.000000 0
-0.000007 0.000000 0
-0.000007 0.000000 0
-0.000007 0.000000 0
-0.000007 0.000000 0
-0.000007 0.000000 0
-0.000007 0.000000 0
-0.000007 0.000000 0
-0.000007 0.000000 0
-0.000007 0.000000 0
-0.000007 0.000000 0
-0.000007 0.000000 0
-0.000007 0.000000 0
-0.000007 0.000000 0
-0.000007 0.000000 0
-0.000007 0.000000 0
-0.000007 0.000000 0
-0.000006 0.000000 0
-0.000006 0.000000 0
-0.000006 0.000000 0
-0.000006 0.000000 0
-0.000006 0.000000 0
-0.000005 0.000000 0
-0.000005 0.000000 0
-0.000004 0.000000 0
-0.000004 0.000000 0
-0.000003 0.000000 0
-0.000002 0.000000 0
-0.000000 0.000000 0
-0.000000 0.000000 0
0.497046 0.000000 0
1.000000 0.000035 0
0.999856 0.000106 0
0.999562 0.000181 0
0.999108 0.000263 0
0.998478 0.000355 0
0.997646 0.000461 0
0.996579 0.000587 0
0.995229 0.000740 0
0.993534 0.000930 0
0.991404 0.001172 0
0.988718 0.001487 0
0.985299 0.001911 0
0.980886 0.002503 0
0.975068 0.003367 0
0.967178 0.004722 0
0.955985 0.006998 0
0.939253 0.011831 0
0.910709 0.021602 0
0.861535 0.078815 0
0.715661 0.110955 0
0.577386 0.072747 0
0.474018 0.041065 0
0.402214 0.022612 0
0.352491 0.013266 0
0.317045 0.008623 0
0.290796 0.006135 0
0.270654 0.004640 0
0.254738 0.003650 0
0.241867 0.002949 0
0.231271 0.002429 0
0.222432 0.002028 0
0.214985 0.001711 0
0.208671 0.001454 0
0.203301 0.001239 0
0.198736 0.001055 0
0.194878 0.000893 0
0.191656 0.000744 0
0.189024 0.000604 0
0.186947 0.000470 0
0.185399 0.000339 0
0.184352 0.000212 0
0.183772 0.000093 0
0.183613 -0.000010 0
0.183797 -0.000091 0
0.184231 -0.000150 0
0.184836 -0.000189 0
0.185535 -0.000208 0
0.186266 -0.000211 0
0.186980 -0.000202 0
0.187642 -0.000185 0
0.188231 -0.000162 0
0.188737 -0.000138 0
0.189159 -0.000114 0
0.189503 -0.000092 0
0.189775 -0.000073 0
0.189988 -0.000056 0
0.190152 -0.000043 0
0.190275 -0.000032 0
0.190368 -0.000024 0
0.190437 -0.000018 0
0.190489 -0.000013 0
0.190527 -0.000010 0
0.190556 -0.000007 0
0.190578 -0.000005 0
0.190595 -0.000004 0
0.190608 -0.000003 0
0.190618 -0.000002 0
0.190626 -0.000002 0
0.190632 -0.000002 0
0.190638 -0.000001 0
0.190642 -0.000001 0
0.190646 -0.000001 0
0.190649 -0.000001 0
0.190652 -0.000001 0
0.190655 -0.000001 0
0.190658 -0.000001 0
0.190660 -0.000001 0
0.190663 -0.000001 0
0.190665 -0.000001 0
0.190668 -0.000001 0
0.190672 -0.000001 0
0.190675 -0.000001 0
0.190679 -0.000001 0
0.190684 -0.000001 0
0.190689 -0.000002 0
0.190695 -0.000002 0
0.190702 -0.000002 0
0.190710 -0.000003 0
0.190719 -0.000003 0
0.190730 -0.000003 0
0.190742 -0.000004 0
0.190756 -0.000005 0
0.190773 -0.000005 0
0.190792 -0.000006 0
0.190815 -0.000007 0
0.190841 -0.000008 0
0.190871 -0.000010 0
0.190906 -0.000011 0
0.190946 -0.000013 0
0.190993 -0.000015 0
0.191047 -0.000018 0
0.191111 -0.000020 0
0.191184 -0.000024 0
0.191269 -0.000027 0
0.191368 -0.000032 0
0.191482 -0.000037 0
0.191616 -0.000043 0
0.191770 -0.000050 0
0.191950 -0.000058 0
0.192158 -0.000067 0
0.192401 -0.000078 0
0.192683 -0.000091 0
0.193010 -0.000106 0
0.193392 -0.000123 0
0.193836 -0.000143 0
0.194353 -0.000167 0
0.194957 -0.000195 0
0.195661 -0.000228 0
0.196483 -0.000266 0
0.197446 -0.000312 0
0.198573 -0.000366 0
0.199897 -0.000430 0
0.201454 -0.000508 0
0.203290 -0.000600 0
0.205462 -0.000713 0
0.208041 -0.000850 0
0.211116 -0.001019 0
0.214802 -0.001230 0
0.219250 -0.001496 0
0.224658 -0.001838 0
0.231297 -0.002287 0
0.239546 -0.002890 0
0.249950 -0.003727 0
0.263324 -0.004934 0
0.280950 -0.006770 0
0.304945 -0.009763 0
0.339097 -0.015069 0
0.390510 -0.026172 0
0.475920 -0.048425 0
0.622739 -0.166647 0
0.994428 -0.270287 0
0.994429 -0.135143 0
1.000000 0.000070 0
0.999857 0.000212 0
0.999568 0.000361 0
0.999120 0.000523 0
0.998499 0.000706 0
0.997680 0.000917 0
0.996629 0.001167 0
0.995302 0.001471 0
0.993637 0.001848 0
0.991551 0.002326 0
0.988928 0.002949 0
0.985602 0.003783 0
0.981333 0.004941 0
0.975757 0.006621 0
0.968297 0.009217 0
0.957988 0.013487 0
0.943208 0.021868 0
0.921220 0.037537 0
0.889015 0.094207 0
0.891852 0.137242 0
0.843252 0.116712 0
0.773006 0.084607 0
0.702931 0.058697 0
0.641993 0.041136 0
0.591751 0.029798 0
0.550903 0.022406 0
0.517583 0.017416 0
0.490146 0.013904 0
0.467316 0.011334 0
0.448137 0.009387 0
0.431899 0.007866 0
0.418072 0.006646 0
0.406259 0.005644 0
0.396161 0.004799 0
0.387551 0.004068 0
0.380264 0.003420 0
0.374176 0.002828 0
0.369197 0.002275 0
0.365256 0.001751 0
0.362291 0.001253 0
0.360236 0.000786 0
0.359010 0.000357 0
0.358521 -0.000012 0
0.358652 -0.000299 0
0.359240 -0.000502 0
0.360138 -0.000629 0
0.361217 -0.000691 0
0.362366 -0.000698 0
0.363503 -0.000664 0
0.364566 -0.000604 0
0.365518 -0.000529 0
0.366340 -0.000448 0
0.367028 -0.000370 0
0.367590 -0.000298 0
0.368039 -0.000235 0
0.368390 -0.000182 0
0.368660 -0.000139 0
0.368866 -0.000105 0
0.369021 -0.000078 0
0.369138 -0.000058 0
0.369226 -0.000043 0
0.369292 -0.000032 0
0.369343 -0.000024 0
0.369381 -0.000019 0
0.369411 -0.000014 0
0.369435 -0.000011 0
0.369453 -0.000009 0
0.369469 -0.000007 0
0.369481 -0.000006 0
0.369491 -0.000005 0
0.369500 -0.000004 0
0.369507 -0.000003 0
0.369513 -0.000003 0
0.369519 -0.000003 0
0.369524 -0.000003 0
0.369529 -0.000002 0
0.369533 -0.000002 0
0.369538 -0.000003 0
0.369542 -0.000003 0
0.369547 -0.000003 0
0.369552 -0.000003 0
0.369558 -0.000004 0
0.369565 -0.000004 0
0.369572 -0.000005 0
0.369580 -0.000005 0
0.369590 -0.000006 0
0.369601 -0.000007 0
0.369613 -0.000008 0
0.369628 -0.000010 0
0.369645 -0.000011 0
0.369664 -0.000013 0
0.369687 -0.000015 0
0.369713 -0.000017 0
0.369743 -0.000020 0
0.369779 -0.000023 0
0.369819 -0.000027 0
0.369867 -0.000031 0
0.369922 -0.000036 0
0.369985 -0.000042 0
0.370059 -0.000049 0
0.370145 -0.000057 0
0.370244 -0.000066 0
0.370360 -0.000077 0
0.370493 -0.000089 0
0.370649 -0.000103 0
0.370830 -0.000120 0
0.371039 -0.000139 0
0.371283 -0.000161 0
0.371566 -0.000187 0
0.371894 -0.000218 0
0.372277 -0.000253 0
0.372721 -0.000294 0
0.373238 -0.000343 0
0.373839 -0.000399 0
0.374539 -0.000464 0
0.375355 -0.000541 0
0.376306 -0.000631 0
0.377415 -0.000737 0
0.378711 -0.000862 0
0.380226 -0.001009 0
0.382000 -0.001184 0
0.384080 -0.001391 0
0.386524 -0.001639 0
0.389402 -0.001936 0
0.392801 -0.002295 0
0.396826 -0.002731 0
0.401613 -0.003266 0
0.407331 -0.003929 0
0.414199 -0.004760 0
0.422502 -0.005819 0
0.432624 -0.007191 0
0.445085 -0.009009 0
0.460615 -0.011485 0
0.480266 -0.014973 0
0.505610 -0.020103 0
0.539081 -0.028084 0
0.584620 -0.041327 0
0.648623 -0.066085 0
0.742142 -0.112165 0
0.880722 -0.250436 0
0.995229 -0.359045 0
0.995229 -0.179522 0
1.000000 0.000104 0
0.999861 0.000315 0
0.999577 0.000537 0
0.999140 0.000779 0
0.998533 0.001051 0
0.997734 0.001364 0
0.996711 0.001735 0
0.995421 0.002185 0
0.993807 0.002741 0
0.991792 0.003446 0
0.989269 0.004361 0
0.986093 0.005579 0
0.982055 0.007258 0
0.976854 0.009663 0
0.970049 0.013304 0
0.961007 0.019116 0
0.948845 0.029590 0
0.933544 0.047777 0
0.915718 0.092999 0
0.946153 0.133058 0
0.949711 0.130148 0
0.924350 0.108839 0
0.883782 0.085890 0
0.838851 0.066965 0
0.795339 0.052620 0
0.755637 0.041957 0
0.720389 0.033985 0
0.689478 0.027928 0
0.662507 0.023239 0
0.639011 0.019535 0
0.618550 0.016549 0
0.600736 0.014095 0
0.585247 0.012037 0
0.571816 0.010275 0
0.560231 0.008733 0
0.550322 0.007353 0
0.541959 0.006090 0
0.535037 0.004913 0
0.529466 0.003805 0
0.525164 0.002763 0
0.522038 0.001796 0
0.519981 0.000921 0
0.518862 0.000163 0
0.518557 -0.000438 0
0.518897 -0.000868 0
0.519696 -0.001143 0
0.520788 -0.001284 0
0.522032 -0.001315 0
0.523315 -0.001264 0
0.524552 -0.001158 0
0.525687 -0.001019 0
0.526687 -0.000868 0
0.527538 -0.000718 0
0.528244 -0.000580 0
0.528814 -0.000459 0
0.529266 -0.000357 0
0.529618 -0.000273 0
0.529888 -0.000207 0
0.530095 -0.000156 0
0.530251 -0.000117 0
0.530370 -0.000088 0
0.530460 -0.000066 0
0.530529 -0.000050 0
0.530582 -0.000039 0
0.530624 -0.000030 0
0.530657 -0.000024 0
0.530683 -0.000019 0
0.530705 -0.000015 0
0.530722 -0.000012 0
0.530737 -0.000010 0
0.530749 -0.000009 0
0.530759 -0.000007 0
0.530768 -0.000007 0
0.530776 -0.000006 0
0.530783 -0.000005 0
0.530790 -0.000005 0
0.530796 -0.000005 0
0.530802 -0.000005 0
0.530807 -0.000005 0
0.530814 -0.000006 0
0.530820 -0.000006 0
0.530827 -0.000007 0
0.530835 -0.000008 0
0.530844 -0.000009 0
0.530854 -0.000010 0
0.530865 -0.000012 0
0.530878 -0.000014 0
0.530893 -0.000016 0
0.530910 -0.000018 0
0.530929 -0.000021 0
0.530952 -0.000024 0
0.530978 -0.000028 0
0.531009 -0.000033 0
0.531044 -0.000038 0
0.531085 -0.000044 0
0.531132 -0.000051 0
0.531187 -0.000059 0
0.531251 -0.000069 0
0.531325 -0.000079 0
0.531411 -0.000092 0
0.531510 -0.000107 0
0.531626 -0.000124 0
0.531760 -0.000144 0
0.531916 -0.000167 0
0.532097 -0.000194 0
0.532306 -0.000225 0
0.532550 -0.000262 0
0.532833 -0.000304 0
0.533162 -0.000353 0
0.533545 -0.000411 0
0.533989 -0.000477 0
0.534505 -0.000555 0
0.535106 -0.000646 0
0.535805 -0.000752 0
0.536619 -0.000876 0
0.537566 -0.001020 0
0.538670 -0.001190 0
0.539958 -0.001389 0
0.541461 -0.001624 0
0.543217 -0.001900 0
0.545271 -0.002228 0
0.547676 -0.002616 0
0.550499 -0.003078 0
0.553816 -0.003632 0
0.557725 -0.004298 0
0.562343 -0.005106 0
0.567816 -0.006093 0
0.574327 -0.007308 0
0.582109 -0.008824 0
0.591459 -0.010738 0
0.602767 -0.013194 0
0.616550 -0.016409 0
0.633508 -0.020719 0
0.654602 -0.026667 0
0.681186 -0.035178 0
0.715175 -0.047924 0
0.759261 -0.067977 0
0.816921 -0.102254 0
0.890763 -0.160527 0
0.979470 -0.288886 0
0.996162 -0.380894 0
0.996162 -0.190444 0
1.000000 0.000137 0
0.999865 0.000416 0
0.999590 0.000709 0
0.999167 0.001028 0
0.998581 0.001385 0
0.997809 0.001797 0
0.996823 0.002285 0
0.995584 0.002873 0
0.994039 0.003600 0
0.992120 0.004518 0
0.989733 0.005701 0
0.986755 0.007268 0
0.983017 0.009404 0
0.978295 0.012419 0
0.972296 0.016871 0
0.964706 0.023729 0
0.955309 0.035132 0
0.945520 0.053537 0
0.937885 0.088117 0
0.966486 0.120824 0
0.988888 0.127243 0
0.991371 0.116450 0
0.977437 0.099993 0
0.953862 0.083854 0
0.925893 0.069990 0
0.896762 0.058607 0
0.868266 0.049370 0
0.841335 0.041861 0
0.816401 0.035709 0
0.793620 0.030618 0
0.772996 0.026353 0
0.754460 0.022731 0
0.737909 0.019612 0
0.723231 0.016881 0
0.710321 0.014450 0
0.699080 0.012245 0
0.689424 0.010210 0
0.681275 0.008309 0
0.674559 0.006519 0
0.669199 0.004841 0
0.665106 0.003289 0
0.662171 0.001891 0
0.660262 0.000676 0
0.659242 -0.000316 0
0.658998 -0.001052 0
0.659344 -0.001543 0
0.660109 -0.001819 0
0.661137 -0.001918 0
0.662297 -0.001882 0
0.663486 -0.001750 0
0.664628 -0.001560 0
0.665671 -0.001343 0
0.666588 -0.001122 0
0.667367 -0.000914 0
0.668012 -0.000728 0
0.668533 -0.000570 0
0.668946 -0.000439 0
0.669269 -0.000335 0
0.669519 -0.000253 0
0.669710 -0.000191 0
0.669857 -0.000144 0
0.669969 -0.000109 0
0.670055 -0.000084 0
0.670122 -0.000065 0
0.670175 -0.000050 0
0.670217 -0.000040 0
0.670250 -0.000032 0
0.670277 -0.000026 0
0.670299 -0.000021 0
0.670318 -0.000018 0
0.670333 -0.000015 0
0.670346 -0.000013 0
0.670357 -0.000011 0
0.670367 -0.000010 0
0.670376 -0.000009 0
0.670384 -0.000008 0
0.670391 -0.000008 0
0.670398 -0.000008 0
0.670405 -0.000009 0
0.670411 -0.000009 0
0.670419 -0.000010 0
0.670426 -0.000011 0
0.670435 -0.000012 0
0.670444 -0.000014 0
0.670454 -0.000016 0
0.670466 -0.000018 0
0.670479 -0.000021 0
0.670495 -0.000024 0
0.670512 -0.000027 0
0.670533 -0.000032 0
0.670556 -0.000037 0
0.670583 -0.000042 0
0.670614 -0.000049 0
0.670650 -0.000057 0
0.670692 -0.000066 0
0.670740 -0.000076 0
0.670797 -0.000089 0
0.670862 -0.000103 0
0.670937 -0.000119 0
0.671025 -0.000138 0
0.671127 -0.000161 0
0.671245 -0.000187 0
0.671382 -0.000216 0
0.671541 -0.000251 0
0.671726 -0.000292 0
0.671941 -0.000339 0
0.672190 -0.000393 0
0.672479 -0.000457 0
0.672815 -0.000531 0
0.673206 -0.000617 0
0.673660 -0.000717 0
0.674187 -0.000834 0
0.674801 -0.000970 0
0.675514 -0.001129 0
0.676344 -0.001315 0
0.677311 -0.001532 0
0.678436 -0.001787 0
0.679748 -0.002085 0
0.681278 -0.002436 0
0.683063 -0.002849 0
0.685150 -0.003338 0
0.687590 -0.003916 0
0.690448 -0.004604 0
0.693801 -0.005426 0
0.697742 -0.006413 0
0.702385 -0.007605 0
0.707867 -0.009054 0
0.714362 -0.010832 0
0.722082 -0.013035 0
0.731298 -0.015797 0
0.742353 -0.019310 0
0.755686 -0.023857 0
0.771867 -0.029864 0
0.791638 -0.038001 0
0.815951 -0.049358 0
0.845983 -0.065794 0
0.882998 -0.090470 0
0.927748 -0.129599 0
0.977407 -0.190675 0
1.022482 -0.301343 0
0.997052 -0.375162 0
0.997052 -0.187576 0
1.000000 0.000169 0
0.999870 0.000513 0
0.999607 0.000874 0
0.999202 0.001267 0
0.998640 0.001707 0
0.997903 0.002213 0
0.996964 0.002810 0
0.995788 0.003529 0
0.994328 0.004415 0
0.992526 0.005526 0
0.990304 0.006952 0
0.987564 0.008823 0
0.984180 0.011344 0
0.980005 0.014842 0
0.974888 0.019868 0
0.968781 0.027321 0
0.961948 0.038857 0
0.956312 0.056192 0
0.955070 0.082873 0
0.977407 0.108423 0
1.002632 0.118129 0
1.017524 0.114370 0
1.020154 0.104007 0
1.013261 0.091861 0
1.000152 0.080198 0
0.983425 0.069791 0
0.964873 0.060756 0
0.945685 0.052979 0
0.926634 0.046285 0
0.908220 0.040499 0
0.890755 0.035463 0
0.874432 0.031042 0
0.859363 0.027120 0
0.845608 0.023600 0
0.833195 0.020398 0
0.822130 0.017446 0
0.812402 0.014689 0
0.803991 0.012092 0
0.796863 0.009638 0
0.790973 0.007330 0
0.786259 0.005191 0
0.782641 0.003260 0
0.780016 0.001577 0
0.778258 0.000172 0
0.777281 -0.000917 0
0.776968 -0.001680 0
0.777169 -0.002150 0
0.777740 -0.002372 0
0.778550 -0.002399 0
0.779487 -0.002283 0
0.780461 -0.002074 0
0.781407 -0.001814 0
0.782278 -0.001537 0
0.783049 -0.001268 0
0.783709 -0.001022 0
0.784259 -0.000808 0
0.784706 -0.000629 0
0.785064 -0.000483 0
0.785345 -0.000369 0
0.785564 -0.000280 0
0.785734 -0.000212 0
0.785866 -0.000162 0
0.785967 -0.000124 0
0.786047 -0.000096 0
0.786109 -0.000075 0
0.786158 -0.000060 0
0.786198 -0.000048 0
0.786230 -0.000039 0
0.786256 -0.000032 0
0.786278 -0.000027 0
0.786296 -0.000022 0
0.786311 -0.000019 0
0.786324 -0.000017 0
0.786335 -0.000015 0
0.786345 -0.000013 0
0.786354 -0.000012 0
0.786362 -0.000012 0
0.786370 -0.000012 0
0.786377 -0.000012 0
0.786384 -0.000013 0
0.786392 -0.000014 0
0.786400 -0.000015 0
0.786408 -0.000016 0
0.786417 -0.000018 0
0.786428 -0.000021 0
0.786439 -0.000024 0
0.786452 -0.000027 0
0.786467 -0.000032 0
0.786484 -0.000036 0
0.786503 -0.000042 0
0.786525 -0.000049 0
0.786551 -0.000056 0
0.786581 -0.000065 0
0.786615 -0.000076 0
0.786655 -0.000088 0
0.786701 -0.000101 0
0.786755 -0.000118 0
0.786817 -0.000137 0
0.786889 -0.000158 0
0.786972 -0.000184 0
0.787069 -0.000213 0
0.787181 -0.000247 0
0.787312 -0.000287 0
0.787463 -0.000333 0
0.787639 -0.000387 0
0.787843 -0.000449 0
0.788080 -0.000522 0
0.788355 -0.000606 0
0.788675 -0.000704 0
0.789046 -0.000819 0
0.789477 -0.000951 0
0.789978 -0.001106 0
0.790561 -0.001287 0
0.791238 -0.001497 0
0.792025 -0.001743 0
0.792941 -0.002031 0
0.794008 -0.002367 0
0.795250 -0.002762 0
0.796696 -0.003225 0
0.798383 -0.003770 0
0.800352 -0.004414 0
0.802650 -0.005175 0
0.805338 -0.006078 0
0.808484 -0.007155 0
0.812172 -0.008444 0
0.816502 -0.009996 0
0.821596 -0.011877 0
0.827603 -0.014174 0
0.834702 -0.017004 0
0.843117 -0.020528 0
0.853120 -0.024973 0
0.865048 -0.030665 0
0.879312 -0.038084 0
0.896397 -0.047959 0
0.916844 -0.061426 0
0.941139 -0.080307 0
0.969371 -0.107469 0
1.000401 -0.147852 0
1.028847 -0.206283 0
1.043334 -0.298374 0
0.997830 -0.356320 0
0.997830 -0.178154 0
1.000000 0.000200 0
0.999877 0.000606 0
0.999627 0.001032 0
0.999242 0.001495 0
0.998711 0.002012 0
0.998015 0.002607 0
0.997131 0.003306 0
0.996028 0.004146 0
0.994668 0.005176 0
0.993002 0.006461 0
0.990968 0.008098 0
0.988494 0.010226 0
0.985498 0.013055 0
0.981905 0.016907 0
0.977685 0.022293 0
0.972983 0.029978 0
0.968352 0.041154 0
0.965711 0.056859 0
0.968098 0.077928 0
0.985441 0.097852 0
1.008011 0.107866 0
1.026362 0.107987 0
1.037027 0.102052 0
1.040338 0.093514 0
1.037895 0.084400 0
1.031338 0.075647 0
1.022000 0.067598 0
1.010891 0.060330 0
0.998761 0.053805 0
0.986167 0.047947 0
0.973523 0.042672 0
0.961135 0.037894 0
0.949232 0.033533 0
0.937983 0.029520 0
0.927513 0.025790 0
0.917909 0.022288 0
0.909230 0.018971 0
0.901513 0.015814 0
0.894769 0.012807 0
0.888994 0.009963 0
0.884165 0.007314 0
0.880241 0.004907 0
0.877166 0.002793 0
0.874861 0.001005 0
0.873239 -0.000429 0
0.872260 -0.001489 0
0.871825 -0.002192 0
0.871822 -0.002585 0
0.872142 -0.002725 0
0.872681 -0.002673 0
0.873349 -0.002487 0
0.874070 -0.002220 0
0.874787 -0.001915 0
0.875461 -0.001605 0
0.876066 -0.001313 0
0.876591 -0.001051 0
0.877034 -0.000828 0
0.877398 -0.000643 0
0.877692 -0.000495 0
0.877926 -0.000379 0
0.878111 -0.000290 0
0.878255 -0.000222 0
0.878368 -0.000171 0
0.878457 -0.000133 0
0.878527 -0.000104 0
0.878582 -0.000083 0
0.878627 -0.000067 0
0.878663 -0.000054 0
0.878692 -0.000044 0
0.878716 -0.000037 0
0.878736 -0.000031 0
0.878753 -0.000026 0
0.878768 -0.000023 0
0.878780 -0.000020 0
0.878791 -0.000018 0
0.878800 -0.000017 0
0.878809 -0.000016 0
0.878817 -0.000015 0
0.878824 -0.000016 0
0.878832 -0.000016 0
0.878839 -0.000017 0
0.878847 -0.000019 0
0.878855 -0.000021 0
0.878864 -0.000023 0
0.878873 -0.000026 0
0.878884 -0.000030 0
0.878896 -0.000034 0
0.878909 -0.000039 0
0.878925 -0.000045 0
0.878943 -0.000052 0
0.878963 -0.000060 0
0.878987 -0.000069 0
0.879014 -0.000080 0
0.879045 -0.000093 0
0.879081 -0.000108 0
0.879123 -0.000125 0
0.879172 -0.000145 0
0.879229 -0.000168 0
0.879294 -0.000194 0
0.879370 -0.000226 0
0.879458 -0.000262 0
0.879560 -0.000304 0
0.879679 -0.000353 0
0.879817 -0.000409 0
0.879976 -0.000475 0
0.880162 -0.000552 0
0.880377 -0.000641 0
0.880627 -0.000744 0
0.880917 -0.000865 0
0.881254 -0.001005 0
0.881645 -0.001168 0