# vtk DataFile Version 2.0
generated by CFD-lab course output (written by Tobias Neckel) 
ASCII

DATASET STRUCTURED_GRID
DIMENSIONS  142 42 1 
POINTS 5964 float

0.000000 0.250000 0
0.024648 0.250000 0
0.049296 0.250000 0
0.073944 0.250000 0
0.098592 0.250000 0
0.123239 0.250000 0
0.147887 0.250000 0
0.172535 0.250000 0
0.197183 0.250000 0
0.221831 0.250000 0
0.246479 0.250000 0
0.271127 0.250000 0
0.295775 0.250000 0
0.320423 0.250000 0
0.345070 0.250000 0
0.369718 0.250000 0
0.394366 0.250000 0
0.419014 0.250000 0
0.443662 0.250000 0
0.468310 0.250000 0
0.492958 0.250000 0
0.517606 0.250000 0
0.542254 0.250000 0
0.566901 0.250000 0
0.591549 0.250000 0
0.616197 0.250000 0
0.640845 0.250000 0
0.665493 0.250000 0
0.690141 0.250000 0
0.714789 0.250000 0
0.739437 0.250000 0
0.764085 0.250000 0
0.788732 0.250000 0
0.813380 0.250000 0
0.838028 0.250000 0
0.862676 0.250000 0
0.887324 0.250000 0
0.911972 0.250000 0
0.936620 0.250000 0
0.961268 0.250000 0
0.985915 0.250000 0
1.010563 0.250000 0
1.035211 0.250000 0
1.059859 0.250000 0
1.084507 0.250000 0
1.109155 0.250000 0
1.133803 0.250000 0
1.158451 0.250000 0
1.183099 0.250000 0
1.207746 0.250000 0
1.232394 0.250000 0
1.257042 0.250000 0
1.281690 0.250000 0
1.306338 0.250000 0
1.330986 0.250000 0
1.355634 0.250000 0
1.380282 0.250000 0
1.404930 0.250000 0
1.429577 0.250000 0
1.454225 0.250000 0
1.478873 0.250000 0
1.503521 0.250000 0
1.528169 0.250000 0
1.552817 0.250000 0
1.577465 0.250000 0
1.602113 0.250000 0
1.626761 0.250000 0
1.651408 0.250000 0
1.676056 0.250000 0
1.700704 0.250000 0
1.725352 0.250000 0
1.750000 0.250000 0
1.774648 0.250000 0
1.799296 0.250000 0
1.823944 0.250000 0
1.848592 0.250000 0
1.873239 0.250000 0
1.897887 0.250000 0
1.922535 0.250000 0
1.947183 0.250000 0
1.971831 0.250000 0
1.996479 0.250000 0
2.021127 0.250000 0
2.045775 0.250000 0
2.070423 0.250000 0
2.095070 0.250000 0
2.119718 0.250000 0
2.144366 0.250000 0
2.169014 0.250000 0
2.193662 0.250000 0
2.218310 0.250000 0
2.242958 0.250000 0
2.267606 0.250000 0
2.292254 0.250000 0
2.316901 0.250000 0
2.341549 0.250000 0
2.366197 0.250000 0
2.390845 0.250000 0
2.415493 0.250000 0
2.440141 0.250000 0
2.464789 0.250000 0
2.489437 0.250000 0
2.514085 0.250000 0
2.538732 0.250000 0
2.563380 0.250000 0
2.588028 0.250000 0
2.612676 0.250000 0
2.637324 0.250000 0
2.661972 0.250000 0
2.686620 0.250000 0
2.711268 0.250000 0
2.735915 0.250000 0
2.760563 0.250000 0
2.785211 0.250000 0
2.809859 0.250000 0
2.834507 0.250000 0
2.859155 0.250000 0
2.883803 0.250000 0
2.908451 0.250000 0
2.933099 0.250000 0
2.957746 0.250000 0
2.982394 0.250000 0
3.007042 0.250000 0
3.031690 0.250000 0
3.056338 0.250000 0
3.080986 0.250000 0
3.105634 0.250000 0
3.130282 0.250000 0
3.154930 0.250000 0
3.179577 0.250000 0
3.204225 0.250000 0
3.228873 0.250000 0
3.253521 0.250000 0
3.278169 0.250000 0
3.302817 0.250000 0
3.327465 0.250000 0
3.352113 0.250000 0
3.376761 0.250000 0
3.401408 0.250000 0
3.426056 0.250000 0
3.450704 0.250000 0
3.475352 0.250000 0
0.000000 0.261905 0
0.024648 0.261905 0
0.049296 0.261905 0
0.073944 0.261905 0
0.098592 0.261905 0
0.123239 0.261905 0
0.147887 0.261905 0
0.172535 0.261905 0
0.197183 0.261905 0
0.221831 0.261905 0
0.246479 0.261905 0
0.271127 0.261905 0
0.295775 0.261905 0
0.320423 0.261905 0
0.345070 0.261905 0
0.369718 0.261905 0
0.394366 0.261905 0
0.419014 0.261905 0
0.443662 0.261905 0
0.468310 0.261905 0
0.492958 0.261905 0
0.517606 0.261905 0
0.542254 0.261905 0
0.566901 0.261905 0
0.591549 0.261905 0
0.616197 0.261905 0
0.640845 0.261905 0
0.665493 0.261905 0
0.690141 0.261905 0
0.714789 0.261905 0
0.739437 0.261905 0
0.764085 0.261905 0
0.788732 0.261905 0
0.813380 0.261905 0
0.838028 0.261905 0
0.862676 0.261905 0
0.887324 0.261905 0
0.911972 0.261905 0
0.936620 0.261905 0
0.961268 0.261905 0
0.985915 0.261905 0
1.010563 0.261905 0
1.035211 0.261905 0
1.059859 0.261905 0
1.084507 0.261905 0
1.109155 0.261905 0
1.133803 0.261905 0
1.158451 0.261905 0
1.183099 0.261905 0
1.207746 0.261905 0
1.232394 0.261905 0
1.257042 0.261905 0
1.281690 0.261905 0
1.306338 0.261905 0
1.330986 0.261905 0
1.355634 0.261905 0
1.380282 0.261905 0
1.404930 0.261905 0
1.429577 0.261905 0
1.454225 0.261905 0
1.478873 0.261905 0
1.503521 0.261905 0
1.528169 0.261905 0
1.552817 0.261905 0
1.577465 0.261905 0
1.602113 0.261905 0
1.626761 0.261905 0
1.651408 0.261905 0
1.676056 0.261905 0
1.700704 0.261905 0
1.725352 0.261905 0
1.750000 0.261905 0
1.774648 0.261905 0
1.799296 0.261905 0
1.823944 0.261905 0
1.848592 0.261905 0
1.873239 0.261905 0
1.897887 0.261905 0
1.922535 0.261905 0
1.947183 0.261905 0
1.971831 0.261905 0
1.996479 0.261905 0
2.021127 0.261905 0
2.045775 0.261905 0
2.070423 0.261905 0
2.095070 0.261905 0
2.119718 0.261905 0
2.144366 0.261905 0
2.169014 0.261905 0
2.193662 0.261905 0
2.218310 0.261905 0
2.242958 0.261905 0
2.267606 0.261905 0
2.292254 0.261905 0
2.316901 0.261905 0
2.341549 0.261905 0
2.366197 0.261905 0
2.390845 0.261905 0
2.415493 0.261905 0
2.440141 0.261905 0
2.464789 0.261905 0
2.489437 0.261905 0
2.514085 0.261905 0
2.538732 0.261905 0
2.563380 0.261905 0
2.588028 0.261905 0
2.612676 0.261905 0
2.637324 0.261905 0
2.661972 0.261905 0
2.686620 0.261905 0
2.711268 0.261905 0
2.735915 0.261905 0
2.760563 0.261905 0
2.785211 0.261905 0
2.809859 0.261905 0
2.834507 0.261905 0
2.859155 0.261905 0
2.883803 0.261905 0
2.908451 0.261905 0
2.933099 0.261905 0
2.957746 0.261905 0
2.982394 0.261905 0
3.007042 0.261905 0
3.031690 0.261905 0
3.056338 0.261905 0
3.080986 0.261905 0
3.105634 0.261905 0
3.130282 0.261905 0
3.154930 0.261905 0
3.179577 0.261905 0
3.204225 0.261905 0
3.228873 0.261905 0
3.253521 0.261905 0
3.278169 0.261905 0
3.302817 0.261905 0
3.327465 0.261905 0
3.352113 0.261905 0
3.376761 0.261905 0
3.401408 0.261905 0
3.426056 0.261905 0
3.450704 0.261905 0
3.475352 0.261905 0
0.000000 0.273810 0
0.024648 0.273810 0
0.049296 0.273810 0
0.073944 0.273810 0
0.098592 0.273810 0
0.123239 0.273810 0
0.147887 0.273810 0
0.172535 0.273810 0
0.197183 0.273810 0
0.221831 0.273810 0
0.246479 0.273810 0
0.271127 0.273810 0
0.295775 0.273810 0
0.320423 0.273810 0
0.345070 0.273810 0
0.369718 0.273810 0
0.394366 0.273810 0
0.419014 0.273810 0
0.443662 0.273810 0
0.468310 0.273810 0
0.492958 0.273810 0
0.517606 0.273810 0
0.542254 0.273810 0
0.566901 0.273810 0
0.591549 0.273810 0
0.616197 0.273810 0
0.640845 0.273810 0
0.665493 0.273810 0
0.690141 0.273810 0
0.714789 0.273810 0
0.739437 0.273810 0
0.764085 0.273810 0
0.788732 0.273810 0
0.813380 0.273810 0
0.838028 0.273810 0
0.862676 0.273810 0
0.887324 0.273810 0
0.911972 0.273810 0
0.936620 0.273810 0
0.961268 0.273810 0
0.985915 0.273810 0
1.010563 0.273810 0
1.035211 0.273810 0
1.059859 0.273810 0
1.084507 0.273810 0
1.109155 0.273810 0
1.133803 0.273810 0
1.158451 0.273810 0
1.183099 0.273810 0
1.207746 0.273810 0
1.232394 0.273810 0
1.257042 0.273810 0
1.281690 0.273810 0
1.306338 0.273810 0
1.330986 0.273810 0
1.355634 0.273810 0
1.380282 0.273810 0
1.404930 0.273810 0
1.429577 0.273810 0
1.454225 0.273810 0
1.478873 0.273810 0
1.503521 0.273810 0
1.528169 0.273810 0
1.552817 0.273810 0
1.577465 0.273810 0
1.602113 0.273810 0
1.626761 0.273810 0
1.651408 0.273810 0
1.676056 0.273810 0
1.700704 0.273810 0
1.725352 0.273810 0
1.750000 0.273810 0
1.774648 0.273810 0
1.799296 0.273810 0
1.823944 0.273810 0
1.848592 0.273810 0
1.873239 0.273810 0
1.897887 0.273810 0
1.922535 0.273810 0
1.947183 0.273810 0
1.971831 0.273810 0
1.996479 0.273810 0
2.021127 0.273810 0
2.045775 0.273810 0
2.070423 0.273810 0
2.095070 0.273810 0
2.119718 0.273810 0
2.144366 0.273810 0
2.169014 0.273810 0
2.193662 0.273810 0
2.218310 0.273810 0
2.242958 0.273810 0
2.267606 0.273810 0
2.292254 0.273810 0
2.316901 0.273810 0
2.341549 0.273810 0
2.366197 0.273810 0
2.390845 0.273810 0
2.415493 0.273810 0
2.440141 0.273810 0
2.464789 0.273810 0
2.489437 0.273810 0
2.514085 0.273810 0
2.538732 0.273810 0
2.563380 0.273810 0
2.588028 0.273810 0
2.612676 0.273810 0
2.637324 0.273810 0
2.661972 0.273810 0
2.686620 0.273810 0
2.711268 0.273810 0
2.735915 0.273810 0
2.760563 0.273810 0
2.785211 0.273810 0
2.809859 0.273810 0
2.834507 0.273810 0
2.859155 0.273810 0
2.883803 0.273810 0
2.908451 0.273810 0
2.933099 0.273810 0
2.957746 0.273810 0
2.982394 0.273810 0
3.007042 0.273810 0
3.031690 0.273810 0
3.056338 0.273810 0
3.080986 0.273810 0
3.105634 0.273810 0
3.130282 0.273810 0
3.154930 0.273810 0
3.179577 0.273810 0
3.204225 0.273810 0
3.228873 0.273810 0
3.253521 0.273810 0
3.278169 0.273810 0
3.302817 0.273810 0
3.327465 0.273810 0
3.352113 0.273810 0
3.376761 0.273810 0
3.401408 0.273810 0
3.426056 0.273810 0
3.450704 0.273810 0
3.475352 0.273810 0
0.000000 0.285714 0
0.024648 0.285714 0
0.049296 0.285714 0
0.073944 0.285714 0
0.098592 0.285714 0
0.123239 0.285714 0
0.147887 0.285714 0
0.172535 0.285714 0
0.197183 0.285714 0
0.221831 0.285714 0
0.246479 0.285714 0
0.271127 0.285714 0
0.295775 0.285714 0
0.320423 0.285714 0
0.345070 0.285714 0
0.369718 0.285714 0
0.394366 0.285714 0
0.419014 0.285714 0
0.443662 0.285714 0
0.468310 0.285714 0
0.492958 0.285714 0
0.517606 0.285714 0
0.542254 0.285714 0
0.566901 0.285714 0
0.591549 0.285714 0
0.616197 0.285714 0
0.640845 0.285714 0
0.665493 0.285714 0
0.690141 0.285714 0
0.714789 0.285714 0
0.739437 0.285714 0
0.764085 0.285714 0
0.788732 0.285714 0
0.813380 0.285714 0
0.838028 0.285714 0
0.862676 0.285714 0
0.887324 0.285714 0
0.911972 0.285714 0
0.936620 0.285714 0
0.961268 0.285714 0
0.985915 0.285714 0
1.010563 0.285714 0
1.035211 0.285714 0
1.059859 0.285714 0
1.084507 0.285714 0
1.109155 0.285714 0
1.133803 0.285714 0
1.158451 0.285714 0
1.183099 0.285714 0
1.207746 0.285714 0
1.232394 0.285714 0
1.257042 0.285714 0
1.281690 0.285714 0
1.306338 0.285714 0
1.330986 0.285714 0
1.355634 0.285714 0
1.380282 0.285714 0
1.404930 0.285714 0
1.429577 0.285714 0
1.454225 0.285714 0
1.478873 0.285714 0
1.503521 0.285714 0
1.528169 0.285714 0
1.552817 0.285714 0
1.577465 0.285714 0
[...]
POINT_DATA 5964 

VECTORS velocity float
1.000000 0.000000 0
0.999854 0.000000 0
0.999556 0.000000 0
0.999097 0.000000 0
0.998459 0.000000 0
0.997615 0.000000 0
0.996533 0.000000 0
0.995163 0.000000 0
0.993441 0.000000 0
0.991278 0.000000 0
0.988546 0.000000 0
0.985066 0.000000 0
0.980566 0.000000 0
0.974621 0.000000 0
0.966525 0.000000 0
0.954944 0.000000 0
0.937396 0.000000 0
0.905775 0.000000 0
0.847712 0.000000 0
-0.000000 0.000000 0
-0.000000 0.000000 0
-0.000000 0.000000 0
-0.000000 0.000000 0
-0.000000 0.000000 0
-0.000000 0.000000 0
-0.000000 0.000000 0
-0.000000 0.000000 0
-0.000000 0.000000 0
-0.000000 0.000000 0
-0.000000 0.000000 0
-0.000000 0.000000 0
-0.000000 0.000000 0
-0.000000 0.000000 0
-0.000000 0.000000 0
-0.000000 0.000000 0
-0.000000 0.000000 0
-0.000000 0.000000 0
-0.000000 0.000000 0
-0.000000 0.000000 0
-0.000000 0.000000 0
-0.000000 0.000000 0
-0.000000 0.000000 0
-0.000000 0.000000 0
-0.000000 0.000000 0
-0.000000 0.000000 0
-0.000000 0.000000 0
-0.000000 0.000000 0
-0.000000 0.000000 0
-0.000000 0.000000 0
-0.000000 0.000000 0
-0.000000 0.000000 0
-0.000000 0.000000 0
-0.000000 0.000000 0
-0.000000 0.000000 0
-0.000000 0.000000 0
-0.000000 0.000000 0
-0.000000 0.000000 0
-0.000000 0.000000 0
-0.000000 0.000000 0
-0.000000 0.000000 0
-0.000001 0.000000 0
-0.000001 0.000000 0
-0.000001 0.000000 0
-0.000001 0.000000 0
-0.000001 0.000000 0
-0.000001 0.000000 0
-0.000001 0.000000 0
-0.000001 0.000000 0
-0.000001 0.000000 0
-0.000001 0.000000 0
-0.000001 0.000000 0
-0.000001 0.000000 0
-0.000001 0.000000 0
-0.000002 0.000000 0
-0.000002 0.000000 0
-0.000002 0.000000 0
-0.000002 0.000000 0
-0.000002 0.000000 0
-0.000002 0.000000 0
-0.000002 0.000000 0
-0.000002 0.000000 0
-0.000002 0.000000 0
-0.000002 0.000000 0
-0.000002 0.000000 0
-0.000002 0.000000 0
-0.000002 0.000000 0
-0.000002 0.000000 0
-0.000002 0.000000 0
-0.000002 0.000000 0
-0.000002 0.000000 0
-0.000002 0.000000 0
-0.000002 0.000000 0
-0.000002 0.000000 0
-0.000002 0.000000 0
-0.000002 0.000000 0
-0.000002 0.000000 0
-0.000002 0.000000 0
-0.000002 0.000000 0
-0.000002 0.000000 0
-0.000002 0.000000 0
-0.000002 0.000000 0
-0.000002 0.000000 0
-0.000002 0.000000 0
-0.000002 0.000000 0
-0.000002 0.000000 0
-0.000002 0.000000 0
-0.000002 0.000000 0
-0.000002 0.000000 0
-0.000002 0.000000 0
-0.000002 0.000000 0
-0.000002 0.000000 0
-0.000002 0.000000 0
-0.000002 0.000000 0
-0.000002 0.000000 0
-0.000002 0.000000 0
-0.000002 0.000000 0
-0.000002 0.000000 0
-0.000002 0.000000 0
-0.000002 0.000000 0
-0.000002 0.000000 0
-0.000002 0.000000 0
-0.000002 0.000000 0
-0.000002 0.000000 0
-0.000002 0.000000 0
-0.000002 0.000000 0
-0.000002 0.000000 0
-0.000002 0.000000 0
-0.000002 0.000000 0
-0.000002 0.000000 0
-0.000002 0.000000 0
-0.000002 0.000000 0
-0.000001 0.000000 0
-0.000001 0.000000 0
-0.000001 0.000000 0
-0.000001 0.000000 0
-0.000001 0.000000 0
-0.000001 0.000000 0
-0.000000 0.000000 0
0.000000 0.000000 0
0.000000 0.000000 0
-0.000000 0.000000 0
0.496727 0.000000 0
1.000000 0.000035 0
0.999854 0.000107 0
0.999558 0.000183 0
0.999101 0.000265 0
0.998466 0.000358 0
0.997627 0.000465 0
0.996550 0.000592 0
0.995188 0.000747 0
0.993476 0.000938 0
0.991327 0.001182 0
0.988617 0.001500 0
0.985169 0.001927 0
0.980719 0.002522 0
0.974856 0.003391 0
0.966911 0.004752 0
0.955651 0.007035 0
0.938838 0.011874 0
0.910196 0.021658 0
0.860893 0.078852 0
0.714909 0.110956 0
0.576529 0.072745 0
0.473045 0.041074 0
0.401098 0.022637 0
0.351200 0.013307 0
0.315543 0.008678 0
0.289044 0.006200 0
0.268612 0.004716 0
0.252361 0.003737 0
0.239105 0.003047 0
0.228069 0.002539 0
0.218726 0.002153 0
0.210706 0.001851 0
0.203741 0.001611 0
0.197631 0.001416 0
0.192224 0.001255 0
0.187402 0.001121 0
0.183074 0.001008 0
0.179165 0.000912 0
0.175616 0.000830 0
0.172377 0.000759 0
0.169410 0.000696 0
0.166680 0.000642 0
0.164159 0.000594 0
0.161824 0.000551 0
0.159655 0.000513 0
0.157635 0.000479 0
0.155748 0.000448 0
0.153984 0.000420 0
0.152330 0.000394 0
0.150777 0.000370 0
0.149318 0.000349 0
0.147946 0.000329 0
0.146653 0.000310 0
0.145436 0.000293 0
0.144290 0.000277 0
0.143210 0.000261 0
0.142193 0.000246 0
0.141237 0.000232 0
0.140339 0.000219 0
0.139497 0.000206 0
0.138710 0.000193 0
0.137977 0.000181 0
0.137297 0.000168 0
0.136670 0.000155 0
0.136097 0.000143 0
0.135577 0.000130 0
0.135111 0.000117 0
0.134700 0.000104 0
0.134343 0.000090 0
0.134041 0.000076 0
0.133794 0.000063 0
0.133599 0.000049 0
0.133456 0.000036 0
0.133362 0.000023 0
0.133314 0.000012 0
0.133306 0.000002 0
0.133332 -0.000007 0
0.133386 -0.000015 0
0.133462 -0.000020 0
0.133557 -0.000025 0
0.133664 -0.000028 0
0.133780 -0.000031 0
0.133900 -0.000032 0
0.134021 -0.000032 0
0.134142 -0.000032 0
0.134259 -0.000031 0
0.134371 -0.000030 0
0.134478 -0.000029 0
0.134578 -0.000027 0
0.134672 -0.000026 0
0.134761 -0.000024 0
0.134844 -0.000023 0
0.134923 -0.000022 0
0.135000 -0.000022 0
0.135074 -0.000021 0
0.135149 -0.000022 0
0.135224 -0.000022 0
0.135303 -0.000023 0
0.135387 -0.000025 0
0.135478 -0.000027 0
0.135578 -0.000030 0
0.135690 -0.000034 0
0.135815 -0.000038 0
0.135957 -0.000043 0
0.136119 -0.000049 0
0.136303 -0.000056 0
0.136515 -0.000064 0
0.136758 -0.000074 0
0.137037 -0.000085 0
0.137357 -0.000098 0
0.137726 -0.000112 0
0.138150 -0.000129 0
0.138638 -0.000149 0
0.139199 -0.000172 0
0.139846 -0.000198 0
0.140592 -0.000228 0
0.141452 -0.000263 0
0.142445 -0.000304 0
0.143592 -0.000352 0
0.144919 -0.000409 0
0.146457 -0.000475 0
0.148243 -0.000553 0
0.150321 -0.000645 0
0.152745 -0.000756 0
0.155582 -0.000889 0
0.158915 -0.001050 0
0.162847 -0.001248 0
0.167513 -0.001493 0
0.173084 -0.001801 0
0.179791 -0.002195 0
0.187941 -0.002709 0
0.197964 -0.003396 0
0.210475 -0.004344 0
0.226384 -0.005702 0
0.247100 -0.007742 0
0.274915 -0.011018 0
0.313834 -0.016700 0
0.371167 -0.028253 0
0.463780 -0.050685 0
0.617820 -0.167303 0
0.993769 -0.269398 0
0.993769 -0.134699 0
1.000000 0.000070 0
0.999856 0.000213 0
0.999564 0.000364 0
0.999113 0.000528 0
0.998487 0.000712 0
0.997660 0.000925 0
0.996600 0.001178 0
0.995261 0.001484 0
0.993580 0.001865 0
0.991475 0.002347 0
0.988828 0.002975 0
0.985473 0.003815 0
0.981168 0.004981 0
0.975547 0.006669 0
0.968033 0.009276 0
0.957659 0.013559 0
0.942797 0.021955 0
0.920710 0.037646 0
0.888389 0.094322 0
0.891023 0.137346 0
0.842180 0.116818 0
0.771657 0.084732 0
0.701270 0.058850 0
0.639978 0.041323 0
0.589326 0.030021 0
0.548005 0.022667 0
0.514137 0.017718 0
0.486066 0.014252 0
0.462502 0.011733 0
0.442475 0.009843 0
0.425260 0.008386 0
0.410310 0.007238 0
0.397207 0.006315 0
0.385630 0.005563 0
0.375325 0.004940 0
0.366094 0.004419 0
0.357775 0.003979 0
0.350238 0.003602 0
0.343377 0.003278 0
0.337104 0.002997 0
0.331347 0.002752 0
0.326042 0.002536 0
0.321139 0.002345 0
0.316594 0.002175 0
0.312369 0.002024 0
0.308433 0.001887 0
0.304757 0.001763 0
0.301319 0.001651 0
0.298097 0.001549 0
0.295073 0.001455 0
0.292234 0.001368 0
0.289564 0.001287 0
0.287053 0.001212 0
0.284690 0.001142 0
0.282467 0.001075 0
0.280377 0.001013 0
0.278413 0.000953 0
0.276569 0.000896 0
0.274842 0.000840 0
0.273228 0.000787 0
0.271723 0.000734 0
0.270327 0.000682 0
0.269038 0.000631 0
0.267855 0.000580 0
0.266778 0.000528 0
0.265806 0.000476 0
0.264941 0.000424 0
0.264181 0.000371 0
0.263527 0.000318 0
0.262978 0.000265 0
0.262530 0.000214 0
0.262182 0.000163 0
0.261929 0.000114 0
0.261764 0.000069 0
0.261682 0.000027 0
0.261673 -0.000009 0
0.261725 -0.000039 0
0.261827 -0.000063 0
0.261970 -0.000083 0
0.262142 -0.000097 0
0.262336 -0.000108 0
0.262544 -0.000114 0
0.262759 -0.000117 0
0.262975 -0.000117 0
0.263188 -0.000115 0
0.263394 -0.000111 0
0.263591 -0.000106 0
0.263778 -0.000100 0
0.263953 -0.000094 0
0.264116 -0.000088 0
0.264269 -0.000083 0
0.264412 -0.000079 0
0.264548 -0.000075 0
0.264678 -0.000073 0
0.264804 -0.000072 0
0.264930 -0.000073 0
0.265057 -0.000075 0
0.265190 -0.000079 0
0.265330 -0.000084 0
0.265482 -0.000092 0
0.265650 -0.000102 0
0.265836 -0.000114 0
0.266045 -0.000129 0
0.266282 -0.000147 0
0.266553 -0.000167 0
0.266861 -0.000191 0
0.267215 -0.000219 0
0.267621 -0.000252 0
0.268087 -0.000289 0
0.268623 -0.000333 0
0.269239 -0.000383 0
0.269948 -0.000440 0
0.270763 -0.000507 0
0.271701 -0.000584 0
0.272781 -0.000673 0
0.274024 -0.000775 0
0.275458 -0.000895 0
0.277111 -0.001034 0
0.279019 -0.001195 0
0.281224 -0.001384 0
0.283775 -0.001605 0
0.286732 -0.001866 0
0.290166 -0.002174 0
0.294161 -0.002541 0
0.298822 -0.002980 0
0.304279 -0.003509 0
0.310691 -0.004153 0
0.318259 -0.004944 0
0.327241 -0.005930 0
0.337971 -0.007175 0
0.350893 -0.008778 0
0.366607 -0.010884 0
0.385943 -0.013727 0
0.410085 -0.017690 0
0.440775 -0.023440 0
0.480662 -0.032232 0
0.533946 -0.046489 0
0.607262 -0.072423 0
0.711987 -0.119131 0
0.863043 -0.255981 0
0.994503 -0.363162 0
0.994503 -0.181581 0
1.000000 0.000105 0
0.999860 0.000318 0
0.999574 0.000542 0
0.999133 0.000786 0
0.998521 0.001060 0
0.997715 0.001376 0
0.996682 0.001751 0
0.995380 0.002205 0
0.993751 0.002767 0
0.991717 0.003478 0
0.989171 0.004399 0
0.985966 0.005627 0
0.981892 0.007316 0
0.976648 0.009735 0
0.969790 0.013392 0
0.960683 0.019223 0
0.948443 0.029720 0
0.933043 0.047937 0
0.915105 0.093191 0
0.945354 0.133275 0
0.948657 0.130398 0
0.922978 0.109132 0
0.882032 0.086238 0
0.836652 0.067375 0
0.792617 0.053100 0
0.752300 0.042516 0
0.716336 0.034632 0
0.684590 0.028676 0
0.656645 0.024101 0
0.632016 0.020527 0
0.610238 0.017688 0
0.590897 0.015401 0
0.573641 0.013531 0
0.558171 0.011984 0
0.544236 0.010691 0
0.531628 0.009598 0
0.520172 0.008667 0
0.509721 0.007866 0
0.500150 0.007173 0
0.491355 0.006569 0
0.483247 0.006039 0
0.475750 0.005572 0
0.468798 0.005157 0
0.462336 0.004787 0
0.456315 0.004455 0
0.450694 0.004155 0
0.445437 0.003884 0
0.440511 0.003637 0
0.435890 0.003410 0
0.431550 0.003202 0
0.427471 0.003010 0
0.423633 0.002831 0
0.420022 0.002664 0
0.416624 0.002508 0
0.413426 0.002360 0
0.410420 0.002219 0
0.407596 0.002086 0
0.404947 0.001957 0
0.402466 0.001833 0
0.400150 0.001712 0
0.397993 0.001594 0
0.395994 0.001478 0
0.394150 0.001362 0
0.392459 0.001247 0
0.390922 0.001132 0
0.389536 0.001017 0
0.388301 0.000902 0
0.387217 0.000786 0
0.386281 0.000671 0
0.385492 0.000558 0
0.384844 0.000447 0
0.384333 0.000340 0
0.383953 0.000238 0
0.383693 0.000142 0
0.383546 0.000056 0
0.383499 -0.000019 0
0.383539 -0.000082 0
0.383651 -0.000133 0
0.383818 -0.000172 0
0.384030 -0.000202 0
0.384272 -0.000222 0
0.384536 -0.000235 0
0.384812 -0.000240 0
0.385091 -0.000240 0
0.385368 -0.000235 0
0.385638 -0.000226 0
0.385896 -0.000215 0
0.386141 -0.000203 0
0.386371 -0.000191 0
0.386587 -0.000179 0
0.386788 -0.000167 0
0.386977 -0.000158 0
0.387155 -0.000150 0
0.387324 -0.000145 0
0.387489 -0.000143 0
0.387651 -0.000144 0
0.387814 -0.000148 0
0.387982 -0.000155 0
0.388160 -0.000166 0
0.388351 -0.000181 0
0.388560 -0.000201 0
0.388793 -0.000225 0
0.389053 -0.000254 0
0.389348 -0.000288 0
0.389683 -0.000329 0
0.390065 -0.000376 0
0.390503 -0.000431 0
0.391005 -0.000495 0
0.391582 -0.000569 0
0.392244 -0.000654 0
0.393005 -0.000752 0
0.393880 -0.000865 0
0.394887 -0.000996 0
0.396045 -0.001146 0
0.397377 -0.001320 0
0.398910 -0.001521 0
0.400676 -0.001754 0
0.402710 -0.002024 0
0.405055 -0.002339 0
0.407762 -0.002706 0
0.410889 -0.003135 0
0.414506 -0.003639 0
0.418696 -0.004233 0
0.423559 -0.004937 0
0.429216 -0.005776 0
0.435814 -0.006783 0
0.443532 -0.008000 0
0.452593 -0.009486 0
0.463280 -0.011322 0
0.475950 -0.013619 0
0.491064 -0.016540 0
0.509231 -0.020325 0
0.531262 -0.025344 0
0.558263 -0.032185 0
0.591764 -0.041831 0
0.633903 -0.056018 0
0.687660 -0.077847 0
0.756849 -0.114246 0
0.844776 -0.174226 0
0.950799 -0.303756 0
0.995341 -0.396386 0
0.995341 -0.198193 0
1.000000 0.000138 0
0.999864 0.000419 0
0.999587 0.000715 0
0.999160 0.001036 0
0.998569 0.001397 0
0.997790 0.001814 0
0.996795 0.002305 0
0.995544 0.002900 0
0.993985 0.003634 0
0.992047 0.004559 0
0.989637 0.005752 0
0.986631 0.007331 0
0.982859 0.009481 0
0.978095 0.012514 0
0.972044 0.016987 0
0.964392 0.023870 0
0.954918 0.035305 0
0.945033 0.053749 0
0.937286 0.088376 0
0.965730 0.121141 0
0.987913 0.127626 0
0.990108 0.116911 0
0.975813 0.100545 0
0.951796 0.084510 0
0.923292 0.070762 0
0.893521 0.059510 0
0.864262 0.050422 0
0.836428 0.043082 0
0.810430 0.037126 0
0.786397 0.032257 0
0.764304 0.028246 0
0.744050 0.024913 0
0.725496 0.022122 0
0.708492 0.019765 0
0.692890 0.017760 0
0.678551 0.016042 0
0.665346 0.014560 0
0.653159 0.013273 0
0.641888 0.012149 0
0.631441 0.011161 0
0.621737 0.010289 0
0.612705 0.009515 0
0.604281 0.008824 0
0.596410 0.008205 0
0.589043 0.007646 0
0.582138 0.007141 0
0.575656 0.006682 0
0.569564 0.006262 0
0.563832 0.005877 0
0.558435 0.005521 0
0.553350 0.005192 0
0.548558 0.004885 0
0.544039 0.004598 0
0.539780 0.004327 0
0.535767 0.004072 0
0.531988 0.003829 0
0.528434 0.003597 0
0.525096 0.003373 0
0.521968 0.003157 0
0.519044 0.002947 0
0.516318 0.002741 0
0.513789 0.002539 0
0.511452 0.002338 0
0.509306 0.002139 0
0.507349 0.001940 0
0.505580 0.001742 0
0.503997 0.001544 0
0.502599 0.001347 0
0.501381 0.001151 0
0.500341 0.000960 0
0.499474 0.000773 0
0.498772 0.000594 0
0.498227 0.000424 0
0.497828 0.000265 0
0.497564 0.000121 0
0.497423 -0.000006 0
0.497392 -0.000112 0
0.497455 -0.000198 0
0.497593 -0.000266 0
0.497790 -0.000317 0
0.498032 -0.000352 0
0.498306 -0.000374 0
0.498601 -0.000385 0
0.498907 -0.000386 0
0.499216 -0.000378 0
0.499520 -0.000366 0
0.499816 -0.000349 0
0.500099 -0.000330 0
0.500368 -0.000309 0
0.500621 -0.000290 0
0.500858 -0.000271 0
0.501082 -0.000256 0
0.501292 -0.000243 0
0.501492 -0.000234 0
0.501686 -0.000229 0
0.501875 -0.000230 0
0.502064 -0.000235 0
0.502257 -0.000246 0
0.502459 -0.000263 0
0.502674 -0.000286 0
0.502908 -0.000315 0
0.503166 -0.000352 0
0.503453 -0.000397 0
0.503776 -0.000451 0
0.504143 -0.000514 0
0.504561 -0.000588 0
0.505039 -0.000674 0
0.505586 -0.000773 0
0.506213 -0.000888 0
0.506934 -0.001020 0
0.507761 -0.001173 0
0.508713 -0.001349 0
0.509806 -0.001552 0
0.511062 -0.001786 0
0.512507 -0.002057 0
0.514170 -0.002369 0
0.516082 -0.002730 0
0.518283 -0.003149 0
0.520819 -0.003635 0
0.523741 -0.004202 0
0.527111 -0.004863 0
0.531002 -0.005637 0
0.535501 -0.006547 0
0.540709 -0.007622 0
0.546748 -0.008899 0
0.553766 -0.010423 0
0.561941 -0.012257 0
0.571491 -0.014483 0
0.582684 -0.017211 0
0.595855 -0.020595 0
0.611426 -0.024852 0
0.629931 -0.030299 0
0.652058 -0.037409 0
0.678691 -0.046912 0
0.710965 -0.059974 0
0.750289 -0.078549 0
0.798251 -0.105871 0
0.856078 -0.148309 0
0.921935 -0.212808 0
0.987921 -0.328703 0
0.996145 -0.406187 0
0.996145 -0.203093 0
1.000000 0.000170 0
0.999869 0.000517 0
0.999604 0.000881 0
0.999195 0.001278 0
0.998628 0.001722 0
0.997885 0.002233 0
0.996937 0.002836 0
0.995749 0.003562 0
0.994276 0.004456 0
0.992456 0.005577 0
0.990212 0.007015 0
0.987444 0.008901 0
0.984027 0.011439 0
0.979811 0.014959 0
0.974645 0.020011 0
0.968477 0.027495 0
0.961571 0.039070 0
0.955845 0.056453 0
0.954494 0.083195 0
0.976692 0.108823 0
1.001737 0.118623 0
1.016392 0.114976 0
1.018719 0.104742 0
1.011444 0.092743 0
0.997863 0.081246 0
0.980557 0.071027 0
0.961301 0.062207 0
0.941266 0.054677 0
0.921201 0.048266 0
0.901579 0.042805 0
0.882681 0.038142 0
0.864666 0.034145 0
0.847607 0.030705 0
0.831526 0.027733 0
0.816408 0.025152 0
0.802219 0.022902 0
0.788911 0.020931 0
0.776433 0.019196 0
0.764730 0.017663 0
0.753748 0.016302 0
0.743435 0.015089 0
0.733743 0.014003 0
0.724625 0.013027 0
0.716040 0.012146 0
0.707948 0.011348 0
0.700316 0.010621 0
0.693111 0.009957 0
0.686304 0.009347 0
0.679871 0.008785 0
0.673786 0.008265 0
0.668031 0.007781 0
0.662587 0.007329 0
0.657437 0.006904 0
0.652567 0.006503 0
0.647965 0.006123 0
0.643620 0.005761 0
0.639522 0.005414 0
0.635664 0.005080 0
0.632039 0.004756 0
0.628640 0.004441 0
0.625465 0.004132 0
0.622508 0.003828 0
0.619767 0.003527 0
0.617241 0.003229 0
0.614926 0.002932 0
0.612820 0.002636 0
0.610923 0.002342 0
0.609230 0.002050 0
0.607740 0.001762 0
0.606446 0.001479 0
0.605344 0.001205 0
0.604426 0.000942 0
0.603683 0.000693 0
0.603104 0.000462 0
0.602676 0.000252 0
0.602386 0.000064 0
0.602222 -0.000097 0
0.602173 -0.000229 0
0.602220 -0.000334 0
0.602344 -0.000414 0
0.602531 -0.000472 0
0.602764 -0.000510 0
0.603031 -0.000530 0
0.603321 -0.000536 0
0.603623 -0.000531 0
0.603930 -0.000516 0
0.604235 -0.000495 0
0.604533 -0.000470 0
0.604820 -0.000443 0
0.605095 -0.000416 0
0.605356 -0.000390 0
0.605603 -0.000367 0
0.605837 -0.000349 0
0.606061 -0.000335 0
0.606276 -0.000328 0
0.606486 -0.000327 0
0.606695 -0.000333 0
0.606906 -0.000346 0
0.607124 -0.000368 0
0.607353 -0.000398 0
0.607600 -0.000438 0
0.607869 -0.000488 0
0.608167 -0.000549 0
0.608500 -0.000622 0
0.608875 -0.000708 0
0.609302 -0.000809 0
0.609788 -0.000926 0
0.610343 -0.001063 0
0.610979 -0.001220 0
0.611708 -0.001402 0
0.612545 -0.001611 0
0.613507 -0.001853 0
0.614611 -0.002131 0
0.615879 -0.002451 0
0.617337 -0.002821 0
0.619012 -0.003248 0
0.620938 -0.003741 0
0.623153 -0.004312 0
0.625702 -0.004975 0
0.628635 -0.005745 0
0.632013 -0.006643 0
0.635907 -0.007691 0
0.640400 -0.008921 0
0.645587 -0.010369 0
0.651586 -0.012083 0
0.658534 -0.014121 0
0.666593 -0.016561 0
0.675961 -0.019505 0
0.686878 -0.023090 0
0.699631 -0.027501 0
0.714575 -0.032998 0
0.732143 -0.039950 0
0.752859 -0.048894 0
0.777355 -0.060637 0
0.806350 -0.076412 0
0.840570 -0.098177 0
0.880454 -0.128943 0
0.925408 -0.173985 0
0.971125 -0.237905 0
1.008078 -0.339599 0
0.996875 -0.404328 0
0.996875 -0.202162 0
1.000000 0.000201 0
0.999876 0.000610 0
0.999624 0.001040 0
0.999236 0.001507 0
0.998699 0.002030 0
0.997997 0.002631 0
0.997105 0.003337 0
0.995991 0.004185 0
0.994618 0.005224 0
0.992934 0.006522 0
0.990879 0.008173 0
0.988380 0.010318 0
0.985352 0.013168 0
0.981720 0.017046 0
0.977453 0.022461 0
0.972693 0.030184 0
0.967992 0.041406 0
0.965267 0.057167 0
0.967550 0.078307 0
0.984769 0.098323 0
1.007187 0.108451 0
1.025347 0.108709 0
1.035769 0.102935 0
1.038777 0.094583 0
1.035952 0.085681 0
1.028921 0.077169 0
1.018999 0.069399 0
1.007176 0.062450 0
0.994179 0.056294 0
0.980540 0.050862 0
0.966642 0.046075 0
0.952758 0.041854 0
0.939081 0.038128 0
0.925742 0.034834 0
0.912828 0.031916 0
0.900391 0.029323 0
0.888460 0.027014 0
0.877046 0.024952 0
0.866150 0.023105 0
0.855762 0.021446 0
0.845868 0.019952 0
0.836451 0.018600 0
0.827489 0.017374 0
0.818963 0.016259 0
0.810852 0.015241 0
0.803135 0.014308 0
0.795793 0.013449 0
0.788807 0.012657 0
0.782160 0.011923 0
0.775836 0.011239 0
0.769821 0.010601 0
0.764100 0.010002 0
0.758662 0.009437 0
0.753497 0.008902 0
0.748593 0.008393 0
0.743944 0.007907 0
0.739542 0.007439 0
0.735380 0.006988 0
0.731454 0.006550 0
0.727759 0.006122 0
0.724292 0.005703 0
0.721049 0.005290 0
0.718029 0.004882 0
0.715229 0.004477 0
0.712647 0.004075 0
0.710282 0.003675 0
0.708131 0.003278 0
0.706192 0.002884 0
0.704461 0.002496 0
0.702934 0.002117 0
0.701605 0.001749 0
0.700468 0.001396 0
0.699513 0.001062 0
0.698731 0.000752 0
0.698110 0.000468 0
0.697635 0.000214 0
0.697295 -0.000009 0
0.697081 -0.000197 0
0.696983 -0.000348 0
0.696980 -0.000467 0
0.697056 -0.000555 0
0.697197 -0.000616 0
0.697388 -0.000654 0
0.697616 -0.000672 0
0.697872 -0.000673 0
0.698145 -0.000661 0
0.698426 -0.000640 0
0.698711 -0.000612 0
0.698993 -0.000581 0
0.699268 -0.000548 0
0.699535 -0.000517 0
0.699793 -0.000488 0
0.700040 -0.000464 0
0.700278 -0.000446 0
0.700508 -0.000435 0
0.700732 -0.000432 0
0.700955 -0.000438 0
0.701178 -0.000453 0
0.701406 -0.000479 0
0.701643 -0.000516 0
0.701895 -0.000564 0
0.702167 -0.000626 0
0.702465 -0.000702 0
0.702795 -0.000793 0
0.703165 -0.000901 0
0.703582 -0.001028 0
0.704055 -0.001176 0
0.704594 -0.001348 0
0.705209 -0.001547 0
0.705914 -0.001777 0
0.706722 -0.002042 0
0.707648 -0.002347 0
0.708712 -0.002698 0
0.709932 -0.003103 0
0.711334 -0.003570 0
0.712944 -0.004108 0
0.714793 -0.004730 0
0.716917 -0.005450 0
0.719359 -0.006283 0
0.722166 -0.007250 0
0.725394 -0.008375 0