# vtk DataFile Version 2.0
generated by CFD-lab course output (written by Tobias Neckel) 
ASCII

DATASET STRUCTURED_GRID
DIMENSIONS  142 42 1 
POINTS 5964 float

0.000000 0.250000 0
0.024648 0.250000 0
0.049296 0.250000 0
0.073944 0.250000 0
0.098592 0.250000 0
0.123239 0.250000 0
0.147887 0.250000 0
0.172535 0.250000 0
0.197183 0.250000 0
0.221831 0.250000 0
0.246479 0.250000 0
0.271127 0.250000 0
0.295775 0.250000 0
0.320423 0.250000 0
0.345070 0.250000 0
0.369718 0.250000 0
0.394366 0.250000 0
0.419014 0.250000 0
0.443662 0.250000 0
0.468310 0.250000 0
0.492958 0.250000 0
0.517606 0.250000 0
0.542254 0.250000 0
0.566901 0.250000 0
0.591549 0.250000 0
0.616197 0.250000 0
0.640845 0.250000 0
0.665493 0.250000 0
0.690141 0.250000 0
0.714789 0.250000 0
0.739437 0.250000 0
0.764085 0.250000 0
0.788732 0.250000 0
0.813380 0.250000 0
0.838028 0.250000 0
0.862676 0.250000 0
0.887324 0.250000 0
0.911972 0.250000 0
0.936620 0.250000 0
0.961268 0.250000 0
0.985915 0.250000 0
1.010563 0.250000 0
1.035211 0.250000 0
1.059859 0.250000 0
1.084507 0.250000 0
1.109155 0.250000 0
1.133803 0.250000 0
1.158451 0.250000 0
1.183099 0.250000 0
1.207746 0.250000 0
1.232394 0.250000 0
1.257042 0.250000 0
1.281690 0.250000 0
1.306338 0.250000 0
1.330986 0.250000 0
1.355634 0.250000 0
1.380282 0.250000 0
1.404930 0.250000 0
1.429577 0.250000 0
1.454225 0.250000 0
1.478873 0.250000 0
1.503521 0.250000 0
1.528169 0.250000 0
1.552817 0.250000 0
1.577465 0.250000 0
1.602113 0.250000 0
1.626761 0.250000 0
1.651408 0.250000 0
1.676056 0.250000 0
1.700704 0.250000 0
1.725352 0.250000 0
1.750000 0.250000 0
1.774648 0.250000 0
1.799296 0.250000 0
1.823944 0.250000 0
1.848592 0.250000 0
1.873239 0.250000 0
1.897887 0.250000 0
1.922535 0.250000 0
1.947183 0.250000 0
1.971831 0.250000 0
1.996479 0.250000 0
2.021127 0.250000 0
2.045775 0.250000 0
2.070423 0.250000 0
2.095070 0.250000 0
2.119718 0.250000 0
2.144366 0.250000 0
2.169014 0.250000 0
2.193662 0.250000 0
2.218310 0.250000 0
2.242958 0.250000 0
2.267606 0.250000 0
2.292254 0.250000 0
2.316901 0.250000 0
2.341549 0.250000 0
2.366197 0.250000 0
2.390845 0.250000 0
2.415493 0.250000 0
2.440141 0.250000 0
2.464789 0.250000 0
2.489437 0.250000 0
2.514085 0.250000 0
2.538732 0.250000 0
2.563380 0.250000 0
2.588028 0.250000 0
2.612676 0.250000 0
2.637324 0.250000 0
2.661972 0.250000 0
2.686620 0.250000 0
2.711268 0.250000 0
2.735915 0.250000 0
2.760563 0.250000 0
2.785211 0.250000 0
2.809859 0.250000 0
2.834507 0.250000 0
2.859155 0.250000 0
2.883803 0.250000 0
2.908451 0.250000 0
2.933099 0.250000 0
2.957746 0.250000 0
2.982394 0.250000 0
3.007042 0.250000 0
3.031690 0.250000 0
3.056338 0.250000 0
3.080986 0.250000 0
3.105634 0.250000 0
3.130282 0.250000 0
3.154930 0.250000 0
3.179577 0.250000 0
3.204225 0.250000 0
3.228873 0.250000 0
3.253521 0.250000 0
3.278169 0.250000 0
3.302817 0.250000 0
3.327465 0.250000 0
3.352113 0.250000 0
3.376761 0.250000 0
3.401408 0.250000 0
3.426056 0.250000 0
3.450704 0.250000 0
3.475352 0.250000 0
0.000000 0.261905 0
0.024648 0.261905 0
0.049296 0.261905 0
0.073944 0.261905 0
0.098592 0.261905 0
0.123239 0.261905 0
0.147887 0.261905 0
0.172535 0.261905 0
0.197183 0.261905 0
0.221831 0.261905 0
0.246479 0.261905 0
0.271127 0.261905 0
0.295775 0.261905 0
0.320423 0.261905 0
0.345070 0.261905 0
0.369718 0.261905 0
0.394366 0.261905 0
0.419014 0.261905 0
0.443662 0.261905 0
0.468310 0.261905 0
0.492958 0.261905 0
0.517606 0.261905 0
0.542254 0.261905 0
0.566901 0.261905 0
0.591549 0.261905 0
0.616197 0.261905 0
0.640845 0.261905 0
0.665493 0.261905 0
0.690141 0.261905 0
0.714789 0.261905 0
0.739437 0.261905 0
0.764085 0.261905 0
0.788732 0.261905 0
0.813380 0.261905 0
0.838028 0.261905 0
0.862676 0.261905 0
0.887324 0.261905 0
0.911972 0.261905 0
0.936620 0.261905 0
0.961268 0.261905 0
0.985915 0.261905 0
1.010563 0.261905 0
1.035211 0.261905 0
1.059859 0.261905 0
1.084507 0.261905 0
1.109155 0.261905 0
1.133803 0.261905 0
1.158451 0.261905 0
1.183099 0.261905 0
1.207746 0.261905 0
1.232394 0.261905 0
1.257042 0.261905 0
1.281690 0.261905 0
1.306338 0.261905 0
1.330986 0.261905 0
1.355634 0.261905 0
1.380282 0.261905 0
1.404930 0.261905 0
1.429577 0.261905 0
1.454225 0.261905 0
1.478873 0.261905 0
1.503521 0.261905 0
1.528169 0.261905 0
1.552817 0.261905 0
1.577465 0.261905 0
1.602113 0.261905 0
1.626761 0.261905 0
1.651408 0.261905 0
1.676056 0.261905 0
1.700704 0.261905 0
1.725352 0.261905 0
1.750000 0.261905 0
1.774648 0.261905 0
1.799296 0.261905 0
1.823944 0.261905 0
1.848592 0.261905 0
1.873239 0.261905 0
1.897887 0.261905 0
1.922535 0.261905 0
1.947183 0.261905 0
1.971831 0.261905 0
1.996479 0.261905 0
2.021127 0.261905 0
2.045775 0.261905 0
2.070423 0.261905 0
2.095070 0.261905 0
2.119718 0.261905 0
2.144366 0.261905 0
2.169014 0.261905 0
2.193662 0.261905 0
2.218310 0.261905 0
2.242958 0.261905 0
2.267606 0.261905 0
2.292254 0.261905 0
2.316901 0.261905 0
2.341549 0.261905 0
2.366197 0.261905 0
2.390845 0.261905 0
2.415493 0.261905 0
2.440141 0.261905 0
2.464789 0.261905 0
2.489437 0.261905 0
2.514085 0.261905 0
2.538732 0.261905 0
2.563380 0.261905 0
2.588028 0.261905 0
2.612676 0.261905 0
2.637324 0.261905 0
2.661972 0.261905 0
2.686620 0.261905 0
2.711268 0.261905 0
2.735915 0.261905 0
2.760563 0.261905 0
2.785211 0.261905 0
2.809859 0.261905 0
2.834507 0.261905 0
2.859155 0.261905 0
2.883803 0.261905 0
2.908451 0.261905 0
2.933099 0.261905 0
2.957746 0.261905 0
2.982394 0.261905 0
3.007042 0.261905 0
3.031690 0.261905 0
3.056338 0.261905 0
3.080986 0.261905 0
3.105634 0.261905 0
3.130282 0.261905 0
3.154930 0.261905 0
3.179577 0.261905 0
3.204225 0.261905 0
3.228873 0.261905 0
3.253521 0.261905 0
3.278169 0.261905 0
3.302817 0.261905 0
3.327465 0.261905 0
3.352113 0.261905 0
3.376761 0.261905 0
3.401408 0.261905 0
3.426056 0.261905 0
3.450704 0.261905 0
3.475352 0.261905 0
0.000000 0.273810 0
0.024648 0.273810 0
0.049296 0.273810 0
0.073944 0.273810 0
0.098592 0.273810 0
0.123239 0.273810 0
0.147887 0.273810 0
0.172535 0.273810 0
0.197183 0.273810 0
0.221831 0.273810 0
0.246479 0.273810 0
0.271127 0.273810 0
0.295775 0.273810 0
0.320423 0.273810 0
0.345070 0.273810 0
0.369718 0.273810 0
0.394366 0.273810 0
0.419014 0.273810 0
0.443662 0.273810 0
0.468310 0.273810 0
0.492958 0.273810 0
0.517606 0.273810 0
0.542254 0.273810 0
0.566901 0.273810 0
0.591549 0.273810 0
0.616197 0.273810 0
0.640845 0.273810 0
0.665493 0.273810 0
0.690141 0.273810 0
0.714789 0.273810 0
0.739437 0.273810 0
0.764085 0.273810 0
0.788732 0.273810 0
0.813380 0.273810 0
0.838028 0.273810 0
0.862676 0.273810 0
0.887324 0.273810 0
0.911972 0.273810 0
0.936620 0.273810 0
0.961268 0.273810 0
0.985915 0.273810 0
1.010563 0.273810 0
1.035211 0.273810 0
1.059859 0.273810 0
1.084507 0.273810 0
1.109155 0.273810 0
1.133803 0.273810 0
1.158451 0.273810 0
1.183099 0.273810 0
1.207746 0.273810 0
1.232394 0.273810 0
1.257042 0.273810 0
1.281690 0.273810 0
1.306338 0.273810 0
1.330986 0.273810 0
1.355634 0.273810 0
1.380282 0.273810 0
1.404930 0.273810 0
1.429577 0.273810 0
1.454225 0.273810 0
1.478873 0.273810 0
1.503521 0.273810 0
1.528169 0.273810 0
1.552817 0.273810 0
1.577465 0.273810 0
1.602113 0.273810 0
1.626761 0.273810 0
1.651408 0.273810 0
1.676056 0.273810 0
1.700704 0.273810 0
1.725352 0.273810 0
1.750000 0.273810 0
1.774648 0.273810 0
1.799296 0.273810 0
1.823944 0.273810 0
1.848592 0.273810 0
1.873239 0.273810 0
1.897887 0.273810 0
1.922535 0.273810 0
1.947183 0.273810 0
1.971831 0.273810 0
1.996479 0.273810 0
2.021127 0.273810 0
2.045775 0.273810 0
2.070423 0.273810 0
2.095070 0.273810 0
2.119718 0.273810 0
2.144366 0.273810 0
2.169014 0.273810 0
2.193662 0.273810 0
2.218310 0.273810 0
2.242958 0.273810 0
2.267606 0.273810 0
2.292254 0.273810 0
2.316901 0.273810 0
2.341549 0.273810 0
2.366197 0.273810 0
2.390845 0.273810 0
2.415493 0.273810 0
2.440141 0.273810 0
2.464789 0.273810 0
2.489437 0.273810 0
2.514085 0.273810 0
2.538732 0.273810 0
2.563380 0.273810 0
2.588028 0.273810 0
2.612676 0.273810 0
2.637324 0.273810 0
2.661972 0.273810 0
2.686620 0.273810 0
2.711268 0.273810 0
2.735915 0.273810 0
2.760563 0.273810 0
2.785211 0.273810 0
2.809859 0.273810 0
2.834507 0.273810 0
2.859155 0.273810 0
2.883803 0.273810 0
2.908451 0.273810 0
2.933099 0.273810 0
2.957746 0.273810 0
2.982394 0.273810 0
3.007042 0.273810 0
3.031690 0.273810 0
3.056338 0.273810 0
3.080986 0.273810 0
3.105634 0.273810 0
3.130282 0.273810 0
3.154930 0.273810 0
3.179577 0.273810 0
3.204225 0.273810 0
3.228873 0.273810 0
3.253521 0.273810 0
3.278169 0.273810 0
3.302817 0.273810 0
3.327465 0.273810 0
3.352113 0.273810 0
3.376761 0.273810 0
3.401408 0.273810 0
3.426056 0.273810 0
3.450704 0.273810 0
3.475352 0.273810 0
0.000000 0.285714 0
0.024648 0.285714 0
0.049296 0.285714 0
0.073944 0.285714 0
0.098592 0.285714 0
0.123239 0.285714 0
0.147887 0.285714 0
0.172535 0.285714 0
0.197183 0.285714 0
0.221831 0.285714 0
0.246479 0.285714 0
0.271127 0.285714 0
0.295775 0.285714 0
0.320423 0.285714 0
0.345070 0.285714 0
0.369718 0.285714 0
0.394366 0.285714 0
0.419014 0.285714 0
0.443662 0.285714 0
0.468310 0.285714 0
0.492958 0.285714 0
0.517606 0.285714 0
0.542254 0.285714 0
0.566901 0.285714 0
0.591549 0.285714 0
0.616197 0.285714 0
0.640845 0.285714 0
0.665493 0.285714 0
0.690141 0.285714 0
0.714789 0.285714 0
0.739437 0.285714 0
0.764085 0.285714 0
0.788732 0.285714 0
0.813380 0.285714 0
0.838028 0.285714 0
0.862676 0.285714 0
0.887324 0.285714 0
0.911972 0.285714 0
0.936620 0.285714 0
0.961268 0.285714 0
0.985915 0.285714 0
1.010563 0.285714 0
1.035211 0.285714 0
1.059859 0.285714 0
1.084507 0.285714 0
1.109155 0.285714 0
1.133803 0.285714 0
1.158451 0.285714 0
1.183099 0.285714 0
1.207746 0.285714 0
1.232394 0.285714 0
1.257042 0.285714 0
1.281690 0.285714 0
1.306338 0.285714 0
1.330986 0.285714 0
1.355634 0.285714 0
1.380282 0.285714 0
1.404930 0.285714 0
1.429577 0.285714 0
1.454225 0.285714 0
1.478873 0.285714 0
1.503521 0.285714 0
1.528169 0.285714 0
1.552817 0.285714 0
1.577465 0.285714 0
[...]
POINT_DATA 5964 

VECTORS velocity float
1.000000 0.000000 0
0.999854 0.000000 0
0.999556 0.000000 0
0.999097 0.000000 0
0.998458 0.000000 0
0.997615 0.000000 0
0.996532 0.000000 0
0.995162 0.000000 0
0.993440 0.000000 0
0.991275 0.000000 0
0.988543 0.000000 0
0.985062 0.000000 0
0.980561 0.000000 0
0.974614 0.000000 0
0.966517 0.000000 0
0.954933 0.000000 0
0.937383 0.000000 0
0.905760 0.000000 0
0.847693 0.000000 0
0.000000 0.000000 0
0.000000 0.000000 0
0.000000 0.000000 0
-0.000000 0.000000 0
-0.000000 0.000000 0
0.000000 0.000000 0
0.000000 0.000000 0
0.000000 0.000000 0
0.000000 0.000000 0
0.000000 0.000000 0
-0.000000 0.000000 0
-0.000000 0.000000 0
-0.000000 0.000000 0
0.000000 0.000000 0
0.000000 0.000000 0
0.000000 0.000000 0
-0.000000 0.000000 0
-0.000000 0.000000 0
0.000000 0.000000 0
0.000000 0.000000 0
0.000000 0.000000 0
-0.000000 0.000000 0
-0.000000 0.000000 0
-0.000000 0.000000 0
0.000000 0.000000 0
0.000000 0.000000 0
-0.000000 0.000000 0
-0.000000 0.000000 0
-0.000000 0.000000 0
0.000000 0.000000 0
0.000000 0.000000 0
0.000000 0.000000 0
-0.000000 0.000000 0
-0.000000 0.000000 0
-0.000000 0.000000 0
0.000000 0.000000 0
0.000000 0.000000 0
0.000000 0.000000 0
-0.000000 0.000000 0
-0.000000 0.000000 0
-0.000000 0.000000 0
-0.000000 0.000000 0
0.000000 0.000000 0
-0.000000 0.000000 0
-0.000000 0.000000 0
-0.000000 0.000000 0
-0.000000 0.000000 0
-0.000000 0.000000 0
-0.000000 0.000000 0
-0.000000 0.000000 0
-0.000000 0.000000 0
-0.000000 0.000000 0
-0.000000 0.000000 0
-0.000000 0.000000 0
-0.000000 0.000000 0
-0.000000 0.000000 0
-0.000000 0.000000 0
-0.000000 0.000000 0
-0.000000 0.000000 0
-0.000000 0.000000 0
-0.000000 0.000000 0
-0.000000 0.000000 0
-0.000000 0.000000 0
-0.000000 0.000000 0
-0.000000 0.000000 0
-0.000000 0.000000 0
-0.000000 0.000000 0
-0.000000 0.000000 0
-0.000000 0.000000 0
-0.000000 0.000000 0
-0.000000 0.000000 0
-0.000000 0.000000 0
-0.000000 0.000000 0
-0.000000 0.000000 0
-0.000000 0.000000 0
-0.000000 0.000000 0
-0.000000 0.000000 0
-0.000000 0.000000 0
-0.000000 0.000000 0
-0.000000 0.000000 0
-0.000000 0.000000 0
-0.000000 0.000000 0
-0.000000 0.000000 0
-0.000000 0.000000 0
-0.000000 0.000000 0
-0.000000 0.000000 0
-0.000000 0.000000 0
-0.000000 0.000000 0
-0.000000 0.000000 0
-0.000000 0.000000 0
-0.000000 0.000000 0
-0.000000 0.000000 0
-0.000000 0.000000 0
-0.000000 0.000000 0
-0.000000 0.000000 0
-0.000000 0.000000 0
-0.000000 0.000000 0
-0.000000 0.000000 0
-0.000000 0.000000 0
-0.000000 0.000000 0
-0.000000 0.000000 0
-0.000000 0.000000 0
-0.000000 0.000000 0
-0.000000 0.000000 0
-0.000000 0.000000 0
-0.000000 0.000000 0
-0.000000 0.000000 0
-0.000000 0.000000 0
-0.000000 0.000000 0
-0.000000 0.000000 0
-0.000000 0.000000 0
-0.000000 0.000000 0
-0.000000 0.000000 0
-0.000000 0.000000 0
-0.000000 0.000000 0
-0.000000 0.000000 0
-0.000000 0.000000 0
-0.000000 0.000000 0
-0.000000 0.000000 0
-0.000000 0.000000 0
0.000000 0.000000 0
-0.000000 0.000000 0
0.496412 0.000000 0
1.000000 0.000035 0
0.999854 0.000107 0
0.999558 0.000183 0
0.999101 0.000265 0
0.998465 0.000358 0
0.997626 0.000465 0
0.996549 0.000592 0
0.995186 0.000747 0
0.993474 0.000939 0
0.991325 0.001182 0
0.988614 0.001500 0
0.985165 0.001928 0
0.980713 0.002523 0
0.974850 0.003392 0
0.966903 0.004753 0
0.955641 0.007036 0
0.938825 0.011875 0
0.910180 0.021660 0
0.860874 0.078853 0
0.714886 0.110956 0
0.576504 0.072745 0
0.473017 0.041074 0
0.401066 0.022638 0
0.351163 0.013309 0
0.315499 0.008679 0
0.288994 0.006202 0
0.268554 0.004718 0
0.252294 0.003739 0
0.239027 0.003050 0
0.227980 0.002542 0
0.218624 0.002156 0
0.210590 0.001855 0
0.203608 0.001615 0
0.197480 0.001420 0
0.192052 0.001260 0
0.187208 0.001127 0
0.182854 0.001015 0
0.178917 0.000919 0
0.175337 0.000838 0
0.172064 0.000767 0
0.169059 0.000706 0
0.166287 0.000652 0
0.163720 0.000605 0
0.161335 0.000564 0
0.159110 0.000526 0
0.157028 0.000493 0
0.155075 0.000464 0
0.153237 0.000437 0
0.151504 0.000413 0
0.149864 0.000391 0
0.148310 0.000372 0
0.146834 0.000353 0
0.145429 0.000337 0
0.144090 0.000322 0
0.142810 0.000308 0
0.141586 0.000295 0
0.140414 0.000283 0
0.139289 0.000272 0
0.138208 0.000261 0
0.137169 0.000252 0
0.136167 0.000242 0
0.135202 0.000234 0
0.134271 0.000226 0
0.133371 0.000218 0
0.132501 0.000211 0
0.131660 0.000205 0
0.130845 0.000198 0
0.130055 0.000192 0
0.129289 0.000187 0
0.128546 0.000181 0
0.127824 0.000176 0
0.127123 0.000171 0
0.126442 0.000166 0
0.125780 0.000162 0
0.125136 0.000157 0
0.124509 0.000153 0
0.123898 0.000149 0
0.123304 0.000145 0
0.122726 0.000141 0
0.122162 0.000138 0
0.121613 0.000134 0
0.121078 0.000131 0
0.120557 0.000127 0
0.120050 0.000124 0
0.119555 0.000121 0
0.119074 0.000117 0
0.118606 0.000114 0
0.118151 0.000111 0
0.117708 0.000108 0
0.117279 0.000104 0
0.116862 0.000101 0
0.116459 0.000097 0
0.116069 0.000094 0
0.115693 0.000090 0
0.115332 0.000086 0
0.114985 0.000082 0
0.114654 0.000078 0
0.114340 0.000074 0
0.114043 0.000069 0
0.113765 0.000064 0
0.113508 0.000058 0
0.113273 0.000052 0
0.113062 0.000045 0
0.112877 0.000037 0
0.112722 0.000029 0
0.112600 0.000019 0
0.112514 0.000009 0
0.112469 -0.000004 0
0.112473 -0.000018 0
0.112531 -0.000033 0
0.112649 -0.000050 0
0.112833 -0.000070 0
0.113093 -0.000092 0
0.113439 -0.000117 0
0.113884 -0.000147 0
0.114442 -0.000180 0
0.115132 -0.000220 0
0.115972 -0.000265 0
0.116988 -0.000318 0
0.118207 -0.000380 0
0.119664 -0.000452 0
0.121399 -0.000538 0
0.123462 -0.000640 0
0.125913 -0.000761 0
0.128827 -0.000908 0
0.132296 -0.001086 0
0.136439 -0.001305 0
0.141405 -0.001576 0
0.147389 -0.001918 0
0.154648 -0.002356 0
0.163530 -0.002928 0
0.174511 -0.003692 0
0.188271 -0.004740 0
0.205800 -0.006232 0
0.228608 -0.008450 0
0.259103 -0.011952 0
0.301397 -0.017900 0
0.362819 -0.029689 0
0.460012 -0.052069 0
0.617963 -0.166962 0
0.993132 -0.267482 0
0.993132 -0.133741 0
1.000000 0.000070 0
0.999856 0.000213 0
0.999564 0.000364 0
0.999113 0.000528 0
0.998486 0.000712 0
0.997659 0.000926 0
0.996599 0.001178 0
0.995259 0.001485 0
0.993579 0.001865 0
0.991473 0.002348 0
0.988825 0.002975 0
0.985469 0.003816 0
0.981163 0.004982 0
0.975541 0.006670 0
0.968025 0.009278 0
0.957649 0.013561 0
0.942785 0.021957 0
0.920694 0.037650 0
0.888370 0.094326 0
0.890999 0.137349 0
0.842149 0.116821 0
0.771618 0.084735 0
0.701222 0.058855 0
0.639920 0.041328 0
0.589257 0.030027 0
0.547923 0.022674 0
0.514040 0.017726 0
0.485953 0.014261 0
0.462370 0.011743 0
0.442322 0.009855 0
0.425082 0.008399 0
0.410105 0.007253 0
0.396971 0.006332 0
0.385359 0.005582 0
0.375016 0.004961 0
0.365741 0.004443 0
0.357374 0.004004 0
0.349783 0.003631 0
0.342863 0.003310 0
0.336524 0.003032 0
0.330692 0.002790 0
0.325306 0.002579 0
0.320313 0.002392 0
0.315668 0.002227 0
0.311334 0.002080 0
0.307276 0.001949 0
0.303468 0.001831 0
0.299883 0.001725 0
0.296501 0.001629 0
0.293303 0.001543 0
0.290271 0.001464 0
0.287392 0.001391 0
0.284653 0.001325 0
0.282041 0.001265 0
0.279548 0.001209 0
0.277163 0.001157 0
0.274878 0.001110 0
0.272687 0.001065 0
0.270582 0.001024 0
0.268559 0.000986 0
0.266610 0.000950 0
0.264732 0.000916 0
0.262921 0.000884 0
0.261171 0.000855 0
0.259480 0.000827 0
0.257844 0.000800 0
0.256260 0.000775 0
0.254725 0.000751 0
0.253238 0.000729 0
0.251794 0.000707 0
0.250393 0.000687 0
0.249032 0.000668 0
0.247709 0.000649 0
0.246423 0.000631 0
0.245172 0.000614 0
0.243955 0.000598 0
0.242771 0.000582 0
0.241617 0.000566 0
0.240494 0.000552 0
0.239399 0.000537 0
0.238333 0.000524 0
0.237294 0.000510 0
0.236282 0.000497 0
0.235296 0.000484 0
0.234335 0.000471 0
0.233399 0.000458 0
0.232488 0.000446 0
0.231602 0.000434 0
0.230740 0.000421 0
0.229902 0.000409 0
0.229089 0.000396 0
0.228300 0.000383 0
0.227537 0.000370 0
0.226799 0.000356 0
0.226088 0.000342 0
0.225404 0.000327 0
0.224749 0.000312 0
0.224125 0.000295 0
0.223532 0.000277 0
0.222973 0.000259 0
0.222451 0.000238 0
0.221969 0.000216 0
0.221530 0.000191 0
0.221137 0.000164 0
0.220797 0.000134 0
0.220514 0.000101 0
0.220295 0.000063 0
0.220148 0.000020 0
0.220082 -0.000030 0
0.220112 -0.000085 0
0.220247 -0.000146 0
0.220499 -0.000215 0
0.220883 -0.000293 0
0.221417 -0.000382 0
0.222122 -0.000485 0
0.223022 -0.000603 0
0.224147 -0.000739 0
0.225531 -0.000897 0
0.227213 -0.001079 0
0.229240 -0.001292 0
0.231669 -0.001542 0
0.234566 -0.001834 0
0.238011 -0.002180 0
0.242103 -0.002591 0
0.246958 -0.003083 0
0.252725 -0.003677 0
0.259584 -0.004400 0
0.267766 -0.005289 0
0.277563 -0.006396 0
0.289355 -0.007796 0
0.303641 -0.009594 0
0.321091 -0.011950 0
0.342625 -0.015112 0
0.369532 -0.019483 0
0.403678 -0.025745 0
0.447840 -0.035156 0
0.506328 -0.050094 0
0.585783 -0.076610 0
0.697463 -0.123233 0
0.855373 -0.257493 0
0.993829 -0.362407 0
0.993829 -0.181204 0
1.000000 0.000105 0
0.999859 0.000318 0
0.999574 0.000542 0
0.999133 0.000786 0
0.998521 0.001060 0
0.997714 0.001377 0
0.996681 0.001752 0
0.995379 0.002205 0
0.993750 0.002767 0
0.991715 0.003479 0
0.989168 0.004400 0
0.985962 0.005628 0
0.981887 0.007318 0
0.976642 0.009737 0
0.969782 0.013395 0
0.960673 0.019226 0
0.948431 0.029724 0
0.933028 0.047942 0
0.915086 0.093196 0
0.945330 0.133281 0
0.948626 0.130405 0
0.922939 0.109141 0
0.881981 0.086247 0
0.836589 0.067387 0
0.792539 0.053113 0
0.752206 0.042531 0
0.716223 0.034649 0
0.684455 0.028696 0
0.656485 0.024123 0
0.631828 0.020552 0
0.610017 0.017717 0
0.590640 0.015433 0
0.573343 0.013567 0
0.557826 0.012025 0
0.543839 0.010736 0
0.531172 0.009648 0
0.519650 0.008722 0
0.509125 0.007928 0
0.499472 0.007242 0
0.490585 0.006646 0
0.482375 0.006124 0
0.474764 0.005665 0
0.467686 0.005260 0
0.461084 0.004900 0
0.454909 0.004580 0
0.449117 0.004293 0
0.443671 0.004035 0
0.438538 0.003802 0
0.433688 0.003592 0
0.429097 0.003400 0
0.424742 0.003226 0
0.420603 0.003067 0
0.416662 0.002921 0
0.412903 0.002787 0
0.409312 0.002664 0
0.405876 0.002550 0
0.402583 0.002444 0
0.399425 0.002346 0
0.396390 0.002255 0
0.393472 0.002170 0
0.390662 0.002091 0
0.387953 0.002016 0
0.385339 0.001946 0
0.382815 0.001880 0
0.380374 0.001818 0
0.378014 0.001760 0
0.375728 0.001705 0
0.373513 0.001652 0
0.371365 0.001602 0
0.369282 0.001555 0
0.367259 0.001510 0
0.365294 0.001467 0
0.363384 0.001426 0
0.361527 0.001387 0
0.359721 0.001349 0
0.357963 0.001313 0
0.356251 0.001279 0
0.354584 0.001245 0
0.352961 0.001213 0
0.351379 0.001181 0
0.349837 0.001151 0
0.348335 0.001121 0
0.346870 0.001093 0
0.345443 0.001064 0
0.344052 0.001037 0
0.342696 0.001009 0
0.341376 0.000982 0
0.340090 0.000955 0
0.338838 0.000929 0
0.337621 0.000902 0
0.336438 0.000875 0
0.335289 0.000847 0
0.334175 0.000819 0
0.333098 0.000790 0
0.332056 0.000760 0
0.331052 0.000729 0
0.330088 0.000696 0
0.329165 0.000662 0
0.328284 0.000625 0
0.327450 0.000586 0
0.326665 0.000543 0
0.325933 0.000497 0
0.325257 0.000446 0
0.324644 0.000391 0
0.324100 0.000330 0
0.323630 0.000262 0
0.323244 0.000185 0
0.322952 0.000099 0
0.322762 -0.000000 0
0.322693 -0.000113 0
0.322762 -0.000237 0
0.322983 -0.000377 0
0.323376 -0.000535 0
0.323961 -0.000715 0
0.324766 -0.000922 0
0.325822 -0.001159 0
0.327163 -0.001431 0
0.328833 -0.001746 0
0.330879 -0.002110 0
0.333361 -0.002532 0
0.336345 -0.003025 0
0.339914 -0.003601 0
0.344162 -0.004280 0
0.349206 -0.005083 0
0.355184 -0.006038 0
0.362267 -0.007184 0
0.370663 -0.008569 0
0.380630 -0.010260 0
0.392491 -0.012346 0
0.406657 -0.014952 0
0.423651 -0.018256 0
0.444161 -0.022520 0
0.469089 -0.028137 0
0.499650 -0.035721 0
0.537498 -0.046273 0
0.584902 -0.061531 0
0.644975 -0.084525 0
0.721635 -0.122006 0
0.818433 -0.182279 0
0.934655 -0.310105 0
0.994600 -0.401229 0
0.994600 -0.200614 0
1.000000 0.000138 0
0.999864 0.000419 0
0.999587 0.000715 0
0.999160 0.001037 0
0.998568 0.001398 0
0.997789 0.001814 0
0.996794 0.002306 0
0.995543 0.002901 0
0.993983 0.003635 0
0.992045 0.004560 0
0.989634 0.005754 0
0.986627 0.007333 0
0.982854 0.009484 0
0.978089 0.012517 0
0.972036 0.016991 0
0.964382 0.023874 0
0.954906 0.035310 0
0.945019 0.053755 0
0.937268 0.088384 0
0.965707 0.121150 0
0.987884 0.127636 0
0.990071 0.116924 0
0.975766 0.100561 0
0.951736 0.084528 0
0.923218 0.070783 0
0.893429 0.059534 0
0.864150 0.050450 0
0.836292 0.043114 0
0.810267 0.037162 0
0.786201 0.032298 0
0.764073 0.028292 0
0.743777 0.024966 0
0.725177 0.022181 0
0.708119 0.019832 0
0.692457 0.017835 0
0.678050 0.016126 0
0.664768 0.014653 0
0.652496 0.013377 0
0.641128 0.012265 0
0.630573 0.011290 0
0.620748 0.010432 0
0.611581 0.009673 0
0.603007 0.008999 0
0.594969 0.008398 0
0.587417 0.007860 0
0.580306 0.007377 0
0.573596 0.006941 0
0.567253 0.006547 0
0.561244 0.006189 0
0.555541 0.005863 0
0.550119 0.005566 0
0.544957 0.005294 0
0.540032 0.005045 0
0.535328 0.004815 0
0.530828 0.004603 0
0.526517 0.004407 0
0.522381 0.004225 0
0.518410 0.004057 0
0.514591 0.003899 0
0.510915 0.003753 0
0.507372 0.003615 0
0.503955 0.003487 0
0.500656 0.003366 0
0.497468 0.003253 0
0.494384 0.003146 0
0.491399 0.003044 0
0.488507 0.002949 0
0.485704 0.002858 0
0.482985 0.002773 0
0.480345 0.002691 0
0.477782 0.002613 0
0.475291 0.002539 0
0.472869 0.002468 0
0.470513 0.002401 0
0.468220 0.002336 0
0.465988 0.002273 0
0.463814 0.002213 0
0.461697 0.002156 0
0.459633 0.002100 0
0.457621 0.002046 0
0.455660 0.001994 0
0.453748 0.001943 0
0.451883 0.001893 0
0.450064 0.001845 0
0.448291 0.001798 0
0.446562 0.001751 0
0.444876 0.001705 0
0.443234 0.001659 0
0.441633 0.001614 0
0.440075 0.001568 0
0.438560 0.001522 0
0.437087 0.001476 0
0.435656 0.001428 0
0.434269 0.001380 0
0.432927 0.001330 0
0.431630 0.001278 0
0.430380 0.001224 0
0.429180 0.001166 0
0.428031 0.001106 0
0.426937 0.001041 0
0.425901 0.000971 0
0.424928 0.000895 0
0.424021 0.000813 0
0.423188 0.000723 0
0.422433 0.000624 0
0.421767 0.000514 0
0.421196 0.000391 0
0.420733 0.000253 0
0.420389 0.000095 0
0.420175 -0.000085 0
0.420119 -0.000286 0
0.420238 -0.000511 0
0.420552 -0.000765 0
0.421086 -0.001054 0
0.421869 -0.001383 0
0.422934 -0.001760 0
0.424322 -0.002193 0
0.426077 -0.002691 0
0.428253 -0.003267 0
0.430912 -0.003933 0
0.434128 -0.004707 0
0.437987 -0.005610 0
0.442591 -0.006668 0
0.448060 -0.007915 0
0.454539 -0.009392 0
0.462201 -0.011153 0
0.471258 -0.013269 0
0.481964 -0.015832 0
0.494634 -0.018967 0
0.509658 -0.022846 0
0.527522 -0.027708 0
0.548841 -0.033896 0
0.574393 -0.041913 0
0.605173 -0.052524 0
0.642442 -0.066921 0
0.687761 -0.087067 0
0.742914 -0.116136 0
0.809392 -0.160389 0
0.885964 -0.226120 0
0.965446 -0.342581 0
0.995327 -0.420313 0
0.995327 -0.210157 0
1.000000 0.000170 0
0.999869 0.000517 0
0.999604 0.000882 0
0.999195 0.001278 0
0.998628 0.001722 0
0.997884 0.002234 0
0.996936 0.002837 0
0.995748 0.003563 0
0.994274 0.004457 0
0.992454 0.005579 0
0.990209 0.007017 0
0.987440 0.008903 0
0.984022 0.011442 0
0.979805 0.014962 0
0.974637 0.020015 0
0.968468 0.027500 0
0.961560 0.039076 0
0.955831 0.056461 0
0.954476 0.083204 0
0.976671 0.108834 0
1.001710 0.118637 0
1.016358 0.114993 0
1.018677 0.104763 0
1.011391 0.092767 0
0.997797 0.081275 0
0.980475 0.071061 0
0.961200 0.062246 0
0.941142 0.054721 0
0.921050 0.048317 0
0.901397 0.042863 0
0.882463 0.038207 0
0.864406 0.034219 0
0.847300 0.030789 0
0.831164 0.027828 0
0.815984 0.025259 0
0.801724 0.023022 0
0.788337 0.021065 0
0.775768 0.019346 0
0.763964 0.017831 0
0.752867 0.016489 0
0.742426 0.015297 0
0.732589 0.014234 0
0.723310 0.013284 0
0.714545 0.012430 0
0.706253 0.011662 0
0.698398 0.010968 0
0.690945 0.010339 0
0.683864 0.009768 0
0.677126 0.009248 0
0.670705 0.008773 0
0.664579 0.008338 0
0.658726 0.007939 0
0.653126 0.007572 0
0.647762 0.007233 0
0.642617 0.006920 0
0.637678 0.006630 0
0.632929 0.006360 0
0.628360 0.006109 0
0.623959 0.005875 0
0.619715 0.005657 0
0.615619 0.005452 0
0.611663 0.005260 0
0.607837 0.005080 0
0.604136 0.004910 0
0.600552 0.004750 0
0.597079 0.004598 0
0.593712 0.004455 0
0.590444 0.004319 0
0.587271 0.004191 0
0.584189 0.004068 0
0.581193 0.003951 0
0.578279 0.003840 0
0.575444 0.003734 0
0.572684 0.003632 0
0.569996 0.003535 0
0.567377 0.003441 0
0.564825 0.003351 0
0.562337 0.003265 0
0.559911 0.003181 0
0.557545 0.003100 0
0.555236 0.003022 0
0.552983 0.002946 0
0.550785 0.002872 0
0.548640 0.002799 0
0.546547 0.002728 0
0.544504 0.002659 0
0.542511 0.002590 0
0.540567 0.002522 0
0.538672 0.002454 0
0.536825 0.002386 0
0.535026 0.002318 0
0.533275 0.002250 0
0.531572 0.002180 0
0.529919 0.002108 0
0.528316 0.002035 0
0.526764 0.001959 0
0.525265 0.001880 0
0.523820 0.001796 0
0.522434 0.001708 0
0.521108 0.001614 0
0.519845 0.001514 0
0.518652 0.001405 0
0.517532 0.001287 0
0.516491 0.001158 0
0.515537 0.001016 0
0.514677 0.000859 0
0.513922 0.000685 0
0.513281 0.000489 0
0.512768 0.000269 0
0.512394 0.000017 0
0.512180 -0.000268 0
0.512153 -0.000586 0
0.512333 -0.000945 0
0.512747 -0.001352 0
0.513424 -0.001815 0
0.514398 -0.002343 0
0.515711 -0.002949 0
0.517408 -0.003644 0
0.519543 -0.004445 0
0.522181 -0.005370 0
0.525394 -0.006442 0
0.529269 -0.007689 0
0.533905 -0.009145 0
0.539422 -0.010854 0
0.545959 -0.012869 0
0.553683 -0.015259 0
0.562792 -0.018114 0
0.573523 -0.021550 0
0.586162 -0.025722 0
0.601055 -0.030837 0
0.618622 -0.037182 0
0.639374 -0.045159 0
0.663932 -0.055345 0
0.693037 -0.068587 0
0.727550 -0.086162 0
0.768378 -0.110059 0
0.816225 -0.143272 0
0.870905 -0.191099 0
0.928947 -0.257652 0
0.981987 -0.362926 0
0.995989 -0.430094 0
0.995989 -0.215047 0
1.000000 0.000201 0
0.999876 0.000611 0
0.999624 0.001041 0
0.999236 0.001508 0
0.998699 0.002031 0
0.997996 0.002631 0
0.997104 0.003338 0
0.995990 0.004186 0
0.994616 0.005226 0
0.992932 0.006524 0
0.990877 0.008175 0
0.988376 0.010321 0
0.985348 0.013171 0
0.981715 0.017050 0
0.977446 0.022466 0
0.972684 0.030190 0
0.967981 0.041413 0
0.965254 0.057176 0
0.967534 0.078318 0
0.984749 0.098336 0
1.007163 0.108468 0
1.025317 0.108730 0
1.035732 0.102960 0
1.038731 0.094612 0
1.035895 0.085716 0
1.028851 0.077211 0
1.018912 0.069447 0
1.007069 0.062506 0
0.994050 0.056359 0
0.980383 0.050936 0
0.966451 0.046159 0
0.952529 0.041949 0
0.938808 0.038237 0
0.925418 0.034957 0
0.912445 0.032054 0
0.899940 0.029479 0
0.887933 0.027190 0
0.876432 0.025149 0
0.865437 0.023326 0
0.854937 0.021693 0
0.844917 0.020226 0
0.835357 0.018906 0
0.826235 0.017714 0
0.817530 0.016636 0
0.809218 0.015659 0
0.801277 0.014770 0
0.793686 0.013961 0
0.786422 0.013221 0
0.779467 0.012544 0
0.772801 0.011923 0
0.766407 0.011352 0
0.760268 0.010826 0
0.754368 0.010340 0
0.748693 0.009891 0
0.743230 0.009474 0
0.737967 0.009086 0
0.732890 0.008726 0
0.727991 0.008389 0
0.723258 0.008075 0
0.718682 0.007781 0
0.714256 0.007505 0
0.709970 0.007245 0
0.705818 0.007001 0
0.701792 0.006771 0
0.697887 0.006554 0
0.694096 0.006348 0
0.690414 0.006154 0
0.686835 0.005969 0
0.683355 0.005794 0
0.679970 0.005627 0
0.676675 0.005468 0
0.673466 0.005316 0
0.670340 0.005171 0
0.667293 0.005032 0
0.664323 0.004899 0
0.661426 0.004771 0
0.658599 0.004648 0
0.655841 0.004529 0
0.653148 0.004415 0
0.650520 0.004304 0
0.647953 0.004197 0
0.645445 0.004093 0
0.642996 0.003991 0
0.640604 0.003892 0
0.638267 0.003795 0
0.635985 0.003700 0
0.633756 0.003606 0
0.631579 0.003513 0
0.629455 0.003421 0
0.627382 0.003329 0
0.625361 0.003237 0
0.623391 0.003144 0
0.621473 0.003049 0
0.619607 0.002953 0
0.617795 0.002854 0
0.616037 0.002752 0
0.614336 0.002645 0
0.612692 0.002534 0
0.611109 0.002416 0
0.609590 0.002291 0
0.608138 0.002157 0
0.606758 0.002013 0
0.605454 0.001857 0
0.604233 0.001687 0
0.603102 0.001500 0
0.602068 0.001294 0
0.601142 0.001065 0
0.600334 0.000810 0
0.599656 0.000524 0
0.599123 0.000199 0
0.598744 -0.000170 0
0.598554 -0.000585 0
0.598575 -0.001052 0
0.598831 -0.001580 0
0.599353 -0.002181 0
0.600174 -0.002865 0
0.601334 -0.003647 0
0.602879 -0.004543 0
0.604861 -0.005572 0
0.607343 -0.006758 0
0.610393 -0.008130 0
0.614096 -0.009720 0
0.618545 -0.011572 0
0.623853 -0.013737 0
0.630150 -0.016280 0
0.637587 -0.019283 0
0.646345 -0.022851 0
0.656634 -0.027119 0
0.668702 -0.032265 0
0.682844 -0.038524 0
0.699402 -0.046216 0