/*--------------------------------*- C++ -*----------------------------------*\
| =========                 |                                                 |
| \\      /  F ield         | OpenFOAM: The Open Source CFD Toolbox           |
|  \\    /   O peration     | Version:  5.x                                   |
|   \\  /    A nd           | Web:      www.OpenFOAM.org                      |
|    \\/     M anipulation  |                                                 |
\*---------------------------------------------------------------------------*/
FoamFile
{
    version     2.0;
    format      ascii;
    class       volScalarField;
    location    "18.1";
    object      gradTx;
}
// * * * * * * * * * * * * * * * * * * * * * * * * * * * * * * * * * * * * * //

dimensions      [0 -1 0 1 0 0 0];

internalField   nonuniform List<scalar> 
6300
(
-10.9339
-10.7021
-10.2413
-9.55736
-8.65979
-7.56253
-6.28486
-4.85227
-3.29718
-1.6591
0.0158582
1.67656
3.26949
4.74237
6.04836
-11.166
-10.9315
-10.4648
-9.7713
-8.85979
-7.74326
-6.4401
-4.97512
-3.38051
-1.69634
0.0297554
1.74398
3.38917
4.90889
6.25229
-11.633
-11.3932
-10.9153
-10.2036
-9.26511
-8.11095
-6.75749
-5.22792
-3.55374
-1.77584
0.0551627
1.88006
3.63397
5.25138
6.67264
-12.3402
-12.0932
-11.6
-10.863
-9.88644
-8.67827
-7.25131
-5.62568
-3.83103
-1.90881
0.0863141
2.08674
4.01487
5.78961
7.33572
-13.2948
-13.0396
-12.5288
-11.7621
-10.7398
-9.46467
-7.94413
-6.19278
-4.23624
-2.11505
0.111814
2.36534
4.54882
6.55608
8.2858
-14.5048
-14.2419
-13.714
-12.9171
-11.8461
-10.4969
-8.86809
-6.96542
-4.80645
-2.42731
0.110287
2.7136
5.25862
7.59969
9.59177
-15.9779
-15.7096
-15.1685
-14.3463
-13.2311
-11.8089
-10.0663
-7.99469
-5.59717
-2.89839
0.0426842
3.11979
6.17199
8.99193
11.3595
-17.7196
-17.4502
-16.9045
-16.069
-14.9233
-13.4416
-11.5938
-9.35021
-6.68948
-3.61212
-0.161306
3.55052
7.31726
10.8361
13.7541
-19.7311
-19.4674
-18.9306
-18.1019
-16.952
-15.4407
-13.5173
-11.1232
-8.19877
-4.69963
-0.626658
3.92595
8.71005
13.2807
17.0416
-22.0065
-21.7578
-21.249
-20.4564
-19.3423
-17.8521
-15.9119
-13.4269
-10.2831
-6.36129
-1.572
4.06953
10.3159
16.5347
21.6738
-24.5309
-24.3086
-23.8514
-23.1328
-22.1089
-20.7137
-18.8518
-16.3895
-13.1457
-8.89079
-3.36993
3.6079
11.9489
20.8679
28.4744
-27.2778
-27.0945
-26.7156
-26.1147
-25.247
-24.0422
-22.3924
-20.1338
-17.0198
-12.6865
-6.62516
1.78272
13.0033
26.5132
39.0942
-30.2082
-30.0761
-29.802
-29.3636
-28.7225
-27.816
-26.542
-24.7338
-22.1135
-18.2107
-12.2272
-2.85559
11.7679
33.0867
57.2792
-33.2709
-33.2002
-33.0528
-32.8153
-32.4638
-31.9575
-31.2261
-30.1461
-28.4898
-25.8158
-21.2179
-12.7462
3.83672
36.7857
93.0049
-36.4046
-36.4011
-36.3938
-36.3812
-36.3601
-36.3241
-36.259
-36.1348
-35.8841
-35.3451
-34.0826
-30.7485
-20.461
17.2135
178.407
7.07501
7.83444
8.42743
8.85263
9.11454
9.22243
9.18901
9.02911
8.7585
8.39287
7.94713
7.43495
6.86851
6.25843
5.61383
4.94245
4.2508
3.54436
2.8277
2.1047
1.37859
0.652123
-0.0723581
-0.792873
-1.50774
-2.21555
-2.91514
-3.6056
-4.28624
-4.95663
-5.61654
-6.26593
-6.90493
-7.53379
-8.15279
-8.76221
-9.36226
-9.95303
-10.5345
-11.1064
-11.6685
-12.2204
-12.7619
-13.2926
-13.8124
-14.3216
-14.8203
-15.309
-15.7883
-16.2587
-16.7209
-17.175
-17.6211
-18.0589
-18.4877
-18.9067
-19.3146
-19.7103
-20.0924
-20.4598
-20.8113
-21.1461
-21.4632
-21.762
-22.0414
-22.3001
-22.5365
-22.7483
-22.9327
-23.0863
-23.205
-23.2845
-23.3204
-23.3082
-23.2439
-23.124
-22.946
-22.7081
-22.4095
-22.0506
-21.6328
-21.1587
-20.6318
-20.0567
-19.4389
-18.7851
-18.1027
-17.4
-16.6858
-15.9691
7.30294
8.07372
8.66866
9.08739
9.33597
9.42556
9.37079
9.18822
8.89502
8.50793
8.04252
7.51281
6.93109
6.3079
5.65217
4.97142
4.27191
3.55887
2.83668
2.10901
1.37895
0.64914
-0.0781863
-0.80111
-1.518
-2.22746
-2.92836
-3.61978
-4.30106
-4.97176
-5.6317
-6.28089
-6.91954
-7.54796
-8.16655
-8.77567
-9.37558
-9.96641
-10.5481
-11.1204
-11.683
-12.2355
-12.7772
-13.3081
-13.8278
-14.3365
-14.8345
-15.3224
-15.8008
-16.2706
-16.7323
-17.1863
-17.6329
-18.0715
-18.5017
-18.9223
-19.3321
-19.7296
-20.1134
-20.4823
-20.8352
-21.1712
-21.4895
-21.7897
-22.0709
-22.332
-22.5716
-22.7876
-22.9769
-23.1362
-23.2611
-23.3471
-23.3893
-23.3829
-23.3236
-23.2076
-23.0321
-22.7951
-22.496
-22.1351
-21.7137
-21.2345
-20.701
-20.1178
-19.4906
-18.826
-18.1317
-17.4164
-16.6892
-15.9596
7.77263
8.56586
9.16329
9.5668
9.78602
9.83624
9.73626
9.50631
9.16645
8.73548
8.23024
7.66534
7.05315
6.40398
5.72634
5.02721
4.31232
3.5864
2.85339
2.11661
1.37883
0.642453
-0.0904656
-0.818142
-1.53903
-2.25178
-2.95528
-3.64862
-4.33113
-5.00242
-5.66235
-6.31104
-6.94886
-7.57629
-8.19394
-8.80234
-9.40192
-9.99289
-10.5752
-11.1485
-11.7122
-12.2657
-12.8083
-13.3394
-13.8589
-14.3666
-14.8632
-15.3492
-15.8258
-16.2939
-16.7545
-17.2084
-17.6558
-18.0963
-18.5293
-18.9534
-19.367
-19.7684
-20.1558
-20.5278
-20.8832
-21.2214
-21.5419
-21.8445
-22.1289
-22.3947
-22.6406
-22.8648
-23.0643
-23.2353
-23.3732
-23.4726
-23.5279
-23.5336
-23.4847
-23.3767
-23.2063
-22.9715
-22.6714
-22.3063
-21.8778
-21.3883
-20.8416
-20.2422
-19.5958
-18.9094
-18.191
-17.4497
-16.6957
-15.9396
8.51334
9.33956
9.93678
10.3112
10.479
10.4628
10.2885
9.98232
9.56877
9.06969
8.50358
7.88567
7.22819
6.54083
5.83124
5.10548
4.3684
3.62394
2.87538
2.12547
1.37655
0.630657
-0.11041
-0.845059
-1.57185
-2.28951
-2.9969
-3.6931
-4.37742
-5.04947
-5.70919
-6.35688
-6.99311
-7.61871
-8.23461
-8.84168
-9.44063
-10.0318
-10.6151
-11.1901
-11.756
-12.3115
-12.8557
-13.3876
-13.9067
-14.4129
-14.9068
-15.3896
-15.8627
-16.3277
-16.7863
-17.2397
-17.6882
-18.1319
-18.5695
-18.9994
-19.4194
-19.8271
-20.2202
-20.5969
-20.9559
-21.2968
-21.6197
-21.9251
-22.2137
-22.4857
-22.7407
-22.9773
-23.1924
-23.3819
-23.5403
-23.6612
-23.7377
-23.7629
-23.7305
-23.6352
-23.4731
-23.2417
-22.9401
-22.5687
-22.1292
-21.6243
-21.0577
-20.4339
-19.7586
-19.0387
-18.2829
-17.5012
-16.7052
-15.9073
9.57439
10.4426
11.0307
11.3528
11.4366
11.3168
11.0304
10.6125
10.0939
9.5001
8.85124
8.16274
7.44602
6.70946
5.95921
5.19985
4.4349
3.66722
2.89915
2.13274
1.36976
0.611791
-0.139711
-0.883387
-1.61793
-2.3421
-3.05471
-3.75474
-4.44141
-5.1143
-5.7734
-6.4192
-7.05267
-7.67508
-8.28795
-8.8927
-9.49048
-10.0819
-10.667
-11.245
-11.8144
-12.3736
-12.9207
-13.4541
-13.9728
-14.4766
-14.9664
-15.4437
-15.911
-16.3708
-16.8256
-17.2776
-17.7277
-18.1758
-18.6206
-19.0595
-19.4893
-19.9066
-20.308
-20.6911
-21.0545
-21.398
-21.7225
-22.0298
-22.3221
-22.601
-22.8673
-23.1203
-23.3571
-23.573
-23.7612
-23.9136
-24.0211
-24.0748
-24.0666
-23.9897
-23.8394
-23.6127
-23.309
-22.9289
-22.4746
-21.9491
-21.3559
-20.6996
-19.9852
-19.2196
-18.4118
-17.573
-16.7172
-15.8596
11.0329
11.9488
12.5072
12.7374
12.6869
12.4103
11.9614
11.3875
10.7271
10.0095
9.25571
8.48016
7.69216
6.89757
6.10008
5.30204
4.50516
3.71086
2.92038
2.13492
1.35561
0.583489
-0.180393
-0.934961
-1.67905
-2.41139
-3.13068
-3.83566
-4.5253
-5.199
-5.85676
-6.49932
-7.12812
-7.7452
-8.35294
-8.9537
-9.5494
-10.1412
-10.7291
-11.312
-11.8876
-12.4531
-13.0053
-13.5417
-14.0602
-14.5606
-15.0438
-15.5123
-15.9699
-16.4207
-16.8689
-17.318
-17.7698
-18.2245
-18.6799
-19.1325
-19.5771
-20.0086
-20.4219
-20.8135
-21.1815
-21.5262
-21.8497
-22.156
-22.4494
-22.7341
-23.0128
-23.2862
-23.5518
-23.8038
-24.0336
-24.2303
-24.3816
-24.4756
-24.5013
-24.4498
-24.3153
-24.0946
-23.7875
-23.3957
-22.9223
-22.3709
-21.7451
-21.0485
-20.2853
-19.4612
-18.585
-17.6694
-16.7315
-15.7916
13.008
13.9693
14.4558
14.526
14.2623
13.7516
13.0719
12.2866
11.4422
10.5706
9.69129
8.81525
7.94752
7.08965
6.24151
5.40236
4.57155
3.7488
2.93422
2.12813
1.33096
0.543205
-0.234598
-1.00172
-1.75716
-2.49957
-3.22733
-3.93872
-4.63218
-5.30667
-5.96204
-6.59924
-7.22043
-7.82875
-8.42797
-9.02193
-9.61392
-10.206
-10.7984
-11.3893
-11.9753
-12.5515
-13.1128
-13.6546
-14.1738
-14.6691
-15.1421
-15.5966
-16.0383
-16.4742
-16.9109
-17.3543
-17.8077
-18.2717
-18.7433
-19.2166
-19.6838
-20.1365
-20.567
-20.9697
-21.3419
-21.6845
-22.0017
-22.3005
-22.5891
-22.8754
-23.1658
-23.4632
-23.7656
-24.0663
-24.3534
-24.6119
-24.8246
-24.9746
-25.0468
-25.0293
-24.9149
-24.7007
-24.3877
-23.9798
-23.4821
-22.8995
-22.2358
-21.4932
-20.6729
-19.7777
-18.8146
-17.7975
-16.7486
-15.6963
15.687
16.6734
17.0034
16.795
16.1933
15.3358
14.3345
13.2704
12.1964
11.1424
10.1219
9.13814
8.18841
7.26751
6.3698
5.49047
4.62613
3.77483
2.93568
2.10833
1.29265
0.488474
-0.304281
-1.0854
-1.85411
-2.6089
-3.34761
-4.06764
-4.7664
-5.44191
-6.09348
-6.72223
-7.33126
-7.92539
-8.51055
-9.09297
-9.67828
-10.2702
-10.8696
-11.4738
-12.077
-12.6713
-13.2483
-13.8002
-14.3214
-14.8097
-15.2669
-15.699
-16.1152
-16.5262
-16.9432
-17.3759
-17.8303
-18.3079
-18.804
-19.3093
-19.8111
-20.2962
-20.752
-21.1696
-21.5447
-21.8791
-22.1801
-22.4596
-22.7317
-23.0107
-23.3086
-23.6325
-23.9819
-24.348
-24.7144
-25.0591
-25.3576
-25.5854
-25.7211
-25.7483
-25.6581
-25.4487
-25.1245
-24.6931
-24.1639
-23.5447
-22.84
-22.0494
-21.1683
-20.1919
-19.1217
-17.9712
-16.7705
-15.5627
19.3751
20.3221
20.3261
19.6301
18.4923
17.127
15.6871
14.2683
12.9215
11.6656
10.4994
9.41178
8.38756
7.41175
6.47141
5.55681
4.66178
3.78323
2.91998
2.07162
1.23764
0.417197
-0.390806
-1.18705
-1.97117
-2.74145
-3.49484
-4.22723
-4.93414
-5.61165
-6.25778
-6.8736
-7.46355
-8.03495
-8.59701
-9.15984
-9.73302
-10.3237
-10.934
-11.5597
-12.1913
-12.8159
-13.4198
-13.9899
-14.5164
-14.9949
-15.4277
-15.8243
-16.1992
-16.5695
-16.953
-17.3659
-17.8195
-18.3171
-18.8514
-19.4066
-19.9626
-20.4976
-20.992
-21.4305
-21.8061
-22.1215
-22.3892
-22.629
-22.8641
-23.1186
-23.4139
-23.7647
-24.1738
-24.6292
-25.1063
-25.5726
-25.9921
-26.3288
-26.5512
-26.6361
-26.5725
-26.362
-26.0151
-25.5472
-24.975
-24.3127
-23.5677
-22.7359
-21.8006
-20.7411
-19.5441
-18.2172
-16.8024
-15.3723
24.5979
25.3283
24.6565
23.1008
21.1184
19.0255
17.0091
15.1622
13.5156
12.0593
10.7637
9.5938
8.51677
7.5047
6.53575
5.59477
4.67351
3.76943
2.88271
2.01404
1.16305
0.327899
-0.494352
-1.30624
-2.10823
-2.8984
-3.67234
-4.42358
-5.14421
-5.82661
-6.46575
-7.0622
-7.62255
-8.15791
-8.68234
-9.21176
-9.76259
-10.3487
-10.976
-11.637
-12.3155
-12.9905
-13.6398
-14.2422
-14.7805
-15.2456
-15.6405
-15.9809
-16.2897
-16.5935
-16.9202
-17.297
-17.7453
-18.2734
-18.8683
-19.5028
-20.1439
-20.7575
-21.312
-21.7819
-22.1539
-22.4322
-22.6385
-22.805
-22.9685
-23.1675
-23.4391
-23.8127
-24.299
-24.8789
-25.5134
-26.1532
-26.7454
-27.2368
-27.5792
-27.7373
-27.6982
-27.4715
-27.0797
-26.5513
-25.9156
-25.1995
-24.4202
-23.5711
-22.6115
-21.488
-20.1536
-18.5894
-16.8562
-15.0911
32.3326
32.3532
30.259
27.1856
23.9028
20.8132
18.0866
15.7675
13.8354
12.2214
10.8466
9.64189
8.55218
7.53532
6.55958
5.60412
4.66032
3.73046
2.81926
1.93087
1.06551
0.219912
-0.612928
-1.43976
-2.26237
-3.07878
-3.88256
-4.66404
-5.40937
-6.10386
-6.73523
-7.30277
-7.81752
-8.29659
-8.76045
-9.23278
-9.74127
-10.3145
-10.9692
-11.6892
-12.4447
-13.2018
-13.9271
-14.5867
-15.1501
-15.597
-15.9318
-16.1828
-16.3871
-16.5844
-16.8154
-17.1247
-17.5562
-18.1335
-18.8278
-19.5894
-20.3645
-21.1024
-21.7535
-22.2743
-22.6363
-22.8462
-22.945
-22.9849
-23.0215
-23.1116
-23.317
-23.6984
-24.2889
-25.0498
-25.9127
-26.8021
-27.6436
-28.3589
-28.8722
-29.1221
-29.0939
-28.8182
-28.3408
-27.7097
-26.9716
-26.1772
-25.3731
-24.5651
-23.658
-22.5386
-21.0938
-19.2049
-16.9555
-14.6478
44.5811
42.4229
37.2712
31.5714
26.4083
22.0774
18.5768
15.8152
13.6966
12.0389
10.6844
9.52407
8.48246
7.50647
6.55398
5.59647
4.62683
3.66443
2.72278
1.81437
0.939352
0.0934328
-0.740269
-1.57944
-2.42554
-3.27739
-4.12497
-4.9566
-5.74778
-6.47202
-7.09662
-7.61934
-8.06384
-8.45716
-8.82633
-9.2017
-9.62661
-10.163
-10.8682
-11.6902
-12.5716
-13.4587
-14.3091
-15.0694
-15.6874
-16.1098
-16.3434
-16.4517
-16.4946
-16.5264
-16.5975
-16.7764
-17.1569
-17.8247
-18.6902
-19.6563
-20.6384
-21.5723
-22.3822
-22.995
-23.3373
-23.4201
-23.3359
-23.1693
-22.9972
-22.8895
-22.9413
-23.2825
-24.0333
-25.0736
-26.2735
-27.5197
-28.7234
-29.7714
-30.5442
-30.9072
-30.8456
-30.455
-29.8231
-29.0217
-28.1084
-27.1683
-26.3314
-25.7016
-25.0098
-24.0574
-22.6734
-20.339
-17.1388
-13.8709
65.9543
56.8025
45.0726
35.1845
27.7152
22.146
18.0027
14.9366
12.8941
11.4197
10.2422
9.23509
8.31802
7.44358
6.55543
5.6061
4.58279
3.56837
2.57836
1.64967
0.771215
-0.0507126
-0.859798
-1.70921
-2.58046
-3.4822
-4.39041
-5.3074
-6.1826
-6.98368
-7.60469
-8.04856
-8.38382
-8.6525
-8.88323
-9.09924
-9.35129
-9.76856
-10.5988
-11.6057
-12.6902
-13.7683
-14.8209
-15.7567
-16.5062
-16.8945
-16.9352
-16.8149
-16.6178
-16.4117
-16.2244
-16.1379
-16.3434
-17.2312
-18.4078
-19.6999
-20.9813
-22.2206
-23.2947
-24.1051
-24.4118
-24.2344
-23.8451
-23.3614
-22.8802
-22.4373
-22.1488
-22.2766
-23.3604
-24.8675
-26.5672
-28.2985
-30.0269
-31.5802
-32.8058
-33.3036
-33.0708
-32.4392
-31.5492
-30.4944
-29.2835
-28.0107
-26.9913
-26.9273
-26.7366
-26.1974
-25.6212
-22.7199
-17.4194
-12.3064
108.487
74.8935
50.2207
35.314
26.2854
20.1609
15.8769
12.584
11.273
10.3727
9.55442
8.81622
8.09194
7.40021
6.64474
5.72206
4.52572
3.43697
2.34543
1.4125
0.521539
-0.213465
-0.921346
-1.80764
-2.69153
-3.67774
-4.64323
-5.71841
-6.72417
-7.75467
-8.36782
-8.63416
-8.79968
-8.90242
-8.96128
-8.94482
-8.83798
-8.77935
-10.0749
-11.4094
-12.8178
-14.1145
-15.5009
-16.712
-17.845
-18.1793
-17.7588
-17.2885
-16.7537
-16.2698
-15.7058
-15.0786
-14.5475
-16.2214
-17.959
-19.7586
-21.3847
-23.1064
-24.5867
-25.9402
-26.1831
-25.3536
-24.4897
-23.5499
-22.7075
-21.7626
-20.7566
-19.8939
-22.0775
-24.384
-26.815
-29.081
-31.5821
-33.8605
-36.1151
-36.7517
-35.8698
-34.795
-33.512
-32.1919
-30.5474
-28.4879
-26.2749
-28.3352
-28.9649
-28.3905
-31.9166
-28.5556
-17.4296
-8.68182
207.244
80.1377
41.305
26.9783
20.6734
15.5249
12.3239
7.37707
9.06014
9.20745
8.7511
8.37707
7.81878
7.44839
6.97464
6.23189
4.31352
3.30945
1.88398
1.11477
0.0471909
-0.415351
-0.726051
-1.90956
-2.65532
-3.90315
-4.73815
-6.22942
-7.23013
-9.12663
-9.63036
-9.36491
-9.30592
-9.21551
-9.14774
-8.9205
-8.25521
-5.84005
-9.49485
-11.1065
-13.1061
-14.3312
-16.4334
-17.7797
-20.3336
-20.5512
-18.6537
-17.8547
-16.8162
-16.2432
-15.278
-13.8808
-9.57622
-15.1196
-17.4207
-20.067
-21.6502
-24.3395
-26.0612
-29.3743
-29.4982
-26.5223
-25.2435
-23.5978
-22.6825
-21.1755
-19.1578
-13.1242
-20.6174
-23.7212
-27.2999
-29.5249
-33.4578
-36.1748
-41.7539
-42.3861
-38.9463
-37.4503
-35.5282
-34.356
-32.4085
-29.1859
-19.4046
-31.803
-32.9265
-24.6788
-48.1294
-45.5724
-14.015
0.448321
-15.1891
-14.3596
-13.5659
-12.819
-12.1273
-11.4966
-10.9306
-10.431
-9.99808
-9.63107
-9.32867
-9.08929
-8.91137
-8.79357
-8.73492
-15.1661
-14.3235
-13.519
-12.7637
-12.0661
-11.4318
-10.8641
-10.3642
-9.93203
-9.56636
-9.26555
-9.02774
-8.85115
-8.73432
-8.67618
-15.1187
-14.2493
-13.4227
-12.6506
-11.9415
-11.3003
-10.7296
-10.2297
-9.79936
-9.4367
-9.13933
-8.90486
-8.7311
-8.61629
-8.5592
-15.0432
-14.1321
-13.2717
-12.4745
-11.7487
-11.0983
-10.5243
-10.0254
-9.59891
-9.24164
-8.95013
-8.72117
-8.552
-8.44045
-8.38505
-14.9339
-13.9642
-13.0573
-12.2269
-11.4803
-10.8197
-10.2437
-9.74848
-9.32918
-8.98073
-8.69829
-8.4776
-8.31518
-8.20838
-8.15542
-14.7817
-13.7333
-12.7663
-11.8953
-11.1258
-10.4566
-9.88226
-9.39554
-8.98851
-8.65372
-8.3846
-8.17568
-8.02266
-7.92237
-7.87274
-14.5725
-13.4208
-12.3791
-11.462
-10.6708
-9.99832
-9.43313
-8.96279
-8.5755
-8.26095
-8.01062
-7.81778
-7.67732
-7.58562
-7.54034
-14.2841
-12.9981
-11.8672
-10.9028
-10.0971
-9.43265
-8.88903
-8.44691
-8.08967
-7.80387
-7.57906
-7.4074
-7.28315
-7.20237
-7.16258
-13.8793
-12.4201
-11.1887
-10.1848
-9.38209
-8.74603
-8.24334
-7.84605
-7.53231
-7.28571
-7.09429
-6.94952
-6.84544
-6.77806
-6.74495
-13.293
-11.614
-10.2828
-9.26546
-8.50032
-7.92594
-7.49215
-7.16157
-6.90772
-6.71228
-6.5628
-6.45088
-6.37095
-6.31941
-6.29415
-12.4024
-10.4601
-9.06272
-8.09387
-7.42771
-6.9652
-6.63766
-6.40029
-6.22464
-6.09283
-5.99368
-5.92018
-5.86799
-5.83444
-5.818
-10.9625
-8.76115
-7.414
-6.61948
-6.15139
-5.86939
-5.69294
-5.57724
-5.49765
-5.44065
-5.39883
-5.36813
-5.34633
-5.33227
-5.32536
-8.45866
-6.20793
-5.21261
-4.81859
-4.6889
-4.66799
-4.68741
-4.718
-4.748
-4.77325
-4.79282
-4.80711
-4.81687
-4.8229
-4.82576
-3.78648
-2.39921
-2.40985
-2.75333
-3.11757
-3.42622
-3.67066
-3.85931
-4.00306
-4.11146
-4.19205
-4.25054
-4.29111
-4.31664
-4.32897
5.40788
2.80744
0.725778
-0.667273
-1.60182
-2.24862
-2.70965
-3.04549
-3.29344
-3.47743
-3.61333
-3.71187
-3.78034
-3.82355
-3.84446
-39.2804
-39.3391
-39.4614
-39.6577
-39.9457
-40.3537
-40.9269
-41.7405
-42.9267
-44.7436
-47.7745
-53.6248
-67.8389
-113.954
-308.432
-41.8541
-41.966
-42.1989
-42.5729
-43.1221
-43.9022
-45.0037
-46.5779
-48.891
-52.4449
-58.2639
-68.6134
-88.7557
-130.169
-205.665
-44.3501
-44.5088
-44.8387
-45.3665
-46.1382
-47.2277
-48.7523
-50.9022
-53.9938
-58.5733
-65.6072
-76.8016
-94.9013
-122.714
-155.325
-46.7361
-46.933
-47.341
-47.9907
-48.9337
-50.251
-52.0668
-54.5724
-58.0635
-62.9971
-70.0612
-80.1942
-94.302
-111.927
-127.63
-48.9855
-49.2106
-49.6755
-50.4113
-51.4695
-52.9282
-54.9024
-57.5584
-61.1314
-65.9417
-72.3841
-80.8263
-91.2602
-102.474
-110.841
-51.0785
-51.3217
-51.822
-52.6082
-53.7271
-55.2473
-57.2646
-59.9075
-63.3403
-67.7528
-73.3182
-80.0751
-87.6768
-94.9966
-99.863
-53.0028
-53.2545
-53.7699
-54.5741
-55.7062
-57.2214
-59.1922
-61.7081
-64.8687
-68.7634
-73.425
-78.7372
-84.2892
-89.2232
-92.264
-54.7524
-55.0041
-55.5174
-56.3123
-57.4192
-58.879
-60.7414
-63.0611
-65.8872
-69.2415
-73.0801
-77.2328
-81.3305
-84.7645
-86.7765
-56.3272
-56.5721
-57.0694
-57.8339
-58.8873
-60.257
-61.973
-64.0625
-66.5388
-69.3831
-72.5169
-75.7666
-78.8326
-81.2933
-82.6862
-57.732
-57.9649
-58.4359
-59.1549
-60.1359
-61.3945
-62.9453
-64.7953
-66.9348
-69.3238
-71.8734
-74.4278
-76.755
-78.5637
-79.563
-58.975
-59.1924
-59.6301
-60.2941
-61.1916
-62.3292
-63.7098
-65.3269
-67.1577
-69.1529
-71.2264
-73.2467
-75.0376
-76.396
-77.1337
-60.0673
-60.2668
-60.6673
-61.2712
-62.0805
-63.0952
-64.31
-65.7102
-67.2663
-68.9276
-70.6163
-72.2249
-73.6204
-74.6595
-75.2165
-61.0209
-61.2017
-61.5633
-62.1056
-62.8268
-63.7223
-64.7815
-65.9853
-67.3019
-68.6833
-70.0619
-71.3511
-72.4506
-73.2577
-73.6862
-61.8491
-62.011
-62.3339
-62.8157
-63.4522
-64.2356
-65.1525
-66.182
-67.2927
-68.4408
-69.5694
-70.6092
-71.4838
-72.1188
-72.4534
-62.5649
-62.7084
-62.9941
-63.4184
-63.9757
-64.6562
-65.4455
-66.3223
-67.2573
-68.212
-69.1386
-69.9819
-70.6835
-71.1884
-71.4529
-63.181
-63.3073
-63.5579
-63.9289
-64.4135
-65.0013
-65.6776
-66.4222
-67.2083
-68.0026
-68.7655
-69.4529
-70.0198
-70.4249
-70.6361
-63.7095
-63.8198
-64.0383
-64.3606
-64.7796
-65.2849
-65.8624
-66.4932
-67.1536
-67.8151
-68.4449
-69.0077
-69.4685
-69.7959
-69.9661
-64.1613
-64.2571
-64.4465
-64.725
-65.0857
-65.5185
-66.0102
-66.5436
-67.0982
-67.6496
-68.1707
-68.6333
-69.0099
-69.2761
-69.4141
-64.5467
-64.6294
-64.7928
-65.0325
-65.3418
-65.7113
-66.1289
-66.5795
-67.045
-67.505
-67.9372
-68.3187
-68.6277
-68.8454
-68.958
-64.8746
-64.9458
-65.0862
-65.2917
-65.556
-65.8706
-66.2247
-66.6048
-66.9957
-67.3798
-67.7389
-68.0544
-68.309
-68.4878
-68.58
-65.1531
-65.2141
-65.3343
-65.5099
-65.7353
-66.0026
-66.3023
-66.6229
-66.9509
-67.272
-67.5709
-67.8325
-68.0428
-68.1902
-68.2661
-65.3892
-65.4414
-65.544
-65.6937
-65.8853
-66.1121
-66.3655
-66.6356
-66.9111
-67.1796
-67.4287
-67.6461
-67.8204
-67.9422
-68.0049
-65.5891
-65.6336
-65.721
-65.8483
-66.011
-66.2031
-66.4172
-66.6447
-66.8759
-67.1008
-67.3087
-67.4896
-67.6343
-67.7354
-67.7873
-65.7582
-65.796
-65.8703
-65.9784
-66.1163
-66.2788
-66.4595
-66.6511
-66.8453
-67.0336
-67.2074
-67.3582
-67.4786
-67.5626
-67.6057
-65.9009
-65.933
-65.9961
-66.0878
-66.2046
-66.3419
-66.4944
-66.6556
-66.8188
-66.9766
-67.1219
-67.2479
-67.3483
-67.4182
-67.454
-66.0214
-66.0486
-66.1021
-66.1797
-66.2785
-66.3945
-66.5231
-66.6588
-66.7959
-66.9283
-67.05
-67.1553
-67.2391
-67.2974
-67.3273
-66.1229
-66.146
-66.1913
-66.2569
-66.3405
-66.4384
-66.5468
-66.6611
-66.7764
-66.8875
-66.9894
-67.0775
-67.1476
-67.1963
-67.2213
-66.2084
-66.2279
-66.2663
-66.3218
-66.3924
-66.4751
-66.5665
-66.6627
-66.7597
-66.853
-66.9385
-67.0123
-67.071
-67.1117
-67.1326
-66.2803
-66.2969
-66.3293
-66.3763
-66.4359
-66.5057
-66.5828
-66.6639
-66.7454
-66.8239
-66.8957
-66.9577
-67.0068
-67.041
-67.0585
-66.3408
-66.3548
-66.3822
-66.4219
-66.4723
-66.5313
-66.5963
-66.6647
-66.7334
-66.7994
-66.8598
-66.9118
-66.9531
-66.9818
-66.9964
-66.3915
-66.4033
-66.4266
-66.4602
-66.5028
-66.5526
-66.6076
-66.6653
-66.7232
-66.7788
-66.8297
-66.8734
-66.9082
-66.9322
-66.9446
-66.434
-66.444
-66.4637
-66.4922
-66.5283
-66.5705
-66.6169
-66.6657
-66.7146
-66.7616
-66.8044
-66.8414
-66.8706
-66.8909
-66.9013
-66.4695
-66.478
-66.4947
-66.5189
-66.5495
-66.5853
-66.6247
-66.666
-66.7074
-66.7471
-66.7834
-66.8146
-66.8393
-66.8564
-66.8652
-66.4991
-66.5064
-66.5206
-66.5411
-66.5672
-66.5976
-66.6311
-66.6662
-66.7013
-66.7351
-66.7658
-66.7923
-66.8132
-66.8278
-66.8352
-66.5237
-66.5299
-66.542
-66.5596
-66.5818
-66.6078
-66.6364
-66.6663
-66.6963
-66.7251
-66.7513
-66.7738
-66.7917
-66.804
-66.8104
-66.5439
-66.5492
-66.5597
-66.5748
-66.5939
-66.6162
-66.6407
-66.6664
-66.6922
-66.7168
-66.7393
-66.7586
-66.7739
-66.7845
-66.7899
-66.5605
-66.5651
-66.5741
-66.5872
-66.6037
-66.623
-66.6443
-66.6665
-66.6887
-66.7101
-66.7295
-66.7462
-66.7594
-66.7686
-66.7732
-66.5738
-66.5778
-66.5857
-66.5972
-66.6117
-66.6285
-66.6471
-66.6665
-66.686
-66.7046
-66.7216
-66.7362
-66.7477
-66.7557
-66.7598
-66.5843
-66.5879
-66.5949
-66.6051
-66.6179
-66.6329
-66.6493
-66.6666
-66.6838
-66.7003
-66.7154
-66.7283
-66.7385
-66.7456
-66.7492
-66.5924
-66.5956
-66.6019
-66.6111
-66.6227
-66.6362
-66.6511
-66.6666
-66.6822
-66.697
-66.7106
-66.7223
-66.7315
-66.7379
-66.7411
-66.5981
-66.6011
-66.607
-66.6154
-66.6261
-66.6386
-66.6523
-66.6666
-66.681
-66.6947
-66.7072
-66.7179
-66.7264
-66.7323
-66.7353
-66.6019
-66.6047
-66.6102
-66.6182
-66.6283
-66.6401
-66.6531
-66.6666
-66.6802
-66.6932
-66.705
-66.7151
-66.7232
-66.7287
-66.7316
-66.6036
-66.6064
-66.6117
-66.6195
-66.6294
-66.6408
-66.6534
-66.6666
-66.6798
-66.6924
-66.7039
-66.7138
-66.7216
-66.727
-66.7298
-66.6034
-66.6062
-66.6116
-66.6194
-66.6293
-66.6408
-66.6534
-66.6666
-66.6799
-66.6925
-66.704
-66.7139
-66.7218
-66.7272
-66.73
-66.6014
-66.6042
-66.6098
-66.6178
-66.628
-66.6399
-66.653
-66.6666
-66.6803
-66.6934
-66.7053
-66.7155
-66.7236
-66.7292
-66.732
-66.5973
-66.6003
-66.6063
-66.6148
-66.6256
-66.6383
-66.6521
-66.6666
-66.6811
-66.695
-66.7077
-66.7185
-66.7271
-66.7331
-66.7361
-66.5912
-66.5944
-66.6009
-66.6102
-66.622
-66.6357
-66.6508
-66.6666
-66.6824
-66.6975
-66.7113
-66.7231
-66.7325
-66.739
-66.7423
-66.5827
-66.5864
-66.5935
-66.6039
-66.617
-66.6322
-66.649
-66.6666
-66.6842
-66.701
-66.7163
-66.7295
-66.7399
-66.7471
-66.7508
-66.5717
-66.5759
-66.584
-66.5957
-66.6105
-66.6277
-66.6467
-66.6666
-66.6864
-66.7055
-66.7228
-66.7377
-66.7495
-66.7576
-66.7618
-66.5579
-66.5626
-66.5719
-66.5853
-66.6022
-66.622
-66.6437
-66.6665
-66.6893
-66.7111
-66.731
-66.7481
-66.7616
-66.771
-66.7758
-66.5407
-66.5462
-66.5569
-66.5724
-66.592
-66.6149
-66.6401
-66.6664
-66.6928
-66.7181
-66.7411
-66.7609
-66.7766
-66.7875
-66.793
-66.5198
-66.5262
-66.5387
-66.5567
-66.5796
-66.6063
-66.6356
-66.6664
-66.6971
-66.7266
-66.7535
-66.7767
-66.795
-66.8077
-66.8141
-66.4944
-66.5019
-66.5165
-66.5377
-66.5645
-66.5958
-66.6302
-66.6662
-66.7024
-66.737
-66.7686
-66.7957
-66.8172
-66.8321
-66.8398
-66.4639
-66.4727
-66.4899
-66.5147
-66.5463
-66.5831
-66.6236
-66.666
-66.7086
-66.7494
-66.7867
-66.8187
-66.8441
-66.8617
-66.8707
-66.4272
-66.4376
-66.4578
-66.4872
-66.5244
-66.5678
-66.6156
-66.6658
-66.7161
-66.7644
-66.8084
-66.8463
-66.8764
-66.8972
-66.9078
-66.3834
-66.3956
-66.4195
-66.4542
-66.4981
-66.5495
-66.606
-66.6654
-66.725
-66.7822
-66.8344
-66.8794
-66.915
-66.9398
-66.9524
-66.331
-66.3455
-66.3738
-66.4148
-66.4668
-66.5275
-66.5945
-66.6649
-66.7356
-66.8034
-66.8655
-66.9189
-66.9613
-66.9907
-67.0058
-66.2687
-66.2858
-66.3192
-66.3677
-66.4293
-66.5013
-66.5807
-66.6642
-66.7481
-66.8287
-66.9025
-66.9661
-67.0166
-67.0516
-67.0695
-66.1944
-66.2147
-66.2542
-66.3116
-66.3845
-66.4698
-66.564
-66.6631
-66.7629
-66.8588
-66.9467
-67.0224
-67.0826
-67.1244
-67.1458
-66.1062
-66.1301
-66.1769
-66.2448
-66.3311
-66.4322
-66.544
-66.6617
-66.7803
-66.8945
-66.9992
-67.0896
-67.1614
-67.2113
-67.2369
-66.0014
-66.0296
-66.0849
-66.1652
-66.2673
-66.3872
-66.5198
-66.6596
-66.8007
-66.9368
-67.0616
-67.1696
-67.2554
-67.3151
-67.3457
-65.8769
-65.9102
-65.9756
-66.0705
-66.1913
-66.3333
-66.4906
-66.6567
-66.8246
-66.9868
-67.1359
-67.2649
-67.3677
-67.4391
-67.4758
-65.7294
-65.7686
-65.8457
-65.9578
-66.1006
-66.2687
-66.4553
-66.6527
-66.8525
-67.0459
-67.224
-67.3784
-67.5016
-67.5873
-67.6314
-65.5546
-65.6008
-65.6916
-65.8238
-65.9924
-66.1912
-66.4124
-66.6469
-66.8848
-67.1156
-67.3287
-67.5137
-67.6615
-67.7645
-67.8175
-65.3476
-65.402
-65.5088
-65.6644
-65.8633
-66.0982
-66.3602
-66.6388
-66.9221
-67.1977
-67.4528
-67.6747
-67.8525
-67.9765
-68.0403
-65.103
-65.1667
-65.292
-65.4749
-65.7092
-65.9865
-66.2966
-66.6273
-66.9648
-67.2941
-67.5998
-67.8666
-68.0807
-68.2304
-68.3075
-64.8142
-64.8886
-65.0354
-65.2498
-65.5251
-65.852
-66.2187
-66.6111
-67.0131
-67.4069
-67.7737
-68.095
-68.3535
-68.5347
-68.6281
-64.4736
-64.5604
-64.7317
-64.9824
-65.3052
-65.6898
-66.1228
-66.5883
-67.0672
-67.5384
-67.9793
-68.367
-68.68
-68.9
-69.0136
-64.0727
-64.1736
-64.3727
-64.6651
-65.0425
-65.4939
-66.0045
-66.5561
-67.1266
-67.691
-68.2219
-68.6909
-69.0712
-69.3393
-69.4779
-63.6019
-63.7185
-63.9491
-64.2886
-64.7285
-65.2569
-65.8578
-66.5107
-67.1903
-67.8669
-68.5073
-69.0765
-69.5402
-69.8684
-70.0385
-63.0501
-63.1842
-63.45
-63.8424
-64.353
-64.9695
-65.675
-66.4468
-67.2561
-68.068
-68.8422
-69.5352
-70.1032
-70.5072
-70.7173
-62.4051
-62.5584
-62.863
-63.3141
-63.9039
-64.6204
-65.4461
-66.3567
-67.32
-68.2952
-69.2336
-70.0806
-70.7802
-71.2807
-71.5419
-61.6537
-61.8277
-62.1742
-62.6894
-63.3669
-64.1955
-65.1583
-66.2301
-67.3757
-68.548
-69.6884
-70.7285
-71.5955
-72.2202
-72.5479
-60.7814
-60.9773
-61.3682
-61.9522
-62.7248
-63.6774
-64.7948
-66.0524
-67.4127
-68.8229
-70.2128
-71.4966
-72.579
-73.3661
-73.7814
-59.7732
-59.9914
-60.4282
-61.0841
-61.9578
-63.0449
-64.334
-65.8032
-67.4152
-69.1119
-70.8108
-72.4045
-73.7674
-74.7701
-75.3032
-58.6135
-58.8537
-59.3362
-60.0646
-61.0427
-62.272
-63.748
-65.455
-67.3589
-69.3994
-71.4817
-73.4728
-75.206
-76.5002
-77.1953
-57.2871
-57.5478
-58.0733
-58.8717
-59.9532
-61.3279
-63.0017
-64.9699
-67.2077
-69.6577
-72.216
-74.7202
-76.9494
-78.6463
-79.5699
-55.7797
-56.0579
-56.6211
-57.4823
-58.6601
-60.1761
-62.051
-64.2977
-66.9092
-69.841
-72.9877
-76.1584
-79.0625
-81.3295
-82.5859
-54.0792
-54.3702
-54.9619
-55.8732
-57.1322
-58.775
-60.8421
-63.3722
-66.3882
-69.8749
-73.7428
-77.7817
-81.6178
-84.7143
-86.4743
-52.1766
-52.4739
-53.0808
-54.0225
-55.3379
-57.0793
-59.3119
-62.1091
-65.5403
-69.644
-74.3792
-79.5458
-84.6867
-89.0273
-91.5847
-50.0677
-50.3625
-50.9672
-51.9126
-53.2477
-55.0424
-57.3896
-60.4059
-64.2253
-68.9746
-74.716
-81.3278
-88.3112
-94.5785
-98.4711
-47.7541
-48.0361
-48.617
-49.532
-50.8386
-52.6219
-55.0025
-58.1452
-62.2644
-67.6163
-74.4483
-82.8515
-92.433
-101.779
-108.06
-45.2447
-45.5023
-46.0348
-46.8796
-48.0985
-49.7867
-52.0864
-55.2062
-59.4475
-65.2302
-73.0894
-83.5569
-96.7182
-111.107
-122.012
-42.5566
-42.7776
-43.236
-43.9675
-45.0324
-46.5269
-48.6008
-51.4885
-55.5603
-61.402
-69.919
-82.3917
-100.151
-122.854
-143.536
-39.7151
-39.8881
-40.2477
-40.8239
-41.6682
-42.8649
-44.55
-46.9484
-50.4441
-55.716
-64.0018
-77.5551
-100.15
-136.005
-179.421
-36.7537
-36.8691
-37.1091
-37.4941
-38.0595
-38.8638
-40.0039
-41.6466
-44.0943
-47.9372
-54.4265
-66.4394
-90.9418
-143.904
-245.457
-33.7123
-33.7636
-33.87
-34.0392
-34.285
-34.6295
-35.109
-35.7858
-36.7757
-38.3208
-41.0156
-46.6506
-61.9691
-118.06
-382.014
-30.6354
-30.6202
-30.5873
-30.5313
-30.4421
-30.3016
-30.0772
-29.7076
-29.0717
-27.9062
-25.5629
-20.1373
-4.68273
52.1354
317.29
-27.5693
-27.4891
-27.3208
-27.0467
-26.635
-26.0322
-25.1462
-23.8147
-21.7357
-18.3097
-12.2512
-0.588737
23.8788
77.6519
181.57
-24.559
-24.4194
-24.128
-23.6576
-22.9609
-21.9595
-20.5247
-18.441
-15.3355
-10.5417
-2.83132
10.0672
32.0888
68.3445
118.019
17.392
7.10464
2.96887
0.824657
-0.476136
-1.33941
-1.94347
-2.38002
-2.70154
-2.94028
-3.11704
-3.24562
-3.33524
-3.39196
-3.41945
10.9976
6.73921
3.62499
1.59524
0.243383
-0.692862
-1.36324
-1.85491
-2.22092
-2.49499
-2.69931
-2.84878
-2.95342
-3.01987
-3.05214
7.56041
5.57916
3.52798
1.89506
0.674277
-0.230936
-0.907118
-1.41706
-1.80412
-2.09812
-2.31966
-2.48304
-2.59812
-2.6715
-2.70722
5.49901
4.46762
3.14047
1.90867
0.886018
0.0719429
-0.566435
-1.06452
-1.45194
-1.75156
-1.98037
-2.15082
-2.27175
-2.34925
-2.38709
4.15381
3.56145
2.68673
1.77703
0.952905
0.252808
-0.323175
-0.788819
-1.16074
-1.45414
-1.68161
-1.85296
-1.97554
-2.05453
-2.09322
3.21994
2.85134
2.25725
1.58594
0.933658
0.347481
-0.156536
-0.578204
-0.92404
-1.2025
-1.4218
-1.58896
-1.70959
-1.78777
-1.8262
2.54202
2.29781
1.88137
1.38161
0.868501
0.385096
-0.0470823
-0.420247
-0.734123
-0.991949
-1.19818
-1.35727
-1.47309
-1.54861
-1.58586
2.03367
1.86386
1.56334
1.18656
0.782705
0.387134
0.0213893
-0.303459
-0.583124
-0.817216
-1.00729
-1.15563
-1.26455
-1.33601
-1.37138
1.64323
1.52068
1.29825
1.0103
0.691148
0.368458
0.0614599
-0.218046
-0.463768
-0.673046
-0.845371
-0.981351
-1.08203
-1.14846
-1.18145
1.33788
1.24684
1.07866
0.855697
0.602044
0.33888
0.0824384
-0.156092
-0.369718
-0.554532
-0.708685
-0.83158
-0.92328
-0.984116
-1.01443
1.09574
1.02655
0.897111
0.7224
0.519541
0.304632
0.0909777
-0.111431
-0.295673
-0.457306
-0.593702
-0.703465
-0.785956