/*--------------------------------*- C++ -*----------------------------------*\
| =========                 |                                                 |
| \\      /  F ield         | OpenFOAM: The Open Source CFD Toolbox           |
|  \\    /   O peration     | Version:  5.x                                   |
|   \\  /    A nd           | Web:      www.OpenFOAM.org                      |
|    \\/     M anipulation  |                                                 |
\*---------------------------------------------------------------------------*/
FoamFile
{
    version     2.0;
    format      ascii;
    class       volScalarField;
    location    "6";
    object      gradTx;
}
// * * * * * * * * * * * * * * * * * * * * * * * * * * * * * * * * * * * * * //

dimensions      [0 -1 0 1 0 0 0];

internalField   nonuniform List<scalar> 
6300
(
125.529
126.211
127.56
129.546
132.12
135.213
138.734
142.562
146.552
150.531
154.302
157.654
160.375
162.265
163.161
124.844
125.54
126.92
128.954
131.597
134.783
138.422
142.397
146.56
150.735
154.717
158.282
161.201
163.257
164.271
123.459
124.184
125.623
127.751
130.528
133.896
137.771
142.039
146.554
151.129
155.545
159.552
162.885
165.289
166.549
121.346
122.111
123.633
125.895
128.866
132.5
136.723
141.432
146.482
151.679
156.78
161.492
165.493
168.463
170.12
118.464
119.277
120.9
123.325
126.539
130.51
135.186
140.481
146.26
152.323
158.399
164.138
169.13
172.944
175.194
114.768
115.631
117.361
119.966
123.45
127.811
133.027
139.044
145.748
152.95
160.351
167.527
173.941
178.987
182.096
110.205
111.114
112.945
115.723
119.481
124.254
130.066
136.914
144.737
153.376
162.523
171.676
180.116
186.963
191.329
104.73
105.672
107.579
110.498
114.495
119.654
126.065
133.806
142.906
153.289
164.686
176.533
187.881
197.414
203.675
98.3099
99.2617
101.199
104.191
108.344
113.798
120.73
129.335
139.789
152.185
166.396
181.884
197.458
211.133
220.391
90.9356
91.8631
93.7618
96.722
100.887
106.462
113.721
123.01
134.728
149.261
166.826
187.147
208.928
229.263
243.611
82.6311
83.4908
85.2602
88.045
92.0183
97.4395
104.68
114.254
126.847
143.302
164.497
190.945
221.838
253.378
277.21
73.4646
74.2064
75.7407
78.1769
81.699
86.5947
93.3015
102.477
115.102
132.598
156.912
190.292
234.098
285.193
328.926
63.554
64.127
65.317
67.2205
70.0037
73.9365
79.4515
87.2487
98.4806
115.074
140.256
179.21
239.063
324.366
416.262
53.0683
53.4283
54.1778
55.3822
57.1567
59.6939
63.317
68.583
76.4948
88.9598
109.823
147.226
218.573
356.938
585.804
42.2206
42.3381
42.5818
42.972
43.5448
44.3633
45.5375
47.2693
49.9536
54.444
62.8476
81.2935
131.06
299.005
988.09
163.049
162.052
160.237
157.625
154.265
150.22
145.566
140.385
134.757
128.759
122.459
115.92
109.195
102.331
95.3668
88.338
81.2752
74.2063
67.1567
60.1502
53.2084
46.3516
39.5979
32.9636
26.4631
20.1082
13.9088
7.87229
2.00406
-3.69278
-9.21706
-14.5693
-19.7516
-24.767
-29.6192
-34.3124
-38.8504
-43.2369
-47.475
-51.5673
-55.5161
-59.3236
-62.9922
-66.525
-69.9257
-73.1994
-76.3517
-79.3893
-82.3192
-85.1482
-87.8823
-90.5265
-93.0842
-95.5567
-97.9441
-100.244
-102.455
-104.571
-106.591
-108.511
-110.328
-112.04
-113.646
-115.144
-116.53
-117.801
-118.948
-119.964
-120.835
-121.544
-122.074
-122.404
-122.514
-122.383
-121.992
-121.326
-120.37
-119.117
-117.562
-115.707
-113.555
-111.119
-108.413
-105.458
-102.28
-98.9117
-95.3892
-91.7541
-88.0513
-84.3277
164.218
163.228
161.379
158.7
155.247
151.093
146.323
141.026
135.288
129.189
122.801
116.185
109.393
102.472
95.4579
88.3848
81.2821
74.1766
67.0932
60.0554
53.0849
46.2019
39.4249
32.7704
26.2527
19.8839
13.6738
7.62984
1.75723
-3.94117
-9.4645
-14.8138
-19.9915
-25.0013
-29.8476
-34.5349
-39.0676
-43.4495
-47.6837
-51.7727
-55.7183
-59.5222
-63.1864
-66.7135
-70.1071
-73.3723
-76.5151
-79.5427
-82.4627
-85.2828
-88.0097
-90.6491
-93.2045
-95.6774
-98.0673
-100.372
-102.587
-104.709
-106.733
-108.657
-110.477
-112.191
-113.8
-115.302
-116.694
-117.975
-119.137
-120.171
-121.064
-121.8
-122.359
-122.72
-122.859
-122.755
-122.388
-121.739
-120.796
-119.549
-117.994
-116.13
-113.964
-111.505
-108.769
-105.776
-102.553
-99.1319
-95.5498
-91.8501
-88.0799
-84.2887
166.617
165.637
163.713
160.887
157.234
152.848
147.835
142.297
136.335
130.033
123.467
116.699
109.777
102.743
95.6319
88.4722
81.291
74.1132
66.9626
59.8622
52.834
45.8985
39.0746
32.3793
25.8271
19.4305
13.1992
7.14055
1.25949
-4.44153
-9.96233
-15.3048
-20.4726
-25.4705
-30.3041
-34.9792
-39.5009
-43.8736
-48.1004
-52.1832
-56.123
-59.9204
-63.5763
-67.0924
-70.4718
-73.7196
-76.8425
-79.8489
-82.748
-85.5493
-88.2612
-90.8905
-93.4414
-95.9155
-98.3112
-100.625
-102.851
-104.984
-107.018
-108.949
-110.774
-112.493
-114.105
-115.614
-117.018
-118.317
-119.507
-120.578
-121.518
-122.309
-122.928
-123.351
-123.552
-123.504
-123.186
-122.575
-121.658
-120.424
-118.867
-116.988
-114.792
-112.289
-109.493
-106.425
-103.11
-99.5817
-95.8782
-92.0461
-88.1372
-84.2069
170.379
169.402
167.34
164.261
160.272
155.505
150.097
144.179
137.866
131.255
124.424
117.43
110.319
103.124
95.873
88.5886
81.2931
74.0087
66.758
59.5636
52.4482
45.4332
38.5383
31.7812
25.1771
18.7386
12.4756
6.39537
0.502462
-5.20129
-10.7167
-16.0471
-21.1977
-26.1755
-30.9882
-35.6435
-40.148
-44.5068
-48.7233
-52.7983
-56.7314
-60.5211
-64.1661
-67.6665
-71.0244
-74.2449
-77.3358
-80.3076
-83.1724
-85.9426
-88.6296
-91.2426
-93.7869
-96.2641
-98.6711
-101.002
-103.248
-105.4
-107.45
-109.391
-111.223
-112.944
-114.559
-116.073
-117.491
-118.815
-120.044
-121.172
-122.185
-123.062
-123.777
-124.3
-124.599
-124.642
-124.401
-123.851
-122.975
-121.76
-120.202
-118.3
-116.06
-113.491
-110.608
-107.427
-103.974
-100.282
-96.3902
-92.3511
-88.224
-84.074
175.723
174.728
172.429
168.94
164.427
159.082
153.091
146.625
139.823
132.792
125.61
118.328
110.979
103.584
96.1596
88.7187
81.2773
73.8541
66.4705
59.1501
51.9167
44.7938
37.8026
30.962
24.288
17.7935
11.4885
5.3803
-0.526947
-6.23212
-11.7373
-17.0477
-22.1712
-27.1177
-31.8984
-36.5239
-41.0036
-45.3441
-49.5486
-53.6166
-57.5449
-61.3285
-64.9626
-68.444
-71.7732
-74.9549
-77.9988
-80.9186
-83.731
-86.4535
-89.1027
-91.6913
-94.2271
-96.7113
-99.1387
-101.499
-103.777
-105.96
-108.034
-109.991
-111.827
-113.546
-115.156
-116.669
-118.096
-119.447
-120.726
-121.93
-123.044
-124.045
-124.9
-125.57
-126.013
-126.188
-126.059
-125.595
-124.776
-123.589
-122.029
-120.098
-117.8
-115.146
-112.147
-108.819
-105.182
-101.266
-97.1132
-92.7814
-88.3421
-83.8768
182.996
181.929
179.228
175.089
169.779
163.583
156.766
149.551
142.105
134.544
126.937
119.319
111.702
104.085
96.4672
88.8475
81.2336
73.6407
66.0906
58.6096
51.225
43.9636
36.8492
29.9024
23.1398
16.5749
10.2178
4.07571
-1.84733
-7.5508
-13.0382
-18.317
-23.3989
-28.2982
-33.0311
-37.6135
-42.0587
-46.3761
-50.5691
-54.6348
-58.5654
-62.3499
-65.9773
-69.4392
-72.7326
-75.8618
-78.8388
-81.6825
-84.417
-87.0683
-89.6608
-92.2141
-94.7395
-97.2382
-99.7012
-102.11
-104.443
-106.675
-108.785
-110.761
-112.598
-114.303
-115.892
-117.385
-118.807
-120.18
-121.515
-122.814
-124.065
-125.237
-126.287
-127.164
-127.809
-128.169
-128.195
-127.849
-127.106
-125.954
-124.39
-122.42
-120.051
-117.295
-114.16
-110.654
-106.79
-102.589
-98.0927
-93.3651
-88.4963
-83.5944
192.731
191.478
188.092
182.921
176.404
168.975
161.013
152.806
144.551
136.36
128.278
120.306
112.421
104.587
96.7748
88.9658
81.1576
73.3638
65.61
57.9288
50.3549
42.9206
35.6537
28.5766
21.7065
15.0567
8.63723
2.45558
-3.48385
-9.18051
-14.639
-19.8696
-24.8888
-29.7176
-34.3799
-38.8995
-43.297
-47.5864
-51.7716
-55.8463
-59.7948
-63.5961
-67.2287
-70.6752
-73.9268
-76.9861
-79.8687
-82.6018
-85.221
-87.7656
-90.2734
-92.7749
-95.2881
-97.8146
-100.339
-102.83
-105.251
-107.562
-109.728
-111.729
-113.557
-115.226
-116.761
-118.202
-119.589
-120.963
-122.352
-123.768
-125.196
-126.601
-127.923
-129.088
-130.016
-130.63
-130.865
-130.672
-130.024
-128.909
-127.334
-125.312
-122.86
-119.989
-116.705
-113.004
-108.88
-104.337
-99.4033
-94.1507
-88.6966
-83.1948
205.767
204.096
199.522
192.69
184.336
175.132
165.608
156.128
146.902
138.014
129.456
121.168
113.062
105.055
97.0755
89.0808
81.0592
73.0276
65.023
57.0923
49.2827
41.6357
34.1842
26.952
19.9555
13.2064
6.71406
0.486572
-5.46986
-11.153
-16.5674
-21.7263
-26.6524
-31.3762
-35.9333
-40.3603
-44.6901
-48.9453
-53.1322
-57.2382
-61.2347
-65.0838
-68.7466
-72.1904
-75.3961
-78.3631
-81.1121
-83.6832
-86.1304
-88.5141
-90.8931
-93.3168
-95.8154
-98.3924
-101.021
-103.65
-106.216
-108.654
-110.907
-112.941
-114.745
-116.338
-117.766
-119.092
-120.388
-121.723
-123.15
-124.699
-126.36
-128.084
-129.783
-131.351
-132.671
-133.634
-134.148
-134.15
-133.61
-132.526
-130.919
-128.823
-126.268
-123.276
-119.848
-115.962
-111.574
-106.644
-101.172
-95.225
-88.9645
-82.6266
223.467
220.89
214.201
204.645
193.486
181.746
170.137
159.081
148.765
139.19
130.245
121.762
113.56
105.48
97.3958
89.2325
80.9731
72.6506
64.3282
56.0801
47.975
40.0681
32.398
24.9873
17.8479
10.9861
4.40936
-1.87275
-7.84923
-13.5123
-18.8633
-23.9177
-28.7066
-33.2741
-37.673
-41.9602
-46.1896
-50.4013
-54.6079
-58.7865
-62.8853
-66.8383
-70.578
-74.0468
-77.2073
-80.0521
-82.6095
-84.941
-87.1292
-89.267
-91.4465
-93.7486
-96.2277
-98.8934
-101.7
-104.559
-107.364
-110.008
-112.401
-114.482
-116.233
-117.685
-118.915
-120.024
-121.13
-122.346
-123.77
-125.465
-127.432
-129.598
-131.831
-133.969
-135.839
-137.282
-138.167
-138.408
-137.976
-136.892
-135.209
-132.992
-130.304
-127.187
-123.65
-119.64
-115.044
-109.733
-103.623
-96.7491
-89.3423
-81.8008
248.172
243.601
233.003
218.904
203.468
188.167
173.863
160.964
149.555
139.457
130.366
121.946
113.882
105.909
97.827
89.5201
80.976
72.2713
63.5248
54.8603
46.3804
38.1588
30.2372
22.6316
15.3398
8.35524
1.68024
-4.67213
-10.6796
-16.3208
-21.5858
-26.4908
-31.079
-35.4139
-39.5727
-43.6423
-47.7133
-51.8631
-56.1228
-60.448
-64.7443
-68.8982
-72.7979
-76.3452
-79.4712
-82.1527
-84.4304
-86.4028
-88.1986
-89.9576
-91.821
-93.9232
-96.3691
-99.1895
-102.3
-105.544
-108.742
-111.723
-114.341
-116.495
-118.149
-119.352
-120.233
-120.959
-121.71
-122.667
-123.999
-125.837
-128.215
-131.013
-134.015
-136.968
-139.619
-141.731
-143.11
-143.633
-143.279
-142.118
-140.264
-137.839
-134.953
-131.703
-128.131
-124.161
-119.543
-113.969
-107.17
-99.0398
-89.9125
-80.5454
284.208
274.986
256.839
235.085
213.251
193.151
175.559
160.7
148.451
138.272
129.519
121.612
114.069
106.493
98.5793
90.1471
81.2078
71.9506
62.6017
53.3731
44.4127
35.8163
27.6206
19.8236
12.3887
5.27844
-1.51352
-7.96797
-14.0374
-19.6703
-24.8263
-29.5193
-33.8153
-37.8065
-41.5997
-45.3212
-49.1224
-53.1654
-57.5422
-62.1493
-66.8068
-71.3225
-75.5232
-79.2484
-82.3729
-84.8328
-86.6889
-88.1167
-89.3186
-90.4958
-91.8495
-93.6003
-95.9689
-99.0658
-102.705
-106.592
-110.429
-113.956
-116.947
-119.227
-120.71
-121.48
-121.772
-121.854
-121.992
-122.444
-123.496
-125.431
-128.39
-132.13
-136.268
-140.402
-144.172
-147.232
-149.284
-150.12
-149.741
-148.34
-146.142
-143.344
-140.126
-136.678
-133.182
-129.612
-125.418
-119.967
-112.634
-102.765
-90.8263
-78.4855
340.372
319.218
285.862
251.377
220.533
194.521
173.317
156.674
144.362
135.03
127.451
120.752
114.301
107.562
100.075
91.5021
81.8958
71.76
61.5042
51.4987
41.9201
32.8961
24.4291
16.4939
8.96973
1.74329
-5.1932
-11.818
-18.0235
-23.706
-28.7329
-33.1191
-36.9895
-40.4833
-43.729
-46.8841
-50.1824
-53.9856
-58.6285
-63.7765
-69.072
-74.1987
-78.9312
-83.0147
-86.23
-88.38
-89.5624
-90.1537
-90.4721
-90.7777
-91.3043
-92.3856
-94.518
-98.159
-102.751
-107.711
-112.558
-116.961
-120.574
-123.103
-124.297
-124.294
-123.609
-122.669
-121.818
-121.357
-121.72
-123.547
-127.436
-132.675
-138.522
-144.359
-149.744
-154.182
-157.208
-158.353
-157.673
-155.709
-152.879
-149.455
-145.629
-141.722
-138.339
-135.961
-133.1
-128.675
-121.747
-109.468
-92.3184
-74.7019
436.717
381.015
316.505
262.419
220.853
188.961
164.503
146.407
135.979
129.259
124.114
119.532
114.945
109.704
103.133
94.3424
83.3441
71.74
60.0444
49.0081
38.6273
29.1731
20.4711
12.5718
5.12184
-2.20948
-9.32155
-16.2717
-22.7621
-28.6851
-33.5613
-37.4607
-40.7051
-43.5162
-45.9878
-48.2395
-50.514
-53.5954
-58.9856
-65.1898
-71.5783
-77.6406
-83.2719
-88.0289
-91.6187
-93.3184
-93.2846
-92.5814
-91.6419
-90.7387
-89.9577
-89.6551
-90.8921
-95.8807
-102.263
-108.988
-115.326
-121.102
-125.759
-128.898
-129.604
-128.085
-125.812
-123.354
-121.078
-119.081
-117.831
-118.692
-124.536
-132.343
-140.788
-148.964
-156.676
-163.164
-167.837
-169.21
-167.452
-164.321
-160.469
-156.142
-151.245
-146.008
-142.046
-143.004
-143.03
-140.986
-138.562
-123.183
-94.4814
-66.7242
624.884
455.49
332.134
255.425
207.238
172.693
146.523
125.095
122.25
121.22
119.962
118.318
116.525
113.758
109.386
100.359
85.6624
71.8502
57.6341
45.5722
33.9995
24.366
15.3571
8.00211
1.10308
-6.47787
-13.6828
-21.3872
-28.3172
-35.1708
-39.7958
-42.7444
-45.044
-47.0368
-48.5623
-49.5608
-49.6823
-49.8793
-58.1692
-66.336
-74.5523
-81.7014
-88.8693
-94.7219
-99.7268
-100.751
-97.9685
-95.3472
-92.757
-90.5217
-87.9201
-84.7055
-81.8615
-91.5934
-101.28
-110.821
-118.899
-126.851
-133.125
-138.196
-138.112
-132.961
-128.278
-123.773
-119.935
-115.729
-110.899
-106.66
-118.805
-131.092
-143.438
-154.234
-165.371
-174.754
-183.216
-184.574
-179.207
-173.969
-168.74
-163.647
-157.348
-148.456
-138.666
-151.389
-155.938
-153.843
-174.031
-156.08
-95.2836
-47.5936
1052.3
463.658
280.588
207.354
173.972
144.361
121.713
77.0188
105.907
113.506
116.36
117.316
119.506
120.117
122.342
114.535
86.7053
72.5399
52.1201
41.4307
26.5786
18.6587
7.86102
2.77572
-1.93373
-11.2876
-17.3244
-27.6172
-33.9817
-44.8648
-48.4435
-48.9614
-49.8236
-51.2293
-51.8942
-52.144
-48.7404
-34.5081
-57.5287
-67.409
-79.0613
-85.733
-96.3585
-102.633
-113.565
-113.662
-102.418
-98.0655
-93.3587
-90.8299
-86.763
-79.2201
-54.7196
-87.369
-100.503
-114.758
-122.651
-135.014
-142.218
-154.917
-153.91
-137.162
-130.486
-123.229
-119.318
-113.273
-103.115
-71.0335
-112.868
-129.751
-148.32
-159.009
-176.589
-187.67
-208.822
-209.618
-190.773
-183.603
-176.812
-172.886
-167.184
-152.195
-102.865
-171.542
-178.409
-134.611
-264.417
-250.672
-77.211
1.56411
-80.2658
-75.9373
-71.7875
-67.8752
-64.2462
-60.933
-57.9562
-55.3262
-53.0453
-51.1105
-49.5154
-48.2522
-47.3131
-46.6911
-46.3815
-80.1559
-75.7575
-71.5489
-67.5908
-63.9292
-60.5956
-57.6086
-54.9761
-52.6983
-50.7699
-49.1827
-47.9275
-46.9951
-46.3782
-46.0711
-79.9282
-75.3865
-71.0586
-67.0089
-63.2833
-59.9107
-56.9055
-54.2705
-52.001
-50.0873
-48.5174
-47.279
-46.3611
-45.7545
-45.4529
-79.5657
-74.8003
-70.2891
-66.1016
-62.2832
-58.8575
-55.8311
-53.1987
-50.9472
-49.06
-47.5197
-46.3094
-45.415
-44.8252
-44.5323
-79.04
-73.9587
-69.1948
-64.8243
-60.8894
-57.404
-54.362
-51.745
-49.5282
-47.6853
-46.191
-45.0233
-44.1637
-43.5984
-43.318
-78.3059
-72.7986
-67.706
-63.1105
-59.0451
-55.5061
-52.467
-49.8901
-47.7345
-45.961
-44.5352
-43.4282
-42.6173
-42.0858
-41.8228
-77.2921
-71.2226
-65.7191
-60.8656
-56.6734
-53.1074
-50.1091
-47.6133
-45.5579
-43.8885
-42.5598
-41.5363
-40.7909
-40.3042
-40.0639
-75.884
-69.0793
-63.0813
-57.9585
-53.6748
-50.1401
-47.2478
-44.8953
-42.9947
-41.4743
-40.2786
-39.3657
-38.705
-38.2756
-38.064
-73.8875
-66.1283
-59.5672
-54.2113
-49.9262
-46.5299
-43.8458
-41.7249
-40.0505
-38.7349
-37.7141
-36.9422
-36.3874
-36.0284
-35.852
-70.9561
-61.9779
-54.8469
-49.3925
-45.2881
-42.2067
-39.8799
-38.1074
-36.7469
-35.7001
-34.8999
-34.3011
-33.8736
-33.598
-33.4629
-66.4305
-55.9795
-48.4492
-43.2227
-39.6263
-37.1282
-35.359
-34.0771
-33.129
-32.4181
-31.8838
-31.488
-31.2071
-31.0267
-30.9383
-58.9818
-47.0598
-39.747
-35.422
-32.8657
-31.3204
-30.3503
-29.7126
-29.2735
-28.9591
-28.7286
-28.5596
-28.4399
-28.3627
-28.3248
-45.808
-33.5299
-28.0564
-25.8522
-25.0936
-24.9367
-25.0086
-25.1492
-25.2928
-25.4156
-25.5115
-25.5816
-25.6295
-25.659
-25.6731
-20.8965
-13.1948
-13.0961
-14.8363
-16.7192
-18.3239
-19.5979
-20.5822
-21.3327
-21.8987
-22.3197
-22.6252
-22.8371
-22.9705
-23.0349
28.5196
14.7435
3.70324
-3.67751
-8.62283
-12.0417
-14.4764
-16.2487
-17.5565
-18.5266
-19.2429
-19.7622
-20.1229
-20.3506
-20.4607
32.1677
32.0545
31.8163
31.4268
30.8406
29.9824
28.727
26.8569
23.9665
19.2153
10.5793
-7.85759
-57.4927
-231.819
-1000.46
23.106
22.7916
22.1334
21.0668
19.4791
17.1837
13.8705
9.00749
1.633
-10.1141
-30.1317
-67.2387
-142.314
-301.663
-598.81
14.2616
13.7665
12.7331
11.0677
8.60818
5.09092
0.0893484
-7.09876
-17.665
-33.701
-58.9755
-100.252
-168.611
-275.814
-403.5
5.76018
5.11415
3.77072
1.6191
-1.52895
-5.97185
-12.1741
-20.8598
-33.1652
-50.8729
-76.7072
-114.458
-167.931
-235.736
-296.859
-2.2935
-3.05469
-4.63117
-7.13822
-10.7676
-15.8135
-22.7136
-32.1077
-44.9142
-62.401
-86.1632
-117.746
-157.299
-200.294
-232.662
-9.81935
-10.6581
-12.3876
-15.1168
-19.023
-24.368
-31.5217
-40.9866
-53.4135
-69.5709
-90.1871
-115.5
-144.275
-172.231
-190.942
-16.7634
-17.6436
-19.4502
-22.2787
-26.2796
-31.6669
-38.7251
-47.809
-59.3226
-73.6446
-90.9489
-110.848
-131.819
-150.588
-162.213
-23.0968
-23.9865
-25.8039
-28.6268
-32.5738
-37.8059
-44.5219
-52.9444
-63.2819
-75.6473
-89.9083
-105.451
-120.891
-133.903
-141.557
-28.813
-29.6855
-31.4598
-34.1946
-37.9761
-42.9145
-49.1336
-56.7502
-65.8331
-76.3336
-87.9773
-100.125
-111.649
-120.94
-126.214
-33.9237
-34.7586
-36.4492
-39.0359
-42.5753
-47.1339
-52.7751
-59.5376
-67.3998
-76.226
-85.696
-95.2318
-103.958
-110.765
-114.534
-38.4551
-39.2379
-40.8167
-43.2159
-46.4671
-50.6017
-55.6379
-61.5614
-68.2972
-75.6712
-83.3687
-90.9001
-97.6005
-102.698
-105.471
-42.4432
-43.1648
-44.6148
-46.8045
-49.7458
-53.4435
-57.8845
-63.0213
-68.7512
-74.8916
-81.1566
-87.1451
-92.3556
-96.2447
-98.3327
-45.9304
-46.5862
-47.8994
-49.8715
-52.4993
-55.7694
-59.648
-64.0692
-68.9201
-74.0254
-79.1365
-83.9302
-88.0281
-91.0421
-92.6442
-48.9624
-49.5513
-50.7268
-52.4832
-54.8071
-57.6728
-61.0348
-64.8188
-68.9122
-73.1552
-77.3365
-81.1981
-84.4531
-86.8196
-88.0681
-51.5857
-52.1091
-53.1511
-54.7009
-56.7387
-59.2317
-62.1286
-65.3536
-68.8004
-72.3276
-75.7585
-78.8872
-81.4948
-83.3734
-84.3586
-53.8457
-54.307
-55.223
-56.58
-58.3544
-60.5101
-62.9945
-65.7344
-68.6328
-71.5669
-74.3901
-76.9382
-79.0424
-80.5475
-81.3331
-55.7856
-56.1891
-56.9888
-58.1692
-59.7054
-61.5604
-63.683
-66.0052
-68.4403
-70.8832
-73.2126
-75.2972
-77.006
-78.2211
-78.8529
-57.4455
-57.7963
-58.4902
-59.5115
-60.835
-62.4249
-64.233
-66.1975
-68.2424
-70.2783
-72.205
-73.9172
-75.3122
-76.2995
-76.8114
-58.8618
-59.1652
-59.7644
-60.644
-61.7797
-63.1379
-64.6744
-66.3341
-68.0508
-69.7491
-71.3463
-72.7575
-73.9015
-74.708
-75.1252
-60.0676
-60.3288
-60.8441
-61.5987
-62.57
-63.7272
-65.0303
-66.4309
-67.8721
-69.29
-70.6167
-71.7832
-72.725
-73.3869
-73.7285
-61.0919
-61.3161
-61.7576
-62.4029
-63.2314
-64.215
-65.3186
-66.4996
-67.7094
-68.8944
-69.9982
-70.965
-71.7428
-72.2881
-72.569
-61.9608
-62.1524
-62.5297
-63.0801
-63.785
-64.6197
-65.553
-66.5483
-67.564
-68.5551
-69.4749
-70.2778
-70.9221
-71.3727
-71.6046
-62.6965
-62.86
-63.1815
-63.6499
-64.2486
-64.9558
-65.7444
-66.5828
-67.4356
-68.2652
-69.0327
-69.7009
-70.2357
-70.6092
-70.8011
-63.3188
-63.4579
-63.7313
-64.1292
-64.637
-65.2354
-65.9012
-66.6072
-67.3235
-68.0183
-68.6596
-69.2165
-69.6614
-69.9716
-70.131
-63.8444
-63.9626
-64.1948
-64.5323
-64.9623
-65.4683
-66.0301
-66.6246
-67.2263
-67.8086
-68.345
-68.8098
-69.1806
-69.4389
-69.5714
-64.288
-64.3883
-64.5851
-64.8711
-65.235
-65.6625
-66.1364
-66.6368
-67.1425
-67.6309
-68.0799
-68.4685
-68.778
-68.9933
-69.1038
-64.6619
-64.7469
-64.9137
-65.1557
-65.4634
-65.8245
-66.2241
-66.6455
-67.0706
-67.4805
-67.8568
-68.182
-68.4408
-68.6206
-68.7128
-64.9768
-65.0488
-65.19
-65.3947
-65.6549
-65.9597
-66.2968
-66.6517
-67.0092
-67.3536
-67.6692
-67.9417
-68.1583
-68.3088
-68.3858
-65.2417
-65.3027
-65.4222
-65.5954
-65.8152
-66.0727
-66.357
-66.6561
-66.957
-67.2465
-67.5116
-67.7402
-67.9218
-68.0478
-68.1124
-65.4643
-65.5159
-65.6171
-65.7636
-65.9495
-66.167
-66.4069
-66.6592
-66.9127
-67.1563
-67.3792
-67.5713
-67.7238
-67.8296
-67.8837
-65.6511
-65.6948
-65.7804
-65.9045
-66.0618
-66.2457
-66.4484
-66.6613
-66.8752
-67.0805
-67.2683
-67.43
-67.5582
-67.6472
-67.6927
-65.8075
-65.8446
-65.9172
-66.0223
-66.1556
-66.3113
-66.4828
-66.6629
-66.8436
-67.017
-67.1755
-67.3118
-67.4199
-67.4949
-67.5332
-65.9382
-65.9697
-66.0313
-66.1206
-66.2337
-66.3659
-66.5114
-66.664
-66.8171
-66.9639
-67.0979
-67.2133
-67.3047
-67.368
-67.4004
-66.047
-66.0738
-66.1264
-66.2024
-66.2987
-66.4112
-66.535
-66.6648
-66.7949
-66.9196
-67.0334
-67.1313
-67.2089
-67.2626
-67.2901
-66.1371
-66.1601
-66.2051
-66.2701
-66.3525
-66.4487
-66.5545
-66.6653
-66.7764
-66.8829
-66.98
-67.0635
-67.1296
-67.1754
-67.1988
-66.2113
-66.2311
-66.2698
-66.3258
-66.3967
-66.4794
-66.5704
-66.6657
-66.7612
-66.8526
-66.936
-67.0077
-67.0645
-67.1038
-67.1239
-66.2718
-66.289
-66.3226
-66.3712
-66.4327
-66.5045
-66.5834
-66.666
-66.7487
-66.828
-66.9002
-66.9623
-67.0114
-67.0454
-67.0628
-66.3204
-66.3355
-66.365
-66.4076
-66.4616
-66.5245
-66.5937
-66.6662
-66.7387
-66.8082
-66.8715
-66.9258
-66.9689
-66.9987
-67.0139
-66.3585
-66.3719
-66.3982
-66.4362
-66.4842
-66.5403
-66.6018
-66.6663
-66.7308
-66.7926
-66.8489
-66.8972
-66.9355
-66.962
-66.9755
-66.3873
-66.3994
-66.4233
-66.4577
-66.5013
-66.5521
-66.608
-66.6664
-66.7249
-66.7809
-66.8319
-66.8757
-66.9103
-66.9343
-66.9466
-66.4076
-66.4189
-66.441
-66.473
-66.5134
-66.5605
-66.6123
-66.6665
-66.7207
-66.7726
-66.8198
-66.8604
-66.8925
-66.9148
-66.9261
-66.4201
-66.4308
-66.4519
-66.4823
-66.5208
-66.5656
-66.6149
-66.6665
-66.7181
-66.7675
-66.8124
-66.8511
-66.8816
-66.9028
-66.9136
-66.4251
-66.4356
-66.4563
-66.4861
-66.5238
-66.5677
-66.616
-66.6665
-66.7171
-66.7654
-66.8095
-66.8473
-66.8772
-66.8979
-66.9085
-66.4228
-66.4334
-66.4543
-66.4844
-66.5224
-66.5668
-66.6155
-66.6665
-66.7175
-66.7664
-66.8108
-66.849
-66.8792
-66.9001
-66.9108
-66.4131
-66.4242
-66.4458
-66.4771
-66.5167
-66.5628
-66.6135
-66.6665
-66.7196
-66.7703
-66.8166
-66.8563
-66.8877
-66.9094
-66.9205
-66.3958
-66.4076
-66.4307
-66.4641
-66.5064
-66.5557
-66.6098
-66.6665
-66.7232
-66.7774
-66.8268
-66.8693
-66.9028
-66.9261
-66.938
-66.3702
-66.3831
-66.4084
-66.445
-66.4912
-66.5451
-66.6044
-66.6664
-66.7285
-66.7878
-66.842
-66.8884
-66.9252
-66.9506
-66.9636
-66.3357
-66.3501
-66.3783
-66.4191
-66.4707
-66.5309
-66.5971
-66.6663
-66.7356
-66.8019
-66.8624
-66.9143
-66.9554
-66.9838
-66.9983
-66.2911
-66.3075
-66.3395
-66.3857
-66.4443
-66.5126
-66.5876
-66.6662
-66.7448
-66.8201
-66.8888
-66.9477
-66.9943
-67.0266
-67.0432
-66.2352
-66.254
-66.2907
-66.3439
-66.4111
-66.4895
-66.5757
-66.666
-66.7564
-66.8429
-66.9218
-66.9896
-67.0433
-67.0804
-67.0994
-66.1663
-66.188
-66.2306
-66.2922
-66.3701
-66.461
-66.561
-66.6657
-66.7706
-66.8711
-66.9626
-67.0413
-67.1037
-67.1468
-67.1689
-66.0823
-66.1076
-66.1573
-66.2292
-66.3201
-66.4263
-66.543
-66.6653
-66.7879
-66.9053
-67.0124
-67.1045
-67.1773
-67.2278
-67.2537
-65.9806
-66.0104
-66.0686
-66.1529
-66.2596
-66.3841
-66.5212
-66.6648
-66.8088
-66.9467
-67.0726
-67.1809
-67.2666
-67.326
-67.3564
-65.8583
-65.8933
-65.9619
-66.061
-66.1866
-66.3333
-66.4947
-66.664
-66.8338
-66.9965
-67.1451
-67.2729
-67.3741
-67.4443
-67.4801
-65.7117
-65.753
-65.8338
-65.9508
-66.099
-66.2722
-66.4629
-66.663
-66.8637
-67.0562
-67.232
-67.3833
-67.5032
-67.5863
-67.6289
-65.5365
-65.5852
-65.6807
-65.8189
-65.9941
-66.1989
-66.4246
-66.6614
-66.8992
-67.1274
-67.336
-67.5155
-67.6579
-67.7566
-67.8071
-65.3274
-65.385
-65.4979
-65.6614
-65.8687
-66.1111
-66.3785
-66.6593
-66.9414
-67.2123
-67.4601
-67.6735
-67.8428
-67.9603
-68.0204
-65.0784
-65.1465
-65.28
-65.4734
-65.7188
-66.006
-66.323
-66.6562
-66.9913
-67.3133
-67.6081
-67.8621
-68.0638
-68.2037
-68.2754
-64.782
-64.8625
-65.0204
-65.2493
-65.5399
-65.8803
-66.2563
-66.6519
-67.0501
-67.4333
-67.7843
-68.0871
-68.3276
-68.4946
-68.5801
-64.4297
-64.5249
-64.7116
-64.9824
-65.3265
-65.7299
-66.176
-66.6459
-67.1194
-67.5756
-67.994
-68.3553
-68.6425
-68.842
-68.9443
-64.0114
-64.1238
-64.3444
-64.6646
-65.0718
-65.5498
-66.079
-66.6373
-67.2007
-67.7443
-68.2434
-68.6749
-69.0183
-69.257
-69.3794
-63.5149
-63.6476
-63.9081
-64.2864
-64.7681
-65.3342
-65.962
-66.6253
-67.2957
-67.9437
-68.5396
-69.0556
-69.4667
-69.7527
-69.8994
-62.9264
-63.0828
-63.3899
-63.8364
-64.4057
-65.0758
-65.8202
-66.6082
-67.4064
-68.1793
-68.8915
-69.5091
-70.0019
-70.3452
-70.5214
-62.2293
-62.4133
-62.7749
-63.3013
-63.9733
-64.7659
-65.6481
-66.5842
-67.5345
-68.457
-69.3089
-70.0492
-70.6409
-71.0536
-71.2656
-61.4044
-61.6205
-62.0455
-62.665
-63.4573
-64.3937
-65.4385
-66.5503
-67.6821
-68.7838
-69.8039
-70.6925
-71.4042
-71.9013
-72.157
-60.4295
-60.6828
-61.1812
-61.9088
-62.8413
-63.9461
-65.1826
-66.5024
-67.8505
-69.1671
-70.3902
-71.4586
-72.3164
-72.9168
-73.2258
-59.2789
-59.5748
-60.1578
-61.0104
-62.1056
-63.4072
-64.8688
-66.4348
-68.0407
-69.6154
-71.0837
-72.3709
-73.4074
-74.1344
-74.5091
-57.9229
-58.2674
-58.9472
-59.9434
-61.2268
-62.7572
-64.4827
-66.3395
-68.2527
-70.1375
-71.903
-73.4573
-74.7132
-75.5965
-76.0526
-56.3277
-56.7274
-57.5171
-58.6772
-60.1765
-61.9717
-64.0053
-66.2051
-68.4843
-70.7423
-72.8691
-74.7507
-76.2777
-77.3552
-77.9128
-54.4551
-54.9165
-55.8299
-57.1753
-58.9208
-61.0206
-63.4124
-66.0157
-68.7305
-71.4382
-74.0053
-76.2902
-78.1543
-79.4749
-80.16
-52.2621
-52.792
-53.8429
-55.3957
-57.4193
-59.8668
-62.6728
-65.7489
-68.9817
-72.2318
-75.3374
-78.122
-80.4081
-82.0357
-82.8828
-49.7013
-50.3059
-51.5074
-53.2894
-55.6234
-58.4643
-61.7456
-65.3733
-69.2207
-73.1256
-76.8923
-80.2997
-83.119
-85.1385
-86.1936
-46.7209
-47.4053
-48.769
-50.8
-53.4755
-56.7559
-60.5779
-64.8452
-69.4198
-74.1155
-78.6965
-82.8856
-86.3851
-88.9109
-90.2369
-43.2654
-44.0332
-45.5675
-47.8633
-50.9076
-54.6716
-59.1011
-64.1037
-69.5347
-75.1848
-80.7728
-85.9504
-90.327
-93.5161
-95.2008
-39.2771
-40.1291
-41.8373
-44.4071
-47.8401
-52.1253
-57.2264
-63.0646
-69.4974
-76.2973
-83.1338
-89.5712
-95.0933
-99.1658
-101.334
-34.6973
-35.6309
-37.5091
-40.3516
-44.1809
-49.0126
-54.8401
-61.6126
-69.2053
-77.3842
-85.7717
-93.8274
-100.866
-106.137
-108.973
-29.4696
-30.4769
-32.5116
-35.6112
-39.8259
-45.2085
-51.7976
-59.591
-68.5059
-78.326
-88.6398
-98.7895
-107.866
-114.799
-118.581
-23.5428
-24.61
-26.7749
-30.0967
-34.6602
-40.5668
-47.919
-56.7906
-67.178
-78.9249
-91.6215
-104.497
-116.354
-125.649
-130.815
-16.8754
-17.9813
-20.2351
-23.7205
-28.5621
-34.9216
-42.9854
-52.9377
-64.906
-78.864
-94.4791
-110.91
-126.62
-139.366
-146.636
-9.44052
-10.5562
-12.8407
-16.4028
-21.4104
-28.0931
-36.7406
-47.6849
-61.2522
-77.6523
-96.7698
-117.824
-138.942
-156.887
-167.503
-1.23156
-2.31988
-4.55964
-8.08201
-13.0958
-19.9007
-28.901
-40.6109
-55.6312
-74.5534
-97.7151
-124.693
-153.469
-179.494
-195.743
7.73241
6.71527
4.6114
1.27386
-3.53793
-10.1841
-19.18
-31.2383
-47.3005
-68.5103
-96.0095
-130.314
-169.904
-208.889
-235.265
17.4019
16.5043
14.6384
11.6528
7.29311
1.16369
-7.33286
-19.0855
-35.3954
-58.0996
-89.5777
-132.264
-186.757
-247.04
-293.101
27.6937
26.9647
25.442
22.9851
19.3524
14.1546
6.77488
-3.76859
-19.0502
-41.5961
-75.3622
-126.015
-199.588
-295.066
-382.921
38.4908
37.9753
36.8934
35.133
32.4975
28.66
23.0789
14.838
2.33915
-17.3014
-49.4196
-103.848
-197.207
-348.381
-533.749
49.6447
49.3781
48.8147
47.8876
46.4764
44.3754
41.229
36.4005
28.687
15.6576
-7.98413
-54.6465
-154.674
-377.948
-813.298
60.9824
60.9857
60.9875
60.9771
60.9332
60.8155
60.5459
59.9652
58.7251
55.985
49.4372
31.6145
-26.5523
-260.236
-1395.17
72.3165
72.5928
73.1675
74.0886
75.4399
77.3597
80.0774
83.9863
89.8029
98.9552
114.687
145.891
223.456
483.344
1644.96
83.4571
83.9913
85.1055
86.9
89.5504
93.3484
98.7799
106.68
118.562
137.354
169.19
227.971
346.846
600.72
1081.67
94.225
94.9854
96.5695
99.1154
102.862
108.201
115.766
126.607
142.521
166.693
204.979
268.316
376.482
560.397
852.402
92.936
37.8457
15.748
4.31897
-2.60028
-7.18483
-10.3888
-12.702
-14.4044
-15.6679
-16.6029
-17.2828
-17.7566
-18.0564
-18.2017
58.7312
35.9357
19.2889
8.45665
1.25347
-3.72822
-7.29112
-9.90172
-11.8436
-13.2969
-14.3798
-15.1717
-15.726
-16.0779
-16.2488
40.3562
29.7553
18.7917
10.074
3.56451
-1.25685
-4.85472
-7.56571
-9.62201
-11.183
-12.3587
-13.2255
-13.8359
-14.225
-14.4144
29.3423
23.8266
16.7345
10.1579
4.70315
0.364903
-3.03417
-5.68426
-7.74427
-9.33651
-10.552
-11.4571
-12.0992
-12.5105
-12.7114
22.1586
18.9922
14.3192
9.4627
5.06637
1.33444
-1.73371
-4.21253
-6.19127
-7.75156
-8.96073
-9.87132
-10.5226
-10.9422
-11.1477
17.1734
15.204
12.0311
8.4478
4.96814
1.84301
-0.842505
-3.08802
-4.9288
-6.41036
-7.5767
-8.46552
-9.10673
-9.5223
-9.72656
13.5557
12.2514
10.028
7.3608
4.62365
2.04628
-0.256844
-2.24455
-3.91574
-5.288
-6.3853
-7.23157
-7.8475
-8.24909
-8.44718
10.8436
9.93696
8.33283
6.32233
4.16817
2.05906
0.109781
-1.62086
-3.11024
-4.35652
-5.36816
-6.15751
-6.737
-7.11712
-7.30528
8.7609
8.10679
6.91982
5.38354
3.68134
1.96084
0.324566
-1.16468
-2.47352
-3.58793
-4.50534
-5.22911
-5.7649
-6.11838
-6.29395
7.13239
6.64658
5.7493
4.55992
3.20718
1.8041
0.437247
-0.833778
-1.9718
-2.9561
-3.77693
-4.4312
-4.91932
-5.24313
-5.40447
5.84117
5.47205
4.78155
3.8497
2.76794
1.62218
0.483377
-0.595229
-1.57681
-2.43776
-3.16415
-3.74861
-4.1878
-4.48063
-4.62699
4.80622
4.52064
3.98136
3.24355
2.37312
1.4354
0.487698
-0.424053
-1.26558
-2.01283
-2.6499
-3.16686
-3.55788
-3.81981
-3.95108
3.96954
3.74535
3.31899
2.72945
2.025
1.25555
0.467047
-0.301643
-1.01979
-1.66439
-2.21903
-2.67252
-3.01757
-3.24967
-3.36629
3.28849
3.11042
2.7699
2.29513
1.72199
1.0889
0.432636
-0.214327
-0.825072
-1.37841
-1.85839
-2.25347
-2.55566
-2.7597
-2.86245
2.73108
2.58826
2.314
1.92909
1.46061
0.938337
0.391759
-0.152161
-0.670207
-1.14336
-1.55668
-1.8989
-2.16187
-2.34003
-2.42993
2.27281