/*--------------------------------*- C++ -*----------------------------------*\
| =========                 |                                                 |
| \\      /  F ield         | OpenFOAM: The Open Source CFD Toolbox           |
|  \\    /   O peration     | Version:  5.x                                   |
|   \\  /    A nd           | Web:      www.OpenFOAM.org                      |
|    \\/     M anipulation  |                                                 |
\*---------------------------------------------------------------------------*/
FoamFile
{
    version     2.0;
    format      ascii;
    class       volScalarField;
    location    "6";
    object      gradTy;
}
// * * * * * * * * * * * * * * * * * * * * * * * * * * * * * * * * * * * * * //

dimensions      [0 -1 0 1 0 0 0];

internalField   nonuniform List<scalar> 
6300
(
1062.51
1187.87
1314.26
1442.35
1572.76
1706.06
1842.75
1983.22
2127.71
2276.33
2428.98
2585.35
2744.92
2906.93
3070.44
-0.520152
-1.54989
-2.54705
-3.48717
-4.34201
-5.07855
-5.65888
-6.04106
-6.18161
-6.03972
-5.58331
-4.79625
-3.68554
-2.28623
-0.66177
-0.878688
-2.61937
-4.30849
-5.90681
-7.36823
-8.63794
-9.65164
-10.3368
-10.6162
-10.4151
-9.67215
-8.35247
-6.46235
-4.05986
-1.25722
-1.25392
-3.74042
-6.16067
-8.46323
-10.586
-12.4531
-13.9728
-15.038
-15.5309
-15.3322
-14.3374
-12.4788
-9.75127
-6.23337
-2.09616
-1.65047
-4.92764
-8.13048
-11.1993
-14.0594
-16.6156
-18.7481
-20.3114
-21.137
-21.0451
-19.8661
-17.474
-13.8303
-9.02611
-3.30588
-2.07073
-6.18908
-10.2341
-14.1439
-17.8364
-21.2014
-24.0925
-26.322
-27.6601
-27.8447
-26.6073
-23.7204
-19.0693
-12.7343
-5.05101
-2.51412
-7.52376
-12.473
-17.3056
-21.9408
-26.2607
-30.0981
-33.2235
-35.3361
-36.066
-34.9974
-31.7305
-25.9919
-17.7905
-7.56515
-2.97605
-8.91873
-14.8281
-20.6646
-26.3599
-31.802
-36.8153
-41.1372
-44.3943
-46.0849
-45.5853
-42.2116
-35.3766
-24.8702
-11.2067
-3.44732
-10.3468
-17.256
-24.1642
-31.0318
-37.7717
-44.2231
-50.1148
-55.0183
-58.2931
-59.0463
-56.153
-48.4323
-35.1064
-16.5827
-3.91369
-11.765
-19.6845
-27.704
-35.8309
-44.0293
-52.1897
-60.0799
-67.27
-73.0219
-76.153
-74.9211
-67.0926
-50.5403
-24.8474
-4.35603
-13.1149
-22.0128
-31.136
-40.5579
-50.3242
-60.4255
-70.7442
-80.9586
-90.3704
-97.6213
-100.285
-94.4758
-75.1145
-38.546
-4.75147
-14.3257
-24.1153
-34.2688
-44.9398
-56.2834
-68.4427
-81.5118
-95.4484
-109.878
-123.676
-134.12
-135.41
-116.895
-64.4221
-5.07554
-15.3208
-25.8536
-36.8836
-48.6483
-61.426
-75.5491
-91.4104
-109.443
-130.017
-153.082
-177.106
-196.148
-192.631
-124.403
-5.3054
-16.028
-27.0943
-38.7632
-51.3429
-65.2221
-80.9161
-99.1361
-120.896
-147.663
-181.526
-225.071
-279.443
-333.074
-304.804
-5.42341
-16.3911
-27.732
-39.7314
-52.737
-67.2024
-83.7558
-103.321
-127.338
-158.211
-200.285
-262.207
-363.473
-555.414
-1000.49
3220.7
3356.82
3491.76
3624.83
3755.37
3882.76
4006.46
4126
4240.97
4351.04
4455.93
4555.42
4649.35
4737.58
4820.02
4896.6
4967.29
5032.06
5090.94
5143.94
5191.11
5232.52
5268.24
5298.37
5323.02
5342.3
5356.34
5365.28
5369.26
5368.42
5362.9
5352.85
5338.41
5319.73
5296.94
5270.18
5239.57
5205.24
5167.33
5125.94
5081.21
5033.25
4982.17
4928.1
4871.14
4811.41
4749
4684.02
4616.56
4546.7
4474.53
4400.12
4323.55
4244.88
4164.19
4081.54
3997.01
3910.67
3822.61
3732.9
3641.63
3548.9
3454.77
3359.36
3262.74
3165
3066.26
2966.6
2866.15
2765.02
2663.36
2561.32
2459.09
2356.85
2254.81
2153.2
2052.25
1952.22
1853.36
1755.93
1660.17
1566.33
1474.65
1385.34
1298.62
1214.65
1133.58
1055.53
980.579
908.757
0.954773
2.45893
3.94222
5.35554
6.66015
7.82975
8.85057
9.71999
10.444
11.0345
11.5062
11.8749
12.1552
12.3598
12.499
12.5807
12.6109
12.5939
12.5333
12.4321
12.2933
12.1201
11.9157
11.684
11.4288
11.1541
10.864
10.5628
10.2542
9.94228
9.63029
9.32122
9.0174
8.72044
8.43117
8.14969
7.87547
7.60754
7.34482
7.08633
6.83155
6.58058
6.3342
6.09384
5.86136
5.63878
5.42786
5.22981
5.04492
4.87248
4.71065
4.55671
4.40734
4.25899
4.10841
3.95302
3.79121
3.62245
3.44723
3.26668
3.08221
2.89496
2.70527
2.51227
2.31364
2.10561
1.88316
1.64046
1.37153
1.0709
0.734317
0.359315
-0.0544621
-0.505134
-0.988713
-1.49942
-2.03014
-2.57286
-3.11906
-3.66002
-4.18688
-4.6906
-5.16189
-5.59105
-5.9681
-6.28304
-6.52647
-6.69052
-6.76977
-6.76209
1.53552
4.13056
6.68085
9.09815
11.3145
13.2859
14.9916
16.4312
17.6191
18.5795
19.3408
19.9319
20.3787
20.7031
20.9224
21.0491
21.0922
21.0582
20.9523
20.7789
20.5425
20.2483
19.9019
19.5095
19.0776
18.6132
18.1232
17.6147
17.0945
16.5691
16.0444
15.5256
15.0166
14.5204
14.0381
13.5698
13.1143
12.6695
12.2332
11.8032
11.3785
10.959
10.5461
10.1425
9.75191
9.37814
9.02476
8.6942
8.38728
8.10278
7.83743
7.58621
7.34289
7.10086
6.85403
6.59764
6.32882
6.04688
5.75304
5.44995
5.14076
4.82819
4.51346
4.19552
3.87054
3.53186
3.17039
2.77546
2.33596
1.84169
1.28469
0.660271
-0.0323322
-0.789784
-1.60493
-2.46745
-3.36475
-4.28284
-5.20712
-6.12287
-7.01538
-7.86979
-8.67072
-9.40195
-10.0463
-10.5861
-11.0044
-11.2864
-11.4219
-11.4064
2.03612
5.86751
9.61197
13.1312
16.3229
19.1258
21.5173
23.5061
25.1233
26.4127
27.4223
28.198
28.7799
29.1997
29.4808
29.6394
29.6862
29.6281
29.4703
29.218
28.8769
28.4537
27.9563
27.3937
26.7753
26.111
25.4111
24.6855
23.9442
23.1968
22.452
21.7176
20.9996
20.3021
19.6269
18.9736
18.3397
17.7214
17.1143
16.5146
15.9198
15.3297
14.7464
14.1745
13.62
13.09
12.5905
12.1263
11.6991
11.3072
10.9455
10.606
10.2782
9.95122
9.61497
9.26164
8.88683
8.48987
8.0736
7.64336
7.20554
6.76584
6.32756
5.89014
5.44835
4.99206
4.50694
3.97573
3.38029
2.70382
1.93312
1.06036
0.0840918
-0.990472
-2.15207
-3.38459
-4.66863
-5.98315
-7.30675
-8.6185
-9.8981
-11.1254
-12.2793
-13.3374
-14.2745
-15.0637
-15.678
-16.0929
-16.2907
-16.2637
2.42898
7.72958
12.8674
17.6357
21.8911
25.5584
28.6229
31.1163
33.0999
34.6491
35.8407
36.7438
37.4149
37.8961
38.2159
38.3913
38.4316
38.3417
38.1249
37.7856
37.3299
36.7663
36.1052
35.3587
34.5395
33.6609
32.7364
31.7794
30.8034
29.8213
28.8455
27.8867
26.9538
26.0524
25.1849
24.35
23.5433
22.7577
21.9855
21.2196
20.4551
19.6912
18.9311
18.1819
17.4538
16.7584
16.1064
15.506
14.9607
14.4688
14.0226
13.6095
13.213
12.8157
12.4012
11.9573
11.4774
10.9614
10.415
9.84837
9.27369
8.70212
8.14106
7.59171
7.04765
6.49442
5.91043
5.26908
4.54186
3.70219
2.72908
1.61002
0.342598
-1.0653
-2.59657
-4.22702
-5.92814
-7.66989
-9.42294
-11.16
-12.8557
-14.486
-16.0257
-17.4466
-18.7152
-19.7929
-20.6382
-21.2117
-21.4832
-21.4386
2.69712
9.82674
16.6556
22.8794
28.307
32.8597
36.5517
39.4614
41.703
43.4018
44.676
45.625
46.3248
46.8266
47.1603
47.3392
47.3662
47.2394
46.9576
46.5223
45.9399
45.2208
44.3789
43.4301
42.391
41.2788
40.1104
38.9027
37.6731
36.4387
35.2161
34.0206
32.8645
31.7559
30.6979
29.688
28.7182
27.7768
26.8497
25.9242
24.9916
24.0493
23.1019
22.1608
21.2425
20.3661
19.5499
18.8079
18.1473
17.5663
17.0539
16.5906
16.1509
15.7065
15.2314
14.7064
14.1216
13.4781
12.787
12.0665
11.3388
10.6247
9.93909
9.28706
8.66149
8.04236
7.39781
6.68731
5.86656
4.89386
3.73631
2.37441
0.804439
-0.961461
-2.89726
-4.96673
-7.12819
-9.33941
-11.5613
-13.76
-15.9068
-17.9762
-19.9424
-21.7742
-23.43
-24.8562
-25.9892
-26.7646
-27.1303
-27.06
2.84177
12.3571
21.3148
29.2695
35.9821
41.3998
45.6063
48.7681
51.0873
52.7657
53.979
54.865
55.5194
55.9988
56.3273
56.5057
56.5218
56.3604
56.0109
55.4708
54.7465
53.8521
52.8065
51.6312
50.3479
48.9776
47.5408
46.0579
44.5499
43.0391
41.548
40.0981
38.707
37.3868
36.1419
34.9683
33.8529
32.7755
31.712
30.6396
29.5424
28.4151
27.2642
26.1074
24.9714
23.8878
22.887
21.9933
21.2198
20.5655
20.015
19.5386
19.096
18.6419
18.1342
17.5421
16.851
16.0642
15.2017
14.2957
13.385
12.5069
11.6894
10.945
10.2668
9.62755
8.98083
8.26493
7.41069
6.35233
5.03842
3.43901
1.54901
-0.612381
-3.00486
-5.57335
-8.25599
-10.9929
-13.7325
-16.4342
-19.0687
-21.6145
-24.0522
-26.3545
-28.4751
-30.3409
-31.8545
-32.907
-33.4044
-33.2972
2.90799
15.6899
27.4179
37.4472
45.5208
51.6824
56.1633
59.2854
61.3921
62.7967
63.7511
64.4362
64.9637
65.386
65.7081
65.9035
65.9303
65.7497
65.336
64.6816
63.7953
62.6983
61.4183
59.9852
58.4273
56.7696
55.0351
53.2464
51.4282
49.6086
47.8183
46.0883
44.445
42.9068
41.4812
40.1626
38.9306
37.7521
36.5849
35.3885
34.1347
32.8131
31.4329
30.022
28.6233
27.2882
26.0683
25.0042
24.119
23.414
22.8678
22.4364
22.0564
21.6534
21.1575
20.5192
19.7169
18.7584
17.6779
16.5308
15.3834
14.3011
13.3338
12.5068
11.8152
11.223
10.6629
10.0413
9.24829
8.17839
6.75126
4.92172
2.68405
0.0691881
-2.85924
-6.01578
-9.30574
-12.6428
-15.958
-19.2051
-22.358
-25.4085
-28.3566
-31.1961
-33.8866
-36.3326
-38.3831
-39.8485
-40.5485
-40.3866
3.04526
20.5393
35.966
48.4394
57.811
64.3828
68.6737
71.2614
72.7038
73.4715
73.9063
74.2297
74.5546
74.9126
75.2665
75.5389
75.6326
75.4695
75.0024
74.221
73.1423
71.8024
70.2449
68.5133
66.6446
64.6668
62.602
60.472
58.3031
56.1305
53.9966
51.9485
50.0262
48.2597
46.6615
45.2269
43.9266
42.7075
41.495
40.2153
38.8202
37.2906
35.6416
33.9146
32.1793
30.5187
29.0212
27.7534
26.7549
26.0299
25.5519
25.2567
25.0466
24.7953
24.3824
23.7296
22.8046
21.6252
20.2472
18.7638
17.2854
15.9273
14.7738
13.8716
13.2185
12.7702
12.4317
12.0628
11.4829
10.5172
9.04206
6.99071
4.36093
1.20103
-2.38629
-6.26716
-10.2886
-14.3249
-18.2824
-22.1123
-25.7954
-29.3501
-32.8179
-36.2522
-39.6504
-42.8936
-45.7543
-47.8921
-48.9333
-48.6821
3.68513
28.3642
48.7651
63.8959
74.1318
80.3665
83.6357
84.885
84.9848
84.6233
84.2194
84.0183
84.095
84.4423
84.9392
85.4285
85.7014
85.6241
85.118
84.1853
82.8623
81.2168
79.3191
77.2356
75.016
72.6863
70.2595
67.7506
65.1802
62.5938
60.0486
57.6246
55.3806
53.3674
51.6036
50.0952
48.8028
47.6512
46.4994
45.206
43.697
41.938
39.9602
37.8171
35.6255
33.5124
31.6416
30.1129
28.9952
28.2884
27.9712
27.9526
28.0948
28.1683
27.9512
27.3307
26.2572
24.777
22.9671
20.9887
19.0131
17.2578
15.8511
14.8769
14.3258
14.1586
14.2438
14.3872
14.2725
13.5892
12.1621
9.89224
6.80083
2.94811
-1.49085
-6.3162
-11.2504
-16.1203
-20.7906
-25.2309
-29.4176
-33.4166
-37.327
-41.3602
-45.637
-50.0049
-54.1658
-57.5142
-59.1787
-58.7509
6.13817
42.3494
69.1521
86.3993
96.2133
100.621
101.508
100.166
97.9324
95.8387
94.2429
93.4096
93.2486
93.7589
94.6258
95.6325
96.2774
96.3991
95.8513
94.7152
93.05
90.9983
88.6645
86.1582
83.5497
80.8498
78.0397
75.122
72.0848
69.0021
65.9305
63.0463
60.4069
58.1208
56.1824
54.6572
53.4809
52.5996
51.7122
50.5116
48.9384
46.9052
44.5213
41.7941
38.9634
36.1618
33.774
31.8851
30.6482
29.9905
29.9648
30.4211
31.2461
31.9637
32.1049
31.5881
30.2992
28.4075
25.9336
23.2135
20.4273
18.0902
16.3092
15.2765
14.8839
15.1868
15.9753
17.0863
17.8839
17.7352
16.4983
13.9795
10.3397
5.54203
-0.0364105
-6.20589
-12.3024
-18.2008
-23.6277
-28.7126
-33.3078
-37.6088
-41.657
-46.1156
-51.4906
-57.4125
-63.7454
-69.5594
-72.4353
-71.5643
14.9424
69.8833
103.3
119.605
126.078
125.941
122.586
116.727
110.676
106.334
103.165
101.83
101.432
102.559
104.107
106.354
107.603
108.134
107.428
106.003
103.79
101.182
98.2544
95.2241
92.2112
89.1684
85.9712
82.6617
79.0514
75.3911
71.5391
68.1119
64.9213
62.3704
60.1632
58.7136
57.7313
57.554
57.3729
56.3511
54.8392
52.3749
49.5741
45.9176
42.257
38.2128
35.1855
32.7164
31.4649
30.7804
31.2625
32.3569
34.5501
36.5876
37.2043
36.9558
35.2076
32.875
29.2532
25.5321
21.1936
18.1205
15.689
14.7536
14.4395
15.5149
17.2419
20.2358
22.8574
23.4474
22.6801
19.6805
15.5453
9.25987
2.26878
-6.20089
-13.6399
-20.9602
-26.9572
-32.8993
-37.6214
-42.1646
-45.3959
-49.5509
-56.5559
-64.2275
-74.0717
-85.8345
-91.0868
-88.8805
48.5267
128.411
162.086
166.971
165.459
155.891
147.269
133.563
120.954
115.137
109.445
108.895
107.417
110.749
112.58
118.508
119.961
121.647
120.036
118.422
115.097
111.822
107.989
104.262
100.912
97.706
94.0611
90.6314
86.0868
82.0532
76.5328
72.8341
68.5117
66.122
63.0504
62.0943
60.8198
62.5111
64.2417
62.8938
62.1088
58.3268
55.8566
50.045
46.1005
38.7977
35.7915
31.7926
31.4636
29.8886
31.6769
32.7087
38.077
43.2557
43.5483
44.4814
40.9563
39.1975
32.7149
28.7386
20.1369
17.2261
12.9137
13.3351
11.9939
14.9042
16.6837
23.921
30.756
31.1135
32.0759
27.0165
23.8467
13.9937
6.70293
-7.68011
-15.1482
-25.6251
-30.3654
-38.8427
-42.1923
-48.6091
-47.8042
-48.8817
-60.6607
-67.9133
-81.6341
-111.484
-120.478
-113.955
193.457
253.476
262.326
223.544
216.439
184.477
179.273
148.819
121.449
123.76
108.321
117.298
106.474
121.1
115.152
137.107
131.98
139.908
132.646
133.304
126.332
123.264
117.57
112.755
109.406
106.875
101.841
100.206
92.3867
90.8568
78.9036
78.455
69.3197
70.8563
62.8921
65.9343
59.6383
67.4123
75.5444
68.6264
73.6951
62.3905
66.9514
51.485
54.7813
33.1967
37.8282
25.5858
33.2581
24.1551
33.1821
26.8174
41.878
56.9611
48.9711
58.4277
44.1628
52.3235
32.5692
38.6069
10.8873
18.3517
3.32372
14.4566
3.42806
15.9233
8.2681
28.1866
47.9835
37.9096
50.1441
31.6327
41.7732
15.0392
21.3513
-19.1154
-12.3223
-38.5491
-28.391
-52.1685
-42.3448
-65.4513
-47.5005
-32.8009
-71.2822
-62.2834
-65.9697
-167.162
-172.211
-152.77
904.227
452.218
431.152
234.497
303.207
174.527
247.629
159.63
79.2014
157.937
72.0346
154.21
68.8807
161.071
77.5398
194.697
125.194
180.036
133.847
159.168
131.939
138.481
125.88
119.133
116.718
119.645
104.721
118.683
89.6247
114.665
64.7036
96.5802
54.756
89.2675
46.8806
83.2174
38.1923
71.7939
108.515
57.0943
108.855
43.6042
106.882
25.9034
99.2871
-10.158
64.1604
-9.30072
59.2064
-7.68788
56.8492
-9.92849
45.644
103.889
29.2683
106.531
15.074
105.645
-4.71885
97.084
-49.0284
51.8652
-43.9387
47.4894
-39.0127
45.9583
-39.8543
32.6264
108.224
12.5806
112.485
-5.01061
112.798
-31.502
103.36
-98.6048
38.0522
-103.867
22.4508
-113.88
4.92249
-141.416
-42.5147
59.8606
-150.274
-38.3864
90.1044
-361.285
-259.207
-217.54
833.196
755.204
681.501
611.868
546.035
483.693
424.506
368.128
314.204
262.384
212.324
163.686
116.144
69.3779
23.0747
-6.6598
-6.43378
-6.10892
-5.70487
-5.24258
-4.74197
-4.22028
-3.69121
-3.16466
-2.64699
-2.14149
-1.64896
-1.16828
-0.696975
-0.231643
-11.2266
-10.8326
-10.2694
-9.5728
-8.78024
-7.92676
-7.04209
-6.14929
-5.26464
-4.39819
-3.55478
-2.73511
-1.93673
-1.155
-0.383799
-15.9909
-15.4003
-14.5632
-13.5365
-12.3786
-11.1426
-9.8719
-8.59912
-7.34631
-6.12626
-4.94429
-3.79992
-2.68851
-1.60247
-0.53235
-21.0479
-20.2142
-19.0462
-17.6311
-16.055
-14.393
-12.7036
-11.0289
-9.39511
-7.81618
-6.2961
-4.83172
-3.41487
-2.034
-0.675475
-26.5121
-25.362
-23.7759
-21.8863
-19.8172
-17.6703
-15.5206
-13.4174
-11.3889
-9.44713
-7.59213
-5.81593
-4.10518
-2.44314
-0.81102
-32.528
-30.9453
-28.8087
-26.3205
-23.6567
-20.9502
-18.2907
-15.731
-13.2959
-10.9911
-8.80922
-6.73459
-4.74674
-2.82233
-0.936469
-39.2869
-37.0819
-34.1926
-30.93
-27.5383
-24.1828
-20.9608
-17.9195
-15.0724
-12.4121
-9.91889
-7.56636
-5.32479
-3.16293
-1.04898
-47.0507
-43.9025
-39.9493
-35.6681
-31.3834
-27.2815
-23.4499
-19.9136
-16.6619
-13.6658
-10.8877
-8.28705
-5.82304
-3.45555
-1.1455
-56.1824
-51.5274
-46.0337
-40.4094
-35.045
-30.1095
-25.6434
-21.6227
-17.9956
-14.7013
-11.6788
-8.871
-6.22466
-3.6907
-1.22295
-67.1659
-59.9899
-52.2478
-44.89
-38.2773
-32.4675
-27.391
-22.9379
-18.9963
-15.4646
-12.2552
-9.29328
-6.51381
-3.85959
-1.27851
-80.5263
-69.0174
-58.0766
-48.6247
-40.7061
-34.0919
-28.5146
-23.7415
-19.5866
-15.9052
-12.5841
-9.53292
-6.67763
-3.95526
-1.31
-96.2808
-77.4761
-62.4158
-50.8252
-41.83
-34.6787
-28.8336
-23.9263
-19.7032
-15.9854
-12.6428
-9.57651
-6.70841
-3.97377
-1.31619
-111.558
-82.1892
-63.2841
-50.4295
-41.1095
-33.9588
-28.2144
-23.4266
-19.314
-15.6903
-12.425
-9.42174
-6.60563
-3.91517
-1.29717
-111.242
-76.4375
-58.1011
-46.4984
-38.2189
-31.832
-26.6383
-22.2513
-18.4356
-15.0365
-11.9449
-9.07971
-6.37707
-3.78407
-1.25444
-5.43006
-16.4108
-27.7639
-39.7745
-52.7907
-67.2675
-83.8373
-103.434
-127.525
-158.584
-201.151
-264.457
-369.664
-571.937
-1032.56
-5.34371
-16.1435
-27.2894
-39.0434
-51.7204
-65.7223
-81.5902
-100.087
-122.337
-150.045
-185.837
-233.511
-296.71
-366.853
-349.503
-5.17928
-15.6357
-26.3922
-37.6709
-49.7295
-62.8806
-77.5161
-94.1341
-113.357
-135.892
-162.267
-191.783
-218.931
-222.523
-139.817
-4.9468
-14.9194
-25.1322
-35.7564
-46.9792
-59.0073
-72.0645
-86.3709
-102.075
-119.07
-136.515
-151.695
-157.508
-138.12
-66.8851
-4.65943
-14.036
-23.5861
-33.4259
-43.6692
-54.4188
-65.7446
-77.6358
-89.8968
-101.934
-112.334
-118.11
-113.584
-89.7216
-37.3791
-4.33192
-13.032
-21.8387
-30.8149
-40.0072
-49.4293
-59.0313
-68.6431
-77.8729
-85.9332
-91.3652
-91.6761
-83.0873
-61.1
-23.4392
-3.97919
-11.9538
-19.9732
-28.0534
-36.1851
-44.3144
-52.3106
-59.9147
-66.66
-71.7568
-73.9516
-71.4222
-61.8934
-43.362
-15.9
-3.61515
-10.8443
-18.0653
-25.2558
-32.3645
-39.2916
-45.8615
-51.7819
-56.5909
-59.5944
-59.8177
-56.0285
-46.9504
-31.8254
-11.3732
-3.25186
-9.74041
-16.1785
-22.5148
-28.6694
-34.5166
-39.8631
-44.4205
-47.7749
-49.362
-48.4693
-44.3072
-36.2062
-23.9877
-8.43962
-2.89905
-8.67146
-14.362
-19.8997
-25.1876
-30.089
-34.4122
-37.8941
-40.1858
-40.851
-39.3909
-35.3207
-28.3208
-18.462
-6.43032
-2.56406
-7.65925
-12.6515
-17.4579
-21.9738
-26.0625
-29.5454
-32.1938
-33.7258
-33.8154
-32.1245
-28.3682
-22.4205
-14.4449
-4.99664
-2.2519
-6.71844
-11.0698
-15.2177
-19.0565
-22.4564
-25.2577
-27.2685
-28.2671
-28.016
-26.2922
-22.9373
-17.9283
-11.4504
-3.9414
-1.96557
-5.85753
-9.62932
-13.192
-16.4437
-19.2655
-21.5188
-23.0459
-23.6759
-23.2391
-21.5922
-18.655
-14.4558
-9.17189
-3.14567
-1.70641
-5.08
-8.33392
-11.382
-14.1293
-16.4693
-18.284
-19.446
-19.8253
-19.3024
-17.7879
-15.2488
-11.7364
-7.40876
-2.53401
-1.47449
-4.38552
-7.18132
-9.78088
-12.0974
-14.0376
-15.5022
-16.3893
-16.6009
-16.054
-14.695
-12.5183
-9.5831
-6.02547
-2.05652
-1.26892
-3.77099
-6.16492
-8.37613
-10.3268
-11.9361
-13.1213
-13.8015
-13.9032
-13.3693
-12.1699
-10.3143
-7.86192
-4.92776
-1.67908
-1.08818
-3.2315
-5.27534
-7.15217
-8.79319
-10.1289
-11.0909
-11.6151
-11.6467
-11.1467
-10.1003
-8.52463
-6.4752
-4.04841
-1.37763
-0.930352
-2.76106
-4.50168
-6.09189
-7.47145
-8.58113
-9.36449
-9.7708
-9.75912
-9.30341
-8.39817
-7.06384
-5.35047
-3.33845
-1.13484
-0.793346
-2.35315
-3.8324
-5.17781
-6.33704
-7.25985
-7.89976
-8.2166
-8.1798
-7.77216
-6.99391
-5.86617
-4.43307
-2.7615
-0.937916
-0.674999
-2.00116
-3.25604
-4.39295
-5.36675
-6.13493
-6.65927
-6.9079
-6.85791
-6.49819
-5.83226
-4.8805
-3.68123
-2.29008
-0.777263
-0.573197
-1.69864
-2.76155
-3.72132
-4.53917
-5.17928
-5.61018
-5.80649
-5.75101
-5.43678
-4.86903
-4.06664
-3.06258
-1.90313
-0.645564
-0.485936
-1.43953
-2.33865
-3.14819
-3.83498
-4.36886
-4.72391
-4.87987
-4.82374
-4.55136
-4.0687
-3.39279
-2.55182
-1.5843
-0.537161
-0.411361
-1.21824
-1.97794
-2.66026
-3.23693
-3.68259
-3.97585
-4.10047
-4.0466
-3.81191
-3.40251
-2.83351
-2.1289
-1.32074
-0.447628
-0.347786
-1.02969
-1.67094
-2.24566
-2.72981
-3.1021
-3.34484
-3.44498
-3.39498
-3.19373
-2.84712
-2.36838
-1.77786
-1.10228
-0.373466
-0.293698
-0.869356
-1.41014
-1.89393
-2.30035
-2.61153
-2.81283
-2.8937
-2.84836
-2.67645
-2.38346
-1.98086
-1.48586
-0.920762
-0.311884
-0.247758
-0.733232
-1.18889
-1.5959
-1.93702
-2.19723
-2.36442
-2.43003
-2.38959
-2.24322
-1.99589
-1.65748
-1.24252
-0.76964
-0.260638
-0.20879
-0.617806
-1.00141
-1.34362
-1.62984
-1.84749
-1.98654
-2.03998
-2.00437
-1.88008
-1.67154
-1.38723
-1.0394
-0.643593
-0.217912
-0.175766
-0.520016
-0.842675
-1.13019
-1.37026
-1.55233
-1.66807
-1.71176
-1.6807
-1.57541
-1.3998
-1.16109
-0.869584
-0.538281
-0.182227
-0.147797
-0.437216
-0.708335
-0.949695
-1.15094
-1.30322
-1.39961
-1.43543
-1.40855
-1.31957
-1.17186
-0.971581
-0.727395
-0.450153
-0.152373
-0.124113
-0.367117
-0.594653
-0.797052
-0.9656
-1.0929
-1.17319
-1.20263
-1.17953
-1.10448
-0.980424
-0.812554
-0.608153
-0.376281
-0.127354
-0.104053
-0.307757
-0.49842
-0.667906
-0.8089
-0.915215
-0.982066
-1.00629
-0.986556
-0.92342
-0.8194
-0.678886
-0.507982
-0.314247
-0.106349
-0.0870505
-0.25745
-0.416888
-0.558537
-0.676272
-0.764928
-0.820531
-0.840484
-0.823711
-0.770738
-0.683708
-0.566314
-0.42366
-0.262046
-0.0886764
-0.0726171
-0.214751
-0.347705
-0.465769
-0.563829
-0.637585
-0.683743
-0.700167
-0.685995
-0.6417
-0.569094
-0.471276
-0.352501
-0.218005
-0.0737684
-0.0603361
-0.178423
-0.288859
-0.386887
-0.468256
-0.5294
-0.567595
-0.581089
-0.56919
-0.532313
-0.471984
-0.390785
-0.292254
-0.180727
-0.0611511
-0.0498497
-0.147407
-0.238626
-0.31957
-0.386723
-0.437145
-0.468595
-0.479639
-0.469723
-0.439205
-0.38936
-0.322327
-0.241027
-0.149037
-0.0504261
-0.0408501
-0.120791
-0.195526
-0.261825
-0.316805
-0.35806
-0.38376
-0.39274
-0.384556
-0.359515
-0.318668
-0.263772
-0.197222
-0.121942
-0.0412573
-0.0330717
-0.0977881
-0.158283
-0.211936
-0.256415
-0.289772
-0.310531
-0.317755
-0.311092
-0.290797
-0.257727
-0.213308
-0.159477
-0.098599
-0.0333586
-0.026284
-0.0777161
-0.125788
-0.168416
-0.203746
-0.230229
-0.246698
-0.25241
-0.247091
-0.230948
-0.204665
-0.169377
-0.126625
-0.0782841
-0.0264849
-0.0202847
-0.0599766
-0.0970724
-0.129963
-0.157216
-0.17764
-0.190331
-0.194722
-0.190603
-0.178137
-0.157853
-0.130628
-0.0976518
-0.0603698
-0.0204238
-0.0148947
-0.0440391
-0.0712759
-0.0954228
-0.115428
-0.130417
-0.139727
-0.142942
-0.139911
-0.130753
-0.115858
-0.0958725
-0.0716675
-0.0443049
-0.0149887
-0.00995233
-0.0294259
-0.0476244
-0.0637575
-0.0771227
-0.0871351
-0.0933531
-0.0954989
-0.0934709
-0.0873503
-0.0773982
-0.0640455
-0.0478752
-0.0295961
-0.0100125
-0.00530923
-0.0156978
-0.0254064
-0.0340137
-0.0411448
-0.0464875
-0.0498064
-0.0509527
-0.0498722
-0.0466078
-0.0412986
-0.0341746
-0.0255466
-0.0157929
-0.00534287
-0.000825703
-0.00244173
-0.00395306
-0.0052946
-0.00640816
-0.00724493
-0.00776763
-0.00795227
-0.00778937
-0.00728464
-0.00645897
-0.00534773
-0.00399933
-0.00247313
-0.000836806
0.00363328
0.0107417
0.0173825
0.0232663
0.0281363
0.0317797
0.0340364
0.0348069
0.0340562
0.0318157
0.0281825
0.0233145
0.0174245
0.0107702
0.00364337
0.00820204
0.0242497
0.0392435
0.0525309
0.0635324
0.0717669
0.0768723
0.0786221
0.0769358
0.071883
0.063681
0.0526863
0.0393789
0.0243416
0.00823453
0.0130182
0.0384894
0.0622891
0.0833823
0.100849
0.113926
0.122037
0.124823
0.122152
0.114136
0.101118
0.0836635
0.062534
0.0386556
0.013077
0.0182267
0.0538893
0.0872135
0.116751
0.141214
0.159532
0.1709
0.17481
0.17108
0.159862
0.141635
0.117192
0.0875974
0.0541499
0.0183188
0.023984
0.0709126
0.114767
0.153642
0.185844
0.209964
0.224939
0.230101
0.225206
0.210452
0.186469
0.154295
0.115336
0.0712987
0.0241206
0.0304629
0.0900701
0.145777
0.195165
0.236084
0.266744
0.285791
0.292373
0.286177
0.267449
0.236987
0.196109
0.146599
0.0906282
0.0306603
0.0378573
0.111935
0.181172
0.242567
0.293446
0.331584
0.355295
0.363515
0.355847
0.332592
0.294736
0.243915
0.182347
0.112732
0.0381392
0.0463876
0.137161
0.222012
0.297268
0.359654
0.406439
0.435554
0.445685
0.436337
0.40787
0.361485
0.299182
0.22368
0.138293
0.0467879
0.0563075
0.166498
0.269514
0.360902
0.436691
0.493561
0.528992
0.541376
0.530101
0.495587
0.439283
0.363612
0.271874
0.1681
0.0568742
0.0679106
0.200815
0.325087
0.435365
0.52686
0.595566
0.638428
0.653491
0.639995
0.598429
0.530525
0.439197
0.328424
0.20308
0.0687117
0.0815385
0.241124
0.390375
0.522865
0.632851
0.715511
0.767162
0.78543
0.769376
0.719556
0.638027
0.528279
0.395089
0.244324
0.0826703
0.0975903
0.288607
0.467297
0.625988
0.757809
0.856981
0.919069
0.941197
0.922195
0.862693
0.76512
0.633633
0.473955
0.293126
0.0991887
0.116533
0.344647
0.558103
0.747764
0.905433
1.02419
1.09872
1.12551
1.10313
1.03226
0.915755
0.758558
0.567503
0.351027
0.118789
0.138911
0.410863
0.665426
0.891747
1.08006
1.22211
1.31149
1.34397
1.31772
1.2335
1.09464
0.906987
0.678697
0.419871
0.142097
0.165365
0.489149
0.792354
1.06211
1.28682
1.4566
1.56377
1.60319
1.57257
1.47267
1.30739
1.08363
0.81109
0.501866
0.169863
0.19664
0.581721
0.9425
1.26375
1.53169
1.73455
1.86308
1.91103
1.8755
1.75724
1.56073
1.29412
0.968951
0.599675
0.202991
0.233606
0.691163
1.12009
1.50239
1.82174
2.06409
2.21833
2.27681
2.23586
2.09613
1.86274
1.54527
1.15743
0.71651
0.242572
0.277274
0.820481
1.33004
1.78474
2.16524
2.45481
2.64005
2.71161
2.66479
2.50003
2.22312
1.84527
1.38276
0.856267
0.289933
0.328814
0.973159
1.57806
2.11859
2.57187
2.91795
3.14068
3.22859
3.17561
2.98177
2.65356
2.20404
1.65249
1.02368
0.346687
0.389574
1.15322
1.87078
2.51301
3.0529
3.4667
3.73491
3.84336
3.78421
3.55679
3.16823
2.63364
1.97586
1.22455
0.414811
0.461097
1.36526
2.21578
2.97846
3.62147
4.11652
4.44004
4.57449
4.50962
4.24367
3.78426
3.14876
2.36415
1.46599
0.496735
0.545136
1.61453
2.62177
3.52697
4.29275
4.88541
5.27642
5.44397
5.3746
5.06486
4.52253
3.7674
2.83126
1.75679
0.595466
0.643663
1.90696
3.09859
4.17227
5.08419
5.79428
6.26793
6.47791
6.40646
6.04751
5.40851
4.51171
3.39441
2.10787
0.714754
0.758873
2.24913
3.65727
4.92987
6.01572
6.86727
7.44248
7.7072
7.6379
7.22456
6.47345
5.40908
4.07504
2.53293
0.859308
0.893165
2.64829
4.31004
5.81709
7.10989
8.13207
8.83255
9.16837
9.10815
8.6361
7.75585
6.49367
4.90012
3.04928
1.0351
1.04912
3.11226
5.07019
6.85304
8.39191
9.62018
10.4758
10.9044
10.8643
10.331
9.30338
7.8083
5.90382
3.67903
1.24978
1.22943
3.64927
5.95185
8.05833
9.88953
11.367
12.4153
12.966
12.9628
12.3691
11.1754
9.40714
7.1299
4.45071
1.51328
1.43681
4.26768
6.96962
9.4547
11.6327
13.4117
14.7003
15.4119
15.4712
14.8237
13.4463
11.3593
8.63501
5.40169
1.83866
1.67387
4.97557
8.13792
11.0642
13.6528
15.7968
17.3859
18.3106
18.4703
17.7849
16.2099
13.7539
10.4935
6.58157
2.24337
1.94289
5.78016
9.47005
12.9081
15.9814
18.567
20.5326
21.7404
22.0562
21.3636
19.5852
16.707
12.8043
8.05741
2.7512
2.24555
6.68705
10.977
15.0051
18.6485
21.7676
24.2053
25.7894
26.342
25.6962
23.7238
20.3715
15.7012
9.92157
3.39526
2.58264
7.69913
12.6655
17.3692
21.6795
25.4412
28.4704
30.5545
31.4597
30.9498
28.8205
24.9511
19.3681
12.3042
4.22278
2.95359
8.81538
14.5362
20.0063
25.0913
29.6232
33.3915
36.1379
37.5598
37.3276
35.1253
30.7204
24.0633
15.3933
5.30312
3.35602
10.0294
16.581
22.9105
28.8869
34.3353
39.0218
42.6406
44.8081
45.0733
42.9592
38.0534
30.1562
19.4684
6.74182
3.78526
11.3278
18.78
26.0595
33.0488
39.5761
45.3931
50.1507
53.377
54.4707
52.7314
47.4634
38.1867
24.959
8.70619
4.2339
12.6888
21.0985
29.4098
37.5312
45.3096
52.4997
58.7237
63.4265
65.8347
64.9536
59.6568
48.9604
32.5503
11.4757
4.69144
14.0811
23.4852
32.8917
42.2514
51.4513
60.2765
68.3526
75.0686
79.4825
80.2414
75.5993
63.7014
43.3804
15.5483
5.14421
15.4633
25.8699
36.4058
47.0819
57.8527
68.5728
78.9254
88.3088
95.6674
99.2792
96.5797
84.2911
59.4261
21.8876
5.57561
16.7845
28.1646
39.8221
51.8463
64.2888
77.1235
90.1705
102.954
114.453
122.699
124.218
113.613
84.272
32.5578
5.9669
17.9867
30.2662
42.9834
56.3197
70.4518
85.5262
101.598
118.49
135.498
150.787
160.275
155.946
124.653
52.5343
6.29839
19.0083
32.0636
45.7143
60.2399
75.9596
93.2355
112.454
133.944
157.735
182.902
205.925
217.001
193.385
95.3919
6.55123
19.7899
33.4473
47.8372
63.3303
80.3861
99.5951
121.731
147.798
179.016
216.503
259.869
302.145
313.766
202.686
6.7094
20.2805
34.3218
49.1935
65.3348
83.3163
103.921
128.277
158.074
195.94
246.018
314.568
408.573
519.354
514.347
6.76174
20.4444
34.6194
49.6677
66.0607
84.4239
105.642
131.042
162.745
204.381
262.702
351.586
503.347
805.342
1536.9
6.70347
20.2661
34.3102
49.2077
65.4177
83.5483
104.457
129.429
160.515
201.234
258.158
344.937
493.786
793.015
1526.93
6.53701
19.7533
33.4081
47.8357
63.4402
80.7425
100.45
123.568
151.595
186.83
232.88
295.181
379.789
478.812
472.253
6.27171
18.9357
31.9692
45.6459
60.2833
76.2658
94.0716
114.298
137.666
164.913
196.314
229.93
255.777
237.925
68.9201
-70.5512
-57.4474
-47.6409
-40.0586
-33.9523
-28.864
-24.506
-20.6876
-17.2765
-14.176
-11.3127
-8.62828
-6.0746
-3.61015
-1.19769
-26.4561
-36.6397
-36.1645
-32.9873
-29.2584
-25.5896
-22.1448
-18.9487
-15.9813
-13.2098
-10.5994
-8.11679
-5.73065
-3.41189
-1.13291
-12.0332
-23.2335
-26.5641
-26.2988
-24.5226
-22.1591
-19.6108
-17.0508
-14.5499
-12.1316
-9.79738
-7.53819
-5.33987
-3.18596
-1.05898
-6.54493
-15.2922
-19.4606
-20.6592
-20.1942
-18.8569
-17.0847
-15.1117
-13.0609
-10.9948
-8.94315
-6.91724
-4.91817
-2.9413
-0.978785
-4.0723
-10.5304
-14.4194
-16.1745
-16.4715
-15.8565
-14.6978
-13.2265
-11.5823
-9.84793
-8.07094
-6.27756
-4.48102
-2.68663
-0.895141
-2.77079
-7.55268
-10.8598
-12.7022
-13.3821
-13.2334
-12.5279
-11.4612
-10.1663
-8.73054
-7.21001
-5.64003
-4.04231
-2.42993
-0.810646
-1.9968
-5.59902
-8.31727
-10.037
-10.8678
-10.9969
-10.6086
-9.8542
-8.84798
-7.67192
-6.38336
-5.02168
-3.61375
-2.178
-0.727533
-1.49457
-4.25916
-6.46811
-7.98894
-8.84082
-9.11972
-8.94335
-8.42202
-7.6475
-6.69135
-5.60741
-4.4354
-3.20446
-1.93628
-0.647603
-1.14828
-3.30512
-5.09672
-6.40536
-7.21161
-7.55854
-7.51757
-7.16558
-6.57307
-5.79946
-4.89257
-3.88998
-2.821
-1.70876
-0.572201
-0.898995
-2.60468
-4.06068
-5.1706
-5.90129
-6.26668
-6.30768
-6.0761
-5.62434
-5.00005
-4.24414
-3.39063
-2.46754
-1.49812
-0.502238
-0.713802
-2.0776
-3.26494
-4.19913
-4.84459
-5.2
-5.28702
-5.13946
-4.79535
-4.29199
-3.66343
-2.93956
-2.14622
-1.30583
-0.438241
-0.572907
-1.67306
-2.64495
-3.42813
-3.98925
-4.31966
-4.42921
-4.33926
-4.0769
-3.67084
-3.14887
-2.5367
-1.85757
-1.13242
-0.380415
-0.463718
-1.35755
-2.15598
-2.81131
-3.29408
-3.59266
-3.70988
-3.65873
-3.45821
-3.13013
-2.69691
-2.18031
-1.60084
-0.977644
-0.328712
-0.377858
-1.10829
-1.76636
-2.31428
-2.72679
-2.99155
-3.10744
-3.0819
-2.92806
-2.66239
-2.30282
-1.86757
-1.37447
-0.840729
-0.282902
-0.309548
-0.909276
-1.45321
-1.91126
-2.26208
-2.49379
-2.60319
-2.59411
-2.47555
-2.25984
-1.96126
-1.59496
-1.17631
-0.720532
-0.242627
-0.254685
-0.748993
-1.1997
-1.58268
-1.88005
-2.08094
-2.18118
-2.18233
-2.09046
-1.91482
-1.66671
-1.3587
-1.00391
-0.615694
-0.207455
-0.210279
-0.618977
-0.993214
-1.31352
-1.565
-1.73797
-1.82795
-1.83514
-1.76354
-1.62008
-1.41375
-1.15491
-0.854702
-0.524758
-0.176911
-0.174107