/*--------------------------------*- C++ -*----------------------------------*\
| =========                 |                                                 |
| \\      /  F ield         | OpenFOAM: The Open Source CFD Toolbox           |
|  \\    /   O peration     | Version:  5.x                                   |
|   \\  /    A nd           | Web:      www.OpenFOAM.org                      |
|    \\/     M anipulation  |                                                 |
\*---------------------------------------------------------------------------*/
FoamFile
{
    version     2.0;
    format      ascii;
    class       volScalarField;
    location    "6";
    object      T;
}
// * * * * * * * * * * * * * * * * * * * * * * * * * * * * * * * * * * * * * //

dimensions      [0 0 0 1 0 0 0];

internalField   nonuniform List<scalar> 
6300
(
10.6268
11.8838
13.151
14.435
15.7419
17.0774
18.4462
19.8521
21.2974
22.7831
24.308
25.8691
27.4611
29.0766
30.7064
10.6233
11.8735
13.1342
14.4119
15.7132
17.0439
18.4089
19.8123
21.2568
22.7435
24.2715
25.8379
27.4372
29.0619
30.7023
10.6164
11.8528
13.1001
14.3652
15.6551
16.9758
18.333
19.7312
21.1738
22.6623
24.1964
25.7732
27.3874
29.0309
30.6932
10.6058
11.8211
13.048
14.2938
15.5659
16.8711
18.2159
19.6056
21.0445
22.5352
24.0781
25.6708
27.3079
28.9807
30.6772
10.5913
11.778
12.9768
14.196
15.4434
16.7268
18.0536
19.4305
20.8632
22.3557
23.9096
25.5236
27.1924
28.9062
30.6513
10.5728
11.7226
12.8854
14.0698
15.2847
16.5388
17.8409
19.1994
20.6218
22.1143
23.6808
25.3213
27.0313
28.8002
30.6111
10.5499
11.6542
12.7722
13.9131
15.0866
16.3027
17.5717
18.904
20.31
21.7988
23.3775
25.0492
26.811
28.6516
30.5503
10.5225
11.5721
12.6359
13.7237
14.8459
16.0136
17.2389
18.5349
19.9151
21.393
22.9808
24.6867
26.5115
28.4444
30.4598
10.4904
11.4758
12.4756
13.4998
14.5594
15.6667
16.8354
18.0813
19.4221
20.8771
22.4658
24.205
26.1035
28.1542
30.3261
10.4535
11.3652
12.2908
13.2404
14.2252
15.2582
16.3545
17.5326
18.8147
20.2271
21.7999
23.5637
25.5428
27.7422
30.1281
10.4121
11.2405
12.0819
12.9457
13.8428
14.7861
15.7916
16.8797
18.0767
19.4166
20.9427
22.7066
24.7616
27.1433
29.8292
10.3664
11.1029
11.8505
12.6177
13.4141
14.2517
15.146
16.1177
17.1955
18.4197
19.8475
21.558
23.6533
26.2399
29.3572
10.3171
10.954
11.5996
12.2604
12.944
13.6604
14.4227
15.2495
16.1677
17.2191
18.4692
20.0242
22.0534
24.8054
28.5407
10.2649
10.7965
11.3335
11.88
12.4411
13.0232
13.635
14.2895
15.0066
15.8194
16.7858
18.0159
19.7304
22.3873
26.8691
10.211
10.6335
11.0577
11.4851
11.9172
12.356
12.8044
13.2667
13.7498
14.2658
14.8387
15.5228
16.4646
18.144
22.4447
32.2037
33.56
34.9046
36.2306
37.5317
38.8017
40.0353
41.2278
42.3751
43.4738
44.5211
45.5148
46.4531
47.3347
48.1586
48.9241
49.6309
50.2787
50.8677
51.398
51.8702
52.2848
52.6427
52.9448
53.1921
53.3858
53.5272
53.6176
53.6584
53.651
53.5969
53.4974
53.3541
53.1682
52.9413
52.6746
52.3694
52.0271
51.6488
51.2358
50.7893
50.3105
49.8006
49.2607
48.6919
48.0952
47.4719
46.8227
46.1487
45.4507
44.7296
43.986
43.2208
42.4346
41.6282
40.8022
39.9574
39.0946
38.2146
37.3181
36.4061
35.4793
34.5387
33.5852
32.6197
31.643
30.6563
29.6606
28.6569
27.6467
26.6312
25.6121
24.5911
23.5702
22.5514
21.537
20.5293
19.5308
18.544
17.5714
16.6156
15.6789
14.7636
13.872
13.006
12.1673
11.3575
10.5775
9.82822
9.10998
32.2102
33.5764
34.9307
36.266
37.5757
38.8535
40.0939
41.2922
42.4443
43.547
44.5975
45.5937
46.5339
47.4169
48.2418
49.0079
49.7148
50.3626
50.9511
51.4808
51.952
52.3655
52.7221
53.0226
53.2682
53.4601
53.5996
53.688
53.7268
53.7173
53.6611
53.5596
53.4142
53.2264
52.9975
52.7289
52.4219
52.0778
51.6978
51.2831
50.8349
50.3544
49.8429
49.3013
48.731
48.1329
47.5081
46.8576
46.1824
45.4833
44.761
44.0164
43.2502
42.463
41.6556
40.8286
39.9827
39.1188
38.2376
37.3399
36.4266
35.4986
34.5568
33.602
32.6351
31.657
30.6688
29.6714
28.666
27.6537
26.636
25.6144
24.5907
23.5667
22.5447
21.5269
20.5157
19.5137
18.5233
17.5471
16.5877
15.6477
14.7293
13.8349
12.9664
12.1257
11.3142
10.5332
9.78336
9.06516
32.2228
33.6092
34.9834
36.3378
37.6649
38.9583
40.2124
41.4222
42.584
43.6945
44.7512
45.7523
46.6962
47.5819
48.4086
49.1757
49.8831
50.5306
51.1183
51.6466
52.116
52.5272
52.881
53.1784
53.4207
53.6089
53.7445
53.8289
53.8635
53.8499
53.7895
53.6838
53.5344
53.3426
53.1099
52.8376
52.5269
52.1792
51.7957
51.3775
50.926
50.4422
49.9273
49.3825
48.8091
48.208
47.5804
46.9273
46.2496
45.5482
44.8238
44.0772
43.3089
42.5198
41.7104
40.8813
40.0333
39.1671
38.2835
37.3835
36.4677
35.5372
34.5928
33.6355
32.6659
31.6852
30.694
29.6934
28.6844
27.6681
26.6459
25.6193
24.59
23.5601
22.5316
21.507
20.4887
19.4794
18.4816
17.4982
16.5318
15.585
14.6604
13.7602
12.8866
12.0417
11.2269
10.4437
9.69282
8.97473
32.2409
33.659
35.0643
36.448
37.802
39.1192
40.3937
41.6208
42.7967
43.9186
44.9843
45.9923
46.9415
47.831
48.6602
49.4288
50.1367
50.7837
51.3702
51.8964
52.3629
52.7705
53.1201
53.4128
53.6498
53.8324
53.9621
54.0403
54.0687
54.0487
53.982
53.8701
53.7145
53.5168
53.2783
53.0003
52.6842
52.3312
51.9424
51.5191
51.0625
50.5736
50.0538
49.5042
48.926
48.3205
47.6886
47.0315
46.3501
45.6453
44.9178
44.1682
43.3971
42.605
41.7927
40.9605
40.1093
39.2397
38.3526
37.4489
36.5294
35.5952
34.647
33.6859
32.7125
31.7277
30.7322
29.7269
28.7127
27.6905
26.6617
25.6276
24.59
23.5509
22.5126
21.4776
20.4484
19.428
18.4191
17.4246
16.4474
15.4903
14.5559
13.6468
12.7655
11.9139
11.0941
10.3074
9.55492
8.83704
32.2635
33.7266
35.1757
36.6004
37.9913
39.3408
40.6427
41.8923
43.0864
44.2227
45.2997
46.3162
47.2718
48.1659
48.9982
49.7685
50.4768
51.1232
51.7077
52.231
52.6936
53.0963
53.4401
53.7263
53.9562
54.1311
54.2527
54.3226
54.3424
54.3138
54.2385
54.1182
53.9544
53.7487
53.5024
53.217
52.8937
52.5336
52.138
51.7078
51.2444
50.7487
50.2222
49.666
49.0815
48.4698
47.8322
47.1698
46.4836
45.7743
45.0427
44.2893
43.5145
42.7188
41.9027
41.0665
40.211
39.3369
38.445
37.5363
36.6118
35.6725
34.7194
33.7533
32.7749
31.785
30.7841
29.7729
28.752
27.7222
26.6845
25.6405
24.5917
23.5403
22.4886
21.4393
20.3953
19.3597
18.3355
17.3259
16.3339
15.3625
14.4148
13.4934
12.6011
11.7404
10.9134
10.1218
9.36701
8.64946
32.2895
33.8136
35.3216
36.8007
38.2398
39.6304
40.9662
42.2431
43.4587
44.6116
45.7011
46.7272
47.6898
48.5889
49.4245
50.1967
50.9053
51.5506
52.1327
52.6521
53.1095
53.5058
53.8422
54.12
54.3406
54.5056
54.6168
54.6759
54.6848
54.6451
54.5589
54.4278
54.2536
54.0379
53.782
53.4873
53.1551
52.7864
52.3822
51.9435
51.4716
50.9674
50.4324
49.8678
49.2751
48.6556
48.0107
47.3416
46.6494
45.9347
45.1982
44.4403
43.6613
42.8614
42.0407
41.1997
40.3388
39.4589
38.5609
37.6459
36.7149
35.7692
34.8099
33.8377
32.8534
31.8576
30.8504
29.8323
28.8035
27.7646
26.7163
25.6598
24.5969
23.5296
22.4607
21.393
20.3299
19.2746
18.2307
17.2014
16.1903
15.2006
14.2354
13.2979
12.3912
11.5181
10.6813
9.8832
9.12526
8.40826
32.3175
33.9231
35.5088
37.058
38.5575
39.998
41.3737
42.6816
43.9205
45.0908
46.1932
47.2287
48.1983
49.1024
49.9414
50.7153
51.4242
52.0679
52.6469
53.1614
53.6124
54.0007
54.3277
54.5949
54.804
54.9567
55.0549
55.1006
55.0959
55.0426
54.9428
54.7986
54.6117
54.3838
54.1164
53.8108
53.4681
53.0892
52.675
52.2263
51.7442
51.2297
50.6843
50.1093
49.5063
48.8771
48.2232
47.546
46.8465
46.1256
45.3838
44.6211
43.8375
43.033
42.2073
41.3606
40.4934
39.6065
38.7007
37.7777
36.8386
35.885
34.9182
33.939
32.9481
31.9458
30.9321
29.9066
28.8693
27.82
26.7593
25.688
24.6078
23.5211
22.4306
21.34
20.2528
19.1729
18.1043
17.0507
16.0157
15.003
14.0159
13.0579
12.1325
11.2433
10.3936
9.58654
8.8244
8.10826
32.3463
34.0607
35.7479
37.3861
38.9594
40.4584
41.8783
43.2185
44.4804
45.6669
46.7807
47.8245
48.8001
49.7088
50.5511
51.3268
52.0357
52.6778
53.2529
53.7615
54.2044
54.5829
54.8983
55.1526
55.3475
55.4852
55.5676
55.5971
55.5758
55.5059
55.3899
55.2298
55.0278
54.7856
54.5048
54.1867
53.8322
53.4419
53.0164
52.5563
52.0624
51.5358
50.9777
50.39
49.7745
49.1334
48.4685
47.7815
47.0738
46.346
45.5985
44.8311
44.0432
43.2342
42.4034
41.5505
40.6759
39.7802
38.865
37.9318
36.9826
36.0194
35.0436
34.0566
33.0588
32.0501
31.0301
29.9976
28.9518
27.8916
26.817
25.7286
24.6278
23.5174
22.4006
21.2816
20.1648
19.0547
17.956
16.8728
15.809
14.7683
13.7544
12.7708
11.8217
10.9113
10.0443
9.22506
8.45717
7.74232
32.3756
34.2369
36.0572
37.8069
39.4679
41.0317
42.497
43.8673
45.1484
46.3467
47.4682
48.5174
49.4975
50.4101
51.2556
52.0334
52.7428
53.3829
53.9536
54.4551
54.8883
55.2547
55.5561
55.7946
55.9725
56.0921
56.1556
56.1656
56.1244
56.0348
55.8992
55.7204
55.5006
55.2419
54.946
54.614
54.2467
53.8442
53.4067
52.9341
52.4269
51.886
51.3129
50.7097
50.0788
49.4229
48.7446
48.0461
47.3289
46.5939
45.8411
45.0698
44.2787
43.466
42.6304
41.771
40.8878
39.9816
39.0543
38.1083
37.1463
36.1711
35.1848
34.1891
33.1844
32.1703
31.1453
30.1075
29.0543
27.9836
26.8943
25.7864
24.6615
23.5224
22.3735
21.2197
20.0667
18.9201
17.7851
16.6666
15.5686
14.4948
13.4488
12.434
11.4548
10.5166
9.62592
8.78957
8.01343
7.30053
32.4072
34.4715
36.4673
38.3549
40.1157
41.746
43.2518
44.6437
45.9345
47.1363
48.2588
49.3091
50.2912
51.2071
52.0564
52.8376
53.5484
54.1872
54.7529
55.2459
55.6673
56.0189
56.3032
56.5229
56.6804
56.7785
56.8197
56.8065
56.7418
56.6285
56.4698
56.2688
56.0283
55.7508
55.4381
55.0912
54.7107
54.296
53.8463
53.3606
52.8388
52.2816
51.6905
51.0683
50.4181
49.7437
49.0489
48.3366
47.6089
46.8666
46.1096
45.3362
44.5442
43.7301
42.891
42.0251
41.132
40.2127
39.2699
38.3071
37.3283
36.3379
35.3391
34.334
33.3231
32.3055
31.2787
30.2389
29.1814
28.102
26.9979
25.8684
24.7151
23.5414
22.3529
21.1562
19.959
18.7683
17.5904
16.4305
15.293
14.1813
13.098
12.0458
11.0287
10.0534
9.12917
8.26722
7.4785
6.76868
32.4494
34.8042
37.0325
39.0848
40.9505
42.639
44.1697
45.565
46.848
48.0392
49.1526
50.1978
51.1795
52.099
52.9543
53.742
54.4568
55.0954
55.656
56.1388
56.5455
56.879
57.1425
57.3393
57.4729
57.5458
57.5608
57.5206
57.428
57.2866
57.1002
56.8729
56.6082
56.3093
55.9781
55.6159
55.2227
54.7972
54.3366
53.8382
53.3008
52.7248
52.1121
51.466
50.7913
50.0932
49.3774
48.6483
47.9088
47.1597
46.4006
45.6289
44.8406
44.0294
43.1895
42.3176
41.4129
40.4772
39.5136
38.528
37.5265
36.5162
35.5019
34.4867
33.471
32.4535
31.4302
30.3952
29.3397
28.2554
27.1375
25.9843
24.7975
23.5814
22.3436
21.0933
19.8416
18.5976
17.3693
16.162
14.9802
13.8265
12.7023
11.6068
10.5421
9.51651
8.5426
7.63928
6.82986
6.12551
32.53
35.3185
37.8503
40.0829
42.0399
43.7584
45.2819
46.647
47.8932
49.0531
50.1437
51.1773
52.1562
53.0823
53.9489
54.7502
55.4739
56.1151
56.6699
57.1402
57.5283
57.8389
58.0765
58.246
58.3514
58.3955
58.3805
58.309
58.1835
58.0086
57.7884
57.5297
57.2364
56.9132
56.5617
56.1844
55.7803
55.348
54.8805
54.3709
53.8176
53.2197
52.581
51.9041
51.1974
50.467
49.7244
48.9743
48.2218
47.4664
46.7089
45.9447
45.1691
44.3694
43.5331
42.6569
41.7379
40.7809
39.7886
38.7713
37.7369
36.6997
35.6653
34.6396
33.6208
32.6093
31.5982
30.5806
29.5391
28.4567
27.3278
26.148
24.9219
23.6522
22.3522
21.0321
19.7129
18.4042
17.1178
15.8563
14.6269
13.4291
12.2649
11.1235
9.99884
8.90514
7.85426
6.87603
6.0298
5.33739
32.7482
36.2018
39.0985
41.4769
43.4721
45.1578
46.6214
47.8995
49.0616
50.1658
51.2159
52.2344
53.2081
54.1501
55.0365
55.869
56.6089
57.2581
57.8045
58.2588
58.6213
58.9026
59.1075
59.2438
59.3171
59.3292
59.2802
59.1738
59.0091
58.7945
58.531
58.2351
57.9066
57.5567
57.1814
56.7902
56.3774
55.9483
55.4841
54.9652
54.3976
53.7723
53.1036
52.3844
51.6364
50.8574
50.0811
49.3027
48.5381
47.7753
47.0258
46.276
45.5316
44.7611
43.9335
43.0568
42.1171
41.1347
40.0987
39.0387
37.9504
36.8786
35.8156
34.7817
33.7598
32.7638
31.7751
30.7999
29.7969
28.7243
27.5911
26.3779
25.1084
23.7666
22.389
20.9693
19.5688
18.1784
16.8302
15.504
14.2278
12.9832
11.7943
10.6158
9.41094
8.23196
7.06117
5.92259
5.00812
4.3479
33.5005
37.8867
41.092
43.4223
45.3491
46.8762
48.2273
49.3183
50.3122
51.3558
52.3326
53.3552
54.3046
55.2973
56.2005
57.1204
57.8732
58.5481
59.0707
59.5086
59.8302
60.0753
60.2363
60.3313
60.3697
60.3496
60.2617
60.1216
59.9052
59.6496
59.3191
58.9864
58.6067
58.2356
57.8227
57.4263
56.9967
56.5982
56.1654
55.6287
55.0598
54.3862
53.6981
52.9051
52.1194
51.2429
50.4402
49.6101
48.8511
48.0642
47.3424
46.5988
45.9306
45.2345
44.4041
43.5465
42.5571
41.5648
40.4429
39.3461
38.1396
37.0442
35.9236
34.9063
33.8607
32.9073
31.9319
31.059
30.1542
29.0789
27.9693
26.6883
25.3988
23.9321
22.4862
20.8785
19.41
17.8917
16.5105
15.0794
13.783
12.4569
11.3088
10.1458
8.78563
7.54687
6.22158
4.64636
3.62024
3.0583
36.6173
41.2714
44.345
45.9478
47.8009
48.8474
50.2069
50.8759
51.4905
52.641
53.3823
54.5804
55.3376
56.5721
57.3395
58.6112
59.2485
60.0563
60.4575
60.9249
61.148
61.3679
61.4589
61.4989
61.5052
61.4667
61.3171
61.178
60.8568
60.6116
60.109
59.8042
59.293
58.9738
58.4392
58.1089
57.5701
57.2966
56.995
56.3378
55.8715
55.0201
54.4426
53.4141
52.7321
51.5213
50.8377
49.8144
49.2033
48.2584
47.6894
46.8124
46.3691
45.9004
44.913
44.2253
43.0003
42.1811
40.7501
39.8108
38.1682
37.2457
35.8821
35.0709
33.8283
33.0822
31.9404
31.3637
30.7565
29.4825
28.594
27.0105
25.9439
24.0674
22.816
20.587
19.3224
17.4075
16.2623
14.4606
13.3809
11.6742
10.8443
9.95977
7.98529
6.98629
5.74177
2.57935
1.5639
1.2925
8.35403
7.57338
6.83529
6.13763
5.47778
4.85271
4.25912
3.69358
3.1526
2.63268
2.13039
1.64237
1.16534
0.696108
0.231521
8.30988
7.53071
6.79473
6.09973
5.44292
4.82114
4.23101
3.66897
3.13148
2.61501
2.11608
1.63135
1.15754
0.691449
0.229972
8.22084
7.44471
6.71311
6.02353
5.37293
4.75787
4.17472
3.61976
3.0893
2.57974
2.08756
1.60939
1.14198
0.682169
0.226888
8.08535
7.31406
6.58935
5.90827
5.26731
4.66261
4.09016
3.54599
3.02619
2.52704
2.04499
1.57665
1.1188
0.668349
0.222296
7.90102
7.1367
6.42184
5.7528
5.12536
4.53502
3.97728
3.44778
2.94238
2.45721
1.98867
1.53339
1.08821
0.650119
0.216241
7.66439
6.90977
6.20842
5.55565
4.94621
4.37475
3.83609
3.32541
2.83829
2.37072
1.91907
1.48002
1.0505
0.627669
0.208787
7.37078
6.62946
5.94633
5.31508
4.72901
4.18161
3.66687
3.17943
2.7146
2.26827
1.83683
1.41707
1.0061
0.601257
0.200021
7.01383
6.29087
5.63225
5.02924
4.47308
3.95575
3.47028
3.01079
2.57237
2.1509
1.74288
1.34532
0.955569
0.571222
0.190057
6.58504
5.88782
5.26247
4.69648
4.17825
3.69795
3.24765
2.82104
2.41315
2.02003
1.63845
1.26575
0.899609
0.537998
0.179041
6.07282
5.41282
4.83326
4.31588
3.84541
3.41012
3.00128
2.61252
2.23913
1.87758
1.52513
1.17958
0.839108
0.502111
0.167147
5.46139
4.85727
4.3418
3.88829
3.47735
3.09576
2.73478
2.38858
2.05324
1.726
1.40488
1.08833
0.775116
0.464184
0.154582
4.7295
4.21302
3.78831
3.41808
3.07987
2.76076
2.45346
2.15376
1.85921
1.56829
1.28002
0.993717
0.708832
0.42492
0.141577
3.85086
3.47693
3.18027
2.9158
2.66322
2.41393
2.16449
1.91375
1.66151
1.4079
1.15319
0.897669
0.641563
0.385079
0.128382
2.80389
2.6635
2.53999
2.40157
2.24326
2.06719
1.87679
1.67523
1.46514
1.24858
1.02717
0.802187
0.574663
0.345444
0.115253
1.61971
1.83314
1.91459
1.90721
1.84103
1.73475
1.6002
1.44522
1.27523
1.09409
0.904694
0.709234
0.509451
0.306775
0.102439
10.161
10.4824
10.8021
11.1187
11.4306
11.7355
12.0303
12.3101
12.5674
12.7894
12.9517
13.001
12.7945
11.8511
8.15816
10.1159
10.3462
10.5717
10.7889
10.9931
11.1785
11.3368
11.4559
11.5169
11.4885
11.3146
10.8859
9.96985
8.03961
3.93658
10.0719
10.2133
10.3472
10.468
10.5686
10.6401
10.6704
10.6419
10.5284
10.2886
9.85442
9.10912
7.84938
5.7369
2.33311
10.0296
10.0856
10.1319
10.161
10.1643
10.1304
10.0448
9.88696
9.62763
9.22366
8.61017
7.68952
6.32101
4.33089
1.6063
9.98947
9.96466
9.92837
9.87204
9.78561
9.65669
9.46934
9.20242
8.82719
8.30413
7.57917
6.58087
5.22424
3.43489
1.21836
9.95194
9.85168
9.73877
9.60393
9.43644
9.22347
8.94908
8.59303
8.12935
7.52476
6.73793
5.72102
4.42794
2.83553
0.98331
9.91727
9.74746
9.5644
9.35846
9.11882
8.83287
8.48548
8.05836
7.5293
6.87191
6.05641
5.05293
3.83946
2.41656
0.827704
9.88562
9.65245
9.40589
9.13637
8.83335
8.48489
8.07723
7.59446
7.01835
6.32882
5.5054
4.53065
3.39638
2.11283
0.71831
9.85702
9.56672
9.26331
8.93753
8.57942
8.17801
7.72113
7.19533
6.58612
5.87867
5.05945
4.11913
3.05695
1.88614
0.63815
9.83142
9.49011
9.13625
8.76112
8.35553
7.90962
7.41285
6.85411
6.2221
5.50612
4.69758
3.7922
2.79294
1.71303
0.577649
9.8087
9.4222
9.02394
8.60587
8.15962
7.67652
7.14759
6.56377
5.91636
5.19782
4.40294
3.53045
2.58493
1.57844
0.530978
9.78868
9.36245
8.92539
8.47016
7.9893
7.47524
6.92043
6.31755
5.66
4.94253
4.16217
3.31939
2.41927
1.47228
0.494372
9.77117
9.31023
8.83944
8.35224
7.84201
7.30225
6.72663
6.10929
5.44524
4.73089
3.96473
3.14816
2.28613
1.3876
0.465288
9.75592
9.26483
8.7649
8.25029
7.71524
7.15415
6.56178
5.93345
5.2654
4.55521
3.8023
3.00848
2.17834
1.31942
0.441944
9.74273
9.22556
8.70054
8.16254
7.60653
7.02776
6.42189
5.78519
5.11482
4.40918
3.66827
2.89401
2.09052
1.26412
0.423055
9.73135
9.19174
8.64521
8.08728
7.51361
6.92019
6.30341
5.6603
4.98872
4.28764
3.55738
2.79984
2.01862
1.21899
0.407669
9.72158
9.16271
8.5978
8.02293
7.43441
6.82883
6.2032
5.55517
4.8831
4.18636
3.46544
2.72211
1.95949
1.18199
0.39507
9.71321
9.13788
8.55729
7.96807
7.36706
6.75137
6.11856
5.46671
4.79461
4.10186
3.38904
2.65776
1.9107
1.15152
0.384708
9.70607
9.11669
8.52277
7.9214
7.30989
6.68581
6.04713
5.39232
4.72045
4.0313
3.32547
2.60438
1.87032
1.12635
0.376156
9.69999
9.09866
8.49341
7.88178
7.26144
6.63038
5.9869
5.32977
4.65828
3.97233
3.27248
2.55999
1.83681
1.10549
0.369076
9.69482
9.08334
8.4685
7.84819
7.22044
6.58356
5.93614
5.27719
4.60615
3.923
3.22826
2.52304
1.80896
1.08818
0.363202
9.69044
9.07035
8.44739
7.81975
7.18579
6.54405
5.89339
5.23299
4.56243
3.88171
3.19133
2.49222
1.78577
1.07377
0.358317
9.68672
9.05935
8.42952
7.79572
7.15653
6.51074
5.85741
5.19586
4.52575
3.84714
3.16045
2.46649
1.76643
1.06177
0.354249
9.68358
9.05004
8.41442
7.77542
7.13184
6.48268
5.82713
5.16465
4.49499
3.81818
3.13462
2.44499
1.75029
1.05176
0.350857
9.68093
9.04218
8.40167
7.75829
7.11103
6.45904
5.80166
5.13844
4.46917
3.79391
3.113
2.42702
1.7368
1.0434
0.348025
9.67869
9.03555
8.39092
7.74385
7.0935
6.43915
5.78025
5.11642
4.44751
3.77358
3.0949
2.41198
1.72553
1.03642
0.345659
9.6768
9.02996
8.38186
7.73169
7.07875
6.42242
5.76226
5.09794
4.42934
3.75653
3.07973
2.39939
1.71609
1.03058
0.343681
9.67521
9.02526
8.37423
7.72146
7.06634
6.40836
5.74714
5.08242
4.41411
3.74224
3.06704
2.38886
1.7082
1.02569
0.342027
9.67387
9.0213
8.36781
7.71285
7.05591
6.39655
5.73445
5.06941
4.40133
3.73027
3.0564
2.38004
1.7016
1.0216
0.340644
9.67274
9.01797
8.36243
7.70563
7.04715
6.38664
5.72381
5.0585
4.39063
3.72025
3.0475
2.37266
1.69608
1.01819
0.339487
9.6718
9.01518
8.3579
7.69957
7.03981
6.37833
5.7149
5.04937
4.38167
3.71186
3.04006
2.3665
1.69146
1.01533
0.338521
9.67101
9.01284
8.35412
7.6945
7.03367
6.37139
5.70745
5.04173
4.37419
3.70486
3.03385
2.36135
1.68761
1.01295
0.337715
9.67035
9.01089
8.35096
7.69026
7.02854
6.36559
5.70123
5.03536
4.36795
3.69902
3.02867
2.35706
1.6844
1.01097
0.337043
9.6698
9.00926
8.34832
7.68673
7.02427
6.36076
5.69605
5.03006
4.36276
3.69416
3.02436
2.35349
1.68174
1.00932
0.336485
9.66934
9.00791
8.34614
7.68381
7.02074
6.35676
5.69177
5.02567
4.35846
3.69015
3.0208
2.35055
1.67953
1.00795
0.336024
9.66897
9.00681
8.34435
7.68141
7.01783
6.35347
5.68824
5.02207
4.35493
3.68684
3.01787
2.34812
1.67772
1.00683
0.335645
9.66866
9.0059
8.34288
7.67945
7.01546
6.3508
5.68537
5.01913
4.35205
3.68415
3.01549
2.34615
1.67625
1.00592
0.335336
9.66842
9.00518
8.34171
7.67788
7.01356
6.34864
5.68307
5.01677
4.34974
3.682
3.01358
2.34457
1.67506
1.00519
0.335089
9.66822
9.00461
8.34079
7.67664
7.01206
6.34696
5.68126
5.01492
4.34793
3.6803
3.01208
2.34333
1.67413
1.00462
0.334895
9.66808
9.00418
8.34009
7.67571
7.01094
6.34568
5.67989
5.01352
4.34657
3.67903
3.01095
2.34239
1.67343
1.00418
0.334748
9.66798
9.00387
8.3396
7.67505
7.01014
6.34478
5.67893
5.01254
4.3456
3.67812
3.01015
2.34173
1.67294
1.00388
0.334645
9.66791
9.00369
8.3393
7.67465
7.00965
6.34423
5.67834
5.01193
4.34501
3.67757
3.00966
2.34132
1.67264
1.00369
0.334581
9.66789
9.00361
8.33917
7.67448
7.00945
6.34401
5.6781
5.01169
4.34477
3.67735
3.00946
2.34116
1.67251
1.00361
0.334556
9.6679
9.00364
8.33923
7.67456
7.00954
6.34411
5.67821
5.0118
4.34488
3.67745
3.00955
2.34123
1.67257
1.00365
0.334568
9.66795
9.00379
8.33946
7.67487
7.00992
6.34454
5.67867
5.01227
4.34534
3.67788
3.00993
2.34155
1.6728
1.00379
0.334617
9.66804
9.00405
8.33988
7.67543
7.0106
6.34531
5.67949
5.01311
4.34616
3.67865
3.01061
2.34211
1.67323
1.00405
0.334705
9.66817
9.00443
8.3405
7.67626
7.0116
6.34644
5.6807
5.01435
4.34737
3.67978
3.01162
2.34294
1.67385
1.00444
0.334835
9.66834
9.00495
8.34134
7.67738
7.01296
6.34797
5.68234
5.01602
4.34901
3.68131
3.01297
2.34406
1.67469
1.00496
0.33501
9.66857
9.00561
8.34242
7.67882
7.0147
6.34994
5.68445
5.01818
4.35113
3.68329
3.01472
2.34551
1.67577
1.00563
0.335237
9.66885
9.00645
8.34377
7.68063
7.01689
6.35241
5.6871
5.0209
4.35378
3.68577
3.01692
2.34733
1.67713
1.00647
0.335521
9.6692
9.00748
8.34544
7.68287
7.01959
6.35546
5.69037
5.02424
4.35706
3.68883
3.01964
2.34958
1.67881
1.00751
0.335872
9.66962
9.00873
8.34747
7.68559
7.02288
6.35919
5.69436
5.02833
4.36105
3.69257
3.02295
2.35232
1.68086
1.00877
0.336301
9.67013
9.01025
8.34993
7.68888
7.02687
6.36369
5.69919
5.03327
4.36589
3.69709
3.02696
2.35564
1.68334
1.01031
0.33682
9.67075
9.01208
8.35289
7.69284
7.03167
6.36911
5.705
5.03922
4.37172
3.70254
3.03179
2.35964
1.68633
1.01216
0.337446
9.67149
9.01427
8.35643
7.6976
7.03742
6.37561
5.71197
5.04636
4.37871
3.70908
3.03759
2.36444
1.68992
1.01438
0.338198
9.67238
9.01689
8.36067
7.70328
7.0443
6.38339
5.72032
5.0549
4.38709
3.71692
3.04454
2.3702
1.69423
1.01704
0.339099
9.67344
9.02002
8.36574
7.71006
7.05251
6.39268
5.73029
5.06512
4.3971
3.72629
3.05285
2.37709
1.69938
1.02023
0.340178
9.67469
9.02374
8.37176
7.71814
7.0623
6.40376
5.74218
5.0773
4.40905
3.73748
3.06278
2.38532
1.70554
1.02404
0.341468
9.67619
9.02817
8.37894
7.72776
7.07395
6.41696
5.75635
5.09184
4.42331
3.75083
3.07464
2.39515
1.7129
1.02859
0.343009
9.67797
9.03343
8.38747
7.7392
7.08783
6.43267
5.77323
5.10915
4.44031
3.76677
3.0888
2.40688
1.72169
1.03403
0.344851
9.68009
9.03969
8.39761
7.7528
7.10432
6.45136
5.79332
5.12978
4.46057
3.78577
3.10569
2.4209
1.73219
1.04054
0.347052
9.68259
9.04711
8.40964
7.76895
7.12391
6.47359
5.81723
5.15435
4.48472
3.80843
3.12585
2.43764
1.74474
1.04831
0.349683
9.68557
9.05591
8.42391
7.78811
7.14718
6.5
5.84567
5.18359
4.5135
3.83546
3.14991
2.45763
1.75973
1.0576
0.35283
9.68909
9.06633
8.44082
7.81083
7.17479
6.53136
5.87948
5.2184
4.54779
3.86771
3.17865
2.48153
1.77767
1.06872
0.356596
9.69325
9.07866
8.46084
7.83775
7.20754
6.5686
5.91967
5.25983
4.58866
3.90619
3.21299
2.51011
1.79914
1.08203
0.361109
9.69817
9.09324
8.48452
7.86961
7.24634
6.61279
5.96742
5.30914
4.63737
3.95213
3.25403
2.54432
1.82486
1.09799
0.366521
9.70398
9.11044
8.51248
7.90729
7.29228
6.66518
6.02413
5.3678
4.69544
4.00698
3.30313
2.58531
1.85571
1.11716
0.373021
9.71082
9.13072
8.54547
7.95178
7.3466
6.72724
6.09146
5.43759
4.76467
4.07254
3.36192
2.63447
1.89277
1.14021
0.380843
9.71886
9.15458
8.58432
8.00424
7.41077
6.80071
6.17134
5.5206
4.84724
4.15092
3.43239
2.69354
1.93738
1.16798
0.390273
9.7283
9.18259
8.62997
8.066
7.48647
6.88758
6.26605
5.61933
4.94574
4.24472
3.51698
2.76461
1.99117
1.20153
0.401672
9.73935
9.2154
8.68351
8.13855
7.5756
6.99016
6.37826
5.7367
5.06328
4.35707
3.61865
2.85032
2.05621
1.24216
0.415494
9.75225
9.25372
8.74613
8.22357
7.68035
7.11111
6.51106
5.87619
5.20359
4.49178
3.74108
2.95393
2.13509
1.29156
0.432317
9.76725
9.29833
8.81915
8.32295
7.80315
7.25344
6.66803
6.04188
5.37112
4.65349
3.88881
3.07956
2.2311
1.35185
0.452884
9.78463
9.35006
8.90397
8.43871
7.9467
7.42056
6.85327
6.23853
5.5712
4.84784
4.0675
3.23239
2.34849
1.42585
0.47817
9.80468
9.40978
9.0021
8.57303
8.11395
7.61623
7.07145
6.4717
5.81016
5.08176
4.28421
3.41908
2.49279
1.51721
0.509472
9.82768
9.47838
9.11506
8.7282
8.30803
7.84458
7.32778
6.74778
6.09553
5.36367
4.54784
3.64824
2.67129
1.63092
0.54855
9.8539
9.5567
9.24437
8.90647
8.53214
8.10995
7.62797
7.074
6.43615
5.70388
4.86963
3.93109
2.89384
1.77377
0.597857
9.88361
9.64553
9.39141
9.11004
8.78948
8.41683
7.97814
7.45845
6.84233
6.11489
5.26383
4.28246
3.1739
1.95539
0.660913
9.91699
9.7455
9.55737
9.3408
9.08296
8.76956
8.38452
7.90985
7.32577
6.61173
5.74849
4.72214
3.53029
2.18975
0.74296
9.95418
9.85701
9.74305
9.6002
9.415
9.17199
8.85313
8.43718
7.89943
7.21214
6.34639
5.27674
3.9899
2.49789
0.852174
9.99518
9.98019
9.94879
9.88899
9.78715
9.62708
9.38913
9.04906
8.57691
7.93643
7.08585
5.98213
4.59198
2.91276
1.0021
10.0399
10.1147
10.1742
10.207
10.1997
10.1362
9.99601
9.75261
9.37125
8.80659
8.00104
6.8864
5.39476
3.48833
1.21697
10.0881
10.2599
10.4182
10.5527
10.6513
10.6986
10.6745
10.5519
10.2928
9.84399
9.13082
8.05244
6.48553
4.31729
1.54473
10.1394
10.4145
10.6787
10.9234
11.1384
11.3104
11.4214
11.4459
11.3461
11.0649
10.5142
9.55765
7.99385
5.56588
2.09254
10.1931
10.5767
10.9526
11.3146
11.6552
11.9646
12.2285
12.4261
12.5252
12.4729
12.1792
11.4845
10.1022
7.54038
3.13459
10.2485
10.7443
11.2361
11.7206
12.1939
12.6502
13.0814
13.4747
13.8094
14.0485
14.1225
13.8888
13.0296
10.7953
5.47064
10.3049
10.9147
11.5246
12.1345
12.7442
13.3532
13.9605
14.5641
15.1598
15.7386
16.2795
16.7273
16.9118
16.1963
11.7071
10.3612
11.0851
11.8131
12.5484
13.2949
14.0572
14.8421
15.6588
16.5218
17.4548
18.5009
19.7486
21.4187
24.2177
31.0856
10.4166
11.2525
12.0965
12.9546
13.8345
14.7456
15.7014
16.7212
17.835
19.0925
20.5821
22.4763
25.1415
29.4132
37.1559
10.4702
11.4143
12.3699
13.3457
14.3522
15.4029
16.5162
17.7183
19.0484
20.5687
22.3822
24.6683
27.7485
32.1979
38.9565
0.665773
1.19295
1.42269
1.50791
1.50907
1.4559
1.36537
1.24813
1.11133
0.960037
0.797972
0.627979
0.452316
0.272847
0.0911875
0.357138
0.817487
1.07585
1.20326
1.24498
1.22833
1.17042
1.08251
0.972386
0.845639
0.706448
0.558042
0.403013
0.243522
0.0814546
0.224838
0.582285
0.819945
0.958118
1.02143
1.02941
0.996289
0.932314
0.844975
0.739874
0.621315
0.492699
0.356805
0.215982
0.0723057
0.156585
0.430262
0.633117
0.764952
0.836275
0.859015
0.843573
0.798331
0.729888
0.643446
0.543158
0.432406
0.314016
0.190422
0.0638049
0.115756
0.327415
0.495601
0.613799
0.684855
0.715126
0.711544
0.680452
0.627293
0.556627
0.472262
0.377412
0.274836
0.166961
0.0559926
0.0887135
0.254755
0.392794
0.495377
0.56175
0.59474
0.59861
0.57789
0.53685
0.479314
0.408642
0.32778
0.239332
0.145645
0.0488859
0.0695765
0.201537
0.314605
0.402096
0.461821
0.494569
0.502746
0.489433
0.457855
0.411118
0.352095
0.283412
0.207464
0.126462
0.0424818
0.0554335
0.161438
0.254173
0.328094
0.380619
0.411458
0.4218
0.413653
0.389383
0.351448
0.302253
0.244085
0.179103
0.109345
0.0367604
0.0446669
0.130551
0.206803
0.268947
0.314474
0.342574
0.35369
0.349066
0.330397
0.299595
0.258638
0.209488
0.154056
0.0941905
0.0316884
0.0362955
0.106352
0.169227
0.221338
0.260426
0.285482
0.296508
0.294227
0.279832
0.254791
0.22071
0.179252
0.132086
0.0808658
0.0272237
0.0296837
0.0871397
0.139125
0.182771
0.216119
0.23813
0.248562
0.247797
0.236658
0.216261
0.187903
0.152978
0.11293
0.0692219
0.0233178
0.0243989
0.0717256
0.114812
0.151353
0.179683
0.198815
0.208391
0.208569
0.19991
0.183258
0.159653
0.13026
0.0963158
0.059102
0.0199197
0.0201353
0.0592555
0.0950423
0.125635
0.149631
0.166135
0.174742
0.175476
0.168709
0.15508
0.135422
0.1107
0.081971
0.0503483
0.0169776
0.0166702
0.0490997
0.0788786
0.104498
0.124781
0.138938
0.146559
0.14759
0.142273
0.131089
0.114704
0.093921
0.0696351
0.0428079
0.0144411
0.0138376
0.0407839
0.0656029
0.087064
0.104185
0.116276
0.122952
0.124111
0.119908
0.110707
0.0970412
0.0795736
0.0590632
0.0363361
0.0122625
0.0115111
0.0339451
0.0546584
0.0726433
0.08708
0.0973744
0.103173
0.104355
0.101014
0.0934248
0.0820168
0.0673383
0.05003
0.030799
0.0103973
0.00959288
0.0283007
0.0456079
0.060686
0.0728507
0.0815938
0.0865986
0.087739
0.0850672
0.0787935
0.0692626
0.0569286
0.0423314
0.0260745
0.00880496
0.00800644
0.0236288
0.0381048
0.0507513
0.0609966
0.0684083
0.072707
0.0737694
0.0716213
0.0664234
0.0584542
0.0480899
0.035785
0.022053
0.00744883
0.0066911
0.0197527
0.0318718
0.0424834
0.0511097
0.0573838
0.0610619
0.0620286
0.0602924
0.0559771
0.0493084
0.0405982
0.0302291
0.0186371
0.00629637
0.00559836
0.0165307
0.0266854
0.0355936
0.0428559
0.0481613
0.0512992
0.052164
0.0507539
0.0471646
0.0415796
0.0342583
0.025522
0.0157408
0.00531888
0.00468912
0.0138487
0.0223644
0.0298463
0.0359604
0.0404435
0.0431145
0.0438787
0.0427281
0.0397373
0.0350562
0.0289005
0.0215404
0.0132893
0.00449122
0.0039317
0.0116136
0.0187609
0.0250487
0.0301971
0.0339838
0.0362535
0.0369226
0.0359797
0.0334834
0.0295566
0.0243788
0.0181773
0.0112175
0.00379155
0.00330024
0.00974973
0.0157541
0.0210421
0.025379
0.0285771
0.0305037
0.0310854
0.0303097
0.0282226
0.0249253
0.0205676
0.0153407
0.00946914
0.00320098
0.0027736
0.00819484
0.0132446
0.0176959
0.0213515
0.0240531
0.0256874
0.0261907
0.0255499
0.0238019
0.0210301
0.0173597
0.0129518
0.0079961
0.0027033
0.00233441
0.00689786
0.0111504
0.0149019
0.0179864
0.0202699
0.0216562
0.0220901
0.0215588
0.020092
0.0177586
0.0146637
0.010943
0.00675708
0.00228461
0.00196836
0.00581669
0.00940417
0.0125709
0.0151772
0.0171096
0.0182862
0.0186594
0.0182173
0.0169836
0.0150159
0.0124022
0.00925726
0.00571697
0.00193308
0.00166365
0.0049166
0.00794998
0.0106291
0.0128357
0.014474
0.015474
0.0157947
0.0154252
0.0143848
0.0127215
0.0105096
0.00784592
0.00484596
0.00163867
0.00141058
0.00416892
0.00674176
0.0090151
0.0108889
0.0122816
0.0131334
0.0134091
0.0130988
0.0122183
0.010808
0.00893045
0.00666804
0.00411888
0.00139288
0.00120111
0.00355002
0.00574144
0.00767851
0.00927607
0.0104645
0.0111927
0.0114302
0.0111682
0.0104197
0.00921872
0.00761853
0.00568921
0.00351457