/*--------------------------------*- C++ -*----------------------------------*\
| =========                 |                                                 |
| \\      /  F ield         | OpenFOAM: The Open Source CFD Toolbox           |
|  \\    /   O peration     | Version:  5.x                                   |
|   \\  /    A nd           | Web:      www.OpenFOAM.org                      |
|    \\/     M anipulation  |                                                 |
\*---------------------------------------------------------------------------*/
FoamFile
{
    version     2.0;
    format      ascii;
    class       volScalarField;
    location    "1.6";
    object      T;
}
// * * * * * * * * * * * * * * * * * * * * * * * * * * * * * * * * * * * * * //

dimensions      [0 0 0 1 0 0 0];

internalField   nonuniform List<scalar> 
6300
(
12.2712
16.8216
21.3954
26.0073
30.6707
35.397
40.1948
45.0692
50.0207
55.0449
60.1311
65.262
70.4137
75.5557
80.6521
12.2632
16.7977
21.3565
25.9547
30.6065
35.3238
40.1162
44.9896
49.9454
54.9799
60.0829
65.2374
70.4191
75.5968
80.7328
12.2469
16.7492
21.2773
25.8476
30.4753
35.174
39.9547
44.8252
49.7887
54.8432
59.9798
65.1818
70.4245
75.6748
80.8922
12.2217
16.6746
21.1553
25.682
30.2717
34.9403
39.7014
44.5653
49.5385
54.6215
59.8077
65.0817
70.4181
75.7812
81.1254
12.1871
16.5716
20.9866
25.4522
29.988
34.6126
39.3431
44.194
49.1758
54.2936
59.5446
64.9156
70.3811
75.9018
81.4251
12.1422
16.4376
20.7665
25.1512
29.6142
34.1775
38.8626
43.6893
48.6745
53.8296
59.1581
64.6512
70.2847
76.0152
81.7802
12.0859
16.2697
20.4899
24.7711
29.1387
33.619
38.2386
43.0241
48.0007
53.1895
58.6037
64.243
70.0873
76.0898
82.1742
12.0175
16.0652
20.1516
24.3035
28.5494
32.9196
37.4467
42.1657
47.1123
52.3212
57.8209
63.6264
69.7278
76.0781
82.5833
11.9361
15.8215
19.7471
23.7411
27.8346
32.0617
36.4614
41.0775
45.9592
51.1593
56.7294
62.7103
69.1156
75.9072
82.9709
11.8414
15.5373
19.2734
23.0785
26.9849
31.0299
35.2578
39.7217
44.4856
49.6249
55.224
61.3667
68.1135
75.46
83.2782
11.7334
15.2127
18.7301
22.3137
25.9956
29.814
33.8167
38.0641
42.6344
47.6282
53.1722
59.4157
66.5083
74.537
83.4007
11.6128
14.8495
18.1201
21.45
24.8686
28.4126
32.1293
36.0819
40.3577
45.0791
50.4183
56.6127
63.9637
72.7752
83.1278
11.4811
14.4521
17.4505
20.4967
23.6153
26.8374
30.2046
33.7749
37.6336
41.9098
46.8069
52.6503
59.9555
69.469
81.9453
11.3404
14.0271
16.7324
19.4703
22.2576
25.1161
28.0754
31.1782
34.4902
38.1179
42.2469
47.2236
53.7363
63.1965
78.292
11.1936
13.5834
15.9814
18.3939
20.828
23.293
25.8014
28.3711
31.0295
33.8228
36.8374
40.2588
44.5671
51.2858
66.2847
85.2451
89.3341
93.3118
97.1544
100.839
104.346
107.656
110.754
113.627
116.265
118.66
120.807
122.704
124.348
125.74
126.882
127.778
128.433
128.851
129.04
129.009
128.765
128.32
127.683
126.867
125.884
124.746
123.468
122.062
120.542
118.923
117.217
115.437
113.595
111.703
109.771
107.809
105.826
103.828
101.823
99.8168
97.8134
95.8175
93.8323
91.8607
89.9049
87.9664
86.0462
84.1447
82.2622
80.3981
78.5518
76.7224
74.9085
73.1089
71.3222
69.5468
67.7812
66.0241
64.2739
62.5294
60.7893
59.0524
57.3178
55.5844
53.8517
52.1189
50.3859
48.6525
46.919
45.1861
43.4549
41.7267
40.0035
38.2874
36.5811
34.8876
33.2101
31.5521
29.9171
28.309
26.7315
25.1883
23.683
22.2188
20.7989
19.4257
18.1014
16.8275
15.6048
85.3643
89.4884
93.5003
97.375
101.089
104.621
107.953
111.069
113.956
116.605
119.007
121.159
123.057
124.7
126.089
127.226
128.115
128.76
129.168
129.346
129.301
129.043
128.582
127.929
127.095
126.093
124.936
123.638
122.212
120.673
119.035
117.31
115.513
113.655
111.748
109.803
107.829
105.835
103.829
101.816
99.8024
97.7935
95.7929
93.8042
91.83
89.8723
87.9328
86.0122
84.1111
82.2294
80.3667
78.5222
76.6948
74.8832
73.086
71.3017
69.5287
67.7656
66.0107
64.2626
62.5202
60.7819
59.0468
57.3136
55.5815
53.8497
52.1176
50.3847
48.6511
46.9168
45.1826
43.4493
41.7186
39.9922
38.2724
36.562
34.8639
33.1814
31.5182
29.8779
28.2645
26.6817
25.1334
23.6233
22.1548
20.7312
19.355
18.0286
16.7535
15.5305
85.6024
89.7985
93.8802
97.8204
101.594
105.178
108.554
111.706
114.621
117.291
119.707
121.867
123.767
125.408
126.79
127.916
128.791
129.419
129.806
129.96
129.889
129.601
129.109
128.422
127.552
126.512
125.317
123.979
122.514
120.935
119.258
117.496
115.664
113.774
111.837
109.865
107.867
105.852
103.827
101.799
99.7721
97.7521
95.7426
93.7469
91.7674
89.8061
87.8645
85.9434
84.043
82.1632
80.3034
78.4625
76.6394
74.8325
73.0402
71.2609
69.4928
67.7344
65.9841
64.2404
62.502
60.7675
59.0358
57.3057
55.5762
53.8464
52.1156
50.3832
48.649
46.9132
45.1763
43.4391
41.7032
39.9705
38.2432
36.5243
34.8168
33.1244
31.4506
29.7996
28.1752
26.5817
25.0231
23.5032
22.026
20.5948
19.2125
17.8817
16.6041
15.3806
85.9588
90.2674
94.4578
98.4994
102.364
106.028
109.47
112.676
115.632
118.332
120.768
122.938
124.841
126.477
127.848
128.958
129.81
130.411
130.767
130.885
130.774
130.443
129.902
129.164
128.24
127.143
125.889
124.491
122.964
121.326
119.59
117.772
115.887
113.947
111.965
109.953
107.919
105.873
103.821
101.769
99.7226
97.6864
95.6637
93.6576
91.6704
89.704
87.7596
85.8379
83.9389
82.0623
80.2071
78.3721
76.5557
74.756
72.9714
71.1997
69.4392
67.6881
65.9447
64.2076
62.4754
60.7466
59.0202
57.2948
55.5693
53.8427
52.1141
50.3826
48.648
46.91
45.169
43.426
41.6823
39.9398
38.2012
36.4693
34.7475
33.0397
31.3499
29.6822
28.0412
26.4311
24.8564
23.3215
21.8306
20.3875
18.9957
17.6579
16.3764
15.1522
86.433
90.9006
95.2439
99.4267
103.417
107.188
110.719
113.995
117.005
119.742
122.202
124.384
126.289
127.917
129.272
130.359
131.181
131.745
132.059
132.128
131.963
131.573
130.968
130.161
129.163
127.989
126.654
125.174
123.564
121.843
120.027
118.132
116.175
114.168
112.126
110.06
107.979
105.891
103.803
101.721
99.6494
97.592
95.5523
93.5328
91.5357
89.5628
87.6151
85.693
83.7963
81.9245
80.0762
78.2496
76.4428
74.6536
72.8795
71.1185
69.3683
67.6271
65.8932
64.1649
62.4409
60.7199
59.0007
57.2818
55.5621
53.8402
52.1149
50.3852
48.6503
46.9097
45.1637
43.4128
41.6585
39.9029
38.1486
36.3989
34.6575
32.9286
31.2166
29.5261
27.862
26.229
24.6321
23.0762
21.566
20.1061
18.7006
17.353
16.0659
14.8407
87.0245
91.7069
96.2551
100.625
104.778
108.687
112.329
115.69
118.763
121.543
124.028
126.221
128.124
129.74
131.073
132.128
132.912
133.429
133.689
133.697
133.464
132.999
132.313
131.418
130.327
129.054
127.616
126.029
124.312
122.485
120.565
118.571
116.521
114.429
112.311
110.177
108.036
105.898
103.767
101.648
99.5461
97.4634
95.403
93.3674
91.3586
89.378
87.4266
85.5047
83.6119
81.7471
79.9084
78.0936
76.3
74.5247
72.7649
71.0178
69.281
67.5525
65.8303
64.1131
62.3996
60.6884
58.9783
57.2681
55.5561
53.8408
52.1206
50.3939
48.6594
46.9162
45.1641
43.4035
41.6358
39.8632
38.0886
36.3158
34.5489
32.7925
31.0518
29.3317
27.6375
25.9746
24.3485
22.7646
21.2286
19.746
18.3219
16.9609
15.6662
14.4397
87.7335
92.7009
97.5175
102.127
106.486
110.562
114.335
117.793
120.934
123.758
126.267
128.467
130.362
131.959
133.262
134.278
135.013
135.474
135.667
135.602
135.286
134.731
133.946
132.944
131.738
130.343
128.777
127.058
125.207
123.246
121.196
119.078
116.913
114.717
112.506
110.291
108.081
105.883
103.703
101.542
99.4051
97.2934
95.2094
93.1553
91.1329
89.1438
87.1888
85.2682
83.3812
81.5263
79.701
77.9021
76.1261
74.3693
72.6279
70.8985
69.1784
67.4653
65.7574
64.0534
62.3522
60.6529
58.9542
57.2548
55.5531
53.8469
52.1342
50.4125
48.6797
46.9344
45.1756
43.4035
41.6193
39.8255
38.0255
36.2234
34.4244
32.6336
30.8567
29.0994
27.3676
25.6669
24.0036
22.3838
20.8142
19.3014
17.8523
16.4729
15.1679
13.94
88.5619
93.9063
99.0718
103.985
108.594
112.866
116.785
120.346
123.554
126.416
128.941
131.14
133.02
134.589
135.854
136.822
137.498
137.89
138.005
137.853
137.441
136.779
135.878
134.75
133.407
131.866
130.144
128.263
126.247
124.12
121.91
119.641
117.336
115.015
112.694
110.385
108.096
105.833
103.598
101.393
99.2176
97.0743
94.9642
92.8892
90.8515
88.8529
86.8946
84.9767
83.0983
81.2573
79.4502
77.6728
75.9202
74.1874
72.4695
70.7623
69.0625
67.3676
65.6761
63.987
62.2999
60.6142
58.929
57.2432
55.5547
53.8611
52.1592
50.4456
48.7171
46.9709
45.2053
43.4199
41.616
39.7961
37.9645
36.1263
34.2874
32.4541
30.6329
28.8302
27.0522
25.3053
23.5958
21.9306
20.3175
18.7649
17.282
15.8775
14.5586
13.3291
89.5156
95.3641
100.983
106.276
111.182
115.672
119.742
123.4
126.663
129.549
132.078
134.262
136.116
137.647
138.864
139.773
140.38
140.692
140.717
140.463
139.94
139.157
138.124
136.85
135.348
133.633
131.725
129.648
127.43
125.101
122.695
120.241
117.768
115.299
112.851
110.437
108.063
105.731
103.44
101.188
98.9746
96.7979
94.6593
92.5611
90.5061
88.4967
86.5352
84.6219
82.7557
80.9337
79.1514
77.4029
75.6814
73.98
72.292
70.6121
68.9362
67.262
65.5885
63.9154
62.2433
60.5725
58.903
57.2336
55.5622
53.8857
52.1996
50.4991
48.7789
47.0344
45.2626
43.4623
41.6347
39.7831
37.9125
36.0296
34.1418
32.2568
30.3822
28.525
26.6919
24.8893
23.1238
21.4023
19.7333
18.1279
16.5985
15.1588
13.8202
12.5892
90.6101
97.147
103.358
109.116
114.36
119.077
123.285
127.016
130.306
133.19
135.698
137.852
139.664
141.147
142.306
143.146
143.673
143.894
143.816
143.448
142.801
141.882
140.701
139.264
137.58
135.663
133.534
131.221
128.757
126.18
123.533
120.855
118.18
115.538
112.948
110.419
107.957
105.558
103.215
100.92
98.6682
96.4572
94.2877
92.1629
90.087
88.0647
86.0996
84.1931
82.3438
80.5479
78.7991
77.0895
75.4096
73.7494
72.0994
70.4527
68.8045
67.1529
65.4976
63.8402
62.1827
60.5273
58.875
57.2253
55.5759
53.9227
52.2598
50.5799
48.8747
47.1364
45.36
43.5433
41.6876
39.7968
37.8778
35.9395
33.9918
32.0443
30.106
28.1847
26.2873
24.4199
22.5882
20.7979
19.0577
17.381
15.786
14.2942
12.9267
11.6949
91.8846
99.3936
106.381
112.691
118.29
123.209
127.508
131.257
134.523
137.364
139.821
141.921
143.679
145.102
146.195
146.958
147.396
147.513
147.318
146.822
146.036
144.971
143.631
142.018
140.131
137.983
135.593
132.996
130.23
127.347
124.401
121.448
118.533
115.691
112.942
110.295
107.748
105.292
102.909
100.579
98.2938
96.0477
93.8436
91.6862
89.5837
87.5436
85.5736
83.6761
81.8499
80.0892
78.3859
76.729
75.1057
73.5004
71.899
70.2924
68.6752
67.0465
65.4077
63.763
62.1171
60.4759
58.8417
57.2153
55.5937
53.9724
52.3434
50.6964
49.0172
47.2926
45.5148
43.6801
41.7903
39.8505
37.8706
35.8625
33.8411
31.8183
29.8052
27.8096
25.8392
23.899
21.9928
20.1214
18.2902
16.5165
14.8247
13.2505
11.8377
10.6077
93.4475
102.386
110.374
117.282
123.192
128.225
132.518
136.186
139.344
142.083
144.449
146.474
148.163
149.522
150.545
151.228
151.568
151.568
151.24
150.597
149.66
148.438
146.941
145.148
143.042
140.633
137.936
134.997
131.856
128.589
125.263
121.971
118.766
115.696
112.774
110.012
107.396
104.911
102.514
100.165
97.8524
95.5683
93.3235
91.1223
88.9829
86.9147
84.9368
83.0506
81.2564
79.5428
77.9015
76.3163
74.7721
73.2426
71.7031
70.1445
68.5597
66.9526
65.3241
63.6856
62.0434
60.4126
58.7961
57.1972
55.6101
54.0323
52.4522
50.8584
49.2245
47.5249
45.7511
43.8956
41.9648
39.9616
37.9038
35.8045
33.692
31.5781
29.4789
27.3979
25.3477
23.3289
21.3473
19.3868
17.4397
15.5341
13.6937
11.9744
10.4852
9.26679
95.6436
106.743
115.916
123.306
129.352
134.298
138.42
141.843
144.761
147.329
149.56
151.498
153.112
154.416
155.372
155.979
156.215
156.081
155.6
154.781
153.677
152.287
150.659
148.715
146.372
143.681
140.61
137.271
133.646
129.902
126.058
122.353
118.788
115.475
112.362
109.504
106.842
104.391
102.04
99.6876
97.36
95.0233
92.732
90.4618
88.2725
86.1493
84.1621
82.2874
80.5419
78.8879
77.3323
75.8407
74.4142
72.996
71.5318
70.032
68.4742
66.8873
65.2534
63.6117
61.9517
60.3278
58.7237
57.1611
55.6124
54.0947
52.5801
51.0776
49.5259
47.8637
46.1046
44.2192
42.2432
40.1512
37.9963
35.7653
33.5449
31.3164
29.1264
26.9419
24.8109
22.7052
20.6711
18.6328
16.5294
14.4577
12.3884
10.3671
8.74249
7.57009
99.7844
113.869
124.019
131.262
137.089
141.551
145.32
148.218
150.675
153.053
155.082
156.98
158.498
159.8
160.69
161.252
161.382
161.077
160.434
159.36
158.09
156.461
154.813
152.837
150.184
147.258
143.654
139.937
135.589
131.34
126.636
122.516
118.434
114.948
111.568
108.703
105.973
103.712
101.557
99.1637
96.8707
94.4036
92.1019
89.6771
87.4603
85.1818
83.2198
81.3329
79.6915
78.0872
76.6673
75.2681
74.0415
72.8131
71.4092
70.001
68.4288
66.8879
65.1925
63.563
61.8069
60.2135
58.5909
57.1044
55.5693
54.1521
52.6902
51.3673
49.9861
48.3418
46.6396
44.6731
42.6888
40.431
38.1984
35.7106
33.4096
30.9992
28.7658
26.409
24.2375
21.9782
20.0011
17.9725
15.5735
13.3779
11.0138
8.18855
6.34857
5.33965
111.774
126.658
136.301
141.25
146.784
149.797
153.467
155.22
156.697
159.268
160.785
162.998
164.185
165.767
166.468
167.131
167.164
166.542
165.872
164.203
163.002
160.646
159.42
157.916
154.37
151.791
146.839
143.494
137.368
133.417
126.357
122.605
117.205
114.253
110.019
107.692
104.414
102.869
101.408
98.4839
96.6222
93.5366
91.641
88.5853
86.7306
83.7526
82.1645
80.0205
78.7837
77.0172
75.9695
74.444
73.6688
72.8806
71.2906
70.2043
68.3367
67.1094
65.0357
63.6953
61.4272
60.1405
58.2614
57.1171
55.356
54.2737
52.5999
51.7408
50.8249
48.9034
47.555
45.1526
43.528
40.6746
38.7682
35.3871
33.4319
30.4271
28.5831
25.6093
23.7904
20.845
19.4054
17.8455
14.3245
12.5408
10.3031
4.59123
2.75789
2.26142
14.3164
12.9842
11.7232
10.5301
9.40065
8.32991
7.31246
6.34255
5.41433
4.52192
3.65951
2.82141
2.00203
1.19594
0.397767
14.2429
12.9129
11.6552
10.4663
9.3418
8.27652
7.26481
6.30078
5.37845
4.49187
3.63517
2.80264
1.98873
1.18799
0.395127
14.0946
12.769
11.5181
10.338
9.22363
8.16945
7.16939
6.21724
5.30676
4.43186
3.5866
2.76523
1.96221
1.17217
0.389868
13.8688
12.5503
11.3102
10.1437
9.04517
8.00816
7.02598
6.09193
5.19944
4.34217
3.51409
2.70943
1.92269
1.1486
0.382036
13.5612
12.2531
11.0284
9.88141
8.80508
7.79192
6.83435
5.92499
5.05682
4.22324
3.41811
2.63566
1.87051
1.1175
0.371703
13.1658
11.8722
10.6689
9.54832
8.50169
7.51998
6.59442
5.71679
4.87954
4.07581
3.29939
2.54459
1.80615
1.07917
0.358975
12.6742
11.4007
10.2265
9.14115
8.13328
7.19182
6.30649
5.46814
4.66867
3.90104
3.15902
2.43711
1.73031
1.03405
0.343997
12.0751
10.8299
9.69521
8.65637
7.69837
6.80742
5.97152
5.18052
4.42592
3.70059
2.99851
2.31448
1.64392
0.982695
0.326961
11.3531
10.1483
9.06798
8.09066
7.19631
6.36789
5.59158
4.85645
4.15384
3.47686
2.81991
2.17835
1.54817
0.925842
0.308109
10.4871
9.34216
8.33766
7.44189
6.62824
5.87616
5.17041
4.4998
3.85608
3.23304
2.6259
2.03081
1.44456
0.864381
0.287738
9.44852
8.39547
7.49853
6.71092
5.99852
5.33805
4.71404
4.11621
3.53759
2.9733
2.41981
1.8744
1.33488
0.799367
0.266199
8.19831
7.29258
6.54999
5.90467
5.3168
4.76342
4.23145
3.71337
3.20472
2.70273
2.20562
1.71209
1.22116
0.732002
0.243887
6.68813
6.02649
5.50413
5.04092
4.60053
4.16732
3.73493
3.30106
2.86513
2.42727
1.98781
1.54715
1.10565
0.663592
0.22123
4.87742
4.62105
4.39908
4.1543
3.87703
3.57035
3.23985
2.89078
2.52747
2.15336
1.77118
1.38304
0.990674
0.59548
0.198669
2.81882
3.18116
3.3168
3.30014
3.18289
2.99718
2.76331
2.49469
2.20056
1.88752
1.56048
1.22316
0.878516
0.52898
0.176632
11.0565
13.1688
15.2795
17.3867
19.4885
21.5813
23.6599
25.7154
27.7322
29.6816
31.5042
33.0599
33.9507
32.7754
23.5351
10.9322
12.7931
14.6434
16.4747
18.2765
20.0346
21.7286
23.3273
24.7808
26.004
26.8401
26.9762
25.7331
21.5476
10.9421
10.8102
12.4245
14.0202
15.5828
17.0946
18.5321
19.8628
21.0393
21.9887
22.5946
22.6614
21.8494
19.558
14.7774
6.1812
10.6924
12.0688
13.4198
14.726
15.9638
17.1032
18.1037
18.9083
19.4346
19.5587
19.0925
17.7492
15.1111
10.6564
4.03555
10.5802
11.7307
12.8504
13.9163
14.9011
15.7704
16.4801
16.9703
17.1591
16.9324
16.1321
14.5477
11.9254
8.03936
2.8969
10.475
11.4139
12.3183
13.1629
13.9181
14.5483
15.0085
15.2413
15.1719
14.7038
13.7159
12.0665
9.61694
6.2946
2.21048
10.3776
11.1208
11.8275
12.4713
13.0219
13.4439
13.6946
13.7217
13.4611
12.8359
11.7587
10.1405
7.91435
5.07869
1.75793
10.2884
10.853
11.3805
11.8442
12.2147
12.4582
12.5358
12.4016
12.0031
11.2816
10.1769
8.63654
6.63482
4.19952
1.44083
10.2076
10.6109
10.9775
11.2817
11.4954
11.5877
11.5237
11.2648
10.7692
9.99332
8.89726
7.45276
5.65624
3.54481
1.20908
10.1352
10.3941
10.6179
10.782
10.8604
10.8254
10.6467
10.2923
9.72959
8.92714
7.85944
6.51326
4.89621
3.04579
1.03453
10.0709
10.2017
10.2995
10.3415
10.3042
10.1627
9.89148
9.46441
8.85629
8.04497
7.01487
5.76172
4.29813
2.65838
0.900122
10.0141
10.0323
10.0198
9.95615
9.82006
9.59001
9.24436
8.76207
8.12395
7.31459
6.32504
5.15622
3.82229
2.35322
0.794846
9.9644
9.88394
9.77568
9.62098
9.40111
9.09749
8.69201
8.16782
7.51041
6.70921
5.75961
4.66528
3.44024
2.11004
0.711299
9.92108
9.75491
9.56374
9.33098
9.04024
8.67559
8.22199
7.66598
6.99662
6.20677
5.2946
4.26505
3.13114
1.91443
0.644305
9.88355
9.64322
9.38064
9.08119
8.73063
8.31539
7.82301
7.24276
6.5664
5.78921
4.91101
3.93721
2.87948
1.75589
0.590136
9.85117
9.54694
9.2231
8.86684
8.46587
8.00869
7.48499
6.88619
6.20612
5.44171
4.59376
3.66761
2.67353
1.62659
0.546043
9.82335
9.46428
9.08804
8.6835
8.24011
7.74812
7.19904
6.58601
5.90436
5.15216
4.33075
3.44515
2.50424
1.52061
0.509956
9.79951
9.39352
8.97259
8.52711
8.04804
7.52716
6.95745
6.33342
5.65153
4.91063
4.11228
3.26105
2.36459
1.43339
0.480289
9.77916
9.33313
8.87418
8.39402
7.88496
7.34007
6.75354
6.12096
5.43965
4.70894
3.93048
3.10834
2.24905
1.36135
0.455811
9.76182
9.28171
8.79046
8.28099
7.74673
7.18186
6.58158
5.94231
5.26202
4.54038
3.77898
2.98141
2.15321
1.30169
0.435554
9.74708
9.23801
8.71939
8.18515
7.62972
7.04822
6.43664
5.79212
5.11308
4.3994
3.65257
2.87572
2.07355
1.25216
0.418748
9.73457
9.20094
8.65915
8.10401
7.5308
6.93543
6.31457
5.66589
4.98816
4.28141
3.54699
2.78761
2.00723
1.21096
0.404777
9.72397
9.16955
8.60815
8.03539
7.44726
6.84031
6.2118
5.5598
4.88337
4.18261
3.45873
2.71405
1.95194
1.17664
0.393144
9.715
9.14299
8.56505
7.97744
7.37677
6.76016
6.12531
5.47066
4.79545
4.09984
3.3849
2.6526
1.90578
1.14802
0.383443
9.70742
9.12056
8.52865
7.92853
7.31735
6.69266
6.05256
5.39577
4.72169
4.03049
3.3231
2.60122
1.86723
1.12412
0.375347
9.70102
9.10163
8.49795
7.8873
7.26729
6.63585
5.9914
5.33287
4.65981
3.97237
3.27136
2.55823
1.83499
1.10415
0.368583
9.69563
9.08567
8.47207
7.85257
7.22515
6.58806
5.93999
5.28006
4.6079
3.92365
3.22803
2.52226
1.80803
1.08745
0.362929
9.69109
9.07222
8.45028
7.82335
7.1897
6.5479
5.89682
5.23574
4.56436
3.88283
3.19175
2.49216
1.78548
1.07349
0.358202
9.68727
9.06092
8.43196
7.79878
7.15992
6.51417
5.86058
5.19856
4.52787
3.84863
3.16137
2.46696
1.76662
1.06181
0.354249
9.68405
9.05142
8.41657
7.77815
7.13492
6.48587
5.8302
5.16741
4.4973
3.82
3.13595
2.44589
1.75084
1.05205
0.350945
9.68136
9.04345
8.40367
7.76085
7.11397
6.46215
5.80474
5.14132
4.47172
3.79606
3.1147
2.42828
1.73766
1.0439
0.348186
9.6791
9.03678
8.39286
7.74637
7.09644
6.44232
5.78347
5.11952
4.45035
3.77606
3.09695
2.41358
1.72666
1.03709
0.345884
9.67722
9.03121
8.38384
7.73429
7.08181
6.42577
5.76572
5.10135
4.43254
3.75939
3.08217
2.40134
1.71751
1.03143
0.343967
9.67565
9.02657
8.37634
7.72424
7.06964
6.41202
5.75097
5.08624
4.41775
3.74555
3.0699
2.39118
1.70991
1.02673
0.342376
9.67436
9.02273
8.37013
7.71592
7.05957
6.40064
5.73877
5.07375
4.40551
3.73411
3.05976
2.38278
1.70363
1.02285
0.341063
9.67329
9.01958
8.36502
7.70909
7.05131
6.39129
5.72875
5.0635
4.39547
3.72473
3.05144
2.37589
1.69847
1.01966
0.339985
9.67242
9.01702
8.36088
7.70353
7.04459
6.3837
5.72061
5.05517
4.38732
3.7171
3.04468
2.3703
1.69429
1.01708
0.33911
9.67173
9.01497
8.35756
7.69909
7.03921
6.37763
5.7141
5.04851
4.3808
3.71101
3.03928
2.36583
1.69095
1.01501
0.338412
9.67119
9.01337
8.35497
7.69563
7.03503
6.3729
5.70904
5.04333
4.37572
3.70627
3.03508
2.36235
1.68835
1.0134
0.337868
9.67079
9.01218
8.35304
7.69305
7.0319
6.36936
5.70525
5.03945
4.37193
3.70272
3.03194
2.35975
1.68641
1.0122
0.337461
9.67051
9.01136
8.35171
7.69126
7.02974
6.36692
5.70264
5.03678
4.36931
3.70028
3.02977
2.35796
1.68507
1.01137
0.337181
9.67035
9.01088
8.35093
7.69022
7.02848
6.3655
5.70111
5.03522
4.36779
3.69885
3.0285
2.35691
1.68429
1.01089
0.337017
9.67029
9.01072
8.35069
7.68989
7.02808
6.36505
5.70063
5.03473
4.36731
3.6984
3.0281
2.35658
1.68404
1.01074
0.336965
9.67035
9.0109
8.35097
7.69027
7.02854
6.36556
5.70118
5.03529
4.36785
3.69891
3.02856
2.35696
1.68432
1.01091
0.337024
9.67052
9.0114
8.35178
7.69136
7.02986
6.36705
5.70277
5.03692
4.36945
3.7004
3.02988
2.35805
1.68514
1.01142
0.337195
9.67081
9.01225
8.35315
7.69319
7.03208
6.36956
5.70546
5.03967
4.37214
3.70292
3.03211
2.35989
1.68651
1.01227
0.337483
9.67122
9.01347
8.35513
7.69583
7.03527
6.37317
5.70933
5.04362
4.37601
3.70653
3.03531
2.36254
1.68849
1.01349
0.337897
9.67177
9.01509
8.35776
7.69936
7.03953
6.37798
5.71448
5.0489
4.38117
3.71135
3.03958
2.36608
1.69114
1.01513
0.33845
9.67248
9.01718
8.36113
7.70387
7.04499
6.38415
5.72109
5.05565
4.38779
3.71754
3.04506
2.37061
1.69453
1.01722
0.339158
9.67336
9.01978
8.36534
7.70951
7.05181
6.39185
5.72935
5.0641
4.39605
3.72526
3.05191
2.37628
1.69876
1.01984
0.340044
9.67444
9.02298
8.37052
7.71644
7.0602
6.40133
5.7395
5.07449
4.40623
3.73477
3.06033
2.38325
1.70397
1.02306
0.341135
9.67575
9.02687
8.37682
7.72487
7.0704
6.41287
5.75186
5.08714
4.41861
3.74635
3.07059
2.39174
1.71032
1.02699
0.342463
9.67734
9.03157
8.38443
7.73507
7.08273
6.4268
5.7668
5.10243
4.43358
3.76035
3.083
2.40202
1.71801
1.03174
0.34407
9.67926
9.03722
8.39358
7.74732
7.09756
6.44357
5.78478
5.12083
4.4516
3.7772
3.09794
2.41438
1.72726
1.03746
0.346005
9.68154
9.04399
8.40454
7.762
7.11534
6.46366
5.80632
5.14289
4.47322
3.79742
3.11587
2.42923
1.73836
1.04432
0.348329
9.68428
9.05208
8.41764
7.77955
7.13658
6.48769
5.8321
5.16929
4.49909
3.82162
3.13734
2.44701
1.75166
1.05255
0.351112
9.68754
9.06173
8.43326
7.80049
7.16193
6.51638
5.86287
5.20082
4.52999
3.85054
3.163
2.46827
1.76757
1.06239
0.354443
9.69143
9.07322
8.45187
7.82543
7.19215
6.55057
5.89957
5.23844
4.56689
3.88508
3.19366
2.49368
1.78658
1.07415
0.358424
9.69605
9.08689
8.47402
7.85512
7.22813
6.5913
5.94331
5.28329
4.61089
3.9263
3.23026
2.52402
1.80929
1.08821
0.363181
9.70154
9.10314
8.50035
7.89043
7.27093
6.63978
5.9954
5.33673
4.66335
3.97547
3.27394
2.56024
1.83642
1.105
0.368865
9.70806
9.12243
8.53162
7.93238
7.32181
6.69745
6.05739
5.40038
4.72588
4.0341
3.32606
2.60349
1.86882
1.12506
0.375657
9.7158
9.14533
8.56874
7.9822
7.38227
6.76601
6.13115
5.47617
4.80038
4.10403
3.38826
2.65513
1.90753
1.14903
0.383775
9.72497
9.17247
8.61276
8.04131
7.45405
6.84749
6.21888
5.56639
4.88917
4.18743
3.46251
2.71682
1.95379
1.1777
0.393484
9.73583
9.20462
8.66492
8.1114
7.53923
6.94425
6.32318
5.67378
4.99496
4.28691
3.55117
2.79055
2.00913
1.212
0.405105
9.74867
9.24265
8.72666
8.19443
7.64023
7.05912
6.44715
5.80158
5.12102
4.40562
3.65708
2.87873
2.07536
1.25308
0.419026
9.76385
9.28761
8.79969
8.2927
7.7599
7.1954
6.59444
5.95366
5.27128
4.54731
3.78369
2.98426
2.1547
1.30233
0.435723
9.78176
9.34067
8.88593
8.40889
7.90157
7.35697
6.76936
6.1346
5.45038
4.71653
3.93515
3.1107
2.24988
1.36146
0.455777
9.80285
9.40321
8.98766
8.54609
8.06911
7.54839
6.97701
6.34985
5.66393
4.91873
4.11651
3.26236
2.36422
1.43256
0.479906
9.82766
9.47677
9.10744
8.70786
8.267
7.77495
7.22337
6.60589
5.9186
5.16051
4.33389
3.44456
2.50182
1.51824
0.508999
9.85676
9.56314
9.24822
8.89828
8.5004
8.04283
7.51546
6.91037
6.22241
5.44983
4.59481
3.66382
2.66777
1.62173
0.544167
9.89083
9.66429
9.41328
9.12196
8.77522
8.35914
7.86148
7.27235
6.58494
5.79638
4.90843
3.92822
2.86842
1.74709
0.58681
9.93058
9.78241
9.60632
9.38409
9.09816
8.73206
8.27097
7.70251
7.01768
6.21188
5.2861
4.24785
3.11176
1.89948
0.638712
9.97682
9.9199
9.83138
9.69042
9.47673
9.17088
8.75496
8.21344
7.53435
6.71064
5.74182
4.63539
3.40799
2.08553
0.702172
10.0304
10.0793
10.0928
10.0472
9.91925
9.68607
9.3261
8.81984
8.15137
7.31011
6.29302
5.1069
3.77019
2.31384
0.780198
10.0922
10.2634
10.3952
10.4612
10.4347
10.2893
9.99873
9.5388
8.88831
8.0316
6.96155
5.6829
4.21543
2.59579
0.876794
10.163
10.4747
10.7432
10.9393
11.0328
10.9931
10.7889
10.39
9.76834
8.90115
7.77485
6.38997
4.76629
2.9467
0.997405
10.2438
10.716
11.1416
11.4886
11.7234
11.8109
11.7142
11.3958
10.8188
9.95052
8.76762
7.26277
5.45314
3.38763
1.14961
10.3353
10.9895
11.5945
12.1156
12.5162
12.7565
12.7935
12.581
12.0712
11.2183
9.98383
8.34713
6.31758
3.94833
1.34429
10.438
11.2973
12.1055
12.8262
13.4201
13.8432
14.0458
13.9724
13.5619
12.7508
11.4792
9.70418
7.41783
4.672
1.59766
10.5525
11.6405
12.677
13.6249
14.4426
15.0828
15.4896
15.5977
15.3307
14.6027
13.3242
11.4161
8.83704
5.62371
1.93503
10.6787
12.0195
13.3101
14.5137
15.5883
16.4841
17.1408
17.4833
17.4194
16.8367
15.606
13.5938
10.6965
6.90544
2.3983
10.8162
12.4333
14.0035
15.4919
16.8578
18.0514
19.0097
19.651
19.868
19.5205
18.4303
16.3859
13.1765
8.68427
3.06256
10.9644
12.8797
14.7536
16.5551
18.2468
19.7819
21.0985
22.1129
22.7082
22.7198
21.9168
19.9868
16.5471
11.2473
4.07633
11.1218
13.3546
15.554
17.6943
19.7444
21.6637
23.397
24.8655
25.9534
26.4843
26.1856
24.6355
21.2093
15.1094
5.77179
11.2867
13.8526
16.3951
18.896
21.3325
23.6744
25.8788
27.8821
29.5848
30.8244
31.3229
30.5867
27.7276
21.2195
8.99906
11.4569
14.3668
17.265
20.1421
22.9861
25.7802
28.5
31.1069
33.5373
35.6785
37.3168
38.0116
36.7794
31.2961
16.2384
11.6296
14.889
18.1494
21.411
24.6739
27.9373
31.199
34.4537
37.6898
40.8813
43.9652
46.7738
48.7826
48.0208
35.5739
11.802
15.4105
19.0326
22.6787
26.361
30.0951
33.9023
37.8128
41.8727
46.1577
50.8039
56.0904
62.7086
72.8591
95.6733
11.9714
15.9224
19.8991
23.9209
28.0116
32.2018
36.5333
41.0674
45.8985
51.1825
57.1969
64.4811
74.1803
88.9013
114.459
12.1349
16.4163
20.7339
25.115
29.5928
34.2096
39.023
44.115
49.6089
55.6988
62.707
71.1932
82.1627
97.4162
119.926
1.15699
2.06906
2.4643
2.60933
2.60934
2.51589
2.35831
2.15498
1.9182
1.65666
1.37674
1.08329
0.780184
0.470593
0.15727
0.619772
1.41696
1.86303
2.08202
2.1528
2.12287
2.02189
1.86936
1.67869
1.45954
1.21908
0.962845
0.695287
0.420101
0.140513
0.389745
1.00868
1.41944
1.65762
1.7662
1.77918
1.72126
1.6102
1.45896
1.27721
1.07236
0.850258
0.615683
0.372663
0.124754
0.271215
0.744955
1.09568
1.32322
1.44597
1.4847
1.45751
1.37894
1.26041
1.11091
0.937606
0.746329
0.541937
0.328616
0.110106
0.200384
0.566656
0.857461
1.06159
1.18407
1.236
1.22944
1.17542
1.08335
0.961129
0.815332
0.651502
0.474389
0.288171
0.0966395
0.153508
0.440759
0.679431
0.856643
0.971148
1.0279
1.03433
0.998305
0.927225
0.827713
0.705576
0.565894
0.41316
0.251415
0.0843853
0.120357
0.348595
0.544076
0.69524
0.798327
0.854748
0.868695
0.845527
0.790838
0.710005
0.607997
0.489346
0.358186
0.218326
0.0733395
0.0958693
0.279178
0.439492
0.56722
0.657909
0.711083
0.728828
0.714631
0.672602
0.606996
0.521972
0.421482
0.309251
0.188794
0.0634688
0.0772348
0.225728
0.357535
0.464917
0.543538
0.592017
0.611136
0.60306
0.570733
0.517467
0.446682
0.361769
0.266026
0.162643
0.0547168
0.0627503
0.183862
0.292539
0.382583
0.450094
0.493337
0.512326
0.508324
0.483402
0.4401
0.3812
0.309575
0.228105
0.139646
0.0470113
0.0513132
0.150631
0.240479
0.315896
0.373499
0.411496
0.429479
0.428114
0.40883
0.373562
0.324553
0.264214
0.195037
0.119546
0.0402693
0.0421735
0.123975
0.198438
0.261578
0.310516
0.343551
0.360066
0.360343
0.345354
0.316564
0.275771
0.224988
0.166353
0.102076
0.034403
0.0348013
0.102414
0.16426
0.217122
0.258575
0.287075
0.301926
0.303172
0.291461
0.267899
0.233926
0.191213
0.141585
0.086962
0.0293235
0.0288109
0.0848569
0.136318
0.180586
0.215627
0.240076
0.253231
0.254997
0.245795
0.226462
0.198148
0.162239
0.120284
0.0739424
0.024944
0.0239145
0.070483
0.113372
0.150455
0.180034
0.200919
0.212443
0.214436
0.207164
0.191259
0.167643
0.137462
0.102028
0.0627673
0.0211822
0.0198935
0.0586633
0.0944579
0.125535
0.150478
0.16826
0.178272
0.180308
0.174527
0.161409
0.141695
0.116333
0.0864292
0.053206
0.0179615
0.0165786
0.0489095
0.0788185
0.104874
0.125892
0.140997
0.14964
0.151605
0.146984
0.136139
0.119669
0.0983561
0.0731351
0.0450478
0.0152118
0.0138375
0.0408371
0.0658549
0.0877096
0.105413
0.118219
0.125644
0.127477
0.123761
0.114776
0.101003
0.0830931
0.0618308
0.0381038
0.0128702
0.0115651
0.0341409
0.0550873
0.0734272
0.0883351
0.0991767
0.105531
0.107199
0.104196
0.0967367
0.0852105
0.0701572
0.0522378
0.0322058
0.0108804
0.00967763
0.0285758
0.0461293
0.0615275
0.0740801
0.0832496
0.0886721
0.0901652
0.0877261
0.0815207
0.0718664
0.0592114
0.0441113
0.0272056
0.00919286
0.00810753
0.0239444
0.0386678
0.0516035
0.0621738
0.0699241
0.0745409
0.075861
0.0738706
0.0686991
0.0606056
0.0499629
0.0372386
0.0229741
0.00776425
0.00679999
0.0200861
0.0324473
0.0433219
0.0522255
0.058774
0.0626987
0.0638551
0.0622238
0.0579061
0.0511145
0.0421598
0.0314351
0.0193989
0.00655689
0.00571037
0.0168698
0.027259
0.0364086
0.0439123
0.0494455
0.0527785
0.0537847
0.052442
0.0488306
0.0431253
0.0355854
0.026542
0.0163831
0.0055382
0.00480217
0.0141884
0.0229313
0.0306381
0.0369673
0.0416445
0.0444738
0.045345
0.0442354
0.0412089
0.0364097
0.030055
0.0224235
0.0138437
0.00468023
0.00404539
0.0119536
0.019323
0.025824
0.0311692
0.0351264
0.0375287
0.0382804
0.0373598
0.0348178
0.0307742
0.025411
0.0189633
0.0117094
0.00395902
0.00341539
0.0100928
0.0163176
0.0218124
0.0263347
0.0296878
0.0317294
0.0323769
0.0316098
0.0294692
0.0260549
0.0215198
0.0160628
0.00991986
0.00335421
0.00289185
0.00854629
0.0138191
0.018476
0.0223119
0.0251598
0.0268981
0.0274556
0.0268133
0.0250049
0.0221137
0.0182688
0.0136386
0.00842377
0.00284851
0.00245806
0.00726472
0.0117481
0.0157097
0.0189751
0.0214021
0.0228866
0.0233671
0.0228266
0.0212923
0.0188347
0.0155629
0.0116203
0.00717793
0.00242736
0.00210026
0.00620755
0.0100395
0.0134267
0.0162204
0.0182986
0.0195722
0.0199876
0.0195296
0.0182209
0.0161209
0.0133227
0.00994891
0.00614607
0.00207851
0.00180718
0.00534155
0.00863961
0.0115559
0.0139623
0.0157539
0.0168535
0.0172146
0.0168233