/*--------------------------------*- C++ -*----------------------------------*\
| =========                 |                                                 |
| \\      /  F ield         | OpenFOAM: The Open Source CFD Toolbox           |
|  \\    /   O peration     | Version:  5.x                                   |
|   \\  /    A nd           | Web:      www.OpenFOAM.org                      |
|    \\/     M anipulation  |                                                 |
\*---------------------------------------------------------------------------*/
FoamFile
{
    version     2.0;
    format      ascii;
    class       volScalarField;
    location    "13.6";
    object      gradTx;
}
// * * * * * * * * * * * * * * * * * * * * * * * * * * * * * * * * * * * * * //

dimensions      [0 -1 0 1 0 0 0];

internalField   nonuniform List<scalar> 
6300
(
9.34827
9.64663
10.2388
11.1152
12.2604
13.6525
15.2611
17.047
18.9607
20.943
22.9255
24.8337
26.5905
28.1227
29.3664
9.04926
9.3522
9.95391
10.8456
12.013
13.4352
15.0832
16.9184
18.8915
20.942
22.9992
24.9841
26.8145
28.4106
29.7028
8.44665
8.75834
9.37839
10.2996
11.5101
12.9915
14.7174
16.6512
18.744
20.9337
23.1443
25.2885
27.2719
29.0015
30.3948
7.53172
7.85548
8.50103
9.46382
10.7356
12.3026
14.143
16.2241
18.4991
20.9037
23.3552
25.7527
27.9824
29.9278
31.484
6.29239
6.6302
7.30577
8.31836
9.66524
11.3395
13.3272
15.6026
18.1236
20.8262
23.6194
26.3839
28.9764
31.2427
33.0396
4.71463
5.06654
5.77285
6.83795
8.26679
10.0625
12.2229
14.7346
17.566
20.6574
23.9115
27.1864
30.2959
33.0262
35.1696
2.78434
3.14785
3.88051
4.99317
6.50079
8.42027
10.7666
13.5464
16.7475
20.325
24.1823
28.1534
31.9939
35.3957
38.04
0.489948
0.859402
1.60756
2.75283
4.3223
6.35049
8.8762
11.936
15.5521
19.7121
24.3384
29.2502
34.1297
38.522
41.9095
-2.17448
-1.80834
-1.06308
0.087666
1.68447
3.78258
6.45107
9.76863
13.8121
18.6321
24.2083
30.3784
36.7519
42.6522
47.195
-5.20563
-4.85574
-4.13979
-3.02413
-1.45525
0.643659
3.37625
6.8747
11.2949
16.7954
23.4833
31.3026
39.8463
48.139
54.6037
-8.58719
-8.26976
-7.61674
-6.58971
-5.12557
-3.12952
-0.465027
3.05842
7.69663
13.7704
21.6264
31.5013
43.1908
55.4527
65.4226
-12.2867
-12.0199
-11.4682
-10.5929
-9.32834
-7.57169
-5.16584
-1.87321
2.6622
8.96234
17.7497
29.8846
45.9617
65.0573
82.226
-16.2535
-16.0553
-15.6438
-14.9858
-14.0237
-12.6636
-10.7539
-8.0482
-4.13757
1.66635
10.5248
24.3246
45.7131
76.5877
110.845
-20.4189
-20.3046
-20.0664
-19.6833
-19.1176
-18.3054
-17.1387
-15.4286
-12.8312
-8.68483
-1.64226
11.1749
35.9774
84.7337
166.796
-24.699
-24.6781
-24.6344
-24.5639
-24.4582
-24.3022
-24.0672
-23.6969
-23.0743
-21.9328
-19.5846
-13.9609
2.28693
59.5728
300.097
30.2246
30.7262
30.9673
30.9508
30.6881
30.1973
29.5011
28.6245
27.5933
26.4323
25.1646
23.8107
22.3887
20.9141
19.3998
17.8567
16.2941
14.7198
13.1403
11.5614
9.98783
8.42386
6.8731
5.33865
3.82314
2.32876
0.857259
-0.589979
-2.01196
-3.40803
-4.77786
-6.12139
-7.43879
-8.73035
-9.99642
-11.2374
-12.4534
-13.6446
-14.8108
-15.9518
-17.0672
-18.1566
-19.2197
-20.2564
-21.2667
-22.2513
-23.211
-24.1468
-25.0601
-25.9523
-26.8243
-27.6771
-28.511
-29.3259
-30.121
-30.895
-31.6465
-32.3737
-33.0747
-33.7479
-34.3919
-35.0053
-35.587
-36.1358
-36.6502
-37.1282
-37.5671
-37.9631
-38.3115
-38.6066
-38.8416
-39.0095
-39.1027
-39.1139
-39.0363
-38.8643
-38.5933
-38.2203
-37.7441
-37.165
-36.4854
-35.7093
-34.8423
-33.8919
-32.8676
-31.7801
-30.6421
-29.4675
-28.2712
-27.0686
30.5893
31.1007
31.3375
31.3045
31.0158
30.4925
29.7602
28.8466
27.7796
26.5854
25.288
23.9083
22.4641
20.9707
19.4407
17.8844
16.3107
14.7269
13.1393
11.5534
9.97377
8.40461
6.8494
5.3112
3.79258
2.29567
0.822224
-0.626426
-2.04932
-3.44584
-4.81573
-6.15902
-7.47596
-8.76698
-10.0325
-11.2731
-12.489
-13.6803
-14.8469
-15.9885
-17.1045
-18.1943
-19.2576
-20.294
-21.3036
-22.287
-23.245
-24.1789
-25.0904
-25.9808
-26.8517
-27.704
-28.5381
-29.354
-30.1508
-30.9271
-31.6811
-32.4109
-33.1143
-33.7897
-34.4355
-35.0506
-35.634
-36.1849
-36.7022
-37.1842
-37.6283
-38.0312
-38.3879
-38.6925
-38.9379
-39.1165
-39.2203
-39.2411
-39.1719
-39.0063
-38.7396
-38.3685
-37.8916
-37.3094
-36.6241
-35.8396
-34.9618
-33.9981
-32.958
-31.8525
-30.6945
-29.4984
-28.28
-27.0553
31.3396
31.8697
32.0955
32.0258
31.6806
31.0878
30.2795
29.289
28.1483
26.8866
25.5294
24.0979
22.61
21.0798
19.5189
17.9368
16.3413
14.739
13.1355
11.5359
9.94442
8.365
6.80102
5.25538
3.73058
2.22868
0.75138
-0.700046
-2.12469
-3.52203
-4.89192
-6.23455
-7.55041
-8.84017
-10.1046
-11.3443
-12.5599
-13.7515
-14.919
-16.0618
-17.1792
-18.2701
-19.3339
-20.3699
-21.378
-22.3588
-23.3133
-24.2432
-25.1505
-26.0373
-26.9055
-27.7566
-28.5912
-29.4093
-30.2098
-30.9909
-31.7503
-32.4855
-33.1939
-33.8735
-34.5228
-35.1409
-35.7273
-36.282
-36.8045
-37.294
-37.7487
-38.1652
-38.5388
-38.863
-39.13
-39.331
-39.4566
-39.4977
-39.4457
-39.2936
-39.0357
-38.6685
-38.1904
-37.6018
-36.9049
-36.1039
-35.2044
-34.2141
-33.1421
-32
-30.8012
-29.5612
-28.2972
-27.0272
32.5203
33.0762
33.2783
33.1431
32.7014
31.9928
31.0605
29.9469
28.6906
27.3249
25.877
24.3685
22.8161
21.2324
19.6272
18.0082
16.3814
14.7525
13.126
11.5063
9.89745
8.30296
6.72601
5.16938
3.63543
2.12616
0.64317
-0.812306
-2.23943
-3.63777
-5.00736
-6.34863
-7.66241
-8.94981
-10.212
-11.4502
-12.6652
-13.8574
-15.0264
-16.1716
-17.2916
-18.3849
-19.45
-20.4857
-21.4916
-22.4682
-23.4168
-24.3397
-25.2398
-26.1202
-26.9836
-27.8324
-28.6678
-29.4895
-30.2963
-31.0856
-31.8541
-32.5982
-33.3146
-34.0006
-34.6547
-35.2764
-35.866
-36.4248
-36.9538
-37.4536
-37.9234
-38.3606
-38.7602
-39.1153
-39.4166
-39.6534
-39.8142
-39.8876
-39.8634
-39.7326
-39.4887
-39.1277
-38.6478
-38.0495
-37.3353
-36.5095
-35.5776
-34.547
-33.4268
-32.2287
-30.9668
-29.6582
-28.3226
-26.9812
34.2065
34.7913
34.946
34.701
34.1058
33.2192
32.1019
30.8096
29.3899
27.8809
26.3113
24.7018
23.0667
21.4156
19.7551
18.0901
16.4245
14.762
13.1062
11.4609
9.82954
8.21542
6.62155
5.05053
3.50462
1.98567
0.495245
-0.965468
-2.39565
-3.79495
-5.16356
-6.50226
-7.81236
-9.09563
-10.354
-11.5894
-12.8033
-13.9963
-15.1681
-16.3175
-17.4424
-18.5401
-19.608
-20.6441
-21.6471
-22.6175
-23.557
-24.4689
-25.3573
-26.227
-27.0825
-27.9274
-28.7635
-29.5909
-30.4076
-31.2098
-31.9925
-32.7504
-33.4786
-34.1734
-34.8329
-35.4574
-36.0487
-36.61
-37.1448
-37.6559
-38.1446
-38.6094
-39.0455
-39.4447
-39.7956
-40.0847
-40.297
-40.4179
-40.4338
-40.3339
-40.11
-39.7576
-39.2751
-38.6636
-37.9262
-37.0673
-36.0925
-35.0084
-33.8235
-32.5488
-31.1992
-29.7938
-28.3561
-26.9124
36.516
37.1249
37.1886
36.7628
35.9289
34.7774
33.3947
31.8551
30.2172
28.5235
26.8025
25.0715
23.3399
21.6119
19.8892
18.1724
16.4626
14.7614
13.0712
11.3952
9.73654
8.09851
6.48396
4.89538
3.33481
1.80401
0.304438
-1.16266
-2.59639
-3.99635
-5.36285
-6.69703
-8.0009
-9.2772
-10.5291
-11.7596
-12.9713
-14.1655
-15.3419
-16.4986
-17.6321
-18.738
-19.8118
-20.8497
-21.8495
-22.8111
-23.7368
-24.6314
-25.5014
-26.354
-27.1965
-28.0345
-28.8714
-29.7074
-30.5395
-31.3618
-32.1664
-32.945
-33.6901
-34.3964
-35.0613
-35.6858
-36.2742
-36.8329
-37.3693
-37.8901
-38.3998
-38.8991
-39.3834
-39.843
-40.2633
-40.6261
-40.9111
-41.0987
-41.1707
-41.1131
-40.916
-40.5744
-40.0878
-39.4586
-38.6914
-37.7915
-36.7642
-35.6146
-34.349
-32.9765
-31.5114
-29.9755
-28.3978
-26.8131
39.6305
40.2429
40.1352
39.4114
38.2087
36.6678
34.9128
33.0416
31.1243
29.2049
27.3076
25.4416
23.6072
21.8001
20.0141
18.2444
16.4881
14.7446
13.0156
11.3041
9.61362
7.94755
6.30882
4.69972
3.12203
1.57725
0.0667869
-1.40797
-2.84579
-4.24595
-5.60867
-6.93541
-8.22909
-9.49387
-10.7347
-11.9568
-13.1644
-14.3601
-15.5439
-16.7128
-17.8613
-18.9819
-20.0671
-21.1101
-22.1067
-23.0559
-23.9611
-24.8292
-25.6701
-26.4954
-27.3165
-28.1428
-28.9801
-29.8292
-30.6852
-31.5387
-32.3772
-33.1874
-33.9573
-34.6784
-35.3472
-35.9659
-36.5421
-37.0875
-37.6157
-38.1398
-38.6697
-39.2098
-39.7564
-40.2975
-40.8134
-41.2787
-41.6652
-41.9452
-42.094
-42.0926
-41.9293
-41.5997
-41.1052
-40.4519
-39.6473
-38.6988
-37.6114
-36.3875
-35.0282
-33.537
-31.9254
-30.2168
-28.4493
-26.6717
43.8358
44.3969
43.9682
42.7488
40.9748
38.8658
36.5974
34.2943
32.0336
29.8542
27.7669
25.7656
23.835
21.9572
20.1153
18.2969
16.4946
14.7065
12.9345
11.1825
9.4553
7.75703
6.09083
4.45867
2.86173
1.30097
-0.222363
-1.70651
-3.14944
-4.54949
-5.90626
-7.22138
-8.49885
-9.74491
-10.9674
-12.1747
-13.3744
-14.5717
-15.7672
-16.9564
-18.1303
-19.2767
-20.3828
-21.4371
-22.4316
-23.3641
-24.2385
-25.0657
-25.861
-26.6426
-27.4287
-28.235
-29.0717
-29.9405
-30.8341
-31.7368
-32.6285
-33.4874
-34.2944
-35.0354
-35.7049
-36.3067
-36.854
-37.3665
-37.8676
-38.3806
-38.9246
-39.5105
-40.1368
-40.7879
-41.4359
-42.0442
-42.5723
-42.9802
-43.2329
-43.3048
-43.1818
-42.8616
-42.351
-41.6625
-40.8101
-39.8056
-38.6548
-37.355
-35.8967
-34.2707
-32.4784
-30.5428
-28.5151
-26.4701
49.5968
49.9755
48.9389
46.8839
44.2225
41.2923
38.3313
35.4851
32.8256
30.3702
28.1021
25.9873
23.9865
22.0619
20.1823
18.3256
16.4804
14.645
12.8241
11.025
9.25506
7.52014
5.82362
4.16674
2.54923
0.970705
-0.568015
-2.06446
-3.51485
-4.91536
-6.26382
-7.5615
-8.81378
-10.0298
-11.2218
-12.4033
-13.5879
-14.7856
-15.9993
-17.2219
-18.4386
-19.6293
-20.7729
-21.8498
-22.8458
-23.7553
-24.5838
-25.3478
-26.0714
-26.7829
-27.5114
-28.2832
-29.1165
-30.016
-30.9694
-31.9506
-32.9264
-33.862
-34.7259
-35.4951
-36.1596
-36.7257
-37.2153
-37.6613
-38.1019
-38.5763
-39.1188
-39.7526
-40.4809
-41.2823
-42.1151
-42.9248
-43.6519
-44.2379
-44.6318
-44.7972
-44.7178
-44.3971
-43.8525
-43.1086
-42.1914
-41.1226
-39.9121
-38.5502
-37.0064
-35.2435
-33.2375
-31.0007
-28.6057
-26.1778
57.7137
57.5912
55.3753
51.8913
47.8561
43.7624
39.8989
36.4061
33.3229
30.6159
28.2158
26.0444
24.0276
22.1015
20.216
18.3373
16.4517
14.5625
12.682
10.8251
9.0042
7.22771
5.49916
3.81798
2.18044
0.583022
-0.974614
-2.48877
-3.95211
-5.35616
-6.69449
-7.96696
-9.18079
-10.3494
-11.491
-12.6274
-13.7824
-14.9764
-16.2182
-17.4959
-18.784
-20.0497
-21.2587
-22.3788
-23.3843
-24.2628
-25.0218
-25.6877
-26.2987
-26.8983
-27.5316
-28.2424
-29.0656
-30.0136
-31.0641
-32.1718
-33.2819
-34.3392
-35.2933
-36.1051
-36.7555
-37.2543
-37.6391
-37.9633
-38.2873
-38.6733
-39.1811
-39.8579
-40.7191
-41.7311
-42.827
-43.9239
-44.9343
-45.7716
-46.359
-46.6415
-46.6008
-46.2545
-45.6403
-44.8036
-43.7905
-42.6432
-41.3869
-40.007
-38.4311
-36.5658
-34.3285
-31.6861
-28.7434
-25.7378
69.6698
68.2201
63.6367
57.6915
51.5736
45.9002
40.9315
36.7368
33.2779
30.4188
27.9999
25.8784
23.9374
22.0823
20.2392
18.3588
16.4279
14.4669
12.5055
10.573
8.6892
6.86603
5.10633
3.4062
1.75378
0.137959
-1.44389
-2.98629
-4.47476
-5.89157
-7.21997
-8.45679
-9.61282
-10.7078
-11.7675
-12.8248
-13.9204
-15.0984
-16.385
-17.7549
-19.1614
-20.5512
-21.8724
-23.0723
-24.1054
-24.9423
-25.5933
-26.1064
-26.5423
-26.9648
-27.4399
-28.0393
-28.8344
-29.8632
-31.0761
-32.3891
-33.7129
-34.9647
-36.0651
-36.9471
-37.5691
-37.9467
-38.1498
-38.2651
-38.3828
-38.5944
-38.9997
-39.6972
-40.7396
-42.0585
-43.5368
-45.0469
-46.4653
-47.6647
-48.5248
-48.9505
-48.9232
-48.4971
-47.748
-46.7519
-45.5825
-44.32
-43.0392
-41.7454
-40.2721
-38.4233
-36.0023
-32.8034
-28.9714
-25.0285
88.4936
83.3605
73.8577
63.7396
54.6506
47.0227
40.8494
36.0071
32.3685
29.5873
27.3552
25.4522
23.7229
22.0455
20.3157
18.4526
16.4469
14.3716
12.2872
10.2508
8.28663
6.41279
4.62756
2.92563
1.27434
-0.356097
-1.96999
-3.56148
-5.1006
-6.55425
-7.87725
-9.0629
-10.1327
-11.117
-12.0474
-12.9668
-13.9395
-15.0639
-16.4315
-17.961
-19.5628
-21.1514
-22.6604
-24.0058
-25.1086
-25.8891
-26.3631
-26.6359
-26.8046
-26.9555
-27.1687
-27.5542
-28.2665
-29.4473
-30.9434
-32.5906
-34.2472
-35.8078
-37.1509
-38.163
-38.7342
-38.89
-38.7864
-38.563
-38.3425
-38.2361
-38.3971
-39.0394
-40.3616
-42.156
-44.2001
-46.3014
-48.3112
-50.0459
-51.3155
-51.9114
-51.8192
-51.2044
-50.2108
-48.9492
-47.5079
-46.0227
-44.7099
-43.7415
-42.6535
-41.1041
-38.796
-34.8319
-29.3587
-23.7569
121.13
104.792
84.9633
68.304
55.6225
46.0493
38.8498
33.5433
30.224
27.9647
26.2359
24.7753
23.4334
22.0835
20.5839
18.7512
16.5658
14.2892
11.9996
9.82399
7.75379
5.83174
4.02866
2.372
0.76477
-0.874052
-2.52838
-4.21212
-5.84951
-7.40503
-8.73227
-9.83581
-10.7754
-11.6036
-12.3433
-13.0317
-13.7398
-14.6793
-16.2445
-18.063
-19.9827
-21.8659
-23.6835
-25.2885
-26.5758
-27.277
-27.422
-27.3151
-27.0923
-26.8562
-26.6489
-26.5983
-27.0237
-28.5769
-30.5927
-32.7782
-34.9194
-36.9636
-38.7127
-40.0135
-40.4971
-40.2061
-39.5951
-38.8562
-38.1376
-37.4923
-37.1008
-37.4022
-39.3027
-41.8936
-44.7807
-47.6868
-50.5528
-53.0962
-55.0758
-55.8623
-55.4673
-54.4563
-53.0589
-51.4045
-49.4958
-47.4767
-45.8838
-45.9095
-45.6988
-44.877
-43.9738
-39.0331
-29.9306
-21.1418
185.599
131.251
91.5032
67.1396
52.1176
41.6573
34.1235
28.2175
26.5525
25.5777
24.7297
23.9272
23.1549
22.3368
21.3311
19.5575
16.8154
14.2254
11.5475
9.24521
7.00745
5.07923
3.21879
1.7471
0.300621
-1.36972
-3.04446
-4.92946
-6.71631
-8.58445
-9.90935
-10.8447
-11.5785
-12.2175
-12.7127
-13.0682
-13.207
-13.3932
-15.6928
-18.0189
-20.4551
-22.6744
-25.0127
-27.0283
-28.8863
-29.4657
-28.8435
-28.1606
-27.3988
-26.715
-25.9032
-24.9565
-24.1565
-27.0398
-29.9975
-33.0293
-35.7306
-38.5441
-40.9193
-43.0404
-43.375
-41.9827
-40.5874
-39.1199
-37.8265
-36.3825
-34.8064
-33.462
-37.2493
-41.2039
-45.3333
-49.1297
-53.258
-56.9576
-60.5538
-61.5137
-60.0017
-58.2641
-56.2764
-54.2257
-51.6419
-48.3165
-44.7267
-48.4171
-49.6233
-48.7667
-54.9651
-49.2267
-30.0506
-14.9899
333.975
136.686
75.8881
52.5224
42.0431
33.0506
27.0524
16.784
21.8868
23.0074
23.1575
23.035
22.9421
22.8595
23.1836
21.7582
16.8456
14.2877
10.5545
8.57321
5.81517
4.22895
1.849
1.08583
0.158757
-1.85909
-3.25777
-5.78814
-7.46601
-10.5461
-11.6473
-12.1438
-12.5177
-13.0384
-13.283
-13.4168
-12.6057
-9.06352
-15.1028
-17.8158
-21.2396
-23.3113
-26.8061
-28.9948
-33.0379
-33.384
-30.352
-29.1194
-27.5926
-26.758
-25.3514
-23.1029
-15.9853
-25.3951
-29.295
-33.7561
-36.3796
-40.7552
-43.4915
-48.6395
-48.7387
-43.7634
-41.683
-39.1324
-37.7319
-35.4623
-32.178
-22.1315
-34.9545
-40.262
-46.3651
-50.0938
-56.58
-60.9674
-69.8271
-70.724
-64.8601
-62.4313
-59.5841
-57.8136
-54.8553
-49.5364
-33.0853
-54.5015
-56.5177
-42.4968
-83.1446
-78.7699
-24.244
0.642162
-25.7575
-24.3612
-23.0234
-21.763
-20.5946
-19.5284
-18.5709
-17.7253
-16.9922
-16.3705
-15.8581
-15.4524
-15.1508
-14.9511
-14.8517
-25.7212
-24.3023
-22.9457
-21.6708
-20.492
-19.4194
-18.4588
-17.6126
-16.8806
-16.261
-15.7512
-15.3481
-15.0487
-14.8506
-14.752
-25.6459
-24.1809
-22.7862
-21.482
-20.283
-19.1983
-18.2321
-17.3853
-16.6562
-16.0416
-15.5375
-15.1399
-14.8452
-14.6505
-14.5537
-25.5258
-23.989
-22.5357
-21.1878
-19.9596
-18.8583
-17.8858
-17.0402
-16.3173
-15.7114
-15.2169
-14.8285
-14.5415
-14.3522
-14.2582
-25.3512
-23.7132
-22.1795
-20.7737
-19.5089
-18.3892
-17.4124
-16.5723
-15.8609
-15.2696
-14.7902
-14.4156
-14.1399
-13.9586
-13.8687
-25.1069
-23.3331
-21.695
-20.2183
-18.9128
-17.777
-16.8021
-15.9756
-15.2843
-14.7157
-14.2585
-13.9036
-13.6437
-13.4733
-13.389
-24.7693
-22.8168
-21.0489
-19.4914
-18.147
-17.0038
-16.043
-15.2433
-14.5849
-14.05
-13.6244
-13.2965
-13.0577
-12.9018
-12.8249
-24.3007
-22.1156
-20.1923
-18.5511
-17.1795
-16.0482
-15.1225
-14.3698
-13.7616
-13.275
-12.8924
-12.6002
-12.3887
-12.2513
-12.1836
-23.6379
-21.1523
-19.0532
-17.341
-15.9717
-14.8866
-14.029
-13.3514
-12.8164
-12.396
-12.0697
-11.823
-11.6456
-11.5308
-11.4744
-22.6698
-19.8023
-17.5271
-15.7878
-14.4794
-13.4972
-12.7555
-12.1904
-11.7565
-11.4226
-11.1673
-10.9762
-10.8398
-10.7518
-10.7087
-21.1863
-17.8596
-15.4647
-13.8034
-12.6607
-11.8671
-11.3051
-10.8979
-10.5966
-10.3705
-10.2006
-10.0747
-9.98528
-9.92783
-9.8997
-18.7661
-14.9851
-12.6686
-11.3003
-10.4928
-10.0054
-9.69987
-9.49925
-9.36115
-9.26225
-9.18971
-9.13649
-9.09874
-9.07441
-9.06246
-14.5238
-10.6459
-8.92397
-8.2363
-8.00461
-7.96167
-7.9896
-8.03802
-8.08644
-8.12748
-8.1594
-8.18272
-8.19867
-8.2085
-8.21316
-6.55996
-4.15048
-4.14502
-4.71621
-5.32757
-5.84696
-6.25873
-6.57668
-6.819
-7.00173
-7.1376
-7.23621
-7.3046
-7.34764
-7.36842
9.16746
4.74899
1.21064
-1.15588
-2.74243
-3.8398
-4.62162
-5.19089
-5.61106
-5.92276
-6.15296
-6.31985
-6.43579
-6.50896
-6.54436
-28.6419
-28.7082
-28.8468
-29.0702
-29.4003
-29.8721
-30.5426
-31.5077
-32.9399
-35.1834
-39.0347
-46.7413
-66.2149
-131.461
-411.835
-32.1806
-32.3221
-32.6175
-33.0931
-33.7949
-34.7978
-36.225
-38.2844
-41.3456
-46.1129
-54.0395
-68.3701
-96.7033
-155.733
-264.38
-35.6211
-35.8295
-36.2632
-36.9592
-37.9804
-39.4291
-41.4687
-44.3655
-48.5666
-54.8487
-64.5972
-80.2748
-105.875
-145.547
-192.374
-38.9171
-39.1805
-39.7271
-40.5994
-41.8694
-43.6503
-46.1172
-49.5409
-54.3426
-61.1774
-71.0377
-85.289
-105.272
-130.393
-152.886
-42.0304
-42.3351
-42.9649
-43.9637
-45.4036
-47.3951
-50.1015
-53.7596
-58.7068
-65.4051
-74.4289
-86.3225
-101.103
-117.063
-129.017
-44.9323
-45.264
-45.9468
-47.0217
-48.5549
-50.6437
-53.425
-57.0831
-61.8552
-68.0176
-75.8269
-85.3516
-96.1134
-106.515
-113.449
-47.604
-47.9491
-48.6565
-49.7616
-51.3203
-53.4116
-56.1395
-59.6333
-64.038
-69.4867
-76.0333
-83.5214
-91.3743
-98.3738
-102.697
-50.0362
-50.3828
-51.0901
-52.1866
-53.7161
-55.7373
-58.3222
-61.5508
-65.4959
-70.1933
-75.586
-81.4377
-87.2278
-92.0915
-94.9457
-52.2278
-52.5661
-53.2534
-54.3111
-55.7706
-57.6715
-60.0581
-62.9708
-66.4315
-70.4171
-74.8198
-79.3966
-83.7246
-87.2045
-89.1767
-54.1846
-54.5071
-55.1596
-56.1567
-57.5185
-59.2685
-61.4285
-64.0103
-67.0027
-70.3512
-73.9326
-77.5282
-80.8101
-83.3644
-84.7771
-55.9175
-56.219
-56.8266
-57.749
-58.9969
-60.5809
-62.506
-64.7648
-67.3265
-70.1235
-73.0355
-75.8777
-78.4009
-80.3171
-81.3583
-57.4411
-57.7184
-58.2752
-59.1152
-60.242
-61.6564
-63.3518
-65.3088
-67.4869
-69.8159
-72.1869
-74.4486
-76.413
-77.8772
-78.6626
-58.7723
-59.0237
-59.5271
-60.2823
-61.2876
-62.5367
-64.016
-65.6992
-67.5426
-69.479
-71.4141
-73.2259
-74.7725
-75.9087
-76.5123
-59.9288
-60.1543
-60.6042
-61.2758
-62.1637
-63.2573
-64.5385
-65.9785
-67.5337
-69.1431
-70.7268
-72.1873
-73.4169
-74.3101
-74.781
-60.9288
-61.1289
-61.5272
-62.1193
-62.897
-63.8476
-64.9509
-66.1777
-67.487
-68.8252
-70.125
-71.3091
-72.2949
-73.0046
-73.3766
-61.7899
-61.966
-62.3158
-62.8337
-63.5104
-64.3319
-65.2776
-66.3195
-67.4204
-68.5337
-69.6037
-70.5685
-71.3646
-71.9337
-72.2306
-62.5286
-62.6826
-62.9877
-63.4378
-64.0233
-64.7298
-65.5375
-66.4203
-67.3453
-68.2723
-69.1554
-69.9451
-70.5919
-71.0517
-71.2906
-63.1605
-63.2943
-63.5589
-63.9481
-64.4522
-65.0574
-65.7452
-66.492
-67.2687
-68.0413
-68.7719
-69.4208
-69.9492
-70.3229
-70.5167
-63.6995
-63.8151
-64.0435
-64.3785
-64.8109
-65.3277
-65.9121
-66.5428
-67.1949
-67.8394
-68.4453
-68.9802
-69.4137
-69.7192
-69.8772
-64.1583
-64.2578
-64.454
-64.7413
-65.111
-65.5511
-66.0466
-66.5789
-67.1262
-67.6645
-68.1678
-68.6101
-68.9671
-69.2179
-69.3474
-64.5479
-64.6332
-64.8013
-65.0469
-65.3621
-65.7362
-66.1557
-66.6045
-67.0639
-67.5138
-67.9326
-68.2993
-68.5942
-68.8009
-68.9074
-64.8783
-64.9513
-65.0948
-65.3042
-65.5723
-65.8897
-66.2444
-66.6226
-67.0083
-67.3846
-67.7337
-68.0383
-68.2826
-68.4535
-68.5414
-65.1581
-65.2203
-65.3426
-65.5207
-65.7484
-66.0172
-66.3169
-66.6354
-66.9593
-67.2743
-67.5656
-67.8191
-68.022
-68.1637
-68.2365
-65.3946
-65.4475
-65.5515
-65.7028
-65.8959
-66.1233
-66.3763
-66.6445
-66.9166
-67.1804
-67.4238
-67.6351
-67.8039
-67.9216
-67.982
-65.5944
-65.6394
-65.7277
-65.856
-66.0194
-66.2117
-66.4252
-66.651
-66.8795
-67.1006
-67.3042
-67.4806
-67.6213
-67.7193
-67.7696
-65.763
-65.8012
-65.876
-65.9847
-66.123
-66.2854
-66.4655
-66.6556
-66.8476
-67.033
-67.2035
-67.351
-67.4684
-67.5501
-67.592
-65.9052
-65.9375
-66.0009
-66.0928
-66.2098
-66.3469
-66.4987
-66.6588
-66.8202
-66.9759
-67.1187
-67.2421
-67.3403
-67.4086
-67.4436
-66.0248
-66.0522
-66.1059
-66.1837
-66.2825
-66.3983
-66.5263
-66.6611
-66.7968
-66.9276
-67.0474
-67.1508
-67.2331
-67.2901
-67.3194
-66.1255
-66.1487
-66.1941
-66.2599
-66.3434
-66.4412
-66.5492
-66.6627
-66.777
-66.8869
-66.9875
-67.0743
-67.1432
-67.191
-67.2155
-66.2101
-66.2297
-66.2682
-66.3238
-66.3944
-66.477
-66.5681
-66.6639
-66.7601
-66.8526
-66.9372
-67.0101
-67.068
-67.1081
-67.1287
-66.2811
-66.2977
-66.3303
-66.3774
-66.4371
-66.5069
-66.5839
-66.6647
-66.7459
-66.8238
-66.895
-66.9564
-67.0051
-67.0388
-67.0561
-66.3406
-66.3547
-66.3822
-66.4221
-66.4727
-66.5318
-66.5969
-66.6653
-66.7338
-66.7996
-66.8597
-66.9115
-66.9525
-66.9809
-66.9955
-66.3903
-66.4022
-66.4257
-66.4595
-66.5024
-66.5526
-66.6078
-66.6657
-66.7237
-66.7794
-66.8303
-66.874
-66.9087
-66.9327
-66.945
-66.4317
-66.4419
-66.4618
-66.4906
-66.5272
-66.5698
-66.6168
-66.666
-66.7153
-66.7626
-66.8057
-66.8428
-66.8722
-66.8926
-66.903
-66.466
-66.4747
-66.4918
-66.5164
-66.5476
-66.5841
-66.6242
-66.6662
-66.7083
-66.7486
-66.7854
-66.817
-66.8421
-66.8594
-66.8683
-66.4943
-66.5018
-66.5164
-66.5376
-66.5645
-66.5958
-66.6302
-66.6663
-66.7025
-66.7371
-66.7686
-66.7958
-66.8173
-66.8321
-66.8397
-66.5174
-66.5239
-66.5366
-66.5549
-66.5782
-66.6053
-66.6352
-66.6664
-66.6977
-66.7277
-66.755
-66.7784
-66.797
-66.8099
-66.8165
-66.5359
-66.5416
-66.5528
-66.5689
-66.5892
-66.613
-66.6391
-66.6665
-66.6939
-66.7201
-66.744
-66.7645
-66.7808
-66.792
-66.7978
-66.5506
-66.5556
-66.5655
-66.5798
-66.5979
-66.619
-66.6422
-66.6665
-66.6908
-66.7141
-66.7353
-66.7535
-66.768
-66.7779
-66.783
-66.5617
-66.5662
-66.5752
-66.5881
-66.6045
-66.6236
-66.6446
-66.6666
-66.6885
-66.7096
-66.7288
-66.7452
-66.7582
-66.7672
-66.7719
-66.5696
-66.5738
-66.5821
-66.5941
-66.6092
-66.6269
-66.6463
-66.6666
-66.6869
-66.7063
-66.7241
-66.7393
-66.7513
-66.7596
-66.7639
-66.5746
-66.5786
-66.5865
-66.5978
-66.6122
-66.6289
-66.6474
-66.6666
-66.6859
-66.7043
-66.7211
-66.7355
-66.7469
-66.7548
-66.7589
-66.5768
-66.5807
-66.5884
-66.5995
-66.6135
-66.6299
-66.6478
-66.6666
-66.6854
-66.7034
-66.7198
-66.7339
-66.745
-66.7527
-66.7566
-66.5763
-66.5802
-66.5879
-66.5991
-66.6132
-66.6296
-66.6477
-66.6666
-66.6855
-66.7036
-66.7201
-66.7343
-66.7455
-66.7532
-66.7572
-66.573
-66.5771
-66.5851
-66.5966
-66.6113
-66.6283
-66.647
-66.6666
-66.6862
-66.705
-66.722
-66.7367
-66.7483
-66.7563
-66.7604
-66.5669
-66.5713
-66.5798
-66.5921
-66.6076
-66.6258
-66.6457
-66.6666
-66.6875
-66.7074
-66.7256
-66.7413
-66.7536
-66.7622
-66.7666
-66.5578
-66.5625
-66.5718
-66.5853
-66.6022
-66.622
-66.6438
-66.6666
-66.6894
-66.7112
-66.731
-66.7481
-66.7616
-66.7709
-66.7757
-66.5454
-66.5507
-66.561
-66.576
-66.5949
-66.6169
-66.6412
-66.6665
-66.6919
-66.7162
-66.7384
-66.7574
-66.7724
-66.7829
-66.7882
-66.5293
-66.5353
-66.547
-66.5639
-66.5853
-66.6103
-66.6378
-66.6665
-66.6953
-66.7228
-66.7479
-66.7694
-66.7865
-66.7983
-66.8044
-66.5091
-66.5159
-66.5294
-66.5488
-66.5733
-66.602
-66.6335
-66.6664
-66.6994
-66.7311
-66.7599
-66.7846
-66.8042
-66.8178
-66.8247
-66.4841
-66.492
-66.5076
-66.53
-66.5585
-66.5916
-66.6281
-66.6663
-66.7046
-66.7413
-66.7747
-66.8034
-66.8261
-66.8419
-66.8499
-66.4536
-66.4628
-66.4809
-66.5071
-66.5403
-66.579
-66.6216
-66.6662
-66.7109
-66.7537
-66.7927
-66.8263
-66.8529
-66.8713
-66.8807
-66.4166
-66.4275
-66.4487
-66.4794
-66.5183
-66.5637
-66.6137
-66.666
-66.7185
-66.7687
-66.8146
-66.854
-66.8853
-66.9069
-66.918
-66.3722
-66.3849
-66.4099
-66.446
-66.4918
-66.5452
-66.6041
-66.6657
-66.7276
-66.7869
-66.841
-66.8875
-66.9244
-66.9499
-66.963
-66.3189
-66.3339
-66.3633
-66.406
-66.46
-66.523
-66.5925
-66.6654
-66.7384
-66.8085
-66.8726
-66.9276
-66.9713
-67.0016
-67.017
-66.2551
-66.2729
-66.3076
-66.358
-66.4218
-66.4964
-66.5786
-66.6648
-66.7514
-66.8345
-66.9104
-66.9757
-67.0275
-67.0635
-67.0819
-66.179
-66.2
-66.2411
-66.3007
-66.3762
-66.4645
-66.5618
-66.6641
-66.7667
-66.8654
-66.9556
-67.0332
-67.0948
-67.1376
-67.1594
-66.0884
-66.1132
-66.1618
-66.2323
-66.3216
-66.4262
-66.5417
-66.663
-66.7849
-66.9021
-67.0094
-67.1018
-67.1752
-67.2261
-67.2522
-65.9805
-66.0098
-66.0673
-66.1507
-66.2566
-66.3805
-66.5174
-66.6615
-66.8064
-66.9458
-67.0735
-67.1837
-67.2712
-67.3319
-67.363
-65.8522
-65.8869
-65.9549
-66.0536
-66.1789
-66.3258
-66.4882
-66.6593
-66.8317
-66.9977
-67.1499
-67.2813
-67.3858
-67.4583
-67.4955
-65.6999
-65.7409
-65.8213
-65.9379
-66.0863
-66.2603
-66.453
-66.6563
-66.8613
-67.0591
-67.2407
-67.3976
-67.5225
-67.6093
-67.6538
-65.5191
-65.5675
-65.6624
-65.8002
-65.9757
-66.1819
-66.4105
-66.652
-66.896
-67.1318
-67.3485
-67.5361
-67.6856
-67.7896
-67.8429
-65.3047
-65.3617
-65.4737
-65.6365
-65.8439
-66.088
-66.3591
-66.646
-66.9364
-67.2176
-67.4766
-67.7012
-67.8803
-68.0051
-68.0691
-65.0508
-65.1179
-65.2497
-65.4416
-65.6866
-65.9753
-66.2966
-66.6375
-66.9833
-67.3189
-67.6287
-67.8978
-68.1128
-68.2627
-68.3398
-64.7502
-64.8291
-64.9841
-65.21
-65.4988
-65.8401
-66.2207
-66.6254
-67.0373
-67.438
-67.8089
-68.1319
-68.3905
-68.571
-68.6639
-64.3949
-64.4874
-64.6692
-64.9347
-65.2747
-65.6775
-66.1279
-66.6085
-67.0991
-67.5779
-68.0225
-68.4107
-68.7223
-68.9403
-69.0524
-63.9755
-64.0835
-64.2964
-64.6076
-65.0071
-65.4817
-66.0143
-66.5845
-67.1689
-67.7416
-68.2752
-68.7428
-69.1191
-69.3829
-69.5189
-63.481
-63.6069
-63.8553
-64.219
-64.6874
-65.2456
-65.8745
-66.5508
-67.247
-67.9323
-68.5738
-69.1382
-69.5939
-69.9143
-70.0798
-62.8992
-63.0453
-63.334
-63.7579
-64.3054
-64.9605
-65.7019
-66.5032
-67.3326
-68.1535
-68.926
-69.6089
-70.1628
-70.5534
-70.7555
-62.2158
-62.3847
-62.7189
-63.2109
-63.8488
-64.6154
-65.4877
-66.4361
-67.424
-68.4083
-69.3404
-70.1693
-70.8449
-71.3234
-71.5715
-61.4152
-61.6094
-61.9943
-62.5627
-63.3027
-64.1968
-65.2206
-66.3416
-67.518
-68.6992
-69.8264
-70.836
-71.6641
-72.2532
-72.5597
-60.4798
-60.7016
-61.1423
-61.7953
-62.6496
-63.6882
-64.8862
-66.2085
-67.6087
-69.0276
-70.3942
-71.6288
-72.6491
-73.3794
-73.7607
-59.3905
-59.642
-60.1428
-60.8881
-61.8686
-63.069
-64.4653
-66.0214
-67.6864
-69.3923
-71.0535
-72.5702
-73.8355
-74.7478
-75.2265
-58.1265
-58.4092
-58.9737
-59.8175
-60.9348
-62.3139
-63.9335
-65.7587
-67.7357
-69.788
-71.8133
-73.6863
-75.267
-76.4174
-77.0246
-56.6663
-56.9807
-57.6107
-58.5571
-59.8194
-61.3917
-63.2589
-65.3905
-67.7328
-70.2023
-72.6787
-75.0053
-76.9972
-78.464
-79.2443
-54.9877
-55.3333
-56.0279
-57.0775
-58.4886
-60.2647
-62.4009
-64.8758
-67.6417
-70.6117
-73.6482
-76.5567
-79.092
-80.9873
-82.0059
-53.0693
-53.4436
-54.1986
-55.3469
-56.9045
-58.8878
-61.3076
-64.1592
-67.4088
-70.9748
-74.7066
-78.367
-81.6312
-84.1193
-85.4746
-50.8911
-51.2895
-52.0964
-53.3321
-55.0247
-57.2079
-59.9144
-63.1661
-66.9562
-71.2229
-75.8146
-80.4525
-84.7093
-88.0378
-89.8845
-48.4364
-48.8517
-49.6966
-51
-52.8044
-55.1645
-58.1428
-61.7993
-66.1725
-71.2451
-76.8904
-82.8024
-88.432
-92.9853
-95.5766
-45.6934
-46.1156
-46.9786
-48.3202
-50.1983
-52.692
-55.9001
-59.9347
-64.9032
-70.8696
-77.7808
-85.3485
-92.9019
-99.2951
-103.068
-42.6574
-43.0737
-43.9285
-45.2678
-47.1647
-49.7234
-53.0836
-57.4217
-62.941
-69.838
-78.2152
-87.9045
-98.1772
-107.424
-113.179
-39.3324
-39.7273
-40.5419
-41.8284
-43.6717
-46.1983
-49.5882
-54.0883
-60.0221
-67.7785
-77.7383
-90.0552
-104.165
-117.978
-127.287
-35.7333
-36.0897
-36.828
-38.0025
-39.7043
-42.0739
-45.3219
-49.7593
-55.8375
-64.1888
-75.6246
-90.9608
-110.357
-131.661
-147.858
-31.887
-32.1871
-32.8112
-33.8106
-35.2733
-37.3396
-40.2298
-44.291
-50.0744
-58.4572
-70.8022
-89.0468
-115.225
-148.888
-179.676
-27.8325
-28.0598
-28.5339
-29.2972
-30.4234
-32.0334
-34.3247
-37.6268
-42.5064
-49.9741
-61.8828
-81.6232
-114.895
-168.112
-232.874
-23.6204
-23.7615
-24.0562
-24.532
-25.2376
-26.2541
-27.718
-29.8674
-33.1413
-38.4072
-47.5247
-64.8024
-100.714
-179.318
-331.045
-19.3106
-19.3567
-19.4528
-19.6076
-19.8363
-20.1644
-20.6355
-21.3275
-22.393
-24.1658
-27.5001
-35.0413
-56.8852
-139.744
-534.579
-14.9691
-14.9175
-14.809
-14.6322
-14.3662
-13.9758
-13.3998
-12.5287
-11.1539
-8.84039
-4.55446
4.65214
29.3148
116.482
516.127
-10.6639
-10.5181
-10.213
-9.71889
-8.9829
-7.91637
-6.36937
-4.08007
-0.567214
5.11489
14.9737
33.6116
72.1082
155.707
315.943
-6.46024
-6.22969
-5.74874
-4.97391
-3.8295
-2.19103
0.145095
3.5183
8.51252
16.1692
28.4049
48.7797
83.5792
141.71
227.043
29.6654
12.1
5.04581
1.39278
-0.821091
-2.28913
-3.31569
-4.05721
-4.60313
-5.00837
-5.30832
-5.52647
-5.67851
-5.77472
-5.82135
18.753
11.4832
6.17036
2.71033
0.407647
-1.18599
-2.32641
-3.1624
-3.78448
-4.25016
-4.59724
-4.85108
-5.02879
-5.14161
-5.1964
12.8889
9.50736
6.00818
3.22414
1.14399
-0.397573
-1.54852
-2.41611
-3.07442
-3.57428
-3.95086
-4.22852
-4.42408
-4.54876
-4.60946
9.37302
7.61309
5.34932
3.24911
1.5063
0.119586
-0.96738
-1.81514
-2.47435
-2.98399
-3.37313
-3.66295
-3.86856
-4.0003
-4.06462
7.0792
6.06866
4.57682
3.02585
1.62131
0.428584
-0.552346
-1.34511
-1.97811
-2.47737
-2.86435
-3.15581
-3.36429
-3.49862
-3.56442
5.48709
4.85842
3.84533
2.70088
1.58921
0.590498
-0.267981
-0.985999
-1.57474
-2.04869
-2.42187
-2.70629
-2.9115
-3.0445
-3.10988
4.33152
3.91507
3.20504
2.35313
1.47866
0.65502
-0.0811558
-0.716658
-1.25108
-1.68998
-2.041
-2.31174
-2.50881
-2.63732
-2.70071
3.4651
3.17558
2.66325
2.02103
1.33279
0.658799
0.0357574
-0.517507
-0.993731
-1.39229
-1.71585
-1.96834
-2.15372
-2.27533
-2.33553
2.7997
2.59079
2.21165
1.72087
1.177
0.627193
0.104214
-0.371853
-0.790312
-1.14666
-1.44004
-1.67153
-1.8429
-1.95598
-2.01214
2.27936
2.12418
1.83755
1.45756
1.02533
0.576952
0.14009
-0.2662
-0.630023
-0.944738
-1.20721
-1.41645
-1.57256
-1.67612
-1.72773
1.86677
1.74885
1.52825
1.23052
0.884861
0.518707
0.154736
-0.190037
-0.50383
-0.779088
-1.01135
-1.19824
-1.33869
-1.43233
-1.47914
1.53605
1.44481
1.27251
1.03676
0.758616
0.458943
0.156048
-0.135385
-0.404394
-0.64329
-0.846977
-1.01227
-1.1373
-1.22106
-1.26304
1.26867
1.19704
1.06081
0.87243
0.647315
0.401411
0.149399
-0.0963027
-0.325868
-0.531938
-0.709261