/*--------------------------------*- C++ -*----------------------------------*\
| =========                 |                                                 |
| \\      /  F ield         | OpenFOAM: The Open Source CFD Toolbox           |
|  \\    /   O peration     | Version:  5.x                                   |
|   \\  /    A nd           | Web:      www.OpenFOAM.org                      |
|    \\/     M anipulation  |                                                 |
\*---------------------------------------------------------------------------*/
FoamFile
{
    version     2.0;
    format      ascii;
    class       volScalarField;
    location    "13.6";
    object      T;
}
// * * * * * * * * * * * * * * * * * * * * * * * * * * * * * * * * * * * * * //

dimensions      [0 0 0 1 0 0 0];

internalField   nonuniform List<scalar> 
6300
(
10.0464
10.1406
10.2393
10.3454
10.4616
10.5906
10.7347
10.8958
11.0756
11.275
11.4945
11.7335
11.9911
12.2653
12.5536
10.0449
10.1361
10.2319
10.3352
10.4488
10.5755
10.7175
10.8771
11.0559
11.255
11.4747
11.7149
11.9744
12.2512
12.5426
10.0418
10.1271
10.217
10.3147
10.423
10.5449
10.6828
10.8392
11.0159
11.2141
11.4345
11.677
11.9403
12.2224
12.5203
10.0373
10.1134
10.1944
10.2834
10.3836
10.4981
10.6297
10.781
10.9542
11.151
11.3722
11.6181
11.8873
12.1777
12.4859
10.031
10.0948
10.1636
10.2409
10.33
10.4342
10.5568
10.7008
10.8689
11.0632
11.2854
11.5356
11.8131
12.1152
12.4379
10.0231
10.0712
10.1245
10.1866
10.2612
10.352
10.4625
10.5964
10.7572
10.9477
11.1703
11.426
11.714
12.0319
12.3746
10.0135
10.0422
10.0764
10.1198
10.1763
10.2498
10.3447
10.4652
10.6156
10.8001
11.0221
11.2838
11.5852
11.9236
12.2931
10.002
10.0078
10.0192
10.04
10.0742
10.1264
10.2012
10.3039
10.44
10.615
10.8342
11.1017
11.4192
11.7843
12.1896
9.98867
9.96784
9.95251
9.94657
9.95426
9.98026
10.0299
10.1093
10.2253
10.3855
10.5979
10.8697
11.2055
11.6047
12.0585
9.97354
9.92235
9.87642
9.83955
9.81594
9.81045
9.82882
9.87797
9.96631
10.1039
10.3022
10.5735
10.9283
11.3705
11.891
9.95667
9.87158
9.79128
9.71925
9.65948
9.61674
9.59689
9.60744
9.65806
9.76137
9.93347
10.1939
10.5635
11.0577
11.6725
9.93824
9.81603
9.69784
9.58666
9.48598
9.4001
9.33455
9.29678
9.29708
9.35002
9.47633
9.70502
10.074
10.6243
11.3752
9.91849
9.75644
9.59738
9.44356
9.29767
9.16309
9.04439
8.94801
8.88343
8.86526
8.91676
9.07576
9.40325
9.99002
10.935
9.89777
9.69386
9.49167
9.29253
9.09801
8.91018
8.7319
8.5674
8.42333
8.31078
8.24963
8.27793
8.47313
8.99748
10.1678
9.87648
9.62954
9.38292
9.13685
8.89164
8.64769
8.4056
8.16634
7.93166
7.70486
7.493
7.31317
7.21379
7.35891
8.40524
12.8277
13.0822
13.3398
13.5984
13.8557
14.1098
14.359
14.6015
14.8361
15.0614
15.2766
15.4808
15.6734
15.854
16.022
16.1773
16.3196
16.4489
16.565
16.6679
16.7576
16.8343
16.898
16.9489
16.987
17.0126
17.0258
17.0269
17.016
16.9934
16.9592
16.9137
16.8572
16.7897
16.7117
16.6231
16.5244
16.4156
16.297
16.1687
16.0311
15.8843
15.7285
15.564
15.3909
15.2095
15.02
14.8227
14.6176
14.405
14.185
13.9579
13.7238
13.4827
13.235
12.9807
12.7201
12.4533
12.1805
11.902
11.6181
11.3288
11.0346
10.7357
10.4324
10.1249
9.81356
9.49876
9.18085
8.86024
8.5374
8.21288
7.88724
7.56116
7.23535
6.91056
6.58761
6.26734
5.9506
5.63827
5.33119
5.03018
4.73603
4.44947
4.17117
3.90168
3.6415
3.39098
3.15037
2.91979
12.8201
13.0777
13.3384
13.6
13.8601
14.1169
14.3684
14.6129
14.8491
15.0759
15.2922
15.4974
15.6907
15.8718
16.0402
16.1958
16.3383
16.4676
16.5837
16.6866
16.7763
16.8528
16.9164
16.967
17.0049
17.0302
17.0431
17.0439
17.0327
17.0097
16.9753
16.9295
16.8726
16.8049
16.7265
16.6377
16.5386
16.4295
16.3106
16.1821
16.0441
15.897
15.7409
15.576
15.4027
15.221
15.0312
14.8336
14.6282
14.4154
14.1952
13.9679
13.7335
13.4922
13.2443
12.9897
12.7288
12.4617
12.1886
11.9098
11.6255
11.3359
11.0413
10.742
10.4382
10.1303
9.81846
9.50312
9.18461
8.86333
8.53974
8.21436
7.88779
7.56069
7.23377
6.90782
6.58367
6.26216
5.94419
5.63064
5.32237
5.02024
4.72504
4.43754
4.15841
3.88824
3.62753
3.37667
3.13589
2.90533
12.8045
13.0685
13.3356
13.6034
13.8694
14.1314
14.3875
14.6361
14.8757
15.1052
15.3238
15.5307
15.7254
15.9075
16.0768
16.2329
16.3757
16.5052
16.6214
16.7241
16.8136
16.8899
16.953
17.0032
17.0406
17.0654
17.0778
17.0779
17.0661
17.0425
17.0074
16.961
16.9035
16.8351
16.7562
16.6667
16.5671
16.4574
16.3379
16.2088
16.0702
15.9224
15.7657
15.6002
15.4262
15.2439
15.0535
14.8553
14.6495
14.4362
14.2155
13.9877
13.7529
13.5112
13.2628
13.0077
12.7463
12.4786
12.2048
11.9253
11.6403
11.3499
11.0546
10.7545
10.4499
10.1411
9.82833
9.51193
9.19224
8.86962
8.54452
8.21746
7.88901
7.55985
7.23071
6.90242
6.57582
6.25182
5.93135
5.61532
5.30465
5.00023
4.70292
4.41349
4.13268
3.86113
3.59935
3.34777
3.10666
2.87615
12.7806
13.0547
13.3319
13.6093
13.8842
14.1543
14.4175
14.672
14.9166
15.1502
15.372
15.5815
15.7781
15.9617
16.132
16.2888
16.4321
16.5619
16.678
16.7806
16.8698
16.9456
17.0082
17.0577
17.0943
17.1183
17.1298
17.129
17.1162
17.0917
17.0556
17.0082
16.9498
16.8805
16.8006
16.7103
16.6098
16.4992
16.3788
16.2488
16.1093
15.9606
15.8029
15.6364
15.4615
15.2782
15.087
14.888
14.6813
14.4673
14.246
14.0176
13.7821
13.5398
13.2906
13.0348
12.7725
12.5039
12.2292
11.9487
11.6626
11.3711
11.0746
10.7733
10.4675
10.1574
9.8433
9.52538
9.20396
8.87938
8.55204
8.22244
7.89115
7.55887
7.22636
6.89448
6.56415
6.23633
5.91202
5.5922
5.27786
4.96995
4.66937
4.37699
4.09359
3.81987
3.55644
3.30376
3.06214
2.83171
12.7478
13.0362
13.3276
13.6186
13.906
14.1871
14.4596
14.7221
14.9731
15.2119
15.4378
15.6504
15.8495
16.0349
16.2064
16.3641
16.5079
16.6379
16.754
16.8563
16.945
17.0201
17.0819
17.1305
17.1661
17.1889
17.1992
17.1972
17.1831
17.1572
17.1198
17.0712
17.0115
16.941
16.8599
16.7684
16.6667
16.555
16.4334
16.3022
16.1615
16.0115
15.8525
15.6847
15.5084
15.3239
15.1315
14.9313
14.7236
14.5087
14.2865
14.0573
13.8211
13.5779
13.3279
13.0711
12.8077
12.5379
12.2619
11.9799
11.6923
11.3994
11.1014
10.7986
10.4912
10.1795
9.86361
9.54375
9.22012
8.89299
8.56271
8.22973
7.89463
7.55811
7.221
6.88422
6.54877
6.21572
5.88614
5.56113
5.24175
4.92903
4.62396
4.32749
4.04049
3.76376
3.49801
3.24378
3.00144
2.77117
12.7052
13.0132
13.324
13.633
13.9367
14.2318
14.5163
14.7884
15.0472
15.292
15.5226
15.7388
15.9405
16.1278
16.3007
16.4592
16.6035
16.7336
16.8496
16.9515
17.0395
17.1137
17.1745
17.2218
17.256
17.2774
17.2861
17.2825
17.2667
17.2392
17.2001
17.1498
17.0885
17.0165
16.9339
16.841
16.7379
16.6248
16.5018
16.3691
16.2268
16.0752
15.9145
15.745
15.567
15.3809
15.1868
14.9853
14.7763
14.5602
14.3371
14.107
13.8698
13.6258
13.3747
13.1168
12.852
12.5807
12.3029
12.0192
11.7297
11.4348
11.1349
10.8302
10.521
10.2074
9.88953
9.56742
9.24121
8.91103
8.57716
8.23998
7.90006
7.55813
7.21508
6.87195
6.52986
6.19001
5.85362
5.52188
5.19598
4.87703
4.56612
4.26429
3.97254
3.69181
3.42293
3.16662
2.92334
2.69332
12.6518
12.9862
13.3226
13.6551
13.9794
14.292
14.5905
14.8738
15.1412
15.3926
15.628
15.8477
16.052
16.2412
16.4153
16.5747
16.7194
16.8495
16.9652
17.0664
17.1536
17.2267
17.286
17.3318
17.3643
17.3839
17.3906
17.385
17.3672
17.3375
17.2964
17.2441
17.1808
17.1069
17.0226
16.928
16.8233
16.7086
16.584
16.4495
16.3054
16.1518
15.9891
15.8174
15.6372
15.4489
15.253
15.0496
14.8391
14.6218
14.3975
14.1665
13.9285
13.6835
13.4313
13.1721
12.9057
12.6324
12.3526
12.0665
11.7746
11.4774
11.1752
10.8683
10.557
10.2414
9.92138
9.5969
9.26788
8.9343
8.59626
8.25407
7.90828
7.55965
7.20919
6.85809
6.50765
6.15926
5.81432
5.47418
5.14012
4.81339
4.49514
4.18653
3.88868
3.60273
3.32973
3.07064
2.82612
2.59648
12.5864
12.9563
13.3264
13.6891
14.0389
14.372
14.6866
14.982
15.2582
15.5159
15.7558
15.9787
16.1852
16.3759
16.5512
16.7112
16.8561
16.9861
17.1012
17.2017
17.2876
17.3592
17.4169
17.4608
17.4912
17.5085
17.5129
17.5048
17.4844
17.4523
17.4086
17.3538
17.2882
17.2122
17.1258
17.0294
16.9229
16.8065
16.6801
16.5437
16.3975
16.2415
16.0762
15.9018
15.7189
15.5279
15.3295
15.124
14.9117
14.693
14.4677
14.2358
13.9971
13.7513
13.4981
13.2374
12.9691
12.6936
12.411
12.122
11.8271
11.5269
11.222
10.9127
10.5992
10.2816
9.95953
9.63281
9.30102
8.96387
8.62123
8.27327
7.92049
7.56373
7.20415
6.84318
6.48241
6.12348
5.76805
5.41763
5.07367
4.73746
4.41024
4.09322
3.78766
3.49494
3.21648
2.95363
2.70743
2.47838
12.5078
12.926
13.3407
13.7416
14.1221
14.4787
14.8103
15.1175
15.4017
15.6646
15.9079
16.133
16.341
16.5328
16.7087
16.8691
17.0142
17.1438
17.2582
17.3576
17.442
17.5118
17.5673
17.6089
17.6368
17.6514
17.6529
17.6419
17.6185
17.5833
17.5366
17.4789
17.4106
17.332
17.2434
17.145
17.0367
16.9185
16.7903
16.6519
16.5032
16.3446
16.1761
15.9983
15.8119
15.6176
15.416
15.2078
14.9935
14.7733
14.5472
14.3148
14.0758
13.8295
13.5755
13.3134
13.043
12.7646
12.4786
12.1858
11.887
11.5832
11.275
10.9629
10.6473
10.3279
10.0043
9.6759
9.34178
9.00122
8.65374
8.2993
7.93833
7.57177
7.20103
6.8279
6.45441
6.08261
5.71446
5.35173
4.99598
4.64854
4.31061
3.98334
3.6681
3.36657
3.08071
2.81261
2.56403
2.33585
12.4149
12.9006
13.3748
13.8235
14.2396
14.6211
14.969
15.2861
15.5758
15.8415
16.086
16.3117
16.5201
16.7122
16.8885
17.0491
17.1941
17.3233
17.4368
17.5347
17.6172
17.6847
17.7377
17.7764
17.8013
17.8127
17.811
17.7965
17.7695
17.7306
17.6803
17.619
17.5475
17.466
17.375
17.2745
17.1645
17.0448
16.9149
16.7745
16.6233
16.4614
16.2892
16.1071
15.9162
15.7174
15.5118
15.3004
15.0837
14.8621
14.6354
14.4032
14.1647
13.9188
13.6644
13.401
13.1282
12.8463
12.5559
12.2581
11.9542
11.6455
11.3333
11.0182
10.7006
10.3801
10.056
9.72706
9.3917
9.04841
8.69618
8.33463
7.96411
7.58572
7.20125
6.81307
6.4239
6.03639
5.65299
5.27572
4.90626
4.54588
4.19554
3.8561
3.52876
3.21558
2.91933
2.64344
2.39123
2.16438
12.3084
12.8915
13.4454
13.9521
14.4069
14.8117
15.1719
15.4939
15.7842
16.0485
16.2912
16.5152
16.7225
16.9141
17.0905
17.2515
17.3965
17.5252
17.6376
17.7337
17.8138
17.8785
17.9282
17.9636
17.985
17.9928
17.9873
17.9688
17.9375
17.8942
17.8393
17.7739
17.6984
17.6136
17.5199
17.4175
17.3062
17.1855
17.0546
16.9124
16.7586
16.5931
16.4161
16.2285
16.0316
15.8268
15.6159
15.4002
15.1808
14.9578
14.7314
14.5005
14.264
14.0199
13.7663
13.502
13.2265
12.9401
12.6437
12.339
12.028
11.7129
11.3955
11.0771
10.7578
10.4373
10.1145
9.78735
9.45291
9.10836
8.75193
8.38274
8.00115
7.60832
7.20674
6.79957
6.3909
5.98419
5.58261
5.18839
4.80341
4.42868
4.06475
3.71136
3.36899
3.04016
2.7286
2.44012
2.18188
1.95726
12.1943
12.9245
13.5836
14.1555
14.646
15.0663
15.4297
15.7472
16.0298
16.2866
16.5229
16.7426
16.9471
17.1379
17.3146
17.4765
17.6221
17.7506
17.8616
17.9554
18.0325
18.0935
18.1393
18.1707
18.1881
18.1919
18.1822
18.1591
18.1228
18.0741
18.0136
17.9428
17.8625
17.7739
17.6772
17.5731
17.4611
17.3408
17.2101
17.0669
16.9107
16.7409
16.5582
16.3632
16.1581
15.9447
15.7266
15.5053
15.2827
15.0586
14.8334
14.6058
14.3742
14.1347
13.8834
13.619
13.3402
13.0482
12.7434
12.429
12.1074
11.7834
11.4592
11.137
10.8165
10.4979
10.1792
9.85799
9.52856
9.18529
8.82596
8.44863
8.05427
7.64344
7.22017
6.78818
6.35499
5.92453
5.50158
5.08768
4.68576
4.29588
3.91871
3.55072
3.18969
2.83982
2.50462
2.19322
1.92409
1.70391
12.1009
13.0598
13.8475
14.4759
14.9859
15.4029
15.7534
16.0504
16.3124
16.5541
16.7785
16.9914
17.1914
17.382
17.5595
17.725
17.872
18.0011
18.1101
18.2011
18.2739
18.3304
18.3711
18.3975
18.4106
18.4102
18.396
18.3681
18.3258
18.2706
18.2024
18.1251
18.0385
17.9455
17.8451
17.7398
17.6279
17.5108
17.3832
17.24
17.0822
16.907
16.7178
16.5123
16.2963
16.0693
15.8417
15.6123
15.3864
15.1608
14.9388
14.7166
14.4955
14.2662
14.0192
13.7563
13.4729
13.1743
12.8569
12.5291
12.19
11.8542
11.5199
11.1943
10.8723
10.5586
10.2474
9.94029
9.62403
9.28524
8.92581
8.5389
8.13103
7.69635
7.24609
6.77842
6.31505
5.85396
5.40745
4.96965
4.5507
4.14472
3.75943
3.37999
2.99427
2.61834
2.24632
1.88545
1.59577
1.3866
12.1529
13.4416
14.3405
14.9666
15.4595
15.8353
16.1537
16.404
16.624
16.8465
17.0503
17.2587
17.4491
17.6446
17.8214
18.0001
18.1473
18.2804
18.3844
18.4728
18.5385
18.5896
18.6232
18.6433
18.6523
18.6483
18.6295
18.5975
18.5473
18.4856
18.4042
18.3204
18.2235
18.1275
18.0199
17.9156
17.8021
17.6955
17.5788
17.4339
17.2785
17.093
16.9006
16.6761
16.4502
16.1947
15.9591
15.714
15.4897
15.2573
15.0445
14.8256
14.6285
14.423
14.1779
13.923
13.6274
13.3275
12.985
12.6455
12.2676
11.9226
11.5679
11.2462
10.9159
10.6157
10.3095
10.0356
9.75184
9.4148
9.06511
8.65924
8.24628
7.77161
7.29699
6.76238
6.27176
5.76235
5.30069
4.82441
4.39693
3.96371
3.59166
3.21827
2.78471
2.39122
1.97193
1.47513
1.15148
0.974287
12.9479
14.3845
15.226
15.6493
16.1013
16.35
16.6522
16.8009
16.9319
17.1656
17.3154
17.5516
17.6993
17.934
18.0803
18.3204
18.4429
18.6011
18.6811
18.777
18.8239
18.8739
18.8944
18.9048
18.9125
18.9074
18.8815
18.8531
18.7851
18.7287
18.6093
18.5346
18.4069
18.3259
18.1896
18.1045
17.966
17.8945
17.8149
17.6427
17.518
17.2887
17.1295
16.842
16.6462
16.2913
16.0898
15.7855
15.6045
15.3256
15.1585
14.9031
14.7735
14.6367
14.3502
14.1484
13.7876
13.5421
13.1084
12.8172
12.2977
12.0049
11.5683
11.3102
10.9161
10.6813
10.3251
10.145
9.95623
9.56245
9.2852
8.7897
8.4503
7.8467
7.43418
6.68291
6.25544
5.60191
5.21492
4.60884
4.25136
3.69459
3.42576
3.14317
2.5174
2.20121
1.80912
0.815463
0.496287
0.411396
2.67717
2.4267
2.18995
1.96623
1.75469
1.55434
1.36412
1.18292
1.00961
0.843078
0.682205
0.525915
0.373156
0.222899
0.0741343
2.66293
2.41295
2.17689
1.95403
1.74347
1.54419
1.35508
1.17501
1.00283
0.837403
0.677612
0.522378
0.37065
0.221404
0.0736373
2.63422
2.38523
2.1506
1.92951
1.72096
1.52385
1.33699
1.1592
0.989286
0.826078
0.668455
0.515329
0.365657
0.218425
0.0726476
2.59052
2.34313
2.11074
1.89241
1.68699
1.49322
1.30982
1.13551
0.969018
0.80916
0.65479
0.504821
0.358219
0.213991
0.0711741
2.53108
2.28598
2.05681
1.84239
1.64134
1.45221
1.27355
1.10396
0.942107
0.786744
0.636715
0.49094
0.348403
0.208142
0.0692314
2.45477
2.21287
1.98811
1.77897
1.58374
1.40071
1.2282
1.06467
0.908693
0.758984
0.614379
0.473814
0.336307
0.20094
0.0668402
2.3601
2.12259
1.90377
1.70161
1.51394
1.33867
1.17386
1.01781
0.868997
0.726112
0.587996
0.453623
0.322065
0.192468
0.0640286
2.24506
2.01358
1.80274
1.60973
1.43172
1.26614
1.11076
0.963691
0.823364
0.68846
0.557863
0.430612
0.305859
0.182837
0.0608338
2.10692
1.8839
1.68388
1.50283
1.33706
1.1834
1.03933
0.90282
0.772297
0.646492
0.524377
0.405098
0.287918
0.172186
0.0573021
1.94205
1.73119
1.54601
1.38065
1.23025
1.09106
0.96031
0.835956
0.716503
0.600825
0.48805
0.377479
0.268526
0.160684
0.05349
1.74549
1.55279
1.38829
1.2435
1.11222
0.990281
0.874882
0.764179
0.656925
0.552248
0.449514
0.348236
0.24802
0.14853
0.0494637
1.51056
1.34617
1.21086
1.0928
0.984854
0.882941
0.784746
0.688944
0.594761
0.501721
0.409516
0.317927
0.226786
0.135952
0.0452975
1.22908
1.11045
1.01617
0.931966
0.851439
0.771874
0.692206
0.612082
0.531445
0.450353
0.368896
0.287165
0.205241
0.123192
0.0410715
0.894386
0.850351
0.811376
0.767451
0.717052
0.660899
0.600113
0.535725
0.468579
0.399345
0.328545
0.256593
0.18382
0.110501
0.0368676
0.516549
0.585186
0.611528
0.609399
0.588411
0.55455
0.511615
0.462118
0.407797
0.349897
0.289342
0.226838
0.162945
0.0981219
0.0327653
9.85687
9.57029
9.28271
8.99335
8.7013
8.40535
8.10386
7.7945
7.47371
7.1357
6.77004
6.355
5.83521
5.0307
3.206
9.83927
9.51712
9.19283
8.86477
8.53097
8.18887
7.83501
7.46437
7.06932
6.63746
6.14706
5.55667
4.77966
3.6226
1.66501
9.82215
9.46543
9.10556
8.74016
8.36638
7.98055
7.57779
7.15118
6.69048
6.17985
5.59351
4.8879
3.98801
2.77041
1.07707
9.80574
9.41592
9.02213
8.62138
8.21014
7.78399
7.33713
6.86165
6.34631
5.77479
5.12277
4.35404
3.41699
2.24859
0.809127
9.79022
9.36917
8.94352
8.50987
8.06425
7.6018
7.11634
6.59977
6.04115
5.42563
4.73305
3.93705
3.0066
1.915
0.66534
9.77575
9.32561
8.87047
8.40667
7.93003
7.43557
6.91716
6.36707
5.7755
5.12997
4.41514
3.61343
2.70811
1.69117
0.577817
9.76241
9.28551
8.80342
8.31238
7.80819
7.28598
6.73996
6.16319
5.5473
4.88243
4.15756
3.36176
2.48713
1.53427
0.519657
9.75025
9.24903
8.74259
8.22723
7.69886
7.1529
6.58411
5.98646
5.3531
4.67654
3.94923
3.16482
2.32048
1.42027
0.478648
9.73928
9.21616
8.68796
8.1511
7.60174
7.03568
6.44831
5.83452
5.18889
4.50589
3.78055
3.0095
2.19262
1.33501
0.448527
9.72948
9.18683
8.63934
8.08364
7.5162
6.93327
6.33083
5.7047
5.05063
4.36465
3.6436
2.88599
2.09304
1.26979
0.42575
9.72079
9.16086
8.59641
8.02433
7.44143
6.84439
6.22981
5.59427
4.93452
4.24774
3.53205
2.78703
2.01449
1.21901
0.408152
9.71314
9.13804
8.55877
7.97253
7.37647
6.76769
6.14334
5.50066
4.83717
4.15092
3.44085
2.70718
1.95188
1.17892
0.394332
9.70645
9.1181
8.52598
7.92756
7.32033
6.70181
6.0696
5.42149
4.75561
4.07064
3.36603
2.64236
1.90151
1.14691
0.38334
9.70064
9.10079
8.49755
7.8887
7.27204
6.64543
6.00689
5.35466
4.68732
4.00398
3.30446
2.58945
1.86071
1.12111
0.37451
9.69561
9.08582
8.47303
7.85527
7.23064
6.59733
5.95369
5.29831
4.63014
3.94857
3.25363
2.54607
1.82745
1.10017
0.367359
9.69127
9.07293
8.45195
7.82661
7.19528
6.55641
5.90864
5.25085
4.58225
3.90245
3.21158
2.51037
1.80021
1.08308
0.361532
9.68755
9.06188
8.4339
7.80212
7.16514
6.52166
5.87055
5.21091
4.54214
3.864
3.17669
2.48089
1.77779
1.06906
0.356758
9.68437
9.05242
8.41848
7.78125
7.13952
6.4922
5.83837
5.1773
4.50853
3.83193
3.1477
2.45649
1.75929
1.0575
0.35283
9.68165
9.04436
8.40534
7.76349
7.11778
6.46727
5.81122
5.14903
4.48036
3.80514
3.12358
2.43623
1.74397
1.04796
0.349587
9.67933
9.0375
8.39418
7.74842
7.09935
6.4462
5.78833
5.12527
4.45675
3.78274
3.10346
2.41939
1.73126
1.04005
0.346901
9.67737
9.03167
8.3847
7.73565
7.08377
6.42841
5.76904
5.10529
4.43695
3.76401
3.08668
2.40536
1.72069
1.03348
0.344672
9.6757
9.02673
8.37668
7.72484
7.07059
6.41339
5.7528
5.0885
4.42035
3.74834
3.07265
2.39366
1.71189
1.02801
0.342819
9.67429
9.02255
8.36988
7.7157
7.05947
6.40073
5.73912
5.07439
4.40642
3.73521
3.06093
2.38389
1.70455
1.02345
0.341275
9.67309
9.01901
8.36414
7.70798
7.05009
6.39007
5.72762
5.06254
4.39473
3.72421
3.05112
2.37573
1.69842
1.01965
0.339987
9.67208
9.01603
8.3593
7.70147
7.04218
6.38108
5.71794
5.05258
4.38492
3.71499
3.04291
2.36891
1.6933
1.01648
0.338912
9.67123
9.01351
8.35521
7.69599
7.03552
6.37353
5.70981
5.04422
4.3767
3.70727
3.03604
2.3632
1.68902
1.01383
0.338013
9.67051
9.01138
8.35177
7.69136
7.02991
6.36717
5.70297
5.03719
4.36979
3.70079
3.03028
2.35842
1.68543
1.01161
0.337262
9.66991
9.00959
8.34887
7.68748
7.02519
6.36183
5.69723
5.0313
4.36401
3.69536
3.02545
2.35441
1.68244
1.00975
0.336634
9.6694
9.00809
8.34643
7.68421
7.02123
6.35734
5.69241
5.02636
4.35915
3.69082
3.02141
2.35107
1.67993
1.0082
0.336109
9.66897
9.00682
8.34438
7.68146
7.0179
6.35357
5.68836
5.02221
4.35509
3.68701
3.01803
2.34826
1.67783
1.0069
0.335669
9.66862
9.00576
8.34266
7.67916
7.01511
6.35042
5.68498
5.01874
4.35168
3.68382
3.01521
2.34592
1.67608
1.00582
0.335302
9.66831
9.00487
8.34122
7.67723
7.01278
6.34777
5.68214
5.01584
4.34884
3.68116
3.01284
2.34396
1.67461
1.00491
0.334996
9.66806
9.00413
8.34002
7.67562
7.01083
6.34557
5.67978
5.01341
4.34646
3.67894
3.01087
2.34233
1.67339
1.00416
0.33474
9.66785
9.00351
8.33902
7.67428
7.0092
6.34373
5.67781
5.0114
4.34449
3.67709
3.00924
2.34098
1.67238
1.00353
0.334528
9.66768
9.003
8.33819
7.67316
7.00786
6.34221
5.67618
5.00973
4.34285
3.67556
3.00788
2.33985
1.67154
1.00301
0.334353
9.66754
9.00258
8.3375
7.67225
7.00675
6.34096
5.67483
5.00835
4.34151
3.6743
3.00677
2.33893
1.67085
1.00259
0.334208
9.66742
9.00223
8.33694
7.6715
7.00585
6.33994
5.67374
5.00723
4.34041
3.67328
3.00586
2.33818
1.67029
1.00224
0.334091
9.66733
9.00195
8.33649
7.6709
7.00512
6.33911
5.67286
5.00633
4.33953
3.67245
3.00513
2.33757
1.66984
1.00196
0.333996
9.66725
9.00174
8.33614
7.67043
7.00454
6.33847
5.67216
5.00562
4.33883
3.6718
3.00455
2.3371
1.66948
1.00174
0.333922
9.6672
9.00157
8.33587
7.67007
7.00411
6.33797
5.67164
5.00508
4.33831
3.67131
3.00411
2.33674
1.66921
1.00157
0.333865
9.66716
9.00145
8.33568
7.66981
7.0038
6.33762
5.67126
5.0047
4.33793
3.67096
3.0038
2.33648
1.66902
1.00145
0.333825
9.66713
9.00138
8.33556
7.66965
7.0036
6.3374
5.67102
5.00446
4.33769
3.67074
3.00361
2.33632
1.6689
1.00138
0.333799
9.66712
9.00134
8.33551
7.66958
7.00352
6.33731
5.67092
5.00435
4.33759
3.67064
3.00352
2.33624
1.66884
1.00134
0.333788
9.66712
9.00135
8.33552
7.66959
7.00354
6.33733
5.67094
5.00437
4.33761
3.67066
3.00354
2.33626
1.66885
1.00135
0.333791
9.66714
9.0014
8.3356
7.6697
7.00367
6.33747
5.6711
5.00453
4.33777
3.67081
3.00367
2.33637
1.66893
1.0014
0.333807
9.66717
9.00149
8.33575
7.6699
7.0039
6.33774
5.67139
5.00483
4.33806
3.67108
3.00391
2.33657
1.66908
1.00149
0.333838
9.66722
9.00163
8.33597
7.67019
7.00426
6.33815
5.67182
5.00527
4.33849
3.67148
3.00427
2.33686
1.6693
1.00163
0.333885
9.66728
9.00181
8.33627
7.67059
7.00475
6.33869
5.67241
5.00587
4.33908
3.67203
3.00475
2.33726
1.6696
1.00182
0.333948
9.66736
9.00205
8.33666
7.67111
7.00538
6.33941
5.67317
5.00665
4.33984
3.67275
3.00538
2.33779
1.67
1.00206
0.334029
9.66746
9.00236
8.33714
7.67177
7.00617
6.3403
5.67413
5.00763
4.3408
3.67364
3.00618
2.33845
1.67049
1.00236
0.334132
9.66759
9.00273
8.33775
7.67258
7.00715
6.34141
5.67532
5.00885
4.34199
3.67475
3.00716
2.33926
1.6711
1.00274
0.33426
9.66774
9.00318
8.33849
7.67357
7.00834
6.34276
5.67676
5.01033
4.34344
3.67611
3.00837
2.34026
1.67184
1.0032
0.334415
9.66793
9.00374
8.33938
7.67476
7.00979
6.3444
5.67852
5.01212
4.3452
3.67775
3.00982
2.34146
1.67274
1.00376
0.334604
9.66816
9.0044
8.34046
7.6762
7.01154
6.34637
5.68063
5.01429
4.34732
3.67973
3.01158
2.34292
1.67383
1.00443
0.334831
9.66842
9.0052
8.34175
7.67793
7.01363
6.34873
5.68317
5.01688
4.34986
3.68211
3.01369
2.34466
1.67514
1.00524
0.335105
9.66875
9.00615
8.34329
7.68
7.01613
6.35156
5.6862
5.01999
4.35291
3.68496
3.01622
2.34676
1.6767
1.0062
0.335432
9.66913
9.00729
8.34513
7.68247
7.01912
6.35494
5.68983
5.02371
4.35655
3.68837
3.01924
2.34926
1.67858
1.00736
0.335825
9.66959
9.00864
8.34733
7.68541
7.02268
6.35897
5.69416
5.02814
4.3609
3.69244
3.02285
2.35225
1.68082
1.00875
0.336294
9.67013
9.01026
8.34994
7.68891
7.02692
6.36378
5.69931
5.03343
4.36608
3.6973
3.02717
2.35583
1.68349
1.01041
0.336855
9.67078
9.01217
8.35304
7.69307
7.03197
6.3695
5.70546
5.03973
4.37227
3.7031
3.03232
2.3601
1.68669
1.01239
0.337525
9.67155
9.01445
8.35673
7.69802
7.03798
6.3763
5.71277
5.04724
4.37964
3.71001
3.03846
2.3652
1.69051
1.01475
0.338325
9.67247
9.01715
8.36112
7.7039
7.04511
6.38439
5.72147
5.05618
4.38843
3.71826
3.0458
2.37129
1.69507
1.01758
0.339282
9.67355
9.02036
8.36631
7.71088
7.05358
6.39401
5.73182
5.06682
4.3989
3.7281
3.05455
2.37856
1.70053
1.02096
0.340427
9.67483
9.02415
8.37247
7.71916
7.06364
6.40543
5.74413
5.07949
4.41138
3.73983
3.06501
2.38725
1.70705
1.025
0.341796
9.67635
9.02865
8.37977
7.72897
7.07557
6.41899
5.75877
5.09457
4.42626
3.75383
3.0775
2.39765
1.71486
1.02984
0.343437
9.67814
9.03396
8.38839
7.74057
7.0897
6.43508
5.77615
5.11252
4.44398
3.77054
3.09242
2.41009
1.72421
1.03564
0.345404
9.68026
9.04023
8.39859
7.7543
7.10644
6.45416
5.7968
5.13388
4.46511
3.7905
3.11028
2.42499
1.73543
1.04261
0.347767
9.68275
9.04763
8.41061
7.77052
7.12623
6.47677
5.82132
5.15928
4.49031
3.81434
3.13166
2.44286
1.7489
1.05099
0.350609
9.68569
9.05633
8.42478
7.78965
7.14962
6.50354
5.85041
5.1895
4.52035
3.84285
3.15728
2.46433
1.7651
1.06107
0.354034
9.68913
9.06655
8.44144
7.81217
7.17722
6.5352
5.88491
5.22544
4.55619
3.87696
3.18803
2.49015
1.78464
1.07326
0.358173
9.69317
9.07853
8.46098
7.83864
7.20973
6.57259
5.92579
5.26818
4.59896
3.91781
3.22497
2.52129
1.80825
1.088
0.363189
9.69788
9.09252
8.48385
7.86968
7.24794
6.61669
5.97418
5.31896
4.65001
3.96679
3.26945
2.55891
1.83688
1.10592
0.369291
9.70336
9.10883
8.51052
7.90597
7.29276
6.6686
6.03138
5.37929
4.71095
4.02557
3.32311
2.60449
1.8717
1.12778
0.376746
9.70972
9.12775
8.54154
7.94827
7.34519
6.72958
6.09891
5.45091
4.78374
4.09619
3.38798
2.65993
1.91425
1.15459
0.385903
9.71706
9.14961
8.57745
7.9974
7.4063
6.80101
6.17847
5.53583
4.87066
4.18118
3.46662
2.7276
1.96651
1.18766
0.397229
9.72549
9.17475
8.61883
8.0542
7.47728
6.88442
6.27198
5.6364
4.97446
4.28357
3.56223
2.81061
2.0311
1.22877
0.411351
9.73512
9.20349
8.66625
8.11952
7.55931
6.98143
6.38155
5.75528
5.09837
4.4071
3.67887
2.91297
2.11153
1.28035
0.429146
9.74604
9.23614
8.72025
8.19421
7.65361
7.09372
6.50945
5.89543
5.24613
4.5563
3.82167
3.04001
2.21262
1.34583
0.451864
9.75833
9.27294
8.7813
8.27901
7.7613
7.22292
6.65801
6.06006
5.42202
4.73661
3.99712
3.19881
2.34107
1.43017
0.481366
9.77206
9.31408
8.84974
8.3745
7.88334
7.37054
6.8295
6.25254
5.6308
4.95447
4.21341
3.39886
2.50644
1.54082
0.520541
9.78723
9.35963
8.92575
8.48106
8.0204
7.53776
7.02593
6.47609
5.8775
5.21727
4.48074
3.65297
2.72265
1.68942
0.574162
9.80382
9.40953
9.00928
8.59869
8.17271
7.72526
7.24874
6.73349
6.16698
5.53305
4.81141
3.97828
3.01031
1.89499
0.65074
9.82177
9.46356
9.09998
8.727
8.33993
7.93292
7.49845
7.02648
6.50326
5.90973
5.21949
4.39724
3.40027
2.19009
0.76706
9.84093
9.52133
9.19719
8.8651
8.52098
8.15964
7.77419
7.35504
6.88837
6.35355
5.71922
4.93751
3.93829
2.633
0.960519
9.86112
9.58223
9.29992
9.01156
8.71397
8.40309
8.07331
7.71659
7.32077
6.86647
6.32129
5.62881
4.68883
3.33091
1.32658
9.88207
9.64552
9.40684
9.1644
8.9162
8.65965
8.39112
8.10529
7.79377
7.44246
7.02563
6.49197
5.72958
4.47768
2.14321
9.9035
9.71028
9.51637
9.32123
9.12422
8.9245
8.72093
8.51179
8.29438
8.06393
7.81106
7.51393
7.11024
6.37623
4.31536
9.92509
9.77553
9.62674
9.47935
9.3341
9.19202
9.05458
8.92403
8.80401
8.70095
8.6272
8.60986
8.72024
9.19615
11.0499
9.9465
9.84022
9.73614
9.63596
9.54176
9.4563
9.38343
9.32891
9.30183
9.31757
9.40413
9.61704
10.0764
11.0592
13.1905
9.96742
9.90338
9.84282
9.7884
9.74334
9.71181
9.69952
9.71472
9.76989
9.88497
10.0933
10.4531
11.0689
12.1246
13.9031
0.212426
0.380882
0.454427
0.481798
0.482282
0.465376
0.4365
0.399062
0.355355
0.307
0.255188
0.200833
0.144659
0.0872629
0.0291642
0.114003
0.261057
0.343668
0.384464
0.397874
0.392617
0.374155
0.346089
0.310907
0.270399
0.225903
0.178454
0.128882
0.0778786
0.0260495
0.0717972
0.185981
0.261944
0.306145
0.326427
0.329024
0.318476
0.298054
0.270153
0.236566
0.198668
0.157549
0.114097
0.069067
0.0231222
0.0500145
0.137446
0.202276
0.244432
0.267259
0.274558
0.26965
0.255211
0.233347
0.205724
0.173667
0.138261
0.100409
0.0608899
0.0204026
0.0369798
0.104604
0.158353
0.196141
0.21887
0.228567
0.227442
0.21752
0.20054
0.177958
0.150992
0.120671
0.0878759
0.0533849
0.0179035
0.028344
0.0813979
0.125512
0.158305
0.17953
0.190089
0.19134
0.184729
0.17162
0.153234
0.130646
0.104797
0.0765204
0.0465671
0.0156304
0.0222316
0.0643987
0.100533
0.1285
0.147596
0.158073
0.160696
0.15645
0.146363
0.131428
0.112563
0.0906082
0.0663286
0.0404319
0.0135822
0.0177137
0.0515883
0.0812253
0.104853
0.121646
0.131509
0.134822
0.132224
0.124472
0.11235
0.096626
0.0780326
0.0572592
0.0349581
0.0117525
0.014274
0.0417201
0.0660897
0.085953
0.100507
0.109493
0.113051
0.111577
0.105614
0.0957711
0.0826808
0.0669702
0.0492502
0.0301121
0.0101306
0.0115992
0.0339881
0.0540829
0.070739
0.0832341
0.0912456
0.0947731
0.0940474
0.0894491
0.0814469
0.0705543
0.0573026
0.0422254
0.0258515
0.00870302
0.00948649
0.0278489
0.0444635
0.0584139
0.0690739
0.0761111
0.0794481
0.0792059
0.0756473
0.0691293
0.0600656
0.0489023
0.0361008
0.0221286
0.00745418
0.00779772
0.0229232
0.0366938
0.0483733
0.057429
0.0635456
0.0666079
0.0666666
0.0639002
0.0585787
0.0510344
0.0416392
0.030789
0.0188931
0.00636773
0.00643523
0.0189382
0.030376
0.0401544
0.0478246
0.0531007
0.0558529
0.0560886
0.0539268
0.0495713
0.043288
0.0353861
0.026203
0.0160945
0.00542713
0.0053279
0.0156926
0.0252104
0.033399
0.0398825
0.0444079
0.0468448
0.0471752
0.0454763
0.0419021
0.0366654
0.0300223
0.0222594
0.013684
0.00461626
0.00442267
0.0130351
0.0209677
0.0278273
0.0332998
0.037165
0.0392993
0.0396706
0.0383277
0.0353871
0.0310192
0.0254359
0.0188799
0.0116151
0.00391982
0.00367915
0.0108495
0.0174699
0.0232185
0.0278331
0.0311238
0.0329776
0.0333559
0.0322883
0.0298629
0.0262167
0.0215249
0.0159923
0.0098451
0.00332358
0.00306612
0.00904564
0.0145775
0.0193971
0.0232854
0.0260803
0.0276803
0.0280452
0.0271914
0.0251863
0.0221399
0.0181975
0.0135315
0.00833493
0.00281458
0.00255913
0.00755258
0.0121797
0.016222
0.019497
0.0218662
0.0232405
0.0235803
0.0228939
0.0212326
0.0186853
0.0153724
0.0114391
0.00704953
0.00238111
0.00213878
0.00631387
0.0101878
0.0135798
0.0163373
0.018343
0.0195189
0.019828
0.0192732
0.0178939
0.0157622
0.012978
0.00966332
0.00595772
0.00201277
0.00178959
0.00528427
0.00853038
0.0113781
0.0136996
0.0153957
0.0163989
0.0166755
0.0162248
0.0150775
0.0132922
0.0109518
0.00815898
0.00503209
0.00170037
0.00149905
0.00442725
0.00714962
0.00954155
0.0114962
0.0129295
0.0137835
0.0140279
0.0136601
0.012704
0.0112076
0.0092396
0.00688658
0.00424866
0.00143587
0.00125704
0.00371311
0.00599826
0.00800864
0.00965472
0.0108655
0.0115912
0.0118052
0.0115038
0.0107057
0.00945024
0.00779475
0.00581195
0.00358664
0.0012123
0.00105531
0.00311765
0.00503766
0.00672863
0.00811546
0.00913815
0.00975427
0.00994035
0.00969233
0.00902498
0.0079706
0.00657712
0.0049057
0.00302807
0.00102362
0.000887092
0.00262099
0.00423607
0.00565977
0.00682901
0.0076931
0.00821585
0.00837686
0.00817197
0.00761292
0.00672639
0.00555244
0.0041426
0.00255754
0.000864648
0.000746843
0.00220682
0.00356735
0.00476756
0.0057544
0.00648501
0.00692856
0.0070674
0.00689748
0.00642821
0.0056817
0.00469154
0.00350114
0.00216188
0.000730946
0.000629994
0.0018617
0.00300992
0.00402349
0.00485767
0.00547621
0.00585283
0.00597229
0.00583081
0.00543597
0.00480618
0.00396964
0.00296302
0.00182987
0.000618734
0.000532782
0.00157453
0.00254597
0.00340395
0.00411067
0.00463535
0.00495562
0.00505834
0.00494002
0.00460685
0.00407419
0.00336581
0.00251275
0.00155198
0.000524806
0.000452103