# vtk DataFile Version 2.0
generated by CFD-lab course output (written by Tobias Neckel) 
ASCII

DATASET STRUCTURED_GRID
DIMENSIONS  17 17 1 
POINTS 289 float

0.000000 0.000000 0
0.062500 0.000000 0
0.125000 0.000000 0
0.187500 0.000000 0
0.250000 0.000000 0
0.312500 0.000000 0
0.375000 0.000000 0
0.437500 0.000000 0
0.500000 0.000000 0
0.562500 0.000000 0
0.625000 0.000000 0
0.687500 0.000000 0
0.750000 0.000000 0
0.812500 0.000000 0
0.875000 0.000000 0
0.937500 0.000000 0
1.000000 0.000000 0
0.000000 0.062500 0
0.062500 0.062500 0
0.125000 0.062500 0
0.187500 0.062500 0
0.250000 0.062500 0
0.312500 0.062500 0
0.375000 0.062500 0
0.437500 0.062500 0
0.500000 0.062500 0
0.562500 0.062500 0
0.625000 0.062500 0
0.687500 0.062500 0
0.750000 0.062500 0
0.812500 0.062500 0
0.875000 0.062500 0
0.937500 0.062500 0
1.000000 0.062500 0
0.000000 0.125000 0
0.062500 0.125000 0
0.125000 0.125000 0
0.187500 0.125000 0
0.250000 0.125000 0
0.312500 0.125000 0
0.375000 0.125000 0
0.437500 0.125000 0
0.500000 0.125000 0
0.562500 0.125000 0
0.625000 0.125000 0
0.687500 0.125000 0
0.750000 0.125000 0
0.812500 0.125000 0
0.875000 0.125000 0
0.937500 0.125000 0
1.000000 0.125000 0
0.000000 0.187500 0
0.062500 0.187500 0
0.125000 0.187500 0
0.187500 0.187500 0
0.250000 0.187500 0
0.312500 0.187500 0
0.375000 0.187500 0
0.437500 0.187500 0
0.500000 0.187500 0
0.562500 0.187500 0
0.625000 0.187500 0
0.687500 0.187500 0
0.750000 0.187500 0
0.812500 0.187500 0
0.875000 0.187500 0
0.937500 0.187500 0
1.000000 0.187500 0
0.000000 0.250000 0
0.062500 0.250000 0
0.125000 0.250000 0
0.187500 0.250000 0
0.250000 0.250000 0
0.312500 0.250000 0
0.375000 0.250000 0
0.437500 0.250000 0
0.500000 0.250000 0
0.562500 0.250000 0
0.625000 0.250000 0
0.687500 0.250000 0
0.750000 0.250000 0
0.812500 0.250000 0
0.875000 0.250000 0
0.937500 0.250000 0
1.000000 0.250000 0
0.000000 0.312500 0
0.062500 0.312500 0
0.125000 0.312500 0
0.187500 0.312500 0
0.250000 0.312500 0
0.312500 0.312500 0
0.375000 0.312500 0
0.437500 0.312500 0
0.500000 0.312500 0
0.562500 0.312500 0
0.625000 0.312500 0
0.687500 0.312500 0
0.750000 0.312500 0
0.812500 0.312500 0
0.875000 0.312500 0
0.937500 0.312500 0
1.000000 0.312500 0
0.000000 0.375000 0
0.062500 0.375000 0
0.125000 0.375000 0
0.187500 0.375000 0
0.250000 0.375000 0
0.312500 0.375000 0
0.375000 0.375000 0
0.437500 0.375000 0
0.500000 0.375000 0
0.562500 0.375000 0
0.625000 0.375000 0
0.687500 0.375000 0
0.750000 0.375000 0
0.812500 0.375000 0
0.875000 0.375000 0
0.937500 0.375000 0
1.000000 0.375000 0
0.000000 0.437500 0
0.062500 0.437500 0
0.125000 0.437500 0
0.187500 0.437500 0
0.250000 0.437500 0
0.312500 0.437500 0
0.375000 0.437500 0
0.437500 0.437500 0
0.500000 0.437500 0
0.562500 0.437500 0
0.625000 0.437500 0
0.687500 0.437500 0
0.750000 0.437500 0
0.812500 0.437500 0
0.875000 0.437500 0
0.937500 0.437500 0
1.000000 0.437500 0
0.000000 0.500000 0
0.062500 0.500000 0
0.125000 0.500000 0
0.187500 0.500000 0
0.250000 0.500000 0
0.312500 0.500000 0
0.375000 0.500000 0
0.437500 0.500000 0
0.500000 0.500000 0
0.562500 0.500000 0
0.625000 0.500000 0
0.687500 0.500000 0
0.750000 0.500000 0
0.812500 0.500000 0
0.875000 0.500000 0
0.937500 0.500000 0
1.000000 0.500000 0
0.000000 0.562500 0
0.062500 0.562500 0
0.125000 0.562500 0
0.187500 0.562500 0
0.250000 0.562500 0
0.312500 0.562500 0
0.375000 0.562500 0
0.437500 0.562500 0
0.500000 0.562500 0
0.562500 0.562500 0
0.625000 0.562500 0
0.687500 0.562500 0
0.750000 0.562500 0
0.812500 0.562500 0
0.875000 0.562500 0
0.937500 0.562500 0
1.000000 0.562500 0
0.000000 0.625000 0
0.062500 0.625000 0
0.125000 0.625000 0
0.187500 0.625000 0
0.250000 0.625000 0
0.312500 0.625000 0
0.375000 0.625000 0
0.437500 0.625000 0
0.500000 0.625000 0
0.562500 0.625000 0
0.625000 0.625000 0
0.687500 0.625000 0
0.750000 0.625000 0
0.812500 0.625000 0
0.875000 0.625000 0
0.937500 0.625000 0
1.000000 0.625000 0
0.000000 0.687500 0
0.062500 0.687500 0
0.125000 0.687500 0
0.187500 0.687500 0
0.250000 0.687500 0
0.312500 0.687500 0
0.375000 0.687500 0
0.437500 0.687500 0
0.500000 0.687500 0
0.562500 0.687500 0
0.625000 0.687500 0
0.687500 0.687500 0
0.750000 0.687500 0
0.812500 0.687500 0
0.875000 0.687500 0
0.937500 0.687500 0
1.000000 0.687500 0
0.000000 0.750000 0
0.062500 0.750000 0
0.125000 0.750000 0
0.187500 0.750000 0
0.250000 0.750000 0
0.312500 0.750000 0
0.375000 0.750000 0
0.437500 0.750000 0
0.500000 0.750000 0
0.562500 0.750000 0
0.625000 0.750000 0
0.687500 0.750000 0
0.750000 0.750000 0
0.812500 0.750000 0
0.875000 0.750000 0
0.937500 0.750000 0
1.000000 0.750000 0
0.000000 0.812500 0
0.062500 0.812500 0
0.125000 0.812500 0
0.187500 0.812500 0
0.250000 0.812500 0
0.312500 0.812500 0
0.375000 0.812500 0
0.437500 0.812500 0
0.500000 0.812500 0
0.562500 0.812500 0
0.625000 0.812500 0
0.687500 0.812500 0
0.750000 0.812500 0
0.812500 0.812500 0
0.875000 0.812500 0
0.937500 0.812500 0
1.000000 0.812500 0
0.000000 0.875000 0
0.062500 0.875000 0
0.125000 0.875000 0
0.187500 0.875000 0
0.250000 0.875000 0
0.312500 0.875000 0
0.375000 0.875000 0
0.437500 0.875000 0
0.500000 0.875000 0
0.562500 0.875000 0
0.625000 0.875000 0
0.687500 0.875000 0
0.750000 0.875000 0
0.812500 0.875000 0
0.875000 0.875000 0
0.937500 0.875000 0
1.000000 0.875000 0
0.000000 0.937500 0
0.062500 0.937500 0
0.125000 0.937500 0
0.187500 0.937500 0
0.250000 0.937500 0
0.312500 0.937500 0
0.375000 0.937500 0
0.437500 0.937500 0
0.500000 0.937500 0
0.562500 0.937500 0
0.625000 0.937500 0
0.687500 0.937500 0
0.750000 0.937500 0
0.812500 0.937500 0
0.875000 0.937500 0
0.937500 0.937500 0
1.000000 0.937500 0
0.000000 1.000000 0
0.062500 1.000000 0
0.125000 1.000000 0
0.187500 1.000000 0
0.250000 1.000000 0
0.312500 1.000000 0
0.375000 1.000000 0
0.437500 1.000000 0
0.500000 1.000000 0
0.562500 1.000000 0
0.625000 1.000000 0
0.687500 1.000000 0
0.750000 1.000000 0
0.812500 1.000000 0
0.875000 1.000000 0
0.937500 1.000000 0
1.000000 1.000000 0
POINT_DATA 289 

VECTORS velocity float
0.000000 0.000000 0
0.000001 0.000000 0
-0.000001 0.000000 0
-0.000001 0.000000 0
-0.000001 0.000000 0
0.000000 0.000000 0
0.000001 0.000000 0
0.000000 0.000000 0
0.000000 0.000000 0
-0.000000 0.000000 0
-0.000000 0.000000 0
-0.000000 0.000000 0
-0.000000 0.000000 0
-0.000000 0.000000 0
0.000000 0.000000 0
0.000000 0.000000 0
0.000000 0.000000 0
0.000000 0.000000 0
-0.000975 0.000936 0
-0.005022 0.002750 0
-0.011424 0.003993 0
-0.018961 0.004432 0
-0.026437 0.004158 0
-0.032830 0.003302 0
-0.037307 0.001981 0
-0.039233 0.000322 0
-0.038216 -0.001500 0
-0.034203 -0.003225 0
-0.027607 -0.004508 0
-0.019401 -0.004978 0
-0.011069 -0.004376 0
-0.004327 -0.002741 0
-0.000561 -0.000685 0
0.000000 0.000000 0
0.000000 -0.000001 0
-0.003111 0.005021 0
-0.011379 0.010446 0
-0.023094 0.013939 0
-0.036291 0.015015 0
-0.049106 0.013871 0
-0.059928 0.010871 0
-0.067438 0.006403 0
-0.070644 0.000908 0
-0.068958 -0.005031 0
-0.062308 -0.010610 0
-0.051321 -0.014802 0
-0.037452 -0.016537 0
-0.022947 -0.015074 0
-0.010490 -0.010508 0
-0.002465 -0.004327 0
0.000000 0.000000 0
0.000000 -0.000000 0
-0.005199 0.012314 0
-0.017505 0.022737 0
-0.033962 0.028909 0
-0.051904 0.030445 0
-0.069019 0.027793 0
-0.083366 0.021630 0
-0.093365 0.012695 0
-0.097816 0.001842 0
-0.095972 -0.009835 0
-0.087661 -0.020861 0
-0.073492 -0.029364 0
-0.055070 -0.033352 0
-0.035076 -0.031337 0
-0.017021 -0.023223 0
-0.004483 -0.011175 0
0.000000 -0.000000 0
0.000000 0.000000 0
-0.007035 0.022528 0
-0.023003 0.039212 0
-0.043716 0.048337 0
-0.065836 0.050068 0
-0.086714 0.045330 0
-0.104228 0.035216 0
-0.116666 0.020853 0
-0.122684 0.003516 0
-0.121350 -0.015184 0
-0.112268 -0.033089 0
-0.095799 -0.047394 0
-0.073427 -0.054954 0
-0.048068 -0.053123 0
-0.024083 -0.041101 0
-0.006597 -0.021348 0
0.000000 -0.000000 0
0.000000 0.000000 0
-0.008626 0.035318 0
-0.027805 0.059417 0
-0.052247 0.071739 0
-0.078021 0.073442 0
-0.102241 0.066185 0
-0.122723 0.051584 0
-0.137718 0.031153 0
-0.145779 0.006527 0
-0.145752 -0.020252 0
-0.136893 -0.046414 0
-0.119100 -0.068205 0
-0.093443 -0.081083 0
-0.062808 -0.080681 0
-0.032350 -0.064694 0
-0.009105 -0.035258 0
0.000000 0.000000 0
0.000000 -0.000000 0
-0.009991 0.050333 0
-0.031889 0.082834 0
-0.059416 0.098553 0
-0.088159 0.100063 0
-0.115125 0.090033 0
-0.138205 0.070693 0
-0.155739 0.043909 0
-0.166250 0.011549 0
-0.168361 -0.024071 0
-0.160902 -0.059741 0
-0.143104 -0.090844 0
-0.115290 -0.111245 0
-0.079876 -0.114216 0
-0.042505 -0.094804 0
-0.012374 -0.053698 0
0.000000 0.000000 0
0.000000 0.000000 0
-0.011160 0.067207 0
-0.035245 0.108843 0
-0.065021 0.128010 0
-0.095706 0.129151 0
-0.124376 0.116231 0
-0.149198 0.092197 0
-0.168791 0.059197 0
-0.181808 0.019149 0
-0.186739 -0.025599 0
-0.181975 -0.071670 0
-0.165954 -0.113817 0
-0.137884 -0.144311 0
-0.099086 -0.153466 0
-0.054967 -0.132197 0
-0.016774 -0.077763 0
0.000000 -0.000000 0
0.000000 0.000000 0
-0.012238 0.085578 0
-0.037984 0.136696 0
-0.068909 0.159014 0
-0.099978 0.159417 0
-0.128591 0.143524 0
-0.153482 0.115108 0
-0.173841 0.076519 0
-0.188715 0.029497 0
-0.196689 -0.023903 0
-0.195832 -0.080526 0
-0.183795 -0.134934 0
-0.158372 -0.178113 0
-0.118997 -0.197133 0
-0.069620 -0.177116 0
-0.022665 -0.108665 0
0.000000 -0.000000 0
0.000000 0.000000 0
-0.013523 0.105190 0
-0.040513 0.165515 0
-0.071127 0.190004 0
-0.100270 0.188832 0
-0.126068 0.169736 0
-0.148230 0.137447 0
-0.166893 0.094430 0
-0.181889 0.041997 0
-0.192269 -0.018483 0
-0.196082 -0.084564 0
-0.190438 -0.151277 0
-0.171608 -0.209109 0
-0.136346 -0.242218 0
-0.085405 -0.228529 0
-0.030346 -0.147383 0
0.000000 0.000000 0
0.000000 -0.000000 0
-0.015690 0.126091 0
-0.043690 0.194300 0
-0.071923 0.218772 0
-0.095751 0.214358 0
-0.114701 0.191484 0
-0.129999 0.155934 0
-0.143133 0.110178 0
-0.155123 0.054872 0
-0.166001 -0.009710 0
-0.174305 -0.082356 0
-0.177183 -0.159408 0
-0.169676 -0.232206 0
-0.145339 -0.283337 0
-0.099672 -0.283115 0
-0.039846 -0.194069 0
0.000000 0.000000 0
0.000000 0.000000 0
-0.020007 0.148881 0
-0.048651 0.221748 0
-0.071058 0.242065 0
-0.084497 0.231610 0
-0.091044 0.203984 0
-0.094070 0.165879 0
-0.096668 0.119554 0
-0.101249 0.064865 0
-0.109226 0.000699 0
-0.120472 -0.073382 0
-0.132945 -0.155906 0
-0.141464 -0.240953 0
-0.136708 -0.312222 0
-0.107074 -0.334021 0
-0.050343 -0.247055 0
0.000000 -0.000000 0
0.000000 0.000000 0
-0.028283 0.174742 0
-0.055228 0.245351 0
-0.064975 0.254618 0
-0.060242 0.234344 0
-0.047289 0.201057 0
-0.032049 0.161558 0
-0.019069 0.117357 0
-0.011782 0.067431 0
-0.012827 0.009513 0
-0.023913 -0.058638 0
-0.044920 -0.138416 0
-0.072415 -0.228443 0
-0.096199 -0.317726 0
-0.097448 -0.369480 0
-0.058700 -0.301144 0
0.000000 -0.000000 0
0.000000 -0.000000 0
-0.040603 0.204109 0
-0.055168 0.258440 0
-0.038132 0.247078 0
-0.003865 0.213924 0
0.035678 0.175792 0
0.073227 0.137659 0
0.104201 0.099287 0
0.125255 0.058623 0
0.133382 0.012830 0
0.125592 -0.041289 0
0.099550 -0.107404 0
0.055023 -0.189673 0
-0.001810 -0.287189 0
-0.051126 -0.371520 0
-0.055581 -0.344503 0
0.000000 0.000000 0
0.000000 -0.000000 0
-0.039721 0.229909 0
-0.007275 0.242879 0
0.058608 0.203315 0
0.130856 0.160535 0
0.197501 0.123964 0
0.254064 0.093035 0
0.298509 0.065329 0
0.329197 0.038250 0
0.344026 0.009175 0
0.340000 -0.024806 0
0.313245 -0.067846 0
0.259501 -0.127083 0
0.176165 -0.211577 0
0.071530 -0.315709 0
-0.012568 -0.352270 0
0.000000 0.000000 0
0.000000 -0.000000 0
0.100093 0.211384 0
0.229909 0.160112 0
0.342972 0.108947 0
0.433225 0.075031 0
0.503507 0.052583 0
0.557189 0.036651 0
0.596542 0.024154 0
0.622518 0.013106 0
0.634792 0.002027 0
0.631694 -0.010508 0
0.609986 -0.026905 0
0.563847 -0.052593 0
0.482903 -0.099218 0
0.352270 -0.182788 0
0.167194 -0.272973 0
0.000000 -0.000000 0
1.000000 0.000000 0
1.000000 0.000000 0
1.000000 0.000000 0
1.000000 0.000000 0
1.000000 0.000000 0
1.000000 0.000000 0
1.000000 0.000000 0
1.000000 0.000000 0
1.000000 0.000000 0
1.000000 0.000000 0
1.000000 0.000000 0
1.000000 0.000000 0
1.000000 0.000000 0
1.000000 0.000000 0
1.000000 0.000000 0
1.000000 0.000000 0
1.000000 0.000000 0

CELL_DATA 256 
SCALARS pressure float 1 
LOOKUP_TABLE default 
-0.017293
-0.018626
-0.019978
-0.020586
-0.020136
-0.018574
-0.016000
-0.012636
-0.008835
-0.005101
-0.001993
-0.000029
0.000476
-0.000406
-0.002100
-0.003525
-0.015970
-0.017366
-0.018442
-0.018864
-0.018459
-0.017182
-0.015089
-0.012340
-0.009207
-0.006116
-0.003528
-0.001870
-0.001397
-0.002062
-0.003464
-0.004949
-0.014535
-0.016486
-0.017706
-0.018175
-0.017879
-0.016821
-0.015036
-0.012628
-0.009803
-0.006940
-0.004482
-0.002868
-0.002405
-0.003135
-0.004796
-0.006935
-0.013895
-0.016514
-0.018041
-0.018677
-0.018537
-0.017661
-0.016059
-0.013776
-0.010962
-0.007970
-0.005273
-0.003399
-0.002792
-0.003644
-0.005804
-0.008855
-0.014709
-0.017960
-0.019830
-0.020686
-0.020730
-0.020012
-0.018500
-0.016173
-0.013121
-0.009662
-0.006326
-0.003788
-0.002716
-0.003537
-0.006239
-0.010367
-0.017500
-0.021308
-0.023504
-0.024593
-0.024832
-0.024260
-0.022785
-0.020303
-0.016822
-0.012578
-0.008148
-0.004391
-0.002308
-0.002703
-0.005817
-0.011177
-0.022730
-0.027010
-0.029483
-0.030781
-0.031213
-0.030797
-0.029365
-0.026698
-0.022675
-0.017375
-0.011342
-0.005635
-0.001701
-0.000940
-0.004089
-0.010799
-0.030812
-0.035472
-0.038128
-0.039558
-0.040150
-0.039910
-0.038580
-0.035783
-0.031209
-0.024678
-0.016532
-0.007978
-0.000999
0.002116
-0.000282
-0.008316
-0.042129
-0.047068
-0.049707
-0.051059
-0.051672
-0.051578
-0.050421
-0.047620
-0.042583
-0.034814
-0.024133
-0.011744
-0.000162
0.007124
0.006919
-0.002032
-0.057130
-0.062197
-0.064356
-0.065115
-0.065361
-0.065225
-0.064247
-0.061583
-0.056247
-0.047385
-0.033927
-0.016771
0.001258
0.015285
0.019722
0.011039
-0.076633
-0.081438
-0.082036
-0.081091
-0.080138
-0.079485
-0.078519
-0.076054
-0.070584
-0.060785
-0.044529
-0.021909
0.004499
0.028679
0.041725
0.035984
-0.102622
-0.105853
-0.102452
-0.097685
-0.094089
-0.092106
-0.090757
-0.088378
-0.082869
-0.071990
-0.053091
-0.024681
0.011819
0.050477
0.078500
0.081165
-0.140265
-0.137412
-0.124724
-0.112617
-0.104352
-0.100102
-0.097869
-0.095305
-0.089577
-0.077544
-0.055965
-0.021741
0.025898
0.084342
0.137742
0.160016
-0.202961
-0.178797
-0.146076
-0.121955
-0.107630
-0.100766
-0.097775
-0.095067
-0.088920
-0.075315
-0.050502
-0.010183
0.049790
0.131664
0.227016
0.294491
-0.323309
-0.228397
-0.158272
-0.118350
-0.098888
-0.091194
-0.088912
-0.087147
-0.081475
-0.067241
-0.040350
0.004704
0.076202
0.186030
0.345421
0.522796
-0.566960
-0.250867
-0.133369
-0.088744
-0.073291
-0.070541
-0.072611
-0.074456
-0.071765
-0.059966
-0.035224
0.009045
0.084598
0.215217
0.450273
0.883817
