# vtk DataFile Version 2.0
generated by CFD-lab course output (written by Tobias Neckel) 
ASCII

DATASET STRUCTURED_GRID
DIMENSIONS  65 65 1 
POINTS 4225 float

0.000000 0.000000 0
0.015625 0.000000 0
0.031250 0.000000 0
0.046875 0.000000 0
0.062500 0.000000 0
0.078125 0.000000 0
0.093750 0.000000 0
0.109375 0.000000 0
0.125000 0.000000 0
0.140625 0.000000 0
0.156250 0.000000 0
0.171875 0.000000 0
0.187500 0.000000 0
0.203125 0.000000 0
0.218750 0.000000 0
0.234375 0.000000 0
0.250000 0.000000 0
0.265625 0.000000 0
0.281250 0.000000 0
0.296875 0.000000 0
0.312500 0.000000 0
0.328125 0.000000 0
0.343750 0.000000 0
0.359375 0.000000 0
0.375000 0.000000 0
0.390625 0.000000 0
0.406250 0.000000 0
0.421875 0.000000 0
0.437500 0.000000 0
0.453125 0.000000 0
0.468750 0.000000 0
0.484375 0.000000 0
0.500000 0.000000 0
0.515625 0.000000 0
0.531250 0.000000 0
0.546875 0.000000 0
0.562500 0.000000 0
0.578125 0.000000 0
0.593750 0.000000 0
0.609375 0.000000 0
0.625000 0.000000 0
0.640625 0.000000 0
0.656250 0.000000 0
0.671875 0.000000 0
0.687500 0.000000 0
0.703125 0.000000 0
0.718750 0.000000 0
0.734375 0.000000 0
0.750000 0.000000 0
0.765625 0.000000 0
0.781250 0.000000 0
0.796875 0.000000 0
0.812500 0.000000 0
0.828125 0.000000 0
0.843750 0.000000 0
0.859375 0.000000 0
0.875000 0.000000 0
0.890625 0.000000 0
0.906250 0.000000 0
0.921875 0.000000 0
0.937500 0.000000 0
0.953125 0.000000 0
0.968750 0.000000 0
0.984375 0.000000 0
1.000000 0.000000 0
0.000000 0.015625 0
0.015625 0.015625 0
0.031250 0.015625 0
0.046875 0.015625 0
0.062500 0.015625 0
0.078125 0.015625 0
0.093750 0.015625 0
0.109375 0.015625 0
0.125000 0.015625 0
0.140625 0.015625 0
0.156250 0.015625 0
0.171875 0.015625 0
0.187500 0.015625 0
0.203125 0.015625 0
0.218750 0.015625 0
0.234375 0.015625 0
0.250000 0.015625 0
0.265625 0.015625 0
0.281250 0.015625 0
0.296875 0.015625 0
0.312500 0.015625 0
0.328125 0.015625 0
0.343750 0.015625 0
0.359375 0.015625 0
0.375000 0.015625 0
0.390625 0.015625 0
0.406250 0.015625 0
0.421875 0.015625 0
0.437500 0.015625 0
0.453125 0.015625 0
0.468750 0.015625 0
0.484375 0.015625 0
0.500000 0.015625 0
0.515625 0.015625 0
0.531250 0.015625 0
0.546875 0.015625 0
0.562500 0.015625 0
0.578125 0.015625 0
0.593750 0.015625 0
0.609375 0.015625 0
0.625000 0.015625 0
0.640625 0.015625 0
0.656250 0.015625 0
0.671875 0.015625 0
0.687500 0.015625 0
0.703125 0.015625 0
0.718750 0.015625 0
0.734375 0.015625 0
0.750000 0.015625 0
0.765625 0.015625 0
0.781250 0.015625 0
0.796875 0.015625 0
0.812500 0.015625 0
0.828125 0.015625 0
0.843750 0.015625 0
0.859375 0.015625 0
0.875000 0.015625 0
0.890625 0.015625 0
0.906250 0.015625 0
0.921875 0.015625 0
0.937500 0.015625 0
0.953125 0.015625 0
0.968750 0.015625 0
0.984375 0.015625 0
1.000000 0.015625 0
0.000000 0.031250 0
0.015625 0.031250 0
0.031250 0.031250 0
0.046875 0.031250 0
0.062500 0.031250 0
0.078125 0.031250 0
0.093750 0.031250 0
0.109375 0.031250 0
0.125000 0.031250 0
0.140625 0.031250 0
0.156250 0.031250 0
0.171875 0.031250 0
0.187500 0.031250 0
0.203125 0.031250 0
0.218750 0.031250 0
0.234375 0.031250 0
0.250000 0.031250 0
0.265625 0.031250 0
0.281250 0.031250 0
0.296875 0.031250 0
0.312500 0.031250 0
0.328125 0.031250 0
0.343750 0.031250 0
0.359375 0.031250 0
0.375000 0.031250 0
0.390625 0.031250 0
0.406250 0.031250 0
0.421875 0.031250 0
0.437500 0.031250 0
0.453125 0.031250 0
0.468750 0.031250 0
0.484375 0.031250 0
0.500000 0.031250 0
0.515625 0.031250 0
0.531250 0.031250 0
0.546875 0.031250 0
0.562500 0.031250 0
0.578125 0.031250 0
0.593750 0.031250 0
0.609375 0.031250 0
0.625000 0.031250 0
0.640625 0.031250 0
0.656250 0.031250 0
0.671875 0.031250 0
0.687500 0.031250 0
0.703125 0.031250 0
0.718750 0.031250 0
0.734375 0.031250 0
0.750000 0.031250 0
0.765625 0.031250 0
0.781250 0.031250 0
0.796875 0.031250 0
0.812500 0.031250 0
0.828125 0.031250 0
0.843750 0.031250 0
0.859375 0.031250 0
0.875000 0.031250 0
0.890625 0.031250 0
0.906250 0.031250 0
0.921875 0.031250 0
0.937500 0.031250 0
0.953125 0.031250 0
0.968750 0.031250 0
0.984375 0.031250 0
1.000000 0.031250 0
0.000000 0.046875 0
0.015625 0.046875 0
0.031250 0.046875 0
0.046875 0.046875 0
0.062500 0.046875 0
0.078125 0.046875 0
0.093750 0.046875 0
0.109375 0.046875 0
0.125000 0.046875 0
0.140625 0.046875 0
0.156250 0.046875 0
0.171875 0.046875 0
0.187500 0.046875 0
0.203125 0.046875 0
0.218750 0.046875 0
0.234375 0.046875 0
0.250000 0.046875 0
0.265625 0.046875 0
0.281250 0.046875 0
0.296875 0.046875 0
0.312500 0.046875 0
0.328125 0.046875 0
0.343750 0.046875 0
0.359375 0.046875 0
0.375000 0.046875 0
0.390625 0.046875 0
0.406250 0.046875 0
0.421875 0.046875 0
0.437500 0.046875 0
0.453125 0.046875 0
0.468750 0.046875 0
0.484375 0.046875 0
0.500000 0.046875 0
0.515625 0.046875 0
0.531250 0.046875 0
0.546875 0.046875 0
0.562500 0.046875 0
0.578125 0.046875 0
0.593750 0.046875 0
0.609375 0.046875 0
0.625000 0.046875 0
0.640625 0.046875 0
0.656250 0.046875 0
0.671875 0.046875 0
0.687500 0.046875 0
0.703125 0.046875 0
0.718750 0.046875 0
0.734375 0.046875 0
0.750000 0.046875 0
0.765625 0.046875 0
0.781250 0.046875 0
0.796875 0.046875 0
0.812500 0.046875 0
0.828125 0.046875 0
0.843750 0.046875 0
0.859375 0.046875 0
0.875000 0.046875 0
0.890625 0.046875 0
0.906250 0.046875 0
0.921875 0.046875 0
0.937500 0.046875 0
0.953125 0.046875 0
0.968750 0.046875 0
0.984375 0.046875 0
1.000000 0.046875 0
0.000000 0.062500 0
0.015625 0.062500 0
0.031250 0.062500 0
0.046875 0.062500 0
0.062500 0.062500 0
0.078125 0.062500 0
0.093750 0.062500 0
0.109375 0.062500 0
0.125000 0.062500 0
0.140625 0.062500 0
0.156250 0.062500 0
0.171875 0.062500 0
0.187500 0.062500 0
0.203125 0.062500 0
0.218750 0.062500 0
0.234375 0.062500 0
0.250000 0.062500 0
0.265625 0.062500 0
0.281250 0.062500 0
0.296875 0.062500 0
0.312500 0.062500 0
0.328125 0.062500 0
0.343750 0.062500 0
0.359375 0.062500 0
0.375000 0.062500 0
0.390625 0.062500 0
0.406250 0.062500 0
0.421875 0.062500 0
0.437500 0.062500 0
0.453125 0.062500 0
0.468750 0.062500 0
0.484375 0.062500 0
0.500000 0.062500 0
0.515625 0.062500 0
0.531250 0.062500 0
0.546875 0.062500 0
0.562500 0.062500 0
0.578125 0.062500 0
0.593750 0.062500 0
0.609375 0.062500 0
0.625000 0.062500 0
0.640625 0.062500 0
0.656250 0.062500 0
0.671875 0.062500 0
0.687500 0.062500 0
0.703125 0.062500 0
0.718750 0.062500 0
0.734375 0.062500 0
0.750000 0.062500 0
0.765625 0.062500 0
0.781250 0.062500 0
0.796875 0.062500 0
0.812500 0.062500 0
0.828125 0.062500 0
0.843750 0.062500 0
0.859375 0.062500 0
0.875000 0.062500 0
0.890625 0.062500 0
0.906250 0.062500 0
0.921875 0.062500 0
0.937500 0.062500 0
0.953125 0.062500 0
0.968750 0.062500 0
0.984375 0.062500 0
1.000000 0.062500 0
0.000000 0.078125 0
0.015625 0.078125 0
0.031250 0.078125 0
0.046875 0.078125 0
0.062500 0.078125 0
0.078125 0.078125 0
0.093750 0.078125 0
0.109375 0.078125 0
0.125000 0.078125 0
0.140625 0.078125 0
0.156250 0.078125 0
0.171875 0.078125 0
0.187500 0.078125 0
0.203125 0.078125 0
0.218750 0.078125 0
0.234375 0.078125 0
0.250000 0.078125 0
0.265625 0.078125 0
0.281250 0.078125 0
0.296875 0.078125 0
0.312500 0.078125 0
0.328125 0.078125 0
0.343750 0.078125 0
0.359375 0.078125 0
0.375000 0.078125 0
0.390625 0.078125 0
0.406250 0.078125 0
0.421875 0.078125 0
0.437500 0.078125 0
0.453125 0.078125 0
0.468750 0.078125 0
0.484375 0.078125 0
0.500000 0.078125 0
0.515625 0.078125 0
0.531250 0.078125 0
0.546875 0.078125 0
0.562500 0.078125 0
0.578125 0.078125 0
0.593750 0.078125 0
0.609375 0.078125 0
0.625000 0.078125 0
0.640625 0.078125 0
0.656250 0.078125 0
0.671875 0.078125 0
0.687500 0.078125 0
0.703125 0.078125 0
0.718750 0.078125 0
0.734375 0.078125 0
0.750000 0.078125 0
0.765625 0.078125 0
0.781250 0.078125 0
0.796875 0.078125 0
0.812500 0.078125 0
0.828125 0.078125 0
0.843750 0.078125 0
0.859375 0.078125 0
0.875000 0.078125 0
0.890625 0.078125 0
0.906250 0.078125 0
0.921875 0.078125 0
0.937500 0.078125 0
0.953125 0.078125 0
0.968750 0.078125 0
0.984375 0.078125 0
1.000000 0.078125 0
0.000000 0.093750 0
0.015625 0.093750 0
0.031250 0.093750 0
0.046875 0.093750 0
0.062500 0.093750 0
0.078125 0.093750 0
0.093750 0.093750 0
0.109375 0.093750 0
0.125000 0.093750 0
0.140625 0.093750 0
0.156250 0.093750 0
0.171875 0.093750 0
0.187500 0.093750 0
0.203125 0.093750 0
0.218750 0.093750 0
0.234375 0.093750 0
0.250000 0.093750 0
0.265625 0.093750 0
0.281250 0.093750 0
0.296875 0.093750 0
0.312500 0.093750 0
0.328125 0.093750 0
0.343750 0.093750 0
0.359375 0.093750 0
0.375000 0.093750 0
0.390625 0.093750 0
0.406250 0.093750 0
0.421875 0.093750 0
0.437500 0.093750 0
0.453125 0.093750 0
0.468750 0.093750 0
0.484375 0.093750 0
0.500000 0.093750 0
0.515625 0.093750 0
0.531250 0.093750 0
0.546875 0.093750 0
0.562500 0.093750 0
0.578125 0.093750 0
0.593750 0.093750 0
0.609375 0.093750 0
0.625000 0.093750 0
0.640625 0.093750 0
0.656250 0.093750 0
0.671875 0.093750 0
0.687500 0.093750 0
0.703125 0.093750 0
0.718750 0.093750 0
0.734375 0.093750 0
0.750000 0.093750 0
0.765625 0.093750 0
0.781250 0.093750 0
0.796875 0.093750 0
0.812500 0.093750 0
0.828125 0.093750 0
0.843750 0.093750 0
0.859375 0.093750 0
0.875000 0.093750 0
0.890625 0.093750 0
0.906250 0.093750 0
0.921875 0.093750 0
0.937500 0.093750 0
0.953125 0.093750 0
0.968750 0.093750 0
0.984375 0.093750 0
1.000000 0.093750 0
0.000000 0.109375 0
0.015625 0.109375 0
0.031250 0.109375 0
0.046875 0.109375 0
0.062500 0.109375 0
0.078125 0.109375 0
0.093750 0.109375 0
0.109375 0.109375 0
0.125000 0.109375 0
0.140625 0.109375 0
0.156250 0.109375 0
0.171875 0.109375 0
0.187500 0.109375 0
0.203125 0.109375 0
0.218750 0.109375 0
0.234375 0.109375 0
0.250000 0.109375 0
0.265625 0.109375 0
0.281250 0.109375 0
0.296875 0.109375 0
0.312500 0.109375 0
0.328125 0.109375 0
0.343750 0.109375 0
0.359375 0.109375 0
0.375000 0.109375 0
0.390625 0.109375 0
0.406250 0.109375 0
0.421875 0.109375 0
0.437500 0.109375 0
0.453125 0.109375 0
0.468750 0.109375 0
0.484375 0.109375 0
0.500000 0.109375 0
0.515625 0.109375 0
0.531250 0.109375 0
0.546875 0.109375 0
[...]
POINT_DATA 4225 

VECTORS velocity float
0.000000 0.000000 0
-0.000000 0.000000 0
-0.000000 0.000000 0
-0.000000 0.000000 0
-0.000000 0.000000 0
0.000000 0.000000 0
0.000000 0.000000 0
0.000000 0.000000 0
0.000000 0.000000 0
0.000000 0.000000 0
-0.000000 0.000000 0
-0.000000 0.000000 0
-0.000000 0.000000 0
-0.000000 0.000000 0
-0.000000 0.000000 0
-0.000000 0.000000 0
0.000000 0.000000 0
0.000000 0.000000 0
0.000000 0.000000 0
0.000000 0.000000 0
0.000000 0.000000 0
0.000000 0.000000 0
-0.000000 0.000000 0
-0.000000 0.000000 0
-0.000000 0.000000 0
-0.000000 0.000000 0
-0.000000 0.000000 0
-0.000000 0.000000 0
-0.000000 0.000000 0
0.000000 0.000000 0
0.000000 0.000000 0
0.000000 0.000000 0
0.000000 0.000000 0
0.000000 0.000000 0
0.000000 0.000000 0
-0.000000 0.000000 0
-0.000000 0.000000 0
-0.000000 0.000000 0
-0.000000 0.000000 0
-0.000000 0.000000 0
-0.000000 0.000000 0
0.000000 0.000000 0
0.000000 0.000000 0
0.000000 0.000000 0
0.000000 0.000000 0
0.000000 0.000000 0
0.000000 0.000000 0
0.000000 0.000000 0
-0.000000 0.000000 0
-0.000000 0.000000 0
-0.000000 0.000000 0
-0.000000 0.000000 0
-0.000000 0.000000 0
-0.000000 0.000000 0
0.000000 0.000000 0
0.000000 0.000000 0
0.000000 0.000000 0
0.000000 0.000000 0
0.000000 0.000000 0
0.000000 0.000000 0
0.000000 0.000000 0
0.000000 0.000000 0
0.000000 0.000000 0
0.000000 0.000000 0
0.000000 0.000000 0
0.000000 -0.000000 0
0.000037 -0.000037 0
0.000077 -0.000033 0
0.000080 -0.000005 0
0.000023 0.000033 0
-0.000103 0.000073 0
-0.000299 0.000113 0
-0.000563 0.000150 0
-0.000889 0.000183 0
-0.001271 0.000212 0
-0.001701 0.000236 0
-0.002172 0.000256 0
-0.002676 0.000272 0
-0.003206 0.000284 0
-0.003755 0.000293 0
-0.004317 0.000298 0
-0.004884 0.000299 0
-0.005451 0.000298 0
-0.006013 0.000293 0
-0.006563 0.000286 0
-0.007098 0.000277 0
-0.007612 0.000265 0
-0.008101 0.000251 0
-0.008561 0.000234 0
-0.008987 0.000216 0
-0.009376 0.000195 0
-0.009724 0.000173 0
-0.010027 0.000149 0
-0.010283 0.000123 0
-0.010489 0.000096 0
-0.010643 0.000068 0
-0.010741 0.000038 0
-0.010783 0.000008 0
-0.010767 -0.000023 0
-0.010692 -0.000054 0
-0.010558 -0.000085 0
-0.010366 -0.000116 0
-0.010116 -0.000146 0
-0.009810 -0.000176 0
-0.009451 -0.000203 0
-0.009041 -0.000230 0
-0.008585 -0.000253 0
-0.008087 -0.000274 0
-0.007551 -0.000293 0
-0.006985 -0.000307 0
-0.006395 -0.000319 0
-0.005787 -0.000326 0
-0.005170 -0.000329 0
-0.004551 -0.000327 0
-0.003939 -0.000321 0
-0.003342 -0.000310 0
-0.002768 -0.000295 0
-0.002227 -0.000275 0
-0.001726 -0.000251 0
-0.001273 -0.000222 0
-0.000874 -0.000190 0
-0.000537 -0.000154 0
-0.000266 -0.000116 0
-0.000063 -0.000077 0
0.000069 -0.000037 0
0.000134 -0.000001 0
0.000139 0.000030 0
0.000099 0.000046 0
0.000039 0.000039 0
0.000000 -0.000000 0
0.000000 -0.000000 0
0.000033 -0.000077 0
0.000044 -0.000043 0
-0.000020 0.000054 0
-0.000189 0.000183 0
-0.000477 0.000322 0
-0.000888 0.000460 0
-0.001417 0.000590 0
-0.002057 0.000708 0
-0.002796 0.000812 0
-0.003623 0.000901 0
-0.004524 0.000975 0
-0.005486 0.001034 0
-0.006495 0.001079 0
-0.007540 0.001110 0
-0.008607 0.001128 0
-0.009684 0.001134 0
-0.010761 0.001129 0
-0.011828 0.001112 0
-0.012873 0.001085 0
-0.013888 0.001049 0
-0.014863 0.001003 0
-0.015789 0.000949 0
-0.016659 0.000886 0
-0.017466 0.000815 0
-0.018200 0.000737 0
-0.018857 0.000652 0
-0.019429 0.000560 0
-0.019910 0.000462 0
-0.020297 0.000359 0
-0.020583 0.000252 0
-0.020764 0.000140 0
-0.020839 0.000026 0
-0.020804 -0.000091 0
-0.020659 -0.000209 0
-0.020402 -0.000326 0
-0.020036 -0.000442 0
-0.019561 -0.000556 0
-0.018981 -0.000665 0
-0.018301 -0.000769 0
-0.017527 -0.000866 0
-0.016665 -0.000955 0
-0.015725 -0.001034 0
-0.014716 -0.001101 0
-0.013649 -0.001157 0
-0.012536 -0.001198 0
-0.011391 -0.001225 0
-0.010228 -0.001236 0
-0.009061 -0.001231 0
-0.007906 -0.001209 0
-0.006777 -0.001170 0
-0.005692 -0.001115 0
-0.004664 -0.001042 0
-0.003709 -0.000954 0
-0.002840 -0.000852 0
-0.002069 -0.000736 0
-0.001408 -0.000609 0
-0.000864 -0.000474 0
-0.000443 -0.000335 0
-0.000145 -0.000197 0
0.000035 -0.000070 0
0.000110 0.000035 0
0.000101 0.000100 0
0.000047 0.000099 0
0.000000 0.000000 0
0.000000 0.000000 0
0.000006 -0.000080 0
-0.000053 0.000021 0
-0.000227 0.000228 0
-0.000546 0.000489 0
-0.001025 0.000771 0
-0.001667 0.001052 0
-0.002467 0.001319 0
-0.003414 0.001562 0
-0.004497 0.001778 0
-0.005697 0.001964 0
-0.006998 0.002119 0
-0.008383 0.002244 0
-0.009832 0.002338 0
-0.011329 0.002404 0
-0.012857 0.002442 0
-0.014398 0.002454 0
-0.015938 0.002441 0
-0.017462 0.002405 0
-0.018954 0.002346 0
-0.020402 0.002266 0
-0.021792 0.002166 0
-0.023113 0.002048 0
-0.024353 0.001911 0
-0.025500 0.001757 0
-0.026544 0.001587 0
-0.027477 0.001402 0
-0.028288 0.001203 0
-0.028969 0.000991 0
-0.029514 0.000768 0
-0.029916 0.000536 0
-0.030170 0.000295 0
-0.030271 0.000048 0
-0.030217 -0.000203 0
-0.030005 -0.000456 0
-0.029637 -0.000708 0
-0.029112 -0.000958 0
-0.028434 -0.001201 0
-0.027608 -0.001435 0
-0.026641 -0.001658 0
-0.025540 -0.001865 0
-0.024317 -0.002055 0
-0.022982 -0.002224 0
-0.021550 -0.002369 0
-0.020037 -0.002487 0
-0.018458 -0.002576 0
-0.016833 -0.002634 0
-0.015181 -0.002659 0
-0.013523 -0.002650 0
-0.011879 -0.002605 0
-0.010271 -0.002524 0
-0.008720 -0.002408 0
-0.007247 -0.002258 0
-0.005873 -0.002075 0
-0.004614 -0.001862 0
-0.003489 -0.001622 0
-0.002512 -0.001359 0
-0.001692 -0.001082 0
-0.001036 -0.000796 0
-0.000546 -0.000516 0
-0.000215 -0.000255 0
-0.000027 -0.000036 0
0.000042 0.000109 0
0.000032 0.000140 0
0.000000 0.000000 0
0.000000 0.000000 0
-0.000031 -0.000024 0
-0.000183 0.000191 0
-0.000494 0.000548 0
-0.000989 0.000980 0
-0.001678 0.001442 0
-0.002565 0.001901 0
-0.003641 0.002338 0
-0.004895 0.002738 0
-0.006311 0.003095 0
-0.007869 0.003403 0
-0.009548 0.003661 0
-0.011328 0.003868 0
-0.013187 0.004026 0
-0.015103 0.004135 0
-0.017055 0.004198 0
-0.019022 0.004216 0
-0.020986 0.004192 0
-0.022927 0.004128 0
-0.024827 0.004026 0
-0.026670 0.003887 0
-0.028438 0.003714 0
-0.030116 0.003509 0
-0.031690 0.003272 0
-0.033145 0.003007 0
-0.034470 0.002713 0
-0.035650 0.002395 0
-0.036676 0.002053 0
-0.037537 0.001689 0
-0.038225 0.001306 0
-0.038730 0.000907 0
-0.039047 0.000495 0
-0.039171 0.000073 0
-0.039097 -0.000357 0
-0.038825 -0.000789 0
-0.038354 -0.001220 0
-0.037686 -0.001645 0
-0.036825 -0.002059 0
-0.035778 -0.002458 0
-0.034552 -0.002837 0
-0.033157 -0.003190 0
-0.031608 -0.003513 0
-0.029919 -0.003800 0
-0.028107 -0.004047 0
-0.026191 -0.004249 0
-0.024192 -0.004402 0
-0.022133 -0.004502 0
-0.020039 -0.004546 0
-0.017934 -0.004533 0
-0.015844 -0.004461 0
-0.013796 -0.004329 0
-0.011816 -0.004138 0
-0.009929 -0.003890 0
-0.008160 -0.003587 0
-0.006531 -0.003235 0
-0.005063 -0.002838 0
-0.003772 -0.002406 0
-0.002672 -0.001949 0
-0.001770 -0.001480 0
-0.001068 -0.001019 0
-0.000560 -0.000588 0
-0.000230 -0.000221 0
-0.000055 0.000041 0
0.000004 0.000140 0
0.000000 0.000000 0
0.000000 -0.000000 0
-0.000073 0.000103 0
-0.000328 0.000483 0
-0.000791 0.001033 0
-0.001476 0.001674 0
-0.002390 0.002348 0
-0.003531 0.003015 0
-0.004888 0.003649 0
-0.006448 0.004232 0
-0.008190 0.004752 0
-0.010095 0.005202 0
-0.012136 0.005579 0
-0.014292 0.005882 0
-0.016536 0.006113 0
-0.018844 0.006272 0
-0.021191 0.006362 0
-0.023554 0.006385 0
-0.025909 0.006346 0
-0.028235 0.006246 0
-0.030511 0.006089 0
-0.032715 0.005877 0
-0.034829 0.005613 0
-0.036835 0.005300 0
-0.038714 0.004940 0
-0.040451 0.004536 0
-0.042031 0.004091 0
-0.043438 0.003608 0
-0.044659 0.003090 0
-0.045683 0.002539 0
-0.046499 0.001961 0
-0.047099 0.001358 0
-0.047473 0.000736 0
-0.047617 0.000098 0
-0.047527 -0.000549 0
-0.047200 -0.001199 0
-0.046637 -0.001847 0
-0.045840 -0.002486 0
-0.044814 -0.003109 0
-0.043565 -0.003709 0
-0.042105 -0.004278 0
-0.040446 -0.004809 0
-0.038601 -0.005294 0
-0.036590 -0.005725 0
-0.034433 -0.006097 0
-0.032150 -0.006402 0
-0.029768 -0.006633 0
-0.027313 -0.006787 0
-0.024812 -0.006858 0
-0.022296 -0.006844 0
-0.019793 -0.006742 0
-0.017335 -0.006553 0
-0.014952 -0.006276 0
-0.012674 -0.005914 0
-0.010528 -0.005473 0
-0.008541 -0.004959 0
-0.006737 -0.004381 0
-0.005134 -0.003750 0
-0.003749 -0.003084 0
-0.002591 -0.002401 0
-0.001662 -0.001726 0
-0.000960 -0.001092 0
-0.000470 -0.000541 0
-0.000171 -0.000125 0
-0.000029 0.000085 0
0.000000 -0.000000 0
0.000000 -0.000000 0
-0.000116 0.000304 0
-0.000479 0.000908 0
-0.001100 0.001695 0
-0.001984 0.002580 0
-0.003130 0.003497 0
-0.004530 0.004400 0
-0.006172 0.005255 0
-0.008036 0.006040 0
-0.010101 0.006741 0
-0.012342 0.007349 0
-0.014734 0.007858 0
-0.017249 0.008267 0
-0.019859 0.008577 0
-0.022537 0.008790 0
-0.025256 0.008908 0
-0.027990 0.008934 0
-0.030711 0.008874 0
-0.033396 0.008730 0
-0.036019 0.008506 0
-0.038560 0.008206 0
-0.040994 0.007834 0
-0.043302 0.007394 0
-0.045464 0.006889 0
-0.047461 0.006323 0
-0.049275 0.005699 0
-0.050890 0.005023 0
-0.052292 0.004298 0
-0.053467 0.003529 0
-0.054403 0.002722 0
-0.055090 0.001881 0
-0.055518 0.001014 0
-0.055683 0.000126 0
-0.055579 -0.000774 0
-0.055204 -0.001679 0
-0.054558 -0.002580 0
-0.053645 -0.003468 0
-0.052469 -0.004333 0
-0.051040 -0.005167 0
-0.049367 -0.005957 0
-0.047466 -0.006694 0
-0.045353 -0.007368 0
-0.043047 -0.007969 0
-0.040573 -0.008487 0
-0.037953 -0.008913 0
-0.035217 -0.009239 0
-0.032394 -0.009458 0
-0.029516 -0.009564 0
-0.026614 -0.009553 0
-0.023723 -0.009422 0
-0.020878 -0.009170 0
-0.018111 -0.008800 0
-0.015457 -0.008314 0
-0.012947 -0.007720 0
-0.010610 -0.007026 0
-0.008473 -0.006245 0
-0.006559 -0.005394 0
-0.004884 -0.004493 0
-0.003462 -0.003567 0
-0.002298 -0.002650 0
-0.001390 -0.001781 0
-0.000728 -0.001010 0
-0.000295 -0.000401 0
-0.000064 -0.000031 0
0.000000 -0.000000 0
0.000000 -0.000000 0
-0.000158 0.000582 0
-0.000629 0.001467 0
-0.001410 0.002538 0
-0.002496 0.003704 0
-0.003877 0.004894 0
-0.005540 0.006057 0
-0.007465 0.007155 0
-0.009632 0.008161 0
-0.012015 0.009058 0
-0.014586 0.009835 0
-0.017318 0.010485 0
-0.020180 0.011008 0
-0.023141 0.011401 0
-0.026173 0.011669 0
-0.029245 0.011814 0
-0.032329 0.011840 0
-0.035395 0.011752 0
-0.038417 0.011555 0
-0.041367 0.011253 0
-0.044222 0.010852 0
-0.046956 0.010356 0
-0.049546 0.009770 0
-0.051971 0.009098 0
-0.054210 0.008347 0
-0.056244 0.007521 0
-0.058055 0.006626 0
-0.059626 0.005666 0
-0.060942 0.004650 0
-0.061991 0.003583 0
-0.062761 0.002473 0
-0.063243 0.001329 0
-0.063430 0.000159 0
-0.063317 -0.001028 0
-0.062901 -0.002220 0
-0.062183 -0.003406 0
-0.061166 -0.004575 0
-0.059855 -0.005715 0
-0.058261 -0.006811 0
-0.056395 -0.007852 0
-0.054273 -0.008823 0
-0.051913 -0.009712 0
-0.049336 -0.010506 0
-0.046568 -0.011191 0
-0.043635 -0.011757 0
-0.040569 -0.012192 0
-0.037401 -0.012489 0
-0.034165 -0.012639 0
-0.030899 -0.012637 0
-0.027638 -0.012479 0
-0.024421 -0.012165 0
-0.021284 -0.011696 0
-0.018265 -0.011079 0
-0.015397 -0.010320 0
-0.012715 -0.009432 0
-0.010247 -0.008432 0
-0.008019 -0.007339 0
-0.006052 -0.006180 0
-0.004361 -0.004987 0
-0.002954 -0.003798 0
-0.001833 -0.002662 0
-0.000993 -0.001636 0
-0.000422 -0.000790 0
-0.000099 -0.000210 0
0.000000 -0.000000 0
0.000000 0.000000 0
-0.000198 0.000933 0
-0.000775 0.002160 0
-0.001715 0.003562 0
-0.003003 0.005047 0
-0.004618 0.006540 0
-0.006543 0.007988 0
-0.008751 0.009347 0
-0.011218 0.010590 0
-0.013914 0.011696 0
-0.016809 0.012652 0
-0.019872 0.013451 0
-0.023071 0.014091 0
-0.026372 0.014571 0
-0.029743 0.014894 0
-0.033153 0.015063 0
-0.036571 0.015084 0
-0.039965 0.014962 0
-0.043306 0.014702 0
-0.046566 0.014311 0
-0.049717 0.013794 0
-0.052734 0.013159 0
-0.055591 0.012409 0
-0.058265 0.011553 0
-0.060733 0.010596 0
-0.062975 0.009544 0
-0.064970 0.008405 0
-0.066702 0.007186 0
-0.068155 0.005895 0
-0.069313 0.004541 0
-0.070165 0.003133 0
-0.070701 0.001682 0
-0.070914 0.000199 0
-0.070796 -0.001303 0
-0.070348 -0.002813 0
-0.069567 -0.004315 0
-0.068458 -0.005795 0
-0.067028 -0.007238 0
-0.065285 -0.008627 0
-0.063242 -0.009945 0
-0.060917 -0.011177 0
-0.058328 -0.012305 0
-0.055499 -0.013314 0
-0.052457 -0.014188 0
-0.049230 -0.014912 0
-0.045851 -0.015474 0
-0.042356 -0.015861 0
-0.038780 -0.016066 0
-0.035163 -0.016080 0
-0.031545 -0.015900 0
-0.027967 -0.015524 0
-0.024468 -0.014956 0
-0.021090 -0.014201 0
-0.017869 -0.013269 0
-0.014843 -0.012176 0
-0.012044 -0.010941 0
-0.009501 -0.009589 0
-0.007237 -0.008151 0
-0.005272 -0.006665 0
-0.003617 -0.005177 0
-0.002280 -0.003741 0
-0.001259 -0.002422 0
-0.000547 -0.001295 0
-0.000133 -0.000452 0
0.000000 -0.000000 0
0.000000 0.000000 0
-0.000237 0.001357 0
-0.000917 0.002984 0
-0.002013 0.004765 0
-0.003498 0.006607 0
-0.005346 0.008434 0
-0.007530 0.010190 0
-0.010018 0.011830 0
-0.012781 0.013324 0
-0.015786 0.014650 0
-0.018999 0.015793 0
-0.022386 0.016747 0
-0.025912 0.017507 0
-0.029542 0.018074 0
-0.033242 0.018451 0
-0.036977 0.018641 0
-0.040715 0.018651 0
-0.044423 0.018487 0
-0.048070 0.018156 0
-0.051625 0.017664 0
-0.055060 0.017020 0
-0.058346 0.016229 0
-0.061458 0.015300 0
-0.064369 0.014240 0
-0.067056 0.013057 0
-0.069497 0.011759 0
-0.071671 0.010353 0
-0.073559 0.008851 0
-0.075144 0.007261 0
-0.076410 0.005594 0
-0.077346 0.003862 0
-0.077939 0.002077 0
-0.078181 0.000254 0
-0.078067 -0.001594 0
-0.077594 -0.003449 0
-0.076762 -0.005295 0
-0.075573 -0.007115 0
-0.074035 -0.008888 0
-0.072158 -0.010597 0
-0.069954 -0.012220 0
-0.067442 -0.013738 0
-0.064641 -0.015130 0
-0.061576 -0.016377 0
-0.058276 -0.017460 0
-0.054770 -0.018362 0
-0.051094 -0.019067 0
-0.047284 -0.019560 0
-0.043380 -0.019831 0
-0.039423 -0.019871 0
-0.035456 -0.019675 0
-0.031523 -0.019242 0
-0.027668 -0.018573 0
-0.023933 -0.017678 0
-0.020360 -0.016567 0
-0.016989 -0.015258 0
-0.013856 -0.013775 0
-0.010994 -0.012146 0
-0.008430 -0.010409 0
-0.006187 -0.008606 0
-0.004282 -0.006790 0
-0.002726 -0.005020 0
-0.001522 -0.003369 0
-0.000670 -0.001916 0
-0.000166 -0.000757 0
0.000000 -0.000000 0
0.000000 0.000000 0
-0.000274 0.001851 0
-0.001054 0.003936 0
-0.002301 0.006144 0
-0.003981 0.008380 0
-0.006057 0.010572 0
-0.008494 0.012659 0
-0.011259 0.014599 0
-0.014313 0.016358 0
-0.017622 0.017914 0
-0.021146 0.019252 0
-0.024850 0.020364 0
-0.028696 0.021247 0
-0.032646 0.021901 0
-0.036665 0.022329 0
-0.040715 0.022537 0
-0.044763 0.022530 0
-0.048774 0.022316 0
-0.052715 0.021904 0
-0.056555 0.021301 0
-0.060262 0.020515 0
-0.063807 0.019556 0
-0.067164 0.018432 0
-0.070304 0.017151 0
-0.073203 0.015724 0
-0.075837 0.014159 0
-0.078185 0.012467 0
-0.080227 0.010659 0
-0.081943 0.008747 0
-0.083319 0.006743 0
-0.084340 0.004662 0
-0.084995 0.002518 0
-0.085274 0.000328 0
-0.085171 -0.001890 0
-0.084683 -0.004118 0
-0.083810 -0.006336 0
-0.082554 -0.008522 0
-0.080922 -0.010653 0
-0.078923 -0.012708 0
-0.076573 -0.014661 0
-0.073888 -0.016490 0
-0.070890 -0.018171 0
-0.067603 -0.019679 0
-0.064058 -0.020994 0
-0.060286 -0.022094 0
-0.056323 -0.022960 0
-0.052209 -0.023575 0
-0.047985 -0.023926 0
-0.043696 -0.024003 0
-0.039385 -0.023799 0
-0.035101 -0.023313 0
-0.030890 -0.022546 0
-0.026799 -0.021508 0
-0.022872 -0.020213 0
-0.019153 -0.018680 0
-0.015683 -0.016936 0
-0.012498 -0.015015 0
-0.009630 -0.012958 0
-0.007105 -0.010813 0
-0.004946 -0.008639 0
-0.003168 -0.006501 0
-0.001782 -0.004477 0
-0.000791 -0.002651 0
-0.000198 -0.001123 0
0.000000 -0.000000 0
0.000000 -0.000000 0
-0.000309 0.002411 0
-0.001185 0.005011 0
-0.002580 0.007692 0
-0.004448 0.010362 0
-0.006747 0.012948 0
-0.009434 0.015392 0
-0.012469 0.017649 0
-0.015810 0.019687 0
-0.019415 0.021483 0
-0.023246 0.023022 0
-0.027260 0.024296 0
-0.031418 0.025303 0
-0.035681 0.026043 0
-0.040009 0.026520 0
-0.044366 0.026740 0
-0.048715 0.026710 0
-0.053019 0.026439 0
-0.057246 0.025936 0
-0.061360 0.025211 0
-0.065332 0.024272 0
-0.069129 0.023131 0
-0.072723 0.021797 0
-0.076086 0.020280 0
-0.079193 0.018591 0
-0.082017 0.016741 0
-0.084538 0.014743 0
-0.086732 0.012609 0
-0.088582 0.010353 0
-0.090070 0.007991 0
-0.091181 0.005537 0
-0.091903 0.003011 0
-0.092227 0.000430 0
-0.092144 -0.002184 0
-0.091652 -0.004810 0
-0.090748 -0.007425 0
-0.089437 -0.010003 0
-0.087724 -0.012519 0
-0.085619 -0.014945 0
-0.083135 -0.017255 0
-0.080291 -0.019421 0
-0.077108 -0.021414 0
-0.073613 -0.023209 0
-0.069835 -0.024777 0
-0.065807 -0.026096 0
-0.061568 -0.027143 0
-0.057157 -0.027898 0
-0.052619 -0.028345 0
-0.048000 -0.028471 0
-0.043349 -0.028270 0
-0.038714 -0.027737 0
-0.034147 -0.026876 0
-0.029696 -0.025696 0
-0.025412 -0.024212 0
-0.021341 -0.022446 0
-0.017528 -0.020430 0
-0.014015 -0.018200 0
-0.010837 -0.015802 0
-0.008027 -0.013290 0
-0.005610 -0.010727 0
-0.003609 -0.008185 0
-0.002039 -0.005746 0
-0.000909 -0.003500 0
-0.000228 -0.001548 0
0.000000 -0.000000 0
0.000000 -0.000000 0
-0.000343 0.003036 0
-0.001311 0.006206 0
-0.002848 0.009406 0
-0.004899 0.012547 0
-0.007415 0.015558 0
-0.010346 0.018381 0
-0.013646 0.020974 0
-0.017267 0.023304 0
-0.021164 0.025350 0
-0.025293 0.027096 0
-0.029611 0.028536 0
-0.034075 0.029668 0
-0.038643 0.030492 0
-0.043274 0.031015 0
-0.047929 0.031242 0
-0.052571 0.031183 0
-0.057161 0.030847 0
-0.061665 0.030245 0
-0.066048 0.029387 0
-0.070277 0.028284 0
-0.074320 0.026948 0
-0.078147 0.025389 0
-0.081730 0.023621 0
-0.085041 0.021655 0
-0.088055 0.019504 0
-0.090747 0.017182 0
-0.093096 0.014703 0
-0.095082 0.012084 0
-0.096687 0.009342 0
-0.097894 0.006495 0
-0.098691 0.003563 0
-0.099068 0.000569 0
-0.099015 -0.002465 0
-0.098530 -0.005514 0
-0.097609 -0.008550 0
-0.096255 -0.011546 0
-0.094474 -0.014472 0
-0.092276 -0.017296 0
-0.089672 -0.019989 0
-0.086683 -0.022517 0
-0.083328 -0.024849 0
-0.079635 -0.026953 0
-0.075635 -0.028800 0
-0.071360 -0.030361 0
-0.066852 -0.031610 0
-0.062151 -0.032523 0
-0.057303 -0.033083 0
-0.052358 -0.033274 0
-0.047365 -0.033086 0
-0.042379 -0.032515 0
-0.037452 -0.031564 0
-0.032638 -0.030243 0
-0.027990 -0.028568 0
-0.023561 -0.026563 0
-0.019399 -0.024262 0
-0.015550 -0.021707 0
-0.012057 -0.018946 0
-0.008955 -0.016040 0
-0.006277 -0.013056 0
-0.004050 -0.010073 0
-0.002294 -0.007176 0
-0.001027 -0.004462 0
-0.000259 -0.002032 0
0.000000 -0.000000 0
0.000000 0.000000 0
-0.000376 0.003722 0
-0.001433 0.007516 0
-0.003107 0.011280 0
-0.005336 0.014930 0
-0.008063 0.018395 0
-0.011231 0.021622 0
-0.014788 0.024569 0
-0.018683 0.027205 0
-0.022865 0.029509 0
-0.027287 0.031469 0
-0.031902 0.033078 0
-0.036664 0.034334 0
-0.041530 0.035242 0
-0.046457 0.035807 0
-0.051404 0.036037 0
-0.056332 0.035942 0
-0.061201 0.035534 0
-0.065977 0.034823 0
-0.070622 0.033822 0
-0.075103 0.032544 0
-0.079388 0.031001 0
-0.083445 0.029207 0
-0.087244 0.027173 0
-0.090759 0.024915 0
-0.093962 0.022447 0
-0.096828 0.019785 0
-0.099335 0.016944 0
-0.101461 0.013944 0
-0.103188 0.010803 0
-0.104499 0.007542 0
-0.105381 0.004184 0
-0.105820 0.000754 0
-0.105809 -0.002722 0
-0.105342 -0.006217 0
-0.104417 -0.009699 0
-0.103035 -0.013138 0
-0.101200 -0.016499 0
-0.098921 -0.019747 0
-0.096212 -0.022848 0
-0.093090 -0.025765 0
-0.089576 -0.028462 0
-0.085697 -0.030902 0
-0.081483 -0.033052 0
-0.076971 -0.034879 0
-0.072200 -0.036353 0
-0.067213 -0.037447 0
-0.062059 -0.038138 0
-0.056788 -0.038409 0
-0.051454 -0.038249 0
-0.046112 -0.037651 0
-0.040821 -0.036617 0
-0.035638 -0.035157 0
-0.030620 -0.033288 0
-0.025824 -0.031038 0
-0.021305 -0.028441 0
-0.017113 -0.025542 0
-0.013296 -0.022397 0
-0.009896 -0.019069 0
-0.006952 -0.015632 0
-0.004494 -0.012168 0
-0.002551 -0.008769 0
-0.001144 -0.005536 0
-0.000289 -0.002575 0
0.000000 -0.000000 0
0.000000 0.000000 0
-0.000407 0.004468 0
-0.001550 0.008937 0
-0.003356 0.013309 0
-0.005757 0.017503 0
-0.008688 0.021453 0
-0.012088 0.025107 0
-0.015896 0.028426 0
-0.020058 0.031381 0
-0.024518 0.033954 0
-0.029225 0.036133 0
-0.034130 0.037913 0
-0.039184 0.039296 0
-0.044341 0.040285 0
-0.049557 0.040889 0
-0.054789 0.041117 0
-0.059996 0.040980 0
-0.065140 0.040492 0
-0.070181 0.039665 0
-0.075083 0.038513 0
-0.079813 0.037050 0
-0.084336 0.035289 0
-0.088620 0.033246 0
-0.092636 0.030935 0