# vtk DataFile Version 2.0
generated by CFD-lab course output (written by Tobias Neckel) 
ASCII

DATASET STRUCTURED_GRID
DIMENSIONS  17 17 1 
POINTS 289 float

0.000000 0.000000 0
0.062500 0.000000 0
0.125000 0.000000 0
0.187500 0.000000 0
0.250000 0.000000 0
0.312500 0.000000 0
0.375000 0.000000 0
0.437500 0.000000 0
0.500000 0.000000 0
0.562500 0.000000 0
0.625000 0.000000 0
0.687500 0.000000 0
0.750000 0.000000 0
0.812500 0.000000 0
0.875000 0.000000 0
0.937500 0.000000 0
1.000000 0.000000 0
0.000000 0.062500 0
0.062500 0.062500 0
0.125000 0.062500 0
0.187500 0.062500 0
0.250000 0.062500 0
0.312500 0.062500 0
0.375000 0.062500 0
0.437500 0.062500 0
0.500000 0.062500 0
0.562500 0.062500 0
0.625000 0.062500 0
0.687500 0.062500 0
0.750000 0.062500 0
0.812500 0.062500 0
0.875000 0.062500 0
0.937500 0.062500 0
1.000000 0.062500 0
0.000000 0.125000 0
0.062500 0.125000 0
0.125000 0.125000 0
0.187500 0.125000 0
0.250000 0.125000 0
0.312500 0.125000 0
0.375000 0.125000 0
0.437500 0.125000 0
0.500000 0.125000 0
0.562500 0.125000 0
0.625000 0.125000 0
0.687500 0.125000 0
0.750000 0.125000 0
0.812500 0.125000 0
0.875000 0.125000 0
0.937500 0.125000 0
1.000000 0.125000 0
0.000000 0.187500 0
0.062500 0.187500 0
0.125000 0.187500 0
0.187500 0.187500 0
0.250000 0.187500 0
0.312500 0.187500 0
0.375000 0.187500 0
0.437500 0.187500 0
0.500000 0.187500 0
0.562500 0.187500 0
0.625000 0.187500 0
0.687500 0.187500 0
0.750000 0.187500 0
0.812500 0.187500 0
0.875000 0.187500 0
0.937500 0.187500 0
1.000000 0.187500 0
0.000000 0.250000 0
0.062500 0.250000 0
0.125000 0.250000 0
0.187500 0.250000 0
0.250000 0.250000 0
0.312500 0.250000 0
0.375000 0.250000 0
0.437500 0.250000 0
0.500000 0.250000 0
0.562500 0.250000 0
0.625000 0.250000 0
0.687500 0.250000 0
0.750000 0.250000 0
0.812500 0.250000 0
0.875000 0.250000 0
0.937500 0.250000 0
1.000000 0.250000 0
0.000000 0.312500 0
0.062500 0.312500 0
0.125000 0.312500 0
0.187500 0.312500 0
0.250000 0.312500 0
0.312500 0.312500 0
0.375000 0.312500 0
0.437500 0.312500 0
0.500000 0.312500 0
0.562500 0.312500 0
0.625000 0.312500 0
0.687500 0.312500 0
0.750000 0.312500 0
0.812500 0.312500 0
0.875000 0.312500 0
0.937500 0.312500 0
1.000000 0.312500 0
0.000000 0.375000 0
0.062500 0.375000 0
0.125000 0.375000 0
0.187500 0.375000 0
0.250000 0.375000 0
0.312500 0.375000 0
0.375000 0.375000 0
0.437500 0.375000 0
0.500000 0.375000 0
0.562500 0.375000 0
0.625000 0.375000 0
0.687500 0.375000 0
0.750000 0.375000 0
0.812500 0.375000 0
0.875000 0.375000 0
0.937500 0.375000 0
1.000000 0.375000 0
0.000000 0.437500 0
0.062500 0.437500 0
0.125000 0.437500 0
0.187500 0.437500 0
0.250000 0.437500 0
0.312500 0.437500 0
0.375000 0.437500 0
0.437500 0.437500 0
0.500000 0.437500 0
0.562500 0.437500 0
0.625000 0.437500 0
0.687500 0.437500 0
0.750000 0.437500 0
0.812500 0.437500 0
0.875000 0.437500 0
0.937500 0.437500 0
1.000000 0.437500 0
0.000000 0.500000 0
0.062500 0.500000 0
0.125000 0.500000 0
0.187500 0.500000 0
0.250000 0.500000 0
0.312500 0.500000 0
0.375000 0.500000 0
0.437500 0.500000 0
0.500000 0.500000 0
0.562500 0.500000 0
0.625000 0.500000 0
0.687500 0.500000 0
0.750000 0.500000 0
0.812500 0.500000 0
0.875000 0.500000 0
0.937500 0.500000 0
1.000000 0.500000 0
0.000000 0.562500 0
0.062500 0.562500 0
0.125000 0.562500 0
0.187500 0.562500 0
0.250000 0.562500 0
0.312500 0.562500 0
0.375000 0.562500 0
0.437500 0.562500 0
0.500000 0.562500 0
0.562500 0.562500 0
0.625000 0.562500 0
0.687500 0.562500 0
0.750000 0.562500 0
0.812500 0.562500 0
0.875000 0.562500 0
0.937500 0.562500 0
1.000000 0.562500 0
0.000000 0.625000 0
0.062500 0.625000 0
0.125000 0.625000 0
0.187500 0.625000 0
0.250000 0.625000 0
0.312500 0.625000 0
0.375000 0.625000 0
0.437500 0.625000 0
0.500000 0.625000 0
0.562500 0.625000 0
0.625000 0.625000 0
0.687500 0.625000 0
0.750000 0.625000 0
0.812500 0.625000 0
0.875000 0.625000 0
0.937500 0.625000 0
1.000000 0.625000 0
0.000000 0.687500 0
0.062500 0.687500 0
0.125000 0.687500 0
0.187500 0.687500 0
0.250000 0.687500 0
0.312500 0.687500 0
0.375000 0.687500 0
0.437500 0.687500 0
0.500000 0.687500 0
0.562500 0.687500 0
0.625000 0.687500 0
0.687500 0.687500 0
0.750000 0.687500 0
0.812500 0.687500 0
0.875000 0.687500 0
0.937500 0.687500 0
1.000000 0.687500 0
0.000000 0.750000 0
0.062500 0.750000 0
0.125000 0.750000 0
0.187500 0.750000 0
0.250000 0.750000 0
0.312500 0.750000 0
0.375000 0.750000 0
0.437500 0.750000 0
0.500000 0.750000 0
0.562500 0.750000 0
0.625000 0.750000 0
0.687500 0.750000 0
0.750000 0.750000 0
0.812500 0.750000 0
0.875000 0.750000 0
0.937500 0.750000 0
1.000000 0.750000 0
0.000000 0.812500 0
0.062500 0.812500 0
0.125000 0.812500 0
0.187500 0.812500 0
0.250000 0.812500 0
0.312500 0.812500 0
0.375000 0.812500 0
0.437500 0.812500 0
0.500000 0.812500 0
0.562500 0.812500 0
0.625000 0.812500 0
0.687500 0.812500 0
0.750000 0.812500 0
0.812500 0.812500 0
0.875000 0.812500 0
0.937500 0.812500 0
1.000000 0.812500 0
0.000000 0.875000 0
0.062500 0.875000 0
0.125000 0.875000 0
0.187500 0.875000 0
0.250000 0.875000 0
0.312500 0.875000 0
0.375000 0.875000 0
0.437500 0.875000 0
0.500000 0.875000 0
0.562500 0.875000 0
0.625000 0.875000 0
0.687500 0.875000 0
0.750000 0.875000 0
0.812500 0.875000 0
0.875000 0.875000 0
0.937500 0.875000 0
1.000000 0.875000 0
0.000000 0.937500 0
0.062500 0.937500 0
0.125000 0.937500 0
0.187500 0.937500 0
0.250000 0.937500 0
0.312500 0.937500 0
0.375000 0.937500 0
0.437500 0.937500 0
0.500000 0.937500 0
0.562500 0.937500 0
0.625000 0.937500 0
0.687500 0.937500 0
0.750000 0.937500 0
0.812500 0.937500 0
0.875000 0.937500 0
0.937500 0.937500 0
1.000000 0.937500 0
0.000000 1.000000 0
0.062500 1.000000 0
0.125000 1.000000 0
0.187500 1.000000 0
0.250000 1.000000 0
0.312500 1.000000 0
0.375000 1.000000 0
0.437500 1.000000 0
0.500000 1.000000 0
0.562500 1.000000 0
0.625000 1.000000 0
0.687500 1.000000 0
0.750000 1.000000 0
0.812500 1.000000 0
0.875000 1.000000 0
0.937500 1.000000 0
1.000000 1.000000 0
POINT_DATA 289 

VECTORS velocity float
0.000000 0.000000 0
0.000001 0.000000 0
0.000001 0.000000 0
0.000000 0.000000 0
-0.000001 0.000000 0
-0.000001 0.000000 0
-0.000000 0.000000 0
0.000000 0.000000 0
0.000000 0.000000 0
0.000000 0.000000 0
0.000000 0.000000 0
0.000000 0.000000 0
-0.000000 0.000000 0
-0.000000 0.000000 0
-0.000000 0.000000 0
-0.000000 0.000000 0
0.000000 0.000000 0
0.000000 0.000001 0
-0.001059 0.000959 0
-0.005219 0.002757 0
-0.011654 0.003964 0
-0.019184 0.004428 0
-0.026735 0.004262 0
-0.033383 0.003551 0
-0.038288 0.002328 0
-0.040702 0.000644 0
-0.040042 -0.001358 0
-0.036054 -0.003378 0
-0.029047 -0.004948 0
-0.020083 -0.005528 0
-0.010965 -0.004752 0
-0.003823 -0.002750 0
-0.000220 -0.000456 0
0.000000 -0.000000 0
0.000000 0.000000 0
-0.003360 0.005219 0
-0.011915 0.010593 0
-0.023750 0.013964 0
-0.036968 0.015082 0
-0.049894 0.014200 0
-0.061060 0.011554 0
-0.069157 0.007320 0
-0.073060 0.001753 0
-0.071944 -0.004648 0
-0.065467 -0.010995 0
-0.054055 -0.015971 0
-0.039182 -0.018081 0
-0.023438 -0.016260 0
-0.010113 -0.010745 0
-0.002041 -0.003823 0
0.000000 -0.000000 0
0.000000 -0.000000 0
-0.005619 0.012872 0
-0.018322 0.023147 0
-0.034872 0.029019 0
-0.052742 0.030575 0
-0.069898 0.028355 0
-0.084611 0.022813 0
-0.095350 0.014328 0
-0.100795 0.003431 0
-0.099938 -0.008952 0
-0.092266 -0.021268 0
-0.078024 -0.031233 0
-0.058622 -0.036145 0
-0.036953 -0.033820 0
-0.017283 -0.024147 0
-0.004127 -0.010568 0
0.000000 0.000000 0
0.000000 -0.000000 0
-0.007527 0.023541 0
-0.023783 0.039848 0
-0.044322 0.048386 0
-0.066078 0.050107 0
-0.086815 0.046067 0
-0.104719 0.037005 0
-0.118181 0.023503 0
-0.125746 0.006341 0
-0.126182 -0.013176 0
-0.118646 -0.032909 0
-0.102901 -0.049616 0
-0.079895 -0.059153 0
-0.052453 -0.057599 0
-0.025743 -0.043572 0
-0.006524 -0.021106 0
0.000000 -0.000000 0
0.000000 0.000000 0
-0.008980 0.036656 0
-0.027986 0.059943 0
-0.051644 0.071314 0
-0.076509 0.073067 0
-0.100273 0.066995 0
-0.121165 0.054179 0
-0.137597 0.035355 0
-0.148016 0.011432 0
-0.150908 -0.016052 0
-0.144961 -0.044550 0
-0.129223 -0.069984 0
-0.103801 -0.086593 0
-0.070973 -0.087972 0
-0.036468 -0.070075 0
-0.009696 -0.036311 0
0.000000 -0.000000 0
0.000000 0.000000 0
-0.009907 0.051527 0
-0.030707 0.082512 0
-0.056425 0.096908 0
-0.083409 0.098736 0
-0.109411 0.090723 0
-0.132834 0.074329 0
-0.152228 0.050354 0
-0.166020 0.019652 0
-0.172425 -0.016231 0
-0.169586 -0.054594 0
-0.155718 -0.090776 0
-0.129739 -0.117403 0
-0.092762 -0.124931 0
-0.050285 -0.104849 0
-0.014222 -0.057574 0
0.000000 0.000000 0
0.000000 -0.000000 0
-0.010281 0.067363 0
-0.031827 0.106462 0
-0.058327 0.124016 0
-0.086076 0.126054 0
-0.113024 0.116420 0
-0.137906 0.096996 0
-0.159594 0.068541 0
-0.176677 0.031628 0
-0.187233 -0.012486 0
-0.188885 -0.061257 0
-0.179050 -0.109832 0
-0.155215 -0.149549 0
-0.116640 -0.167426 0
-0.067372 -0.148615 0
-0.020717 -0.086596 0
0.000000 0.000000 0
0.000000 -0.000000 0
-0.010202 0.083353 0
-0.031483 0.130558 0
-0.057304 0.151158 0
-0.084019 0.153434 0
-0.109935 0.142554 0
-0.134315 0.120899 0
-0.156606 0.089124 0
-0.175872 0.047291 0
-0.190388 -0.004023 0
-0.197451 -0.062778 0
-0.193860 -0.124446 0
-0.175621 -0.179812 0
-0.139555 -0.212774 0
-0.086765 -0.200772 0
-0.029703 -0.124946 0
0.000000 0.000000 0
0.000000 0.000000 0
-0.010018 0.098846 0
-0.030304 0.153563 0
-0.053898 0.176552 0
-0.077340 0.178685 0
-0.099511 0.166716 0
-0.120433 0.143667 0
-0.140400 0.110098 0
-0.159340 0.065410 0
-0.176264 0.009094 0
-0.188737 -0.057785 0
-0.193132 -0.131661 0
-0.184281 -0.203854 0
-0.156292 -0.256282 0
-0.105816 -0.258466 0
-0.041225 -0.173361 0
0.000000 -0.000000 0
0.000000 -0.000000 0
-0.010510 0.113657 0
-0.029638 0.174438 0
-0.049438 0.198194 0
-0.066950 0.199047 0
-0.082009 0.185646 0
-0.095672 0.161788 0
-0.109275 0.128032 0
-0.123913 0.083156 0
-0.139930 0.025374 0
-0.156109 -0.045910 0
-0.168882 -0.128902 0
-0.172723 -0.216653 0
-0.159320 -0.291240 0
-0.119641 -0.315838 0
-0.054137 -0.230762 0
0.000000 0.000000 0
0.000000 -0.000000 0
-0.013142 0.128484 0
-0.031580 0.192492 0
-0.045704 0.213863 0
-0.054001 0.211256 0
-0.057976 0.195438 0
-0.060071 0.170933 0
-0.062713 0.138339 0
-0.068138 0.096066 0
-0.078294 0.041289 0
-0.094005 -0.028833 0
-0.113086 -0.115047 0
-0.131099 -0.213416 0
-0.138641 -0.309364 0
-0.120522 -0.363649 0
-0.065240 -0.293002 0
0.000000 0.000000 0
0.000000 -0.000000 0
-0.020233 0.145237 0
-0.038000 0.207000 0
-0.042820 0.220615 0
-0.037083 0.211319 0
-0.025095 0.191717 0
-0.011077 0.166525 0
0.001511 0.136098 0
0.009690 0.098736 0
0.010560 0.051241 0
0.001456 -0.011118 0
-0.018694 -0.091807 0
-0.048795 -0.191097 0
-0.081415 -0.301817 0
-0.096837 -0.389239 0
-0.068351 -0.351284 0
0.000000 -0.000000 0
0.000000 0.000000 0
-0.033533 0.166483 0
-0.045051 0.215079 0
-0.031273 0.212946 0
-0.003025 0.193531 0
0.030730 0.169433 0
0.064639 0.144327 0
0.095104 0.117572 0
0.119149 0.087017 0
0.133785 0.049523 0
0.135450 0.000421 0
0.119847 -0.064796 0
0.083884 -0.150695 0
0.028933 -0.261322 0
-0.030011 -0.376712 0
-0.052076 -0.389840 0
0.000000 -0.000000 0
0.000000 -0.000000 0
-0.040621 0.190287 0
-0.018326 0.204741 0
0.033720 0.178590 0
0.093848 0.149316 0
0.152492 0.124053 0
0.205979 0.102151 0
0.252335 0.081588 0
0.289659 0.060055 0
0.315518 0.034940 0
0.326347 0.002820 0
0.316649 -0.040241 0
0.280209 -0.100183 0
0.210922 -0.187922 0
0.109316 -0.308230 0
0.009799 -0.381295 0
0.000000 0.000000 0
0.000000 -0.000000 0
0.082631 0.184810 0
0.190287 0.140737 0
0.287372 0.100772 0
0.368877 0.074759 0
0.436688 0.057302 0
0.492930 0.044484 0
0.538839 0.033891 0
0.574518 0.023834 0
0.598894 0.012835 0
0.609458 -0.000710 0
0.601714 -0.018658 0
0.569217 -0.044968 0
0.501532 -0.090429 0
0.381295 -0.175589 0
0.193301 -0.280524 0
0.000000 0.000000 0
1.000000 0.000000 0
1.000000 0.000000 0
1.000000 0.000000 0
1.000000 0.000000 0
1.000000 0.000000 0
1.000000 0.000000 0
1.000000 0.000000 0
1.000000 0.000000 0
1.000000 0.000000 0
1.000000 0.000000 0
1.000000 0.000000 0
1.000000 0.000000 0
1.000000 0.000000 0
1.000000 0.000000 0
1.000000 0.000000 0
1.000000 0.000000 0
1.000000 0.000000 0

CELL_DATA 256 
SCALARS pressure float 1 
LOOKUP_TABLE default 
-0.005723
-0.006419
-0.007139
-0.007512
-0.007388
-0.006724
-0.005525
-0.003846
-0.001832
0.000237
0.001999
0.003093
0.003294
0.002663
0.001615
0.000832
-0.005056
-0.005785
-0.006350
-0.006621
-0.006529
-0.006026
-0.005087
-0.003734
-0.002068
-0.000336
0.001150
0.002082
0.002267
0.001755
0.000861
0.000049
-0.004353
-0.005354
-0.005988
-0.006308
-0.006324
-0.005998
-0.005279
-0.004146
-0.002653
-0.001017
0.000452
0.001415
0.001624
0.001061
-0.000022
-0.001217
-0.004144
-0.005479
-0.006282
-0.006744
-0.006939
-0.006832
-0.006338
-0.005377
-0.003945
-0.002215
-0.000524
0.000706
0.001091
0.000478
-0.000945
-0.002718
-0.004859
-0.006495
-0.007497
-0.008169
-0.008623
-0.008811
-0.008594
-0.007818
-0.006399
-0.004435
-0.002280
-0.000470
0.000392
-0.000094
-0.001868
-0.004374
-0.006820
-0.008690
-0.009900
-0.010841
-0.011646
-0.012237
-0.012407
-0.011908
-0.010553
-0.008289
-0.005439
-0.002646
-0.000821
-0.000774
-0.002740
-0.006121
-0.010254
-0.012282
-0.013697
-0.014960
-0.016210
-0.017341
-0.018073
-0.018042
-0.016912
-0.014428
-0.010718
-0.006482
-0.002989
-0.001691
-0.003420
-0.007744
-0.015273
-0.017382
-0.018978
-0.020577
-0.022345
-0.024157
-0.025672
-0.026393
-0.025773
-0.023327
-0.018752
-0.012640
-0.006590
-0.002924
-0.003562
-0.008663
-0.021867
-0.023979
-0.025665
-0.027523
-0.029791
-0.032370
-0.034873
-0.036667
-0.036947
-0.034928
-0.029723
-0.021465
-0.011891
-0.004323
-0.002398
-0.007610
-0.029944
-0.031969
-0.033506
-0.035351
-0.037918
-0.041190
-0.044764
-0.047880
-0.049460
-0.048261
-0.042896
-0.032492
-0.018527
-0.005167
0.001599
-0.002218
-0.039480
-0.041251
-0.042097
-0.043330
-0.045712
-0.049364
-0.053863
-0.058321
-0.061396
-0.061342
-0.056270
-0.043941
-0.024964
-0.003714
0.011154
0.011409
-0.050887
-0.051907
-0.050925
-0.050483
-0.051884
-0.055377
-0.060415
-0.065918
-0.070307
-0.071329
-0.066627
-0.052531
-0.028177
0.003136
0.030598
0.039197
-0.065961
-0.064474
-0.059359
-0.055645
-0.055059
-0.057815
-0.062924
-0.069061
-0.074133
-0.075501
-0.070411
-0.054153
-0.024088
0.019521
0.066031
0.090192
-0.090472
-0.080121
-0.066330
-0.057386
-0.054149
-0.055932
-0.061036
-0.067465
-0.072707
-0.073581
-0.066020
-0.045567
-0.007649
0.050463
0.124155
0.179281
-0.140560
-0.098805
-0.068825
-0.052817
-0.047375
-0.048899
-0.054432
-0.061295
-0.066519
-0.066390
-0.055886
-0.030317
0.016933
0.094112
0.208166
0.331663
-0.250880
-0.103174
-0.052430
-0.035333
-0.032239
-0.036204
-0.043700
-0.051979
-0.058036
-0.057971
-0.046435
-0.018652
0.034726
0.129228
0.291730
0.556769
