# vtk DataFile Version 2.0
generated by CFD-lab course output (written by Tobias Neckel) 
ASCII

DATASET STRUCTURED_GRID
DIMENSIONS  33 33 1 
POINTS 1089 float

0.000000 0.000000 0
0.031250 0.000000 0
0.062500 0.000000 0
0.093750 0.000000 0
0.125000 0.000000 0
0.156250 0.000000 0
0.187500 0.000000 0
0.218750 0.000000 0
0.250000 0.000000 0
0.281250 0.000000 0
0.312500 0.000000 0
0.343750 0.000000 0
0.375000 0.000000 0
0.406250 0.000000 0
0.437500 0.000000 0
0.468750 0.000000 0
0.500000 0.000000 0
0.531250 0.000000 0
0.562500 0.000000 0
0.593750 0.000000 0
0.625000 0.000000 0
0.656250 0.000000 0
0.687500 0.000000 0
0.718750 0.000000 0
0.750000 0.000000 0
0.781250 0.000000 0
0.812500 0.000000 0
0.843750 0.000000 0
0.875000 0.000000 0
0.906250 0.000000 0
0.937500 0.000000 0
0.968750 0.000000 0
1.000000 0.000000 0
0.000000 0.031250 0
0.031250 0.031250 0
0.062500 0.031250 0
0.093750 0.031250 0
0.125000 0.031250 0
0.156250 0.031250 0
0.187500 0.031250 0
0.218750 0.031250 0
0.250000 0.031250 0
0.281250 0.031250 0
0.312500 0.031250 0
0.343750 0.031250 0
0.375000 0.031250 0
0.406250 0.031250 0
0.437500 0.031250 0
0.468750 0.031250 0
0.500000 0.031250 0
0.531250 0.031250 0
0.562500 0.031250 0
0.593750 0.031250 0
0.625000 0.031250 0
0.656250 0.031250 0
0.687500 0.031250 0
0.718750 0.031250 0
0.750000 0.031250 0
0.781250 0.031250 0
0.812500 0.031250 0
0.843750 0.031250 0
0.875000 0.031250 0
0.906250 0.031250 0
0.937500 0.031250 0
0.968750 0.031250 0
1.000000 0.031250 0
0.000000 0.062500 0
0.031250 0.062500 0
0.062500 0.062500 0
0.093750 0.062500 0
0.125000 0.062500 0
0.156250 0.062500 0
0.187500 0.062500 0
0.218750 0.062500 0
0.250000 0.062500 0
0.281250 0.062500 0
0.312500 0.062500 0
0.343750 0.062500 0
0.375000 0.062500 0
0.406250 0.062500 0
0.437500 0.062500 0
0.468750 0.062500 0
0.500000 0.062500 0
0.531250 0.062500 0
0.562500 0.062500 0
0.593750 0.062500 0
0.625000 0.062500 0
0.656250 0.062500 0
0.687500 0.062500 0
0.718750 0.062500 0
0.750000 0.062500 0
0.781250 0.062500 0
0.812500 0.062500 0
0.843750 0.062500 0
0.875000 0.062500 0
0.906250 0.062500 0
0.937500 0.062500 0
0.968750 0.062500 0
1.000000 0.062500 0
0.000000 0.093750 0
0.031250 0.093750 0
0.062500 0.093750 0
0.093750 0.093750 0
0.125000 0.093750 0
0.156250 0.093750 0
0.187500 0.093750 0
0.218750 0.093750 0
0.250000 0.093750 0
0.281250 0.093750 0
0.312500 0.093750 0
0.343750 0.093750 0
0.375000 0.093750 0
0.406250 0.093750 0
0.437500 0.093750 0
0.468750 0.093750 0
0.500000 0.093750 0
0.531250 0.093750 0
0.562500 0.093750 0
0.593750 0.093750 0
0.625000 0.093750 0
0.656250 0.093750 0
0.687500 0.093750 0
0.718750 0.093750 0
0.750000 0.093750 0
0.781250 0.093750 0
0.812500 0.093750 0
0.843750 0.093750 0
0.875000 0.093750 0
0.906250 0.093750 0
0.937500 0.093750 0
0.968750 0.093750 0
1.000000 0.093750 0
0.000000 0.125000 0
0.031250 0.125000 0
0.062500 0.125000 0
0.093750 0.125000 0
0.125000 0.125000 0
0.156250 0.125000 0
0.187500 0.125000 0
0.218750 0.125000 0
0.250000 0.125000 0
0.281250 0.125000 0
0.312500 0.125000 0
0.343750 0.125000 0
0.375000 0.125000 0
0.406250 0.125000 0
0.437500 0.125000 0
0.468750 0.125000 0
0.500000 0.125000 0
0.531250 0.125000 0
0.562500 0.125000 0
0.593750 0.125000 0
0.625000 0.125000 0
0.656250 0.125000 0
0.687500 0.125000 0
0.718750 0.125000 0
0.750000 0.125000 0
0.781250 0.125000 0
0.812500 0.125000 0
0.843750 0.125000 0
0.875000 0.125000 0
0.906250 0.125000 0
0.937500 0.125000 0
0.968750 0.125000 0
1.000000 0.125000 0
0.000000 0.156250 0
0.031250 0.156250 0
0.062500 0.156250 0
0.093750 0.156250 0
0.125000 0.156250 0
0.156250 0.156250 0
0.187500 0.156250 0
0.218750 0.156250 0
0.250000 0.156250 0
0.281250 0.156250 0
0.312500 0.156250 0
0.343750 0.156250 0
0.375000 0.156250 0
0.406250 0.156250 0
0.437500 0.156250 0
0.468750 0.156250 0
0.500000 0.156250 0
0.531250 0.156250 0
0.562500 0.156250 0
0.593750 0.156250 0
0.625000 0.156250 0
0.656250 0.156250 0
0.687500 0.156250 0
0.718750 0.156250 0
0.750000 0.156250 0
0.781250 0.156250 0
0.812500 0.156250 0
0.843750 0.156250 0
0.875000 0.156250 0
0.906250 0.156250 0
0.937500 0.156250 0
0.968750 0.156250 0
1.000000 0.156250 0
0.000000 0.187500 0
0.031250 0.187500 0
0.062500 0.187500 0
0.093750 0.187500 0
0.125000 0.187500 0
0.156250 0.187500 0
0.187500 0.187500 0
0.218750 0.187500 0
0.250000 0.187500 0
0.281250 0.187500 0
0.312500 0.187500 0
0.343750 0.187500 0
0.375000 0.187500 0
0.406250 0.187500 0
0.437500 0.187500 0
0.468750 0.187500 0
0.500000 0.187500 0
0.531250 0.187500 0
0.562500 0.187500 0
0.593750 0.187500 0
0.625000 0.187500 0
0.656250 0.187500 0
0.687500 0.187500 0
0.718750 0.187500 0
0.750000 0.187500 0
0.781250 0.187500 0
0.812500 0.187500 0
0.843750 0.187500 0
0.875000 0.187500 0
0.906250 0.187500 0
0.937500 0.187500 0
0.968750 0.187500 0
1.000000 0.187500 0
0.000000 0.218750 0
0.031250 0.218750 0
0.062500 0.218750 0
0.093750 0.218750 0
0.125000 0.218750 0
0.156250 0.218750 0
0.187500 0.218750 0
0.218750 0.218750 0
0.250000 0.218750 0
0.281250 0.218750 0
0.312500 0.218750 0
0.343750 0.218750 0
0.375000 0.218750 0
0.406250 0.218750 0
0.437500 0.218750 0
0.468750 0.218750 0
0.500000 0.218750 0
0.531250 0.218750 0
0.562500 0.218750 0
0.593750 0.218750 0
0.625000 0.218750 0
0.656250 0.218750 0
0.687500 0.218750 0
0.718750 0.218750 0
0.750000 0.218750 0
0.781250 0.218750 0
0.812500 0.218750 0
0.843750 0.218750 0
0.875000 0.218750 0
0.906250 0.218750 0
0.937500 0.218750 0
0.968750 0.218750 0
1.000000 0.218750 0
0.000000 0.250000 0
0.031250 0.250000 0
0.062500 0.250000 0
0.093750 0.250000 0
0.125000 0.250000 0
0.156250 0.250000 0
0.187500 0.250000 0
0.218750 0.250000 0
0.250000 0.250000 0
0.281250 0.250000 0
0.312500 0.250000 0
0.343750 0.250000 0
0.375000 0.250000 0
0.406250 0.250000 0
0.437500 0.250000 0
0.468750 0.250000 0
0.500000 0.250000 0
0.531250 0.250000 0
0.562500 0.250000 0
0.593750 0.250000 0
0.625000 0.250000 0
0.656250 0.250000 0
0.687500 0.250000 0
0.718750 0.250000 0
0.750000 0.250000 0
0.781250 0.250000 0
0.812500 0.250000 0
0.843750 0.250000 0
0.875000 0.250000 0
0.906250 0.250000 0
0.937500 0.250000 0
0.968750 0.250000 0
1.000000 0.250000 0
0.000000 0.281250 0
0.031250 0.281250 0
0.062500 0.281250 0
0.093750 0.281250 0
0.125000 0.281250 0
0.156250 0.281250 0
0.187500 0.281250 0
0.218750 0.281250 0
0.250000 0.281250 0
0.281250 0.281250 0
0.312500 0.281250 0
0.343750 0.281250 0
0.375000 0.281250 0
0.406250 0.281250 0
0.437500 0.281250 0
0.468750 0.281250 0
0.500000 0.281250 0
0.531250 0.281250 0
0.562500 0.281250 0
0.593750 0.281250 0
0.625000 0.281250 0
0.656250 0.281250 0
0.687500 0.281250 0
0.718750 0.281250 0
0.750000 0.281250 0
0.781250 0.281250 0
0.812500 0.281250 0
0.843750 0.281250 0
0.875000 0.281250 0
0.906250 0.281250 0
0.937500 0.281250 0
0.968750 0.281250 0
1.000000 0.281250 0
0.000000 0.312500 0
0.031250 0.312500 0
0.062500 0.312500 0
0.093750 0.312500 0
0.125000 0.312500 0
0.156250 0.312500 0
0.187500 0.312500 0
0.218750 0.312500 0
0.250000 0.312500 0
0.281250 0.312500 0
0.312500 0.312500 0
0.343750 0.312500 0
0.375000 0.312500 0
0.406250 0.312500 0
0.437500 0.312500 0
0.468750 0.312500 0
0.500000 0.312500 0
0.531250 0.312500 0
0.562500 0.312500 0
0.593750 0.312500 0
0.625000 0.312500 0
0.656250 0.312500 0
0.687500 0.312500 0
0.718750 0.312500 0
0.750000 0.312500 0
0.781250 0.312500 0
0.812500 0.312500 0
0.843750 0.312500 0
0.875000 0.312500 0
0.906250 0.312500 0
0.937500 0.312500 0
0.968750 0.312500 0
1.000000 0.312500 0
0.000000 0.343750 0
0.031250 0.343750 0
0.062500 0.343750 0
0.093750 0.343750 0
0.125000 0.343750 0
0.156250 0.343750 0
0.187500 0.343750 0
0.218750 0.343750 0
0.250000 0.343750 0
0.281250 0.343750 0
0.312500 0.343750 0
0.343750 0.343750 0
0.375000 0.343750 0
0.406250 0.343750 0
0.437500 0.343750 0
0.468750 0.343750 0
0.500000 0.343750 0
0.531250 0.343750 0
0.562500 0.343750 0
0.593750 0.343750 0
0.625000 0.343750 0
0.656250 0.343750 0
0.687500 0.343750 0
0.718750 0.343750 0
0.750000 0.343750 0
0.781250 0.343750 0
0.812500 0.343750 0
0.843750 0.343750 0
0.875000 0.343750 0
0.906250 0.343750 0
0.937500 0.343750 0
0.968750 0.343750 0
1.000000 0.343750 0
0.000000 0.375000 0
0.031250 0.375000 0
0.062500 0.375000 0
0.093750 0.375000 0
0.125000 0.375000 0
0.156250 0.375000 0
0.187500 0.375000 0
0.218750 0.375000 0
0.250000 0.375000 0
0.281250 0.375000 0
0.312500 0.375000 0
0.343750 0.375000 0
0.375000 0.375000 0
0.406250 0.375000 0
0.437500 0.375000 0
0.468750 0.375000 0
0.500000 0.375000 0
0.531250 0.375000 0
0.562500 0.375000 0
0.593750 0.375000 0
0.625000 0.375000 0
0.656250 0.375000 0
0.687500 0.375000 0
0.718750 0.375000 0
0.750000 0.375000 0
0.781250 0.375000 0
0.812500 0.375000 0
0.843750 0.375000 0
0.875000 0.375000 0
0.906250 0.375000 0
0.937500 0.375000 0
0.968750 0.375000 0
1.000000 0.375000 0
0.000000 0.406250 0
0.031250 0.406250 0
0.062500 0.406250 0
0.093750 0.406250 0
0.125000 0.406250 0
0.156250 0.406250 0
0.187500 0.406250 0
0.218750 0.406250 0
0.250000 0.406250 0
0.281250 0.406250 0
0.312500 0.406250 0
0.343750 0.406250 0
0.375000 0.406250 0
0.406250 0.406250 0
0.437500 0.406250 0
0.468750 0.406250 0
0.500000 0.406250 0
0.531250 0.406250 0
0.562500 0.406250 0
0.593750 0.406250 0
0.625000 0.406250 0
0.656250 0.406250 0
0.687500 0.406250 0
0.718750 0.406250 0
0.750000 0.406250 0
0.781250 0.406250 0
0.812500 0.406250 0
0.843750 0.406250 0
0.875000 0.406250 0
0.906250 0.406250 0
0.937500 0.406250 0
0.968750 0.406250 0
1.000000 0.406250 0
0.000000 0.437500 0
0.031250 0.437500 0
0.062500 0.437500 0
0.093750 0.437500 0
0.125000 0.437500 0
0.156250 0.437500 0
0.187500 0.437500 0
0.218750 0.437500 0
0.250000 0.437500 0
0.281250 0.437500 0
0.312500 0.437500 0
0.343750 0.437500 0
0.375000 0.437500 0
0.406250 0.437500 0
0.437500 0.437500 0
0.468750 0.437500 0
0.500000 0.437500 0
0.531250 0.437500 0
0.562500 0.437500 0
0.593750 0.437500 0
0.625000 0.437500 0
0.656250 0.437500 0
0.687500 0.437500 0
0.718750 0.437500 0
0.750000 0.437500 0
0.781250 0.437500 0
0.812500 0.437500 0
0.843750 0.437500 0
0.875000 0.437500 0
[...]
POINT_DATA 1089 

VECTORS velocity float
0.000000 0.000000 0
-0.000000 0.000000 0
-0.000000 0.000000 0
-0.000000 0.000000 0
0.000000 0.000000 0
0.000000 0.000000 0
0.000000 0.000000 0
0.000000 0.000000 0
-0.000000 0.000000 0
-0.000000 0.000000 0
-0.000000 0.000000 0
-0.000000 0.000000 0
-0.000000 0.000000 0
-0.000000 0.000000 0
-0.000000 0.000000 0
0.000000 0.000000 0
0.000000 0.000000 0
0.000000 0.000000 0
0.000000 0.000000 0
0.000000 0.000000 0
0.000000 0.000000 0
-0.000000 0.000000 0
-0.000000 0.000000 0
-0.000000 0.000000 0
-0.000000 0.000000 0
-0.000000 0.000000 0
-0.000000 0.000000 0
0.000000 0.000000 0
0.000000 0.000000 0
0.000000 0.000000 0
0.000000 0.000000 0
0.000000 0.000000 0
0.000000 0.000000 0
0.000000 -0.000000 0
0.000067 -0.000067 0
-0.000216 0.000179 0
-0.000993 0.000484 0
-0.002246 0.000754 0
-0.003889 0.000959 0
-0.005818 0.001099 0
-0.007930 0.001180 0
-0.010133 0.001211 0
-0.012344 0.001198 0
-0.014488 0.001148 0
-0.016496 0.001060 0
-0.018300 0.000936 0
-0.019834 0.000775 0
-0.021034 0.000578 0
-0.021842 0.000347 0
-0.022204 0.000088 0
-0.022081 -0.000193 0
-0.021451 -0.000482 0
-0.020315 -0.000766 0
-0.018700 -0.001025 0
-0.016666 -0.001242 0
-0.014304 -0.001397 0
-0.011733 -0.001473 0
-0.009098 -0.001460 0
-0.006552 -0.001352 0
-0.004254 -0.001155 0
-0.002342 -0.000882 0
-0.000926 -0.000557 0
-0.000060 -0.000222 0
0.000273 0.000064 0
0.000199 0.000193 0
0.000000 0.000000 0
0.000000 0.000000 0
-0.000188 0.000216 0
-0.001098 0.001061 0
-0.002832 0.002031 0
-0.005336 0.002897 0
-0.008475 0.003573 0
-0.012084 0.004041 0
-0.015993 0.004314 0
-0.020044 0.004413 0
-0.024091 0.004354 0
-0.027997 0.004151 0
-0.031634 0.003811 0
-0.034881 0.003338 0
-0.037620 0.002735 0
-0.039741 0.002008 0
-0.041142 0.001170 0
-0.041740 0.000240 0
-0.041472 -0.000753 0
-0.040308 -0.001766 0
-0.038254 -0.002751 0
-0.035363 -0.003649 0
-0.031739 -0.004396 0
-0.027538 -0.004933 0
-0.022960 -0.005206 0
-0.018245 -0.005181 0
-0.013654 -0.004844 0
-0.009447 -0.004210 0
-0.005859 -0.003328 0
-0.003073 -0.002282 0
-0.001186 -0.001199 0
-0.000182 -0.000259 0
0.000100 0.000273 0
0.000000 0.000000 0
0.000000 0.000000 0
-0.000536 0.001032 0
-0.002219 0.002824 0
-0.005012 0.004723 0
-0.008784 0.006397 0
-0.013348 0.007706 0
-0.018488 0.008615 0
-0.023990 0.009139 0
-0.029646 0.009307 0
-0.035262 0.009151 0
-0.040657 0.008692 0
-0.045658 0.007946 0
-0.050101 0.006923 0
-0.053829 0.005635 0
-0.056698 0.004100 0
-0.058578 0.002346 0
-0.059363 0.000417 0
-0.058979 -0.001625 0
-0.057388 -0.003701 0
-0.054604 -0.005711 0
-0.050696 -0.007540 0
-0.045798 -0.009068 0
-0.040108 -0.010176 0
-0.033881 -0.010766 0
-0.027423 -0.010766 0
-0.021068 -0.010151 0
-0.015156 -0.008949 0
-0.009995 -0.007255 0
-0.005832 -0.005231 0
-0.002814 -0.003113 0
-0.000957 -0.001222 0
-0.000121 0.000011 0
0.000000 -0.000000 0
0.000000 0.000000 0
-0.000894 0.002435 0
-0.003386 0.005536 0
-0.007267 0.008596 0
-0.012304 0.011232 0
-0.018238 0.013275 0
-0.024810 0.014682 0
-0.031763 0.015472 0
-0.038855 0.015686 0
-0.045858 0.015367 0
-0.052556 0.014549 0
-0.058743 0.013256 0
-0.064225 0.011509 0
-0.068816 0.009331 0
-0.072348 0.006756 0
-0.074670 0.003835 0
-0.075659 0.000640 0
-0.075229 -0.002728 0
-0.073336 -0.006141 0
-0.069994 -0.009443 0
-0.065278 -0.012454 0
-0.059338 -0.014985 0
-0.052395 -0.016850 0
-0.044740 -0.017891 0
-0.036726 -0.017994 0
-0.028747 -0.017111 0
-0.021206 -0.015284 0
-0.014485 -0.012652 0
-0.008901 -0.009463 0
-0.004665 -0.006074 0
-0.001851 -0.002951 0
-0.000375 -0.000683 0
0.000000 -0.000000 0
0.000000 -0.000000 0
-0.001236 0.004418 0
-0.004518 0.009196 0
-0.009468 0.013640 0
-0.015732 0.017367 0
-0.022980 0.020212 0
-0.030898 0.022140 0
-0.039196 0.023185 0
-0.047602 0.023404 0
-0.055864 0.022853 0
-0.063740 0.021577 0
-0.071005 0.019614 0
-0.077439 0.016995 0
-0.082840 0.013758 0
-0.087018 0.009953 0
-0.089805 0.005657 0
-0.091065 0.000976 0
-0.090696 -0.003948 0
-0.088645 -0.008936 0
-0.084914 -0.013768 0
-0.079576 -0.018195 0
-0.072777 -0.021951 0
-0.064748 -0.024775 0
-0.055803 -0.026434 0
-0.046328 -0.026759 0
-0.036767 -0.025672 0
-0.027591 -0.023211 0
-0.019261 -0.019561 0
-0.012176 -0.015051 0
-0.006635 -0.010162 0
-0.002789 -0.005512 0
-0.000631 -0.001840 0
0.000000 0.000000 0
0.000000 -0.000000 0
-0.001552 0.006952 0
-0.005580 0.013767 0
-0.011544 0.019810 0
-0.018976 0.024745 0
-0.027465 0.028442 0
-0.036647 0.030900 0
-0.046199 0.032177 0
-0.055824 0.032354 0
-0.065252 0.031505 0
-0.074227 0.029689 0
-0.082507 0.026954 0
-0.089860 0.023343 0
-0.096067 0.018909 0
-0.100924 0.013722 0
-0.104248 0.007883 0
-0.105886 0.001532 0
-0.105717 -0.005147 0
-0.103671 -0.011923 0
-0.099729 -0.018513 0
-0.093945 -0.024592 0
-0.086452 -0.029812 0
-0.077474 -0.033824 0
-0.067332 -0.036312 0
-0.056438 -0.037029 0
-0.045285 -0.035848 0
-0.034415 -0.032790 0
-0.024377 -0.028067 0
-0.015677 -0.022089 0
-0.008722 -0.015461 0
-0.003765 -0.008955 0
-0.000887 -0.003473 0
0.000000 0.000000 0
0.000000 -0.000000 0
-0.001839 0.009997 0
-0.006554 0.019189 0
-0.013459 0.027037 0
-0.021976 0.033289 0
-0.031620 0.037884 0
-0.041977 0.040874 0
-0.052693 0.042361 0
-0.063455 0.042456 0
-0.073977 0.041254 0
-0.083995 0.038831 0
-0.093259 0.035247 0
-0.101528 0.030555 0
-0.108573 0.024822 0
-0.114177 0.018135 0
-0.118142 0.010619 0
-0.120293 0.002446 0
-0.120489 -0.006163 0
-0.118632 -0.014924 0
-0.114672 -0.023494 0
-0.108630 -0.031473 0
-0.100610 -0.038423 0
-0.090815 -0.043895 0
-0.079560 -0.047470 0
-0.067274 -0.048806 0
-0.054493 -0.047695 0
-0.041836 -0.044120 0
-0.029958 -0.038298 0
-0.019494 -0.030706 0
-0.010983 -0.022075 0
-0.004808 -0.013346 0
-0.001154 -0.005605 0
0.000000 -0.000000 0
0.000000 0.000000 0
-0.002096 0.013506 0
-0.007429 0.025388 0
-0.015185 0.035233 0
-0.024688 0.042905 0
-0.035384 0.048442 0
-0.046816 0.051972 0
-0.058604 0.053654 0
-0.070418 0.053637 0
-0.081967 0.052045 0
-0.092983 0.048971 0
-0.103213 0.044487 0
-0.112412 0.038658 0
-0.120343 0.031559 0
-0.126779 0.023291 0
-0.131505 0.013999 0
-0.134325 0.003879 0
-0.135068 -0.006809 0
-0.133601 -0.017741 0
-0.129835 -0.028514 0
-0.123744 -0.038654 0
-0.115387 -0.047627 0
-0.104928 -0.054874 0
-0.092662 -0.059853 0
-0.079021 -0.062096 0
-0.064579 -0.061286 0
-0.050035 -0.057325 0
-0.036163 -0.050409 0
-0.023750 -0.041065 0
-0.013505 -0.030146 0
-0.005967 -0.018783 0
-0.001447 -0.008281 0
0.000000 -0.000000 0
0.000000 0.000000 0
-0.002321 0.017427 0
-0.008195 0.032278 0
-0.016698 0.044295 0
-0.027071 0.053486 0
-0.038701 0.060011 0
-0.051094 0.064093 0
-0.063847 0.065963 0
-0.076622 0.065820 0
-0.089126 0.063821 0
-0.101091 0.060078 0
-0.112265 0.054676 0
-0.122404 0.047685 0
-0.131269 0.039189 0
-0.138622 0.029297 0
-0.144233 0.018165 0
-0.147881 0.006009 0
-0.149362 -0.006886 0
-0.148502 -0.020157 0
-0.145161 -0.033351 0
-0.139255 -0.045922 0
-0.130783 -0.057239 0
-0.119853 -0.066620 0
-0.106719 -0.073377 0
-0.091799 -0.076889 0
-0.075693 -0.076681 0
-0.059175 -0.072536 0
-0.043151 -0.064582 0
-0.028583 -0.053364 0
-0.016385 -0.039858 0
-0.007296 -0.025403 0
-0.001784 -0.011572 0
0.000000 0.000000 0
0.000000 0.000000 0
-0.002509 0.021701 0
-0.008838 0.039764 0
-0.017973 0.054108 0
-0.029086 0.064908 0
-0.041515 0.072465 0
-0.054738 0.077119 0
-0.068334 0.079183 0
-0.081962 0.078917 0
-0.095329 0.076514 0
-0.108174 0.072110 0
-0.120251 0.065800 0
-0.131323 0.057662 0
-0.141150 0.047776 0
-0.149488 0.036255 0
-0.156093 0.023257 0
-0.160718 0.009008 0
-0.163124 -0.006188 0
-0.163091 -0.021941 0
-0.160423 -0.037760 0
-0.154965 -0.053032 0
-0.146642 -0.067029 0
-0.135487 -0.078938 0
-0.121689 -0.087907 0
-0.105630 -0.093122 0
-0.087914 -0.093910 0
-0.069377 -0.089868 0
-0.051059 -0.081001 0
-0.034122 -0.067830 0
-0.019723 -0.051434 0
-0.008851 -0.033384 0
-0.002183 -0.015576 0
0.000000 0.000000 0
0.000000 -0.000000 0
-0.002657 0.026265 0
-0.009347 0.047741 0
-0.018986 0.064543 0
-0.030694 0.077030 0
-0.043773 0.085664 0
-0.057674 0.090913 0
-0.071969 0.093187 0
-0.086315 0.092815 0
-0.100426 0.090032 0
-0.114052 0.085000 0
-0.126959 0.077825 0
-0.138920 0.068584 0
-0.149701 0.057354 0
-0.159057 0.044240 0
-0.166732 0.029394 0
-0.172457 0.013040 0
-0.175957 -0.004513 0
-0.176963 -0.022858 0
-0.175220 -0.041477 0
-0.170498 -0.059702 0
-0.162630 -0.076717 0
-0.151557 -0.091572 0
-0.137377 -0.103235 0
-0.120404 -0.110664 0
-0.101216 -0.112934 0
-0.080688 -0.109391 0
-0.059981 -0.099837 0
-0.040474 -0.084701 0
-0.023608 -0.065130 0
-0.010687 -0.042943 0
-0.002663 -0.020422 0
0.000000 0.000000 0
0.000000 -0.000000 0
-0.002762 0.031048 0
-0.009711 0.056093 0
-0.019719 0.075457 0
-0.031865 0.089695 0
-0.045424 0.099445 0
-0.059833 0.105315 0
-0.074656 0.107823 0
-0.089555 0.107373 0
-0.104254 0.104250 0
-0.118519 0.098643 0
-0.132136 0.090669 0
-0.144891 0.080403 0
-0.156564 0.067914 0
-0.166918 0.053286 0
-0.175688 0.036657 0
-0.182591 0.018233 0
-0.187318 -0.001681 0
-0.189552 -0.022678 0
-0.188979 -0.044226 0
-0.185292 -0.065622 0
-0.178224 -0.085970 0
-0.167602 -0.104191 0
-0.153409 -0.119060 0
-0.135853 -0.129283 0
-0.115443 -0.133626 0
-0.093054 -0.131103 0
-0.069946 -0.121215 0
-0.047710 -0.104204 0
-0.028117 -0.081221 0
-0.012855 -0.054330 0
-0.003240 -0.026263 0
0.000000 -0.000000 0
0.000000 0.000000 0
-0.002821 0.035976 0
-0.009925 0.064698 0
-0.020157 0.086697 0
-0.032575 0.102735 0
-0.046433 0.113631 0
-0.061156 0.120144 0
-0.076309 0.122909 0
-0.091559 0.122412 0
-0.106647 0.118997 0
-0.121360 0.112882 0
-0.135506 0.104197 0
-0.148897 0.093013 0
-0.161333 0.079381 0
-0.172590 0.063364 0
-0.182411 0.045068 0
-0.190504 0.024669 0
-0.196535 0.002448 0
-0.200142 -0.021197 0
-0.200961 -0.045737 0
-0.198606 -0.070458 0
-0.192708 -0.094407 0
-0.182965 -0.116387 0
-0.169216 -0.134984 0
-0.151523 -0.148630 0
-0.130278 -0.155733 0
-0.106298 -0.154889 0
-0.080892 -0.145181 0
-0.055853 -0.126529 0
-0.033304 -0.099984 0
-0.015401 -0.067820 0
-0.003932 -0.033278 0
0.000000 -0.000000 0
0.000000 0.000000 0
-0.002835 0.040973 0
-0.009989 0.073430 0
-0.020303 0.098106 0
-0.032819 0.115970 0
-0.046781 0.128025 0
-0.061607 0.135191 0
-0.076862 0.138227 0
-0.092226 0.137712 0
-0.107458 0.134052 0
-0.122370 0.127502 0
-0.136801 0.118206 0
-0.150594 0.106230 0
-0.163580 0.091606 0
-0.175561 0.074365 0
-0.186300 0.054570 0
-0.195507 0.032356 0
-0.202841 0.007957 0
-0.207909 -0.018252 0
-0.210295 -0.045761 0
-0.209546 -0.073875 0
-0.205194 -0.101611 0
-0.196799 -0.127683 0
-0.184031 -0.150502 0
-0.166770 -0.168221 0
-0.145227 -0.178852 0
-0.120091 -0.180489 0
-0.092654 -0.171660 0
-0.064859 -0.151792 0
-0.039194 -0.121673 0
-0.018361 -0.083701 0
-0.004757 -0.041664 0
0.000000 -0.000000 0
0.000000 -0.000000 0
-0.002807 0.045966 0
-0.009915 0.082166 0
-0.020172 0.109526 0
-0.032617 0.129213 0
-0.046483 0.142419 0
-0.061185 0.150226 0
-0.076290 0.153528 0
-0.091492 0.153008 0
-0.106574 0.149141 0
-0.121378 0.142225 0
-0.135779 0.132420 0
-0.149661 0.119792 0
-0.162897 0.104348 0
-0.175329 0.086084 0
-0.186750 0.065013 0
-0.196896 0.041210 0
-0.205435 0.014851 0
-0.211964 -0.013743 0
-0.216018 -0.044099 0
-0.217100 -0.075559 0
-0.214649 -0.107154 0
-0.208088 -0.137549 0
-0.196903 -0.165013 0
-0.180751 -0.187435 0
-0.159604 -0.202411 0
-0.133940 -0.207461 0
-0.104933 -0.200413 0
-0.074602 -0.179989 0
-0.045772 -0.146482 0
-0.021760 -0.102257 0
-0.005731 -0.051638 0
0.000000 0.000000 0
0.000000 -0.000000 0
-0.002746 0.050888 0
-0.009726 0.090794 0
-0.019806 0.120808 0
-0.032022 0.142281 0
-0.045595 0.156593 0
-0.059935 0.164998 0
-0.074616 0.168534 0
-0.089347 0.167996 0
-0.103939 0.163937 0
-0.118270 0.156707 0
-0.132260 0.146489 0
-0.145842 0.133349 0
-0.158939 0.117273 0
-0.171446 0.098217 0
-0.183209 0.076138 0
-0.194008 0.051042 0
-0.203540 0.023025 0
-0.211415 -0.007669 0
-0.217142 -0.040625 0
-0.220198 -0.075245 0
-0.219948 -0.110624 0
-0.215690 -0.145429 0
-0.206720 -0.177839 0
-0.192444 -0.205520 0
-0.172537 -0.225663 0
-0.147170 -0.235159 0
-0.117287 -0.230998 0
-0.084855 -0.210953 0
-0.052973 -0.174514 0
-0.025610 -0.123742 0
-0.006869 -0.063424 0
0.000000 0.000000 0
0.000000 -0.000000 0
-0.002663 0.055691 0
-0.009464 0.099227 0
-0.019279 0.131823 0
-0.031130 0.155002 0
-0.044223 0.170332 0
-0.057961 0.179246 0
-0.071926 0.182940 0
-0.085847 0.182331 0
-0.099570 0.178064 0
-0.113015 0.170546 0
-0.126152 0.159992 0
-0.138972 0.146471 0
-0.151459 0.129953 0
-0.163575 0.110354 0
-0.175231 0.087574 0
-0.186274 0.061541 0
-0.196458 0.032258 0
-0.205432 -0.000141 0
-0.212721 -0.035316 0
-0.217784 -0.072753 0
-0.219943 -0.111663 0
-0.218394 -0.150777 0
-0.212258 -0.188258 0
-0.200676 -0.221618 0
-0.182975 -0.247685 0
-0.158930 -0.262712 0
-0.129110 -0.262729 0
-0.095277 -0.244303 0
-0.060669 -0.205728 0
-0.029901 -0.148361 0
-0.008185 -0.077248 0
0.000000 -0.000000 0
0.000000 0.000000 0
-0.002581 0.060352 0
-0.009194 0.107411 0
-0.018703 0.142475 0
-0.030091 0.167225 0
-0.042537 0.183424 0
-0.055436 0.192700 0
-0.068380 0.196420 0
-0.081130 0.195640 0
-0.093569 0.191105 0
-0.105672 0.183290 0
-0.117466 0.172446 0
-0.129004 0.158656 0
-0.140344 0.141876 0
-0.151520 0.121989 0
-0.162527 0.098837 0
-0.173294 0.072268 0
-0.183660 0.042184 0
-0.193348 0.008595 0
-0.201944 -0.028273 0
-0.208898 -0.068023 0
-0.213535 -0.110015 0
-0.214992 -0.153113 0
-0.212241 -0.195556 0
-0.204166 -0.234803 0
-0.189718 -0.267409 0
-0.168190 -0.289024 0
-0.139631 -0.294650 0
-0.105393 -0.279395 0
-0.068657 -0.239891 0
-0.034599 -0.176226 0
-0.009693 -0.093325 0
0.000000 -0.000000 0
0.000000 0.000000 0
-0.002531 0.064885 0
-0.009011 0.115348 0
-0.018237 0.152720 0
-0.029114 0.178836 0
-0.040775 0.195676 0
-0.052604 0.205089 0
-0.064214 0.208634 0
-0.075407 0.207521 0
-0.086123 0.202607 0
-0.096396 0.194443 0
-0.106319 0.183324 0
-0.116017 0.169348 0
-0.125623 0.152468 0
-0.135254 0.132537 0
-0.144997 0.109348 0
-0.154879 0.082674 0
-0.164844 0.052312 0
-0.174725 0.018144 0
-0.184202 -0.019765 0
-0.192755 -0.061161 0
-0.199764 -0.105570 0
-0.204356 -0.152072 0
-0.205408 -0.199084 0
-0.201584 -0.244140 0
-0.191455 -0.283662 0
-0.173768 -0.312799 0
-0.147909 -0.325525 0
-0.114586 -0.315278 0
-0.076645 -0.276522 0
-0.039642 -0.207324 0
-0.011405 -0.111847 0
0.000000 -0.000000 0
0.000000 -0.000000 0
-0.002558 0.069363 0
-0.009049 0.123117 0
-0.018102 0.162579 0
-0.028483 0.189764 0
-0.039250 0.206913 0
-0.049781 0.216139 0
-0.059729 0.219224 0
-0.068958 0.217549 0
-0.077481 0.212093 0
-0.085409 0.203485 0
-0.092911 0.192068 0
-0.100189 0.177960 0
-0.107453 0.161114 0
-0.114906 0.141363 0
-0.122726 0.118461 0
-0.131049 0.092116 0
-0.139940 0.062030 0
-0.149362 0.027952 0
-0.159127 -0.010243 0
-0.168802 -0.052461 0
-0.177872 -0.098414 0
-0.185516 -0.147468 0
-0.190591 -0.198328 0
-0.191609 -0.248757 0
-0.186802 -0.295225 0
-0.174347 -0.332570 0
-0.152836 -0.353833 0
-0.122081 -0.350659 0
-0.084242 -0.314834 0
-0.044934 -0.241466 0
-0.013336 -0.132967 0
0.000000 0.000000 0
0.000000 -0.000000 0
-0.002729 0.073934 0
-0.009494 0.130892 0
-0.018595 0.172154 0
-0.028558 0.199985 0
-0.038344 0.216975 0
-0.047338 0.225567 0
-0.055263 0.227811 0
-0.062083 0.225273 0
-0.067911 0.219058 0
-0.072955 0.209873 0
-0.077470 0.198104 0
-0.081741 0.183890 0
-0.086054 0.167185 0
-0.090694 0.147811 0
-0.095928 0.125491 0
-0.101994 0.099888 0
-0.109078 0.070625 0
-0.117284 0.037331 0
-0.126588 -0.000325 0
-0.136755 -0.042416 0
-0.147364 -0.088856 0
-0.157722 -0.139353 0
-0.166770 -0.192991 0
-0.172986 -0.247929 0
-0.174349 -0.300924 0
-0.168493 -0.346765 0
-0.153134 -0.377791 0
-0.126933 -0.383871 0
-0.090936 -0.353669 0
-0.050341 -0.278230 0
-0.015509 -0.156781 0
0.000000 0.000000 0
0.000000 0.000000 0
-0.003145 0.078857 0
-0.010614 0.138982 0
-0.020106 0.181643 0
-0.029783 0.209514 0
-0.038487 0.225693 0
-0.045651 0.233057 0
-0.051127 0.233969 0
-0.055028 0.230197 0
-0.057608 0.222965 0
-0.059194 0.213044 0
-0.060141 0.200854 0
-0.060818 0.186543 0
-0.061590 0.170067 0
-0.062810 0.151237 0
-0.064824 0.129761 0
-0.067962 0.105266 0
-0.072518 0.077320 0
-0.078732 0.045462 0
-0.086758 0.009228 0
-0.096616 -0.031685 0
-0.108015 -0.077447 0
-0.120465 -0.128062 0
-0.133118 -0.183064 0
-0.144565 -0.241178 0
-0.152680 -0.299718 0
-0.154663 -0.353785 0
-0.147338 -0.395393 0
-0.127991 -0.412856 0
-0.096066 -0.391427 0
-0.055683 -0.316893 0
-0.017965 -0.183308 0
0.000000 -0.000000 0
0.000000 0.000000 0
-0.003964 0.084548 0
-0.012781 0.147853 0
-0.023133 0.191324 0
-0.032655 0.218366 0
-0.040089 0.232842 0
-0.045004 0.238208 0
-0.047474 0.237188 0
-0.047833 0.231754 0
-0.046524 0.223224 0
-0.044021 0.212406 0
-0.040788 0.199729 0
-0.037287 0.185339 0
-0.033952 0.169177 0
-0.031196 0.151045 0
-0.029427 0.130644 0
-0.029045 0.107581 0
-0.030430 0.081395 0
-0.033941 0.051571 0
-0.039895 0.017558 0
-0.048523 -0.021160 0
-0.059783 -0.065007 0
-0.073444 -0.114249 0
-0.088995 -0.168891 0
-0.105316 -0.228367 0
-0.120384 -0.290826 0
-0.131181 -0.352108 0
-0.133746 -0.404463 0
-0.123830 -0.435144 0
-0.098761 -0.425977 0
-0.060715 -0.356331 0
-0.020784 -0.212464 0
0.000000 -0.000000 0
0.000000 0.000000 0
-0.005439 0.091638 0
-0.016520 0.158151 0
-0.028264 0.201516 0
-0.037635 0.226470 0
-0.043378 0.238041 0
-0.045367 0.240442 0
-0.044036 0.236798 0
-0.040038 0.229247 0
-0.034059 0.219153 0
-0.026743 0.207309 0
-0.018672 0.194120 0
-0.010394 0.179707 0
-0.002419 0.163976 0
0.004791 0.146712 0
0.010795 0.127610 0
0.015159 0.106268 0
0.017447 0.082216 0
0.017218 0.054927 0
0.014040 0.023810 0
0.007515 -0.011797 0
-0.002599 -0.052526 0
-0.016439 -0.098850 0
-0.033891 -0.151191 0
-0.054302 -0.209788 0
-0.076022 -0.273854 0
-0.096186 -0.340424 0
-0.110310 -0.402743 0
-0.112614 -0.447841 0
-0.097812 -0.454542 0
-0.065056 -0.394870 0
-0.024100 -0.244023 0
0.000000 0.000000 0
0.000000 -0.000000 0
-0.007984 0.101068 0
-0.022529 0.170678 0
-0.036075 0.212439 0
-0.044891 0.233480 0
-0.048020 0.240573 0
-0.045932 0.238865 0
-0.039618 0.231860 0
-0.030154 0.221776 0
-0.018512 0.209928 0
-0.005513 0.197019 0
0.008089 0.183379 0
0.021688 0.169086 0
0.034751 0.153992 0
0.046794 0.137831 0
0.057370 0.120276 0
0.066035 0.100930 0
0.072326 0.079336 0
0.075758 0.054978 0
0.075822 0.027262 0
0.071997 -0.004521 0
0.063798 -0.041054 0
0.050750 -0.082958 0
0.032593 -0.131027 0
0.009401 -0.186236 0
-0.018042 -0.248943 0
-0.047551 -0.317819 0
-0.074458 -0.388035 0
-0.091827 -0.447642 0
-0.091400 -0.473534 0
-0.068031 -0.430043 0
-0.028102 -0.277521 0
0.000000 0.000000 0
0.000000 -0.000000 0
-0.012276 0.114167 0
-0.031611 0.186241 0
-0.046746 0.223879 0
-0.053641 0.238415 0
-0.052278 0.239082 0
-0.044184 0.232040 0
-0.031125 0.221019 0
-0.014686 0.208141 0
0.003836 0.194512 0
0.023384 0.180707 0
0.043142 0.166919 0
0.062498 0.153046 0
0.080957 0.138871 0
0.098060 0.124093 0
0.113375 0.108369 0
0.126466 0.091313 0
0.136871 0.072494 0
0.144087 0.051431 0
0.147561 0.027571 0
0.146679 0.000226 0
0.140756 -0.031280 0
0.129126 -0.067645 0
0.111174 -0.109842 0
0.086411 -0.159153 0
0.054689 -0.216902 0
0.017125 -0.284008 0
-0.022778 -0.358467 0
-0.057818 -0.430899 0
-0.076563 -0.478338 0
-0.068260 -0.458168 0
-0.032940 -0.312054 0
0.000000 0.000000 0
0.000000 0.000000 0
-0.019358 0.132679 0
-0.044232 0.205148 0
-0.058936 0.234469 0
-0.060571 0.239013 0
-0.051223 0.231117 0
-0.034075 0.217712 0
-0.011805 0.202362 0
0.013376 0.186815 0
0.039899 0.171858 0
0.066662 0.157714 0
0.092958 0.144265 0
0.118249 0.131270 0
0.142108 0.118430 0
0.164150 0.105413 0
0.183997 0.091870 0
0.201257 0.077434 0
0.215494 0.061715 0
0.226219 0.044288 0
0.232864 0.024670 0
0.234771 0.002283 0
0.231138 -0.023500 0
0.221125 -0.053375 0
0.203815 -0.088312 0
0.178258 -0.129751 0
0.143643 -0.179657 0
0.099869 -0.240352 0
0.048404 -0.313092 0
-0.005050 -0.393858 0
-0.048154 -0.463092 0
-0.062703 -0.473666 0
-0.038326 -0.345780 0
0.000000 -0.000000 0
0.000000 0.000000 0
-0.030455 0.158399 0
-0.058688 0.225820 0
-0.066644 0.240218 0
-0.056165 0.230702 0
-0.033109 0.212587 0
-0.002690 0.192622 0
0.031322 0.173568 0
0.066564 0.156438 0
0.101607 0.141226 0
0.135639 0.127648 0
0.168151 0.115333 0
0.198796 0.103896 0
0.227300 0.092970 0