# vtk DataFile Version 2.0
generated by CFD-lab course output (written by Tobias Neckel) 
ASCII

DATASET STRUCTURED_GRID
DIMENSIONS  33 33 1 
POINTS 1089 float

0.000000 0.000000 0
0.031250 0.000000 0
0.062500 0.000000 0
0.093750 0.000000 0
0.125000 0.000000 0
0.156250 0.000000 0
0.187500 0.000000 0
0.218750 0.000000 0
0.250000 0.000000 0
0.281250 0.000000 0
0.312500 0.000000 0
0.343750 0.000000 0
0.375000 0.000000 0
0.406250 0.000000 0
0.437500 0.000000 0
0.468750 0.000000 0
0.500000 0.000000 0
0.531250 0.000000 0
0.562500 0.000000 0
0.593750 0.000000 0
0.625000 0.000000 0
0.656250 0.000000 0
0.687500 0.000000 0
0.718750 0.000000 0
0.750000 0.000000 0
0.781250 0.000000 0
0.812500 0.000000 0
0.843750 0.000000 0
0.875000 0.000000 0
0.906250 0.000000 0
0.937500 0.000000 0
0.968750 0.000000 0
1.000000 0.000000 0
0.000000 0.031250 0
0.031250 0.031250 0
0.062500 0.031250 0
0.093750 0.031250 0
0.125000 0.031250 0
0.156250 0.031250 0
0.187500 0.031250 0
0.218750 0.031250 0
0.250000 0.031250 0
0.281250 0.031250 0
0.312500 0.031250 0
0.343750 0.031250 0
0.375000 0.031250 0
0.406250 0.031250 0
0.437500 0.031250 0
0.468750 0.031250 0
0.500000 0.031250 0
0.531250 0.031250 0
0.562500 0.031250 0
0.593750 0.031250 0
0.625000 0.031250 0
0.656250 0.031250 0
0.687500 0.031250 0
0.718750 0.031250 0
0.750000 0.031250 0
0.781250 0.031250 0
0.812500 0.031250 0
0.843750 0.031250 0
0.875000 0.031250 0
0.906250 0.031250 0
0.937500 0.031250 0
0.968750 0.031250 0
1.000000 0.031250 0
0.000000 0.062500 0
0.031250 0.062500 0
0.062500 0.062500 0
0.093750 0.062500 0
0.125000 0.062500 0
0.156250 0.062500 0
0.187500 0.062500 0
0.218750 0.062500 0
0.250000 0.062500 0
0.281250 0.062500 0
0.312500 0.062500 0
0.343750 0.062500 0
0.375000 0.062500 0
0.406250 0.062500 0
0.437500 0.062500 0
0.468750 0.062500 0
0.500000 0.062500 0
0.531250 0.062500 0
0.562500 0.062500 0
0.593750 0.062500 0
0.625000 0.062500 0
0.656250 0.062500 0
0.687500 0.062500 0
0.718750 0.062500 0
0.750000 0.062500 0
0.781250 0.062500 0
0.812500 0.062500 0
0.843750 0.062500 0
0.875000 0.062500 0
0.906250 0.062500 0
0.937500 0.062500 0
0.968750 0.062500 0
1.000000 0.062500 0
0.000000 0.093750 0
0.031250 0.093750 0
0.062500 0.093750 0
0.093750 0.093750 0
0.125000 0.093750 0
0.156250 0.093750 0
0.187500 0.093750 0
0.218750 0.093750 0
0.250000 0.093750 0
0.281250 0.093750 0
0.312500 0.093750 0
0.343750 0.093750 0
0.375000 0.093750 0
0.406250 0.093750 0
0.437500 0.093750 0
0.468750 0.093750 0
0.500000 0.093750 0
0.531250 0.093750 0
0.562500 0.093750 0
0.593750 0.093750 0
0.625000 0.093750 0
0.656250 0.093750 0
0.687500 0.093750 0
0.718750 0.093750 0
0.750000 0.093750 0
0.781250 0.093750 0
0.812500 0.093750 0
0.843750 0.093750 0
0.875000 0.093750 0
0.906250 0.093750 0
0.937500 0.093750 0
0.968750 0.093750 0
1.000000 0.093750 0
0.000000 0.125000 0
0.031250 0.125000 0
0.062500 0.125000 0
0.093750 0.125000 0
0.125000 0.125000 0
0.156250 0.125000 0
0.187500 0.125000 0
0.218750 0.125000 0
0.250000 0.125000 0
0.281250 0.125000 0
0.312500 0.125000 0
0.343750 0.125000 0
0.375000 0.125000 0
0.406250 0.125000 0
0.437500 0.125000 0
0.468750 0.125000 0
0.500000 0.125000 0
0.531250 0.125000 0
0.562500 0.125000 0
0.593750 0.125000 0
0.625000 0.125000 0
0.656250 0.125000 0
0.687500 0.125000 0
0.718750 0.125000 0
0.750000 0.125000 0
0.781250 0.125000 0
0.812500 0.125000 0
0.843750 0.125000 0
0.875000 0.125000 0
0.906250 0.125000 0
0.937500 0.125000 0
0.968750 0.125000 0
1.000000 0.125000 0
0.000000 0.156250 0
0.031250 0.156250 0
0.062500 0.156250 0
0.093750 0.156250 0
0.125000 0.156250 0
0.156250 0.156250 0
0.187500 0.156250 0
0.218750 0.156250 0
0.250000 0.156250 0
0.281250 0.156250 0
0.312500 0.156250 0
0.343750 0.156250 0
0.375000 0.156250 0
0.406250 0.156250 0
0.437500 0.156250 0
0.468750 0.156250 0
0.500000 0.156250 0
0.531250 0.156250 0
0.562500 0.156250 0
0.593750 0.156250 0
0.625000 0.156250 0
0.656250 0.156250 0
0.687500 0.156250 0
0.718750 0.156250 0
0.750000 0.156250 0
0.781250 0.156250 0
0.812500 0.156250 0
0.843750 0.156250 0
0.875000 0.156250 0
0.906250 0.156250 0
0.937500 0.156250 0
0.968750 0.156250 0
1.000000 0.156250 0
0.000000 0.187500 0
0.031250 0.187500 0
0.062500 0.187500 0
0.093750 0.187500 0
0.125000 0.187500 0
0.156250 0.187500 0
0.187500 0.187500 0
0.218750 0.187500 0
0.250000 0.187500 0
0.281250 0.187500 0
0.312500 0.187500 0
0.343750 0.187500 0
0.375000 0.187500 0
0.406250 0.187500 0
0.437500 0.187500 0
0.468750 0.187500 0
0.500000 0.187500 0
0.531250 0.187500 0
0.562500 0.187500 0
0.593750 0.187500 0
0.625000 0.187500 0
0.656250 0.187500 0
0.687500 0.187500 0
0.718750 0.187500 0
0.750000 0.187500 0
0.781250 0.187500 0
0.812500 0.187500 0
0.843750 0.187500 0
0.875000 0.187500 0
0.906250 0.187500 0
0.937500 0.187500 0
0.968750 0.187500 0
1.000000 0.187500 0
0.000000 0.218750 0
0.031250 0.218750 0
0.062500 0.218750 0
0.093750 0.218750 0
0.125000 0.218750 0
0.156250 0.218750 0
0.187500 0.218750 0
0.218750 0.218750 0
0.250000 0.218750 0
0.281250 0.218750 0
0.312500 0.218750 0
0.343750 0.218750 0
0.375000 0.218750 0
0.406250 0.218750 0
0.437500 0.218750 0
0.468750 0.218750 0
0.500000 0.218750 0
0.531250 0.218750 0
0.562500 0.218750 0
0.593750 0.218750 0
0.625000 0.218750 0
0.656250 0.218750 0
0.687500 0.218750 0
0.718750 0.218750 0
0.750000 0.218750 0
0.781250 0.218750 0
0.812500 0.218750 0
0.843750 0.218750 0
0.875000 0.218750 0
0.906250 0.218750 0
0.937500 0.218750 0
0.968750 0.218750 0
1.000000 0.218750 0
0.000000 0.250000 0
0.031250 0.250000 0
0.062500 0.250000 0
0.093750 0.250000 0
0.125000 0.250000 0
0.156250 0.250000 0
0.187500 0.250000 0
0.218750 0.250000 0
0.250000 0.250000 0
0.281250 0.250000 0
0.312500 0.250000 0
0.343750 0.250000 0
0.375000 0.250000 0
0.406250 0.250000 0
0.437500 0.250000 0
0.468750 0.250000 0
0.500000 0.250000 0
0.531250 0.250000 0
0.562500 0.250000 0
0.593750 0.250000 0
0.625000 0.250000 0
0.656250 0.250000 0
0.687500 0.250000 0
0.718750 0.250000 0
0.750000 0.250000 0
0.781250 0.250000 0
0.812500 0.250000 0
0.843750 0.250000 0
0.875000 0.250000 0
0.906250 0.250000 0
0.937500 0.250000 0
0.968750 0.250000 0
1.000000 0.250000 0
0.000000 0.281250 0
0.031250 0.281250 0
0.062500 0.281250 0
0.093750 0.281250 0
0.125000 0.281250 0
0.156250 0.281250 0
0.187500 0.281250 0
0.218750 0.281250 0
0.250000 0.281250 0
0.281250 0.281250 0
0.312500 0.281250 0
0.343750 0.281250 0
0.375000 0.281250 0
0.406250 0.281250 0
0.437500 0.281250 0
0.468750 0.281250 0
0.500000 0.281250 0
0.531250 0.281250 0
0.562500 0.281250 0
0.593750 0.281250 0
0.625000 0.281250 0
0.656250 0.281250 0
0.687500 0.281250 0
0.718750 0.281250 0
0.750000 0.281250 0
0.781250 0.281250 0
0.812500 0.281250 0
0.843750 0.281250 0
0.875000 0.281250 0
0.906250 0.281250 0
0.937500 0.281250 0
0.968750 0.281250 0
1.000000 0.281250 0
0.000000 0.312500 0
0.031250 0.312500 0
0.062500 0.312500 0
0.093750 0.312500 0
0.125000 0.312500 0
0.156250 0.312500 0
0.187500 0.312500 0
0.218750 0.312500 0
0.250000 0.312500 0
0.281250 0.312500 0
0.312500 0.312500 0
0.343750 0.312500 0
0.375000 0.312500 0
0.406250 0.312500 0
0.437500 0.312500 0
0.468750 0.312500 0
0.500000 0.312500 0
0.531250 0.312500 0
0.562500 0.312500 0
0.593750 0.312500 0
0.625000 0.312500 0
0.656250 0.312500 0
0.687500 0.312500 0
0.718750 0.312500 0
0.750000 0.312500 0
0.781250 0.312500 0
0.812500 0.312500 0
0.843750 0.312500 0
0.875000 0.312500 0
0.906250 0.312500 0
0.937500 0.312500 0
0.968750 0.312500 0
1.000000 0.312500 0
0.000000 0.343750 0
0.031250 0.343750 0
0.062500 0.343750 0
0.093750 0.343750 0
0.125000 0.343750 0
0.156250 0.343750 0
0.187500 0.343750 0
0.218750 0.343750 0
0.250000 0.343750 0
0.281250 0.343750 0
0.312500 0.343750 0
0.343750 0.343750 0
0.375000 0.343750 0
0.406250 0.343750 0
0.437500 0.343750 0
0.468750 0.343750 0
0.500000 0.343750 0
0.531250 0.343750 0
0.562500 0.343750 0
0.593750 0.343750 0
0.625000 0.343750 0
0.656250 0.343750 0
0.687500 0.343750 0
0.718750 0.343750 0
0.750000 0.343750 0
0.781250 0.343750 0
0.812500 0.343750 0
0.843750 0.343750 0
0.875000 0.343750 0
0.906250 0.343750 0
0.937500 0.343750 0
0.968750 0.343750 0
1.000000 0.343750 0
0.000000 0.375000 0
0.031250 0.375000 0
0.062500 0.375000 0
0.093750 0.375000 0
0.125000 0.375000 0
0.156250 0.375000 0
0.187500 0.375000 0
0.218750 0.375000 0
0.250000 0.375000 0
0.281250 0.375000 0
0.312500 0.375000 0
0.343750 0.375000 0
0.375000 0.375000 0
0.406250 0.375000 0
0.437500 0.375000 0
0.468750 0.375000 0
0.500000 0.375000 0
0.531250 0.375000 0
0.562500 0.375000 0
0.593750 0.375000 0
0.625000 0.375000 0
0.656250 0.375000 0
0.687500 0.375000 0
0.718750 0.375000 0
0.750000 0.375000 0
0.781250 0.375000 0
0.812500 0.375000 0
0.843750 0.375000 0
0.875000 0.375000 0
0.906250 0.375000 0
0.937500 0.375000 0
0.968750 0.375000 0
1.000000 0.375000 0
0.000000 0.406250 0
0.031250 0.406250 0
0.062500 0.406250 0
0.093750 0.406250 0
0.125000 0.406250 0
0.156250 0.406250 0
0.187500 0.406250 0
0.218750 0.406250 0
0.250000 0.406250 0
0.281250 0.406250 0
0.312500 0.406250 0
0.343750 0.406250 0
0.375000 0.406250 0
0.406250 0.406250 0
0.437500 0.406250 0
0.468750 0.406250 0
0.500000 0.406250 0
0.531250 0.406250 0
0.562500 0.406250 0
0.593750 0.406250 0
0.625000 0.406250 0
0.656250 0.406250 0
0.687500 0.406250 0
0.718750 0.406250 0
0.750000 0.406250 0
0.781250 0.406250 0
0.812500 0.406250 0
0.843750 0.406250 0
0.875000 0.406250 0
0.906250 0.406250 0
0.937500 0.406250 0
0.968750 0.406250 0
1.000000 0.406250 0
0.000000 0.437500 0
0.031250 0.437500 0
0.062500 0.437500 0
0.093750 0.437500 0
0.125000 0.437500 0
0.156250 0.437500 0
0.187500 0.437500 0
0.218750 0.437500 0
0.250000 0.437500 0
0.281250 0.437500 0
0.312500 0.437500 0
0.343750 0.437500 0
0.375000 0.437500 0
0.406250 0.437500 0
0.437500 0.437500 0
0.468750 0.437500 0
0.500000 0.437500 0
0.531250 0.437500 0
0.562500 0.437500 0
0.593750 0.437500 0
0.625000 0.437500 0
0.656250 0.437500 0
0.687500 0.437500 0
0.718750 0.437500 0
0.750000 0.437500 0
0.781250 0.437500 0
0.812500 0.437500 0
0.843750 0.437500 0
0.875000 0.437500 0
[...]
POINT_DATA 1089 

VECTORS velocity float
0.000000 0.000000 0
-0.000000 0.000000 0
0.000000 0.000000 0
0.000001 0.000000 0
0.000000 0.000000 0
0.000000 0.000000 0
-0.000000 0.000000 0
-0.000000 0.000000 0
-0.000000 0.000000 0
-0.000000 0.000000 0
0.000000 0.000000 0
0.000000 0.000000 0
0.000000 0.000000 0
0.000000 0.000000 0
0.000000 0.000000 0
-0.000000 0.000000 0
-0.000000 0.000000 0
-0.000000 0.000000 0
-0.000000 0.000000 0
-0.000000 0.000000 0
0.000000 0.000000 0
0.000000 0.000000 0
0.000000 0.000000 0
0.000000 0.000000 0
0.000000 0.000000 0
0.000000 0.000000 0
-0.000000 0.000000 0
-0.000000 0.000000 0
-0.000000 0.000000 0
-0.000000 0.000000 0
-0.000000 0.000000 0
0.000000 0.000000 0
0.000000 0.000000 0
0.000000 0.000000 0
0.001084 -0.001072 0
0.002314 -0.001027 0
0.002684 -0.000437 0
0.001794 0.000296 0
-0.000434 0.001025 0
-0.004000 0.001753 0
-0.008912 0.002517 0
-0.015175 0.003342 0
-0.022728 0.004212 0
-0.031397 0.005068 0
-0.040879 0.005820 0
-0.050745 0.006358 0
-0.060472 0.006565 0
-0.069476 0.006338 0
-0.077150 0.005604 0
-0.082904 0.004331 0
-0.086200 0.002540 0
-0.086576 0.000330 0
-0.083684 -0.002242 0
-0.077325 -0.005048 0
-0.067589 -0.007755 0
-0.054893 -0.009964 0
-0.040030 -0.011245 0
-0.024217 -0.011183 0
-0.009083 -0.009449 0
0.003441 -0.006170 0
0.011476 -0.002231 0
0.014137 0.001168 0
0.012289 0.003286 0
0.007830 0.003924 0
0.002856 0.002863 0
0.000000 -0.000000 0
0.000000 0.000001 0
0.000952 -0.002313 0
0.001272 -0.001598 0
-0.000172 0.000520 0
-0.003820 0.003117 0
-0.009800 0.005792 0
-0.018093 0.008477 0
-0.028590 0.011175 0
-0.041053 0.013816 0
-0.055078 0.016223 0
-0.070089 0.018151 0
-0.085386 0.019348 0
-0.100194 0.019593 0
-0.113739 0.018731 0
-0.125290 0.016678 0
-0.134206 0.013429 0
-0.139948 0.009050 0
-0.142095 0.003672 0
-0.140327 -0.002515 0
-0.134409 -0.009251 0
-0.124402 -0.016096 0
-0.110559 -0.022432 0
-0.093349 -0.027558 0
-0.073526 -0.030676 0
-0.052210 -0.030947 0
-0.030943 -0.027657 0
-0.011666 -0.020559 0
0.003279 -0.010697 0
0.011706 -0.000813 0
0.012958 0.006307 0
0.009304 0.009433 0
0.003753 0.007830 0
0.000000 0.000000 0
0.000000 0.000000 0
-0.000096 -0.002343 0
-0.002196 0.000095 0
-0.006944 0.004653 0
-0.014526 0.009923 0
-0.024939 0.015299 0
-0.038007 0.020544 0
-0.053355 0.025479 0
-0.070408 0.029831 0
-0.088432 0.033248 0
-0.106607 0.035375 0
-0.124105 0.035924 0
-0.140152 0.034710 0
-0.154067 0.031660 0
-0.165290 0.026805 0
-0.173378 0.020262 0
-0.178002 0.012220 0
-0.178933 0.002919 0
-0.176019 -0.007356 0
-0.169177 -0.018167 0
-0.158491 -0.028897 0
-0.144107 -0.038809 0
-0.126307 -0.046997 0
-0.105571 -0.052384 0
-0.082667 -0.053767 0
-0.058756 -0.049994 0
-0.035480 -0.040392 0
-0.015007 -0.025603 0
-0.000065 -0.008511 0
0.006993 0.005688 0
0.006783 0.013129 0
0.003058 0.012167 0
0.000000 0.000000 0
0.000000 -0.000000 0
-0.001826 -0.000119 0
-0.007277 0.005249 0
-0.015978 0.012851 0
-0.027687 0.021113 0
-0.042158 0.029275 0
-0.058988 0.036894 0
-0.077564 0.043576 0
-0.097122 0.048892 0
-0.116830 0.052421 0
-0.135883 0.053824 0
-0.153561 0.052892 0
-0.169260 0.049555 0
-0.182506 0.043869 0
-0.192940 0.035988 0
-0.200305 0.026141 0
-0.204421 0.014605 0
-0.205165 0.001689 0
-0.202455 -0.012271 0
-0.196237 -0.026780 0
-0.186479 -0.041166 0
-0.173174 -0.054616 0
-0.156385 -0.066095 0
-0.136295 -0.074316 0
-0.113306 -0.077762 0
-0.088160 -0.074844 0
-0.062110 -0.064308 0
-0.037122 -0.046112 0
-0.016062 -0.022812 0
-0.002193 -0.000541 0
0.002680 0.013368 0
0.001838 0.014613 0
0.000000 -0.000000 0
0.000000 -0.000000 0
-0.003943 0.004933 0
-0.012971 0.014248 0
-0.025462 0.025064 0
-0.040697 0.036105 0
-0.058205 0.046600 0
-0.077427 0.055950 0
-0.097661 0.063612 0
-0.118134 0.069096 0
-0.138093 0.072009 0
-0.156877 0.072106 0
-0.173943 0.069301 0
-0.188879 0.063655 0
-0.201382 0.055340 0
-0.211239 0.044604 0
-0.218301 0.031743 0
-0.222460 0.017080 0
-0.223638 0.000953 0
-0.221771 -0.016284 0
-0.216809 -0.034144 0
-0.208642 -0.051960 0
-0.197144 -0.068902 0
-0.182176 -0.083876 0
-0.163643 -0.095463 0
-0.141577 -0.101902 0
-0.116279 -0.101190 0
-0.088543 -0.091429 0
-0.059965 -0.071651 0
-0.033328 -0.043441 0
-0.012681 -0.013053 0
-0.001683 0.009099 0
0.000740 0.014847 0
0.000000 -0.000000 0
0.000000 0.000000 0
-0.006046 0.012852 0
-0.018269 0.026768 0
-0.033828 0.040577 0
-0.051612 0.053856 0
-0.071012 0.066005 0
-0.091421 0.076350 0
-0.112162 0.084283 0
-0.132559 0.089324 0
-0.152002 0.091164 0
-0.169993 0.089675 0
-0.186152 0.084895 0
-0.200206 0.076994 0
-0.211969 0.066228 0
-0.221315 0.052907 0
-0.228165 0.037363 0
-0.232464 0.019942 0
-0.234179 0.000999 0
-0.233286 -0.019100 0
-0.229764 -0.039909 0
-0.223482 -0.060830 0
-0.214225 -0.081082 0
-0.201688 -0.099595 0
-0.185517 -0.114915 0
-0.165382 -0.125126 0
-0.141130 -0.127877 0
-0.113031 -0.120623 0
-0.082159 -0.101328 0
-0.050953 -0.070095 0
-0.023770 -0.032186 0
-0.006197 -0.000053 0
-0.000152 0.012930 0
0.000000 0.000000 0
0.000000 0.000000 0
-0.007766 0.023203 0
-0.022398 0.042030 0
-0.040063 0.058406 0
-0.059375 0.073289 0
-0.079658 0.086409 0
-0.100330 0.097100 0
-0.120796 0.104751 0
-0.140502 0.108936 0
-0.158981 0.109443 0
-0.175868 0.106256 0
-0.190899 0.099515 0
-0.203894 0.089472 0
-0.214743 0.076449 0
-0.223391 0.060800 0
-0.229826 0.042892 0
-0.234072 0.023094 0
-0.236170 0.001774 0
-0.236162 -0.020699 0
-0.234079 -0.043947 0
-0.229802 -0.067500 0
-0.223063 -0.090696 0
-0.213432 -0.112584 0
-0.200333 -0.131769 0
-0.183109 -0.146288 0
-0.161160 -0.153541 0
-0.134202 -0.150400 0
-0.102689 -0.133729 0
-0.068474 -0.101831 0
-0.035722 -0.057809 0
-0.011376 -0.014519 0
-0.000984 0.008649 0
0.000000 0.000000 0
0.000000 -0.000000 0
-0.008855 0.035250 0
-0.024934 0.059065 0
-0.043723 0.077553 0
-0.063638 0.093451 0
-0.083983 0.106961 0
-0.104224 0.117488 0
-0.123861 0.124456 0
-0.142453 0.127510 0
-0.159640 0.126530 0
-0.175154 0.121592 0
-0.188805 0.112921 0
-0.200479 0.100838 0
-0.210130 0.085725 0
-0.217774 0.067990 0
-0.223488 0.048044 0
-0.227394 0.026286 0
-0.229630 0.003090 0
-0.230321 -0.021191 0
-0.229550 -0.046270 0
-0.227239 -0.071847 0
-0.223111 -0.097451 0
-0.216659 -0.122325 0
-0.207147 -0.145239 0
-0.193642 -0.164300 0
-0.175141 -0.176784 0
-0.150811 -0.179093 0
-0.120431 -0.167056 0
-0.085105 -0.137063 0
-0.048384 -0.089283 0
-0.017595 -0.034791 0
-0.001998 0.001554 0
0.000000 -0.000000 0
0.000000 -0.000000 0
-0.009209 0.048136 0
-0.025762 0.076898 0
-0.044775 0.097111 0
-0.064509 0.113549 0
-0.084256 0.126995 0
-0.103534 0.136978 0
-0.121926 0.142980 0
-0.139078 0.144715 0
-0.154707 0.142144 0
-0.168606 0.135420 0
-0.180638 0.124840 0
-0.190741 0.110797 0
-0.198931 0.093743 0
-0.205302 0.074158 0
-0.210028 0.052512 0
-0.213333 0.029236 0
-0.215455 0.004702 0
-0.216604 -0.020779 0
-0.216912 -0.047029 0
-0.216363 -0.073938 0
-0.214712 -0.101276 0
-0.211446 -0.128548 0
-0.205742 -0.154786 0
-0.196476 -0.178294 0
-0.182303 -0.196373 0
-0.161876 -0.205110 0
-0.134283 -0.199434 0
-0.099784 -0.173877 0
-0.061032 -0.125319 0
-0.024924 -0.060906 0
-0.003374 -0.008946 0
0.000000 -0.000000 0
0.000000 0.000000 0
-0.008845 0.061012 0
-0.024982 0.094632 0
-0.043436 0.116300 0
-0.062341 0.132932 0
-0.080964 0.145985 0
-0.098867 0.155158 0
-0.115698 0.160000 0
-0.131164 0.160291 0
-0.145036 0.156058 0
-0.157148 0.147523 0
-0.167407 0.135057 0
-0.175796 0.119131 0
-0.182390 0.100286 0
-0.187359 0.079087 0
-0.190960 0.056074 0
-0.193505 0.031713 0
-0.195315 0.006361 0
-0.196670 -0.019735 0
-0.197747 -0.046511 0
-0.198600 -0.074046 0
-0.199063 -0.102368 0
-0.198687 -0.131295 0
-0.196667 -0.160208 0
-0.191788 -0.187739 0
-0.182453 -0.211385 0
-0.166865 -0.227113 0
-0.143433 -0.229147 0
-0.111523 -0.210313 0
-0.072722 -0.164144 0
-0.032965 -0.092449 0
-0.005194 -0.023370 0
0.000000 0.000000 0
0.000000 0.000000 0
-0.007861 0.073119 0
-0.022812 0.111488 0
-0.040054 0.134469 0
-0.057605 0.151077 0
-0.074694 0.163521 0
-0.090911 0.171712 0
-0.105951 0.175277 0
-0.119569 0.174053 0
-0.131574 0.168129 0
-0.141837 0.157792 0
-0.150298 0.143487 0
-0.156985 0.125779 0
-0.162025 0.105307 0
-0.165647 0.082729 0
-0.168165 0.058658 0
-0.169944 0.033592 0
-0.171353 0.007867 0
-0.172709 -0.018347 0
-0.174226 -0.045098 0
-0.176019 -0.072623 0
-0.178038 -0.101190 0
-0.179978 -0.130944 0
-0.181160 -0.161685 0
-0.180409 -0.192508 0
-0.176001 -0.221295 0
-0.165774 -0.244130 0
-0.147503 -0.254777 0
-0.119640 -0.244589 0
-0.082607 -0.203877 0
-0.041061 -0.128434 0
-0.007657 -0.041911 0
0.000000 0.000000 0
0.000000 -0.000000 0
-0.006395 0.083825 0
-0.019530 0.126824 0
-0.035029 0.151093 0
-0.050816 0.167573 0
-0.066061 0.179291 0
-0.080369 0.186415 0
-0.093472 0.188658 0
-0.105163 0.185914 0
-0.115287 0.178325 0
-0.123746 0.166247 0
-0.130517 0.150205 0
-0.135667 0.130858 0
-0.139362 0.108948 0
-0.141866 0.085227 0
-0.143517 0.060371 0
-0.144689 0.034901 0
-0.145746 0.009126 0
-0.147003 -0.016862 0
-0.148682 -0.043201 0
-0.150947 -0.070234 0
-0.153874 -0.098409 0
-0.157361 -0.128172 0
-0.160966 -0.159777 0
-0.163703 -0.192899 0
-0.163876 -0.226020 0
-0.159094 -0.255610 0
-0.146571 -0.275281 0
-0.123857 -0.275209 0
-0.090154 -0.242723 0
-0.048660 -0.167399 0
-0.010945 -0.064431 0
0.000000 0.000000 0
0.000000 -0.000000 0
-0.004607 0.092649 0
-0.015435 0.140122 0
-0.028773 0.165756 0
-0.042484 0.182109 0
-0.055662 0.193073 0
-0.067914 0.199123 0
-0.079004 0.200071 0
-0.088761 0.195868 0
-0.097064 0.186711 0
-0.103852 0.173022 0
-0.109136 0.155409 0
-0.113014 0.134624 0
-0.115679 0.111506 0
-0.117404 0.086884 0
-0.118517 0.061480 0
-0.119358 0.035821 0
-0.120239 0.010181 0
-0.121424 -0.015411 0
-0.123115 -0.041154 0
-0.125491 -0.067432 0
-0.128736 -0.094776 0
-0.132965 -0.123851 0
-0.138053 -0.155344 0
-0.143350 -0.189598 0
-0.147383 -0.225904 0
-0.147707 -0.261435 0
-0.141098 -0.290014 0
-0.124254 -0.301006 0
-0.095138 -0.279074 0
-0.055380 -0.207643 0
-0.015010 -0.090570 0
0.000000 -0.000000 0
0.000000 0.000000 0
-0.002670 0.099260 0
-0.010827 0.150989 0
-0.021680 0.178141 0
-0.033085 0.194462 0
-0.044047 0.204721 0
-0.054159 0.209757 0
-0.063212 0.209505 0
-0.071073 0.203974 0
-0.077660 0.193416 0
-0.082947 0.178318 0
-0.086979 0.159367 0
-0.089877 0.137401 0
-0.091845 0.113338 0
-0.093144 0.088065 0
-0.094063 0.062325 0
-0.094879 0.036624 0
-0.095819 0.011193 0
-0.097064 -0.013986 0
-0.098765 -0.039134 0
-0.101087 -0.064614 0
-0.104267 -0.090935 0
-0.108596 -0.118855 0
-0.114271 -0.149391 0
-0.121090 -0.183569 0
-0.127998 -0.221663 0
-0.132732 -0.261896 0
-0.131811 -0.298733 0
-0.121176 -0.321169 0
-0.097560 -0.311598 0
-0.060948 -0.247528 0
-0.019513 -0.119811 0
0.000000 -0.000000 0
0.000000 0.000000 0
-0.000779 0.103476 0
-0.005995 0.159132 0
-0.014121 0.188014 0
-0.023057 0.204476 0
-0.031709 0.214147 0
-0.039639 0.218287 0
-0.046663 0.216985 0
-0.052685 0.210316 0
-0.057663 0.198586 0
-0.061608 0.182341 0
-0.064595 0.162339 0
-0.066761 0.139491 0
-0.068302 0.114772 0
-0.069452 0.089102 0
-0.070442 0.063215 0
-0.071470 0.037577 0
-0.072676 0.012366 0
-0.074148 -0.012466 0
-0.075973 -0.037132 0
-0.078280 -0.061929 0
-0.081301 -0.087267 0
-0.085402 -0.113847 0
-0.091031 -0.142849 0
-0.098440 -0.175871 0
-0.107155 -0.214262 0
-0.115361 -0.257623 0
-0.119571 -0.301570 0
-0.115124 -0.335257 0
-0.097565 -0.339302 0
-0.065177 -0.285690 0
-0.024013 -0.151518 0
0.000000 -0.000000 0
0.000000 0.000000 0
0.000953 0.105255 0
-0.001251 0.164332 0
-0.006434 0.195203 0
-0.012787 0.212050 0
-0.019080 0.221304 0
-0.024817 0.224711 0
-0.029829 0.222550 0
-0.034059 0.214974 0
-0.037505 0.202340 0
-0.040217 0.185251 0
-0.042293 0.164519 0
-0.043877 0.141109 0
-0.045149 0.116029 0
-0.046295 0.090204 0
-0.047485 0.064344 0
-0.048844 0.038858 0
-0.050434 0.013870 0
-0.052267 -0.010690 0
-0.054370 -0.035003 0
-0.056836 -0.059286 0
-0.059851 -0.083813 0
-0.063751 -0.109125 0
-0.069092 -0.136353 0
-0.076477 -0.167445 0
-0.086052 -0.204742 0
-0.096703 -0.249480 0
-0.105258 -0.298970 0
-0.106673 -0.343175 0
-0.095400 -0.361545 0
-0.067984 -0.321081 0
-0.028159 -0.184988 0
0.000000 -0.000000 0
0.000000 -0.000000 0
0.002504 0.104727 0
0.003172 0.166520 0
0.001016 0.199549 0
-0.002646 0.217122 0
-0.006542 0.226177 0
-0.010087 0.229036 0
-0.013102 0.226227 0
-0.015561 0.217992 0
-0.017504 0.204744 0
-0.019015 0.187128 0
-0.020215 0.165999 0
-0.021251 0.142347 0
-0.022280 0.117190 0
-0.023434 0.091438 0
-0.024816 0.065764 0
-0.026495 0.040525 0
-0.028483 0.015789 0
-0.030746 -0.008530 0
-0.033256 -0.032562 0
-0.036092 -0.056448 0
-0.039384 -0.080352 0
-0.043366 -0.104606 0
-0.048560 -0.130124 0
-0.055728 -0.158911 0
-0.065518 -0.194035 0
-0.077671 -0.238417 0
-0.089670 -0.291600 0
-0.096402 -0.345115 0
-0.091372 -0.377991 0
-0.069402 -0.352931 0
-0.031757 -0.219503 0
0.000000 -0.000000 0
0.000000 0.000000 0
0.003812 0.102083 0
0.007139 0.165819 0
0.007930 0.201020 0
0.007001 0.219608 0
0.005530 0.228745 0
0.004180 0.231271 0
0.003166 0.228024 0
0.002496 0.219375 0
0.002089 0.205794 0
0.001826 0.187962 0
0.001563 0.166755 0
0.001154 0.143174 0
0.000468 0.118212 0
-0.000585 0.092740 0
-0.002052 0.067405 0
-0.003950 0.042526 0
-0.006266 0.018121 0
-0.008962 -0.005917 0
-0.011959 -0.029657 0
-0.015334 -0.053157 0
-0.019187 -0.076538 0
-0.023634 -0.099949 0
-0.029071 -0.123992 0
-0.036214 -0.150487 0
-0.045966 -0.182799 0
-0.058903 -0.225327 0
-0.073459 -0.280239 0
-0.084833 -0.341473 0
-0.085812 -0.388544 0
-0.069549 -0.380696 0
-0.034745 -0.254390 0
0.000000 -0.000000 0
0.000000 0.000000 0
0.004809 0.097588 0
0.010508 0.162403 0
0.014098 0.199687 0
0.015850 0.219521 0
0.016800 0.228998 0
0.017651 0.231400 0
0.018660 0.227911 0
0.019825 0.219070 0
0.021031 0.205414 0
0.022120 0.187654 0
0.022926 0.166671 0
0.023299 0.143442 0
0.023133 0.118929 0
0.022363 0.093958 0
0.020982 0.069130 0
0.019019 0.044739 0
0.016497 0.020801 0
0.013433 -0.002837 0
0.009938 -0.026191 0
0.005932 -0.049220 0
0.001351 -0.072052 0
-0.003917 -0.094722 0
-0.010066 -0.117544 0
-0.017604 -0.142017 0
-0.027437 -0.171346 0
-0.040754 -0.210923 0
-0.057094 -0.265670 0
-0.072392 -0.332763 0
-0.079022 -0.393274 0
-0.068585 -0.403997 0
-0.037148 -0.289052 0
0.000000 -0.000000 0
0.000000 0.000000 0
0.005456 0.091575 0
0.013151 0.156530 0
0.019307 0.195678 0
0.023641 0.216906 0
0.026981 0.226945 0
0.030033 0.229411 0
0.033091 0.225850 0
0.036152 0.217005 0
0.039069 0.203499 0
0.041649 0.186067 0
0.043697 0.165576 0
0.045055 0.142967 0
0.045622 0.119148 0
0.045358 0.094890 0
0.044280 0.070750 0
0.042436 0.047011 0
0.039865 0.023706 0
0.036573 0.000643 0
0.032567 -0.022156 0
0.027847 -0.044571 0
0.022385 -0.066690 0
0.016081 -0.088532 0
0.008904 -0.110305 0
0.000603 -0.133117 0
-0.009705 -0.159649 0
-0.023318 -0.195669 0
-0.040850 -0.248601 0
-0.059370 -0.319545 0
-0.071234 -0.392351 0
-0.066657 -0.422570 0
-0.039022 -0.322975 0
0.000000 -0.000000 0
0.000000 -0.000000 0
0.005739 0.084438 0
0.014957 0.148552 0
0.023347 0.189197 0
0.030092 0.211848 0
0.035764 0.222606 0
0.041018 0.225289 0
0.046163 0.221793 0
0.051196 0.213092 0
0.055945 0.199917 0
0.060178 0.183027 0
0.063670 0.163265 0
0.066243 0.141517 0
0.067793 0.118626 0
0.068284 0.095301 0
0.067738 0.072052 0
0.066210 0.049154 0
0.063738 0.026665 0
0.060318 0.004461 0
0.055852 -0.017466 0
0.050408 -0.039038 0
0.043980 -0.060286 0
0.036538 -0.081241 0
0.028101 -0.102067 0
0.018595 -0.123408 0
0.007456 -0.147425 0
-0.006475 -0.179778 0
-0.024819 -0.229618 0
-0.045912 -0.302378 0
-0.062561 -0.385988 0
-0.063847 -0.436209 0
-0.040414 -0.355709 0
0.000000 -0.000000 0
0.000000 -0.000000 0
0.005656 0.076618 0
0.015828 0.138922 0
0.026002 0.180542 0
0.034906 0.204488 0
0.042816 0.216019 0
0.050272 0.219013 0
0.057561 0.215672 0
0.064666 0.207223 0
0.071387 0.194517 0
0.077452 0.178342 0
0.082600 0.159511 0
0.086630 0.138844 0
0.089415 0.117108 0
0.090911 0.094945 0
0.091130 0.072823 0
0.090114 0.051011 0
0.087889 0.029598 0
0.084432 0.008529 0
0.079637 -0.012246 0
0.073583 -0.032699 0
0.066258 -0.052819 0
0.057651 -0.072653 0
0.047786 -0.092362 0
0.036686 -0.112473 0
0.024243 -0.134579 0
0.009713 -0.163394 0
-0.008940 -0.209165 0
-0.031997 -0.281803 0
-0.052957 -0.374415 0
-0.060115 -0.444717 0
-0.041317 -0.386822 0
0.000000 -0.000000 0
0.000000 0.000000 0
0.005214 0.068609 0
0.015665 0.128206 0
0.027042 0.170120 0
0.037753 0.195035 0
0.047765 0.207240 0
0.057432 0.210544 0
0.066952 0.207398 0
0.076261 0.199266 0
0.085115 0.187132 0
0.093201 0.171813 0
0.100220 0.154087 0
0.105935 0.134702 0
0.110196 0.114344 0
0.112934 0.093586 0
0.114141 0.072849 0
0.113836 0.052396 0
0.112034 0.032346 0
0.108704 0.012713 0
0.103731 -0.006616 0
0.097211 -0.025659 0
0.089102 -0.044354 0
0.079396 -0.062770 0
0.068130 -0.081101 0
0.055373 -0.099865 0
0.041187 -0.120452 0
0.025392 -0.146595 0
0.006676 -0.187908 0
-0.017421 -0.258361 0
-0.042163 -0.357869 0
-0.055231 -0.447850 0
-0.041623 -0.415824 0
0.000000 -0.000000 0
0.000000 0.000000 0
0.004391 0.060954 0
0.014323 0.117094 0
0.026185 0.158454 0
0.038263 0.183765 0
0.050210 0.196340 0
0.062111 0.199826 0
0.073989 0.196843 0
0.085674 0.189060 0
0.096850 0.177577 0
0.107156 0.163237 0
0.116249 0.146777 0
0.123860 0.128867 0
0.129810 0.110109 0
0.134000 0.091001 0
0.136397 0.071921 0
0.137001 0.053118 0
0.135811 0.034731 0
0.132805 0.016832 0
0.127916 -0.000754 0
0.121081 -0.018069 0
0.112326 -0.035004 0
0.101662 -0.051681 0
0.089131 -0.068338 0
0.074830 -0.085531 0
0.058901 -0.104598 0
0.041415 -0.128882 0
0.021948 -0.166352 0
-0.001823 -0.232965 0
-0.029625 -0.336605 0
-0.048666 -0.445257 0
-0.041058 -0.442053 0
0.000000 -0.000000 0
0.000000 -0.000000 0
0.003069 0.054286 0
0.011524 0.106411 0
0.023039 0.146179 0
0.035993 0.171010 0
0.049715 0.183391 0
0.063918 0.186764 0
0.078336 0.183836 0
0.092614 0.176405 0
0.106331 0.165649 0
0.119060 0.152415 0
0.130418 0.137382 0
0.140108 0.121141 0
0.147922 0.104205 0
0.153739 0.086998 0
0.157502 0.069848 0
0.159192 0.052982 0
0.158801 0.036542 0
0.156315 0.020608 0
0.151719 0.005108 0
0.144783 -0.010069 0
0.135643 -0.024935 0
0.124308 -0.039574 0
0.110827 -0.054270 0
0.095307 -0.069635 0
0.077928 -0.087037 0
0.058891 -0.109642 0
0.038159 -0.144669 0
0.014766 -0.206788 0
-0.014263 -0.311027 0
-0.039385 -0.436417 0
-0.039066 -0.464490 0
0.000000 -0.000000 0
0.000000 -0.000000 0
0.000875 0.049429 0
0.006659 0.097124 0
0.016981 0.133985 0
0.030397 0.157089 0
0.045831 0.168415 0
0.062495 0.171205 0
0.079709 0.168147 0
0.096848 0.161064 0
0.113343 0.151131 0
0.128695 0.139151 0
0.142487 0.125728 0
0.154401 0.111363 0
0.164215 0.096478 0
0.171792 0.081421 0
0.177061 0.066468 0
0.179993 0.051819 0
0.180577 0.037607 0
0.178809 0.023914 0
0.174681 0.010778 0
0.168071 -0.001993 0
0.158945 -0.014529 0
0.147417 -0.026864 0
0.133548 -0.039337 0
0.117443 -0.052632 0
0.099278 -0.068183 0
0.079290 -0.089113 0
0.057599 -0.122227 0
0.033704 -0.180543 0
0.005315 -0.282454 0
-0.025514 -0.420455 0
-0.034598 -0.481438 0
0.000000 -0.000000 0
0.000000 0.000000 0
-0.002907 0.047627 0
-0.001513 0.090305 0
0.006950 0.122441 0
0.020827 0.142160 0
0.038153 0.151293 0
0.057603 0.152887 0
0.077956 0.149484 0
0.098254 0.142770 0
0.117762 0.133802 0
0.135913 0.123271 0
0.152271 0.111676 0
0.166517 0.099413 0
0.178431 0.086814 0
0.187879 0.074152 0
0.194791 0.061647 0
0.199142 0.049466 0
0.200935 0.037727 0
0.200186 0.026504 0
0.196921 0.015845 0
0.191170 0.005666 0
0.182786 -0.004281 0
0.171852 -0.014177 0
0.158561 -0.024295 0
0.142989 -0.035365 0
0.125247 -0.048884 0
0.105494 -0.067962 0
0.083779 -0.099083 0
0.059532 -0.154504 0
0.031026 -0.251809 0
-0.003669 -0.396504 0
-0.025659 -0.490004 0
0.000000 -0.000000 0
0.000000 0.000000 0
-0.009895 0.050942 0
-0.014715 0.087268 0
-0.008441 0.111645 0
0.006443 0.125886 0
0.026463 0.131639 0
0.049324 0.131401 0
0.073282 0.127496 0
0.097065 0.121258 0
0.119815 0.113473 0
0.140937 0.104642 0
0.160011 0.095124 0
0.176741 0.085203 0
0.190939 0.075115 0
0.202494 0.065062 0
0.211362 0.055206 0
0.217548 0.045675 0
0.221088 0.036563 0
0.222042 0.027927 0
0.220486 0.019794 0
0.216516 0.012142 0
0.210158 0.004789 0
0.201363 -0.002639 0
0.190198 -0.010474 0
0.176925 -0.019318 0