# vtk DataFile Version 2.0
generated by CFD-lab course output (written by Tobias Neckel) 
ASCII

DATASET STRUCTURED_GRID
DIMENSIONS  33 33 1 
POINTS 1089 float

0.000000 0.000000 0
0.031250 0.000000 0
0.062500 0.000000 0
0.093750 0.000000 0
0.125000 0.000000 0
0.156250 0.000000 0
0.187500 0.000000 0
0.218750 0.000000 0
0.250000 0.000000 0
0.281250 0.000000 0
0.312500 0.000000 0
0.343750 0.000000 0
0.375000 0.000000 0
0.406250 0.000000 0
0.437500 0.000000 0
0.468750 0.000000 0
0.500000 0.000000 0
0.531250 0.000000 0
0.562500 0.000000 0
0.593750 0.000000 0
0.625000 0.000000 0
0.656250 0.000000 0
0.687500 0.000000 0
0.718750 0.000000 0
0.750000 0.000000 0
0.781250 0.000000 0
0.812500 0.000000 0
0.843750 0.000000 0
0.875000 0.000000 0
0.906250 0.000000 0
0.937500 0.000000 0
0.968750 0.000000 0
1.000000 0.000000 0
0.000000 0.031250 0
0.031250 0.031250 0
0.062500 0.031250 0
0.093750 0.031250 0
0.125000 0.031250 0
0.156250 0.031250 0
0.187500 0.031250 0
0.218750 0.031250 0
0.250000 0.031250 0
0.281250 0.031250 0
0.312500 0.031250 0
0.343750 0.031250 0
0.375000 0.031250 0
0.406250 0.031250 0
0.437500 0.031250 0
0.468750 0.031250 0
0.500000 0.031250 0
0.531250 0.031250 0
0.562500 0.031250 0
0.593750 0.031250 0
0.625000 0.031250 0
0.656250 0.031250 0
0.687500 0.031250 0
0.718750 0.031250 0
0.750000 0.031250 0
0.781250 0.031250 0
0.812500 0.031250 0
0.843750 0.031250 0
0.875000 0.031250 0
0.906250 0.031250 0
0.937500 0.031250 0
0.968750 0.031250 0
1.000000 0.031250 0
0.000000 0.062500 0
0.031250 0.062500 0
0.062500 0.062500 0
0.093750 0.062500 0
0.125000 0.062500 0
0.156250 0.062500 0
0.187500 0.062500 0
0.218750 0.062500 0
0.250000 0.062500 0
0.281250 0.062500 0
0.312500 0.062500 0
0.343750 0.062500 0
0.375000 0.062500 0
0.406250 0.062500 0
0.437500 0.062500 0
0.468750 0.062500 0
0.500000 0.062500 0
0.531250 0.062500 0
0.562500 0.062500 0
0.593750 0.062500 0
0.625000 0.062500 0
0.656250 0.062500 0
0.687500 0.062500 0
0.718750 0.062500 0
0.750000 0.062500 0
0.781250 0.062500 0
0.812500 0.062500 0
0.843750 0.062500 0
0.875000 0.062500 0
0.906250 0.062500 0
0.937500 0.062500 0
0.968750 0.062500 0
1.000000 0.062500 0
0.000000 0.093750 0
0.031250 0.093750 0
0.062500 0.093750 0
0.093750 0.093750 0
0.125000 0.093750 0
0.156250 0.093750 0
0.187500 0.093750 0
0.218750 0.093750 0
0.250000 0.093750 0
0.281250 0.093750 0
0.312500 0.093750 0
0.343750 0.093750 0
0.375000 0.093750 0
0.406250 0.093750 0
0.437500 0.093750 0
0.468750 0.093750 0
0.500000 0.093750 0
0.531250 0.093750 0
0.562500 0.093750 0
0.593750 0.093750 0
0.625000 0.093750 0
0.656250 0.093750 0
0.687500 0.093750 0
0.718750 0.093750 0
0.750000 0.093750 0
0.781250 0.093750 0
0.812500 0.093750 0
0.843750 0.093750 0
0.875000 0.093750 0
0.906250 0.093750 0
0.937500 0.093750 0
0.968750 0.093750 0
1.000000 0.093750 0
0.000000 0.125000 0
0.031250 0.125000 0
0.062500 0.125000 0
0.093750 0.125000 0
0.125000 0.125000 0
0.156250 0.125000 0
0.187500 0.125000 0
0.218750 0.125000 0
0.250000 0.125000 0
0.281250 0.125000 0
0.312500 0.125000 0
0.343750 0.125000 0
0.375000 0.125000 0
0.406250 0.125000 0
0.437500 0.125000 0
0.468750 0.125000 0
0.500000 0.125000 0
0.531250 0.125000 0
0.562500 0.125000 0
0.593750 0.125000 0
0.625000 0.125000 0
0.656250 0.125000 0
0.687500 0.125000 0
0.718750 0.125000 0
0.750000 0.125000 0
0.781250 0.125000 0
0.812500 0.125000 0
0.843750 0.125000 0
0.875000 0.125000 0
0.906250 0.125000 0
0.937500 0.125000 0
0.968750 0.125000 0
1.000000 0.125000 0
0.000000 0.156250 0
0.031250 0.156250 0
0.062500 0.156250 0
0.093750 0.156250 0
0.125000 0.156250 0
0.156250 0.156250 0
0.187500 0.156250 0
0.218750 0.156250 0
0.250000 0.156250 0
0.281250 0.156250 0
0.312500 0.156250 0
0.343750 0.156250 0
0.375000 0.156250 0
0.406250 0.156250 0
0.437500 0.156250 0
0.468750 0.156250 0
0.500000 0.156250 0
0.531250 0.156250 0
0.562500 0.156250 0
0.593750 0.156250 0
0.625000 0.156250 0
0.656250 0.156250 0
0.687500 0.156250 0
0.718750 0.156250 0
0.750000 0.156250 0
0.781250 0.156250 0
0.812500 0.156250 0
0.843750 0.156250 0
0.875000 0.156250 0
0.906250 0.156250 0
0.937500 0.156250 0
0.968750 0.156250 0
1.000000 0.156250 0
0.000000 0.187500 0
0.031250 0.187500 0
0.062500 0.187500 0
0.093750 0.187500 0
0.125000 0.187500 0
0.156250 0.187500 0
0.187500 0.187500 0
0.218750 0.187500 0
0.250000 0.187500 0
0.281250 0.187500 0
0.312500 0.187500 0
0.343750 0.187500 0
0.375000 0.187500 0
0.406250 0.187500 0
0.437500 0.187500 0
0.468750 0.187500 0
0.500000 0.187500 0
0.531250 0.187500 0
0.562500 0.187500 0
0.593750 0.187500 0
0.625000 0.187500 0
0.656250 0.187500 0
0.687500 0.187500 0
0.718750 0.187500 0
0.750000 0.187500 0
0.781250 0.187500 0
0.812500 0.187500 0
0.843750 0.187500 0
0.875000 0.187500 0
0.906250 0.187500 0
0.937500 0.187500 0
0.968750 0.187500 0
1.000000 0.187500 0
0.000000 0.218750 0
0.031250 0.218750 0
0.062500 0.218750 0
0.093750 0.218750 0
0.125000 0.218750 0
0.156250 0.218750 0
0.187500 0.218750 0
0.218750 0.218750 0
0.250000 0.218750 0
0.281250 0.218750 0
0.312500 0.218750 0
0.343750 0.218750 0
0.375000 0.218750 0
0.406250 0.218750 0
0.437500 0.218750 0
0.468750 0.218750 0
0.500000 0.218750 0
0.531250 0.218750 0
0.562500 0.218750 0
0.593750 0.218750 0
0.625000 0.218750 0
0.656250 0.218750 0
0.687500 0.218750 0
0.718750 0.218750 0
0.750000 0.218750 0
0.781250 0.218750 0
0.812500 0.218750 0
0.843750 0.218750 0
0.875000 0.218750 0
0.906250 0.218750 0
0.937500 0.218750 0
0.968750 0.218750 0
1.000000 0.218750 0
0.000000 0.250000 0
0.031250 0.250000 0
0.062500 0.250000 0
0.093750 0.250000 0
0.125000 0.250000 0
0.156250 0.250000 0
0.187500 0.250000 0
0.218750 0.250000 0
0.250000 0.250000 0
0.281250 0.250000 0
0.312500 0.250000 0
0.343750 0.250000 0
0.375000 0.250000 0
0.406250 0.250000 0
0.437500 0.250000 0
0.468750 0.250000 0
0.500000 0.250000 0
0.531250 0.250000 0
0.562500 0.250000 0
0.593750 0.250000 0
0.625000 0.250000 0
0.656250 0.250000 0
0.687500 0.250000 0
0.718750 0.250000 0
0.750000 0.250000 0
0.781250 0.250000 0
0.812500 0.250000 0
0.843750 0.250000 0
0.875000 0.250000 0
0.906250 0.250000 0
0.937500 0.250000 0
0.968750 0.250000 0
1.000000 0.250000 0
0.000000 0.281250 0
0.031250 0.281250 0
0.062500 0.281250 0
0.093750 0.281250 0
0.125000 0.281250 0
0.156250 0.281250 0
0.187500 0.281250 0
0.218750 0.281250 0
0.250000 0.281250 0
0.281250 0.281250 0
0.312500 0.281250 0
0.343750 0.281250 0
0.375000 0.281250 0
0.406250 0.281250 0
0.437500 0.281250 0
0.468750 0.281250 0
0.500000 0.281250 0
0.531250 0.281250 0
0.562500 0.281250 0
0.593750 0.281250 0
0.625000 0.281250 0
0.656250 0.281250 0
0.687500 0.281250 0
0.718750 0.281250 0
0.750000 0.281250 0
0.781250 0.281250 0
0.812500 0.281250 0
0.843750 0.281250 0
0.875000 0.281250 0
0.906250 0.281250 0
0.937500 0.281250 0
0.968750 0.281250 0
1.000000 0.281250 0
0.000000 0.312500 0
0.031250 0.312500 0
0.062500 0.312500 0
0.093750 0.312500 0
0.125000 0.312500 0
0.156250 0.312500 0
0.187500 0.312500 0
0.218750 0.312500 0
0.250000 0.312500 0
0.281250 0.312500 0
0.312500 0.312500 0
0.343750 0.312500 0
0.375000 0.312500 0
0.406250 0.312500 0
0.437500 0.312500 0
0.468750 0.312500 0
0.500000 0.312500 0
0.531250 0.312500 0
0.562500 0.312500 0
0.593750 0.312500 0
0.625000 0.312500 0
0.656250 0.312500 0
0.687500 0.312500 0
0.718750 0.312500 0
0.750000 0.312500 0
0.781250 0.312500 0
0.812500 0.312500 0
0.843750 0.312500 0
0.875000 0.312500 0
0.906250 0.312500 0
0.937500 0.312500 0
0.968750 0.312500 0
1.000000 0.312500 0
0.000000 0.343750 0
0.031250 0.343750 0
0.062500 0.343750 0
0.093750 0.343750 0
0.125000 0.343750 0
0.156250 0.343750 0
0.187500 0.343750 0
0.218750 0.343750 0
0.250000 0.343750 0
0.281250 0.343750 0
0.312500 0.343750 0
0.343750 0.343750 0
0.375000 0.343750 0
0.406250 0.343750 0
0.437500 0.343750 0
0.468750 0.343750 0
0.500000 0.343750 0
0.531250 0.343750 0
0.562500 0.343750 0
0.593750 0.343750 0
0.625000 0.343750 0
0.656250 0.343750 0
0.687500 0.343750 0
0.718750 0.343750 0
0.750000 0.343750 0
0.781250 0.343750 0
0.812500 0.343750 0
0.843750 0.343750 0
0.875000 0.343750 0
0.906250 0.343750 0
0.937500 0.343750 0
0.968750 0.343750 0
1.000000 0.343750 0
0.000000 0.375000 0
0.031250 0.375000 0
0.062500 0.375000 0
0.093750 0.375000 0
0.125000 0.375000 0
0.156250 0.375000 0
0.187500 0.375000 0
0.218750 0.375000 0
0.250000 0.375000 0
0.281250 0.375000 0
0.312500 0.375000 0
0.343750 0.375000 0
0.375000 0.375000 0
0.406250 0.375000 0
0.437500 0.375000 0
0.468750 0.375000 0
0.500000 0.375000 0
0.531250 0.375000 0
0.562500 0.375000 0
0.593750 0.375000 0
0.625000 0.375000 0
0.656250 0.375000 0
0.687500 0.375000 0
0.718750 0.375000 0
0.750000 0.375000 0
0.781250 0.375000 0
0.812500 0.375000 0
0.843750 0.375000 0
0.875000 0.375000 0
0.906250 0.375000 0
0.937500 0.375000 0
0.968750 0.375000 0
1.000000 0.375000 0
0.000000 0.406250 0
0.031250 0.406250 0
0.062500 0.406250 0
0.093750 0.406250 0
0.125000 0.406250 0
0.156250 0.406250 0
0.187500 0.406250 0
0.218750 0.406250 0
0.250000 0.406250 0
0.281250 0.406250 0
0.312500 0.406250 0
0.343750 0.406250 0
0.375000 0.406250 0
0.406250 0.406250 0
0.437500 0.406250 0
0.468750 0.406250 0
0.500000 0.406250 0
0.531250 0.406250 0
0.562500 0.406250 0
0.593750 0.406250 0
0.625000 0.406250 0
0.656250 0.406250 0
0.687500 0.406250 0
0.718750 0.406250 0
0.750000 0.406250 0
0.781250 0.406250 0
0.812500 0.406250 0
0.843750 0.406250 0
0.875000 0.406250 0
0.906250 0.406250 0
0.937500 0.406250 0
0.968750 0.406250 0
1.000000 0.406250 0
0.000000 0.437500 0
0.031250 0.437500 0
0.062500 0.437500 0
0.093750 0.437500 0
0.125000 0.437500 0
0.156250 0.437500 0
0.187500 0.437500 0
0.218750 0.437500 0
0.250000 0.437500 0
0.281250 0.437500 0
0.312500 0.437500 0
0.343750 0.437500 0
0.375000 0.437500 0
0.406250 0.437500 0
0.437500 0.437500 0
0.468750 0.437500 0
0.500000 0.437500 0
0.531250 0.437500 0
0.562500 0.437500 0
0.593750 0.437500 0
0.625000 0.437500 0
0.656250 0.437500 0
0.687500 0.437500 0
0.718750 0.437500 0
0.750000 0.437500 0
0.781250 0.437500 0
0.812500 0.437500 0
0.843750 0.437500 0
0.875000 0.437500 0
[...]
POINT_DATA 1089 

VECTORS velocity float
0.000000 0.000000 0
0.000000 0.000000 0
0.000000 0.000000 0
0.000001 0.000000 0
0.000000 0.000000 0
-0.000000 0.000000 0
-0.000000 0.000000 0
-0.000000 0.000000 0
-0.000000 0.000000 0
-0.000000 0.000000 0
0.000000 0.000000 0
0.000000 0.000000 0
0.000000 0.000000 0
0.000000 0.000000 0
0.000000 0.000000 0
0.000000 0.000000 0
-0.000000 0.000000 0
-0.000000 0.000000 0
-0.000000 0.000000 0
-0.000000 0.000000 0
-0.000000 0.000000 0
-0.000000 0.000000 0
0.000000 0.000000 0
0.000000 0.000000 0
0.000000 0.000000 0
0.000000 0.000000 0
0.000000 0.000000 0
0.000000 0.000000 0
-0.000000 0.000000 0
-0.000000 0.000000 0
-0.000000 0.000000 0
-0.000000 0.000000 0
0.000000 0.000000 0
0.000000 0.000000 0
0.000068 -0.000066 0
-0.000182 0.000161 0
-0.000899 0.000453 0
-0.002077 0.000718 0
-0.003646 0.000925 0
-0.005504 0.001068 0
-0.007551 0.001150 0
-0.009686 0.001178 0
-0.011821 0.001158 0
-0.013873 0.001095 0
-0.015770 0.000993 0
-0.017445 0.000857 0
-0.018842 0.000690 0
-0.019906 0.000496 0
-0.020596 0.000279 0
-0.020877 0.000045 0
-0.020727 -0.000198 0
-0.020137 -0.000443 0
-0.019117 -0.000678 0
-0.017695 -0.000893 0
-0.015919 -0.001074 0
-0.013859 -0.001209 0
-0.011607 -0.001287 0
-0.009269 -0.001299 0
-0.006965 -0.001237 0
-0.004821 -0.001102 0
-0.002958 -0.000897 0
-0.001484 -0.000634 0
-0.000475 -0.000336 0
0.000042 -0.000051 0
0.000129 0.000125 0
0.000000 -0.000000 0
0.000000 0.000000 0
-0.000159 0.000183 0
-0.000979 0.000967 0
-0.002576 0.001895 0
-0.004921 0.002746 0
-0.007899 0.003426 0
-0.011353 0.003904 0
-0.015115 0.004182 0
-0.019019 0.004270 0
-0.022907 0.004187 0
-0.026635 0.003950 0
-0.030072 0.003573 0
-0.033098 0.003072 0
-0.035610 0.002461 0
-0.037515 0.001754 0
-0.038738 0.000971 0
-0.039221 0.000130 0
-0.038928 -0.000740 0
-0.037850 -0.001610 0
-0.036003 -0.002442 0
-0.033441 -0.003198 0
-0.030250 -0.003835 0
-0.026553 -0.004312 0
-0.022507 -0.004591 0
-0.018296 -0.004642 0
-0.014124 -0.004448 0
-0.010204 -0.004007 0
-0.006738 -0.003337 0
-0.003905 -0.002483 0
-0.001831 -0.001526 0
-0.000561 -0.000604 0
-0.000028 0.000042 0
0.000000 -0.000000 0
0.000000 -0.000000 0
-0.000471 0.000913 0
-0.001986 0.002577 0
-0.004549 0.004394 0
-0.008066 0.006040 0
-0.012374 0.007357 0
-0.017271 0.008286 0
-0.022542 0.008818 0
-0.027971 0.008971 0
-0.033351 0.008775 0
-0.038492 0.008259 0
-0.043216 0.007456 0
-0.047366 0.006394 0
-0.050801 0.005106 0
-0.053399 0.003624 0
-0.055059 0.001985 0
-0.055709 0.000236 0
-0.055301 -0.001569 0
-0.053824 -0.003368 0
-0.051305 -0.005087 0
-0.047813 -0.006646 0
-0.043464 -0.007962 0
-0.038418 -0.008952 0
-0.032880 -0.009545 0
-0.027089 -0.009681 0
-0.021312 -0.009330 0
-0.015824 -0.008488 0
-0.010890 -0.007195 0
-0.006743 -0.005541 0
-0.003556 -0.003680 0
-0.001411 -0.001854 0
-0.000280 -0.000436 0
0.000000 0.000000 0
0.000000 -0.000000 0
-0.000787 0.002168 0
-0.003025 0.005045 0
-0.006575 0.007975 0
-0.011255 0.010571 0
-0.016842 0.012632 0
-0.023086 0.014074 0
-0.029732 0.014882 0
-0.036525 0.015079 0
-0.043222 0.014708 0
-0.049598 0.013814 0
-0.055442 0.012447 0
-0.060565 0.010656 0
-0.064801 0.008493 0
-0.068005 0.006013 0
-0.070057 0.003281 0
-0.070870 0.000372 0
-0.070390 -0.002624 0
-0.068603 -0.005605 0
-0.065538 -0.008453 0
-0.061276 -0.011040 0
-0.055952 -0.013231 0
-0.049752 -0.014896 0
-0.042914 -0.015919 0
-0.035721 -0.016209 0
-0.028485 -0.015713 0
-0.021534 -0.014429 0
-0.015189 -0.012418 0
-0.009736 -0.009817 0
-0.005402 -0.006857 0
-0.002327 -0.003880 0
-0.000549 -0.001369 0
0.000000 0.000000 0
0.000000 -0.000000 0
-0.001083 0.003937 0
-0.004025 0.008367 0
-0.008546 0.012626 0
-0.014362 0.016307 0
-0.021179 0.019188 0
-0.028701 0.021176 0
-0.036629 0.022256 0
-0.044678 0.022461 0
-0.052576 0.021847 0
-0.060069 0.020478 0
-0.066925 0.018424 0
-0.072932 0.015754 0
-0.077902 0.012546 0
-0.081672 0.008880 0
-0.084109 0.004851 0
-0.085112 0.000570 0
-0.084618 -0.003837 0
-0.082607 -0.008220 0
-0.079109 -0.012413 0
-0.074206 -0.016232 0
-0.068043 -0.019486 0
-0.060822 -0.021990 0
-0.052806 -0.023576 0
-0.044308 -0.024111 0
-0.035684 -0.023517 0
-0.027309 -0.021784 0
-0.019560 -0.018993 0
-0.012785 -0.015328 0
-0.007275 -0.011089 0
-0.003243 -0.006707 0
-0.000807 -0.002764 0
0.000000 0.000000 0
0.000000 0.000000 0
-0.001357 0.006193 0
-0.004966 0.012509 0
-0.010418 0.018312 0
-0.017327 0.023205 0
-0.025327 0.026971 0
-0.034065 0.029523 0
-0.043206 0.030859 0
-0.052434 0.031026 0
-0.061454 0.030099 0
-0.069991 0.028164 0
-0.077795 0.025311 0
-0.084637 0.021633 0
-0.090313 0.017233 0
-0.094647 0.012220 0
-0.097492 0.006720 0
-0.098734 0.000881 0
-0.098299 -0.005129 0
-0.096158 -0.011115 0
-0.092333 -0.016854 0
-0.086902 -0.022105 0
-0.080009 -0.026615 0
-0.071865 -0.030133 0
-0.062748 -0.032433 0
-0.052999 -0.033331 0
-0.043009 -0.032712 0
-0.033206 -0.030553 0
-0.024026 -0.026942 0
-0.015889 -0.022103 0
-0.009165 -0.016399 0
-0.004151 -0.010347 0
-0.001055 -0.004612 0
0.000000 -0.000000 0
0.000000 0.000000 0
-0.001609 0.008904 0
-0.005845 0.017428 0
-0.012179 0.024986 0
-0.020130 0.031215 0
-0.029257 0.035926 0
-0.039155 0.039055 0
-0.049451 0.040626 0
-0.059799 0.040710 0
-0.069884 0.039404 0
-0.079416 0.036819 0
-0.088130 0.033069 0
-0.095787 0.028273 0
-0.102170 0.022556 0
-0.107091 0.016058 0
-0.110390 0.008938 0
-0.111940 0.001377 0
-0.111652 -0.006413 0
-0.109483 -0.014187 0
-0.105440 -0.021670 0
-0.099590 -0.028556 0
-0.092068 -0.034523 0
-0.083084 -0.039251 0
-0.072924 -0.042442 0
-0.061951 -0.043850 0
-0.050592 -0.043309 0
-0.039328 -0.040767 0
-0.028664 -0.036310 0
-0.019103 -0.030189 0
-0.011108 -0.022826 0
-0.005073 -0.014817 0
-0.001301 -0.006915 0
0.000000 -0.000000 0
0.000000 -0.000000 0
-0.001842 0.012038 0
-0.006663 0.023078 0
-0.013827 0.032597 0
-0.022763 0.040283 0
-0.032960 0.045997 0
-0.043960 0.049716 0
-0.055352 0.051502 0
-0.066766 0.051460 0
-0.077870 0.049716 0
-0.088360 0.046410 0
-0.097964 0.041681 0
-0.106431 0.035673 0
-0.113538 0.028537 0
-0.119085 0.020440 0
-0.122899 0.011569 0
-0.124840 0.002143 0
-0.124800 -0.007586 0
-0.122717 -0.017327 0
-0.118576 -0.026748 0
-0.112424 -0.035477 0
-0.104379 -0.043121 0
-0.094640 -0.049277 0
-0.083493 -0.053566 0
-0.071316 -0.055664 0
-0.058574 -0.055335 0
-0.045800 -0.052480 0
-0.033580 -0.047167 0
-0.022510 -0.039659 0
-0.013161 -0.030430 0
-0.006041 -0.020155 0
-0.001556 -0.009685 0
0.000000 0.000000 0
0.000000 -0.000000 0
-0.002058 0.015566 0
-0.007424 0.029413 0
-0.015364 0.041087 0
-0.025224 0.050349 0
-0.036427 0.057123 0
-0.048465 0.061447 0
-0.060893 0.063432 0
-0.073318 0.063227 0
-0.085394 0.060998 0
-0.096808 0.056913 0
-0.107281 0.051139 0
-0.116559 0.043847 0
-0.124411 0.035210 0
-0.130630 0.025420 0
-0.135031 0.014693 0
-0.137455 0.003278 0
-0.137775 -0.008535 0
-0.135904 -0.020411 0
-0.131799 -0.031963 0
-0.125479 -0.042753 0
-0.117032 -0.052308 0
-0.106637 -0.060137 0
-0.094573 -0.065766 0
-0.081224 -0.068769 0
-0.067085 -0.068825 0
-0.052751 -0.065760 0
-0.038887 -0.059601 0
-0.026202 -0.050608 0
-0.015392 -0.039296 0
-0.007093 -0.026423 0
-0.001833 -0.012955 0
0.000000 0.000000 0
0.000000 -0.000000 0
-0.002258 0.019462 0
-0.008130 0.036385 0
-0.016790 0.050397 0
-0.027510 0.061346 0
-0.039648 0.069237 0
-0.052653 0.074182 0
-0.066047 0.076355 0
-0.079419 0.075960 0
-0.092409 0.073205 0
-0.104703 0.068297 0
-0.116019 0.061432 0
-0.126101 0.052804 0
-0.134717 0.042609 0
-0.141650 0.031059 0
-0.146706 0.018393 0
-0.149709 0.004887 0
-0.150508 -0.009137 0
-0.148987 -0.023303 0
-0.145070 -0.037173 0
-0.138734 -0.050245 0
-0.130033 -0.061962 0
-0.119112 -0.071736 0
-0.106227 -0.078980 0
-0.091761 -0.083151 0
-0.076233 -0.083808 0
-0.060292 -0.080679 0
-0.044695 -0.073715 0
-0.030273 -0.063154 0
-0.017867 -0.049539 0
-0.008267 -0.033714 0
-0.002144 -0.016778 0
0.000000 -0.000000 0
0.000000 0.000000 0
-0.002443 0.023696 0
-0.008780 0.043945 0
-0.018104 0.060467 0
-0.029613 0.073206 0
-0.042609 0.082266 0
-0.056498 0.087846 0
-0.070775 0.090198 0
-0.085012 0.089589 0
-0.098845 0.086283 0
-0.111957 0.080523 0
-0.124070 0.072538 0
-0.134932 0.062544 0
-0.144310 0.050759 0
-0.151987 0.037410 0
-0.157757 0.022751 0
-0.161429 0.007080 0
-0.162827 -0.009257 0
-0.161802 -0.025850 0
-0.158239 -0.042216 0
-0.152068 -0.057789 0
-0.143293 -0.071930 0
-0.132012 -0.083944 0
-0.118445 -0.093116 0
-0.102957 -0.098763 0
-0.086079 -0.100295 0
-0.068509 -0.097298 0
-0.051097 -0.089620 0
-0.034808 -0.077436 0
-0.020653 -0.061302 0
-0.009602 -0.042147 0
-0.002502 -0.021223 0
0.000000 -0.000000 0
0.000000 0.000000 0
-0.002613 0.028242 0
-0.009375 0.052046 0
-0.019303 0.071230 0
-0.031526 0.085851 0
-0.045293 0.096123 0
-0.059970 0.102348 0
-0.075028 0.104869 0
-0.090028 0.104029 0
-0.104603 0.100150 0
-0.118444 0.093523 0
-0.131279 0.084408 0
-0.142866 0.073044 0
-0.152979 0.059664 0
-0.161402 0.044506 0
-0.167924 0.027835 0
-0.172339 0.009957 0
-0.174448 -0.008763 0
-0.174068 -0.027891 0
-0.171039 -0.046908 0
-0.165236 -0.065191 0
-0.156604 -0.082018 0
-0.145177 -0.096584 0
-0.131120 -0.108035 0
-0.114762 -0.115516 0
-0.096625 -0.118257 0
-0.077444 -0.115660 0
-0.058159 -0.107416 0
-0.039879 -0.093599 0
-0.023806 -0.074746 0
-0.011131 -0.051865 0
-0.002918 -0.026379 0
0.000000 -0.000000 0
0.000000 -0.000000 0
-0.002767 0.033071 0
-0.009915 0.060636 0
-0.020387 0.082618 0
-0.033244 0.099196 0
-0.047684 0.110710 0
-0.063037 0.117580 0
-0.078751 0.120256 0
-0.094382 0.119165 0
-0.109568 0.114698 0
-0.124009 0.107198 0
-0.137450 0.096960 0
-0.149666 0.084245 0
-0.160445 0.069295 0
-0.169577 0.052355 0
-0.176854 0.033688 0
-0.182059 0.013604 0
-0.184973 -0.007528 0
-0.185379 -0.029260 0
-0.183069 -0.051048 0
-0.177862 -0.072224 0
-0.169626 -0.091989 0
-0.158320 -0.109428 0
-0.144032 -0.123531 0
-0.127026 -0.133258 0
-0.107794 -0.137612 0
-0.087083 -0.135764 0
-0.065911 -0.127185 0
-0.045537 -0.111789 0
-0.027379 -0.090049 0
-0.012890 -0.063034 0
-0.003405 -0.032354 0
0.000000 0.000000 0
0.000000 -0.000000 0
-0.002907 0.038157 0
-0.010404 0.069666 0
-0.021360 0.094559 0
-0.034768 0.113149 0
-0.049774 0.125915 0
-0.065670 0.133414 0
-0.081890 0.136215 0
-0.097986 0.134846 0
-0.113607 0.129777 0
-0.128473 0.121405 0
-0.142354 0.110065 0
-0.155048 0.096039 0
-0.166367 0.079575 0
-0.176119 0.060916 0
-0.184104 0.040317 0
-0.190104 0.018076 0
-0.193884 -0.005443 0
-0.195197 -0.029795 0
-0.193790 -0.054425 0
-0.189418 -0.078634 0
-0.181870 -0.101559 0
-0.171008 -0.122179 0
-0.156821 -0.139328 0
-0.139480 -0.151754 0
-0.119409 -0.158200 0
-0.097336 -0.157543 0
-0.074334 -0.148962 0
-0.051805 -0.132132 0
-0.031409 -0.107393 0
-0.014907 -0.075838 0
-0.003973 -0.039269 0
0.000000 0.000000 0
0.000000 -0.000000 0
-0.003036 0.043476 0
-0.010852 0.079089 0
-0.022237 0.106982 0
-0.036113 0.127610 0
-0.051566 0.141611 0
-0.067855 0.149697 0
-0.084398 0.152572 0
-0.100751 0.150882 0
-0.116583 0.145185 0
-0.131642 0.135945 0
-0.145731 0.123535 0
-0.158687 0.108257 0
-0.170353 0.090366 0
-0.180567 0.070092 0
-0.189150 0.047673 0
-0.195891 0.023384 0
-0.200549 -0.002435 0
-0.202854 -0.029354 0
-0.202515 -0.056827 0
-0.199223 -0.084144 0
-0.192681 -0.110399 0
-0.182643 -0.134476 0
-0.168971 -0.155059 0
-0.151710 -0.170670 0
-0.131171 -0.179757 0
-0.108020 -0.180839 0
-0.083344 -0.172715 0
-0.058674 -0.154714 0
-0.035920 -0.126948 0
-0.017209 -0.090470 0
-0.004635 -0.047261 0
0.000000 -0.000000 0
0.000000 0.000000 0
-0.003160 0.049009 0
-0.011277 0.088867 0
-0.023049 0.119820 0
-0.037312 0.142478 0
-0.053087 0.157657 0
-0.069595 0.166246 0
-0.086242 0.169111 0
-0.102597 0.167031 0
-0.118356 0.160667 0
-0.133309 0.150554 0
-0.147304 0.137110 0
-0.160226 0.120660 0
-0.171965 0.101456 0
-0.182403 0.079713 0
-0.191392 0.055640 0
-0.198745 0.029476 0
-0.204229 0.001520 0
-0.207560 -0.027829 0
-0.208418 -0.058056 0
-0.206438 -0.088468 0
-0.201236 -0.118140 0
-0.192448 -0.145889 0
-0.179788 -0.170261 0
-0.163136 -0.189553 0
-0.142639 -0.201890 0
-0.118838 -0.205371 0
-0.092780 -0.198308 0
-0.066085 -0.179556 0
-0.040917 -0.148858 0
-0.019819 -0.107123 0
-0.005403 -0.056478 0
0.000000 -0.000000 0
0.000000 0.000000 0
-0.003290 0.054753 0
-0.011713 0.098978 0
-0.023850 0.133017 0
-0.038430 0.157649 0
-0.054395 0.173894 0
-0.070922 0.182851 0
-0.087413 0.185574 0
-0.103458 0.182996 0
-0.118794 0.175897 0
-0.133265 0.164893 0
-0.146781 0.150452 0
-0.159287 0.132919 0
-0.170736 0.112543 0
-0.181064 0.089518 0
-0.190175 0.064015 0
-0.197920 0.036221 0
-0.204090 0.006379 0
-0.208409 -0.025165 0
-0.210537 -0.057948 0
-0.210068 -0.091325 0
-0.206538 -0.124389 0
-0.199461 -0.155924 0
-0.188386 -0.184372 0
-0.172989 -0.207820 0
-0.153198 -0.224054 0
-0.129354 -0.230698 0
-0.102382 -0.225468 0
-0.073925 -0.206577 0
-0.046381 -0.173214 0
-0.022754 -0.125984 0
-0.006289 -0.067080 0
0.000000 -0.000000 0
0.000000 -0.000000 0
-0.003444 0.060722 0
-0.012211 0.109427 0
-0.024725 0.146537 0
-0.039567 0.173023 0
-0.055582 0.190149 0
-0.071900 0.199265 0
-0.087924 0.201647 0
-0.103281 0.198413 0
-0.117768 0.190474 0
-0.131298 0.178541 0
-0.143859 0.163132 0
-0.155473 0.144614 0
-0.166169 0.123232 0
-0.175955 0.099152 0
-0.184801 0.072496 0
-0.192616 0.043392 0
-0.199235 0.012009 0
-0.204410 -0.021382 0
-0.207803 -0.056396 0
-0.208985 -0.092466 0
-0.207429 -0.128747 0
-0.202534 -0.164041 0
-0.193677 -0.196733 0
-0.180297 -0.224742 0
-0.162044 -0.245525 0
-0.138969 -0.256187 0
-0.111768 -0.253738 0
-0.082007 -0.235557 0
-0.052262 -0.200029 0
-0.026025 -0.147215 0
-0.007308 -0.079232 0
0.000000 0.000000 0
0.000000 -0.000000 0
-0.003649 0.066964 0
-0.012853 0.120259 0
-0.025800 0.160373 0
-0.040872 0.188505 0
-0.056785 0.206226 0
-0.072623 0.215194 0
-0.087806 0.216956 0
-0.102019 0.212840 0
-0.115140 0.203914 0
-0.127177 0.190984 0
-0.138212 0.174627 0
-0.148361 0.155229 0
-0.157744 0.133026 0
-0.166455 0.108151 0
-0.174545 0.080675 0
-0.181999 0.050655 0
-0.188720 0.018174 0
-0.194511 -0.016597 0
-0.199059 -0.053374 0
-0.201944 -0.091700 0
-0.202604 -0.130839 0
-0.200345 -0.169676 0
-0.194371 -0.206609 0
-0.183870 -0.239453 0
-0.168153 -0.265382 0
-0.146888 -0.280974 0
-0.120406 -0.282430 0
-0.090051 -0.266083 0
-0.058469 -0.229196 0
-0.029640 -0.170938 0
-0.008478 -0.093105 0
0.000000 0.000000 0
0.000000 0.000000 0
-0.003948 0.073575 0
-0.013756 0.131578 0
-0.027256 0.174556 0
-0.042544 0.204007 0
-0.058179 0.221900 0
-0.073205 0.230286 0
-0.087085 0.231043 0
-0.099596 0.225746 0
-0.110732 0.215632 0
-0.120621 0.201612 0
-0.129462 0.184317 0
-0.137480 0.164147 0
-0.144897 0.141326 0
-0.151906 0.115952 0
-0.158652 0.088040 0
-0.165212 0.057566 0
-0.171575 0.024521 0
-0.177623 -0.011043 0
-0.183100 -0.048962 0
-0.187628 -0.088922 0
-0.190650 -0.130347 0
-0.191415 -0.172274 0
-0.188984 -0.213208 0
-0.182287 -0.250960 0
-0.170260 -0.282506 0
-0.152088 -0.303934 0
-0.127579 -0.310575 0
-0.097660 -0.297493 0
-0.064866 -0.260440 0
-0.033601 -0.197206 0
-0.009824 -0.108872 0
0.000000 -0.000000 0
0.000000 0.000000 0
-0.004405 0.080720 0
-0.015091 0.143567 0
-0.029334 0.189161 0
-0.044833 0.219429 0
-0.059959 0.236887 0
-0.073739 0.244100 0
-0.085729 0.243346 0
-0.095852 0.236488 0
-0.104262 0.224939 0
-0.111238 0.209714 0
-0.117120 0.191486 0
-0.122255 0.170664 0
-0.126977 0.147452 0
-0.131584 0.121905 0
-0.136321 0.093981 0
-0.141367 0.063578 0
-0.146816 0.030585 0
-0.152650 -0.005073 0
-0.158702 -0.043369 0
-0.164680 -0.084149 0
-0.170080 -0.127052 0
-0.174148 -0.171343 0
-0.175851 -0.215737 0
-0.173897 -0.258176 0
-0.166832 -0.295581 0
-0.153273 -0.323655 0
-0.132337 -0.336858 0
-0.104277 -0.328797 0
-0.071244 -0.293254 0
-0.037908 -0.225980 0
-0.011382 -0.126706 0
0.000000 -0.000000 0
0.000000 0.000000 0
-0.005121 0.088666 0
-0.017099 0.156507 0
-0.032349 0.204299 0
-0.048023 0.234632 0
-0.062289 0.250806 0
-0.074221 0.256056 0
-0.083553 0.253156 0
-0.090430 0.244279 0
-0.095223 0.231018 0
-0.098404 0.214470 0
-0.100472 0.195333 0
-0.101908 0.174004 0
-0.103159 0.150655 0
-0.104626 0.125296 0
-0.106654 0.097823 0
-0.109523 0.068062 0
-0.113434 0.035803 0
-0.118490 0.000844 0
-0.124659 -0.036931 0
-0.131755 -0.077544 0
-0.139384 -0.120880 0
-0.146869 -0.166503 0
-0.153162 -0.213459 0
-0.156820 -0.259979 0
-0.156037 -0.303130 0
-0.148819 -0.338428 0
-0.133423 -0.359571 0
-0.109124 -0.358586 0
-0.077299 -0.326809 0
-0.042560 -0.257069 0
-0.013212 -0.146780 0
0.000000 -0.000000 0
0.000000 0.000000 0
-0.006249 0.097819 0
-0.020118 0.170796 0
-0.036681 0.220086 0
-0.052367 0.249368 0
-0.065186 0.263085 0
-0.074390 0.265364 0
-0.080029 0.259555 0
-0.082576 0.248158 0
-0.082692 0.232913 0
-0.081078 0.214963 0
-0.078411 0.194990 0
-0.075306 0.173351 0
-0.072313 0.150170 0
-0.069925 0.125400 0
-0.068573 0.098877 0
-0.068623 0.070358 0
-0.070379 0.039552 0
-0.074066 0.006152 0
-0.079807 -0.030104 0
-0.087556 -0.069423 0
-0.097089 -0.111938 0
-0.107885 -0.157565 0
-0.119000 -0.205785 0
-0.128958 -0.255301 0
-0.135715 -0.303583 0
-0.136690 -0.346269 0
-0.129161 -0.376553 0
-0.111094 -0.384921 0
-0.082556 -0.359818 0
-0.047550 -0.290066 0
-0.015419 -0.169266 0
0.000000 -0.000000 0
0.000000 -0.000000 0
-0.008039 0.108784 0
-0.024609 0.186939 0
-0.042721 0.236548 0
-0.057938 0.263137 0
-0.068283 0.272829 0
-0.073434 0.270899 0
-0.073966 0.261342 0
-0.070818 0.246942 0
-0.065015 0.229520 0
-0.057511 0.210189 0
-0.049171 0.189562 0
-0.040725 0.167905 0
-0.032800 0.145275 0
-0.025955 0.121557 0
-0.020674 0.096521 0
-0.017386 0.069867 0
-0.016472 0.041247 0
-0.018261 0.010272 0
-0.023016 -0.023441 0
-0.030868 -0.060262 0
-0.041804 -0.100551 0
-0.055550 -0.144592 0
-0.071394 -0.192386 0
-0.088014 -0.243264 0
-0.103335 -0.295399 0
-0.114325 -0.344982 0
-0.117281 -0.385167 0
-0.108555 -0.405191 0
-0.086240 -0.390353 0
-0.052830 -0.324207 0
-0.018182 -0.194330 0
0.000000 0.000000 0
0.000000 0.000000 0
-0.010894 0.122428 0
-0.031150 0.205478 0
-0.050696 0.253415 0
-0.064271 0.274930 0
-0.070343 0.278581 0
-0.069447 0.271047 0
-0.062967 0.256939 0
-0.052448 0.239206 0
-0.039342 0.219606 0
-0.024841 0.199119 0
-0.009970 0.178204 0
0.004451 0.156979 0
0.017765 0.135400 0
0.029420 0.113275 0
0.038924 0.090308 0
0.045830 0.066155 0
0.049716 0.040427 0
0.050181 0.012696 0
0.046851 -0.017498 0
0.039430 -0.050635 0
0.027707 -0.087255 0
0.011662 -0.127975 0
-0.008386 -0.173322 0
-0.031540 -0.223360 0
-0.055964 -0.277271 0
-0.078479 -0.332323 0
-0.094635 -0.382324 0
-0.099001 -0.415962 0
-0.086973 -0.415543 0
-0.058197 -0.358125 0
-0.021799 -0.222096 0
0.000000 -0.000000 0
0.000000 0.000000 0
-0.015472 0.139934 0
-0.040313 0.226741 0
-0.060171 0.269669 0
-0.069566 0.282784 0
-0.068326 0.278005 0
-0.058480 0.263522 0
-0.042545 0.244343 0
-0.022753 0.223317 0
-0.000973 0.201912 0
0.021380 0.180817 0
0.043271 0.160270 0
0.063908 0.140170 0
0.082685 0.120306 0
0.099117 0.100398 0
0.112767 0.080110 0
0.123216 0.059076 0
0.130049 0.036896 0
0.132836 0.013136 0
0.131135 -0.012691 0
0.124517 -0.041118 0
0.112577 -0.072783 0
0.094993 -0.108500 0
0.071635 -0.149184 0
0.042814 -0.195686 0
0.009737 -0.248460 0
-0.025010 -0.306311 0
-0.056769 -0.364645 0
-0.078431 -0.412852 0
-0.082156 -0.431156 0
-0.062938 -0.389381 0
-0.026704 -0.252527 0
0.000000 -0.000000 0
0.000000 0.000000 0
-0.022765 0.162741 0
-0.052077 0.250177 0
-0.068718 0.282668 0
-0.068967 0.283085 0
-0.055621 0.267495 0
-0.032965 0.245267 0
-0.004816 0.221213 0
0.025876 0.197634 0
0.057109 0.175473 0
0.087513 0.154875 0
0.116228 0.135676 0
0.142654 0.117566 0
0.166343 0.100191 0
0.186939 0.083193 0
0.204114 0.066209 0
0.217536 0.048873 0
0.226845 0.030808 0
0.231635 0.011610 0
0.231448 -0.009180 0
0.225768 -0.032077 0
0.214041 -0.057731 0
0.195689 -0.087034 0
0.170176 -0.121142 0
0.137182 -0.161462 0
0.096955 -0.209448 0
0.050854 -0.265817 0
0.002659 -0.328902 0
-0.040303 -0.390575 0
-0.066677 -0.431036 0
-0.064863 -0.413576 0
-0.033283 -0.285034 0
0.000000 -0.000000 0
0.000000 -0.000000 0
-0.033788 0.192011 0
-0.063670 0.272695 0
-0.068503 0.286558 0
-0.050978 0.269687 0
-0.018944 0.242004 0
0.020533 0.212717 0
0.062715 0.185501 0
0.104661 0.161392 0
0.144768 0.140276 0
0.182146 0.121699 0
0.216321 0.105129 0