/*--------------------------------*- C++ -*----------------------------------*\
| =========                 |                                                 |
| \\      /  F ield         | OpenFOAM: The Open Source CFD Toolbox           |
|  \\    /   O peration     | Version:  5.x                                   |
|   \\  /    A nd           | Web:      www.OpenFOAM.org                      |
|    \\/     M anipulation  |                                                 |
\*---------------------------------------------------------------------------*/
FoamFile
{
    version     2.0;
    format      ascii;
    class       volScalarField;
    location    "4.8999";
    object      gradTx;
}
// * * * * * * * * * * * * * * * * * * * * * * * * * * * * * * * * * * * * * //

dimensions      [0 -1 0 1 0 0 0];

internalField   nonuniform List<scalar> 
2048
(
0.0077344
0.022967
0.0375132
0.0509863
0.063093
0.0736477
0.0825708
0.0898745
0.0956399
0.0999919
0.103077
0.105046
0.106046
0.106213
0.105675
0.104553
0.102964
0.101015
0.0988093
0.0964355
0.0939687
0.0914667
0.0889702
0.0865036
0.0840788
0.0816981
0.0793566
0.0770449
0.0747492
0.0724527
0.0701356
0.0677772
0.0653573
0.0628589
0.0602693
0.0575809
0.0547901
0.0518957
0.0488961
0.0457871
0.042561
0.0392064
0.0357104
0.0320616
0.0282542
0.0242912
0.020189
0.0159791
0.0117106
0.00745066
0.00328403
-0.000688291
-0.00435251
-0.00758738
-0.0102717
-0.012294
-0.0135632
-0.0140193
-0.0136425
-0.0124586
-0.0105398
-0.00800145
-0.00499474
-0.00169759
0.0230604
0.0684644
0.111787
0.151859
0.187804
0.219072
0.245441
0.266965
0.283906
0.296651
0.305646
0.311347
0.314189
0.314576
0.312885
0.309475
0.304685
0.298841
0.292245
0.285166
0.277826
0.270396
0.262995
0.255693
0.248523
0.241489
0.234575
0.227752
0.22098
0.214207
0.207374
0.200418
0.193279
0.185903
0.178254
0.170309
0.16206
0.153505
0.144641
0.135456
0.125928
0.116022
0.105696
0.0949148
0.0836561
0.0719273
0.0597738
0.0472878
0.0346136
0.0219498
0.00954858
-0.00228875
-0.0132215
-0.0228848
-0.0309127
-0.0369665
-0.0407681
-0.0421329
-0.040998
-0.0374383
-0.0316705
-0.0240415
-0.0150058
-0.00509952
0.0382588
0.113547
0.18527
0.251444
0.310597
0.361841
0.404852
0.439779
0.467113
0.487545
0.501848
0.510788
0.515085
0.515398
0.512336
0.506477
0.498381
0.488584
0.477588
0.46584
0.45371
0.441478
0.429334
0.417385
0.405674
0.394201
0.382937
0.371831
0.360816
0.349807
0.338704
0.327399
0.315785
0.303775
0.291304
0.278339
0.264872
0.250906
0.236442
0.221465
0.205938
0.189797
0.172968
0.155382
0.136993
0.117803
0.097881
0.0773717
0.0565092
0.0356183
0.0151149
-0.00450124
-0.0226604
-0.0387481
-0.0521421
-0.0622615
-0.0686244
-0.0709062
-0.0689894
-0.0629943
-0.0532838
-0.0404431
-0.0252387
-0.00857559
0.0536433
0.159123
0.259377
0.351529
0.433491
0.504062
0.562883
0.610287
0.647081
0.67433
0.693178
0.704719
0.709953
0.709771
0.704997
0.696413
0.684784
0.670859
0.655346
0.638878
0.621973
0.605019
0.588264
0.57184
0.555788
0.540091
0.524701
0.509547
0.494534
0.479544
0.464433
0.449041
0.433211
0.416811
0.399753
0.381994
0.363534
0.344393
0.324585
0.304097
0.282874
0.260824
0.237825
0.213762
0.188553
0.162183
0.134731
0.106388
0.0774701
0.0484245
0.0198274
-0.00762121
-0.0331159
-0.0557774
-0.0747047
-0.0890453
-0.0980821
-0.101322
-0.0985752
-0.0900003
-0.0761151
-0.0577611
-0.0360385
-0.0122432
0.069498
0.206013
0.335368
0.453682
0.558215
0.647493
0.721225
0.780049
0.825215
0.858262
0.880761
0.89416
0.899722
0.89855
0.891644
0.879968
0.864487
0.846167
0.825935
0.804624
0.78291
0.761282
0.740036
0.719307
0.699113
0.679409
0.660119
0.641151
0.62239
0.603685
0.584842
0.565641
0.545863
0.525323
0.503904
0.481562
0.458316
0.434216
0.409305
0.383581
0.356974
0.329347
0.300522
0.270318
0.238597
0.20531
0.170536
0.134502
0.0975995
0.0603912
0.023612
-0.0118361
-0.0449015
-0.0744195
-0.0991772
-0.118008
-0.129914
-0.134192
-0.13055
-0.119181
-0.100772
-0.0764507
-0.0476858
-0.016197
0.0860948
0.254993
0.414422
0.559339
0.686307
0.793645
0.881264
0.950286
1.00257
1.04025
1.0654
1.07985
1.08509
1.08239
1.07289
1.0577
1.03797
1.01491
0.98969
0.963355
0.936759
0.91049
0.884873
0.860016
0.835888
0.812395
0.789429
0.766882
0.744626
0.722478
0.700195
0.677478
0.65403
0.629601
0.604038
0.577301
0.549448
0.520583
0.490795
0.460104
0.428426
0.39557
0.361279
0.325282
0.287361
0.247416
0.205509
0.161894
0.117031
0.0715916
0.0264665
-0.0172396
-0.0582181
-0.0949944
-0.126002
-0.149705
-0.164761
-0.1702
-0.165592
-0.151155
-0.127768
-0.0968908
-0.0604112
-0.0205142
0.103707
0.306839
0.497694
0.669868
0.819179
0.943834
1.04414
1.12193
1.17989
1.2209
1.24764
1.26228
1.26655
1.26179
1.24921
1.23005
1.20564
1.17743
1.14687
1.11528
1.08371
1.05283
1.02297
0.994187
0.966347
0.939288
0.912864
0.886963
0.861459
0.836151
0.810733
0.784814
0.757989
0.72992
0.700415
0.669447
0.637134
0.603664
0.569202
0.533807
0.497379
0.459661
0.420287
0.378864
0.335068
0.288724
0.239862
0.188754
0.135922
0.0821419
0.0284515
-0.0238433
-0.073169
-0.117714
-0.155511
-0.184584
-0.203165
-0.209941
-0.204295
-0.18646
-0.157542
-0.119398
-0.074402
-0.0252564
0.122621
0.362355
0.58636
0.78662
0.958166
1.09923
1.21078
1.29567
1.35765
1.40057
1.42775
1.44176
1.44443
1.43712
1.42102
1.3974
1.36781
1.33397
1.29768
1.26056
1.2239
1.18845
1.15452
1.12203
1.09073
1.06033
1.03065
1.0016
0.97309
0.944908
0.916682
0.887898
0.858005
0.826551
0.793288
0.758217
0.721548
0.683595
0.644635
0.60479
0.563946
0.521755
0.477709
0.431256
0.381928
0.329448
0.273804
0.21528
0.154452
0.0921937
0.0296811
-0.0315876
-0.0897715
-0.142698
-0.187943
-0.223007
-0.245593
-0.253948
-0.247197
-0.225577
-0.190474
-0.144232
-0.0898047
-0.0304702
0.143146
0.422399
0.681651
0.910966
1.10455
1.26089
1.38193
1.47193
1.53606
1.57933
1.60581
1.61841
1.61895
1.60868
1.58863
1.56009
1.52477
1.48475
1.44225
1.39929
1.35741
1.31747
1.27968
1.24377
1.20926
1.17575
1.14301
1.11099
1.07969
1.04893
1.01825
0.986965
0.95434
0.919759
0.882902
0.843815
0.802843
0.760479
0.717166
0.673115
0.628201
0.581958
0.533689
0.482634
0.428137
0.369796
0.307543
0.24167
0.17281
0.101925
0.0303136
-0.0403506
-0.107966
-0.16998
-0.223452
-0.26526
-0.292452
-0.302705
-0.294794
-0.268941
-0.226888
-0.171597
-0.106723
-0.0361862
0.165619
0.487907
0.784881
1.04432
1.25961
1.42974
1.55816
1.65095
1.71511
1.75706
1.78171
1.7922
1.79022
1.77668
1.75234
1.7184
1.67676
1.62994
1.58069
1.53152
1.4843
1.43999
1.39861
1.35961
1.32222
1.28582
1.25016
1.21531
1.18142
1.14837
1.11562
1.08225
1.04726
1.00981
0.969503
0.926435
0.881149
0.834389
0.786827
0.738807
0.690189
0.640353
0.588354
0.533162
0.473887
0.409968
0.341276
0.26812
0.191192
0.111532
0.0305425
-0.0499562
-0.127623
-0.199515
-0.262119
-0.31157
-0.344107
-0.35667
-0.347559
-0.316956
-0.26706
-0.201638
-0.125212
-0.042416
0.19042
0.559912
0.897478
1.18818
1.42458
1.60664
1.73985
1.83273
1.89454
1.93342
1.95515
1.963
1.95828
1.94133
1.91244
1.87263
1.82402
1.76969
1.71304
1.65724
1.60458
1.55605
1.51146
1.46979
1.42987
1.39081
1.35233
1.31472
1.27839
1.24337
1.20896
1.17396
1.13702
1.09699
1.05334
1.00626
0.95658
0.905369
0.853614
0.80185
0.749922
0.696999
0.641815
0.582996
0.519359
0.450153
0.375192
0.294816
0.209786
0.121218
0.0305872
-0.0601815
-0.148548
-0.231187
-0.30395
-0.362103
-0.400881
-0.416284
-0.405959
-0.370002
-0.311213
-0.234432
-0.145269
-0.0491493
0.217974
0.639566
1.021
1.3441
1.60072
1.79233
1.92723
2.01706
2.07389
2.10786
2.1257
2.13058
2.12312
2.10282
2.06924
2.02309
1.96679
1.9041
1.83932
1.77641
1.71819
1.66572
1.61838
1.57456
1.53252
1.49101
1.44974
1.40934
1.37069
1.33399
1.29841
1.26233
1.2239
1.18159
1.13467
1.08349
1.02923
0.973431
0.917489
0.862197
0.807384
0.751938
0.694172
0.632286
0.564732
0.490535
0.409463
0.321925
0.228771
0.131185
0.0306842
-0.0707643
-0.170488
-0.264806
-0.348886
-0.416971
-0.463072
-0.481985
-0.470468
-0.428443
-0.359516
-0.269977
-0.166824
-0.0563492
0.248764
0.728156
1.15716
1.51377
1.78925
1.98743
2.12036
2.20354
2.25245
2.27966
2.29281
2.29465
2.28473
2.26136
2.22308
2.17011
2.10528
2.03329
1.9595
1.88892
1.82506
1.769
1.71954
1.6742
1.63052
1.58676
1.54262
1.49928
1.45835
1.42032
1.38412
1.34756
1.30819
1.26392
1.21377
1.15829
1.09919
1.03856
0.978373
0.919762
0.862535
0.805197
0.745519
0.681179
0.610182
0.531282
0.444241
0.349593
0.248303
0.141624
0.0310777
-0.08141
-0.193131
-0.300112
-0.396795
-0.476231
-0.530942
-0.554215
-0.541585
-0.492643
-0.412077
-0.308175
-0.189724
-0.0639468
0.283336
0.827121
1.30783
1.69896
1.9914
2.19245
2.31911
2.39155
2.42935
2.44792
2.4558
2.45488
2.44307
2.41718
2.37433
2.31405
2.23974
2.15734
2.07352
1.99461
1.92505
1.86591
1.8151
1.76902
1.72426
1.67844
1.6312
1.58462
1.54135
1.50235
1.46618
1.42986
1.39018
1.34432
1.29091
1.23085
1.16652
1.10073
1.03615
0.974422
0.915309
0.856793
0.795944
0.729822
0.655885
0.572557
0.479655
0.377936
0.268512
0.152708
0.0320105
-0.0917991
-0.216117
-0.336778
-0.447478
-0.539882
-0.604728
-0.633434
-0.619853
-0.562972
-0.468934
-0.348812
-0.213719
-0.0718361
0.322316
0.93807
1.47509
1.90158
2.20835
2.40774
2.52319
2.5803
2.60349
2.61159
2.61395
2.61091
2.59813
2.57056
2.52349
2.45533
2.37041
2.27634
2.18128
2.09326
2.01796
1.95643
1.90527
1.85935
1.81417
1.76647
1.71575
1.66537
1.61962
1.58007
1.54468
1.50944
1.47019
1.42315
1.36641
1.30135
1.23129
1.15987
1.09067
1.02602
0.965626
0.906742
0.845533
0.778365
0.702024
0.614508
0.515807
0.407039
0.289494
0.16458
0.0337148
-0.101595
-0.239036
-0.374409
-0.500667
-0.607868
-0.684625
-0.720115
-0.705889
-0.639829
-0.530045
-0.391541
-0.238446
-0.0798689
0.36642
1.06279
1.66116
2.12364
2.44121
2.63346
2.73214
2.76881
2.77358
2.76946
2.76645
2.76242
2.74991
2.72186
2.6711
2.59441
2.49752
2.39036
2.28266
2.18458
2.10357
2.04053
1.99026
1.94555
1.90075
1.85137
1.79653
1.7415
1.69299
1.65341
1.61973
1.58648
1.54854
1.50083
1.44057
1.36995
1.29356
1.2159
1.14174
1.07436
1.01339
0.95506
0.894368
0.82696
0.748794
0.657276
0.552766
0.436952
0.311308
0.177347
0.0364028
-0.11045
-0.261434
-0.412541
-0.556029
-0.680073
-0.770778
-0.814755
-0.800414
-0.723659
-0.59527
-0.435849
-0.263411
-0.0878513
0.416483
1.20324
1.86848
2.36732
2.69098
2.86954
2.94537
2.95598
2.93815
2.92018
2.91251
2.90913
2.8984
2.87145
2.81786
2.73176
2.6213
2.49952
2.37753
2.26823
2.18154
2.1182
2.07033
2.02801
1.98453
1.93373
1.87381
1.81289
1.76124
1.72227
1.6914
1.66117
1.62558
1.57784
1.51372
1.43681
1.35337
1.26872
1.18912
1.11919
1.0585
1.00178
0.942525
0.875761
0.796412
0.700988
0.590559
0.467688
0.333973
0.191073
0.0402581
-0.118017
-0.282818
-0.450645
-0.613166
-0.756321
-0.863259
-0.91786
-0.904295
-0.814983
-0.664348
-0.481031
-0.287986
-0.0955418
0.473495
1.36158
2.09964
2.63499
2.95853
3.11561
3.16217
3.14059
3.09555
3.06228
3.05134
3.05088
3.04362
3.01976
2.96464
2.86793
2.74191
2.60394
2.46575
2.34375
2.25148
2.18942
2.14581
2.10709
2.0661
2.01431
1.94791
1.87933
1.82399
1.78652
1.75982
1.73366
1.70166
1.65472
1.58622
1.50203
1.41082
1.31824
1.23251
1.16025
1.10086
1.04697
0.990065
0.924922
0.845132
0.745762
0.629165
0.499231
0.35747
0.20577
0.045427
-0.123955
-0.302661
-0.488123
-0.671626
-0.836387
-0.962038
-1.02993
-1.0186
-0.914433
-0.736863
-0.526157
-0.311392
-0.102653
0.538666
1.54013
2.35735
2.92925
3.24447
3.3709
3.3818
3.32137
3.24393
3.19413
3.1822
3.18767
3.18548
3.16724
3.11253
3.00343
2.85941
2.70384
2.54717
2.41059
2.3129
2.25418
2.21709
2.18312
2.14605
2.094
2.01917
1.94047
1.88077
1.84602
1.82514
1.80403
1.77711
1.73214
1.65838
1.56567
1.46601
1.36436
1.27157
1.19719
1.14037
1.09072
1.03702
0.974586
0.895268
0.791699
0.6685
0.53154
0.381742
0.221394
0.0520109
-0.12794
-0.320407
-0.524309
-0.73091
-0.920016
-1.06693
-1.15141
-1.1447
-1.0228
-0.812194
-0.57004
-0.332709
-0.108859
0.613532
1.74133
2.64435
3.25309
3.54913
3.63413
3.60363
3.49706
3.38126
3.31395
3.30445
3.31974
3.3238
3.3143
3.26294
3.13879
2.97367
2.79955
2.62172
2.46807
2.3652
2.31254
2.28475
2.25635
2.22499
2.17397
2.08795
1.99579
1.93094
1.90061
1.88766
1.8723
1.85225
1.81093
1.73053
1.62768
1.51912
1.40699
1.30589
1.22961
1.17698
1.13324
1.08337
1.02488
0.947227
0.838878
0.708397
0.564564
0.406704
0.237836
0.0600608
-0.129674
-0.335478
-0.558459
-0.790486
-1.00695
-1.17756
-1.28265
-1.28431
-1.14109
-0.889443
-0.611203
-0.35089
-0.113806
0.700135
1.96771
2.9633
3.61005
3.87237
3.90331
3.82726
3.66646
3.50524
3.41979
3.41762
3.44773
3.45812
3.46126
3.41778
3.27443
3.0843
2.89164
2.68935
2.51536
2.40762
2.36459
2.34954
2.32681
2.30345
2.25574
2.15466
2.04457
1.97369
1.9502
1.9478
1.93828
1.92733
1.89219
1.80292
1.68784
1.57044
1.4461
1.33495
1.25703
1.21065
1.17483
1.12901
1.07587
1.00156
0.887347
0.748573
0.59827
0.432244
0.25491
0.0695733
-0.128896
-0.347286
-0.589739
-0.849801
-1.09702
-1.29324
-1.42378
-1.43972
-1.2706
-0.967329
-0.647853
-0.364787
-0.117129
0.801298
2.22181
3.31653
4.00455
4.21347
4.17552
4.05282
3.82851
3.61333
3.50948
3.52137
3.57285
3.58757
3.60823
3.57966
3.4106
3.19044
2.98104
2.75011
2.55143
2.43923
2.41049
2.41257
2.39429
2.38185
2.34131
2.2197
2.0858
2.00802
1.99471
2.0063
2.00159
2.00246
1.97738
1.87571
1.7457
1.62049
1.48168
1.35816
1.2789
1.24139
1.21598
1.17366
1.12756
1.05904
0.937097
0.788592
0.632682
0.458236
0.272351
0.0804916
-0.12539
-0.355244
-0.617209
-0.908289
-1.19019
-1.41294
-1.57458
-1.61392
-1.41299
-1.04405
-0.677862
-0.373204
-0.11848
0.921059
2.50599
3.70574
4.44238
4.57086
4.44653
4.28137
3.98232
3.70261
3.58062
3.61558
3.69715
3.7106
3.75501
3.75222
3.54727
3.29058
3.06925
2.80413
2.57499
2.45891
2.45048
2.47541
2.45807
2.46037
2.4334
2.28344
2.11813
2.03271
2.03412
2.0643
2.06141
2.0776
2.06854
1.94891
1.80042
1.67006
1.51377
1.37475
1.29454
1.26926
1.25748
1.21685
1.17983
1.12077
0.988034
0.827802
0.667937
0.484543
0.28979
0.092711
-0.119002
-0.358786
-0.63979
-0.965373
-1.28675
-1.53512
-1.73424
-1.81087
-1.57038
-1.11705
-0.698777
-0.374963
-0.117549
1.06532
2.82228
4.13147
4.93138
4.94186
4.71042
4.51541
4.12717
3.76975
3.63051
3.70028
3.82388
3.82467
3.90082
3.94061
3.68395
3.38226
3.15867
2.85163
2.58444
2.46529
2.48488
2.54039
2.5168
2.53885
2.53567
2.34618
2.13981
2.04627
2.06849
2.1236
2.11642
2.15237
2.16849
2.02225
1.85066
1.72047
1.54247
1.38382
1.30315
1.29435
1.30051
1.25773
1.23237
1.18831
1.03993
0.865259
0.704377
0.511018
0.30674
0.106093
-0.109641
-0.357402
-0.656221
-1.02044
-1.38753
-1.65764
-1.90107
-2.03586
-1.7455
-1.18281
-0.707852
-0.36899
-0.114103
1.24278
3.17208
4.59243
5.48246
5.3222
4.95891
4.75964
4.26242
3.81089
3.65611
3.77558
3.95806
3.92579
4.0441
4.15211
3.81942
3.46167
3.253
2.89284
2.57783
2.45672
2.51397
2.61089
2.56813
2.61656
2.65318
2.40796
2.14861
2.04701
2.09787
2.18689
2.16447
2.22597
2.28124
2.09506
1.89432
1.77373
1.56786
1.38426
1.30379
1.31676
1.34683
1.29498
1.28459
1.26395
1.09234
0.899626
0.742661
0.537494
0.322569
0.120491
-0.0972971
-0.350673
-0.665013
-1.07279
-1.49414
-1.77762
-2.07209
-2.29597
-1.94175
-1.23641
-0.702138
-0.354423
-0.10801
1.46627
3.55579
5.0845
6.11099
5.70555
5.18068
5.02199
4.38734
3.82154
3.65407
3.8415
4.10714
4.00793
4.18211
4.39696
3.95138
3.52319
3.35785
2.92788
2.55276
2.43127
2.53795
2.69181
2.60841
2.69201
2.79279
2.46841
2.14177
2.03298
2.12228
2.25818
2.2023
2.29696
2.41241
2.16609
1.92833
1.83291
1.59
1.3747
1.29537
1.33654
1.39905
1.3266
1.33552
1.35087
1.1445
0.929038
0.783936
0.563761
0.336469
0.135782
-0.0820475
-0.338339
-0.66438
-1.12152
-1.60942
-1.89129
-2.24244
-2.60058
-2.16336
-1.27113
-0.678633
-0.330719
-0.099268
1.75451
3.9723
5.59946
6.83864
6.08269
5.36038
5.31496
4.50072
3.79651
3.62075
3.89762
4.28195
4.06231
4.3105
4.6895
4.07604
3.55878
3.48152
2.95654
2.50636
2.38677
2.55672
2.79018
2.63215
2.76265
2.96389
2.52641
2.11598
2.00204
2.1415
2.34332
2.22517
2.36301
2.56983
2.23327
1.94827
1.90255
1.60872
1.35354
1.27667
1.35357
1.46092
1.34965
1.38367
1.4536
1.19519
0.950947
0.830048
0.589512
0.347412
0.151924
-0.0640594
-0.320371
-0.652177
-1.1654
-1.73786
-1.99384
-2.40472
-2.96218
-2.41549
-1.27782
-0.634531
-0.297777
-0.0880195
2.13454
4.41834
6.12326
7.69576
6.44061
5.47749
5.65727
4.60023
3.72984
3.55229
3.9426
4.49795
4.07648
4.42269
5.04949
4.18747
3.55723
3.63598
2.97789
2.43527
2.32081
2.56953
2.91589
2.63154
2.82448
3.17915
2.57969
2.06734
1.95197
2.15485
2.45061
2.22634
2.42059
2.7643
2.29334
1.94799
1.9892
1.62351
1.3189
1.24635
1.3674
1.53777
1.35995
1.4268
1.57838
1.24252
0.96193
0.88382
0.614267
0.354112
0.169022
-0.0435929
-0.297081
-0.625834
-1.20257
-1.88626
-2.07938
-2.54805
-3.39723
-2.70438
-1.24424
-0.567573
-0.256027
-0.0745578
2.64474
4.88768
6.63394
8.72446
6.76129
5.50498
6.07605
4.6816
3.61487
3.44484
3.97341
4.77672
4.03328
4.50923
5.5038
4.27688
3.50335
3.83816
2.98978
2.33563
2.23088
2.57456
3.08274
2.59566
2.87165
3.45553
2.6242
1.99148
1.88057
2.16074
2.59165
2.19653
2.46461
3.0105
2.3415
1.91915
2.10215
1.63313
1.26862
1.20305
1.37697
1.63699
1.35171
1.46179
1.73375
1.2837
0.957467
0.949397
0.637248
0.354973
0.18741
-0.0209954
-0.269239
-0.582304
-1.2302
-2.06443
-2.1408
-2.65697
-3.92725
-3.03735
-1.15421
-0.476546
-0.206507
-0.0593131
3.33858
5.37007
7.09902
9.98222
7.02016
5.40772
6.6094
4.73725
3.44431
3.29486
3.9843
5.14787
3.90953
4.55692
6.08844
4.33174
3.37688
4.11149
2.98802
2.20321
2.11457
2.56825
3.30957
2.50976
2.89595
3.81551
2.65334
1.88366
1.78584
2.15619
2.78236
2.12318
2.48792
3.32806
2.37088
1.85064
2.25425
1.63527
1.20032
1.14545
1.38031
1.76875
1.3171
1.48431
1.93115
1.3147
0.931692
1.03267
0.657209
0.348044
0.207758
0.00331105
-0.238228
-0.518035
-1.24401
-2.28605
-2.1698
-2.71013
-4.58013
-3.42291
-0.986613
-0.361942
-0.150866
-0.042823
4.28929
5.85007
7.4724
11.5463
7.18427
5.14074
7.30945
4.75466
3.21051
3.09958
3.9654
5.65128
3.67461
4.54787
6.85079
4.33462
3.1515
4.48773
2.9654
2.03353
1.96982
2.54443
3.62177
2.3543
2.88621
4.28844
2.65694
1.73902
1.66632
2.13602
3.04421
1.98973
2.48083
3.74286
2.37196
1.72802
2.46291
1.62594
1.11152
1.07246
1.37402
1.94669
1.24575
1.48856
2.18565
1.32993
0.877127
1.14176
0.672201
0.33098
0.231186
0.0288513
-0.206203
-0.428988
-1.23768
-2.56957
-2.15693
-2.67876
-5.39161
-3.87067
-0.714342
-0.226779
-0.0913075
-0.025688
5.59516
6.3056
7.69084
13.519
7.21013
4.64731
8.24593
4.71418
2.90591
2.85762
3.90096
6.33973
3.28884
4.45839
7.85224
4.26202
2.79355
5.00913
2.91039
1.8222
1.79531
2.49323
4.05287
2.10391
2.82769
4.9122
2.62005
1.55293
1.52137
2.09194
3.40556
1.77475
2.43046
4.28836
2.33191
1.53281
2.75131
1.59878
0.999731
0.983406
1.35267
2.18884
1.12418
1.46694
2.5168
1.32171
0.784393
1.28758
0.679285
0.301017
0.259389
0.0551277
-0.176268
-0.310707
-1.20204
-2.93931
-2.09178
-2.52489
-6.40693
-4.3913
-0.303101
-0.0776224
-0.030422
-0.00851489
)
;

boundaryField
{
    left
    {
        type            calculated;
        value           uniform 0;
    }
    right
    {
        type            calculated;
        value           uniform 0;
    }
    interface
    {
        type            calculated;
        value           nonuniform List<scalar> 
64
(
5.59516
6.3056
7.69084
13.519
7.21013
4.64731
8.24593
4.71418
2.90591
2.85762
3.90096
6.33973
3.28884
4.45839
7.85224
4.26202
2.79355
5.00913
2.91039
1.8222
1.79531
2.49323
4.05287
2.10391
2.82769
4.9122
2.62005
1.55293
1.52137
2.09194
3.40556
1.77475
2.43046
4.28836
2.33191
1.53281
2.75131
1.59878
0.999731
0.983406
1.35267
2.18884
1.12418
1.46694
2.5168
1.32171
0.784393
1.28758
0.679285
0.301017
0.259389
0.0551277
-0.176268
-0.310707
-1.20204
-2.93931
-2.09178
-2.52489
-6.40693
-4.3913
-0.303101
-0.0776224
-0.030422
-0.00851489
)
;
    }
    bottom
    {
        type            calculated;
        value           nonuniform List<scalar> 
64
(
0.0077344
0.022967
0.0375132
0.0509863
0.063093
0.0736477
0.0825708
0.0898745
0.0956399
0.0999919
0.103077
0.105046
0.106046
0.106213
0.105675
0.104553
0.102964
0.101015
0.0988093
0.0964355
0.0939687
0.0914667
0.0889702
0.0865036
0.0840788
0.0816981
0.0793566
0.0770449
0.0747492
0.0724527
0.0701356
0.0677772
0.0653573
0.0628589
0.0602693
0.0575809
0.0547901
0.0518957
0.0488961
0.0457871
0.042561
0.0392064
0.0357104
0.0320616
0.0282542
0.0242912
0.020189
0.0159791
0.0117106
0.00745066
0.00328403
-0.000688291
-0.00435251
-0.00758738
-0.0102717
-0.012294
-0.0135632
-0.0140193
-0.0136425
-0.0124586
-0.0105398
-0.00800145
-0.00499474
-0.00169759
)
;
    }
    defaultFaces
    {
        type            empty;
    }
}


// ************************************************************************* //
