/*--------------------------------*- C++ -*----------------------------------*\
| =========                 |                                                 |
| \\      /  F ield         | OpenFOAM: The Open Source CFD Toolbox           |
|  \\    /   O peration     | Version:  5.x                                   |
|   \\  /    A nd           | Web:      www.OpenFOAM.org                      |
|    \\/     M anipulation  |                                                 |
\*---------------------------------------------------------------------------*/
FoamFile
{
    version     2.0;
    format      ascii;
    class       volScalarField;
    location    "3.6";
    object      T;
}
// * * * * * * * * * * * * * * * * * * * * * * * * * * * * * * * * * * * * * //

dimensions      [0 0 0 1 0 0 0];

internalField   nonuniform List<scalar> 
3200
(
2.2197e-10
1.59119e-10
1.5402e-10
1.15284e-10
1.11567e-10
7.91954e-11
7.64538e-11
5.632e-11
5.4481e-11
4.03699e-11
3.02724e-11
2.93231e-11
2.24776e-11
2.18532e-11
1.68424e-11
1.63849e-11
1.26561e-11
1.23147e-11
9.51675e-12
9.26014e-12
7.15093e-12
6.95733e-12
5.36374e-12
5.21743e-12
4.01265e-12
3.90206e-12
2.99171e-12
2.9082e-12
2.22131e-12
2.15836e-12
1.64121e-12
1.59388e-12
1.20566e-12
1.17018e-12
8.79794e-13
8.53302e-13
6.37028e-13
6.17339e-13
4.57097e-13
4.42547e-13
3.24557e-13
3.13875e-13
2.27643e-13
2.19865e-13
1.57411e-13
1.51803e-13
1.07064e-13
1.03063e-13
7.14215e-14
6.85171e-14
4.58889e-14
2.99316e-14
2.84727e-14
1.84604e-14
1.75906e-14
1.11237e-14
1.0571e-14
6.50769e-15
6.1645e-15
3.69185e-15
3.48531e-15
2.02849e-15
1.90805e-15
1.076e-15
1.00785e-15
5.46441e-16
5.08996e-16
2.60517e-16
2.40563e-16
1.11196e-16
1.0097e-16
3.68991e-17
3.21159e-17
5.93787e-18
4.22292e-18
-1.45124e-18
-1.78402e-18
-1.84247e-18
-1.85574e-18
-1.85871e-18
2.15081e-10
1.63443e-10
1.51799e-10
1.18167e-10
1.09564e-10
8.1716e-11
7.53722e-11
5.78617e-11
5.35674e-11
4.07948e-11
3.12259e-11
2.89797e-11
2.30111e-11
2.1562e-11
1.72238e-11
1.61644e-11
1.29387e-11
1.21483e-11
9.72843e-12
9.13436e-12
7.31036e-12
6.86217e-12
5.48415e-12
5.14547e-12
4.10369e-12
3.8477e-12
3.06052e-12
2.86721e-12
2.27326e-12
2.12754e-12
1.68036e-12
1.57078e-12
1.23508e-12
1.15294e-12
9.01821e-13
8.40491e-13
6.53456e-13
6.07876e-13
4.6929e-13
4.35604e-13
3.33553e-13
3.08824e-13
2.34234e-13
2.16227e-13
1.62198e-13
1.49213e-13
1.10502e-13
1.01235e-13
7.38103e-14
6.70354e-14
4.65908e-14
3.14604e-14
2.80056e-14
1.92653e-14
1.72454e-14
1.16374e-14
1.03563e-14
6.83254e-15
6.03697e-15
3.89113e-15
3.41217e-15
2.14683e-15
1.86741e-15
1.14409e-15
9.8594e-16
5.84474e-16
4.97541e-16
2.81157e-16
2.34814e-16
1.22054e-16
9.82969e-17
4.24272e-17
3.13052e-17
8.35215e-18
4.34422e-18
-8.47643e-19
-1.64327e-18
-1.80946e-18
-1.84787e-18
-1.85647e-18
2.10256e-10
1.66165e-10
1.50457e-10
1.20049e-10
1.08331e-10
8.33758e-11
7.47366e-11
5.88743e-11
5.29926e-11
4.10913e-11
3.18862e-11
2.8785e-11
2.33635e-11
2.13863e-11
1.7474e-11
1.60304e-11
1.31238e-11
1.2047e-11
9.86699e-12
9.05771e-12
7.4147e-12
6.80416e-12
5.56295e-12
5.10158e-12
4.16326e-12
3.81455e-12
3.10555e-12
2.84223e-12
2.30726e-12
2.10876e-12
1.70598e-12
1.55671e-12
1.25434e-12
1.14245e-12
9.16249e-13
8.32702e-13
6.64221e-13
6.02128e-13
4.77283e-13
4.31393e-13
3.39453e-13
3.05764e-13
2.38559e-13
2.14027e-13
1.65343e-13
1.47651e-13
1.12762e-13
1.00133e-13
7.53723e-14
6.60999e-14
4.70798e-14
3.25218e-14
2.77497e-14
1.98012e-14
1.70436e-14
1.19779e-14
1.02312e-14
7.04821e-15
5.96339e-15
4.02369e-15
3.37045e-15
2.22571e-15
1.84452e-15
1.18956e-15
9.73751e-16
6.0992e-16
4.91259e-16
2.94993e-16
2.31719e-16
1.29352e-16
9.69075e-17
4.61647e-17
3.09673e-17
1.00084e-17
4.51278e-18
-4.19943e-19
-1.52772e-18
-1.78156e-18
-1.84119e-18
-1.85457e-18
2.07193e-10
1.6775e-10
1.49701e-10
1.21181e-10
1.07625e-10
8.43819e-11
7.43891e-11
5.94869e-11
5.26578e-11
4.12794e-11
3.23019e-11
2.86827e-11
2.35779e-11
2.12876e-11
1.76251e-11
1.59547e-11
1.32355e-11
1.19897e-11
9.9506e-12
9.0143e-12
7.47764e-12
6.77129e-12
5.61048e-12
5.07672e-12
4.19919e-12
3.79577e-12
3.13272e-12
2.82808e-12
2.32777e-12
2.09812e-12
1.72144e-12
1.54875e-12
1.26596e-12
1.13651e-12
9.24959e-13
8.283e-13
6.70721e-13
5.98883e-13
4.82111e-13
4.29018e-13
3.43019e-13
3.04041e-13
2.41175e-13
2.1279e-13
1.67245e-13
1.46775e-13
1.1413e-13
9.95154e-14
7.63138e-14
6.55536e-14
4.73896e-14
3.31913e-14
2.76205e-14
2.01292e-14
1.6934e-14
1.21855e-14
1.01634e-14
7.17984e-15
5.92394e-15
4.10474e-15
3.34834e-15
2.27401e-15
1.83255e-15
1.21745e-15
9.6747e-16
6.25549e-16
4.88074e-16
3.03505e-16
2.30184e-16
1.3385e-16
9.62485e-17
4.84795e-17
3.08593e-17
1.10458e-17
4.65864e-18
-1.45315e-19
-1.44635e-18
-1.76143e-18
-1.83634e-18
-1.85319e-18
2.05706e-10
1.68477e-10
1.49362e-10
1.21713e-10
1.07305e-10
8.48566e-11
7.42367e-11
5.97756e-11
5.25043e-11
4.13708e-11
3.25027e-11
2.86393e-11
2.36793e-11
2.12435e-11
1.76963e-11
1.59207e-11
1.32881e-11
1.19639e-11
9.98993e-12
8.99477e-12
7.50725e-12
6.75649e-12
5.63283e-12
5.06552e-12
4.2161e-12
3.78732e-12
3.1455e-12
2.8217e-12
2.33742e-12
2.09334e-12
1.72872e-12
1.54517e-12
1.27143e-12
1.13384e-12
9.29058e-13
8.26323e-13
6.73781e-13
5.97426e-13
4.84385e-13
4.27952e-13
3.44698e-13
3.03269e-13
2.42407e-13
2.12237e-13
1.68142e-13
1.46383e-13
1.14775e-13
9.92393e-14
7.67564e-14
6.53024e-14
4.754e-14
3.35151e-14
2.75676e-14
2.02849e-14
1.68861e-14
1.22839e-14
1.01339e-14
7.24224e-15
5.90691e-15
4.1432e-15
3.3389e-15
2.29696e-15
1.82749e-15
1.23072e-15
9.64849e-16
6.32988e-16
4.86765e-16
3.0756e-16
2.29566e-16
1.35996e-16
9.59943e-17
4.95871e-17
3.08383e-17
1.15457e-17
4.74097e-18
-1.08957e-20
-1.40444e-18
-1.75089e-18
-1.83379e-18
-1.85246e-18
2.05707e-10
1.68477e-10
1.49362e-10
1.21713e-10
1.07305e-10
8.48566e-11
7.42367e-11
5.97756e-11
5.25043e-11
4.13708e-11
3.25027e-11
2.86393e-11
2.36793e-11
2.12435e-11
1.76963e-11
1.59207e-11
1.32881e-11
1.19639e-11
9.98993e-12
8.99477e-12
7.50725e-12
6.75649e-12
5.63283e-12
5.06552e-12
4.2161e-12
3.78732e-12
3.1455e-12
2.82171e-12
2.33742e-12
2.09334e-12
1.72872e-12
1.54517e-12
1.27143e-12
1.13384e-12
9.29058e-13
8.26323e-13
6.73781e-13
5.97426e-13
4.84385e-13
4.27952e-13
3.44698e-13
3.03269e-13
2.42407e-13
2.12237e-13
1.68142e-13
1.46383e-13
1.14775e-13
9.92393e-14
7.67564e-14
6.53024e-14
4.754e-14
3.35151e-14
2.75676e-14
2.02849e-14
1.68861e-14
1.22839e-14
1.01339e-14
7.24224e-15
5.90691e-15
4.1432e-15
3.3389e-15
2.29696e-15
1.82749e-15
1.23072e-15
9.64848e-16
6.32988e-16
4.86764e-16
3.0756e-16
2.29565e-16
1.35996e-16
9.59942e-17
4.95871e-17
3.08383e-17
1.15457e-17
4.74095e-18
-1.09076e-20
-1.40445e-18
-1.7509e-18
-1.83379e-18
-1.85246e-18
2.07194e-10
1.6775e-10
1.49701e-10
1.21181e-10
1.07625e-10
8.43819e-11
7.43891e-11
5.94869e-11
5.26578e-11
4.12794e-11
3.23019e-11
2.86827e-11
2.35779e-11
2.12876e-11
1.76251e-11
1.59547e-11
1.32355e-11
1.19897e-11
9.9506e-12
9.0143e-12
7.47764e-12
6.77129e-12
5.61048e-12
5.07672e-12
4.19919e-12
3.79577e-12
3.13272e-12
2.82808e-12
2.32777e-12
2.09812e-12
1.72144e-12
1.54875e-12
1.26596e-12
1.13651e-12
9.24959e-13
8.28301e-13
6.70721e-13
5.98883e-13
4.82111e-13
4.29018e-13
3.43019e-13
3.04041e-13
2.41175e-13
2.1279e-13
1.67245e-13
1.46775e-13
1.1413e-13
9.95154e-14
7.63138e-14
6.55536e-14
4.73896e-14
3.31913e-14
2.76204e-14
2.01292e-14
1.6934e-14
1.21855e-14
1.01634e-14
7.17983e-15
5.92393e-15
4.10474e-15
3.34834e-15
2.27401e-15
1.83254e-15
1.21745e-15
9.67469e-16
6.25548e-16
4.88074e-16
3.03504e-16
2.30184e-16
1.3385e-16
9.62483e-17
4.84793e-17
3.08592e-17
1.10457e-17
4.65859e-18
-1.45347e-19
-1.44637e-18
-1.76144e-18
-1.83634e-18
-1.85319e-18
2.10257e-10
1.66165e-10
1.50457e-10
1.20049e-10
1.08331e-10
8.33758e-11
7.47366e-11
5.88743e-11
5.29926e-11
4.10913e-11
3.18862e-11
2.8785e-11
2.33635e-11
2.13863e-11
1.7474e-11
1.60304e-11
1.31238e-11
1.2047e-11
9.867e-12
9.05772e-12
7.4147e-12
6.80416e-12
5.56295e-12
5.10158e-12
4.16326e-12
3.81455e-12
3.10555e-12
2.84223e-12
2.30726e-12
2.10876e-12
1.70598e-12
1.55671e-12
1.25434e-12
1.14245e-12
9.16249e-13
8.32702e-13
6.64221e-13
6.02128e-13
4.77283e-13
4.31393e-13
3.39453e-13
3.05764e-13
2.38559e-13
2.14027e-13
1.65343e-13
1.47651e-13
1.12762e-13
1.00133e-13
7.53723e-14
6.60999e-14
4.70797e-14
3.25218e-14
2.77497e-14
1.98012e-14
1.70436e-14
1.19779e-14
1.02312e-14
7.0482e-15
5.96339e-15
4.02369e-15
3.37044e-15
2.22571e-15
1.84451e-15
1.18956e-15
9.7375e-16
6.09919e-16
4.91258e-16
2.94993e-16
2.31718e-16
1.29351e-16
9.69072e-17
4.61645e-17
3.09672e-17
1.00083e-17
4.51271e-18
-4.19984e-19
-1.52774e-18
-1.78157e-18
-1.84119e-18
-1.85457e-18
2.15082e-10
1.63443e-10
1.51799e-10
1.18167e-10
1.09564e-10
8.17161e-11
7.53722e-11
5.78617e-11
5.35674e-11
4.07948e-11
3.12259e-11
2.89797e-11
2.30111e-11
2.1562e-11
1.72238e-11
1.61644e-11
1.29387e-11
1.21483e-11
9.72843e-12
9.13437e-12
7.31036e-12
6.86217e-12
5.48416e-12
5.14547e-12
4.10369e-12
3.8477e-12
3.06052e-12
2.86721e-12
2.27326e-12
2.12754e-12
1.68036e-12
1.57078e-12
1.23508e-12
1.15294e-12
9.01821e-13
8.40491e-13
6.53456e-13
6.07876e-13
4.6929e-13
4.35604e-13
3.33553e-13
3.08824e-13
2.34234e-13
2.16227e-13
1.62198e-13
1.49213e-13
1.10502e-13
1.01235e-13
7.38102e-14
6.70354e-14
4.65908e-14
3.14604e-14
2.80056e-14
1.92653e-14
1.72454e-14
1.16374e-14
1.03563e-14
6.83254e-15
6.03696e-15
3.89113e-15
3.41216e-15
2.14683e-15
1.86741e-15
1.14409e-15
9.85939e-16
5.84473e-16
4.9754e-16
2.81157e-16
2.34813e-16
1.22054e-16
9.82967e-17
4.2427e-17
3.13051e-17
8.35206e-18
4.34416e-18
-8.47679e-19
-1.64329e-18
-1.80947e-18
-1.84788e-18
-1.85647e-18
2.21971e-10
1.59119e-10
1.5402e-10
1.15284e-10
1.11567e-10
7.91954e-11
7.64538e-11
5.632e-11
5.4481e-11
4.03699e-11
3.02724e-11
2.93231e-11
2.24777e-11
2.18532e-11
1.68424e-11
1.63849e-11
1.26561e-11
1.23147e-11
9.51676e-12
9.26015e-12
7.15094e-12
6.95733e-12
5.36374e-12
5.21744e-12
4.01265e-12
3.90207e-12
2.99171e-12
2.9082e-12
2.22131e-12
2.15836e-12
1.64122e-12
1.59388e-12
1.20566e-12
1.17018e-12
8.79794e-13
8.53302e-13
6.37028e-13
6.17339e-13
4.57098e-13
4.42547e-13
3.24557e-13
3.13875e-13
2.27643e-13
2.19866e-13
1.57411e-13
1.51803e-13
1.07064e-13
1.03063e-13
7.14215e-14
6.85171e-14
4.58889e-14
2.99316e-14
2.84727e-14
1.84604e-14
1.75906e-14
1.11237e-14
1.0571e-14
6.50769e-15
6.1645e-15
3.69185e-15
3.48531e-15
2.02849e-15
1.90805e-15
1.076e-15
1.00785e-15
5.46441e-16
5.08996e-16
2.60517e-16
2.40563e-16
1.11195e-16
1.0097e-16
3.6899e-17
3.21159e-17
5.93783e-18
4.22289e-18
-1.45126e-18
-1.78403e-18
-1.84248e-18
-1.85574e-18
-1.8587e-18
1.07889e-06
8.84513e-08
3.80891e-08
6.10648e-09
3.01476e-09
5.85377e-10
3.40767e-10
1.35392e-10
1.14302e-10
8.05417e-11
6.45e-11
6.27948e-11
5.21098e-11
5.10735e-11
4.22875e-11
4.14474e-11
3.41617e-11
3.34688e-11
2.74827e-11
2.69156e-11
2.20396e-11
2.15789e-11
1.76331e-11
1.72611e-11
1.40832e-11
1.37841e-11
1.12337e-11
1.09938e-11
8.95216e-12
8.76031e-12
7.12897e-12
6.97577e-12
5.67413e-12
5.55195e-12
4.51454e-12
4.4172e-12
3.59113e-12
3.51365e-12
2.8564e-12
2.79477e-12
2.27218e-12
2.22319e-12
1.80793e-12
1.769e-12
1.43915e-12
1.40823e-12
1.14624e-12
1.12163e-12
9.13298e-13
8.92901e-13
7.21678e-13
5.82508e-13
5.6898e-13
4.6327e-13
4.53275e-13
3.68528e-13
3.60516e-13
2.91951e-13
2.85442e-13
2.29421e-13
2.24074e-13
1.77719e-13
1.73264e-13
1.34307e-13
1.30535e-13
9.72416e-14
9.40253e-14
6.56556e-14
6.29791e-14
4.00031e-14
3.79062e-14
2.06896e-14
1.91443e-14
6.6811e-15
5.77148e-15
7.95978e-16
5.22501e-16
4.7596e-16
4.65453e-16
4.63104e-16
9.73191e-07
1.69019e-07
5.48007e-08
1.25229e-08
4.37697e-09
1.09661e-09
4.4862e-10
1.76861e-10
1.21474e-10
8.41776e-11
6.6585e-11
6.24021e-11
5.29509e-11
5.0538e-11
4.29361e-11
4.09915e-11
3.46984e-11
3.30953e-11
2.79248e-11
2.66126e-11
2.24004e-11
2.13345e-11
1.79255e-11
1.70647e-11
1.4319e-11
1.36268e-11
1.14231e-11
1.08681e-11
9.1039e-12
8.65993e-12
7.25027e-12
6.89574e-12
5.77095e-12
5.4882e-12
4.59173e-12
4.36646e-12
3.65261e-12
3.4733e-12
2.90532e-12
2.76269e-12
2.31109e-12
2.19771e-12
1.83885e-12
1.74877e-12
1.46371e-12
1.39215e-12
1.16572e-12
1.10875e-12
9.28311e-13
8.80671e-13
7.2507e-13
5.9498e-13
5.6311e-13
4.71245e-13
4.48079e-13
3.74812e-13
3.56269e-13
2.97014e-13
2.81952e-13
2.33542e-13
2.21166e-13
1.81112e-13
1.70801e-13
1.37142e-13
1.28415e-13
9.96638e-14
9.22241e-14
6.77461e-14
6.15563e-14
4.17317e-14
3.68811e-14
2.20053e-14
1.84331e-14
7.72293e-15
5.61888e-15
1.27558e-15
6.34158e-16
5.02175e-16
4.7177e-16
4.64955e-16
8.99653e-07
2.21988e-07
6.86337e-08
1.75735e-08
5.54432e-09
1.50244e-09
5.41384e-10
2.09661e-10
1.27917e-10
8.70233e-11
6.81327e-11
6.22197e-11
5.351e-11
5.02097e-11
4.33582e-11
4.07093e-11
3.50472e-11
3.28643e-11
2.82123e-11
2.64255e-11
2.26352e-11
2.11837e-11
1.8116e-11
1.69436e-11
1.44726e-11
1.35298e-11
1.15465e-11
1.07906e-11
9.20276e-12
8.59811e-12
7.32931e-12
6.84646e-12
5.83405e-12
5.44896e-12
4.64203e-12
4.33523e-12
3.69268e-12
3.44847e-12
2.93721e-12
2.74296e-12
2.33645e-12
2.18204e-12
1.85901e-12
1.73632e-12
1.47972e-12
1.38226e-12
1.17841e-12
1.1008e-12
9.38005e-13
8.72754e-13
7.27435e-13
6.03519e-13
5.59635e-13
4.76469e-13
4.44884e-13
3.78905e-13
3.53648e-13
3.00308e-13
2.79794e-13
2.36219e-13
2.19365e-13
1.83313e-13
1.6927e-13
1.38979e-13
1.27094e-13
1.01233e-13
9.11038e-14
6.91045e-14
6.06784e-14
4.2861e-14
3.62568e-14
2.28688e-14
1.80073e-14
8.42041e-15
5.55579e-15
1.60707e-15
7.25416e-16
5.24315e-16
4.77137e-16
4.6653e-16
8.5322e-07
2.53982e-07
7.83736e-08
2.10622e-08
6.39181e-09
1.78489e-09
6.08916e-10
2.32439e-10
1.32718e-10
8.89857e-11
6.91599e-11
6.21481e-11
5.38521e-11
5.00228e-11
4.36116e-11
4.05471e-11
3.52565e-11
3.27316e-11
2.83848e-11
2.63181e-11
2.27762e-11
2.10973e-11
1.82303e-11
1.68743e-11
1.45649e-11
1.34744e-11
1.16206e-11
1.07463e-11
9.26217e-12
8.56276e-12
7.37682e-12
6.81829e-12
5.87197e-12
5.42653e-12
4.67228e-12
4.31739e-12
3.71677e-12
3.43427e-12
2.95639e-12
2.73168e-12
2.3517e-12
2.17308e-12
1.87113e-12
1.72921e-12
1.48935e-12
1.37661e-12
1.18604e-12
1.09624e-12
9.43785e-13
8.68028e-13
7.28936e-13
6.08848e-13
5.57724e-13
4.79623e-13
4.4306e-13
3.81363e-13
3.52146e-13
3.02285e-13
2.78556e-13
2.37824e-13
2.18328e-13
1.84631e-13
1.68388e-13
1.40078e-13
1.26331e-13
1.02171e-13
9.04572e-14
6.9919e-14
6.01755e-14
4.35413e-14
3.59034e-14
2.33908e-14
1.77703e-14
8.84885e-15
5.53595e-15
1.81581e-15
7.89419e-16
5.4028e-16
4.8103e-16
4.67673e-16
8.30754e-07
2.69028e-07
8.33799e-08
2.28442e-08
6.83631e-09
1.9299e-09
6.44395e-10
2.44121e-10
1.3527e-10
8.99881e-11
6.96726e-11
6.21267e-11
5.40146e-11
4.99384e-11
4.37304e-11
4.04733e-11
3.53545e-11
3.26712e-11
2.84657e-11
2.62693e-11
2.28424e-11
2.10581e-11
1.8284e-11
1.68429e-11
1.46082e-11
1.34492e-11
1.16554e-11
1.07262e-11
9.29005e-12
8.54674e-12
7.39911e-12
6.80552e-12
5.88977e-12
5.41636e-12
4.68647e-12
4.3093e-12
3.72808e-12
3.42785e-12
2.96539e-12
2.72657e-12
2.35886e-12
2.16902e-12
1.87682e-12
1.72599e-12
1.49387e-12
1.37405e-12
1.18962e-12
1.09417e-12
9.46483e-13
8.65823e-13
7.29665e-13
6.11408e-13
5.56884e-13
4.81108e-13
4.42234e-13
3.82517e-13
3.51464e-13
3.03212e-13
2.77992e-13
2.38576e-13
2.17856e-13
1.85248e-13
1.67986e-13
1.40592e-13
1.25983e-13
1.0261e-13
9.01622e-14
7.03006e-14
5.99472e-14
4.38609e-14
3.57444e-14
2.36367e-14
1.7665e-14
9.05273e-15
5.53228e-15
1.91673e-15
8.22292e-16
5.48627e-16
4.83074e-16
4.68273e-16
8.30754e-07
2.69028e-07
8.33798e-08
2.28442e-08
6.83626e-09
1.92988e-09
6.44385e-10
2.44118e-10
1.35269e-10
8.99877e-11
6.96725e-11
6.21267e-11
5.40146e-11
4.99384e-11
4.37304e-11
4.04733e-11
3.53545e-11
3.26712e-11
2.84657e-11
2.62693e-11
2.28424e-11
2.10581e-11
1.8284e-11
1.68429e-11
1.46082e-11
1.34492e-11
1.16554e-11
1.07262e-11
9.29005e-12
8.54674e-12
7.39911e-12
6.80552e-12
5.88977e-12
5.41636e-12
4.68647e-12
4.3093e-12
3.72808e-12
3.42785e-12
2.96539e-12
2.72657e-12
2.35886e-12
2.16902e-12
1.87682e-12
1.72599e-12
1.49387e-12
1.37405e-12
1.18962e-12
1.09417e-12
9.46483e-13
8.65823e-13
7.29665e-13
6.11408e-13
5.56884e-13
4.81108e-13
4.42234e-13
3.82517e-13
3.51464e-13
3.03212e-13
2.77993e-13
2.38576e-13
2.17856e-13
1.85248e-13
1.67986e-13
1.40592e-13
1.25983e-13
1.0261e-13
9.01622e-14
7.03006e-14
5.99472e-14
4.38609e-14
3.57443e-14
2.36367e-14
1.7665e-14
9.05272e-15
5.53227e-15
1.91673e-15
8.22289e-16
5.48626e-16
4.83074e-16
4.68272e-16
8.53221e-07
2.53982e-07
7.83733e-08
2.1062e-08
6.39168e-09
1.78482e-09
6.0889e-10
2.3243e-10
1.32715e-10
8.89847e-11
6.91596e-11
6.2148e-11
5.38521e-11
5.00228e-11
4.36116e-11
4.05471e-11
3.52565e-11
3.27316e-11
2.83848e-11
2.63181e-11
2.27763e-11
2.10973e-11
1.82304e-11
1.68743e-11
1.45649e-11
1.34744e-11
1.16206e-11
1.07463e-11
9.26218e-12
8.56276e-12
7.37682e-12
6.81829e-12
5.87198e-12
5.42653e-12
4.67228e-12
4.31739e-12
3.71678e-12
3.43428e-12
2.95639e-12
2.73168e-12
2.3517e-12
2.17308e-12
1.87113e-12
1.72921e-12
1.48935e-12
1.37661e-12
1.18604e-12
1.09624e-12
9.43786e-13
8.68029e-13
7.28936e-13
6.08848e-13
5.57724e-13
4.79623e-13
4.4306e-13
3.81363e-13
3.52146e-13
3.02285e-13
2.78556e-13
2.37824e-13
2.18328e-13
1.84631e-13
1.68388e-13
1.40078e-13
1.26331e-13
1.02171e-13
9.04572e-14
6.9919e-14
6.01754e-14
4.35412e-14
3.59034e-14
2.33907e-14
1.77702e-14
8.84882e-15
5.53593e-15
1.8158e-15
7.89411e-16
5.40276e-16
4.81028e-16
4.67671e-16
8.99654e-07
2.21988e-07
6.86333e-08
1.75733e-08
5.54416e-09
1.50236e-09
5.41351e-10
2.09648e-10
1.27913e-10
8.70219e-11
6.81323e-11
6.22196e-11
5.351e-11
5.02097e-11
4.33582e-11
4.07093e-11
3.50473e-11
3.28643e-11
2.82123e-11
2.64255e-11
2.26353e-11
2.11837e-11
1.8116e-11
1.69437e-11
1.44726e-11
1.35298e-11
1.15465e-11
1.07906e-11
9.20276e-12
8.59812e-12
7.32932e-12
6.84647e-12
5.83405e-12
5.44896e-12
4.64204e-12
4.33524e-12
3.69269e-12
3.44847e-12
2.93722e-12
2.74296e-12
2.33646e-12
2.18204e-12
1.85901e-12
1.73632e-12
1.47972e-12
1.38226e-12
1.17841e-12
1.1008e-12
9.38005e-13
8.72754e-13
7.27436e-13
6.03519e-13
5.59635e-13
4.76469e-13
4.44885e-13
3.78905e-13
3.53648e-13
3.00308e-13
2.79795e-13
2.36219e-13
2.19365e-13
1.83313e-13
1.6927e-13
1.38979e-13
1.27094e-13
1.01233e-13
9.11038e-14
6.91045e-14
6.06784e-14
4.2861e-14
3.62568e-14
2.28687e-14
1.80073e-14
8.42038e-15
5.55576e-15
1.60705e-15
7.25406e-16
5.2431e-16
4.77135e-16
4.66527e-16
9.73191e-07
1.69019e-07
5.48004e-08
1.25227e-08
4.37683e-09
1.09654e-09
4.48591e-10
1.7685e-10
1.2147e-10
8.41764e-11
6.65847e-11
6.24021e-11
5.29509e-11
5.0538e-11
4.29362e-11
4.09915e-11
3.46984e-11
3.30953e-11
2.79248e-11
2.66127e-11
2.24004e-11
2.13346e-11
1.79256e-11
1.70647e-11
1.43191e-11
1.36268e-11
1.14231e-11
1.08681e-11
9.1039e-12
8.65994e-12
7.25028e-12
6.89574e-12
5.77096e-12
5.48821e-12
4.59173e-12
4.36646e-12
3.65262e-12
3.4733e-12
2.90533e-12
2.76269e-12
2.31109e-12
2.19771e-12
1.83885e-12
1.74877e-12
1.46371e-12
1.39215e-12
1.16572e-12
1.10875e-12
9.28312e-13
8.80672e-13
7.2507e-13
5.9498e-13
5.6311e-13
4.71245e-13
4.4808e-13
3.74812e-13
3.56269e-13
2.97014e-13
2.81953e-13
2.33542e-13
2.21167e-13
1.81112e-13
1.70801e-13
1.37142e-13
1.28415e-13
9.96638e-14
9.22241e-14
6.77461e-14
6.15563e-14
4.17317e-14
3.68811e-14
2.20053e-14
1.84331e-14
7.7229e-15
5.61886e-15
1.27556e-15
6.34149e-16
5.02171e-16
4.71768e-16
4.64953e-16
1.07889e-06
8.84513e-08
3.8089e-08
6.10639e-09
3.01471e-09
5.8535e-10
3.40755e-10
1.35387e-10
1.14301e-10
8.05413e-11
6.44999e-11
6.27947e-11
5.21098e-11
5.10735e-11
4.22875e-11
4.14474e-11
3.41617e-11
3.34689e-11
2.74827e-11
2.69156e-11
2.20396e-11
2.15789e-11
1.76331e-11
1.72611e-11
1.40832e-11
1.37841e-11
1.12337e-11
1.09938e-11
8.95216e-12
8.76031e-12
7.12897e-12
6.97577e-12
5.67414e-12
5.55196e-12
4.51454e-12
4.4172e-12
3.59114e-12
3.51365e-12
2.8564e-12
2.79477e-12
2.27218e-12
2.22319e-12
1.80793e-12
1.769e-12
1.43915e-12
1.40823e-12
1.14624e-12
1.12163e-12
9.13298e-13
8.92902e-13
7.21678e-13
5.82508e-13
5.6898e-13
4.6327e-13
4.53275e-13
3.68528e-13
3.60516e-13
2.91951e-13
2.85442e-13
2.29421e-13
2.24074e-13
1.7772e-13
1.73264e-13
1.34307e-13
1.30535e-13
9.72416e-14
9.40253e-14
6.56556e-14
6.29791e-14
4.00031e-14
3.79062e-14
2.06895e-14
1.91443e-14
6.68109e-15
5.77148e-15
7.95972e-16
5.22498e-16
4.75959e-16
4.65453e-16
4.63103e-16
1.07934e-06
8.85062e-08
3.8123e-08
6.1094e-09
3.01545e-09
5.8361e-10
3.38808e-10
1.3349e-10
1.12411e-10
7.89085e-11
6.31208e-11
6.1441e-11
5.09718e-11
4.99565e-11
4.13552e-11
4.05329e-11
3.34027e-11
3.27247e-11
2.68678e-11
2.6313e-11
2.15433e-11
2.10928e-11
1.72338e-11
1.687e-11
1.37628e-11
1.34703e-11
1.0977e-11
1.07425e-11
8.74694e-12
8.55943e-12
6.96514e-12
6.81543e-12
5.54351e-12
5.42413e-12
4.41052e-12
4.31542e-12
3.50838e-12
3.43269e-12
2.79062e-12
2.73041e-12
2.21994e-12
2.17208e-12
1.76645e-12
1.72843e-12
1.40623e-12
1.37602e-12
1.12012e-12
1.09608e-12
8.92581e-13
8.72657e-13
7.05402e-13
5.69452e-13
5.56237e-13
4.52968e-13
4.43203e-13
3.60407e-13
3.52579e-13
2.85586e-13
2.79227e-13
2.24484e-13
2.19258e-13
1.73954e-13
1.69598e-13
1.31513e-13
1.27825e-13
9.52627e-14
9.2116e-14
6.43498e-14
6.17293e-14
3.92243e-14
3.717e-14
2.02969e-14
1.87819e-14
6.55516e-15
5.66278e-15
7.80809e-16
5.12478e-16
4.66813e-16
4.56504e-16
4.54199e-16
9.73597e-07
1.69106e-07
5.48397e-08
1.25299e-08
4.37845e-09
1.09525e-09
4.46766e-10
1.7498e-10
1.19613e-10
8.25456e-11
6.51849e-11
6.10615e-11
5.17971e-11
4.94327e-11
4.19904e-11
4.00868e-11
3.3928e-11
3.23593e-11
2.73003e-11
2.60167e-11
2.18963e-11
2.08538e-11
1.75198e-11
1.6678e-11
1.39934e-11
1.33165e-11
1.11622e-11
1.06196e-11
8.89526e-12
8.46134e-12
7.08369e-12
6.73722e-12
5.63813e-12
5.36185e-12
4.48594e-12
4.26585e-12
3.56845e-12
3.39327e-12
2.83842e-12
2.69909e-12
2.25794e-12
2.14719e-12
1.79665e-12
1.70866e-12
1.43022e-12
1.36032e-12
1.13915e-12
1.0835e-12
9.07246e-13
8.60711e-13
7.08714e-13
5.81636e-13
5.50502e-13
4.60758e-13
4.38127e-13
3.66546e-13
3.4843e-13
2.90534e-13
2.75817e-13
2.2851e-13
2.16417e-13
1.77269e-13
1.6719e-13
1.34285e-13
1.25751e-13
9.76312e-14
9.03526e-14
6.63953e-14
6.03351e-14
4.09172e-14
3.6165e-14
2.15861e-14
1.80838e-14
7.57713e-15
5.51298e-15
1.25138e-15
6.22033e-16
4.92534e-16
4.62702e-16
4.56015e-16
9.0003e-07
2.22095e-07
6.86771e-08
1.75836e-08
5.54648e-09
1.50139e-09
5.39616e-10
2.07798e-10
1.26077e-10
8.53924e-11
6.67186e-11
6.08871e-11
5.2346e-11
4.91117e-11
4.24037e-11
3.98107e-11
3.42694e-11
3.21333e-11
2.75817e-11
2.58336e-11
2.2126e-11
2.07063e-11
1.77061e-11
1.65597e-11
1.41435e-11
1.32218e-11
1.12828e-11
1.05439e-11
8.9919e-12
8.40093e-12
7.16094e-12
6.68908e-12
5.69978e-12
5.32351e-12
4.5351e-12
4.23535e-12
3.6076e-12
3.36901e-12
2.86957e-12
2.67981e-12
2.28272e-12
2.13188e-12
1.81634e-12
1.6965e-12
1.44586e-12
1.35066e-12
1.15154e-12
1.07573e-12
9.16714e-13
8.52976e-13
7.11025e-13
5.89976e-13
5.47107e-13
4.65861e-13
4.35005e-13
3.70544e-13
3.45868e-13
2.93752e-13
2.73708e-13
2.31126e-13
2.14655e-13
1.7942e-13
1.65694e-13
1.3608e-13
1.24459e-13
9.91653e-14
8.92556e-14
6.77244e-14
5.94748e-14
4.20231e-14
3.55529e-14
2.24321e-14
1.76658e-14
8.2613e-15
5.45102e-15
1.57663e-15
7.11573e-16
5.14257e-16
4.67968e-16
4.5756e-16
8.53578e-07
2.54101e-07
7.84202e-08
2.10742e-08
6.39446e-09
1.78405e-09
6.07208e-10
2.30591e-10
1.30892e-10
8.73558e-11
6.77371e-11
6.08201e-11
5.26819e-11
4.8929e-11
4.26518e-11
3.9652e-11
3.44742e-11
3.20035e-11
2.77505e-11
2.57286e-11
2.2264e-11
2.06218e-11
1.78179e-11
1.64919e-11
1.42338e-11
1.31675e-11
1.13553e-11
1.05006e-11
9.04998e-12
8.36639e-12
7.20737e-12
6.66155e-12
5.73685e-12
5.30159e-12
4.56464e-12
4.21791e-12
3.63113e-12
3.35515e-12
2.8883e-12
2.66879e-12
2.29762e-12
2.12313e-12
1.82818e-12
1.68955e-12
1.45526e-12
1.34514e-12
1.159e-12
1.07128e-12
9.22361e-13
8.4836e-13
7.12491e-13
5.95182e-13
5.45241e-13
4.68942e-13
4.33223e-13
3.72946e-13
3.444e-13
2.95683e-13
2.72497e-13
2.32695e-13
2.13642e-13
1.80708e-13
1.64831e-13
1.37154e-13
1.23712e-13
1.00083e-13
8.86225e-14
6.85213e-14
5.89818e-14
4.26892e-14
3.52063e-14
2.29435e-14
1.7433e-14
8.68155e-15
5.43152e-15
1.78144e-15
7.74371e-16
5.29922e-16
4.71787e-16
4.58682e-16
8.31103e-07
2.69153e-07
8.34282e-08
2.28573e-08
6.83922e-09
1.92917e-09
6.42718e-10
2.4228e-10
1.3345e-10
8.83586e-11
6.82457e-11
6.08008e-11
5.28415e-11
4.88465e-11
4.27682e-11
3.95799e-11
3.45702e-11
3.19445e-11
2.78296e-11
2.56809e-11
2.23287e-11
2.05834e-11
1.78704e-11
1.64612e-11
1.42761e-11
1.31429e-11
1.13893e-11
1.0481e-11
9.07723e-12
8.35073e-12
7.22916e-12
6.64908e-12
5.75424e-12
5.29166e-12
4.57851e-12
4.21001e-12
3.64218e-12
3.34887e-12
2.89709e-12
2.6638e-12
2.30461e-12
2.11917e-12
1.83374e-12
1.68641e-12
1.45968e-12
1.34264e-12
1.16249e-12
1.06925e-12
9.24996e-13
8.46206e-13
7.13203e-13
5.97683e-13
5.4442e-13
4.70393e-13
4.32416e-13
3.74073e-13
3.43734e-13
2.96589e-13
2.71947e-13
2.3343e-13
2.13181e-13
1.81311e-13
1.64437e-13
1.37656e-13
1.23372e-13
1.00512e-13
8.83336e-14
6.88947e-14
5.87581e-14
4.30022e-14
3.50503e-14
2.31844e-14
1.73296e-14
8.88154e-15
5.4279e-15
1.88046e-15
8.06625e-16
5.38112e-16
4.73793e-16
4.59271e-16
8.31104e-07
2.69153e-07
8.34281e-08
2.28572e-08
6.83917e-09
1.92915e-09
6.42708e-10
2.42277e-10
1.33449e-10
8.83582e-11
6.82456e-11
6.08007e-11
5.28415e-11
4.88466e-11
4.27682e-11
3.95799e-11
3.45702e-11
3.19445e-11
2.78296e-11
2.56809e-11
2.23287e-11
2.05834e-11
1.78704e-11
1.64612e-11
1.42761e-11
1.31429e-11
1.13893e-11
1.0481e-11
9.07723e-12
8.35073e-12
7.22916e-12
6.64908e-12
5.75424e-12
5.29166e-12
4.57851e-12
4.21001e-12
3.64218e-12
3.34887e-12
2.8971e-12
2.6638e-12
2.30461e-12
2.11917e-12
1.83374e-12
1.68641e-12
1.45968e-12
1.34264e-12
1.16249e-12
1.06925e-12
9.24996e-13
8.46206e-13
7.13203e-13
5.97683e-13
5.4442e-13
4.70393e-13
4.32416e-13
3.74073e-13
3.43734e-13
2.96589e-13
2.71947e-13
2.3343e-13
2.13181e-13
1.81311e-13
1.64437e-13
1.37656e-13
1.23372e-13
1.00512e-13
8.83336e-14
6.88947e-14
5.87581e-14
4.30022e-14
3.50503e-14
2.31844e-14
1.73296e-14
8.88153e-15
5.42789e-15
1.88045e-15
8.06622e-16
5.38111e-16
4.73793e-16
4.5927e-16
8.53579e-07
2.54101e-07
7.842e-08
2.1074e-08
6.39434e-09
1.78399e-09
6.07183e-10
2.30581e-10
1.30888e-10
8.73547e-11
6.77368e-11
6.082e-11
5.26819e-11
4.8929e-11
4.26518e-11
3.9652e-11
3.44743e-11
3.20035e-11
2.77505e-11
2.57286e-11
2.2264e-11
2.06218e-11
1.7818e-11
1.64919e-11
1.42338e-11
1.31675e-11
1.13553e-11
1.05006e-11
9.04998e-12
8.36639e-12
7.20737e-12
6.66156e-12
5.73685e-12
5.30159e-12
4.56465e-12
4.21791e-12
3.63113e-12
3.35515e-12
2.8883e-12
2.6688e-12
2.29762e-12
2.12313e-12
1.82818e-12
1.68956e-12
1.45526e-12
1.34514e-12
1.159e-12
1.07128e-12
9.22361e-13
8.48361e-13
7.12491e-13
5.95182e-13
5.45241e-13
4.68943e-13
4.33223e-13
3.72947e-13
3.44401e-13
2.95683e-13
2.72497e-13
2.32695e-13
2.13642e-13
1.80708e-13
1.64831e-13
1.37154e-13
1.23712e-13
1.00083e-13
8.86225e-14
6.85213e-14
5.89818e-14
4.26892e-14
3.52063e-14
2.29435e-14
1.7433e-14
8.68153e-15
5.4315e-15
1.78143e-15
7.74363e-16
5.29918e-16
4.71786e-16
4.58679e-16
9.00031e-07
2.22095e-07
6.86768e-08
1.75833e-08
5.54631e-09
1.50131e-09
5.39583e-10
2.07786e-10
1.26072e-10
8.5391e-11
6.67182e-11
6.0887e-11
5.2346e-11
4.91117e-11
4.24037e-11
3.98107e-11
3.42695e-11
3.21333e-11
2.75817e-11
2.58336e-11
2.21261e-11
2.07063e-11
1.77061e-11
1.65597e-11
1.41436e-11
1.32218e-11
1.12828e-11
1.05439e-11
8.9919e-12
8.40094e-12
7.16094e-12
6.68908e-12
5.69979e-12
5.32351e-12
4.5351e-12
4.23535e-12
3.6076e-12
3.36901e-12
2.86957e-12
2.67981e-12
2.28272e-12
2.13188e-12
1.81634e-12
1.6965e-12
1.44586e-12
1.35066e-12
1.15155e-12
1.07573e-12
9.16715e-13
8.52977e-13
7.11025e-13
5.89977e-13
5.47108e-13
4.65862e-13
4.35006e-13
3.70545e-13
3.45868e-13
2.93752e-13
2.73708e-13
2.31126e-13
2.14656e-13
1.7942e-13
1.65694e-13
1.3608e-13
1.24459e-13
9.91653e-14
8.92556e-14
6.77244e-14
5.94748e-14
4.20231e-14
3.55528e-14
2.2432e-14
1.76657e-14
8.26127e-15
5.451e-15
1.57661e-15
7.11563e-16
5.14253e-16
4.67965e-16
4.57557e-16
9.73598e-07
1.69106e-07
5.48393e-08
1.25297e-08
4.37831e-09
1.09518e-09
4.46737e-10
1.74969e-10
1.19609e-10
8.25444e-11
6.51846e-11
6.10614e-11
5.17971e-11
4.94327e-11
4.19904e-11
4.00869e-11
3.3928e-11
3.23593e-11
2.73004e-11
2.60167e-11
2.18963e-11
2.08538e-11
1.75199e-11
1.6678e-11
1.39934e-11
1.33165e-11
1.11622e-11
1.06196e-11
8.89527e-12
8.46134e-12
7.08369e-12
6.73723e-12
5.63813e-12
5.36185e-12
4.48595e-12
4.26585e-12
3.56845e-12
3.39327e-12
2.83842e-12
2.69909e-12
2.25795e-12
2.14719e-12
1.79665e-12
1.70866e-12
1.43022e-12
1.36032e-12
1.13915e-12
1.0835e-12
9.07246e-13
8.60711e-13
7.08715e-13
5.81636e-13
5.50502e-13
4.60759e-13
4.38127e-13
3.66547e-13
3.4843e-13
2.90534e-13
2.75817e-13
2.28511e-13
2.16417e-13
1.77269e-13
1.6719e-13
1.34285e-13
1.25751e-13
9.76313e-14
9.03526e-14
6.63953e-14
6.03351e-14
4.09172e-14
3.6165e-14
2.15861e-14
1.80838e-14
7.57711e-15
5.51296e-15
1.25137e-15
6.22024e-16
4.9253e-16
4.627e-16
4.56013e-16
1.07934e-06
8.85062e-08
3.81229e-08
6.1093e-09
3.01539e-09
5.83583e-10
3.38797e-10
1.33486e-10
1.1241e-10
7.89081e-11
6.31207e-11
6.1441e-11
5.09718e-11
4.99565e-11
4.13552e-11
4.05329e-11
3.34027e-11
3.27247e-11
2.68678e-11
2.6313e-11
2.15433e-11
2.10928e-11
1.72338e-11
1.687e-11
1.37628e-11
1.34703e-11
1.0977e-11
1.07425e-11
8.74694e-12
8.55944e-12
6.96514e-12
6.81543e-12
5.54352e-12
5.42413e-12
4.41052e-12
4.31542e-12
3.50839e-12
3.43269e-12
2.79062e-12
2.73042e-12
2.21994e-12
2.17208e-12
1.76645e-12
1.72843e-12
1.40623e-12
1.37603e-12
1.12012e-12
1.09608e-12
8.92581e-13
8.72658e-13
7.05402e-13
5.69452e-13
5.56237e-13
4.52968e-13
4.43203e-13
3.60407e-13
3.5258e-13
2.85586e-13
2.79227e-13
2.24484e-13
2.19258e-13
1.73954e-13
1.69598e-13
1.31514e-13
1.27825e-13
9.52628e-14
9.2116e-14
6.43498e-14
6.17293e-14
3.92243e-14
3.717e-14
2.02969e-14
1.87819e-14
6.55515e-15
5.66277e-15
7.80804e-16
5.12475e-16
4.66812e-16
4.56503e-16
4.54198e-16
2.19218e-10
1.56586e-10
1.51527e-10
1.13371e-10
1.09708e-10
7.7817e-11
7.51182e-11
5.53247e-11
5.35169e-11
3.96478e-11
2.97271e-11
2.87944e-11
2.20702e-11
2.14568e-11
1.65355e-11
1.60862e-11
1.24245e-11
1.20893e-11
9.3419e-12
9.08994e-12
7.01906e-12
6.82897e-12
5.26447e-12
5.12084e-12
3.93812e-12
3.82957e-12
2.93595e-12
2.85399e-12
2.17977e-12
2.11799e-12
1.61043e-12
1.56397e-12
1.18297e-12
1.14815e-12
8.6318e-13
8.37182e-13
6.24959e-13
6.05639e-13
4.48409e-13
4.34133e-13
3.18368e-13
3.07889e-13
2.23289e-13
2.15659e-13
1.54391e-13
1.4889e-13